Protein in INSANE! Membrane UpperLeaflet>POPC=1.0 LowerLeaflet>POPC=1.0
241533
   81AUC    AUC    1  13.247  40.021   7.502
   82AUC    AUC    2  13.493  40.021   7.350
   83AUC    AUC    3  13.493  40.021   7.653
   84AUC    AUC    4  13.002  40.021   7.350
   85AUC    AUC    5  13.002  40.021   7.653
   86AUC    AUC    6  13.095  40.266   7.502
   87AUC    AUC    7  13.399  40.266   7.502
   88AUC    AUC    8  13.095  39.775   7.502
   89AUC    AUC    9  13.399  39.775   7.502
   90AUC    AUC   10  13.247  39.869   7.747
   91AUC    AUC   11  13.247  40.172   7.747
   92AUC    AUC   12  13.247  39.869   7.256
   93AUC    AUC   13  13.247  40.172   7.256
   94AUC    AUC   14  13.738  40.021   7.198
   95AUC    AUC   15  13.738  40.021   7.502
   96AUC    AUC   16  13.738  40.021   7.805
   97AUC    AUC   17  12.756  40.021   7.198
   98AUC    AUC   18  12.756  40.021   7.502
   99AUC    AUC   19  12.756  40.021   7.805
  100AUC    AUC   20  12.944  40.511   7.502
  101AUC    AUC   21  13.247  40.511   7.502
  102AUC    AUC   22  13.550  40.511   7.502
  103AUC    AUC   23  12.944  39.530   7.502
  104AUC    AUC   24  13.247  39.530   7.502
  105AUC    AUC   25  13.550  39.530   7.502
  106AUC    AUC   26  13.247  39.717   7.992
  107AUC    AUC   27  13.247  40.021   7.992
  108AUC    AUC   28  13.247  40.324   7.992
  109AUC    AUC   29  13.247  39.717   7.011
  110AUC    AUC   30  13.247  40.021   7.011
  111AUC    AUC   31  13.247  40.324   7.011
  112AUC    AUC   32  13.493  39.869   7.899
  113AUC    AUC   33  13.493  40.172   7.899
  114AUC    AUC   34  13.493  39.869   7.105
  115AUC    AUC   35  13.493  40.172   7.105
  116AUC    AUC   36  13.002  39.869   7.899
  117AUC    AUC   37  13.002  40.172   7.899
  118AUC    AUC   38  13.002  39.869   7.105
  119AUC    AUC   39  13.002  40.172   7.105
  120AUC    AUC   40  13.644  40.266   7.350
  121AUC    AUC   41  13.644  40.266   7.653
  122AUC    AUC   42  12.850  40.266   7.350
  123AUC    AUC   43  12.850  40.266   7.653
  124AUC    AUC   44  13.644  39.775   7.350
  125AUC    AUC   45  13.644  39.775   7.653
  126AUC    AUC   46  12.850  39.775   7.350
  127AUC    AUC   47  12.850  39.775   7.653
  128AUC    AUC   48  13.095  40.418   7.747
  129AUC    AUC   49  13.399  40.418   7.747
  130AUC    AUC   50  13.095  39.623   7.747
  131AUC    AUC   51  13.399  39.623   7.747
  132AUC    AUC   52  13.095  40.418   7.256
  133AUC    AUC   53  13.399  40.418   7.256
  134AUC    AUC   54  13.095  39.623   7.256
  135AUC    AUC   55  13.399  39.623   7.256
  136AUSL   AUS   56  13.656  40.021   8.082
  137AUSL   AUS   57  13.512  39.604   8.012
  138AUL    AUL   58  13.738  39.717   8.296
  139THSLK    S   59  13.626  39.416   8.156
  140ETHY    C1   60  13.692  39.031   8.391
  141ETHY    C1   61  13.835  38.623   8.710
  142ETHY    C1   62  14.044  38.287   9.066
  143ETHY    C1   63  14.310  38.029   9.450
  144ETHY    C1   64  14.626  37.853   9.855
  145THSLK    S   65  13.752  39.971   8.326
  146ETHY    C1   66  13.968  39.785   8.681
  147ETHY    C1   67  14.243  39.650   9.124
  148ETHY    C1   68  14.524  39.620   9.575
  149ETHY    C1   69  14.802  39.689  10.025
  150ETHY    C1   70  15.071  39.857  10.466
  151AUSL   AUS   71  13.411  39.869   8.175
  152AUSL   AUS   72  13.084  40.172   8.175
  153AUL    AUL   73  13.247  40.021   8.483
  154THSLK    S   74  13.489  39.816   8.417
  155ETHY    C1   75  13.566  39.566   8.790
  156ETHY    C1   76  13.682  39.349   9.269
  157ETHY    C1   77  13.819  39.233   9.769
  158ETHY    C1   78  13.969  39.215  10.281
  159ETHY    C1   79  14.128  39.296  10.794
  160THSLK    S   80  12.997  40.129   8.431
  161ETHY    C1   81  12.915  40.017   8.864
  162ETHY    C1   82  12.801  39.971   9.388
  163ETHY    C1   83  12.669  40.029   9.901
  164ETHY    C1   84  12.518  40.182  10.389
  165ETHY    C1   85  12.352  40.426  10.844
  166AUSL   AUS   86  13.411  40.172   8.175
  167AUSL   AUS   87  13.757  40.285   7.918
  168AUL    AUL   88  13.738  40.324   8.296
  169THSLK    S   89  13.498  40.226   8.414
  170ETHY    C1   90  13.579  40.477   8.786
  171ETHY    C1   91  13.693  40.693   9.265
  172ETHY    C1   92  13.826  40.809   9.767
  173ETHY    C1   93  13.976  40.827  10.279
  174ETHY    C1   94  14.142  40.747  10.789
  175THSLK    S   95  13.931  40.387   8.080
  176ETHY    C1   96  14.295  40.397   8.354
  177ETHY    C1   97  14.711  40.499   8.680
  178ETHY    C1   98  15.091  40.698   8.995
  179ETHY    C1   99  15.426  40.985   9.296
  180ETHY    C1  100  15.707  41.353   9.577
  181AUSL   AUS  101  13.656  40.021   6.922
  182AUSL   AUS  102  13.512  40.437   6.992
  183AUL    AUL  103  13.738  40.324   6.707
  184THSLK    S  104  13.759  39.971   6.681
  185ETHY    C1  105  13.980  39.785   6.329
  186ETHY    C1  106  14.253  39.650   5.885
  187ETHY    C1  107  14.531  39.620   5.432
  188ETHY    C1  108  14.809  39.689   4.982
  189ETHY    C1  109  15.083  39.857   4.545
  190THSLK    S  110  13.690  40.552   6.825
  191ETHY    C1  111  13.978  40.657   6.488
  192ETHY    C1  112  14.278  40.861   6.090
  193ETHY    C1  113  14.521  41.149   5.714
  194ETHY    C1  114  14.705  41.513   5.371
  195ETHY    C1  115  14.829  41.944   5.065
  196AUSL   AUS  116  13.411  39.869   6.828
  197AUSL   AUS  117  13.757  39.756   7.085
  198AUL    AUL  118  13.738  39.717   6.707
  199THSLK    S  119  13.894  39.564   6.944
  200ETHY    C1  120  14.102  39.221   6.729
  201ETHY    C1  121  14.403  38.879   6.442
  202ETHY    C1  122  14.754  38.626   6.133
  203ETHY    C1  123  15.148  38.464   5.812
  204ETHY    C1  124  15.577  38.393   5.486
  205THSLK    S  125  13.498  39.815   6.590
  206ETHY    C1  126  13.579  39.564   6.217
  207ETHY    C1  127  13.693  39.348   5.738
  208ETHY    C1  128  13.826  39.232   5.236
  209ETHY    C1  129  13.976  39.214   4.725
  210ETHY    C1  130  14.142  39.294   4.214
  211AUSL   AUS  131  13.411  40.172   6.828
  212AUSL   AUS  132  13.084  39.869   6.828
  213AUL    AUL  133  13.247  40.021   6.520
  214THSLK    S  134  12.989  39.815   6.592
  215ETHY    C1  135  12.852  39.567   6.235
  216ETHY    C1  136  12.692  39.353   5.767
  217ETHY    C1  137  12.545  39.238   5.269
  218ETHY    C1  138  12.418  39.219   4.751
  219ETHY    C1  139  12.313  39.295   4.224
  220THSLK    S  140  13.514  40.130   6.578
  221ETHY    C1  141  13.655  40.015   6.160
  222ETHY    C1  142  13.813  39.968   5.647
  223ETHY    C1  143  13.956  40.024   5.138
  224ETHY    C1  144  14.084  40.178   4.643
  225ETHY    C1  145  14.195  40.426   4.174
  226AUSL   AUS  146  12.838  40.021   8.082
  227AUSL   AUS  147  12.982  40.437   8.012
  228AUL    AUL  148  12.756  40.324   8.296
  229THSLK    S  149  12.735  39.971   8.322
  230ETHY    C1  150  12.514  39.785   8.674
  231ETHY    C1  151  12.241  39.650   9.118
  232ETHY    C1  152  11.964  39.620   9.571
  233ETHY    C1  153  11.686  39.689  10.021
  234ETHY    C1  154  11.411  39.857  10.458
  235THSLK    S  155  12.862  40.566   8.202
  236ETHY    C1  156  12.793  40.735   8.620
  237ETHY    C1  157  12.651  40.988   9.073
  238ETHY    C1  158  12.445  41.289   9.460
  239ETHY    C1  159  12.178  41.628   9.775
  240ETHY    C1  160  11.858  41.995  10.013
  241AUSL   AUS  161  13.084  39.869   8.175
  242AUSL   AUS  162  12.737  39.756   7.918
  243AUL    AUL  163  12.756  39.717   8.296
  244THSLK    S  164  12.559  39.592   8.029
  245ETHY    C1  165  12.191  39.339   8.125
  246ETHY    C1  166  11.776  39.060   8.323
  247ETHY    C1  167  11.398  38.820   8.611
  248ETHY    C1  168  11.064  38.624   8.978
  249ETHY    C1  169  10.778  38.478   9.415
  250THSLK    S  170  12.981  39.817   8.410
  251ETHY    C1  171  12.839  39.570   8.766
  252ETHY    C1  172  12.681  39.355   9.233
  253ETHY    C1  173  12.538  39.239   9.733
  254ETHY    C1  174  12.411  39.221  10.250
  255ETHY    C1  175  12.299  39.299  10.775
  256AUSL   AUS  176  12.838  40.021   6.922
  257AUSL   AUS  177  12.982  39.604   6.992
  258AUL    AUL  178  12.756  39.717   6.707
  259THSLK    S  179  12.743  39.971   6.677
  260ETHY    C1  180  12.526  39.785   6.322
  261ETHY    C1  181  12.251  39.650   5.879
  262ETHY    C1  182  11.970  39.620   5.429
  263ETHY    C1  183  11.692  39.689   4.978
  264ETHY    C1  184  11.424  39.857   4.537
  265THSLK    S  185  12.810  39.430   6.872
  266ETHY    C1  186  12.525  39.109   6.717
  267ETHY    C1  187  12.224  38.750   6.453
  268ETHY    C1  188  11.979  38.427   6.109
  269ETHY    C1  189  11.795  38.144   5.696
  270ETHY    C1  190  11.676  37.904   5.223
  271AUSL   AUS  191  13.084  40.172   6.828
  272AUSL   AUS  192  12.737  40.285   7.085
  273AUL    AUL  193  12.756  40.324   6.707
  274THSLK    S  194  12.606  40.415   6.893
  275ETHY    C1  195  12.400  40.515   6.499
  276ETHY    C1  196  12.098  40.679   6.085
  277ETHY    C1  197  11.744  40.891   5.748
  278ETHY    C1  198  11.351  41.145   5.494
  279ETHY    C1  199  10.926  41.438   5.324
  280THSLK    S  200  13.005  40.131   6.571
  281ETHY    C1  201  12.928  40.019   6.136
  282ETHY    C1  202  12.812  39.974   5.612
  283ETHY    C1  203  12.676  40.030   5.101
  284ETHY    C1  204  12.526  40.184   4.613
  285ETHY    C1  205  12.366  40.429   4.156
  286AUSL   AUS  206  13.827  40.430   7.502
  287AUSL   AUS  207  13.757  40.285   7.085
  288AUL    AUL  208  14.041  40.511   7.198
  289THSLK    S  209  13.936  40.388   6.930
  290ETHY    C1  210  14.303  40.399   6.659
  291ETHY    C1  211  14.718  40.501   6.332
  292ETHY    C1  212  15.096  40.699   6.014
  293ETHY    C1  213  15.430  40.986   5.713
  294ETHY    C1  214  15.716  41.356   5.438
  295THSLK    S  215  14.095  40.486   7.506
  296ETHY    C1  216  14.547  40.547   7.508
  297ETHY    C1  217  15.061  40.706   7.507
  298ETHY    C1  218  15.529  40.960   7.505
  299ETHY    C1  219  15.942  41.297   7.506
  300ETHY    C1  220  16.294  41.711   7.509
  301AUSL   AUS  221  13.921  40.184   7.350
  302AUSL   AUS  222  13.921  39.857   7.653
  303AUL    AUL  223  14.229  40.021   7.502
  304THSLK    S  224  14.180  40.227   7.348
  305ETHY    C1  225  14.625  40.157   7.278
  306ETHY    C1  226  15.156  40.164   7.190
  307ETHY    C1  227  15.669  40.274   7.101
  308ETHY    C1  228  16.154  40.480   7.017
  309ETHY    C1  229  16.601  40.777   6.940
  310THSLK    S  230  14.153  39.719   7.662
  311ETHY    C1  231  14.499  39.430   7.728
  312ETHY    C1  232  14.960  39.163   7.809
  313ETHY    C1  233  15.457  38.994   7.892
  314ETHY    C1  234  15.978  38.922   7.980
  315ETHY    C1  235  16.513  38.948   8.071
  316AUSL   AUS  236  13.921  40.184   7.653
  317AUSL   AUS  237  13.664  40.531   7.766
  318AUL    AUL  238  14.041  40.511   7.805
  319THSLK    S  239  13.847  40.650   7.926
  320ETHY    C1  240  14.219  40.805   8.139
  321ETHY    C1  241  14.619  41.070   8.385
  322ETHY    C1  242  14.953  41.414   8.615
  323ETHY    C1  243  15.215  41.827   8.827
  324ETHY    C1  244  15.402  42.299   9.019
  325THSLK    S  245  14.179  40.227   7.664
  326ETHY    C1  246  14.623  40.157   7.738
  327ETHY    C1  247  15.154  40.164   7.825
  328ETHY    C1  248  15.668  40.274   7.910
  329ETHY    C1  249  16.152  40.480   7.994
  330ETHY    C1  250  16.599  40.777   8.078
  331AUSL   AUS  251  12.667  40.430   7.502
  332AUSL   AUS  252  12.737  40.285   7.918
  333AUL    AUL  253  12.453  40.511   7.805
  334THSLK    S  254  12.601  40.408   8.109
  335ETHY    C1  255  12.392  40.504   8.503
  336ETHY    C1  256  12.091  40.670   8.917
  337ETHY    C1  257  11.740  40.885   9.254
  338ETHY    C1  258  11.346  41.139   9.509
  339ETHY    C1  259  10.917  41.426   9.678
  340THSLK    S  260  12.451  40.570   7.506
  341ETHY    C1  261  12.195  40.948   7.508
  342ETHY    C1  262  11.822  41.336   7.507
  343ETHY    C1  263  11.386  41.642   7.505
  344ETHY    C1  264  10.900  41.860   7.506
  345ETHY    C1  265  10.373  41.990   7.509
  346AUSL   AUS  266  12.573  40.184   7.350
  347AUSL   AUS  267  12.831  40.531   7.237
  348AUL    AUL  268  12.453  40.511   7.198
  349THSLK    S  269  12.342  40.299   7.303
  350ETHY    C1  270  11.995  40.487   7.075
  351ETHY    C1  271  11.535  40.679   6.872
  352ETHY    C1  272  11.037  40.829   6.758
  353ETHY    C1  273  10.516  40.939   6.733
  354ETHY    C1  274   9.982  41.009   6.796
  355THSLK    S  275  12.715  40.696   7.058
  356ETHY    C1  276  12.599  41.012   6.750
  357ETHY    C1  277  12.385  41.390   6.432
  358ETHY    C1  278  12.093  41.759   6.183
  359ETHY    C1  279  11.735  42.112   6.008
  360ETHY    C1  280  11.317  42.445   5.909
  361AUSL   AUS  281  12.573  40.184   7.653
  362AUSL   AUS  282  12.573  39.857   7.350
  363AUL    AUL  283  12.265  40.021   7.502
  364THSLK    S  284  12.315  39.783   7.390
  365ETHY    C1  285  11.871  39.748   7.486
  366ETHY    C1  286  11.340  39.667   7.518
  367ETHY    C1  287  10.826  39.542   7.458
  368ETHY    C1  288  10.342  39.374   7.311
  369ETHY    C1  289   9.895  39.167   7.083
  370THSLK    S  290  12.340  40.291   7.704
  371ETHY    C1  291  11.993  40.475   7.935
  372ETHY    C1  292  11.533  40.668   8.137
  373ETHY    C1  293  11.036  40.823   8.249
  374ETHY    C1  294  10.515  40.933   8.274
  375ETHY    C1  295   9.979  40.996   8.213
  376AUSL   AUS  296  13.827  39.611   7.502
  377AUSL   AUS  297  13.757  39.756   7.918
  378AUL    AUL  298  14.041  39.530   7.805
  379THSLK    S  299  14.043  39.471   7.506
  380ETHY    C1  300  14.299  39.093   7.508
  381ETHY    C1  301  14.672  38.705   7.507
  382ETHY    C1  302  15.108  38.399   7.505
  383ETHY    C1  303  15.594  38.181   7.506
  384ETHY    C1  304  16.121  38.051   7.509
  385THSLK    S  305  13.889  39.566   8.066
  386ETHY    C1  306  14.094  39.223   8.285
  387ETHY    C1  307  14.396  38.881   8.570
  388ETHY    C1  308  14.750  38.628   8.877
  389ETHY    C1  309  15.144  38.465   9.198
  390ETHY    C1  310  15.568  38.395   9.529
  391AUSL   AUS  311  13.921  39.857   7.350
  392AUSL   AUS  312  13.664  39.510   7.237
  393AUL    AUL  313  14.041  39.530   7.198
  394THSLK    S  314  14.154  39.719   7.350
  395ETHY    C1  315  14.502  39.430   7.289
  396ETHY    C1  316  14.961  39.163   7.206
  397ETHY    C1  317  15.458  38.994   7.118
  398ETHY    C1  318  15.980  38.922   7.031
  399ETHY    C1  319  16.515  38.948   6.947
  400THSLK    S  320  13.783  39.320   7.104
  401ETHY    C1  321  13.900  38.903   6.963
  402ETHY    C1  322  14.114  38.449   6.765
  403ETHY    C1  323  14.404  38.063   6.543
  404ETHY    C1  324  14.763  37.748   6.306
  405ETHY    C1  325  15.183  37.509   6.058
  406AUSL   AUS  326  12.667  39.611   7.502
  407AUSL   AUS  327  12.737  39.756   7.085
  408AUL    AUL  328  12.453  39.530   7.198
  409THSLK    S  329  12.564  39.585   6.973
  410ETHY    C1  330  12.199  39.328   6.877
  411ETHY    C1  331  11.783  39.051   6.679
  412ETHY    C1  332  11.403  38.814   6.392
  413ETHY    C1  333  11.069  38.618   6.025
  414ETHY    C1  334  10.787  38.466   5.587
  415THSLK    S  335  12.399  39.555   7.506
  416ETHY    C1  336  11.947  39.494   7.508
  417ETHY    C1  337  11.433  39.335   7.507
  418ETHY    C1  338  10.965  39.081   7.505
  419ETHY    C1  339  10.552  38.744   7.506
  420ETHY    C1  340  10.200  38.330   7.509
  421AUSL   AUS  341  12.573  39.857   7.653
  422AUSL   AUS  342  12.831  39.510   7.766
  423AUL    AUL  343  12.453  39.530   7.805
  424THSLK    S  344  12.643  39.366   7.880
  425ETHY    C1  345  12.269  39.109   7.926
  426ETHY    C1  346  11.871  38.769   8.052
  427ETHY    C1  347  11.538  38.407   8.255
  428ETHY    C1  348  11.276  38.033   8.529
  429ETHY    C1  349  11.085  37.655   8.870
  430THSLK    S  350  12.314  39.790   7.617
  431ETHY    C1  351  11.869  39.760   7.524
  432ETHY    C1  352  11.338  39.678   7.490
  433ETHY    C1  353  10.825  39.549   7.549
  434ETHY    C1  354  10.341  39.381   7.696
  435ETHY    C1  355   9.893  39.179   7.928
  436AUSL   AUS  356  13.247  40.601   7.911
  437AUSL   AUS  357  12.831  40.531   7.766
  438AUL    AUL  358  12.944  40.815   7.992
  439THSLK    S  359  12.711  40.690   7.950
  440ETHY    C1  360  12.594  41.002   8.261
  441ETHY    C1  361  12.380  41.382   8.578
  442ETHY    C1  362  12.090  41.753   8.824
  443ETHY    C1  363  11.732  42.107   9.000
  444ETHY    C1  364  11.311  42.435   9.102
  445THSLK    S  365  13.287  40.827   8.035
  446ETHY    C1  366  13.444  41.129   8.339
  447ETHY    C1  367  13.559  41.535   8.672
  448ETHY    C1  368  13.586  41.979   8.964
  449ETHY    C1  369  13.526  42.448   9.211
  450ETHY    C1  370  13.382  42.932   9.410
  451AUSL   AUS  371  13.095  40.694   7.665
  452AUSL   AUS  372  13.399  40.694   7.338
  453AUL    AUL  373  13.247  41.002   7.502
  454THSLK    S  374  13.136  40.942   7.774
  455ETHY    C1  375  13.245  41.352   7.942
  456ETHY    C1  376  13.289  41.859   8.118
  457ETHY    C1  377  13.232  42.367   8.265
  458ETHY    C1  378  13.079  42.864   8.383
  459ETHY    C1  379  12.836  43.341   8.472
  460THSLK    S  380  13.452  40.929   7.241
  461ETHY    C1  381  13.697  41.285   7.094
  462ETHY    C1  382  13.910  41.750   6.927
  463ETHY    C1  383  14.025  42.248   6.779
  464ETHY    C1  384  14.045  42.767   6.655
  465ETHY    C1  385  13.970  43.296   6.558
  466AUSL   AUS  386  13.399  40.694   7.665
  467AUSL   AUS  387  13.512  40.437   8.012
  468AUL    AUL  388  13.550  40.815   7.992
  469THSLK    S  389  13.684  40.550   8.184
  470ETHY    C1  390  13.969  40.653   8.524
  471ETHY    C1  391  14.271  40.857   8.921
  472ETHY    C1  392  14.516  41.147   9.294
  473ETHY    C1  393  14.700  41.510   9.638
  474ETHY    C1  394  14.819  41.940   9.948
  475THSLK    S  395  13.450  40.928   7.771
  476ETHY    C1  396  13.694  41.282   7.922
  477ETHY    C1  397  13.907  41.748   8.087
  478ETHY    C1  398  14.023  42.247   8.231
  479ETHY    C1  399  14.042  42.765   8.356
  480ETHY    C1  400  13.967  43.293   8.458
  481AUSL   AUS  401  13.247  39.441   7.911
  482AUSL   AUS  402  13.664  39.510   7.766
  483AUL    AUL  403  13.550  39.226   7.992
  484THSLK    S  404  13.203  39.186   7.990
  485ETHY    C1  405  13.043  38.782   8.128
  486ETHY    C1  406  12.929  38.301   8.341
  487ETHY    C1  407  12.904  37.840   8.605
  488ETHY    C1  408  12.963  37.410   8.915
  489ETHY    C1  409  13.104  37.018   9.263
  490THSLK    S  410  13.779  39.321   7.908
  491ETHY    C1  411  13.895  38.905   8.052
  492ETHY    C1  412  14.109  38.452   8.248
  493ETHY    C1  413  14.401  38.064   8.467
  494ETHY    C1  414  14.760  37.749   8.705
  495ETHY    C1  415  15.177  37.512   8.958
  496AUSL   AUS  416  13.095  39.347   7.665
  497AUSL   AUS  417  12.982  39.604   8.012
  498AUL    AUL  418  12.944  39.226   7.992
  499THSLK    S  419  13.042  39.107   7.745
  500ETHY    C1  420  12.797  38.726   7.801
  501ETHY    C1  421  12.584  38.241   7.897
  502ETHY    C1  422  12.469  37.738   8.025
  503ETHY    C1  423  12.450  37.229   8.186
  504ETHY    C1  424  12.524  36.726   8.374
  505THSLK    S  425  12.804  39.436   8.133
  506ETHY    C1  426  12.516  39.118   8.289
  507ETHY    C1  427  12.216  38.758   8.552
  508ETHY    C1  428  11.973  38.432   8.896
  509ETHY    C1  429  11.789  38.149   9.309
  510ETHY    C1  430  11.665  37.915   9.783
  511AUSL   AUS  431  13.399  39.347   7.665
  512AUSL   AUS  432  13.095  39.347   7.338
  513AUL    AUL  433  13.247  39.039   7.502
  514THSLK    S  434  13.044  39.104   7.266
  515ETHY    C1  435  12.800  38.722   7.215
  516ETHY    C1  436  12.587  38.238   7.117
  517ETHY    C1  437  12.471  37.736   6.984
  518ETHY    C1  438  12.452  37.227   6.825
  519ETHY    C1  439  12.528  36.722   6.642
  520THSLK    S  440  13.356  39.091   7.749
  521ETHY    C1  441  13.246  38.655   7.821
  522ETHY    C1  442  13.203  38.129   7.928
  523ETHY    C1  443  13.260  37.617   8.059
  524ETHY    C1  444  13.413  37.129   8.213
  525ETHY    C1  445  13.655  36.676   8.388
  526AUSL   AUS  446  13.247  40.601   7.093
  527AUSL   AUS  447  13.664  40.531   7.237
  528AUL    AUL  448  13.550  40.815   7.011
  529THSLK    S  449  13.291  40.831   6.975
  530ETHY    C1  450  13.451  41.135   6.674
  531ETHY    C1  451  13.565  41.540   6.339
  532ETHY    C1  452  13.590  41.983   6.045
  533ETHY    C1  453  13.531  42.452   5.798
  534ETHY    C1  454  13.390  42.939   5.604
  535THSLK    S  455  13.851  40.652   7.085
  536ETHY    C1  456  14.225  40.808   6.876
  537ETHY    C1  457  14.623  41.072   6.629
  538ETHY    C1  458  14.956  41.416   6.395
  539ETHY    C1  459  15.218  41.828   6.184
  540ETHY    C1  460  15.409  42.302   5.998
  541AUSL   AUS  461  13.095  40.694   7.338
  542AUSL   AUS  462  12.982  40.437   6.992
  543AUL    AUL  463  12.944  40.815   7.011
  544THSLK    S  464  13.138  40.945   7.237
  545ETHY    C1  465  13.248  41.356   7.074
  546ETHY    C1  466  13.291  41.862   6.896
  547ETHY    C1  467  13.234  42.370   6.745
  548ETHY    C1  468  13.081  42.867   6.627
  549ETHY    C1  469  12.839  43.346   6.545
  550THSLK    S  470  12.868  40.572   6.802
  551ETHY    C1  471  12.802  40.744   6.385
  552ETHY    C1  472  12.659  40.996   5.932
  553ETHY    C1  473  12.450  41.295   5.544
  554ETHY    C1  474  12.184  41.633   5.230
  555ETHY    C1  475  11.868  42.006   4.993
  556AUSL   AUS  476  13.247  39.441   7.093
  557AUSL   AUS  477  12.831  39.510   7.237
  558AUL    AUL  478  12.944  39.226   7.011
  559THSLK    S  479  12.647  39.360   7.128
  560ETHY    C1  480  12.275  39.099   7.085
  561ETHY    C1  481  11.876  38.761   6.958
  562ETHY    C1  482  11.541  38.402   6.753
  563ETHY    C1  483  11.279  38.028   6.478
  564ETHY    C1  484  11.092  37.645   6.142
  565THSLK    S  485  13.207  39.182   7.019
  566ETHY    C1  486  13.050  38.776   6.885
  567ETHY    C1  487  12.935  38.296   6.671
  568ETHY    C1  488  12.908  37.837   6.404
  569ETHY    C1  489  12.968  37.406   6.094
  570ETHY    C1  490  13.112  37.011   5.751
  571AUSL   AUS  491  13.399  39.347   7.338
  572AUSL   AUS  492  13.512  39.604   6.992
  573AUL    AUL  493  13.550  39.226   7.011
  574THSLK    S  494  13.358  39.090   7.262
  575ETHY    C1  495  13.249  38.652   7.195
  576ETHY    C1  496  13.206  38.126   7.086
  577ETHY    C1  497  13.262  37.615   6.951
  578ETHY    C1  498  13.415  37.127   6.798
  579ETHY    C1  499  13.659  36.673   6.629
  580THSLK    S  500  13.632  39.414   6.853
  581ETHY    C1  501  13.701  39.028   6.621
  582ETHY    C1  502  13.843  38.620   6.300
  583ETHY    C1  503  14.050  38.284   5.942
  584ETHY    C1  504  14.316  38.027   5.559
  585ETHY    C1  505  14.636  37.849   5.158
  586AUC    AUC  506   8.841  32.326   7.502
  587AUC    AUC  507   9.087  32.326   7.350
  588AUC    AUC  508   9.087  32.326   7.653
  589AUC    AUC  509   8.596  32.326   7.350
  590AUC    AUC  510   8.596  32.326   7.653
  591AUC    AUC  511   8.689  32.571   7.502
  592AUC    AUC  512   8.993  32.571   7.502
  593AUC    AUC  513   8.689  32.080   7.502
  594AUC    AUC  514   8.993  32.080   7.502
  595AUC    AUC  515   8.841  32.174   7.747
  596AUC    AUC  516   8.841  32.477   7.747
  597AUC    AUC  517   8.841  32.174   7.256
  598AUC    AUC  518   8.841  32.477   7.256
  599AUC    AUC  519   9.332  32.326   7.198
  600AUC    AUC  520   9.332  32.326   7.502
  601AUC    AUC  521   9.332  32.326   7.805
  602AUC    AUC  522   8.350  32.326   7.198
  603AUC    AUC  523   8.350  32.326   7.502
  604AUC    AUC  524   8.350  32.326   7.805
  605AUC    AUC  525   8.538  32.816   7.502
  606AUC    AUC  526   8.841  32.816   7.502
  607AUC    AUC  527   9.144  32.816   7.502
  608AUC    AUC  528   8.538  31.835   7.502
  609AUC    AUC  529   8.841  31.835   7.502
  610AUC    AUC  530   9.144  31.835   7.502
  611AUC    AUC  531   8.841  32.022   7.992
  612AUC    AUC  532   8.841  32.326   7.992
  613AUC    AUC  533   8.841  32.629   7.992
  614AUC    AUC  534   8.841  32.022   7.011
  615AUC    AUC  535   8.841  32.326   7.011
  616AUC    AUC  536   8.841  32.629   7.011
  617AUC    AUC  537   9.087  32.174   7.899
  618AUC    AUC  538   9.087  32.477   7.899
  619AUC    AUC  539   9.087  32.174   7.105
  620AUC    AUC  540   9.087  32.477   7.105
  621AUC    AUC  541   8.596  32.174   7.899
  622AUC    AUC  542   8.596  32.477   7.899
  623AUC    AUC  543   8.596  32.174   7.105
  624AUC    AUC  544   8.596  32.477   7.105
  625AUC    AUC  545   9.238  32.571   7.350
  626AUC    AUC  546   9.238  32.571   7.653
  627AUC    AUC  547   8.444  32.571   7.350
  628AUC    AUC  548   8.444  32.571   7.653
  629AUC    AUC  549   9.238  32.080   7.350
  630AUC    AUC  550   9.238  32.080   7.653
  631AUC    AUC  551   8.444  32.080   7.350
  632AUC    AUC  552   8.444  32.080   7.653
  633AUC    AUC  553   8.689  32.723   7.747
  634AUC    AUC  554   8.993  32.723   7.747
  635AUC    AUC  555   8.689  31.928   7.747
  636AUC    AUC  556   8.993  31.928   7.747
  637AUC    AUC  557   8.689  32.723   7.256
  638AUC    AUC  558   8.993  32.723   7.256
  639AUC    AUC  559   8.689  31.928   7.256
  640AUC    AUC  560   8.993  31.928   7.256
  641AUSL   AUS  561   9.250  32.326   8.082
  642AUSL   AUS  562   9.106  31.909   8.012
  643AUL    AUL  563   9.332  32.022   8.296
  644THSLK    S  564   9.220  31.721   8.156
  645ETHY    C1  565   9.286  31.336   8.391
  646ETHY    C1  566   9.429  30.928   8.710
  647ETHY    C1  567   9.638  30.592   9.066
  648ETHY    C1  568   9.904  30.334   9.450
  649ETHY    C1  569  10.220  30.158   9.855
  650THSLK    S  570   9.346  32.276   8.326
  651ETHY    C1  571   9.562  32.090   8.681
  652ETHY    C1  572   9.837  31.955   9.124
  653ETHY    C1  573  10.118  31.925   9.575
  654ETHY    C1  574  10.396  31.994  10.025
  655ETHY    C1  575  10.665  32.162  10.466
  656AUSL   AUS  576   9.005  32.174   8.175
  657AUSL   AUS  577   8.678  32.477   8.175
  658AUL    AUL  578   8.841  32.326   8.483
  659THSLK    S  579   9.083  32.121   8.417
  660ETHY    C1  580   9.160  31.871   8.790
  661ETHY    C1  581   9.276  31.654   9.269
  662ETHY    C1  582   9.413  31.538   9.769
  663ETHY    C1  583   9.563  31.520  10.281
  664ETHY    C1  584   9.722  31.601  10.794
  665THSLK    S  585   8.591  32.434   8.431
  666ETHY    C1  586   8.509  32.322   8.864
  667ETHY    C1  587   8.395  32.276   9.388
  668ETHY    C1  588   8.263  32.334   9.901
  669ETHY    C1  589   8.112  32.487  10.389
  670ETHY    C1  590   7.946  32.731  10.844
  671AUSL   AUS  591   9.005  32.477   8.175
  672AUSL   AUS  592   9.351  32.590   7.918
  673AUL    AUL  593   9.332  32.629   8.296
  674THSLK    S  594   9.092  32.531   8.414
  675ETHY    C1  595   9.173  32.782   8.786
  676ETHY    C1  596   9.287  32.998   9.265
  677ETHY    C1  597   9.420  33.114   9.767
  678ETHY    C1  598   9.570  33.132  10.279
  679ETHY    C1  599   9.736  33.052  10.789
  680THSLK    S  600   9.525  32.692   8.080
  681ETHY    C1  601   9.889  32.702   8.354
  682ETHY    C1  602  10.305  32.804   8.680
  683ETHY    C1  603  10.685  33.003   8.995
  684ETHY    C1  604  11.020  33.290   9.296
  685ETHY    C1  605  11.301  33.658   9.577
  686AUSL   AUS  606   9.250  32.326   6.922
  687AUSL   AUS  607   9.106  32.742   6.992
  688AUL    AUL  608   9.332  32.629   6.707
  689THSLK    S  609   9.353  32.276   6.681
  690ETHY    C1  610   9.574  32.090   6.329
  691ETHY    C1  611   9.847  31.955   5.885
  692ETHY    C1  612  10.125  31.925   5.432
  693ETHY    C1  613  10.403  31.994   4.982
  694ETHY    C1  614  10.677  32.162   4.545
  695THSLK    S  615   9.284  32.857   6.825
  696ETHY    C1  616   9.572  32.962   6.488
  697ETHY    C1  617   9.872  33.166   6.090
  698ETHY    C1  618  10.115  33.454   5.714
  699ETHY    C1  619  10.299  33.818   5.371
  700ETHY    C1  620  10.423  34.249   5.065
  701AUSL   AUS  621   9.005  32.174   6.828
  702AUSL   AUS  622   9.351  32.061   7.085
  703AUL    AUL  623   9.332  32.022   6.707
  704THSLK    S  624   9.488  31.869   6.944
  705ETHY    C1  625   9.696  31.526   6.729
  706ETHY    C1  626   9.997  31.184   6.442
  707ETHY    C1  627  10.348  30.931   6.133
  708ETHY    C1  628  10.742  30.769   5.812
  709ETHY    C1  629  11.171  30.698   5.486
  710THSLK    S  630   9.092  32.120   6.590
  711ETHY    C1  631   9.173  31.869   6.217
  712ETHY    C1  632   9.287  31.653   5.738
  713ETHY    C1  633   9.420  31.537   5.236
  714ETHY    C1  634   9.570  31.519   4.725
  715ETHY    C1  635   9.736  31.599   4.214
  716AUSL   AUS  636   9.005  32.477   6.828
  717AUSL   AUS  637   8.678  32.174   6.828
  718AUL    AUL  638   8.841  32.326   6.520
  719THSLK    S  639   8.583  32.120   6.592
  720ETHY    C1  640   8.446  31.872   6.235
  721ETHY    C1  641   8.286  31.658   5.767
  722ETHY    C1  642   8.139  31.543   5.269
  723ETHY    C1  643   8.012  31.524   4.751
  724ETHY    C1  644   7.907  31.600   4.224
  725THSLK    S  645   9.108  32.435   6.578
  726ETHY    C1  646   9.249  32.320   6.160
  727ETHY    C1  647   9.407  32.273   5.647
  728ETHY    C1  648   9.550  32.329   5.138
  729ETHY    C1  649   9.678  32.483   4.643
  730ETHY    C1  650   9.789  32.731   4.174
  731AUSL   AUS  651   8.432  32.326   8.082
  732AUSL   AUS  652   8.576  32.742   8.012
  733AUL    AUL  653   8.350  32.629   8.296
  734THSLK    S  654   8.329  32.276   8.322
  735ETHY    C1  655   8.108  32.090   8.674
  736ETHY    C1  656   7.835  31.955   9.118
  737ETHY    C1  657   7.558  31.925   9.571
  738ETHY    C1  658   7.280  31.994  10.021
  739ETHY    C1  659   7.005  32.162  10.458
  740THSLK    S  660   8.456  32.871   8.202
  741ETHY    C1  661   8.387  33.040   8.620
  742ETHY    C1  662   8.245  33.293   9.073
  743ETHY    C1  663   8.039  33.594   9.460
  744ETHY    C1  664   7.772  33.933   9.775
  745ETHY    C1  665   7.452  34.300  10.013
  746AUSL   AUS  666   8.678  32.174   8.175
  747AUSL   AUS  667   8.331  32.061   7.918
  748AUL    AUL  668   8.350  32.022   8.296
  749THSLK    S  669   8.153  31.897   8.029
  750ETHY    C1  670   7.785  31.644   8.125
  751ETHY    C1  671   7.370  31.365   8.323
  752ETHY    C1  672   6.992  31.125   8.611
  753ETHY    C1  673   6.658  30.929   8.978
  754ETHY    C1  674   6.372  30.783   9.415
  755THSLK    S  675   8.575  32.122   8.410
  756ETHY    C1  676   8.433  31.875   8.766
  757ETHY    C1  677   8.275  31.660   9.233
  758ETHY    C1  678   8.132  31.544   9.733
  759ETHY    C1  679   8.005  31.526  10.250
  760ETHY    C1  680   7.893  31.604  10.775
  761AUSL   AUS  681   8.432  32.326   6.922
  762AUSL   AUS  682   8.576  31.909   6.992
  763AUL    AUL  683   8.350  32.022   6.707
  764THSLK    S  684   8.337  32.276   6.677
  765ETHY    C1  685   8.120  32.090   6.322
  766ETHY    C1  686   7.845  31.955   5.879
  767ETHY    C1  687   7.564  31.925   5.429
  768ETHY    C1  688   7.286  31.994   4.978
  769ETHY    C1  689   7.018  32.162   4.537
  770THSLK    S  690   8.404  31.735   6.872
  771ETHY    C1  691   8.119  31.414   6.717
  772ETHY    C1  692   7.818  31.055   6.453
  773ETHY    C1  693   7.573  30.732   6.109
  774ETHY    C1  694   7.389  30.449   5.696
  775ETHY    C1  695   7.270  30.209   5.223
  776AUSL   AUS  696   8.678  32.477   6.828
  777AUSL   AUS  697   8.331  32.590   7.085
  778AUL    AUL  698   8.350  32.629   6.707
  779THSLK    S  699   8.200  32.720   6.893
  780ETHY    C1  700   7.994  32.820   6.499
  781ETHY    C1  701   7.692  32.984   6.085
  782ETHY    C1  702   7.338  33.196   5.748
  783ETHY    C1  703   6.945  33.450   5.494
  784ETHY    C1  704   6.520  33.743   5.324
  785THSLK    S  705   8.599  32.436   6.571
  786ETHY    C1  706   8.522  32.324   6.136
  787ETHY    C1  707   8.406  32.279   5.612
  788ETHY    C1  708   8.270  32.335   5.101
  789ETHY    C1  709   8.120  32.489   4.613
  790ETHY    C1  710   7.960  32.734   4.156
  791AUSL   AUS  711   9.421  32.735   7.502
  792AUSL   AUS  712   9.351  32.590   7.085
  793AUL    AUL  713   9.635  32.816   7.198
  794THSLK    S  714   9.530  32.693   6.930
  795ETHY    C1  715   9.897  32.704   6.659
  796ETHY    C1  716  10.312  32.806   6.332
  797ETHY    C1  717  10.690  33.004   6.014
  798ETHY    C1  718  11.024  33.291   5.713
  799ETHY    C1  719  11.310  33.661   5.438
  800THSLK    S  720   9.689  32.791   7.506
  801ETHY    C1  721  10.141  32.852   7.508
  802ETHY    C1  722  10.655  33.011   7.507
  803ETHY    C1  723  11.123  33.265   7.505
  804ETHY    C1  724  11.536  33.602   7.506
  805ETHY    C1  725  11.888  34.016   7.509
  806AUSL   AUS  726   9.515  32.489   7.350
  807AUSL   AUS  727   9.515  32.162   7.653
  808AUL    AUL  728   9.823  32.326   7.502
  809THSLK    S  729   9.774  32.532   7.348
  810ETHY    C1  730  10.219  32.462   7.278
  811ETHY    C1  731  10.750  32.469   7.190
  812ETHY    C1  732  11.263  32.579   7.101
  813ETHY    C1  733  11.748  32.785   7.017
  814ETHY    C1  734  12.195  33.082   6.940
  815THSLK    S  735   9.747  32.024   7.662
  816ETHY    C1  736  10.093  31.735   7.728
  817ETHY    C1  737  10.554  31.468   7.809
  818ETHY    C1  738  11.051  31.299   7.892
  819ETHY    C1  739  11.572  31.227   7.980
  820ETHY    C1  740  12.107  31.253   8.071
  821AUSL   AUS  741   9.515  32.489   7.653
  822AUSL   AUS  742   9.258  32.836   7.766
  823AUL    AUL  743   9.635  32.816   7.805
  824THSLK    S  744   9.441  32.955   7.926
  825ETHY    C1  745   9.813  33.110   8.139
  826ETHY    C1  746  10.213  33.375   8.385
  827ETHY    C1  747  10.547  33.719   8.615
  828ETHY    C1  748  10.809  34.132   8.827
  829ETHY    C1  749  10.996  34.604   9.019
  830THSLK    S  750   9.773  32.532   7.664
  831ETHY    C1  751  10.217  32.462   7.738
  832ETHY    C1  752  10.748  32.469   7.825
  833ETHY    C1  753  11.262  32.579   7.910
  834ETHY    C1  754  11.746  32.785   7.994
  835ETHY    C1  755  12.193  33.082   8.078
  836AUSL   AUS  756   8.261  32.735   7.502
  837AUSL   AUS  757   8.331  32.590   7.918
  838AUL    AUL  758   8.047  32.816   7.805
  839THSLK    S  759   8.195  32.713   8.109
  840ETHY    C1  760   7.986  32.809   8.503
  841ETHY    C1  761   7.685  32.975   8.917
  842ETHY    C1  762   7.334  33.190   9.254
  843ETHY    C1  763   6.940  33.444   9.509
  844ETHY    C1  764   6.511  33.731   9.678
  845THSLK    S  765   8.045  32.875   7.506
  846ETHY    C1  766   7.789  33.253   7.508
  847ETHY    C1  767   7.416  33.641   7.507
  848ETHY    C1  768   6.980  33.947   7.505
  849ETHY    C1  769   6.494  34.165   7.506
  850ETHY    C1  770   5.967  34.295   7.509
  851AUSL   AUS  771   8.167  32.489   7.350
  852AUSL   AUS  772   8.425  32.836   7.237
  853AUL    AUL  773   8.047  32.816   7.198
  854THSLK    S  774   7.936  32.604   7.303
  855ETHY    C1  775   7.589  32.792   7.075
  856ETHY    C1  776   7.129  32.984   6.872
  857ETHY    C1  777   6.631  33.134   6.758
  858ETHY    C1  778   6.110  33.244   6.733
  859ETHY    C1  779   5.576  33.314   6.796
  860THSLK    S  780   8.309  33.001   7.058
  861ETHY    C1  781   8.193  33.317   6.750
  862ETHY    C1  782   7.979  33.695   6.432
  863ETHY    C1  783   7.687  34.064   6.183
  864ETHY    C1  784   7.329  34.417   6.008
  865ETHY    C1  785   6.911  34.750   5.909
  866AUSL   AUS  786   8.167  32.489   7.653
  867AUSL   AUS  787   8.167  32.162   7.350
  868AUL    AUL  788   7.859  32.326   7.502
  869THSLK    S  789   7.909  32.088   7.390
  870ETHY    C1  790   7.465  32.053   7.486
  871ETHY    C1  791   6.934  31.972   7.518
  872ETHY    C1  792   6.420  31.847   7.458
  873ETHY    C1  793   5.936  31.679   7.311
  874ETHY    C1  794   5.489  31.472   7.083
  875THSLK    S  795   7.934  32.596   7.704
  876ETHY    C1  796   7.587  32.780   7.935
  877ETHY    C1  797   7.127  32.973   8.137
  878ETHY    C1  798   6.630  33.128   8.249
  879ETHY    C1  799   6.109  33.238   8.274
  880ETHY    C1  800   5.573  33.301   8.213
  881AUSL   AUS  801   9.421  31.916   7.502
  882AUSL   AUS  802   9.351  32.061   7.918
  883AUL    AUL  803   9.635  31.835   7.805
  884THSLK    S  804   9.637  31.776   7.506
  885ETHY    C1  805   9.893  31.398   7.508
  886ETHY    C1  806  10.266  31.010   7.507
  887ETHY    C1  807  10.702  30.704   7.505
  888ETHY    C1  808  11.188  30.486   7.506
  889ETHY    C1  809  11.715  30.356   7.509
  890THSLK    S  810   9.483  31.871   8.066
  891ETHY    C1  811   9.688  31.528   8.285
  892ETHY    C1  812   9.990  31.186   8.570
  893ETHY    C1  813  10.344  30.933   8.877
  894ETHY    C1  814  10.738  30.770   9.198
  895ETHY    C1  815  11.162  30.700   9.529
  896AUSL   AUS  816   9.515  32.162   7.350
  897AUSL   AUS  817   9.258  31.815   7.237
  898AUL    AUL  818   9.635  31.835   7.198
  899THSLK    S  819   9.748  32.024   7.350
  900ETHY    C1  820  10.096  31.735   7.289
  901ETHY    C1  821  10.555  31.468   7.206
  902ETHY    C1  822  11.052  31.299   7.118
  903ETHY    C1  823  11.574  31.227   7.031
  904ETHY    C1  824  12.109  31.253   6.947
  905THSLK    S  825   9.377  31.625   7.104
  906ETHY    C1  826   9.494  31.208   6.963
  907ETHY    C1  827   9.708  30.754   6.765
  908ETHY    C1  828   9.998  30.368   6.543
  909ETHY    C1  829  10.357  30.053   6.306
  910ETHY    C1  830  10.777  29.814   6.058
  911AUSL   AUS  831   8.261  31.916   7.502
  912AUSL   AUS  832   8.331  32.061   7.085
  913AUL    AUL  833   8.047  31.835   7.198
  914THSLK    S  834   8.158  31.890   6.973
  915ETHY    C1  835   7.793  31.633   6.877
  916ETHY    C1  836   7.377  31.356   6.679
  917ETHY    C1  837   6.997  31.119   6.392
  918ETHY    C1  838   6.663  30.923   6.025
  919ETHY    C1  839   6.381  30.771   5.587
  920THSLK    S  840   7.993  31.860   7.506
  921ETHY    C1  841   7.541  31.799   7.508
  922ETHY    C1  842   7.027  31.640   7.507
  923ETHY    C1  843   6.559  31.386   7.505
  924ETHY    C1  844   6.146  31.049   7.506
  925ETHY    C1  845   5.794  30.635   7.509
  926AUSL   AUS  846   8.167  32.162   7.653
  927AUSL   AUS  847   8.425  31.815   7.766
  928AUL    AUL  848   8.047  31.835   7.805
  929THSLK    S  849   8.237  31.671   7.880
  930ETHY    C1  850   7.863  31.414   7.926
  931ETHY    C1  851   7.465  31.074   8.052
  932ETHY    C1  852   7.132  30.712   8.255
  933ETHY    C1  853   6.870  30.338   8.529
  934ETHY    C1  854   6.679  29.960   8.870
  935THSLK    S  855   7.908  32.095   7.617
  936ETHY    C1  856   7.463  32.065   7.524
  937ETHY    C1  857   6.932  31.983   7.490
  938ETHY    C1  858   6.419  31.854   7.549
  939ETHY    C1  859   5.935  31.686   7.696
  940ETHY    C1  860   5.487  31.484   7.928
  941AUSL   AUS  861   8.841  32.906   7.911
  942AUSL   AUS  862   8.425  32.836   7.766
  943AUL    AUL  863   8.538  33.120   7.992
  944THSLK    S  864   8.305  32.995   7.950
  945ETHY    C1  865   8.188  33.307   8.261
  946ETHY    C1  866   7.974  33.687   8.578
  947ETHY    C1  867   7.684  34.058   8.824
  948ETHY    C1  868   7.326  34.412   9.000
  949ETHY    C1  869   6.905  34.740   9.102
  950THSLK    S  870   8.881  33.132   8.035
  951ETHY    C1  871   9.038  33.434   8.339
  952ETHY    C1  872   9.153  33.840   8.672
  953ETHY    C1  873   9.180  34.284   8.964
  954ETHY    C1  874   9.120  34.753   9.211
  955ETHY    C1  875   8.976  35.237   9.410
  956AUSL   AUS  876   8.689  32.999   7.665
  957AUSL   AUS  877   8.993  32.999   7.338
  958AUL    AUL  878   8.841  33.307   7.502
  959THSLK    S  879   8.730  33.247   7.774
  960ETHY    C1  880   8.839  33.657   7.942
  961ETHY    C1  881   8.883  34.164   8.118
  962ETHY    C1  882   8.826  34.672   8.265
  963ETHY    C1  883   8.673  35.169   8.383
  964ETHY    C1  884   8.430  35.646   8.472
  965THSLK    S  885   9.046  33.234   7.241
  966ETHY    C1  886   9.291  33.590   7.094
  967ETHY    C1  887   9.504  34.055   6.927
  968ETHY    C1  888   9.619  34.553   6.779
  969ETHY    C1  889   9.639  35.072   6.655
  970ETHY    C1  890   9.564  35.601   6.558
  971AUSL   AUS  891   8.993  32.999   7.665
  972AUSL   AUS  892   9.106  32.742   8.012
  973AUL    AUL  893   9.144  33.120   7.992
  974THSLK    S  894   9.278  32.855   8.184
  975ETHY    C1  895   9.563  32.958   8.524
  976ETHY    C1  896   9.865  33.162   8.921
  977ETHY    C1  897  10.110  33.452   9.294
  978ETHY    C1  898  10.294  33.815   9.638
  979ETHY    C1  899  10.413  34.245   9.948
  980THSLK    S  900   9.044  33.233   7.771
  981ETHY    C1  901   9.288  33.587   7.922
  982ETHY    C1  902   9.501  34.053   8.087
  983ETHY    C1  903   9.617  34.552   8.231
  984ETHY    C1  904   9.636  35.070   8.356
  985ETHY    C1  905   9.561  35.598   8.458
  986AUSL   AUS  906   8.841  31.746   7.911
  987AUSL   AUS  907   9.258  31.815   7.766
  988AUL    AUL  908   9.144  31.531   7.992
  989THSLK    S  909   8.797  31.491   7.990
  990ETHY    C1  910   8.637  31.087   8.128
  991ETHY    C1  911   8.523  30.606   8.341
  992ETHY    C1  912   8.498  30.145   8.605
  993ETHY    C1  913   8.557  29.715   8.915
  994ETHY    C1  914   8.698  29.323   9.263
  995THSLK    S  915   9.373  31.626   7.908
  996ETHY    C1  916   9.489  31.210   8.052
  997ETHY    C1  917   9.703  30.757   8.248
  998ETHY    C1  918   9.995  30.369   8.467
  999ETHY    C1  919  10.354  30.054   8.705
 1000ETHY    C1  920  10.771  29.817   8.958
 1001AUSL   AUS  921   8.689  31.652   7.665
 1002AUSL   AUS  922   8.576  31.909   8.012
 1003AUL    AUL  923   8.538  31.531   7.992
 1004THSLK    S  924   8.636  31.412   7.745
 1005ETHY    C1  925   8.391  31.031   7.801
 1006ETHY    C1  926   8.178  30.546   7.897
 1007ETHY    C1  927   8.063  30.043   8.025
 1008ETHY    C1  928   8.044  29.534   8.186
 1009ETHY    C1  929   8.118  29.031   8.374
 1010THSLK    S  930   8.398  31.741   8.133
 1011ETHY    C1  931   8.110  31.423   8.289
 1012ETHY    C1  932   7.810  31.063   8.552
 1013ETHY    C1  933   7.567  30.737   8.896
 1014ETHY    C1  934   7.383  30.454   9.309
 1015ETHY    C1  935   7.259  30.220   9.783
 1016AUSL   AUS  936   8.993  31.652   7.665
 1017AUSL   AUS  937   8.689  31.652   7.338
 1018AUL    AUL  938   8.841  31.344   7.502
 1019THSLK    S  939   8.638  31.409   7.266
 1020ETHY    C1  940   8.394  31.027   7.215
 1021ETHY    C1  941   8.181  30.543   7.117
 1022ETHY    C1  942   8.065  30.041   6.984
 1023ETHY    C1  943   8.046  29.532   6.825
 1024ETHY    C1  944   8.122  29.027   6.642
 1025THSLK    S  945   8.950  31.396   7.749
 1026ETHY    C1  946   8.840  30.960   7.821
 1027ETHY    C1  947   8.797  30.434   7.928
 1028ETHY    C1  948   8.854  29.922   8.059
 1029ETHY    C1  949   9.007  29.434   8.213
 1030ETHY    C1  950   9.249  28.981   8.388
 1031AUSL   AUS  951   8.841  32.906   7.093
 1032AUSL   AUS  952   9.258  32.836   7.237
 1033AUL    AUL  953   9.144  33.120   7.011
 1034THSLK    S  954   8.885  33.136   6.975
 1035ETHY    C1  955   9.045  33.440   6.674
 1036ETHY    C1  956   9.159  33.845   6.339
 1037ETHY    C1  957   9.184  34.288   6.045
 1038ETHY    C1  958   9.125  34.757   5.798
 1039ETHY    C1  959   8.984  35.244   5.604
 1040THSLK    S  960   9.445  32.957   7.085
 1041ETHY    C1  961   9.819  33.113   6.876
 1042ETHY    C1  962  10.217  33.377   6.629
 1043ETHY    C1  963  10.550  33.721   6.395
 1044ETHY    C1  964  10.812  34.133   6.184
 1045ETHY    C1  965  11.003  34.607   5.998
 1046AUSL   AUS  966   8.689  32.999   7.338
 1047AUSL   AUS  967   8.576  32.742   6.992
 1048AUL    AUL  968   8.538  33.120   7.011
 1049THSLK    S  969   8.732  33.250   7.237
 1050ETHY    C1  970   8.842  33.661   7.074
 1051ETHY    C1  971   8.885  34.167   6.896
 1052ETHY    C1  972   8.828  34.675   6.745
 1053ETHY    C1  973   8.675  35.172   6.627
 1054ETHY    C1  974   8.433  35.651   6.545
 1055THSLK    S  975   8.462  32.877   6.802
 1056ETHY    C1  976   8.396  33.049   6.385
 1057ETHY    C1  977   8.253  33.301   5.932
 1058ETHY    C1  978   8.044  33.600   5.544
 1059ETHY    C1  979   7.778  33.938   5.230
 1060ETHY    C1  980   7.462  34.311   4.993
 1061AUSL   AUS  981   8.841  31.746   7.093
 1062AUSL   AUS  982   8.425  31.815   7.237
 1063AUL    AUL  983   8.538  31.531   7.011
 1064THSLK    S  984   8.241  31.665   7.128
 1065ETHY    C1  985   7.869  31.404   7.085
 1066ETHY    C1  986   7.470  31.066   6.958
 1067ETHY    C1  987   7.135  30.707   6.753
 1068ETHY    C1  988   6.873  30.333   6.478
 1069ETHY    C1  989   6.686  29.950   6.142
 1070THSLK    S  990   8.801  31.487   7.019
 1071ETHY    C1  991   8.644  31.081   6.885
 1072ETHY    C1  992   8.529  30.601   6.671
 1073ETHY    C1  993   8.502  30.142   6.404
 1074ETHY    C1  994   8.562  29.711   6.094
 1075ETHY    C1  995   8.706  29.316   5.751
 1076AUSL   AUS  996   8.993  31.652   7.338
 1077AUSL   AUS  997   9.106  31.909   6.992
 1078AUL    AUL  998   9.144  31.531   7.011
 1079THSLK    S  999   8.952  31.395   7.262
 1080ETHY    C1 1000   8.843  30.957   7.195
 1081ETHY    C1 1001   8.800  30.431   7.086
 1082ETHY    C1 1002   8.856  29.920   6.951
 1083ETHY    C1 1003   9.009  29.432   6.798
 1084ETHY    C1 1004   9.253  28.978   6.629
 1085THSLK    S 1005   9.226  31.719   6.853
 1086ETHY    C1 1006   9.295  31.333   6.621
 1087ETHY    C1 1007   9.437  30.925   6.300
 1088ETHY    C1 1008   9.644  30.589   5.942
 1089ETHY    C1 1009   9.910  30.332   5.559
 1090ETHY    C1 1010  10.230  30.154   5.158
 1091AUC    AUC 1011  38.478  40.301   7.502
 1092AUC    AUC 1012  38.724  40.301   7.350
 1093AUC    AUC 1013  38.724  40.301   7.653
 1094AUC    AUC 1014  38.233  40.301   7.350
 1095AUC    AUC 1015  38.233  40.301   7.653
 1096AUC    AUC 1016  38.326  40.546   7.502
 1097AUC    AUC 1017  38.630  40.546   7.502
 1098AUC    AUC 1018  38.326  40.055   7.502
 1099AUC    AUC 1019  38.630  40.055   7.502
 1100AUC    AUC 1020  38.478  40.149   7.747
 1101AUC    AUC 1021  38.478  40.452   7.747
 1102AUC    AUC 1022  38.478  40.149   7.256
 1103AUC    AUC 1023  38.478  40.452   7.256
 1104AUC    AUC 1024  38.969  40.301   7.198
 1105AUC    AUC 1025  38.969  40.301   7.502
 1106AUC    AUC 1026  38.969  40.301   7.805
 1107AUC    AUC 1027  37.987  40.301   7.198
 1108AUC    AUC 1028  37.987  40.301   7.502
 1109AUC    AUC 1029  37.987  40.301   7.805
 1110AUC    AUC 1030  38.175  40.791   7.502
 1111AUC    AUC 1031  38.478  40.791   7.502
 1112AUC    AUC 1032  38.781  40.791   7.502
 1113AUC    AUC 1033  38.175  39.810   7.502
 1114AUC    AUC 1034  38.478  39.810   7.502
 1115AUC    AUC 1035  38.781  39.810   7.502
 1116AUC    AUC 1036  38.478  39.997   7.992
 1117AUC    AUC 1037  38.478  40.301   7.992
 1118AUC    AUC 1038  38.478  40.604   7.992
 1119AUC    AUC 1039  38.478  39.997   7.011
 1120AUC    AUC 1040  38.478  40.301   7.011
 1121AUC    AUC 1041  38.478  40.604   7.011
 1122AUC    AUC 1042  38.724  40.149   7.899
 1123AUC    AUC 1043  38.724  40.452   7.899
 1124AUC    AUC 1044  38.724  40.149   7.105
 1125AUC    AUC 1045  38.724  40.452   7.105
 1126AUC    AUC 1046  38.233  40.149   7.899
 1127AUC    AUC 1047  38.233  40.452   7.899
 1128AUC    AUC 1048  38.233  40.149   7.105
 1129AUC    AUC 1049  38.233  40.452   7.105
 1130AUC    AUC 1050  38.875  40.546   7.350
 1131AUC    AUC 1051  38.875  40.546   7.653
 1132AUC    AUC 1052  38.081  40.546   7.350
 1133AUC    AUC 1053  38.081  40.546   7.653
 1134AUC    AUC 1054  38.875  40.055   7.350
 1135AUC    AUC 1055  38.875  40.055   7.653
 1136AUC    AUC 1056  38.081  40.055   7.350
 1137AUC    AUC 1057  38.081  40.055   7.653
 1138AUC    AUC 1058  38.326  40.698   7.747
 1139AUC    AUC 1059  38.630  40.698   7.747
 1140AUC    AUC 1060  38.326  39.903   7.747
 1141AUC    AUC 1061  38.630  39.903   7.747
 1142AUC    AUC 1062  38.326  40.698   7.256
 1143AUC    AUC 1063  38.630  40.698   7.256
 1144AUC    AUC 1064  38.326  39.903   7.256
 1145AUC    AUC 1065  38.630  39.903   7.256
 1146AUSL   AUS 1066  38.887  40.301   8.082
 1147AUSL   AUS 1067  38.743  39.884   8.012
 1148AUL    AUL 1068  38.969  39.997   8.296
 1149THSLK    S 1069  38.857  39.696   8.156
 1150ETHY    C1 1070  38.923  39.311   8.391
 1151ETHY    C1 1071  39.066  38.903   8.710
 1152ETHY    C1 1072  39.275  38.567   9.066
 1153ETHY    C1 1073  39.541  38.309   9.450
 1154ETHY    C1 1074  39.857  38.133   9.855
 1155THSLK    S 1075  38.983  40.251   8.326
 1156ETHY    C1 1076  39.199  40.065   8.681
 1157ETHY    C1 1077  39.474  39.930   9.124
 1158ETHY    C1 1078  39.755  39.900   9.575
 1159ETHY    C1 1079  40.033  39.969  10.025
 1160ETHY    C1 1080  40.302  40.137  10.466
 1161AUSL   AUS 1081  38.642  40.149   8.175
 1162AUSL   AUS 1082  38.315  40.452   8.175
 1163AUL    AUL 1083  38.478  40.301   8.483
 1164THSLK    S 1084  38.720  40.096   8.417
 1165ETHY    C1 1085  38.797  39.846   8.790
 1166ETHY    C1 1086  38.913  39.629   9.269
 1167ETHY    C1 1087  39.050  39.513   9.769
 1168ETHY    C1 1088  39.200  39.495  10.281
 1169ETHY    C1 1089  39.359  39.576  10.794
 1170THSLK    S 1090  38.228  40.409   8.431
 1171ETHY    C1 1091  38.146  40.297   8.864
 1172ETHY    C1 1092  38.032  40.251   9.388
 1173ETHY    C1 1093  37.900  40.309   9.901
 1174ETHY    C1 1094  37.749  40.462  10.389
 1175ETHY    C1 1095  37.583  40.706  10.844
 1176AUSL   AUS 1096  38.642  40.452   8.175
 1177AUSL   AUS 1097  38.988  40.565   7.918
 1178AUL    AUL 1098  38.969  40.604   8.296
 1179THSLK    S 1099  38.729  40.506   8.414
 1180ETHY    C1 1100  38.810  40.757   8.786
 1181ETHY    C1 1101  38.924  40.973   9.265
 1182ETHY    C1 1102  39.057  41.089   9.767
 1183ETHY    C1 1103  39.207  41.107  10.279
 1184ETHY    C1 1104  39.373  41.027  10.789
 1185THSLK    S 1105  39.162  40.667   8.080
 1186ETHY    C1 1106  39.526  40.677   8.354
 1187ETHY    C1 1107  39.942  40.779   8.680
 1188ETHY    C1 1108  40.322  40.978   8.995
 1189ETHY    C1 1109  40.657  41.265   9.296
 1190ETHY    C1 1110  40.938  41.633   9.577
 1191AUSL   AUS 1111  38.887  40.301   6.922
 1192AUSL   AUS 1112  38.743  40.717   6.992
 1193AUL    AUL 1113  38.969  40.604   6.707
 1194THSLK    S 1114  38.990  40.251   6.681
 1195ETHY    C1 1115  39.211  40.065   6.329
 1196ETHY    C1 1116  39.484  39.930   5.885
 1197ETHY    C1 1117  39.762  39.900   5.432
 1198ETHY    C1 1118  40.040  39.969   4.982
 1199ETHY    C1 1119  40.314  40.137   4.545
 1200THSLK    S 1120  38.921  40.832   6.825
 1201ETHY    C1 1121  39.209  40.937   6.488
 1202ETHY    C1 1122  39.509  41.141   6.090
 1203ETHY    C1 1123  39.752  41.429   5.714
 1204ETHY    C1 1124  39.936  41.793   5.371
 1205ETHY    C1 1125  40.060  42.224   5.065
 1206AUSL   AUS 1126  38.642  40.149   6.828
 1207AUSL   AUS 1127  38.988  40.036   7.085
 1208AUL    AUL 1128  38.969  39.997   6.707
 1209THSLK    S 1129  39.125  39.844   6.944
 1210ETHY    C1 1130  39.333  39.501   6.729
 1211ETHY    C1 1131  39.634  39.159   6.442
 1212ETHY    C1 1132  39.985  38.906   6.133
 1213ETHY    C1 1133  40.379  38.744   5.812
 1214ETHY    C1 1134  40.808  38.673   5.486
 1215THSLK    S 1135  38.729  40.095   6.590
 1216ETHY    C1 1136  38.810  39.844   6.217
 1217ETHY    C1 1137  38.924  39.628   5.738
 1218ETHY    C1 1138  39.057  39.512   5.236
 1219ETHY    C1 1139  39.207  39.494   4.725
 1220ETHY    C1 1140  39.373  39.574   4.214
 1221AUSL   AUS 1141  38.642  40.452   6.828
 1222AUSL   AUS 1142  38.315  40.149   6.828
 1223AUL    AUL 1143  38.478  40.301   6.520
 1224THSLK    S 1144  38.220  40.095   6.592
 1225ETHY    C1 1145  38.083  39.847   6.235
 1226ETHY    C1 1146  37.923  39.633   5.767
 1227ETHY    C1 1147  37.776  39.518   5.269
 1228ETHY    C1 1148  37.649  39.499   4.751
 1229ETHY    C1 1149  37.544  39.575   4.224
 1230THSLK    S 1150  38.745  40.410   6.578
 1231ETHY    C1 1151  38.886  40.295   6.160
 1232ETHY    C1 1152  39.044  40.248   5.647
 1233ETHY    C1 1153  39.187  40.304   5.138
 1234ETHY    C1 1154  39.315  40.458   4.643
 1235ETHY    C1 1155  39.426  40.706   4.174
 1236AUSL   AUS 1156  38.069  40.301   8.082
 1237AUSL   AUS 1157  38.213  40.717   8.012
 1238AUL    AUL 1158  37.987  40.604   8.296
 1239THSLK    S 1159  37.966  40.251   8.322
 1240ETHY    C1 1160  37.745  40.065   8.674
 1241ETHY    C1 1161  37.472  39.930   9.118
 1242ETHY    C1 1162  37.195  39.900   9.571
 1243ETHY    C1 1163  36.917  39.969  10.021
 1244ETHY    C1 1164  36.642  40.137  10.458
 1245THSLK    S 1165  38.093  40.846   8.202
 1246ETHY    C1 1166  38.024  41.015   8.620
 1247ETHY    C1 1167  37.882  41.268   9.073
 1248ETHY    C1 1168  37.676  41.569   9.460
 1249ETHY    C1 1169  37.409  41.908   9.775
 1250ETHY    C1 1170  37.089  42.275  10.013
 1251AUSL   AUS 1171  38.315  40.149   8.175
 1252AUSL   AUS 1172  37.968  40.036   7.918
 1253AUL    AUL 1173  37.987  39.997   8.296
 1254THSLK    S 1174  37.790  39.872   8.029
 1255ETHY    C1 1175  37.422  39.619   8.125
 1256ETHY    C1 1176  37.007  39.340   8.323
 1257ETHY    C1 1177  36.629  39.100   8.611
 1258ETHY    C1 1178  36.295  38.904   8.978
 1259ETHY    C1 1179  36.009  38.758   9.415
 1260THSLK    S 1180  38.212  40.097   8.410
 1261ETHY    C1 1181  38.070  39.850   8.766
 1262ETHY    C1 1182  37.912  39.635   9.233
 1263ETHY    C1 1183  37.769  39.519   9.733
 1264ETHY    C1 1184  37.642  39.501  10.250
 1265ETHY    C1 1185  37.530  39.579  10.775
 1266AUSL   AUS 1186  38.069  40.301   6.922
 1267AUSL   AUS 1187  38.213  39.884   6.992
 1268AUL    AUL 1188  37.987  39.997   6.707
 1269THSLK    S 1189  37.974  40.251   6.677
 1270ETHY    C1 1190  37.757  40.065   6.322
 1271ETHY    C1 1191  37.482  39.930   5.879
 1272ETHY    C1 1192  37.201  39.900   5.429
 1273ETHY    C1 1193  36.923  39.969   4.978
 1274ETHY    C1 1194  36.655  40.137   4.537
 1275THSLK    S 1195  38.041  39.710   6.872
 1276ETHY    C1 1196  37.756  39.389   6.717
 1277ETHY    C1 1197  37.455  39.030   6.453
 1278ETHY    C1 1198  37.210  38.707   6.109
 1279ETHY    C1 1199  37.026  38.424   5.696
 1280ETHY    C1 1200  36.907  38.184   5.223
 1281AUSL   AUS 1201  38.315  40.452   6.828
 1282AUSL   AUS 1202  37.968  40.565   7.085
 1283AUL    AUL 1203  37.987  40.604   6.707
 1284THSLK    S 1204  37.837  40.695   6.893
 1285ETHY    C1 1205  37.631  40.795   6.499
 1286ETHY    C1 1206  37.329  40.959   6.085
 1287ETHY    C1 1207  36.975  41.171   5.748
 1288ETHY    C1 1208  36.582  41.425   5.494
 1289ETHY    C1 1209  36.157  41.718   5.324
 1290THSLK    S 1210  38.236  40.411   6.571
 1291ETHY    C1 1211  38.159  40.299   6.136
 1292ETHY    C1 1212  38.043  40.254   5.612
 1293ETHY    C1 1213  37.907  40.310   5.101
 1294ETHY    C1 1214  37.757  40.464   4.613
 1295ETHY    C1 1215  37.597  40.709   4.156
 1296AUSL   AUS 1216  39.058  40.710   7.502
 1297AUSL   AUS 1217  38.988  40.565   7.085
 1298AUL    AUL 1218  39.272  40.791   7.198
 1299THSLK    S 1219  39.167  40.668   6.930
 1300ETHY    C1 1220  39.534  40.679   6.659
 1301ETHY    C1 1221  39.949  40.781   6.332
 1302ETHY    C1 1222  40.327  40.979   6.014
 1303ETHY    C1 1223  40.661  41.266   5.713
 1304ETHY    C1 1224  40.947  41.636   5.438
 1305THSLK    S 1225  39.326  40.766   7.506
 1306ETHY    C1 1226  39.778  40.827   7.508
 1307ETHY    C1 1227  40.292  40.986   7.507
 1308ETHY    C1 1228  40.760  41.240   7.505
 1309ETHY    C1 1229  41.173  41.577   7.506
 1310ETHY    C1 1230  41.525  41.991   7.509
 1311AUSL   AUS 1231  39.152  40.464   7.350
 1312AUSL   AUS 1232  39.152  40.137   7.653
 1313AUL    AUL 1233  39.460  40.301   7.502
 1314THSLK    S 1234  39.411  40.507   7.348
 1315ETHY    C1 1235  39.856  40.437   7.278
 1316ETHY    C1 1236  40.387  40.444   7.190
 1317ETHY    C1 1237  40.900  40.554   7.101
 1318ETHY    C1 1238  41.385  40.760   7.017
 1319ETHY    C1 1239  41.832  41.057   6.940
 1320THSLK    S 1240  39.384  39.999   7.662
 1321ETHY    C1 1241  39.730  39.710   7.728
 1322ETHY    C1 1242  40.191  39.443   7.809
 1323ETHY    C1 1243  40.688  39.274   7.892
 1324ETHY    C1 1244  41.209  39.202   7.980
 1325ETHY    C1 1245  41.744  39.228   8.071
 1326AUSL   AUS 1246  39.152  40.464   7.653
 1327AUSL   AUS 1247  38.895  40.811   7.766
 1328AUL    AUL 1248  39.272  40.791   7.805
 1329THSLK    S 1249  39.078  40.930   7.926
 1330ETHY    C1 1250  39.450  41.085   8.139
 1331ETHY    C1 1251  39.850  41.350   8.385
 1332ETHY    C1 1252  40.184  41.694   8.615
 1333ETHY    C1 1253  40.446  42.107   8.827
 1334ETHY    C1 1254  40.633  42.579   9.019
 1335THSLK    S 1255  39.410  40.507   7.664
 1336ETHY    C1 1256  39.854  40.437   7.738
 1337ETHY    C1 1257  40.385  40.444   7.825
 1338ETHY    C1 1258  40.899  40.554   7.910
 1339ETHY    C1 1259  41.383  40.760   7.994
 1340ETHY    C1 1260  41.830  41.057   8.078
 1341AUSL   AUS 1261  37.898  40.710   7.502
 1342AUSL   AUS 1262  37.968  40.565   7.918
 1343AUL    AUL 1263  37.684  40.791   7.805
 1344THSLK    S 1264  37.832  40.688   8.109
 1345ETHY    C1 1265  37.623  40.784   8.503
 1346ETHY    C1 1266  37.322  40.950   8.917
 1347ETHY    C1 1267  36.971  41.165   9.254
 1348ETHY    C1 1268  36.577  41.419   9.509
 1349ETHY    C1 1269  36.148  41.706   9.678
 1350THSLK    S 1270  37.682  40.850   7.506
 1351ETHY    C1 1271  37.426  41.228   7.508
 1352ETHY    C1 1272  37.053  41.616   7.507
 1353ETHY    C1 1273  36.617  41.922   7.505
 1354ETHY    C1 1274  36.131  42.140   7.506
 1355ETHY    C1 1275  35.604  42.270   7.509
 1356AUSL   AUS 1276  37.804  40.464   7.350
 1357AUSL   AUS 1277  38.062  40.811   7.237
 1358AUL    AUL 1278  37.684  40.791   7.198
 1359THSLK    S 1279  37.573  40.579   7.303
 1360ETHY    C1 1280  37.226  40.767   7.075
 1361ETHY    C1 1281  36.766  40.959   6.872
 1362ETHY    C1 1282  36.268  41.109   6.758
 1363ETHY    C1 1283  35.747  41.219   6.733
 1364ETHY    C1 1284  35.213  41.289   6.796
 1365THSLK    S 1285  37.946  40.976   7.058
 1366ETHY    C1 1286  37.830  41.292   6.750
 1367ETHY    C1 1287  37.616  41.670   6.432
 1368ETHY    C1 1288  37.324  42.039   6.183
 1369ETHY    C1 1289  36.966  42.392   6.008
 1370ETHY    C1 1290  36.548  42.725   5.909
 1371AUSL   AUS 1291  37.804  40.464   7.653
 1372AUSL   AUS 1292  37.804  40.137   7.350
 1373AUL    AUL 1293  37.496  40.301   7.502
 1374THSLK    S 1294  37.546  40.063   7.390
 1375ETHY    C1 1295  37.102  40.028   7.486
 1376ETHY    C1 1296  36.571  39.947   7.518
 1377ETHY    C1 1297  36.057  39.822   7.458
 1378ETHY    C1 1298  35.573  39.654   7.311
 1379ETHY    C1 1299  35.126  39.447   7.083
 1380THSLK    S 1300  37.571  40.571   7.704
 1381ETHY    C1 1301  37.224  40.755   7.935
 1382ETHY    C1 1302  36.764  40.948   8.137
 1383ETHY    C1 1303  36.267  41.103   8.249
 1384ETHY    C1 1304  35.746  41.213   8.274
 1385ETHY    C1 1305  35.210  41.276   8.213
 1386AUSL   AUS 1306  39.058  39.891   7.502
 1387AUSL   AUS 1307  38.988  40.036   7.918
 1388AUL    AUL 1308  39.272  39.810   7.805
 1389THSLK    S 1309  39.274  39.751   7.506
 1390ETHY    C1 1310  39.530  39.373   7.508
 1391ETHY    C1 1311  39.903  38.985   7.507
 1392ETHY    C1 1312  40.339  38.679   7.505
 1393ETHY    C1 1313  40.825  38.461   7.506
 1394ETHY    C1 1314  41.352  38.331   7.509
 1395THSLK    S 1315  39.120  39.846   8.066
 1396ETHY    C1 1316  39.325  39.503   8.285
 1397ETHY    C1 1317  39.627  39.161   8.570
 1398ETHY    C1 1318  39.981  38.908   8.877
 1399ETHY    C1 1319  40.375  38.745   9.198
 1400ETHY    C1 1320  40.799  38.675   9.529
 1401AUSL   AUS 1321  39.152  40.137   7.350
 1402AUSL   AUS 1322  38.895  39.790   7.237
 1403AUL    AUL 1323  39.272  39.810   7.198
 1404THSLK    S 1324  39.385  39.999   7.350
 1405ETHY    C1 1325  39.733  39.710   7.289
 1406ETHY    C1 1326  40.192  39.443   7.206
 1407ETHY    C1 1327  40.689  39.274   7.118
 1408ETHY    C1 1328  41.211  39.202   7.031
 1409ETHY    C1 1329  41.746  39.228   6.947
 1410THSLK    S 1330  39.014  39.600   7.104
 1411ETHY    C1 1331  39.131  39.183   6.963
 1412ETHY    C1 1332  39.345  38.729   6.765
 1413ETHY    C1 1333  39.635  38.343   6.543
 1414ETHY    C1 1334  39.994  38.028   6.306
 1415ETHY    C1 1335  40.414  37.789   6.058
 1416AUSL   AUS 1336  37.898  39.891   7.502
 1417AUSL   AUS 1337  37.968  40.036   7.085
 1418AUL    AUL 1338  37.684  39.810   7.198
 1419THSLK    S 1339  37.795  39.865   6.973
 1420ETHY    C1 1340  37.430  39.608   6.877
 1421ETHY    C1 1341  37.014  39.331   6.679
 1422ETHY    C1 1342  36.634  39.094   6.392
 1423ETHY    C1 1343  36.300  38.898   6.025
 1424ETHY    C1 1344  36.018  38.746   5.587
 1425THSLK    S 1345  37.630  39.835   7.506
 1426ETHY    C1 1346  37.178  39.774   7.508
 1427ETHY    C1 1347  36.664  39.615   7.507
 1428ETHY    C1 1348  36.196  39.361   7.505
 1429ETHY    C1 1349  35.783  39.024   7.506
 1430ETHY    C1 1350  35.431  38.610   7.509
 1431AUSL   AUS 1351  37.804  40.137   7.653
 1432AUSL   AUS 1352  38.062  39.790   7.766
 1433AUL    AUL 1353  37.684  39.810   7.805
 1434THSLK    S 1354  37.874  39.646   7.880
 1435ETHY    C1 1355  37.500  39.389   7.926
 1436ETHY    C1 1356  37.102  39.049   8.052
 1437ETHY    C1 1357  36.769  38.687   8.255
 1438ETHY    C1 1358  36.507  38.313   8.529
 1439ETHY    C1 1359  36.316  37.935   8.870
 1440THSLK    S 1360  37.545  40.070   7.617
 1441ETHY    C1 1361  37.100  40.040   7.524
 1442ETHY    C1 1362  36.569  39.958   7.490
 1443ETHY    C1 1363  36.056  39.829   7.549
 1444ETHY    C1 1364  35.572  39.661   7.696
 1445ETHY    C1 1365  35.124  39.459   7.928
 1446AUSL   AUS 1366  38.478  40.881   7.911
 1447AUSL   AUS 1367  38.062  40.811   7.766
 1448AUL    AUL 1368  38.175  41.095   7.992
 1449THSLK    S 1369  37.942  40.970   7.950
 1450ETHY    C1 1370  37.825  41.282   8.261
 1451ETHY    C1 1371  37.611  41.662   8.578
 1452ETHY    C1 1372  37.321  42.033   8.824
 1453ETHY    C1 1373  36.963  42.387   9.000
 1454ETHY    C1 1374  36.542  42.715   9.102
 1455THSLK    S 1375  38.518  41.107   8.035
 1456ETHY    C1 1376  38.675  41.409   8.339
 1457ETHY    C1 1377  38.790  41.815   8.672
 1458ETHY    C1 1378  38.817  42.259   8.964
 1459ETHY    C1 1379  38.757  42.728   9.211
 1460ETHY    C1 1380  38.613  43.212   9.410
 1461AUSL   AUS 1381  38.326  40.974   7.665
 1462AUSL   AUS 1382  38.630  40.974   7.338
 1463AUL    AUL 1383  38.478  41.282   7.502
 1464THSLK    S 1384  38.367  41.222   7.774
 1465ETHY    C1 1385  38.476  41.632   7.942
 1466ETHY    C1 1386  38.520  42.139   8.118
 1467ETHY    C1 1387  38.463  42.647   8.265
 1468ETHY    C1 1388  38.310  43.144   8.383
 1469ETHY    C1 1389  38.067  43.621   8.472
 1470THSLK    S 1390  38.683  41.209   7.241
 1471ETHY    C1 1391  38.928  41.565   7.094
 1472ETHY    C1 1392  39.141  42.030   6.927
 1473ETHY    C1 1393  39.256  42.528   6.779
 1474ETHY    C1 1394  39.276  43.047   6.655
 1475ETHY    C1 1395  39.201  43.576   6.558
 1476AUSL   AUS 1396  38.630  40.974   7.665
 1477AUSL   AUS 1397  38.743  40.717   8.012
 1478AUL    AUL 1398  38.781  41.095   7.992
 1479THSLK    S 1399  38.915  40.830   8.184
 1480ETHY    C1 1400  39.200  40.933   8.524
 1481ETHY    C1 1401  39.502  41.137   8.921
 1482ETHY    C1 1402  39.747  41.427   9.294
 1483ETHY    C1 1403  39.931  41.790   9.638
 1484ETHY    C1 1404  40.050  42.220   9.948
 1485THSLK    S 1405  38.681  41.208   7.771
 1486ETHY    C1 1406  38.925  41.562   7.922
 1487ETHY    C1 1407  39.138  42.028   8.087
 1488ETHY    C1 1408  39.254  42.527   8.231
 1489ETHY    C1 1409  39.273  43.045   8.356
 1490ETHY    C1 1410  39.198  43.573   8.458
 1491AUSL   AUS 1411  38.478  39.721   7.911
 1492AUSL   AUS 1412  38.895  39.790   7.766
 1493AUL    AUL 1413  38.781  39.506   7.992
 1494THSLK    S 1414  38.434  39.466   7.990
 1495ETHY    C1 1415  38.274  39.062   8.128
 1496ETHY    C1 1416  38.160  38.581   8.341
 1497ETHY    C1 1417  38.135  38.120   8.605
 1498ETHY    C1 1418  38.194  37.690   8.915
 1499ETHY    C1 1419  38.335  37.298   9.263
 1500THSLK    S 1420  39.010  39.601   7.908
 1501ETHY    C1 1421  39.126  39.185   8.052
 1502ETHY    C1 1422  39.340  38.732   8.248
 1503ETHY    C1 1423  39.632  38.344   8.467
 1504ETHY    C1 1424  39.991  38.029   8.705
 1505ETHY    C1 1425  40.408  37.792   8.958
 1506AUSL   AUS 1426  38.326  39.627   7.665
 1507AUSL   AUS 1427  38.213  39.884   8.012
 1508AUL    AUL 1428  38.175  39.506   7.992
 1509THSLK    S 1429  38.273  39.387   7.745
 1510ETHY    C1 1430  38.028  39.006   7.801
 1511ETHY    C1 1431  37.815  38.521   7.897
 1512ETHY    C1 1432  37.700  38.018   8.025
 1513ETHY    C1 1433  37.681  37.509   8.186
 1514ETHY    C1 1434  37.755  37.006   8.374
 1515THSLK    S 1435  38.035  39.716   8.133
 1516ETHY    C1 1436  37.747  39.398   8.289
 1517ETHY    C1 1437  37.447  39.038   8.552
 1518ETHY    C1 1438  37.204  38.712   8.896
 1519ETHY    C1 1439  37.020  38.429   9.309
 1520ETHY    C1 1440  36.896  38.195   9.783
 1521AUSL   AUS 1441  38.630  39.627   7.665
 1522AUSL   AUS 1442  38.326  39.627   7.338
 1523AUL    AUL 1443  38.478  39.319   7.502
 1524THSLK    S 1444  38.275  39.384   7.266
 1525ETHY    C1 1445  38.031  39.002   7.215
 1526ETHY    C1 1446  37.818  38.518   7.117
 1527ETHY    C1 1447  37.702  38.016   6.984
 1528ETHY    C1 1448  37.683  37.507   6.825
 1529ETHY    C1 1449  37.759  37.002   6.642
 1530THSLK    S 1450  38.587  39.371   7.749
 1531ETHY    C1 1451  38.477  38.935   7.821
 1532ETHY    C1 1452  38.434  38.409   7.928
 1533ETHY    C1 1453  38.491  37.897   8.059
 1534ETHY    C1 1454  38.644  37.409   8.213
 1535ETHY    C1 1455  38.886  36.956   8.388
 1536AUSL   AUS 1456  38.478  40.881   7.093
 1537AUSL   AUS 1457  38.895  40.811   7.237
 1538AUL    AUL 1458  38.781  41.095   7.011
 1539THSLK    S 1459  38.522  41.111   6.975
 1540ETHY    C1 1460  38.682  41.415   6.674
 1541ETHY    C1 1461  38.796  41.820   6.339
 1542ETHY    C1 1462  38.821  42.263   6.045
 1543ETHY    C1 1463  38.762  42.732   5.798
 1544ETHY    C1 1464  38.621  43.219   5.604
 1545THSLK    S 1465  39.082  40.932   7.085
 1546ETHY    C1 1466  39.456  41.088   6.876
 1547ETHY    C1 1467  39.854  41.352   6.629
 1548ETHY    C1 1468  40.187  41.696   6.395
 1549ETHY    C1 1469  40.449  42.108   6.184
 1550ETHY    C1 1470  40.640  42.582   5.998
 1551AUSL   AUS 1471  38.326  40.974   7.338
 1552AUSL   AUS 1472  38.213  40.717   6.992
 1553AUL    AUL 1473  38.175  41.095   7.011
 1554THSLK    S 1474  38.369  41.225   7.237
 1555ETHY    C1 1475  38.479  41.636   7.074
 1556ETHY    C1 1476  38.522  42.142   6.896
 1557ETHY    C1 1477  38.465  42.650   6.745
 1558ETHY    C1 1478  38.312  43.147   6.627
 1559ETHY    C1 1479  38.070  43.626   6.545
 1560THSLK    S 1480  38.099  40.852   6.802
 1561ETHY    C1 1481  38.033  41.024   6.385
 1562ETHY    C1 1482  37.890  41.276   5.932
 1563ETHY    C1 1483  37.681  41.575   5.544
 1564ETHY    C1 1484  37.415  41.913   5.230
 1565ETHY    C1 1485  37.099  42.286   4.993
 1566AUSL   AUS 1486  38.478  39.721   7.093
 1567AUSL   AUS 1487  38.062  39.790   7.237
 1568AUL    AUL 1488  38.175  39.506   7.011
 1569THSLK    S 1489  37.878  39.640   7.128
 1570ETHY    C1 1490  37.506  39.379   7.085
 1571ETHY    C1 1491  37.107  39.041   6.958
 1572ETHY    C1 1492  36.772  38.682   6.753
 1573ETHY    C1 1493  36.510  38.308   6.478
 1574ETHY    C1 1494  36.323  37.925   6.142
 1575THSLK    S 1495  38.438  39.462   7.019
 1576ETHY    C1 1496  38.281  39.056   6.885
 1577ETHY    C1 1497  38.166  38.576   6.671
 1578ETHY    C1 1498  38.139  38.117   6.404
 1579ETHY    C1 1499  38.199  37.686   6.094
 1580ETHY    C1 1500  38.343  37.291   5.751
 1581AUSL   AUS 1501  38.630  39.627   7.338
 1582AUSL   AUS 1502  38.743  39.884   6.992
 1583AUL    AUL 1503  38.781  39.506   7.011
 1584THSLK    S 1504  38.589  39.370   7.262
 1585ETHY    C1 1505  38.480  38.932   7.195
 1586ETHY    C1 1506  38.437  38.406   7.086
 1587ETHY    C1 1507  38.493  37.895   6.951
 1588ETHY    C1 1508  38.646  37.407   6.798
 1589ETHY    C1 1509  38.890  36.953   6.629
 1590THSLK    S 1510  38.863  39.694   6.853
 1591ETHY    C1 1511  38.932  39.308   6.621
 1592ETHY    C1 1512  39.074  38.900   6.300
 1593ETHY    C1 1513  39.281  38.564   5.942
 1594ETHY    C1 1514  39.547  38.307   5.559
 1595ETHY    C1 1515  39.867  38.129   5.158
 1596AUC    AUC 1516  27.887  33.683   7.502
 1597AUC    AUC 1517  28.133  33.683   7.350
 1598AUC    AUC 1518  28.133  33.683   7.653
 1599AUC    AUC 1519  27.642  33.683   7.350
 1600AUC    AUC 1520  27.642  33.683   7.653
 1601AUC    AUC 1521  27.735  33.928   7.502
 1602AUC    AUC 1522  28.039  33.928   7.502
 1603AUC    AUC 1523  27.735  33.437   7.502
 1604AUC    AUC 1524  28.039  33.437   7.502
 1605AUC    AUC 1525  27.887  33.531   7.747
 1606AUC    AUC 1526  27.887  33.834   7.747
 1607AUC    AUC 1527  27.887  33.531   7.256
 1608AUC    AUC 1528  27.887  33.834   7.256
 1609AUC    AUC 1529  28.378  33.683   7.198
 1610AUC    AUC 1530  28.378  33.683   7.502
 1611AUC    AUC 1531  28.378  33.683   7.805
 1612AUC    AUC 1532  27.396  33.683   7.198
 1613AUC    AUC 1533  27.396  33.683   7.502
 1614AUC    AUC 1534  27.396  33.683   7.805
 1615AUC    AUC 1535  27.584  34.173   7.502
 1616AUC    AUC 1536  27.887  34.173   7.502
 1617AUC    AUC 1537  28.190  34.173   7.502
 1618AUC    AUC 1538  27.584  33.192   7.502
 1619AUC    AUC 1539  27.887  33.192   7.502
 1620AUC    AUC 1540  28.190  33.192   7.502
 1621AUC    AUC 1541  27.887  33.379   7.992
 1622AUC    AUC 1542  27.887  33.683   7.992
 1623AUC    AUC 1543  27.887  33.986   7.992
 1624AUC    AUC 1544  27.887  33.379   7.011
 1625AUC    AUC 1545  27.887  33.683   7.011
 1626AUC    AUC 1546  27.887  33.986   7.011
 1627AUC    AUC 1547  28.133  33.531   7.899
 1628AUC    AUC 1548  28.133  33.834   7.899
 1629AUC    AUC 1549  28.133  33.531   7.105
 1630AUC    AUC 1550  28.133  33.834   7.105
 1631AUC    AUC 1551  27.642  33.531   7.899
 1632AUC    AUC 1552  27.642  33.834   7.899
 1633AUC    AUC 1553  27.642  33.531   7.105
 1634AUC    AUC 1554  27.642  33.834   7.105
 1635AUC    AUC 1555  28.284  33.928   7.350
 1636AUC    AUC 1556  28.284  33.928   7.653
 1637AUC    AUC 1557  27.490  33.928   7.350
 1638AUC    AUC 1558  27.490  33.928   7.653
 1639AUC    AUC 1559  28.284  33.437   7.350
 1640AUC    AUC 1560  28.284  33.437   7.653
 1641AUC    AUC 1561  27.490  33.437   7.350
 1642AUC    AUC 1562  27.490  33.437   7.653
 1643AUC    AUC 1563  27.735  34.080   7.747
 1644AUC    AUC 1564  28.039  34.080   7.747
 1645AUC    AUC 1565  27.735  33.285   7.747
 1646AUC    AUC 1566  28.039  33.285   7.747
 1647AUC    AUC 1567  27.735  34.080   7.256
 1648AUC    AUC 1568  28.039  34.080   7.256
 1649AUC    AUC 1569  27.735  33.285   7.256
 1650AUC    AUC 1570  28.039  33.285   7.256
 1651AUSL   AUS 1571  28.296  33.683   8.082
 1652AUSL   AUS 1572  28.152  33.266   8.012
 1653AUL    AUL 1573  28.378  33.379   8.296
 1654THSLK    S 1574  28.266  33.078   8.156
 1655ETHY    C1 1575  28.332  32.693   8.391
 1656ETHY    C1 1576  28.475  32.285   8.710
 1657ETHY    C1 1577  28.684  31.949   9.066
 1658ETHY    C1 1578  28.950  31.691   9.450
 1659ETHY    C1 1579  29.266  31.515   9.855
 1660THSLK    S 1580  28.392  33.633   8.326
 1661ETHY    C1 1581  28.608  33.447   8.681
 1662ETHY    C1 1582  28.883  33.312   9.124
 1663ETHY    C1 1583  29.164  33.282   9.575
 1664ETHY    C1 1584  29.442  33.351  10.025
 1665ETHY    C1 1585  29.711  33.519  10.466
 1666AUSL   AUS 1586  28.051  33.531   8.175
 1667AUSL   AUS 1587  27.724  33.834   8.175
 1668AUL    AUL 1588  27.887  33.683   8.483
 1669THSLK    S 1589  28.129  33.478   8.417
 1670ETHY    C1 1590  28.206  33.228   8.790
 1671ETHY    C1 1591  28.322  33.011   9.269
 1672ETHY    C1 1592  28.459  32.895   9.769
 1673ETHY    C1 1593  28.609  32.877  10.281
 1674ETHY    C1 1594  28.768  32.958  10.794
 1675THSLK    S 1595  27.637  33.791   8.431
 1676ETHY    C1 1596  27.555  33.679   8.864
 1677ETHY    C1 1597  27.441  33.633   9.388
 1678ETHY    C1 1598  27.309  33.691   9.901
 1679ETHY    C1 1599  27.158  33.844  10.389
 1680ETHY    C1 1600  26.992  34.088  10.844
 1681AUSL   AUS 1601  28.051  33.834   8.175
 1682AUSL   AUS 1602  28.397  33.947   7.918
 1683AUL    AUL 1603  28.378  33.986   8.296
 1684THSLK    S 1604  28.138  33.888   8.414
 1685ETHY    C1 1605  28.219  34.139   8.786
 1686ETHY    C1 1606  28.333  34.355   9.265
 1687ETHY    C1 1607  28.466  34.471   9.767
 1688ETHY    C1 1608  28.616  34.489  10.279
 1689ETHY    C1 1609  28.782  34.409  10.789
 1690THSLK    S 1610  28.571  34.049   8.080
 1691ETHY    C1 1611  28.935  34.059   8.354
 1692ETHY    C1 1612  29.351  34.161   8.680
 1693ETHY    C1 1613  29.731  34.360   8.995
 1694ETHY    C1 1614  30.066  34.647   9.296
 1695ETHY    C1 1615  30.347  35.015   9.577
 1696AUSL   AUS 1616  28.296  33.683   6.922
 1697AUSL   AUS 1617  28.152  34.099   6.992
 1698AUL    AUL 1618  28.378  33.986   6.707
 1699THSLK    S 1619  28.399  33.633   6.681
 1700ETHY    C1 1620  28.620  33.447   6.329
 1701ETHY    C1 1621  28.893  33.312   5.885
 1702ETHY    C1 1622  29.171  33.282   5.432
 1703ETHY    C1 1623  29.449  33.351   4.982
 1704ETHY    C1 1624  29.723  33.519   4.545
 1705THSLK    S 1625  28.330  34.214   6.825
 1706ETHY    C1 1626  28.618  34.319   6.488
 1707ETHY    C1 1627  28.918  34.523   6.090
 1708ETHY    C1 1628  29.161  34.811   5.714
 1709ETHY    C1 1629  29.345  35.175   5.371
 1710ETHY    C1 1630  29.469  35.606   5.065
 1711AUSL   AUS 1631  28.051  33.531   6.828
 1712AUSL   AUS 1632  28.397  33.418   7.085
 1713AUL    AUL 1633  28.378  33.379   6.707
 1714THSLK    S 1634  28.534  33.226   6.944
 1715ETHY    C1 1635  28.742  32.883   6.729
 1716ETHY    C1 1636  29.043  32.541   6.442
 1717ETHY    C1 1637  29.394  32.288   6.133
 1718ETHY    C1 1638  29.788  32.126   5.812
 1719ETHY    C1 1639  30.217  32.055   5.486
 1720THSLK    S 1640  28.138  33.477   6.590
 1721ETHY    C1 1641  28.219  33.226   6.217
 1722ETHY    C1 1642  28.333  33.010   5.738
 1723ETHY    C1 1643  28.466  32.894   5.236
 1724ETHY    C1 1644  28.616  32.876   4.725
 1725ETHY    C1 1645  28.782  32.956   4.214
 1726AUSL   AUS 1646  28.051  33.834   6.828
 1727AUSL   AUS 1647  27.724  33.531   6.828
 1728AUL    AUL 1648  27.887  33.683   6.520
 1729THSLK    S 1649  27.629  33.477   6.592
 1730ETHY    C1 1650  27.492  33.229   6.235
 1731ETHY    C1 1651  27.332  33.015   5.767
 1732ETHY    C1 1652  27.185  32.900   5.269
 1733ETHY    C1 1653  27.058  32.881   4.751
 1734ETHY    C1 1654  26.953  32.957   4.224
 1735THSLK    S 1655  28.154  33.792   6.578
 1736ETHY    C1 1656  28.295  33.677   6.160
 1737ETHY    C1 1657  28.453  33.630   5.647
 1738ETHY    C1 1658  28.596  33.686   5.138
 1739ETHY    C1 1659  28.724  33.840   4.643
 1740ETHY    C1 1660  28.835  34.088   4.174
 1741AUSL   AUS 1661  27.478  33.683   8.082
 1742AUSL   AUS 1662  27.622  34.099   8.012
 1743AUL    AUL 1663  27.396  33.986   8.296
 1744THSLK    S 1664  27.375  33.633   8.322
 1745ETHY    C1 1665  27.154  33.447   8.674
 1746ETHY    C1 1666  26.881  33.312   9.118
 1747ETHY    C1 1667  26.604  33.282   9.571
 1748ETHY    C1 1668  26.326  33.351  10.021
 1749ETHY    C1 1669  26.051  33.519  10.458
 1750THSLK    S 1670  27.502  34.228   8.202
 1751ETHY    C1 1671  27.433  34.397   8.620
 1752ETHY    C1 1672  27.291  34.650   9.073
 1753ETHY    C1 1673  27.085  34.951   9.460
 1754ETHY    C1 1674  26.818  35.290   9.775
 1755ETHY    C1 1675  26.498  35.657  10.013
 1756AUSL   AUS 1676  27.724  33.531   8.175
 1757AUSL   AUS 1677  27.377  33.418   7.918
 1758AUL    AUL 1678  27.396  33.379   8.296
 1759THSLK    S 1679  27.199  33.254   8.029
 1760ETHY    C1 1680  26.831  33.001   8.125
 1761ETHY    C1 1681  26.416  32.722   8.323
 1762ETHY    C1 1682  26.038  32.482   8.611
 1763ETHY    C1 1683  25.704  32.286   8.978
 1764ETHY    C1 1684  25.418  32.140   9.415
 1765THSLK    S 1685  27.621  33.479   8.410
 1766ETHY    C1 1686  27.479  33.232   8.766
 1767ETHY    C1 1687  27.321  33.017   9.233
 1768ETHY    C1 1688  27.178  32.901   9.733
 1769ETHY    C1 1689  27.051  32.883  10.250
 1770ETHY    C1 1690  26.939  32.961  10.775
 1771AUSL   AUS 1691  27.478  33.683   6.922
 1772AUSL   AUS 1692  27.622  33.266   6.992
 1773AUL    AUL 1693  27.396  33.379   6.707
 1774THSLK    S 1694  27.383  33.633   6.677
 1775ETHY    C1 1695  27.166  33.447   6.322
 1776ETHY    C1 1696  26.891  33.312   5.879
 1777ETHY    C1 1697  26.610  33.282   5.429
 1778ETHY    C1 1698  26.332  33.351   4.978
 1779ETHY    C1 1699  26.064  33.519   4.537
 1780THSLK    S 1700  27.450  33.092   6.872
 1781ETHY    C1 1701  27.165  32.771   6.717
 1782ETHY    C1 1702  26.864  32.412   6.453
 1783ETHY    C1 1703  26.619  32.089   6.109
 1784ETHY    C1 1704  26.435  31.806   5.696
 1785ETHY    C1 1705  26.316  31.566   5.223
 1786AUSL   AUS 1706  27.724  33.834   6.828
 1787AUSL   AUS 1707  27.377  33.947   7.085
 1788AUL    AUL 1708  27.396  33.986   6.707
 1789THSLK    S 1709  27.246  34.077   6.893
 1790ETHY    C1 1710  27.040  34.177   6.499
 1791ETHY    C1 1711  26.738  34.341   6.085
 1792ETHY    C1 1712  26.384  34.553   5.748
 1793ETHY    C1 1713  25.991  34.807   5.494
 1794ETHY    C1 1714  25.566  35.100   5.324
 1795THSLK    S 1715  27.645  33.793   6.571
 1796ETHY    C1 1716  27.568  33.681   6.136
 1797ETHY    C1 1717  27.452  33.636   5.612
 1798ETHY    C1 1718  27.316  33.692   5.101
 1799ETHY    C1 1719  27.166  33.846   4.613
 1800ETHY    C1 1720  27.006  34.091   4.156
 1801AUSL   AUS 1721  28.467  34.092   7.502
 1802AUSL   AUS 1722  28.397  33.947   7.085
 1803AUL    AUL 1723  28.681  34.173   7.198
 1804THSLK    S 1724  28.576  34.050   6.930
 1805ETHY    C1 1725  28.943  34.061   6.659
 1806ETHY    C1 1726  29.358  34.163   6.332
 1807ETHY    C1 1727  29.736  34.361   6.014
 1808ETHY    C1 1728  30.070  34.648   5.713
 1809ETHY    C1 1729  30.356  35.018   5.438
 1810THSLK    S 1730  28.735  34.148   7.506
 1811ETHY    C1 1731  29.187  34.209   7.508
 1812ETHY    C1 1732  29.701  34.368   7.507
 1813ETHY    C1 1733  30.169  34.622   7.505
 1814ETHY    C1 1734  30.582  34.959   7.506
 1815ETHY    C1 1735  30.934  35.373   7.509
 1816AUSL   AUS 1736  28.561  33.846   7.350
 1817AUSL   AUS 1737  28.561  33.519   7.653
 1818AUL    AUL 1738  28.869  33.683   7.502
 1819THSLK    S 1739  28.820  33.889   7.348
 1820ETHY    C1 1740  29.265  33.819   7.278
 1821ETHY    C1 1741  29.796  33.826   7.190
 1822ETHY    C1 1742  30.309  33.936   7.101
 1823ETHY    C1 1743  30.794  34.142   7.017
 1824ETHY    C1 1744  31.241  34.439   6.940
 1825THSLK    S 1745  28.793  33.381   7.662
 1826ETHY    C1 1746  29.139  33.092   7.728
 1827ETHY    C1 1747  29.600  32.825   7.809
 1828ETHY    C1 1748  30.097  32.656   7.892
 1829ETHY    C1 1749  30.618  32.584   7.980
 1830ETHY    C1 1750  31.153  32.610   8.071
 1831AUSL   AUS 1751  28.561  33.846   7.653
 1832AUSL   AUS 1752  28.304  34.193   7.766
 1833AUL    AUL 1753  28.681  34.173   7.805
 1834THSLK    S 1754  28.487  34.312   7.926
 1835ETHY    C1 1755  28.859  34.467   8.139
 1836ETHY    C1 1756  29.259  34.732   8.385
 1837ETHY    C1 1757  29.593  35.076   8.615
 1838ETHY    C1 1758  29.855  35.489   8.827
 1839ETHY    C1 1759  30.042  35.961   9.019
 1840THSLK    S 1760  28.819  33.889   7.664
 1841ETHY    C1 1761  29.263  33.819   7.738
 1842ETHY    C1 1762  29.794  33.826   7.825
 1843ETHY    C1 1763  30.308  33.936   7.910
 1844ETHY    C1 1764  30.792  34.142   7.994
 1845ETHY    C1 1765  31.239  34.439   8.078
 1846AUSL   AUS 1766  27.307  34.092   7.502
 1847AUSL   AUS 1767  27.377  33.947   7.918
 1848AUL    AUL 1768  27.093  34.173   7.805
 1849THSLK    S 1769  27.241  34.070   8.109
 1850ETHY    C1 1770  27.032  34.166   8.503
 1851ETHY    C1 1771  26.731  34.332   8.917
 1852ETHY    C1 1772  26.380  34.547   9.254
 1853ETHY    C1 1773  25.986  34.801   9.509
 1854ETHY    C1 1774  25.557  35.088   9.678
 1855THSLK    S 1775  27.091  34.232   7.506
 1856ETHY    C1 1776  26.835  34.610   7.508
 1857ETHY    C1 1777  26.462  34.998   7.507
 1858ETHY    C1 1778  26.026  35.304   7.505
 1859ETHY    C1 1779  25.540  35.522   7.506
 1860ETHY    C1 1780  25.013  35.652   7.509
 1861AUSL   AUS 1781  27.213  33.846   7.350
 1862AUSL   AUS 1782  27.471  34.193   7.237
 1863AUL    AUL 1783  27.093  34.173   7.198
 1864THSLK    S 1784  26.982  33.961   7.303
 1865ETHY    C1 1785  26.635  34.149   7.075
 1866ETHY    C1 1786  26.175  34.341   6.872
 1867ETHY    C1 1787  25.677  34.491   6.758
 1868ETHY    C1 1788  25.156  34.601   6.733
 1869ETHY    C1 1789  24.622  34.671   6.796
 1870THSLK    S 1790  27.355  34.358   7.058
 1871ETHY    C1 1791  27.239  34.674   6.750
 1872ETHY    C1 1792  27.025  35.052   6.432
 1873ETHY    C1 1793  26.733  35.421   6.183
 1874ETHY    C1 1794  26.375  35.774   6.008
 1875ETHY    C1 1795  25.957  36.107   5.909
 1876AUSL   AUS 1796  27.213  33.846   7.653
 1877AUSL   AUS 1797  27.213  33.519   7.350
 1878AUL    AUL 1798  26.905  33.683   7.502
 1879THSLK    S 1799  26.955  33.445   7.390
 1880ETHY    C1 1800  26.511  33.410   7.486
 1881ETHY    C1 1801  25.980  33.329   7.518
 1882ETHY    C1 1802  25.466  33.204   7.458
 1883ETHY    C1 1803  24.982  33.036   7.311
 1884ETHY    C1 1804  24.535  32.829   7.083
 1885THSLK    S 1805  26.980  33.953   7.704
 1886ETHY    C1 1806  26.633  34.137   7.935
 1887ETHY    C1 1807  26.173  34.330   8.137
 1888ETHY    C1 1808  25.676  34.485   8.249
 1889ETHY    C1 1809  25.155  34.595   8.274
 1890ETHY    C1 1810  24.619  34.658   8.213
 1891AUSL   AUS 1811  28.467  33.273   7.502
 1892AUSL   AUS 1812  28.397  33.418   7.918
 1893AUL    AUL 1813  28.681  33.192   7.805
 1894THSLK    S 1814  28.683  33.133   7.506
 1895ETHY    C1 1815  28.939  32.755   7.508
 1896ETHY    C1 1816  29.312  32.367   7.507
 1897ETHY    C1 1817  29.748  32.061   7.505
 1898ETHY    C1 1818  30.234  31.843   7.506
 1899ETHY    C1 1819  30.761  31.713   7.509
 1900THSLK    S 1820  28.529  33.228   8.066
 1901ETHY    C1 1821  28.734  32.885   8.285
 1902ETHY    C1 1822  29.036  32.543   8.570
 1903ETHY    C1 1823  29.390  32.290   8.877
 1904ETHY    C1 1824  29.784  32.127   9.198
 1905ETHY    C1 1825  30.208  32.057   9.529
 1906AUSL   AUS 1826  28.561  33.519   7.350
 1907AUSL   AUS 1827  28.304  33.172   7.237
 1908AUL    AUL 1828  28.681  33.192   7.198
 1909THSLK    S 1829  28.794  33.381   7.350
 1910ETHY    C1 1830  29.142  33.092   7.289
 1911ETHY    C1 1831  29.601  32.825   7.206
 1912ETHY    C1 1832  30.098  32.656   7.118
 1913ETHY    C1 1833  30.620  32.584   7.031
 1914ETHY    C1 1834  31.155  32.610   6.947
 1915THSLK    S 1835  28.423  32.982   7.104
 1916ETHY    C1 1836  28.540  32.565   6.963
 1917ETHY    C1 1837  28.754  32.111   6.765
 1918ETHY    C1 1838  29.044  31.725   6.543
 1919ETHY    C1 1839  29.403  31.410   6.306
 1920ETHY    C1 1840  29.823  31.171   6.058
 1921AUSL   AUS 1841  27.307  33.273   7.502
 1922AUSL   AUS 1842  27.377  33.418   7.085
 1923AUL    AUL 1843  27.093  33.192   7.198
 1924THSLK    S 1844  27.204  33.247   6.973
 1925ETHY    C1 1845  26.839  32.990   6.877
 1926ETHY    C1 1846  26.423  32.713   6.679
 1927ETHY    C1 1847  26.043  32.476   6.392
 1928ETHY    C1 1848  25.709  32.280   6.025
 1929ETHY    C1 1849  25.427  32.128   5.587
 1930THSLK    S 1850  27.039  33.217   7.506
 1931ETHY    C1 1851  26.587  33.156   7.508
 1932ETHY    C1 1852  26.073  32.997   7.507
 1933ETHY    C1 1853  25.605  32.743   7.505
 1934ETHY    C1 1854  25.192  32.406   7.506
 1935ETHY    C1 1855  24.840  31.992   7.509
 1936AUSL   AUS 1856  27.213  33.519   7.653
 1937AUSL   AUS 1857  27.471  33.172   7.766
 1938AUL    AUL 1858  27.093  33.192   7.805
 1939THSLK    S 1859  27.283  33.028   7.880
 1940ETHY    C1 1860  26.909  32.771   7.926
 1941ETHY    C1 1861  26.511  32.431   8.052
 1942ETHY    C1 1862  26.178  32.069   8.255
 1943ETHY    C1 1863  25.916  31.695   8.529
 1944ETHY    C1 1864  25.725  31.317   8.870
 1945THSLK    S 1865  26.954  33.452   7.617
 1946ETHY    C1 1866  26.509  33.422   7.524
 1947ETHY    C1 1867  25.978  33.340   7.490
 1948ETHY    C1 1868  25.465  33.211   7.549
 1949ETHY    C1 1869  24.981  33.043   7.696
 1950ETHY    C1 1870  24.533  32.841   7.928
 1951AUSL   AUS 1871  27.887  34.263   7.911
 1952AUSL   AUS 1872  27.471  34.193   7.766
 1953AUL    AUL 1873  27.584  34.477   7.992
 1954THSLK    S 1874  27.351  34.352   7.950
 1955ETHY    C1 1875  27.234  34.664   8.261
 1956ETHY    C1 1876  27.020  35.044   8.578
 1957ETHY    C1 1877  26.730  35.415   8.824
 1958ETHY    C1 1878  26.372  35.769   9.000
 1959ETHY    C1 1879  25.951  36.097   9.102
 1960THSLK    S 1880  27.927  34.489   8.035
 1961ETHY    C1 1881  28.084  34.791   8.339
 1962ETHY    C1 1882  28.199  35.197   8.672
 1963ETHY    C1 1883  28.226  35.641   8.964
 1964ETHY    C1 1884  28.166  36.110   9.211
 1965ETHY    C1 1885  28.022  36.594   9.410
 1966AUSL   AUS 1886  27.735  34.356   7.665
 1967AUSL   AUS 1887  28.039  34.356   7.338
 1968AUL    AUL 1888  27.887  34.664   7.502
 1969THSLK    S 1889  27.776  34.604   7.774
 1970ETHY    C1 1890  27.885  35.014   7.942
 1971ETHY    C1 1891  27.929  35.521   8.118
 1972ETHY    C1 1892  27.872  36.029   8.265
 1973ETHY    C1 1893  27.719  36.526   8.383
 1974ETHY    C1 1894  27.476  37.003   8.472
 1975THSLK    S 1895  28.092  34.591   7.241
 1976ETHY    C1 1896  28.337  34.947   7.094
 1977ETHY    C1 1897  28.550  35.412   6.927
 1978ETHY    C1 1898  28.665  35.910   6.779
 1979ETHY    C1 1899  28.685  36.429   6.655
 1980ETHY    C1 1900  28.610  36.958   6.558
 1981AUSL   AUS 1901  28.039  34.356   7.665
 1982AUSL   AUS 1902  28.152  34.099   8.012
 1983AUL    AUL 1903  28.190  34.477   7.992
 1984THSLK    S 1904  28.324  34.212   8.184
 1985ETHY    C1 1905  28.609  34.315   8.524
 1986ETHY    C1 1906  28.911  34.519   8.921
 1987ETHY    C1 1907  29.156  34.809   9.294
 1988ETHY    C1 1908  29.340  35.172   9.638
 1989ETHY    C1 1909  29.459  35.602   9.948
 1990THSLK    S 1910  28.090  34.590   7.771
 1991ETHY    C1 1911  28.334  34.944   7.922
 1992ETHY    C1 1912  28.547  35.410   8.087
 1993ETHY    C1 1913  28.663  35.909   8.231
 1994ETHY    C1 1914  28.682  36.427   8.356
 1995ETHY    C1 1915  28.607  36.955   8.458
 1996AUSL   AUS 1916  27.887  33.103   7.911
 1997AUSL   AUS 1917  28.304  33.172   7.766
 1998AUL    AUL 1918  28.190  32.888   7.992
 1999THSLK    S 1919  27.843  32.848   7.990
 2000ETHY    C1 1920  27.683  32.444   8.128
 2001ETHY    C1 1921  27.569  31.963   8.341
 2002ETHY    C1 1922  27.544  31.502   8.605
 2003ETHY    C1 1923  27.603  31.072   8.915
 2004ETHY    C1 1924  27.744  30.680   9.263
 2005THSLK    S 1925  28.419  32.983   7.908
 2006ETHY    C1 1926  28.535  32.567   8.052
 2007ETHY    C1 1927  28.749  32.114   8.248
 2008ETHY    C1 1928  29.041  31.726   8.467
 2009ETHY    C1 1929  29.400  31.411   8.705
 2010ETHY    C1 1930  29.817  31.174   8.958
 2011AUSL   AUS 1931  27.735  33.009   7.665
 2012AUSL   AUS 1932  27.622  33.266   8.012
 2013AUL    AUL 1933  27.584  32.888   7.992
 2014THSLK    S 1934  27.682  32.769   7.745
 2015ETHY    C1 1935  27.437  32.388   7.801
 2016ETHY    C1 1936  27.224  31.903   7.897
 2017ETHY    C1 1937  27.109  31.400   8.025
 2018ETHY    C1 1938  27.090  30.891   8.186
 2019ETHY    C1 1939  27.164  30.388   8.374
 2020THSLK    S 1940  27.444  33.098   8.133
 2021ETHY    C1 1941  27.156  32.780   8.289
 2022ETHY    C1 1942  26.856  32.420   8.552
 2023ETHY    C1 1943  26.613  32.094   8.896
 2024ETHY    C1 1944  26.429  31.811   9.309
 2025ETHY    C1 1945  26.305  31.577   9.783
 2026AUSL   AUS 1946  28.039  33.009   7.665
 2027AUSL   AUS 1947  27.735  33.009   7.338
 2028AUL    AUL 1948  27.887  32.701   7.502
 2029THSLK    S 1949  27.684  32.766   7.266
 2030ETHY    C1 1950  27.440  32.384   7.215
 2031ETHY    C1 1951  27.227  31.900   7.117
 2032ETHY    C1 1952  27.111  31.398   6.984
 2033ETHY    C1 1953  27.092  30.889   6.825
 2034ETHY    C1 1954  27.168  30.384   6.642
 2035THSLK    S 1955  27.996  32.753   7.749
 2036ETHY    C1 1956  27.886  32.317   7.821
 2037ETHY    C1 1957  27.843  31.791   7.928
 2038ETHY    C1 1958  27.900  31.279   8.059
 2039ETHY    C1 1959  28.053  30.791   8.213
 2040ETHY    C1 1960  28.295  30.338   8.388
 2041AUSL   AUS 1961  27.887  34.263   7.093
 2042AUSL   AUS 1962  28.304  34.193   7.237
 2043AUL    AUL 1963  28.190  34.477   7.011
 2044THSLK    S 1964  27.931  34.493   6.975
 2045ETHY    C1 1965  28.091  34.797   6.674
 2046ETHY    C1 1966  28.205  35.202   6.339
 2047ETHY    C1 1967  28.230  35.645   6.045
 2048ETHY    C1 1968  28.171  36.114   5.798
 2049ETHY    C1 1969  28.030  36.601   5.604
 2050THSLK    S 1970  28.491  34.314   7.085
 2051ETHY    C1 1971  28.865  34.470   6.876
 2052ETHY    C1 1972  29.263  34.734   6.629
 2053ETHY    C1 1973  29.596  35.078   6.395
 2054ETHY    C1 1974  29.858  35.490   6.184
 2055ETHY    C1 1975  30.049  35.964   5.998
 2056AUSL   AUS 1976  27.735  34.356   7.338
 2057AUSL   AUS 1977  27.622  34.099   6.992
 2058AUL    AUL 1978  27.584  34.477   7.011
 2059THSLK    S 1979  27.778  34.607   7.237
 2060ETHY    C1 1980  27.888  35.018   7.074
 2061ETHY    C1 1981  27.931  35.524   6.896
 2062ETHY    C1 1982  27.874  36.032   6.745
 2063ETHY    C1 1983  27.721  36.529   6.627
 2064ETHY    C1 1984  27.479  37.008   6.545
 2065THSLK    S 1985  27.508  34.234   6.802
 2066ETHY    C1 1986  27.442  34.406   6.385
 2067ETHY    C1 1987  27.299  34.658   5.932
 2068ETHY    C1 1988  27.090  34.957   5.544
 2069ETHY    C1 1989  26.824  35.295   5.230
 2070ETHY    C1 1990  26.508  35.668   4.993
 2071AUSL   AUS 1991  27.887  33.103   7.093
 2072AUSL   AUS 1992  27.471  33.172   7.237
 2073AUL    AUL 1993  27.584  32.888   7.011
 2074THSLK    S 1994  27.287  33.022   7.128
 2075ETHY    C1 1995  26.915  32.761   7.085
 2076ETHY    C1 1996  26.516  32.423   6.958
 2077ETHY    C1 1997  26.181  32.064   6.753
 2078ETHY    C1 1998  25.919  31.690   6.478
 2079ETHY    C1 1999  25.732  31.307   6.142
 2080THSLK    S 2000  27.847  32.844   7.019
 2081ETHY    C1 2001  27.690  32.438   6.885
 2082ETHY    C1 2002  27.575  31.958   6.671
 2083ETHY    C1 2003  27.548  31.499   6.404
 2084ETHY    C1 2004  27.608  31.068   6.094
 2085ETHY    C1 2005  27.752  30.673   5.751
 2086AUSL   AUS 2006  28.039  33.009   7.338
 2087AUSL   AUS 2007  28.152  33.266   6.992
 2088AUL    AUL 2008  28.190  32.888   7.011
 2089THSLK    S 2009  27.998  32.752   7.262
 2090ETHY    C1 2010  27.889  32.314   7.195
 2091ETHY    C1 2011  27.846  31.788   7.086
 2092ETHY    C1 2012  27.902  31.277   6.951
 2093ETHY    C1 2013  28.055  30.789   6.798
 2094ETHY    C1 2014  28.299  30.335   6.629
 2095THSLK    S 2015  28.272  33.076   6.853
 2096ETHY    C1 2016  28.341  32.690   6.621
 2097ETHY    C1 2017  28.483  32.282   6.300
 2098ETHY    C1 2018  28.690  31.946   5.942
 2099ETHY    C1 2019  28.956  31.689   5.559
 2100ETHY    C1 2020  29.276  31.511   5.158
 2101AUC    AUC 2021  15.770  12.406   7.502
 2102AUC    AUC 2022  16.016  12.406   7.350
 2103AUC    AUC 2023  16.016  12.406   7.653
 2104AUC    AUC 2024  15.525  12.406   7.350
 2105AUC    AUC 2025  15.525  12.406   7.653
 2106AUC    AUC 2026  15.618  12.651   7.502
 2107AUC    AUC 2027  15.922  12.651   7.502
 2108AUC    AUC 2028  15.618  12.160   7.502
 2109AUC    AUC 2029  15.922  12.160   7.502
 2110AUC    AUC 2030  15.770  12.254   7.747
 2111AUC    AUC 2031  15.770  12.557   7.747
 2112AUC    AUC 2032  15.770  12.254   7.256
 2113AUC    AUC 2033  15.770  12.557   7.256
 2114AUC    AUC 2034  16.261  12.406   7.198
 2115AUC    AUC 2035  16.261  12.406   7.502
 2116AUC    AUC 2036  16.261  12.406   7.805
 2117AUC    AUC 2037  15.279  12.406   7.198
 2118AUC    AUC 2038  15.279  12.406   7.502
 2119AUC    AUC 2039  15.279  12.406   7.805
 2120AUC    AUC 2040  15.467  12.896   7.502
 2121AUC    AUC 2041  15.770  12.896   7.502
 2122AUC    AUC 2042  16.073  12.896   7.502
 2123AUC    AUC 2043  15.467  11.915   7.502
 2124AUC    AUC 2044  15.770  11.915   7.502
 2125AUC    AUC 2045  16.073  11.915   7.502
 2126AUC    AUC 2046  15.770  12.102   7.992
 2127AUC    AUC 2047  15.770  12.406   7.992
 2128AUC    AUC 2048  15.770  12.709   7.992
 2129AUC    AUC 2049  15.770  12.102   7.011
 2130AUC    AUC 2050  15.770  12.406   7.011
 2131AUC    AUC 2051  15.770  12.709   7.011
 2132AUC    AUC 2052  16.016  12.254   7.899
 2133AUC    AUC 2053  16.016  12.557   7.899
 2134AUC    AUC 2054  16.016  12.254   7.105
 2135AUC    AUC 2055  16.016  12.557   7.105
 2136AUC    AUC 2056  15.525  12.254   7.899
 2137AUC    AUC 2057  15.525  12.557   7.899
 2138AUC    AUC 2058  15.525  12.254   7.105
 2139AUC    AUC 2059  15.525  12.557   7.105
 2140AUC    AUC 2060  16.167  12.651   7.350
 2141AUC    AUC 2061  16.167  12.651   7.653
 2142AUC    AUC 2062  15.373  12.651   7.350
 2143AUC    AUC 2063  15.373  12.651   7.653
 2144AUC    AUC 2064  16.167  12.160   7.350
 2145AUC    AUC 2065  16.167  12.160   7.653
 2146AUC    AUC 2066  15.373  12.160   7.350
 2147AUC    AUC 2067  15.373  12.160   7.653
 2148AUC    AUC 2068  15.618  12.803   7.747
 2149AUC    AUC 2069  15.922  12.803   7.747
 2150AUC    AUC 2070  15.618  12.008   7.747
 2151AUC    AUC 2071  15.922  12.008   7.747
 2152AUC    AUC 2072  15.618  12.803   7.256
 2153AUC    AUC 2073  15.922  12.803   7.256
 2154AUC    AUC 2074  15.618  12.008   7.256
 2155AUC    AUC 2075  15.922  12.008   7.256
 2156AUSL   AUS 2076  16.179  12.406   8.082
 2157AUSL   AUS 2077  16.035  11.989   8.012
 2158AUL    AUL 2078  16.261  12.102   8.296
 2159THSLK    S 2079  16.149  11.801   8.156
 2160ETHY    C1 2080  16.215  11.416   8.391
 2161ETHY    C1 2081  16.358  11.008   8.710
 2162ETHY    C1 2082  16.567  10.672   9.066
 2163ETHY    C1 2083  16.833  10.414   9.450
 2164ETHY    C1 2084  17.149  10.238   9.855
 2165THSLK    S 2085  16.275  12.356   8.326
 2166ETHY    C1 2086  16.491  12.170   8.681
 2167ETHY    C1 2087  16.766  12.035   9.124
 2168ETHY    C1 2088  17.047  12.005   9.575
 2169ETHY    C1 2089  17.325  12.074  10.025
 2170ETHY    C1 2090  17.594  12.242  10.466
 2171AUSL   AUS 2091  15.934  12.254   8.175
 2172AUSL   AUS 2092  15.607  12.557   8.175
 2173AUL    AUL 2093  15.770  12.406   8.483
 2174THSLK    S 2094  16.012  12.201   8.417
 2175ETHY    C1 2095  16.089  11.951   8.790
 2176ETHY    C1 2096  16.205  11.734   9.269
 2177ETHY    C1 2097  16.342  11.618   9.769
 2178ETHY    C1 2098  16.492  11.600  10.281
 2179ETHY    C1 2099  16.651  11.681  10.794
 2180THSLK    S 2100  15.520  12.514   8.431
 2181ETHY    C1 2101  15.438  12.402   8.864
 2182ETHY    C1 2102  15.324  12.356   9.388
 2183ETHY    C1 2103  15.192  12.414   9.901
 2184ETHY    C1 2104  15.041  12.567  10.389
 2185ETHY    C1 2105  14.875  12.811  10.844
 2186AUSL   AUS 2106  15.934  12.557   8.175
 2187AUSL   AUS 2107  16.280  12.670   7.918
 2188AUL    AUL 2108  16.261  12.709   8.296
 2189THSLK    S 2109  16.021  12.611   8.414
 2190ETHY    C1 2110  16.102  12.862   8.786
 2191ETHY    C1 2111  16.216  13.078   9.265
 2192ETHY    C1 2112  16.349  13.194   9.767
 2193ETHY    C1 2113  16.499  13.212  10.279
 2194ETHY    C1 2114  16.665  13.132  10.789
 2195THSLK    S 2115  16.454  12.772   8.080
 2196ETHY    C1 2116  16.818  12.782   8.354
 2197ETHY    C1 2117  17.234  12.884   8.680
 2198ETHY    C1 2118  17.614  13.083   8.995
 2199ETHY    C1 2119  17.949  13.370   9.296
 2200ETHY    C1 2120  18.230  13.738   9.577
 2201AUSL   AUS 2121  16.179  12.406   6.922
 2202AUSL   AUS 2122  16.035  12.822   6.992
 2203AUL    AUL 2123  16.261  12.709   6.707
 2204THSLK    S 2124  16.282  12.356   6.681
 2205ETHY    C1 2125  16.503  12.170   6.329
 2206ETHY    C1 2126  16.776  12.035   5.885
 2207ETHY    C1 2127  17.054  12.005   5.432
 2208ETHY    C1 2128  17.332  12.074   4.982
 2209ETHY    C1 2129  17.606  12.242   4.545
 2210THSLK    S 2130  16.213  12.937   6.825
 2211ETHY    C1 2131  16.501  13.042   6.488
 2212ETHY    C1 2132  16.801  13.246   6.090
 2213ETHY    C1 2133  17.044  13.534   5.714
 2214ETHY    C1 2134  17.228  13.898   5.371
 2215ETHY    C1 2135  17.352  14.329   5.065
 2216AUSL   AUS 2136  15.934  12.254   6.828
 2217AUSL   AUS 2137  16.280  12.141   7.085
 2218AUL    AUL 2138  16.261  12.102   6.707
 2219THSLK    S 2139  16.417  11.949   6.944
 2220ETHY    C1 2140  16.625  11.606   6.729
 2221ETHY    C1 2141  16.926  11.264   6.442
 2222ETHY    C1 2142  17.277  11.011   6.133
 2223ETHY    C1 2143  17.671  10.849   5.812
 2224ETHY    C1 2144  18.100  10.778   5.486
 2225THSLK    S 2145  16.021  12.200   6.590
 2226ETHY    C1 2146  16.102  11.949   6.217
 2227ETHY    C1 2147  16.216  11.733   5.738
 2228ETHY    C1 2148  16.349  11.617   5.236
 2229ETHY    C1 2149  16.499  11.599   4.725
 2230ETHY    C1 2150  16.665  11.679   4.214
 2231AUSL   AUS 2151  15.934  12.557   6.828
 2232AUSL   AUS 2152  15.607  12.254   6.828
 2233AUL    AUL 2153  15.770  12.406   6.520
 2234THSLK    S 2154  15.512  12.200   6.592
 2235ETHY    C1 2155  15.375  11.952   6.235
 2236ETHY    C1 2156  15.215  11.738   5.767
 2237ETHY    C1 2157  15.068  11.623   5.269
 2238ETHY    C1 2158  14.941  11.604   4.751
 2239ETHY    C1 2159  14.836  11.680   4.224
 2240THSLK    S 2160  16.037  12.515   6.578
 2241ETHY    C1 2161  16.178  12.400   6.160
 2242ETHY    C1 2162  16.336  12.353   5.647
 2243ETHY    C1 2163  16.479  12.409   5.138
 2244ETHY    C1 2164  16.607  12.563   4.643
 2245ETHY    C1 2165  16.718  12.811   4.174
 2246AUSL   AUS 2166  15.361  12.406   8.082
 2247AUSL   AUS 2167  15.505  12.822   8.012
 2248AUL    AUL 2168  15.279  12.709   8.296
 2249THSLK    S 2169  15.258  12.356   8.322
 2250ETHY    C1 2170  15.037  12.170   8.674
 2251ETHY    C1 2171  14.764  12.035   9.118
 2252ETHY    C1 2172  14.487  12.005   9.571
 2253ETHY    C1 2173  14.209  12.074  10.021
 2254ETHY    C1 2174  13.934  12.242  10.458
 2255THSLK    S 2175  15.385  12.951   8.202
 2256ETHY    C1 2176  15.316  13.120   8.620
 2257ETHY    C1 2177  15.174  13.373   9.073
 2258ETHY    C1 2178  14.968  13.674   9.460
 2259ETHY    C1 2179  14.701  14.013   9.775
 2260ETHY    C1 2180  14.381  14.380  10.013
 2261AUSL   AUS 2181  15.607  12.254   8.175
 2262AUSL   AUS 2182  15.260  12.141   7.918
 2263AUL    AUL 2183  15.279  12.102   8.296
 2264THSLK    S 2184  15.082  11.977   8.029
 2265ETHY    C1 2185  14.714  11.724   8.125
 2266ETHY    C1 2186  14.299  11.445   8.323
 2267ETHY    C1 2187  13.921  11.205   8.611
 2268ETHY    C1 2188  13.587  11.009   8.978
 2269ETHY    C1 2189  13.301  10.863   9.415
 2270THSLK    S 2190  15.504  12.202   8.410
 2271ETHY    C1 2191  15.362  11.955   8.766
 2272ETHY    C1 2192  15.204  11.740   9.233
 2273ETHY    C1 2193  15.061  11.624   9.733
 2274ETHY    C1 2194  14.934  11.606  10.250
 2275ETHY    C1 2195  14.822  11.684  10.775
 2276AUSL   AUS 2196  15.361  12.406   6.922
 2277AUSL   AUS 2197  15.505  11.989   6.992
 2278AUL    AUL 2198  15.279  12.102   6.707
 2279THSLK    S 2199  15.266  12.356   6.677
 2280ETHY    C1 2200  15.049  12.170   6.322
 2281ETHY    C1 2201  14.774  12.035   5.879
 2282ETHY    C1 2202  14.493  12.005   5.429
 2283ETHY    C1 2203  14.215  12.074   4.978
 2284ETHY    C1 2204  13.947  12.242   4.537
 2285THSLK    S 2205  15.333  11.815   6.872
 2286ETHY    C1 2206  15.048  11.494   6.717
 2287ETHY    C1 2207  14.747  11.135   6.453
 2288ETHY    C1 2208  14.502  10.812   6.109
 2289ETHY    C1 2209  14.318  10.529   5.696
 2290ETHY    C1 2210  14.199  10.289   5.223
 2291AUSL   AUS 2211  15.607  12.557   6.828
 2292AUSL   AUS 2212  15.260  12.670   7.085
 2293AUL    AUL 2213  15.279  12.709   6.707
 2294THSLK    S 2214  15.129  12.800   6.893
 2295ETHY    C1 2215  14.923  12.900   6.499
 2296ETHY    C1 2216  14.621  13.064   6.085
 2297ETHY    C1 2217  14.267  13.276   5.748
 2298ETHY    C1 2218  13.874  13.530   5.494
 2299ETHY    C1 2219  13.449  13.823   5.324
 2300THSLK    S 2220  15.528  12.516   6.571
 2301ETHY    C1 2221  15.451  12.404   6.136
 2302ETHY    C1 2222  15.335  12.359   5.612
 2303ETHY    C1 2223  15.199  12.415   5.101
 2304ETHY    C1 2224  15.049  12.569   4.613
 2305ETHY    C1 2225  14.889  12.814   4.156
 2306AUSL   AUS 2226  16.350  12.815   7.502
 2307AUSL   AUS 2227  16.280  12.670   7.085
 2308AUL    AUL 2228  16.564  12.896   7.198
 2309THSLK    S 2229  16.459  12.773   6.930
 2310ETHY    C1 2230  16.826  12.784   6.659
 2311ETHY    C1 2231  17.241  12.886   6.332
 2312ETHY    C1 2232  17.619  13.084   6.014
 2313ETHY    C1 2233  17.953  13.371   5.713
 2314ETHY    C1 2234  18.239  13.741   5.438
 2315THSLK    S 2235  16.618  12.871   7.506
 2316ETHY    C1 2236  17.070  12.932   7.508
 2317ETHY    C1 2237  17.584  13.091   7.507
 2318ETHY    C1 2238  18.052  13.345   7.505
 2319ETHY    C1 2239  18.465  13.682   7.506
 2320ETHY    C1 2240  18.817  14.096   7.509
 2321AUSL   AUS 2241  16.444  12.569   7.350
 2322AUSL   AUS 2242  16.444  12.242   7.653
 2323AUL    AUL 2243  16.752  12.406   7.502
 2324THSLK    S 2244  16.703  12.612   7.348
 2325ETHY    C1 2245  17.148  12.542   7.278
 2326ETHY    C1 2246  17.679  12.549   7.190
 2327ETHY    C1 2247  18.192  12.659   7.101
 2328ETHY    C1 2248  18.677  12.865   7.017
 2329ETHY    C1 2249  19.124  13.162   6.940
 2330THSLK    S 2250  16.676  12.104   7.662
 2331ETHY    C1 2251  17.022  11.815   7.728
 2332ETHY    C1 2252  17.483  11.548   7.809
 2333ETHY    C1 2253  17.980  11.379   7.892
 2334ETHY    C1 2254  18.501  11.307   7.980
 2335ETHY    C1 2255  19.036  11.333   8.071
 2336AUSL   AUS 2256  16.444  12.569   7.653
 2337AUSL   AUS 2257  16.187  12.916   7.766
 2338AUL    AUL 2258  16.564  12.896   7.805
 2339THSLK    S 2259  16.370  13.035   7.926
 2340ETHY    C1 2260  16.742  13.190   8.139
 2341ETHY    C1 2261  17.142  13.455   8.385
 2342ETHY    C1 2262  17.476  13.799   8.615
 2343ETHY    C1 2263  17.738  14.212   8.827
 2344ETHY    C1 2264  17.925  14.684   9.019
 2345THSLK    S 2265  16.702  12.612   7.664
 2346ETHY    C1 2266  17.146  12.542   7.738
 2347ETHY    C1 2267  17.677  12.549   7.825
 2348ETHY    C1 2268  18.191  12.659   7.910
 2349ETHY    C1 2269  18.675  12.865   7.994
 2350ETHY    C1 2270  19.122  13.162   8.078
 2351AUSL   AUS 2271  15.190  12.815   7.502
 2352AUSL   AUS 2272  15.260  12.670   7.918
 2353AUL    AUL 2273  14.976  12.896   7.805
 2354THSLK    S 2274  15.124  12.793   8.109
 2355ETHY    C1 2275  14.915  12.889   8.503
 2356ETHY    C1 2276  14.614  13.055   8.917
 2357ETHY    C1 2277  14.263  13.270   9.254
 2358ETHY    C1 2278  13.869  13.524   9.509
 2359ETHY    C1 2279  13.440  13.811   9.678
 2360THSLK    S 2280  14.974  12.955   7.506
 2361ETHY    C1 2281  14.718  13.333   7.508
 2362ETHY    C1 2282  14.345  13.721   7.507
 2363ETHY    C1 2283  13.909  14.027   7.505
 2364ETHY    C1 2284  13.423  14.245   7.506
 2365ETHY    C1 2285  12.896  14.375   7.509
 2366AUSL   AUS 2286  15.096  12.569   7.350
 2367AUSL   AUS 2287  15.354  12.916   7.237
 2368AUL    AUL 2288  14.976  12.896   7.198
 2369THSLK    S 2289  14.865  12.684   7.303
 2370ETHY    C1 2290  14.518  12.872   7.075
 2371ETHY    C1 2291  14.058  13.064   6.872
 2372ETHY    C1 2292  13.560  13.214   6.758
 2373ETHY    C1 2293  13.039  13.324   6.733
 2374ETHY    C1 2294  12.505  13.394   6.796
 2375THSLK    S 2295  15.238  13.081   7.058
 2376ETHY    C1 2296  15.122  13.397   6.750
 2377ETHY    C1 2297  14.908  13.775   6.432
 2378ETHY    C1 2298  14.616  14.144   6.183
 2379ETHY    C1 2299  14.258  14.497   6.008
 2380ETHY    C1 2300  13.840  14.830   5.909
 2381AUSL   AUS 2301  15.096  12.569   7.653
 2382AUSL   AUS 2302  15.096  12.242   7.350
 2383AUL    AUL 2303  14.788  12.406   7.502
 2384THSLK    S 2304  14.838  12.168   7.390
 2385ETHY    C1 2305  14.394  12.133   7.486
 2386ETHY    C1 2306  13.863  12.052   7.518
 2387ETHY    C1 2307  13.349  11.927   7.458
 2388ETHY    C1 2308  12.865  11.759   7.311
 2389ETHY    C1 2309  12.418  11.552   7.083
 2390THSLK    S 2310  14.863  12.676   7.704
 2391ETHY    C1 2311  14.516  12.860   7.935
 2392ETHY    C1 2312  14.056  13.053   8.137
 2393ETHY    C1 2313  13.559  13.208   8.249
 2394ETHY    C1 2314  13.038  13.318   8.274
 2395ETHY    C1 2315  12.502  13.381   8.213
 2396AUSL   AUS 2316  16.350  11.996   7.502
 2397AUSL   AUS 2317  16.280  12.141   7.918
 2398AUL    AUL 2318  16.564  11.915   7.805
 2399THSLK    S 2319  16.566  11.856   7.506
 2400ETHY    C1 2320  16.822  11.478   7.508
 2401ETHY    C1 2321  17.195  11.090   7.507
 2402ETHY    C1 2322  17.631  10.784   7.505
 2403ETHY    C1 2323  18.117  10.566   7.506
 2404ETHY    C1 2324  18.644  10.436   7.509
 2405THSLK    S 2325  16.412  11.951   8.066
 2406ETHY    C1 2326  16.617  11.608   8.285
 2407ETHY    C1 2327  16.919  11.266   8.570
 2408ETHY    C1 2328  17.273  11.013   8.877
 2409ETHY    C1 2329  17.667  10.850   9.198
 2410ETHY    C1 2330  18.091  10.780   9.529
 2411AUSL   AUS 2331  16.444  12.242   7.350
 2412AUSL   AUS 2332  16.187  11.895   7.237
 2413AUL    AUL 2333  16.564  11.915   7.198
 2414THSLK    S 2334  16.677  12.104   7.350
 2415ETHY    C1 2335  17.025  11.815   7.289
 2416ETHY    C1 2336  17.484  11.548   7.206
 2417ETHY    C1 2337  17.981  11.379   7.118
 2418ETHY    C1 2338  18.503  11.307   7.031
 2419ETHY    C1 2339  19.038  11.333   6.947
 2420THSLK    S 2340  16.306  11.705   7.104
 2421ETHY    C1 2341  16.423  11.288   6.963
 2422ETHY    C1 2342  16.637  10.834   6.765
 2423ETHY    C1 2343  16.927  10.448   6.543
 2424ETHY    C1 2344  17.286  10.133   6.306
 2425ETHY    C1 2345  17.706   9.894   6.058
 2426AUSL   AUS 2346  15.190  11.996   7.502
 2427AUSL   AUS 2347  15.260  12.141   7.085
 2428AUL    AUL 2348  14.976  11.915   7.198
 2429THSLK    S 2349  15.087  11.970   6.973
 2430ETHY    C1 2350  14.722  11.713   6.877
 2431ETHY    C1 2351  14.306  11.436   6.679
 2432ETHY    C1 2352  13.926  11.199   6.392
 2433ETHY    C1 2353  13.592  11.003   6.025
 2434ETHY    C1 2354  13.310  10.851   5.587
 2435THSLK    S 2355  14.922  11.940   7.506
 2436ETHY    C1 2356  14.470  11.879   7.508
 2437ETHY    C1 2357  13.956  11.720   7.507
 2438ETHY    C1 2358  13.488  11.466   7.505
 2439ETHY    C1 2359  13.075  11.129   7.506
 2440ETHY    C1 2360  12.723  10.715   7.509
 2441AUSL   AUS 2361  15.096  12.242   7.653
 2442AUSL   AUS 2362  15.354  11.895   7.766
 2443AUL    AUL 2363  14.976  11.915   7.805
 2444THSLK    S 2364  15.166  11.751   7.880
 2445ETHY    C1 2365  14.792  11.494   7.926
 2446ETHY    C1 2366  14.394  11.154   8.052
 2447ETHY    C1 2367  14.061  10.792   8.255
 2448ETHY    C1 2368  13.799  10.418   8.529
 2449ETHY    C1 2369  13.608  10.040   8.870
 2450THSLK    S 2370  14.837  12.175   7.617
 2451ETHY    C1 2371  14.392  12.145   7.524
 2452ETHY    C1 2372  13.861  12.063   7.490
 2453ETHY    C1 2373  13.348  11.934   7.549
 2454ETHY    C1 2374  12.864  11.766   7.696
 2455ETHY    C1 2375  12.416  11.564   7.928
 2456AUSL   AUS 2376  15.770  12.986   7.911
 2457AUSL   AUS 2377  15.354  12.916   7.766
 2458AUL    AUL 2378  15.467  13.200   7.992
 2459THSLK    S 2379  15.234  13.075   7.950
 2460ETHY    C1 2380  15.117  13.387   8.261
 2461ETHY    C1 2381  14.903  13.767   8.578
 2462ETHY    C1 2382  14.613  14.138   8.824
 2463ETHY    C1 2383  14.255  14.492   9.000
 2464ETHY    C1 2384  13.834  14.820   9.102
 2465THSLK    S 2385  15.810  13.212   8.035
 2466ETHY    C1 2386  15.967  13.514   8.339
 2467ETHY    C1 2387  16.082  13.920   8.672
 2468ETHY    C1 2388  16.109  14.364   8.964
 2469ETHY    C1 2389  16.049  14.833   9.211
 2470ETHY    C1 2390  15.905  15.317   9.410
 2471AUSL   AUS 2391  15.618  13.079   7.665
 2472AUSL   AUS 2392  15.922  13.079   7.338
 2473AUL    AUL 2393  15.770  13.387   7.502
 2474THSLK    S 2394  15.659  13.327   7.774
 2475ETHY    C1 2395  15.768  13.737   7.942
 2476ETHY    C1 2396  15.812  14.244   8.118
 2477ETHY    C1 2397  15.755  14.752   8.265
 2478ETHY    C1 2398  15.602  15.249   8.383
 2479ETHY    C1 2399  15.359  15.726   8.472
 2480THSLK    S 2400  15.975  13.314   7.241
 2481ETHY    C1 2401  16.220  13.670   7.094
 2482ETHY    C1 2402  16.433  14.135   6.927
 2483ETHY    C1 2403  16.548  14.633   6.779
 2484ETHY    C1 2404  16.568  15.152   6.655
 2485ETHY    C1 2405  16.493  15.681   6.558
 2486AUSL   AUS 2406  15.922  13.079   7.665
 2487AUSL   AUS 2407  16.035  12.822   8.012
 2488AUL    AUL 2408  16.073  13.200   7.992
 2489THSLK    S 2409  16.207  12.935   8.184
 2490ETHY    C1 2410  16.492  13.038   8.524
 2491ETHY    C1 2411  16.794  13.242   8.921
 2492ETHY    C1 2412  17.039  13.532   9.294
 2493ETHY    C1 2413  17.223  13.895   9.638
 2494ETHY    C1 2414  17.342  14.325   9.948
 2495THSLK    S 2415  15.973  13.313   7.771
 2496ETHY    C1 2416  16.217  13.667   7.922
 2497ETHY    C1 2417  16.430  14.133   8.087
 2498ETHY    C1 2418  16.546  14.632   8.231
 2499ETHY    C1 2419  16.565  15.150   8.356
 2500ETHY    C1 2420  16.490  15.678   8.458
 2501AUSL   AUS 2421  15.770  11.826   7.911
 2502AUSL   AUS 2422  16.187  11.895   7.766
 2503AUL    AUL 2423  16.073  11.611   7.992
 2504THSLK    S 2424  15.726  11.571   7.990
 2505ETHY    C1 2425  15.566  11.167   8.128
 2506ETHY    C1 2426  15.452  10.686   8.341
 2507ETHY    C1 2427  15.427  10.225   8.605
 2508ETHY    C1 2428  15.486   9.795   8.915
 2509ETHY    C1 2429  15.627   9.403   9.263
 2510THSLK    S 2430  16.302  11.706   7.908
 2511ETHY    C1 2431  16.418  11.290   8.052
 2512ETHY    C1 2432  16.632  10.837   8.248
 2513ETHY    C1 2433  16.924  10.449   8.467
 2514ETHY    C1 2434  17.283  10.134   8.705
 2515ETHY    C1 2435  17.700   9.897   8.958
 2516AUSL   AUS 2436  15.618  11.732   7.665
 2517AUSL   AUS 2437  15.505  11.989   8.012
 2518AUL    AUL 2438  15.467  11.611   7.992
 2519THSLK    S 2439  15.565  11.492   7.745
 2520ETHY    C1 2440  15.320  11.111   7.801
 2521ETHY    C1 2441  15.107  10.626   7.897
 2522ETHY    C1 2442  14.992  10.123   8.025
 2523ETHY    C1 2443  14.973   9.614   8.186
 2524ETHY    C1 2444  15.047   9.111   8.374
 2525THSLK    S 2445  15.327  11.821   8.133
 2526ETHY    C1 2446  15.039  11.503   8.289
 2527ETHY    C1 2447  14.739  11.143   8.552
 2528ETHY    C1 2448  14.496  10.817   8.896
 2529ETHY    C1 2449  14.312  10.534   9.309
 2530ETHY    C1 2450  14.188  10.300   9.783
 2531AUSL   AUS 2451  15.922  11.732   7.665
 2532AUSL   AUS 2452  15.618  11.732   7.338
 2533AUL    AUL 2453  15.770  11.424   7.502
 2534THSLK    S 2454  15.567  11.489   7.266
 2535ETHY    C1 2455  15.323  11.107   7.215
 2536ETHY    C1 2456  15.110  10.623   7.117
 2537ETHY    C1 2457  14.994  10.121   6.984
 2538ETHY    C1 2458  14.975   9.612   6.825
 2539ETHY    C1 2459  15.051   9.107   6.642
 2540THSLK    S 2460  15.879  11.476   7.749
 2541ETHY    C1 2461  15.769  11.040   7.821
 2542ETHY    C1 2462  15.726  10.514   7.928
 2543ETHY    C1 2463  15.783  10.002   8.059
 2544ETHY    C1 2464  15.936   9.514   8.213
 2545ETHY    C1 2465  16.178   9.061   8.388
 2546AUSL   AUS 2466  15.770  12.986   7.093
 2547AUSL   AUS 2467  16.187  12.916   7.237
 2548AUL    AUL 2468  16.073  13.200   7.011
 2549THSLK    S 2469  15.814  13.216   6.975
 2550ETHY    C1 2470  15.974  13.520   6.674
 2551ETHY    C1 2471  16.088  13.925   6.339
 2552ETHY    C1 2472  16.113  14.368   6.045
 2553ETHY    C1 2473  16.054  14.837   5.798
 2554ETHY    C1 2474  15.913  15.324   5.604
 2555THSLK    S 2475  16.374  13.037   7.085
 2556ETHY    C1 2476  16.748  13.193   6.876
 2557ETHY    C1 2477  17.146  13.457   6.629
 2558ETHY    C1 2478  17.479  13.801   6.395
 2559ETHY    C1 2479  17.741  14.213   6.184
 2560ETHY    C1 2480  17.932  14.687   5.998
 2561AUSL   AUS 2481  15.618  13.079   7.338
 2562AUSL   AUS 2482  15.505  12.822   6.992
 2563AUL    AUL 2483  15.467  13.200   7.011
 2564THSLK    S 2484  15.661  13.330   7.237
 2565ETHY    C1 2485  15.771  13.741   7.074
 2566ETHY    C1 2486  15.814  14.247   6.896
 2567ETHY    C1 2487  15.757  14.755   6.745
 2568ETHY    C1 2488  15.604  15.252   6.627
 2569ETHY    C1 2489  15.362  15.731   6.545
 2570THSLK    S 2490  15.391  12.957   6.802
 2571ETHY    C1 2491  15.325  13.129   6.385
 2572ETHY    C1 2492  15.182  13.381   5.932
 2573ETHY    C1 2493  14.973  13.680   5.544
 2574ETHY    C1 2494  14.707  14.018   5.230
 2575ETHY    C1 2495  14.391  14.391   4.993
 2576AUSL   AUS 2496  15.770  11.826   7.093
 2577AUSL   AUS 2497  15.354  11.895   7.237
 2578AUL    AUL 2498  15.467  11.611   7.011
 2579THSLK    S 2499  15.170  11.745   7.128
 2580ETHY    C1 2500  14.798  11.484   7.085
 2581ETHY    C1 2501  14.399  11.146   6.958
 2582ETHY    C1 2502  14.064  10.787   6.753
 2583ETHY    C1 2503  13.802  10.413   6.478
 2584ETHY    C1 2504  13.615  10.030   6.142
 2585THSLK    S 2505  15.730  11.567   7.019
 2586ETHY    C1 2506  15.573  11.161   6.885
 2587ETHY    C1 2507  15.458  10.681   6.671
 2588ETHY    C1 2508  15.431  10.222   6.404
 2589ETHY    C1 2509  15.491   9.791   6.094
 2590ETHY    C1 2510  15.635   9.396   5.751
 2591AUSL   AUS 2511  15.922  11.732   7.338
 2592AUSL   AUS 2512  16.035  11.989   6.992
 2593AUL    AUL 2513  16.073  11.611   7.011
 2594THSLK    S 2514  15.881  11.475   7.262
 2595ETHY    C1 2515  15.772  11.037   7.195
 2596ETHY    C1 2516  15.729  10.511   7.086
 2597ETHY    C1 2517  15.785  10.000   6.951
 2598ETHY    C1 2518  15.938   9.512   6.798
 2599ETHY    C1 2519  16.182   9.058   6.629
 2600THSLK    S 2520  16.155  11.799   6.853
 2601ETHY    C1 2521  16.224  11.413   6.621
 2602ETHY    C1 2522  16.366  11.005   6.300
 2603ETHY    C1 2523  16.573  10.669   5.942
 2604ETHY    C1 2524  16.839  10.412   5.559
 2605ETHY    C1 2525  17.159  10.234   5.158
 2606AUC    AUC 2526  30.877  11.782   7.502
 2607AUC    AUC 2527  31.123  11.782   7.350
 2608AUC    AUC 2528  31.123  11.782   7.653
 2609AUC    AUC 2529  30.632  11.782   7.350
 2610AUC    AUC 2530  30.632  11.782   7.653
 2611AUC    AUC 2531  30.725  12.027   7.502
 2612AUC    AUC 2532  31.029  12.027   7.502
 2613AUC    AUC 2533  30.725  11.536   7.502
 2614AUC    AUC 2534  31.029  11.536   7.502
 2615AUC    AUC 2535  30.877  11.630   7.747
 2616AUC    AUC 2536  30.877  11.933   7.747
 2617AUC    AUC 2537  30.877  11.630   7.256
 2618AUC    AUC 2538  30.877  11.933   7.256
 2619AUC    AUC 2539  31.368  11.782   7.198
 2620AUC    AUC 2540  31.368  11.782   7.502
 2621AUC    AUC 2541  31.368  11.782   7.805
 2622AUC    AUC 2542  30.386  11.782   7.198
 2623AUC    AUC 2543  30.386  11.782   7.502
 2624AUC    AUC 2544  30.386  11.782   7.805
 2625AUC    AUC 2545  30.574  12.272   7.502
 2626AUC    AUC 2546  30.877  12.272   7.502
 2627AUC    AUC 2547  31.180  12.272   7.502
 2628AUC    AUC 2548  30.574  11.291   7.502
 2629AUC    AUC 2549  30.877  11.291   7.502
 2630AUC    AUC 2550  31.180  11.291   7.502
 2631AUC    AUC 2551  30.877  11.478   7.992
 2632AUC    AUC 2552  30.877  11.782   7.992
 2633AUC    AUC 2553  30.877  12.085   7.992
 2634AUC    AUC 2554  30.877  11.478   7.011
 2635AUC    AUC 2555  30.877  11.782   7.011
 2636AUC    AUC 2556  30.877  12.085   7.011
 2637AUC    AUC 2557  31.123  11.630   7.899
 2638AUC    AUC 2558  31.123  11.933   7.899
 2639AUC    AUC 2559  31.123  11.630   7.105
 2640AUC    AUC 2560  31.123  11.933   7.105
 2641AUC    AUC 2561  30.632  11.630   7.899
 2642AUC    AUC 2562  30.632  11.933   7.899
 2643AUC    AUC 2563  30.632  11.630   7.105
 2644AUC    AUC 2564  30.632  11.933   7.105
 2645AUC    AUC 2565  31.274  12.027   7.350
 2646AUC    AUC 2566  31.274  12.027   7.653
 2647AUC    AUC 2567  30.480  12.027   7.350
 2648AUC    AUC 2568  30.480  12.027   7.653
 2649AUC    AUC 2569  31.274  11.536   7.350
 2650AUC    AUC 2570  31.274  11.536   7.653
 2651AUC    AUC 2571  30.480  11.536   7.350
 2652AUC    AUC 2572  30.480  11.536   7.653
 2653AUC    AUC 2573  30.725  12.179   7.747
 2654AUC    AUC 2574  31.029  12.179   7.747
 2655AUC    AUC 2575  30.725  11.384   7.747
 2656AUC    AUC 2576  31.029  11.384   7.747
 2657AUC    AUC 2577  30.725  12.179   7.256
 2658AUC    AUC 2578  31.029  12.179   7.256
 2659AUC    AUC 2579  30.725  11.384   7.256
 2660AUC    AUC 2580  31.029  11.384   7.256
 2661AUSL   AUS 2581  31.286  11.782   8.082
 2662AUSL   AUS 2582  31.142  11.365   8.012
 2663AUL    AUL 2583  31.368  11.478   8.296
 2664THSLK    S 2584  31.256  11.177   8.156
 2665ETHY    C1 2585  31.322  10.792   8.391
 2666ETHY    C1 2586  31.465  10.384   8.710
 2667ETHY    C1 2587  31.674  10.048   9.066
 2668ETHY    C1 2588  31.940   9.790   9.450
 2669ETHY    C1 2589  32.256   9.614   9.855
 2670THSLK    S 2590  31.382  11.732   8.326
 2671ETHY    C1 2591  31.598  11.546   8.681
 2672ETHY    C1 2592  31.873  11.411   9.124
 2673ETHY    C1 2593  32.154  11.381   9.575
 2674ETHY    C1 2594  32.432  11.450  10.025
 2675ETHY    C1 2595  32.701  11.618  10.466
 2676AUSL   AUS 2596  31.041  11.630   8.175
 2677AUSL   AUS 2597  30.714  11.933   8.175
 2678AUL    AUL 2598  30.877  11.782   8.483
 2679THSLK    S 2599  31.119  11.577   8.417
 2680ETHY    C1 2600  31.196  11.327   8.790
 2681ETHY    C1 2601  31.312  11.110   9.269
 2682ETHY    C1 2602  31.449  10.994   9.769
 2683ETHY    C1 2603  31.599  10.976  10.281
 2684ETHY    C1 2604  31.758  11.057  10.794
 2685THSLK    S 2605  30.627  11.890   8.431
 2686ETHY    C1 2606  30.545  11.778   8.864
 2687ETHY    C1 2607  30.431  11.732   9.388
 2688ETHY    C1 2608  30.299  11.790   9.901
 2689ETHY    C1 2609  30.148  11.943  10.389
 2690ETHY    C1 2610  29.982  12.187  10.844
 2691AUSL   AUS 2611  31.041  11.933   8.175
 2692AUSL   AUS 2612  31.387  12.046   7.918
 2693AUL    AUL 2613  31.368  12.085   8.296
 2694THSLK    S 2614  31.128  11.987   8.414
 2695ETHY    C1 2615  31.209  12.238   8.786
 2696ETHY    C1 2616  31.323  12.454   9.265
 2697ETHY    C1 2617  31.456  12.570   9.767
 2698ETHY    C1 2618  31.606  12.588  10.279
 2699ETHY    C1 2619  31.772  12.508  10.789
 2700THSLK    S 2620  31.561  12.148   8.080
 2701ETHY    C1 2621  31.925  12.158   8.354
 2702ETHY    C1 2622  32.341  12.260   8.680
 2703ETHY    C1 2623  32.721  12.459   8.995
 2704ETHY    C1 2624  33.056  12.746   9.296
 2705ETHY    C1 2625  33.337  13.114   9.577
 2706AUSL   AUS 2626  31.286  11.782   6.922
 2707AUSL   AUS 2627  31.142  12.198   6.992
 2708AUL    AUL 2628  31.368  12.085   6.707
 2709THSLK    S 2629  31.389  11.732   6.681
 2710ETHY    C1 2630  31.610  11.546   6.329
 2711ETHY    C1 2631  31.883  11.411   5.885
 2712ETHY    C1 2632  32.161  11.381   5.432
 2713ETHY    C1 2633  32.439  11.450   4.982
 2714ETHY    C1 2634  32.713  11.618   4.545
 2715THSLK    S 2635  31.320  12.313   6.825
 2716ETHY    C1 2636  31.608  12.418   6.488
 2717ETHY    C1 2637  31.908  12.622   6.090
 2718ETHY    C1 2638  32.151  12.910   5.714
 2719ETHY    C1 2639  32.335  13.274   5.371
 2720ETHY    C1 2640  32.459  13.705   5.065
 2721AUSL   AUS 2641  31.041  11.630   6.828
 2722AUSL   AUS 2642  31.387  11.517   7.085
 2723AUL    AUL 2643  31.368  11.478   6.707
 2724THSLK    S 2644  31.524  11.325   6.944
 2725ETHY    C1 2645  31.732  10.982   6.729
 2726ETHY    C1 2646  32.033  10.640   6.442
 2727ETHY    C1 2647  32.384  10.387   6.133
 2728ETHY    C1 2648  32.778  10.225   5.812
 2729ETHY    C1 2649  33.207  10.154   5.486
 2730THSLK    S 2650  31.128  11.576   6.590
 2731ETHY    C1 2651  31.209  11.325   6.217
 2732ETHY    C1 2652  31.323  11.109   5.738
 2733ETHY    C1 2653  31.456  10.993   5.236
 2734ETHY    C1 2654  31.606  10.975   4.725
 2735ETHY    C1 2655  31.772  11.055   4.214
 2736AUSL   AUS 2656  31.041  11.933   6.828
 2737AUSL   AUS 2657  30.714  11.630   6.828
 2738AUL    AUL 2658  30.877  11.782   6.520
 2739THSLK    S 2659  30.619  11.576   6.592
 2740ETHY    C1 2660  30.482  11.328   6.235
 2741ETHY    C1 2661  30.322  11.114   5.767
 2742ETHY    C1 2662  30.175  10.999   5.269
 2743ETHY    C1 2663  30.048  10.980   4.751
 2744ETHY    C1 2664  29.943  11.056   4.224
 2745THSLK    S 2665  31.144  11.891   6.578
 2746ETHY    C1 2666  31.285  11.776   6.160
 2747ETHY    C1 2667  31.443  11.729   5.647
 2748ETHY    C1 2668  31.586  11.785   5.138
 2749ETHY    C1 2669  31.714  11.939   4.643
 2750ETHY    C1 2670  31.825  12.187   4.174
 2751AUSL   AUS 2671  30.468  11.782   8.082
 2752AUSL   AUS 2672  30.612  12.198   8.012
 2753AUL    AUL 2673  30.386  12.085   8.296
 2754THSLK    S 2674  30.365  11.732   8.322
 2755ETHY    C1 2675  30.144  11.546   8.674
 2756ETHY    C1 2676  29.871  11.411   9.118
 2757ETHY    C1 2677  29.594  11.381   9.571
 2758ETHY    C1 2678  29.316  11.450  10.021
 2759ETHY    C1 2679  29.041  11.618  10.458
 2760THSLK    S 2680  30.492  12.327   8.202
 2761ETHY    C1 2681  30.423  12.496   8.620
 2762ETHY    C1 2682  30.281  12.749   9.073
 2763ETHY    C1 2683  30.075  13.050   9.460
 2764ETHY    C1 2684  29.808  13.389   9.775
 2765ETHY    C1 2685  29.488  13.756  10.013
 2766AUSL   AUS 2686  30.714  11.630   8.175
 2767AUSL   AUS 2687  30.367  11.517   7.918
 2768AUL    AUL 2688  30.386  11.478   8.296
 2769THSLK    S 2689  30.189  11.353   8.029
 2770ETHY    C1 2690  29.821  11.100   8.125
 2771ETHY    C1 2691  29.406  10.821   8.323
 2772ETHY    C1 2692  29.028  10.581   8.611
 2773ETHY    C1 2693  28.694  10.385   8.978
 2774ETHY    C1 2694  28.408  10.239   9.415
 2775THSLK    S 2695  30.611  11.578   8.410
 2776ETHY    C1 2696  30.469  11.331   8.766
 2777ETHY    C1 2697  30.311  11.116   9.233
 2778ETHY    C1 2698  30.168  11.000   9.733
 2779ETHY    C1 2699  30.041  10.982  10.250
 2780ETHY    C1 2700  29.929  11.060  10.775
 2781AUSL   AUS 2701  30.468  11.782   6.922
 2782AUSL   AUS 2702  30.612  11.365   6.992
 2783AUL    AUL 2703  30.386  11.478   6.707
 2784THSLK    S 2704  30.373  11.732   6.677
 2785ETHY    C1 2705  30.156  11.546   6.322
 2786ETHY    C1 2706  29.881  11.411   5.879
 2787ETHY    C1 2707  29.600  11.381   5.429
 2788ETHY    C1 2708  29.322  11.450   4.978
 2789ETHY    C1 2709  29.054  11.618   4.537
 2790THSLK    S 2710  30.440  11.191   6.872
 2791ETHY    C1 2711  30.155  10.870   6.717
 2792ETHY    C1 2712  29.854  10.511   6.453
 2793ETHY    C1 2713  29.609  10.188   6.109
 2794ETHY    C1 2714  29.425   9.905   5.696
 2795ETHY    C1 2715  29.306   9.665   5.223
 2796AUSL   AUS 2716  30.714  11.933   6.828
 2797AUSL   AUS 2717  30.367  12.046   7.085
 2798AUL    AUL 2718  30.386  12.085   6.707
 2799THSLK    S 2719  30.236  12.176   6.893
 2800ETHY    C1 2720  30.030  12.276   6.499
 2801ETHY    C1 2721  29.728  12.440   6.085
 2802ETHY    C1 2722  29.374  12.652   5.748
 2803ETHY    C1 2723  28.981  12.906   5.494
 2804ETHY    C1 2724  28.556  13.199   5.324
 2805THSLK    S 2725  30.635  11.892   6.571
 2806ETHY    C1 2726  30.558  11.780   6.136
 2807ETHY    C1 2727  30.442  11.735   5.612
 2808ETHY    C1 2728  30.306  11.791   5.101
 2809ETHY    C1 2729  30.156  11.945   4.613
 2810ETHY    C1 2730  29.996  12.190   4.156
 2811AUSL   AUS 2731  31.457  12.191   7.502
 2812AUSL   AUS 2732  31.387  12.046   7.085
 2813AUL    AUL 2733  31.671  12.272   7.198
 2814THSLK    S 2734  31.566  12.149   6.930
 2815ETHY    C1 2735  31.933  12.160   6.659
 2816ETHY    C1 2736  32.348  12.262   6.332
 2817ETHY    C1 2737  32.726  12.460   6.014
 2818ETHY    C1 2738  33.060  12.747   5.713
 2819ETHY    C1 2739  33.346  13.117   5.438
 2820THSLK    S 2740  31.725  12.247   7.506
 2821ETHY    C1 2741  32.177  12.308   7.508
 2822ETHY    C1 2742  32.691  12.467   7.507
 2823ETHY    C1 2743  33.159  12.721   7.505
 2824ETHY    C1 2744  33.572  13.058   7.506
 2825ETHY    C1 2745  33.924  13.472   7.509
 2826AUSL   AUS 2746  31.551  11.945   7.350
 2827AUSL   AUS 2747  31.551  11.618   7.653
 2828AUL    AUL 2748  31.859  11.782   7.502
 2829THSLK    S 2749  31.810  11.988   7.348
 2830ETHY    C1 2750  32.255  11.918   7.278
 2831ETHY    C1 2751  32.786  11.925   7.190
 2832ETHY    C1 2752  33.299  12.035   7.101
 2833ETHY    C1 2753  33.784  12.241   7.017
 2834ETHY    C1 2754  34.231  12.538   6.940
 2835THSLK    S 2755  31.783  11.480   7.662
 2836ETHY    C1 2756  32.129  11.191   7.728
 2837ETHY    C1 2757  32.590  10.924   7.809
 2838ETHY    C1 2758  33.087  10.755   7.892
 2839ETHY    C1 2759  33.608  10.683   7.980
 2840ETHY    C1 2760  34.143  10.709   8.071
 2841AUSL   AUS 2761  31.551  11.945   7.653
 2842AUSL   AUS 2762  31.294  12.292   7.766
 2843AUL    AUL 2763  31.671  12.272   7.805
 2844THSLK    S 2764  31.477  12.411   7.926
 2845ETHY    C1 2765  31.849  12.566   8.139
 2846ETHY    C1 2766  32.249  12.831   8.385
 2847ETHY    C1 2767  32.583  13.175   8.615
 2848ETHY    C1 2768  32.845  13.588   8.827
 2849ETHY    C1 2769  33.032  14.060   9.019
 2850THSLK    S 2770  31.809  11.988   7.664
 2851ETHY    C1 2771  32.253  11.918   7.738
 2852ETHY    C1 2772  32.784  11.925   7.825
 2853ETHY    C1 2773  33.298  12.035   7.910
 2854ETHY    C1 2774  33.782  12.241   7.994
 2855ETHY    C1 2775  34.229  12.538   8.078
 2856AUSL   AUS 2776  30.297  12.191   7.502
 2857AUSL   AUS 2777  30.367  12.046   7.918
 2858AUL    AUL 2778  30.083  12.272   7.805
 2859THSLK    S 2779  30.231  12.169   8.109
 2860ETHY    C1 2780  30.022  12.265   8.503
 2861ETHY    C1 2781  29.721  12.431   8.917
 2862ETHY    C1 2782  29.370  12.646   9.254
 2863ETHY    C1 2783  28.976  12.900   9.509
 2864ETHY    C1 2784  28.547  13.187   9.678
 2865THSLK    S 2785  30.081  12.331   7.506
 2866ETHY    C1 2786  29.825  12.709   7.508
 2867ETHY    C1 2787  29.452  13.097   7.507
 2868ETHY    C1 2788  29.016  13.403   7.505
 2869ETHY    C1 2789  28.530  13.621   7.506
 2870ETHY    C1 2790  28.003  13.751   7.509
 2871AUSL   AUS 2791  30.203  11.945   7.350
 2872AUSL   AUS 2792  30.461  12.292   7.237
 2873AUL    AUL 2793  30.083  12.272   7.198
 2874THSLK    S 2794  29.972  12.060   7.303
 2875ETHY    C1 2795  29.625  12.248   7.075
 2876ETHY    C1 2796  29.165  12.440   6.872
 2877ETHY    C1 2797  28.667  12.590   6.758
 2878ETHY    C1 2798  28.146  12.700   6.733
 2879ETHY    C1 2799  27.612  12.770   6.796
 2880THSLK    S 2800  30.345  12.457   7.058
 2881ETHY    C1 2801  30.229  12.773   6.750
 2882ETHY    C1 2802  30.015  13.151   6.432
 2883ETHY    C1 2803  29.723  13.520   6.183
 2884ETHY    C1 2804  29.365  13.873   6.008
 2885ETHY    C1 2805  28.947  14.206   5.909
 2886AUSL   AUS 2806  30.203  11.945   7.653
 2887AUSL   AUS 2807  30.203  11.618   7.350
 2888AUL    AUL 2808  29.895  11.782   7.502
 2889THSLK    S 2809  29.945  11.544   7.390
 2890ETHY    C1 2810  29.501  11.509   7.486
 2891ETHY    C1 2811  28.970  11.428   7.518
 2892ETHY    C1 2812  28.456  11.303   7.458
 2893ETHY    C1 2813  27.972  11.135   7.311
 2894ETHY    C1 2814  27.525  10.928   7.083
 2895THSLK    S 2815  29.970  12.052   7.704
 2896ETHY    C1 2816  29.623  12.236   7.935
 2897ETHY    C1 2817  29.163  12.429   8.137
 2898ETHY    C1 2818  28.666  12.584   8.249
 2899ETHY    C1 2819  28.145  12.694   8.274
 2900ETHY    C1 2820  27.609  12.757   8.213
 2901AUSL   AUS 2821  31.457  11.372   7.502
 2902AUSL   AUS 2822  31.387  11.517   7.918
 2903AUL    AUL 2823  31.671  11.291   7.805
 2904THSLK    S 2824  31.673  11.232   7.506
 2905ETHY    C1 2825  31.929  10.854   7.508
 2906ETHY    C1 2826  32.302  10.466   7.507
 2907ETHY    C1 2827  32.738  10.160   7.505
 2908ETHY    C1 2828  33.224   9.942   7.506
 2909ETHY    C1 2829  33.751   9.812   7.509
 2910THSLK    S 2830  31.519  11.327   8.066
 2911ETHY    C1 2831  31.724  10.984   8.285
 2912ETHY    C1 2832  32.026  10.642   8.570
 2913ETHY    C1 2833  32.380  10.389   8.877
 2914ETHY    C1 2834  32.774  10.226   9.198
 2915ETHY    C1 2835  33.198  10.156   9.529
 2916AUSL   AUS 2836  31.551  11.618   7.350
 2917AUSL   AUS 2837  31.294  11.271   7.237
 2918AUL    AUL 2838  31.671  11.291   7.198
 2919THSLK    S 2839  31.784  11.480   7.350
 2920ETHY    C1 2840  32.132  11.191   7.289
 2921ETHY    C1 2841  32.591  10.924   7.206
 2922ETHY    C1 2842  33.088  10.755   7.118
 2923ETHY    C1 2843  33.610  10.683   7.031
 2924ETHY    C1 2844  34.145  10.709   6.947
 2925THSLK    S 2845  31.413  11.081   7.104
 2926ETHY    C1 2846  31.530  10.664   6.963
 2927ETHY    C1 2847  31.744  10.210   6.765
 2928ETHY    C1 2848  32.034   9.824   6.543
 2929ETHY    C1 2849  32.393   9.509   6.306
 2930ETHY    C1 2850  32.813   9.270   6.058
 2931AUSL   AUS 2851  30.297  11.372   7.502
 2932AUSL   AUS 2852  30.367  11.517   7.085
 2933AUL    AUL 2853  30.083  11.291   7.198
 2934THSLK    S 2854  30.194  11.346   6.973
 2935ETHY    C1 2855  29.829  11.089   6.877
 2936ETHY    C1 2856  29.413  10.812   6.679
 2937ETHY    C1 2857  29.033  10.575   6.392
 2938ETHY    C1 2858  28.699  10.379   6.025
 2939ETHY    C1 2859  28.417  10.227   5.587
 2940THSLK    S 2860  30.029  11.316   7.506
 2941ETHY    C1 2861  29.577  11.255   7.508
 2942ETHY    C1 2862  29.063  11.096   7.507
 2943ETHY    C1 2863  28.595  10.842   7.505
 2944ETHY    C1 2864  28.182  10.505   7.506
 2945ETHY    C1 2865  27.830  10.091   7.509
 2946AUSL   AUS 2866  30.203  11.618   7.653
 2947AUSL   AUS 2867  30.461  11.271   7.766
 2948AUL    AUL 2868  30.083  11.291   7.805
 2949THSLK    S 2869  30.273  11.127   7.880
 2950ETHY    C1 2870  29.899  10.870   7.926
 2951ETHY    C1 2871  29.501  10.530   8.052
 2952ETHY    C1 2872  29.168  10.168   8.255
 2953ETHY    C1 2873  28.906   9.794   8.529
 2954ETHY    C1 2874  28.715   9.416   8.870
 2955THSLK    S 2875  29.944  11.551   7.617
 2956ETHY    C1 2876  29.499  11.521   7.524
 2957ETHY    C1 2877  28.968  11.439   7.490
 2958ETHY    C1 2878  28.455  11.310   7.549
 2959ETHY    C1 2879  27.971  11.142   7.696
 2960ETHY    C1 2880  27.523  10.940   7.928
 2961AUSL   AUS 2881  30.877  12.362   7.911
 2962AUSL   AUS 2882  30.461  12.292   7.766
 2963AUL    AUL 2883  30.574  12.576   7.992
 2964THSLK    S 2884  30.341  12.451   7.950
 2965ETHY    C1 2885  30.224  12.763   8.261
 2966ETHY    C1 2886  30.010  13.143   8.578
 2967ETHY    C1 2887  29.720  13.514   8.824
 2968ETHY    C1 2888  29.362  13.868   9.000
 2969ETHY    C1 2889  28.941  14.196   9.102
 2970THSLK    S 2890  30.917  12.588   8.035
 2971ETHY    C1 2891  31.074  12.890   8.339
 2972ETHY    C1 2892  31.189  13.296   8.672
 2973ETHY    C1 2893  31.216  13.740   8.964
 2974ETHY    C1 2894  31.156  14.209   9.211
 2975ETHY    C1 2895  31.012  14.693   9.410
 2976AUSL   AUS 2896  30.725  12.455   7.665
 2977AUSL   AUS 2897  31.029  12.455   7.338
 2978AUL    AUL 2898  30.877  12.763   7.502
 2979THSLK    S 2899  30.766  12.703   7.774
 2980ETHY    C1 2900  30.875  13.113   7.942
 2981ETHY    C1 2901  30.919  13.620   8.118
 2982ETHY    C1 2902  30.862  14.128   8.265
 2983ETHY    C1 2903  30.709  14.625   8.383
 2984ETHY    C1 2904  30.466  15.102   8.472
 2985THSLK    S 2905  31.082  12.690   7.241
 2986ETHY    C1 2906  31.327  13.046   7.094
 2987ETHY    C1 2907  31.540  13.511   6.927
 2988ETHY    C1 2908  31.655  14.009   6.779
 2989ETHY    C1 2909  31.675  14.528   6.655
 2990ETHY    C1 2910  31.600  15.057   6.558
 2991AUSL   AUS 2911  31.029  12.455   7.665
 2992AUSL   AUS 2912  31.142  12.198   8.012
 2993AUL    AUL 2913  31.180  12.576   7.992
 2994THSLK    S 2914  31.314  12.311   8.184
 2995ETHY    C1 2915  31.599  12.414   8.524
 2996ETHY    C1 2916  31.901  12.618   8.921
 2997ETHY    C1 2917  32.146  12.908   9.294
 2998ETHY    C1 2918  32.330  13.271   9.638
 2999ETHY    C1 2919  32.449  13.701   9.948
 3000THSLK    S 2920  31.080  12.689   7.771
 3001ETHY    C1 2921  31.324  13.043   7.922
 3002ETHY    C1 2922  31.537  13.509   8.087
 3003ETHY    C1 2923  31.653  14.008   8.231
 3004ETHY    C1 2924  31.672  14.526   8.356
 3005ETHY    C1 2925  31.597  15.054   8.458
 3006AUSL   AUS 2926  30.877  11.202   7.911
 3007AUSL   AUS 2927  31.294  11.271   7.766
 3008AUL    AUL 2928  31.180  10.987   7.992
 3009THSLK    S 2929  30.833  10.947   7.990
 3010ETHY    C1 2930  30.673  10.543   8.128
 3011ETHY    C1 2931  30.559  10.062   8.341
 3012ETHY    C1 2932  30.534   9.601   8.605
 3013ETHY    C1 2933  30.593   9.171   8.915
 3014ETHY    C1 2934  30.734   8.779   9.263
 3015THSLK    S 2935  31.409  11.082   7.908
 3016ETHY    C1 2936  31.525  10.666   8.052
 3017ETHY    C1 2937  31.739  10.213   8.248
 3018ETHY    C1 2938  32.031   9.825   8.467
 3019ETHY    C1 2939  32.390   9.510   8.705
 3020ETHY    C1 2940  32.807   9.273   8.958
 3021AUSL   AUS 2941  30.725  11.108   7.665
 3022AUSL   AUS 2942  30.612  11.365   8.012
 3023AUL    AUL 2943  30.574  10.987   7.992
 3024THSLK    S 2944  30.672  10.868   7.745
 3025ETHY    C1 2945  30.427  10.487   7.801
 3026ETHY    C1 2946  30.214  10.002   7.897
 3027ETHY    C1 2947  30.099   9.499   8.025
 3028ETHY    C1 2948  30.080   8.990   8.186
 3029ETHY    C1 2949  30.154   8.487   8.374
 3030THSLK    S 2950  30.434  11.197   8.133
 3031ETHY    C1 2951  30.146  10.879   8.289
 3032ETHY    C1 2952  29.846  10.519   8.552
 3033ETHY    C1 2953  29.603  10.193   8.896
 3034ETHY    C1 2954  29.419   9.910   9.309
 3035ETHY    C1 2955  29.295   9.676   9.783
 3036AUSL   AUS 2956  31.029  11.108   7.665
 3037AUSL   AUS 2957  30.725  11.108   7.338
 3038AUL    AUL 2958  30.877  10.800   7.502
 3039THSLK    S 2959  30.674  10.865   7.266
 3040ETHY    C1 2960  30.430  10.483   7.215
 3041ETHY    C1 2961  30.217   9.999   7.117
 3042ETHY    C1 2962  30.101   9.497   6.984
 3043ETHY    C1 2963  30.082   8.988   6.825
 3044ETHY    C1 2964  30.158   8.483   6.642
 3045THSLK    S 2965  30.986  10.852   7.749
 3046ETHY    C1 2966  30.876  10.416   7.821
 3047ETHY    C1 2967  30.833   9.890   7.928
 3048ETHY    C1 2968  30.890   9.378   8.059
 3049ETHY    C1 2969  31.043   8.890   8.213
 3050ETHY    C1 2970  31.285   8.437   8.388
 3051AUSL   AUS 2971  30.877  12.362   7.093
 3052AUSL   AUS 2972  31.294  12.292   7.237
 3053AUL    AUL 2973  31.180  12.576   7.011
 3054THSLK    S 2974  30.921  12.592   6.975
 3055ETHY    C1 2975  31.081  12.896   6.674
 3056ETHY    C1 2976  31.195  13.301   6.339
 3057ETHY    C1 2977  31.220  13.744   6.045
 3058ETHY    C1 2978  31.161  14.213   5.798
 3059ETHY    C1 2979  31.020  14.700   5.604
 3060THSLK    S 2980  31.481  12.413   7.085
 3061ETHY    C1 2981  31.855  12.569   6.876
 3062ETHY    C1 2982  32.253  12.833   6.629
 3063ETHY    C1 2983  32.586  13.177   6.395
 3064ETHY    C1 2984  32.848  13.589   6.184
 3065ETHY    C1 2985  33.039  14.063   5.998
 3066AUSL   AUS 2986  30.725  12.455   7.338
 3067AUSL   AUS 2987  30.612  12.198   6.992
 3068AUL    AUL 2988  30.574  12.576   7.011
 3069THSLK    S 2989  30.768  12.706   7.237
 3070ETHY    C1 2990  30.878  13.117   7.074
 3071ETHY    C1 2991  30.921  13.623   6.896
 3072ETHY    C1 2992  30.864  14.131   6.745
 3073ETHY    C1 2993  30.711  14.628   6.627
 3074ETHY    C1 2994  30.469  15.107   6.545
 3075THSLK    S 2995  30.498  12.333   6.802
 3076ETHY    C1 2996  30.432  12.505   6.385
 3077ETHY    C1 2997  30.289  12.757   5.932
 3078ETHY    C1 2998  30.080  13.056   5.544
 3079ETHY    C1 2999  29.814  13.394   5.230
 3080ETHY    C1 3000  29.498  13.767   4.993
 3081AUSL   AUS 3001  30.877  11.202   7.093
 3082AUSL   AUS 3002  30.461  11.271   7.237
 3083AUL    AUL 3003  30.574  10.987   7.011
 3084THSLK    S 3004  30.277  11.121   7.128
 3085ETHY    C1 3005  29.905  10.860   7.085
 3086ETHY    C1 3006  29.506  10.522   6.958
 3087ETHY    C1 3007  29.171  10.163   6.753
 3088ETHY    C1 3008  28.909   9.789   6.478
 3089ETHY    C1 3009  28.722   9.406   6.142
 3090THSLK    S 3010  30.837  10.943   7.019
 3091ETHY    C1 3011  30.680  10.537   6.885
 3092ETHY    C1 3012  30.565  10.057   6.671
 3093ETHY    C1 3013  30.538   9.598   6.404
 3094ETHY    C1 3014  30.598   9.167   6.094
 3095ETHY    C1 3015  30.742   8.772   5.751
 3096AUSL   AUS 3016  31.029  11.108   7.338
 3097AUSL   AUS 3017  31.142  11.365   6.992
 3098AUL    AUL 3018  31.180  10.987   7.011
 3099THSLK    S 3019  30.988  10.851   7.262
 3100ETHY    C1 3020  30.879  10.413   7.195
 3101ETHY    C1 3021  30.836   9.887   7.086
 3102ETHY    C1 3022  30.892   9.376   6.951
 3103ETHY    C1 3023  31.045   8.888   6.798
 3104ETHY    C1 3024  31.289   8.434   6.629
 3105THSLK    S 3025  31.262  11.175   6.853
 3106ETHY    C1 3026  31.331  10.789   6.621
 3107ETHY    C1 3027  31.473  10.381   6.300
 3108ETHY    C1 3028  31.680  10.045   5.942
 3109ETHY    C1 3029  31.946   9.788   5.559
 3110ETHY    C1 3030  32.266   9.610   5.158
 3111AUC    AUC 3031  12.099  19.229   7.502
 3112AUC    AUC 3032  12.345  19.229   7.350
 3113AUC    AUC 3033  12.345  19.229   7.653
 3114AUC    AUC 3034  11.854  19.229   7.350
 3115AUC    AUC 3035  11.854  19.229   7.653
 3116AUC    AUC 3036  11.947  19.474   7.502
 3117AUC    AUC 3037  12.251  19.474   7.502
 3118AUC    AUC 3038  11.947  18.983   7.502
 3119AUC    AUC 3039  12.251  18.983   7.502
 3120AUC    AUC 3040  12.099  19.077   7.747
 3121AUC    AUC 3041  12.099  19.380   7.747
 3122AUC    AUC 3042  12.099  19.077   7.256
 3123AUC    AUC 3043  12.099  19.380   7.256
 3124AUC    AUC 3044  12.590  19.229   7.198
 3125AUC    AUC 3045  12.590  19.229   7.502
 3126AUC    AUC 3046  12.590  19.229   7.805
 3127AUC    AUC 3047  11.608  19.229   7.198
 3128AUC    AUC 3048  11.608  19.229   7.502
 3129AUC    AUC 3049  11.608  19.229   7.805
 3130AUC    AUC 3050  11.796  19.719   7.502
 3131AUC    AUC 3051  12.099  19.719   7.502
 3132AUC    AUC 3052  12.402  19.719   7.502
 3133AUC    AUC 3053  11.796  18.738   7.502
 3134AUC    AUC 3054  12.099  18.738   7.502
 3135AUC    AUC 3055  12.402  18.738   7.502
 3136AUC    AUC 3056  12.099  18.925   7.992
 3137AUC    AUC 3057  12.099  19.229   7.992
 3138AUC    AUC 3058  12.099  19.532   7.992
 3139AUC    AUC 3059  12.099  18.925   7.011
 3140AUC    AUC 3060  12.099  19.229   7.011
 3141AUC    AUC 3061  12.099  19.532   7.011
 3142AUC    AUC 3062  12.345  19.077   7.899
 3143AUC    AUC 3063  12.345  19.380   7.899
 3144AUC    AUC 3064  12.345  19.077   7.105
 3145AUC    AUC 3065  12.345  19.380   7.105
 3146AUC    AUC 3066  11.854  19.077   7.899
 3147AUC    AUC 3067  11.854  19.380   7.899
 3148AUC    AUC 3068  11.854  19.077   7.105
 3149AUC    AUC 3069  11.854  19.380   7.105
 3150AUC    AUC 3070  12.496  19.474   7.350
 3151AUC    AUC 3071  12.496  19.474   7.653
 3152AUC    AUC 3072  11.702  19.474   7.350
 3153AUC    AUC 3073  11.702  19.474   7.653
 3154AUC    AUC 3074  12.496  18.983   7.350
 3155AUC    AUC 3075  12.496  18.983   7.653
 3156AUC    AUC 3076  11.702  18.983   7.350
 3157AUC    AUC 3077  11.702  18.983   7.653
 3158AUC    AUC 3078  11.947  19.626   7.747
 3159AUC    AUC 3079  12.251  19.626   7.747
 3160AUC    AUC 3080  11.947  18.831   7.747
 3161AUC    AUC 3081  12.251  18.831   7.747
 3162AUC    AUC 3082  11.947  19.626   7.256
 3163AUC    AUC 3083  12.251  19.626   7.256
 3164AUC    AUC 3084  11.947  18.831   7.256
 3165AUC    AUC 3085  12.251  18.831   7.256
 3166AUSL   AUS 3086  12.508  19.229   8.082
 3167AUSL   AUS 3087  12.364  18.812   8.012
 3168AUL    AUL 3088  12.590  18.925   8.296
 3169THSLK    S 3089  12.478  18.624   8.156
 3170ETHY    C1 3090  12.544  18.239   8.391
 3171ETHY    C1 3091  12.687  17.831   8.710
 3172ETHY    C1 3092  12.896  17.495   9.066
 3173ETHY    C1 3093  13.162  17.237   9.450
 3174ETHY    C1 3094  13.478  17.061   9.855
 3175THSLK    S 3095  12.604  19.179   8.326
 3176ETHY    C1 3096  12.820  18.993   8.681
 3177ETHY    C1 3097  13.095  18.858   9.124
 3178ETHY    C1 3098  13.376  18.828   9.575
 3179ETHY    C1 3099  13.654  18.897  10.025
 3180ETHY    C1 3100  13.923  19.065  10.466
 3181AUSL   AUS 3101  12.263  19.077   8.175
 3182AUSL   AUS 3102  11.936  19.380   8.175
 3183AUL    AUL 3103  12.099  19.229   8.483
 3184THSLK    S 3104  12.341  19.024   8.417
 3185ETHY    C1 3105  12.418  18.774   8.790
 3186ETHY    C1 3106  12.534  18.557   9.269
 3187ETHY    C1 3107  12.671  18.441   9.769
 3188ETHY    C1 3108  12.821  18.423  10.281
 3189ETHY    C1 3109  12.980  18.504  10.794
 3190THSLK    S 3110  11.849  19.337   8.431
 3191ETHY    C1 3111  11.767  19.225   8.864
 3192ETHY    C1 3112  11.653  19.179   9.388
 3193ETHY    C1 3113  11.521  19.237   9.901
 3194ETHY    C1 3114  11.370  19.390  10.389
 3195ETHY    C1 3115  11.204  19.634  10.844
 3196AUSL   AUS 3116  12.263  19.380   8.175
 3197AUSL   AUS 3117  12.609  19.493   7.918
 3198AUL    AUL 3118  12.590  19.532   8.296
 3199THSLK    S 3119  12.350  19.434   8.414
 3200ETHY    C1 3120  12.431  19.685   8.786
 3201ETHY    C1 3121  12.545  19.901   9.265
 3202ETHY    C1 3122  12.678  20.017   9.767
 3203ETHY    C1 3123  12.828  20.035  10.279
 3204ETHY    C1 3124  12.994  19.955  10.789
 3205THSLK    S 3125  12.783  19.595   8.080
 3206ETHY    C1 3126  13.147  19.605   8.354
 3207ETHY    C1 3127  13.563  19.707   8.680
 3208ETHY    C1 3128  13.943  19.906   8.995
 3209ETHY    C1 3129  14.278  20.193   9.296
 3210ETHY    C1 3130  14.559  20.561   9.577
 3211AUSL   AUS 3131  12.508  19.229   6.922
 3212AUSL   AUS 3132  12.364  19.645   6.992
 3213AUL    AUL 3133  12.590  19.532   6.707
 3214THSLK    S 3134  12.611  19.179   6.681
 3215ETHY    C1 3135  12.832  18.993   6.329
 3216ETHY    C1 3136  13.105  18.858   5.885
 3217ETHY    C1 3137  13.383  18.828   5.432
 3218ETHY    C1 3138  13.661  18.897   4.982
 3219ETHY    C1 3139  13.935  19.065   4.545
 3220THSLK    S 3140  12.542  19.760   6.825
 3221ETHY    C1 3141  12.830  19.865   6.488
 3222ETHY    C1 3142  13.130  20.069   6.090
 3223ETHY    C1 3143  13.373  20.357   5.714
 3224ETHY    C1 3144  13.557  20.721   5.371
 3225ETHY    C1 3145  13.681  21.152   5.065
 3226AUSL   AUS 3146  12.263  19.077   6.828
 3227AUSL   AUS 3147  12.609  18.964   7.085
 3228AUL    AUL 3148  12.590  18.925   6.707
 3229THSLK    S 3149  12.746  18.772   6.944
 3230ETHY    C1 3150  12.954  18.429   6.729
 3231ETHY    C1 3151  13.255  18.087   6.442
 3232ETHY    C1 3152  13.606  17.834   6.133
 3233ETHY    C1 3153  14.000  17.672   5.812
 3234ETHY    C1 3154  14.429  17.601   5.486
 3235THSLK    S 3155  12.350  19.023   6.590
 3236ETHY    C1 3156  12.431  18.772   6.217
 3237ETHY    C1 3157  12.545  18.556   5.738
 3238ETHY    C1 3158  12.678  18.440   5.236
 3239ETHY    C1 3159  12.828  18.422   4.725
 3240ETHY    C1 3160  12.994  18.502   4.214
 3241AUSL   AUS 3161  12.263  19.380   6.828
 3242AUSL   AUS 3162  11.936  19.077   6.828
 3243AUL    AUL 3163  12.099  19.229   6.520
 3244THSLK    S 3164  11.841  19.023   6.592
 3245ETHY    C1 3165  11.704  18.775   6.235
 3246ETHY    C1 3166  11.544  18.561   5.767
 3247ETHY    C1 3167  11.397  18.446   5.269
 3248ETHY    C1 3168  11.270  18.427   4.751
 3249ETHY    C1 3169  11.165  18.503   4.224
 3250THSLK    S 3170  12.366  19.338   6.578
 3251ETHY    C1 3171  12.507  19.223   6.160
 3252ETHY    C1 3172  12.665  19.176   5.647
 3253ETHY    C1 3173  12.808  19.232   5.138
 3254ETHY    C1 3174  12.936  19.386   4.643
 3255ETHY    C1 3175  13.047  19.634   4.174
 3256AUSL   AUS 3176  11.690  19.229   8.082
 3257AUSL   AUS 3177  11.834  19.645   8.012
 3258AUL    AUL 3178  11.608  19.532   8.296
 3259THSLK    S 3179  11.587  19.179   8.322
 3260ETHY    C1 3180  11.366  18.993   8.674
 3261ETHY    C1 3181  11.093  18.858   9.118
 3262ETHY    C1 3182  10.816  18.828   9.571
 3263ETHY    C1 3183  10.538  18.897  10.021
 3264ETHY    C1 3184  10.263  19.065  10.458
 3265THSLK    S 3185  11.714  19.774   8.202
 3266ETHY    C1 3186  11.645  19.943   8.620
 3267ETHY    C1 3187  11.503  20.196   9.073
 3268ETHY    C1 3188  11.297  20.497   9.460
 3269ETHY    C1 3189  11.030  20.836   9.775
 3270ETHY    C1 3190  10.710  21.203  10.013
 3271AUSL   AUS 3191  11.936  19.077   8.175
 3272AUSL   AUS 3192  11.589  18.964   7.918
 3273AUL    AUL 3193  11.608  18.925   8.296
 3274THSLK    S 3194  11.411  18.800   8.029
 3275ETHY    C1 3195  11.043  18.547   8.125
 3276ETHY    C1 3196  10.628  18.268   8.323
 3277ETHY    C1 3197  10.250  18.028   8.611
 3278ETHY    C1 3198   9.916  17.832   8.978
 3279ETHY    C1 3199   9.630  17.686   9.415
 3280THSLK    S 3200  11.833  19.025   8.410
 3281ETHY    C1 3201  11.691  18.778   8.766
 3282ETHY    C1 3202  11.533  18.563   9.233
 3283ETHY    C1 3203  11.390  18.447   9.733
 3284ETHY    C1 3204  11.263  18.429  10.250
 3285ETHY    C1 3205  11.151  18.507  10.775
 3286AUSL   AUS 3206  11.690  19.229   6.922
 3287AUSL   AUS 3207  11.834  18.812   6.992
 3288AUL    AUL 3208  11.608  18.925   6.707
 3289THSLK    S 3209  11.595  19.179   6.677
 3290ETHY    C1 3210  11.378  18.993   6.322
 3291ETHY    C1 3211  11.103  18.858   5.879
 3292ETHY    C1 3212  10.822  18.828   5.429
 3293ETHY    C1 3213  10.544  18.897   4.978
 3294ETHY    C1 3214  10.276  19.065   4.537
 3295THSLK    S 3215  11.662  18.638   6.872
 3296ETHY    C1 3216  11.377  18.317   6.717
 3297ETHY    C1 3217  11.076  17.958   6.453
 3298ETHY    C1 3218  10.831  17.635   6.109
 3299ETHY    C1 3219  10.647  17.352   5.696
 3300ETHY    C1 3220  10.528  17.112   5.223
 3301AUSL   AUS 3221  11.936  19.380   6.828
 3302AUSL   AUS 3222  11.589  19.493   7.085
 3303AUL    AUL 3223  11.608  19.532   6.707
 3304THSLK    S 3224  11.458  19.623   6.893
 3305ETHY    C1 3225  11.252  19.723   6.499
 3306ETHY    C1 3226  10.950  19.887   6.085
 3307ETHY    C1 3227  10.596  20.099   5.748
 3308ETHY    C1 3228  10.203  20.353   5.494
 3309ETHY    C1 3229   9.778  20.646   5.324
 3310THSLK    S 3230  11.857  19.339   6.571
 3311ETHY    C1 3231  11.780  19.227   6.136
 3312ETHY    C1 3232  11.664  19.182   5.612
 3313ETHY    C1 3233  11.528  19.238   5.101
 3314ETHY    C1 3234  11.378  19.392   4.613
 3315ETHY    C1 3235  11.218  19.637   4.156
 3316AUSL   AUS 3236  12.679  19.638   7.502
 3317AUSL   AUS 3237  12.609  19.493   7.085
 3318AUL    AUL 3238  12.893  19.719   7.198
 3319THSLK    S 3239  12.788  19.596   6.930
 3320ETHY    C1 3240  13.155  19.607   6.659
 3321ETHY    C1 3241  13.570  19.709   6.332
 3322ETHY    C1 3242  13.948  19.907   6.014
 3323ETHY    C1 3243  14.282  20.194   5.713
 3324ETHY    C1 3244  14.568  20.564   5.438
 3325THSLK    S 3245  12.947  19.694   7.506
 3326ETHY    C1 3246  13.399  19.755   7.508
 3327ETHY    C1 3247  13.913  19.914   7.507
 3328ETHY    C1 3248  14.381  20.168   7.505
 3329ETHY    C1 3249  14.794  20.505   7.506
 3330ETHY    C1 3250  15.146  20.919   7.509
 3331AUSL   AUS 3251  12.773  19.392   7.350
 3332AUSL   AUS 3252  12.773  19.065   7.653
 3333AUL    AUL 3253  13.081  19.229   7.502
 3334THSLK    S 3254  13.032  19.435   7.348
 3335ETHY    C1 3255  13.477  19.365   7.278
 3336ETHY    C1 3256  14.008  19.372   7.190
 3337ETHY    C1 3257  14.521  19.482   7.101
 3338ETHY    C1 3258  15.006  19.688   7.017
 3339ETHY    C1 3259  15.453  19.985   6.940
 3340THSLK    S 3260  13.005  18.927   7.662
 3341ETHY    C1 3261  13.351  18.638   7.728
 3342ETHY    C1 3262  13.812  18.371   7.809
 3343ETHY    C1 3263  14.309  18.202   7.892
 3344ETHY    C1 3264  14.830  18.130   7.980
 3345ETHY    C1 3265  15.365  18.156   8.071
 3346AUSL   AUS 3266  12.773  19.392   7.653
 3347AUSL   AUS 3267  12.516  19.739   7.766
 3348AUL    AUL 3268  12.893  19.719   7.805
 3349THSLK    S 3269  12.699  19.858   7.926
 3350ETHY    C1 3270  13.071  20.013   8.139
 3351ETHY    C1 3271  13.471  20.278   8.385
 3352ETHY    C1 3272  13.805  20.622   8.615
 3353ETHY    C1 3273  14.067  21.035   8.827
 3354ETHY    C1 3274  14.254  21.507   9.019
 3355THSLK    S 3275  13.031  19.435   7.664
 3356ETHY    C1 3276  13.475  19.365   7.738
 3357ETHY    C1 3277  14.006  19.372   7.825
 3358ETHY    C1 3278  14.520  19.482   7.910
 3359ETHY    C1 3279  15.004  19.688   7.994
 3360ETHY    C1 3280  15.451  19.985   8.078
 3361AUSL   AUS 3281  11.519  19.638   7.502
 3362AUSL   AUS 3282  11.589  19.493   7.918
 3363AUL    AUL 3283  11.305  19.719   7.805
 3364THSLK    S 3284  11.453  19.616   8.109
 3365ETHY    C1 3285  11.244  19.712   8.503
 3366ETHY    C1 3286  10.943  19.878   8.917
 3367ETHY    C1 3287  10.592  20.093   9.254
 3368ETHY    C1 3288  10.198  20.347   9.509
 3369ETHY    C1 3289   9.769  20.634   9.678
 3370THSLK    S 3290  11.303  19.778   7.506
 3371ETHY    C1 3291  11.047  20.156   7.508
 3372ETHY    C1 3292  10.674  20.544   7.507
 3373ETHY    C1 3293  10.238  20.850   7.505
 3374ETHY    C1 3294   9.752  21.068   7.506
 3375ETHY    C1 3295   9.225  21.198   7.509
 3376AUSL   AUS 3296  11.425  19.392   7.350
 3377AUSL   AUS 3297  11.683  19.739   7.237
 3378AUL    AUL 3298  11.305  19.719   7.198
 3379THSLK    S 3299  11.194  19.507   7.303
 3380ETHY    C1 3300  10.847  19.695   7.075
 3381ETHY    C1 3301  10.387  19.887   6.872
 3382ETHY    C1 3302   9.889  20.037   6.758
 3383ETHY    C1 3303   9.368  20.147   6.733
 3384ETHY    C1 3304   8.834  20.217   6.796
 3385THSLK    S 3305  11.567  19.904   7.058
 3386ETHY    C1 3306  11.451  20.220   6.750
 3387ETHY    C1 3307  11.237  20.598   6.432
 3388ETHY    C1 3308  10.945  20.967   6.183
 3389ETHY    C1 3309  10.587  21.320   6.008
 3390ETHY    C1 3310  10.169  21.653   5.909
 3391AUSL   AUS 3311  11.425  19.392   7.653
 3392AUSL   AUS 3312  11.425  19.065   7.350
 3393AUL    AUL 3313  11.117  19.229   7.502
 3394THSLK    S 3314  11.167  18.991   7.390
 3395ETHY    C1 3315  10.723  18.956   7.486
 3396ETHY    C1 3316  10.192  18.875   7.518
 3397ETHY    C1 3317   9.678  18.750   7.458
 3398ETHY    C1 3318   9.194  18.582   7.311
 3399ETHY    C1 3319   8.747  18.375   7.083
 3400THSLK    S 3320  11.192  19.499   7.704
 3401ETHY    C1 3321  10.845  19.683   7.935
 3402ETHY    C1 3322  10.385  19.876   8.137
 3403ETHY    C1 3323   9.888  20.031   8.249
 3404ETHY    C1 3324   9.367  20.141   8.274
 3405ETHY    C1 3325   8.831  20.204   8.213
 3406AUSL   AUS 3326  12.679  18.819   7.502
 3407AUSL   AUS 3327  12.609  18.964   7.918
 3408AUL    AUL 3328  12.893  18.738   7.805
 3409THSLK    S 3329  12.895  18.679   7.506
 3410ETHY    C1 3330  13.151  18.301   7.508
 3411ETHY    C1 3331  13.524  17.913   7.507
 3412ETHY    C1 3332  13.960  17.607   7.505
 3413ETHY    C1 3333  14.446  17.389   7.506
 3414ETHY    C1 3334  14.973  17.259   7.509
 3415THSLK    S 3335  12.741  18.774   8.066
 3416ETHY    C1 3336  12.946  18.431   8.285
 3417ETHY    C1 3337  13.248  18.089   8.570
 3418ETHY    C1 3338  13.602  17.836   8.877
 3419ETHY    C1 3339  13.996  17.673   9.198
 3420ETHY    C1 3340  14.420  17.603   9.529
 3421AUSL   AUS 3341  12.773  19.065   7.350
 3422AUSL   AUS 3342  12.516  18.718   7.237
 3423AUL    AUL 3343  12.893  18.738   7.198
 3424THSLK    S 3344  13.006  18.927   7.350
 3425ETHY    C1 3345  13.354  18.638   7.289
 3426ETHY    C1 3346  13.813  18.371   7.206
 3427ETHY    C1 3347  14.310  18.202   7.118
 3428ETHY    C1 3348  14.832  18.130   7.031
 3429ETHY    C1 3349  15.367  18.156   6.947
 3430THSLK    S 3350  12.635  18.528   7.104
 3431ETHY    C1 3351  12.752  18.111   6.963
 3432ETHY    C1 3352  12.966  17.657   6.765
 3433ETHY    C1 3353  13.256  17.271   6.543
 3434ETHY    C1 3354  13.615  16.956   6.306
 3435ETHY    C1 3355  14.035  16.717   6.058
 3436AUSL   AUS 3356  11.519  18.819   7.502
 3437AUSL   AUS 3357  11.589  18.964   7.085
 3438AUL    AUL 3358  11.305  18.738   7.198
 3439THSLK    S 3359  11.416  18.793   6.973
 3440ETHY    C1 3360  11.051  18.536   6.877
 3441ETHY    C1 3361  10.635  18.259   6.679
 3442ETHY    C1 3362  10.255  18.022   6.392
 3443ETHY    C1 3363   9.921  17.826   6.025
 3444ETHY    C1 3364   9.639  17.674   5.587
 3445THSLK    S 3365  11.251  18.763   7.506
 3446ETHY    C1 3366  10.799  18.702   7.508
 3447ETHY    C1 3367  10.285  18.543   7.507
 3448ETHY    C1 3368   9.817  18.289   7.505
 3449ETHY    C1 3369   9.404  17.952   7.506
 3450ETHY    C1 3370   9.052  17.538   7.509
 3451AUSL   AUS 3371  11.425  19.065   7.653
 3452AUSL   AUS 3372  11.683  18.718   7.766
 3453AUL    AUL 3373  11.305  18.738   7.805
 3454THSLK    S 3374  11.495  18.574   7.880
 3455ETHY    C1 3375  11.121  18.317   7.926
 3456ETHY    C1 3376  10.723  17.977   8.052
 3457ETHY    C1 3377  10.390  17.615   8.255
 3458ETHY    C1 3378  10.128  17.241   8.529
 3459ETHY    C1 3379   9.937  16.863   8.870
 3460THSLK    S 3380  11.166  18.998   7.617
 3461ETHY    C1 3381  10.721  18.968   7.524
 3462ETHY    C1 3382  10.190  18.886   7.490
 3463ETHY    C1 3383   9.677  18.757   7.549
 3464ETHY    C1 3384   9.193  18.589   7.696
 3465ETHY    C1 3385   8.745  18.387   7.928
 3466AUSL   AUS 3386  12.099  19.809   7.911
 3467AUSL   AUS 3387  11.683  19.739   7.766
 3468AUL    AUL 3388  11.796  20.023   7.992
 3469THSLK    S 3389  11.563  19.898   7.950
 3470ETHY    C1 3390  11.446  20.210   8.261
 3471ETHY    C1 3391  11.232  20.590   8.578
 3472ETHY    C1 3392  10.942  20.961   8.824
 3473ETHY    C1 3393  10.584  21.315   9.000
 3474ETHY    C1 3394  10.163  21.643   9.102
 3475THSLK    S 3395  12.139  20.035   8.035
 3476ETHY    C1 3396  12.296  20.337   8.339
 3477ETHY    C1 3397  12.411  20.743   8.672
 3478ETHY    C1 3398  12.438  21.187   8.964
 3479ETHY    C1 3399  12.378  21.656   9.211
 3480ETHY    C1 3400  12.234  22.140   9.410
 3481AUSL   AUS 3401  11.947  19.902   7.665
 3482AUSL   AUS 3402  12.251  19.902   7.338
 3483AUL    AUL 3403  12.099  20.210   7.502
 3484THSLK    S 3404  11.988  20.150   7.774
 3485ETHY    C1 3405  12.097  20.560   7.942
 3486ETHY    C1 3406  12.141  21.067   8.118
 3487ETHY    C1 3407  12.084  21.575   8.265
 3488ETHY    C1 3408  11.931  22.072   8.383
 3489ETHY    C1 3409  11.688  22.549   8.472
 3490THSLK    S 3410  12.304  20.137   7.241
 3491ETHY    C1 3411  12.549  20.493   7.094
 3492ETHY    C1 3412  12.762  20.958   6.927
 3493ETHY    C1 3413  12.877  21.456   6.779
 3494ETHY    C1 3414  12.897  21.975   6.655
 3495ETHY    C1 3415  12.822  22.504   6.558
 3496AUSL   AUS 3416  12.251  19.902   7.665
 3497AUSL   AUS 3417  12.364  19.645   8.012
 3498AUL    AUL 3418  12.402  20.023   7.992
 3499THSLK    S 3419  12.536  19.758   8.184
 3500ETHY    C1 3420  12.821  19.861   8.524
 3501ETHY    C1 3421  13.123  20.065   8.921
 3502ETHY    C1 3422  13.368  20.355   9.294
 3503ETHY    C1 3423  13.552  20.718   9.638
 3504ETHY    C1 3424  13.671  21.148   9.948
 3505THSLK    S 3425  12.302  20.136   7.771
 3506ETHY    C1 3426  12.546  20.490   7.922
 3507ETHY    C1 3427  12.759  20.956   8.087
 3508ETHY    C1 3428  12.875  21.455   8.231
 3509ETHY    C1 3429  12.894  21.973   8.356
 3510ETHY    C1 3430  12.819  22.501   8.458
 3511AUSL   AUS 3431  12.099  18.649   7.911
 3512AUSL   AUS 3432  12.516  18.718   7.766
 3513AUL    AUL 3433  12.402  18.434   7.992
 3514THSLK    S 3434  12.055  18.394   7.990
 3515ETHY    C1 3435  11.895  17.990   8.128
 3516ETHY    C1 3436  11.781  17.509   8.341
 3517ETHY    C1 3437  11.756  17.048   8.605
 3518ETHY    C1 3438  11.815  16.618   8.915
 3519ETHY    C1 3439  11.956  16.226   9.263
 3520THSLK    S 3440  12.631  18.529   7.908
 3521ETHY    C1 3441  12.747  18.113   8.052
 3522ETHY    C1 3442  12.961  17.660   8.248
 3523ETHY    C1 3443  13.253  17.272   8.467
 3524ETHY    C1 3444  13.612  16.957   8.705
 3525ETHY    C1 3445  14.029  16.720   8.958
 3526AUSL   AUS 3446  11.947  18.555   7.665
 3527AUSL   AUS 3447  11.834  18.812   8.012
 3528AUL    AUL 3448  11.796  18.434   7.992
 3529THSLK    S 3449  11.894  18.315   7.745
 3530ETHY    C1 3450  11.649  17.934   7.801
 3531ETHY    C1 3451  11.436  17.449   7.897
 3532ETHY    C1 3452  11.321  16.946   8.025
 3533ETHY    C1 3453  11.302  16.437   8.186
 3534ETHY    C1 3454  11.376  15.934   8.374
 3535THSLK    S 3455  11.656  18.644   8.133
 3536ETHY    C1 3456  11.368  18.326   8.289
 3537ETHY    C1 3457  11.068  17.966   8.552
 3538ETHY    C1 3458  10.825  17.640   8.896
 3539ETHY    C1 3459  10.641  17.357   9.309
 3540ETHY    C1 3460  10.517  17.123   9.783
 3541AUSL   AUS 3461  12.251  18.555   7.665
 3542AUSL   AUS 3462  11.947  18.555   7.338
 3543AUL    AUL 3463  12.099  18.247   7.502
 3544THSLK    S 3464  11.896  18.312   7.266
 3545ETHY    C1 3465  11.652  17.930   7.215
 3546ETHY    C1 3466  11.439  17.446   7.117
 3547ETHY    C1 3467  11.323  16.944   6.984
 3548ETHY    C1 3468  11.304  16.435   6.825
 3549ETHY    C1 3469  11.380  15.930   6.642
 3550THSLK    S 3470  12.208  18.299   7.749
 3551ETHY    C1 3471  12.098  17.863   7.821
 3552ETHY    C1 3472  12.055  17.337   7.928
 3553ETHY    C1 3473  12.112  16.825   8.059
 3554ETHY    C1 3474  12.265  16.337   8.213
 3555ETHY    C1 3475  12.507  15.884   8.388
 3556AUSL   AUS 3476  12.099  19.809   7.093
 3557AUSL   AUS 3477  12.516  19.739   7.237
 3558AUL    AUL 3478  12.402  20.023   7.011
 3559THSLK    S 3479  12.143  20.039   6.975
 3560ETHY    C1 3480  12.303  20.343   6.674
 3561ETHY    C1 3481  12.417  20.748   6.339
 3562ETHY    C1 3482  12.442  21.191   6.045
 3563ETHY    C1 3483  12.383  21.660   5.798
 3564ETHY    C1 3484  12.242  22.147   5.604
 3565THSLK    S 3485  12.703  19.860   7.085
 3566ETHY    C1 3486  13.077  20.016   6.876
 3567ETHY    C1 3487  13.475  20.280   6.629
 3568ETHY    C1 3488  13.808  20.624   6.395
 3569ETHY    C1 3489  14.070  21.036   6.184
 3570ETHY    C1 3490  14.261  21.510   5.998
 3571AUSL   AUS 3491  11.947  19.902   7.338
 3572AUSL   AUS 3492  11.834  19.645   6.992
 3573AUL    AUL 3493  11.796  20.023   7.011
 3574THSLK    S 3494  11.990  20.153   7.237
 3575ETHY    C1 3495  12.100  20.564   7.074
 3576ETHY    C1 3496  12.143  21.070   6.896
 3577ETHY    C1 3497  12.086  21.578   6.745
 3578ETHY    C1 3498  11.933  22.075   6.627
 3579ETHY    C1 3499  11.691  22.554   6.545
 3580THSLK    S 3500  11.720  19.780   6.802
 3581ETHY    C1 3501  11.654  19.952   6.385
 3582ETHY    C1 3502  11.511  20.204   5.932
 3583ETHY    C1 3503  11.302  20.503   5.544
 3584ETHY    C1 3504  11.036  20.841   5.230
 3585ETHY    C1 3505  10.720  21.214   4.993
 3586AUSL   AUS 3506  12.099  18.649   7.093
 3587AUSL   AUS 3507  11.683  18.718   7.237
 3588AUL    AUL 3508  11.796  18.434   7.011
 3589THSLK    S 3509  11.499  18.568   7.128
 3590ETHY    C1 3510  11.127  18.307   7.085
 3591ETHY    C1 3511  10.728  17.969   6.958
 3592ETHY    C1 3512  10.393  17.610   6.753
 3593ETHY    C1 3513  10.131  17.236   6.478
 3594ETHY    C1 3514   9.944  16.853   6.142
 3595THSLK    S 3515  12.059  18.390   7.019
 3596ETHY    C1 3516  11.902  17.984   6.885
 3597ETHY    C1 3517  11.787  17.504   6.671
 3598ETHY    C1 3518  11.760  17.045   6.404
 3599ETHY    C1 3519  11.820  16.614   6.094
 3600ETHY    C1 3520  11.964  16.219   5.751
 3601AUSL   AUS 3521  12.251  18.555   7.338
 3602AUSL   AUS 3522  12.364  18.812   6.992
 3603AUL    AUL 3523  12.402  18.434   7.011
 3604THSLK    S 3524  12.210  18.298   7.262
 3605ETHY    C1 3525  12.101  17.860   7.195
 3606ETHY    C1 3526  12.058  17.334   7.086
 3607ETHY    C1 3527  12.114  16.823   6.951
 3608ETHY    C1 3528  12.267  16.335   6.798
 3609ETHY    C1 3529  12.511  15.881   6.629
 3610THSLK    S 3530  12.484  18.622   6.853
 3611ETHY    C1 3531  12.553  18.236   6.621
 3612ETHY    C1 3532  12.695  17.828   6.300
 3613ETHY    C1 3533  12.902  17.492   5.942
 3614ETHY    C1 3534  13.168  17.235   5.559
 3615ETHY    C1 3535  13.488  17.057   5.158
 3616AUC    AUC 3536  21.999   8.215   7.502
 3617AUC    AUC 3537  22.245   8.215   7.350
 3618AUC    AUC 3538  22.245   8.215   7.653
 3619AUC    AUC 3539  21.754   8.215   7.350
 3620AUC    AUC 3540  21.754   8.215   7.653
 3621AUC    AUC 3541  21.847   8.460   7.502
 3622AUC    AUC 3542  22.151   8.460   7.502
 3623AUC    AUC 3543  21.847   7.969   7.502
 3624AUC    AUC 3544  22.151   7.969   7.502
 3625AUC    AUC 3545  21.999   8.063   7.747
 3626AUC    AUC 3546  21.999   8.366   7.747
 3627AUC    AUC 3547  21.999   8.063   7.256
 3628AUC    AUC 3548  21.999   8.366   7.256
 3629AUC    AUC 3549  22.490   8.215   7.198
 3630AUC    AUC 3550  22.490   8.215   7.502
 3631AUC    AUC 3551  22.490   8.215   7.805
 3632AUC    AUC 3552  21.508   8.215   7.198
 3633AUC    AUC 3553  21.508   8.215   7.502
 3634AUC    AUC 3554  21.508   8.215   7.805
 3635AUC    AUC 3555  21.696   8.705   7.502
 3636AUC    AUC 3556  21.999   8.705   7.502
 3637AUC    AUC 3557  22.302   8.705   7.502
 3638AUC    AUC 3558  21.696   7.724   7.502
 3639AUC    AUC 3559  21.999   7.724   7.502
 3640AUC    AUC 3560  22.302   7.724   7.502
 3641AUC    AUC 3561  21.999   7.911   7.992
 3642AUC    AUC 3562  21.999   8.215   7.992
 3643AUC    AUC 3563  21.999   8.518   7.992
 3644AUC    AUC 3564  21.999   7.911   7.011
 3645AUC    AUC 3565  21.999   8.215   7.011
 3646AUC    AUC 3566  21.999   8.518   7.011
 3647AUC    AUC 3567  22.245   8.063   7.899
 3648AUC    AUC 3568  22.245   8.366   7.899
 3649AUC    AUC 3569  22.245   8.063   7.105
 3650AUC    AUC 3570  22.245   8.366   7.105
 3651AUC    AUC 3571  21.754   8.063   7.899
 3652AUC    AUC 3572  21.754   8.366   7.899
 3653AUC    AUC 3573  21.754   8.063   7.105
 3654AUC    AUC 3574  21.754   8.366   7.105
 3655AUC    AUC 3575  22.396   8.460   7.350
 3656AUC    AUC 3576  22.396   8.460   7.653
 3657AUC    AUC 3577  21.602   8.460   7.350
 3658AUC    AUC 3578  21.602   8.460   7.653
 3659AUC    AUC 3579  22.396   7.969   7.350
 3660AUC    AUC 3580  22.396   7.969   7.653
 3661AUC    AUC 3581  21.602   7.969   7.350
 3662AUC    AUC 3582  21.602   7.969   7.653
 3663AUC    AUC 3583  21.847   8.612   7.747
 3664AUC    AUC 3584  22.151   8.612   7.747
 3665AUC    AUC 3585  21.847   7.817   7.747
 3666AUC    AUC 3586  22.151   7.817   7.747
 3667AUC    AUC 3587  21.847   8.612   7.256
 3668AUC    AUC 3588  22.151   8.612   7.256
 3669AUC    AUC 3589  21.847   7.817   7.256
 3670AUC    AUC 3590  22.151   7.817   7.256
 3671AUSL   AUS 3591  22.408   8.215   8.082
 3672AUSL   AUS 3592  22.264   7.798   8.012
 3673AUL    AUL 3593  22.490   7.911   8.296
 3674THSLK    S 3594  22.378   7.610   8.156
 3675ETHY    C1 3595  22.444   7.225   8.391
 3676ETHY    C1 3596  22.587   6.817   8.710
 3677ETHY    C1 3597  22.796   6.481   9.066
 3678ETHY    C1 3598  23.062   6.223   9.450
 3679ETHY    C1 3599  23.378   6.047   9.855
 3680THSLK    S 3600  22.504   8.165   8.326
 3681ETHY    C1 3601  22.720   7.979   8.681
 3682ETHY    C1 3602  22.995   7.844   9.124
 3683ETHY    C1 3603  23.276   7.814   9.575
 3684ETHY    C1 3604  23.554   7.883  10.025
 3685ETHY    C1 3605  23.823   8.051  10.466
 3686AUSL   AUS 3606  22.163   8.063   8.175
 3687AUSL   AUS 3607  21.836   8.366   8.175
 3688AUL    AUL 3608  21.999   8.215   8.483
 3689THSLK    S 3609  22.241   8.010   8.417
 3690ETHY    C1 3610  22.318   7.760   8.790
 3691ETHY    C1 3611  22.434   7.543   9.269
 3692ETHY    C1 3612  22.571   7.427   9.769
 3693ETHY    C1 3613  22.721   7.409  10.281
 3694ETHY    C1 3614  22.880   7.490  10.794
 3695THSLK    S 3615  21.749   8.323   8.431
 3696ETHY    C1 3616  21.667   8.211   8.864
 3697ETHY    C1 3617  21.553   8.165   9.388
 3698ETHY    C1 3618  21.421   8.223   9.901
 3699ETHY    C1 3619  21.270   8.376  10.389
 3700ETHY    C1 3620  21.104   8.620  10.844
 3701AUSL   AUS 3621  22.163   8.366   8.175
 3702AUSL   AUS 3622  22.509   8.479   7.918
 3703AUL    AUL 3623  22.490   8.518   8.296
 3704THSLK    S 3624  22.250   8.420   8.414
 3705ETHY    C1 3625  22.331   8.671   8.786
 3706ETHY    C1 3626  22.445   8.887   9.265
 3707ETHY    C1 3627  22.578   9.003   9.767
 3708ETHY    C1 3628  22.728   9.021  10.279
 3709ETHY    C1 3629  22.894   8.941  10.789
 3710THSLK    S 3630  22.683   8.581   8.080
 3711ETHY    C1 3631  23.047   8.591   8.354
 3712ETHY    C1 3632  23.463   8.693   8.680
 3713ETHY    C1 3633  23.843   8.892   8.995
 3714ETHY    C1 3634  24.178   9.179   9.296
 3715ETHY    C1 3635  24.459   9.547   9.577
 3716AUSL   AUS 3636  22.408   8.215   6.922
 3717AUSL   AUS 3637  22.264   8.631   6.992
 3718AUL    AUL 3638  22.490   8.518   6.707
 3719THSLK    S 3639  22.511   8.165   6.681
 3720ETHY    C1 3640  22.732   7.979   6.329
 3721ETHY    C1 3641  23.005   7.844   5.885
 3722ETHY    C1 3642  23.283   7.814   5.432
 3723ETHY    C1 3643  23.561   7.883   4.982
 3724ETHY    C1 3644  23.835   8.051   4.545
 3725THSLK    S 3645  22.442   8.746   6.825
 3726ETHY    C1 3646  22.730   8.851   6.488
 3727ETHY    C1 3647  23.030   9.055   6.090
 3728ETHY    C1 3648  23.273   9.343   5.714
 3729ETHY    C1 3649  23.457   9.707   5.371
 3730ETHY    C1 3650  23.581  10.138   5.065
 3731AUSL   AUS 3651  22.163   8.063   6.828
 3732AUSL   AUS 3652  22.509   7.950   7.085
 3733AUL    AUL 3653  22.490   7.911   6.707
 3734THSLK    S 3654  22.646   7.758   6.944
 3735ETHY    C1 3655  22.854   7.415   6.729
 3736ETHY    C1 3656  23.155   7.073   6.442
 3737ETHY    C1 3657  23.506   6.820   6.133
 3738ETHY    C1 3658  23.900   6.658   5.812
 3739ETHY    C1 3659  24.329   6.587   5.486
 3740THSLK    S 3660  22.250   8.009   6.590
 3741ETHY    C1 3661  22.331   7.758   6.217
 3742ETHY    C1 3662  22.445   7.542   5.738
 3743ETHY    C1 3663  22.578   7.426   5.236
 3744ETHY    C1 3664  22.728   7.408   4.725
 3745ETHY    C1 3665  22.894   7.488   4.214
 3746AUSL   AUS 3666  22.163   8.366   6.828
 3747AUSL   AUS 3667  21.836   8.063   6.828
 3748AUL    AUL 3668  21.999   8.215   6.520
 3749THSLK    S 3669  21.741   8.009   6.592
 3750ETHY    C1 3670  21.604   7.761   6.235
 3751ETHY    C1 3671  21.444   7.547   5.767
 3752ETHY    C1 3672  21.297   7.432   5.269
 3753ETHY    C1 3673  21.170   7.413   4.751
 3754ETHY    C1 3674  21.065   7.489   4.224
 3755THSLK    S 3675  22.266   8.324   6.578
 3756ETHY    C1 3676  22.407   8.209   6.160
 3757ETHY    C1 3677  22.565   8.162   5.647
 3758ETHY    C1 3678  22.708   8.218   5.138
 3759ETHY    C1 3679  22.836   8.372   4.643
 3760ETHY    C1 3680  22.947   8.620   4.174
 3761AUSL   AUS 3681  21.590   8.215   8.082
 3762AUSL   AUS 3682  21.734   8.631   8.012
 3763AUL    AUL 3683  21.508   8.518   8.296
 3764THSLK    S 3684  21.487   8.165   8.322
 3765ETHY    C1 3685  21.266   7.979   8.674
 3766ETHY    C1 3686  20.993   7.844   9.118
 3767ETHY    C1 3687  20.716   7.814   9.571
 3768ETHY    C1 3688  20.438   7.883  10.021
 3769ETHY    C1 3689  20.163   8.051  10.458
 3770THSLK    S 3690  21.614   8.760   8.202
 3771ETHY    C1 3691  21.545   8.929   8.620
 3772ETHY    C1 3692  21.403   9.182   9.073
 3773ETHY    C1 3693  21.197   9.483   9.460
 3774ETHY    C1 3694  20.930   9.822   9.775
 3775ETHY    C1 3695  20.610  10.189  10.013
 3776AUSL   AUS 3696  21.836   8.063   8.175
 3777AUSL   AUS 3697  21.489   7.950   7.918
 3778AUL    AUL 3698  21.508   7.911   8.296
 3779THSLK    S 3699  21.311   7.786   8.029
 3780ETHY    C1 3700  20.943   7.533   8.125
 3781ETHY    C1 3701  20.528   7.254   8.323
 3782ETHY    C1 3702  20.150   7.014   8.611
 3783ETHY    C1 3703  19.816   6.818   8.978
 3784ETHY    C1 3704  19.530   6.672   9.415
 3785THSLK    S 3705  21.733   8.011   8.410
 3786ETHY    C1 3706  21.591   7.764   8.766
 3787ETHY    C1 3707  21.433   7.549   9.233
 3788ETHY    C1 3708  21.290   7.433   9.733
 3789ETHY    C1 3709  21.163   7.415  10.250
 3790ETHY    C1 3710  21.051   7.493  10.775
 3791AUSL   AUS 3711  21.590   8.215   6.922
 3792AUSL   AUS 3712  21.734   7.798   6.992
 3793AUL    AUL 3713  21.508   7.911   6.707
 3794THSLK    S 3714  21.495   8.165   6.677
 3795ETHY    C1 3715  21.278   7.979   6.322
 3796ETHY    C1 3716  21.003   7.844   5.879
 3797ETHY    C1 3717  20.722   7.814   5.429
 3798ETHY    C1 3718  20.444   7.883   4.978
 3799ETHY    C1 3719  20.176   8.051   4.537
 3800THSLK    S 3720  21.562   7.624   6.872
 3801ETHY    C1 3721  21.277   7.303   6.717
 3802ETHY    C1 3722  20.976   6.944   6.453
 3803ETHY    C1 3723  20.731   6.621   6.109
 3804ETHY    C1 3724  20.547   6.338   5.696
 3805ETHY    C1 3725  20.428   6.098   5.223
 3806AUSL   AUS 3726  21.836   8.366   6.828
 3807AUSL   AUS 3727  21.489   8.479   7.085
 3808AUL    AUL 3728  21.508   8.518   6.707
 3809THSLK    S 3729  21.358   8.609   6.893
 3810ETHY    C1 3730  21.152   8.709   6.499
 3811ETHY    C1 3731  20.850   8.873   6.085
 3812ETHY    C1 3732  20.496   9.085   5.748
 3813ETHY    C1 3733  20.103   9.339   5.494
 3814ETHY    C1 3734  19.678   9.632   5.324
 3815THSLK    S 3735  21.757   8.325   6.571
 3816ETHY    C1 3736  21.680   8.213   6.136
 3817ETHY    C1 3737  21.564   8.168   5.612
 3818ETHY    C1 3738  21.428   8.224   5.101
 3819ETHY    C1 3739  21.278   8.378   4.613
 3820ETHY    C1 3740  21.118   8.623   4.156
 3821AUSL   AUS 3741  22.579   8.624   7.502
 3822AUSL   AUS 3742  22.509   8.479   7.085
 3823AUL    AUL 3743  22.793   8.705   7.198
 3824THSLK    S 3744  22.688   8.582   6.930
 3825ETHY    C1 3745  23.055   8.593   6.659
 3826ETHY    C1 3746  23.470   8.695   6.332
 3827ETHY    C1 3747  23.848   8.893   6.014
 3828ETHY    C1 3748  24.182   9.180   5.713
 3829ETHY    C1 3749  24.468   9.550   5.438
 3830THSLK    S 3750  22.847   8.680   7.506
 3831ETHY    C1 3751  23.299   8.741   7.508
 3832ETHY    C1 3752  23.813   8.900   7.507
 3833ETHY    C1 3753  24.281   9.154   7.505
 3834ETHY    C1 3754  24.694   9.491   7.506
 3835ETHY    C1 3755  25.046   9.905   7.509
 3836AUSL   AUS 3756  22.673   8.378   7.350
 3837AUSL   AUS 3757  22.673   8.051   7.653
 3838AUL    AUL 3758  22.981   8.215   7.502
 3839THSLK    S 3759  22.932   8.421   7.348
 3840ETHY    C1 3760  23.377   8.351   7.278
 3841ETHY    C1 3761  23.908   8.358   7.190
 3842ETHY    C1 3762  24.421   8.468   7.101
 3843ETHY    C1 3763  24.906   8.674   7.017
 3844ETHY    C1 3764  25.353   8.971   6.940
 3845THSLK    S 3765  22.905   7.913   7.662
 3846ETHY    C1 3766  23.251   7.624   7.728
 3847ETHY    C1 3767  23.712   7.357   7.809
 3848ETHY    C1 3768  24.209   7.188   7.892
 3849ETHY    C1 3769  24.730   7.116   7.980
 3850ETHY    C1 3770  25.265   7.142   8.071
 3851AUSL   AUS 3771  22.673   8.378   7.653
 3852AUSL   AUS 3772  22.416   8.725   7.766
 3853AUL    AUL 3773  22.793   8.705   7.805
 3854THSLK    S 3774  22.599   8.844   7.926
 3855ETHY    C1 3775  22.971   8.999   8.139
 3856ETHY    C1 3776  23.371   9.264   8.385
 3857ETHY    C1 3777  23.705   9.608   8.615
 3858ETHY    C1 3778  23.967  10.021   8.827
 3859ETHY    C1 3779  24.154  10.493   9.019
 3860THSLK    S 3780  22.931   8.421   7.664
 3861ETHY    C1 3781  23.375   8.351   7.738
 3862ETHY    C1 3782  23.906   8.358   7.825
 3863ETHY    C1 3783  24.420   8.468   7.910
 3864ETHY    C1 3784  24.904   8.674   7.994
 3865ETHY    C1 3785  25.351   8.971   8.078
 3866AUSL   AUS 3786  21.419   8.624   7.502
 3867AUSL   AUS 3787  21.489   8.479   7.918
 3868AUL    AUL 3788  21.205   8.705   7.805
 3869THSLK    S 3789  21.353   8.602   8.109
 3870ETHY    C1 3790  21.144   8.698   8.503
 3871ETHY    C1 3791  20.843   8.864   8.917
 3872ETHY    C1 3792  20.492   9.079   9.254
 3873ETHY    C1 3793  20.098   9.333   9.509
 3874ETHY    C1 3794  19.669   9.620   9.678
 3875THSLK    S 3795  21.203   8.764   7.506
 3876ETHY    C1 3796  20.947   9.142   7.508
 3877ETHY    C1 3797  20.574   9.530   7.507
 3878ETHY    C1 3798  20.138   9.836   7.505
 3879ETHY    C1 3799  19.652  10.054   7.506
 3880ETHY    C1 3800  19.125  10.184   7.509
 3881AUSL   AUS 3801  21.325   8.378   7.350
 3882AUSL   AUS 3802  21.583   8.725   7.237
 3883AUL    AUL 3803  21.205   8.705   7.198
 3884THSLK    S 3804  21.094   8.493   7.303
 3885ETHY    C1 3805  20.747   8.681   7.075
 3886ETHY    C1 3806  20.287   8.873   6.872
 3887ETHY    C1 3807  19.789   9.023   6.758
 3888ETHY    C1 3808  19.268   9.133   6.733
 3889ETHY    C1 3809  18.734   9.203   6.796
 3890THSLK    S 3810  21.467   8.890   7.058
 3891ETHY    C1 3811  21.351   9.206   6.750
 3892ETHY    C1 3812  21.137   9.584   6.432
 3893ETHY    C1 3813  20.845   9.953   6.183
 3894ETHY    C1 3814  20.487  10.306   6.008
 3895ETHY    C1 3815  20.069  10.639   5.909
 3896AUSL   AUS 3816  21.325   8.378   7.653
 3897AUSL   AUS 3817  21.325   8.051   7.350
 3898AUL    AUL 3818  21.017   8.215   7.502
 3899THSLK    S 3819  21.067   7.977   7.390
 3900ETHY    C1 3820  20.623   7.942   7.486
 3901ETHY    C1 3821  20.092   7.861   7.518
 3902ETHY    C1 3822  19.578   7.736   7.458
 3903ETHY    C1 3823  19.094   7.568   7.311
 3904ETHY    C1 3824  18.647   7.361   7.083
 3905THSLK    S 3825  21.092   8.485   7.704
 3906ETHY    C1 3826  20.745   8.669   7.935
 3907ETHY    C1 3827  20.285   8.862   8.137
 3908ETHY    C1 3828  19.788   9.017   8.249
 3909ETHY    C1 3829  19.267   9.127   8.274
 3910ETHY    C1 3830  18.731   9.190   8.213
 3911AUSL   AUS 3831  22.579   7.805   7.502
 3912AUSL   AUS 3832  22.509   7.950   7.918
 3913AUL    AUL 3833  22.793   7.724   7.805
 3914THSLK    S 3834  22.795   7.665   7.506
 3915ETHY    C1 3835  23.051   7.287   7.508
 3916ETHY    C1 3836  23.424   6.899   7.507
 3917ETHY    C1 3837  23.860   6.593   7.505
 3918ETHY    C1 3838  24.346   6.375   7.506
 3919ETHY    C1 3839  24.873   6.245   7.509
 3920THSLK    S 3840  22.641   7.760   8.066
 3921ETHY    C1 3841  22.846   7.417   8.285
 3922ETHY    C1 3842  23.148   7.075   8.570
 3923ETHY    C1 3843  23.502   6.822   8.877
 3924ETHY    C1 3844  23.896   6.659   9.198
 3925ETHY    C1 3845  24.320   6.589   9.529
 3926AUSL   AUS 3846  22.673   8.051   7.350
 3927AUSL   AUS 3847  22.416   7.704   7.237
 3928AUL    AUL 3848  22.793   7.724   7.198
 3929THSLK    S 3849  22.906   7.913   7.350
 3930ETHY    C1 3850  23.254   7.624   7.289
 3931ETHY    C1 3851  23.713   7.357   7.206
 3932ETHY    C1 3852  24.210   7.188   7.118
 3933ETHY    C1 3853  24.732   7.116   7.031
 3934ETHY    C1 3854  25.267   7.142   6.947
 3935THSLK    S 3855  22.535   7.514   7.104
 3936ETHY    C1 3856  22.652   7.097   6.963
 3937ETHY    C1 3857  22.866   6.643   6.765
 3938ETHY    C1 3858  23.156   6.257   6.543
 3939ETHY    C1 3859  23.515   5.942   6.306
 3940ETHY    C1 3860  23.935   5.703   6.058
 3941AUSL   AUS 3861  21.419   7.805   7.502
 3942AUSL   AUS 3862  21.489   7.950   7.085
 3943AUL    AUL 3863  21.205   7.724   7.198
 3944THSLK    S 3864  21.316   7.779   6.973
 3945ETHY    C1 3865  20.951   7.522   6.877
 3946ETHY    C1 3866  20.535   7.245   6.679
 3947ETHY    C1 3867  20.155   7.008   6.392
 3948ETHY    C1 3868  19.821   6.812   6.025
 3949ETHY    C1 3869  19.539   6.660   5.587
 3950THSLK    S 3870  21.151   7.749   7.506
 3951ETHY    C1 3871  20.699   7.688   7.508
 3952ETHY    C1 3872  20.185   7.529   7.507
 3953ETHY    C1 3873  19.717   7.275   7.505
 3954ETHY    C1 3874  19.304   6.938   7.506
 3955ETHY    C1 3875  18.952   6.524   7.509
 3956AUSL   AUS 3876  21.325   8.051   7.653
 3957AUSL   AUS 3877  21.583   7.704   7.766
 3958AUL    AUL 3878  21.205   7.724   7.805
 3959THSLK    S 3879  21.395   7.560   7.880
 3960ETHY    C1 3880  21.021   7.303   7.926
 3961ETHY    C1 3881  20.623   6.963   8.052
 3962ETHY    C1 3882  20.290   6.601   8.255
 3963ETHY    C1 3883  20.028   6.227   8.529
 3964ETHY    C1 3884  19.837   5.849   8.870
 3965THSLK    S 3885  21.066   7.984   7.617
 3966ETHY    C1 3886  20.621   7.954   7.524
 3967ETHY    C1 3887  20.090   7.872   7.490
 3968ETHY    C1 3888  19.577   7.743   7.549
 3969ETHY    C1 3889  19.093   7.575   7.696
 3970ETHY    C1 3890  18.645   7.373   7.928
 3971AUSL   AUS 3891  21.999   8.795   7.911
 3972AUSL   AUS 3892  21.583   8.725   7.766
 3973AUL    AUL 3893  21.696   9.009   7.992
 3974THSLK    S 3894  21.463   8.884   7.950
 3975ETHY    C1 3895  21.346   9.196   8.261
 3976ETHY    C1 3896  21.132   9.576   8.578
 3977ETHY    C1 3897  20.842   9.947   8.824
 3978ETHY    C1 3898  20.484  10.301   9.000
 3979ETHY    C1 3899  20.063  10.629   9.102
 3980THSLK    S 3900  22.039   9.021   8.035
 3981ETHY    C1 3901  22.196   9.323   8.339
 3982ETHY    C1 3902  22.311   9.729   8.672
 3983ETHY    C1 3903  22.338  10.173   8.964
 3984ETHY    C1 3904  22.278  10.642   9.211
 3985ETHY    C1 3905  22.134  11.126   9.410
 3986AUSL   AUS 3906  21.847   8.888   7.665
 3987AUSL   AUS 3907  22.151   8.888   7.338
 3988AUL    AUL 3908  21.999   9.196   7.502
 3989THSLK    S 3909  21.888   9.136   7.774
 3990ETHY    C1 3910  21.997   9.546   7.942
 3991ETHY    C1 3911  22.041  10.053   8.118
 3992ETHY    C1 3912  21.984  10.561   8.265
 3993ETHY    C1 3913  21.831  11.058   8.383
 3994ETHY    C1 3914  21.588  11.535   8.472
 3995THSLK    S 3915  22.204   9.123   7.241
 3996ETHY    C1 3916  22.449   9.479   7.094
 3997ETHY    C1 3917  22.662   9.944   6.927
 3998ETHY    C1 3918  22.777  10.442   6.779
 3999ETHY    C1 3919  22.797  10.961   6.655
 4000ETHY    C1 3920  22.722  11.490   6.558
 4001AUSL   AUS 3921  22.151   8.888   7.665
 4002AUSL   AUS 3922  22.264   8.631   8.012
 4003AUL    AUL 3923  22.302   9.009   7.992
 4004THSLK    S 3924  22.436   8.744   8.184
 4005ETHY    C1 3925  22.721   8.847   8.524
 4006ETHY    C1 3926  23.023   9.051   8.921
 4007ETHY    C1 3927  23.268   9.341   9.294
 4008ETHY    C1 3928  23.452   9.704   9.638
 4009ETHY    C1 3929  23.571  10.134   9.948
 4010THSLK    S 3930  22.202   9.122   7.771
 4011ETHY    C1 3931  22.446   9.476   7.922
 4012ETHY    C1 3932  22.659   9.942   8.087
 4013ETHY    C1 3933  22.775  10.441   8.231
 4014ETHY    C1 3934  22.794  10.959   8.356
 4015ETHY    C1 3935  22.719  11.487   8.458
 4016AUSL   AUS 3936  21.999   7.635   7.911
 4017AUSL   AUS 3937  22.416   7.704   7.766
 4018AUL    AUL 3938  22.302   7.420   7.992
 4019THSLK    S 3939  21.955   7.380   7.990
 4020ETHY    C1 3940  21.795   6.976   8.128
 4021ETHY    C1 3941  21.681   6.495   8.341
 4022ETHY    C1 3942  21.656   6.034   8.605
 4023ETHY    C1 3943  21.715   5.604   8.915
 4024ETHY    C1 3944  21.856   5.212   9.263
 4025THSLK    S 3945  22.531   7.515   7.908
 4026ETHY    C1 3946  22.647   7.099   8.052
 4027ETHY    C1 3947  22.861   6.646   8.248
 4028ETHY    C1 3948  23.153   6.258   8.467
 4029ETHY    C1 3949  23.512   5.943   8.705
 4030ETHY    C1 3950  23.929   5.706   8.958
 4031AUSL   AUS 3951  21.847   7.541   7.665
 4032AUSL   AUS 3952  21.734   7.798   8.012
 4033AUL    AUL 3953  21.696   7.420   7.992
 4034THSLK    S 3954  21.794   7.301   7.745
 4035ETHY    C1 3955  21.549   6.920   7.801
 4036ETHY    C1 3956  21.336   6.435   7.897
 4037ETHY    C1 3957  21.221   5.932   8.025
 4038ETHY    C1 3958  21.202   5.423   8.186
 4039ETHY    C1 3959  21.276   4.920   8.374
 4040THSLK    S 3960  21.556   7.630   8.133
 4041ETHY    C1 3961  21.268   7.312   8.289
 4042ETHY    C1 3962  20.968   6.952   8.552
 4043ETHY    C1 3963  20.725   6.626   8.896
 4044ETHY    C1 3964  20.541   6.343   9.309
 4045ETHY    C1 3965  20.417   6.109   9.783
 4046AUSL   AUS 3966  22.151   7.541   7.665
 4047AUSL   AUS 3967  21.847   7.541   7.338
 4048AUL    AUL 3968  21.999   7.233   7.502
 4049THSLK    S 3969  21.796   7.298   7.266
 4050ETHY    C1 3970  21.552   6.916   7.215
 4051ETHY    C1 3971  21.339   6.432   7.117
 4052ETHY    C1 3972  21.223   5.930   6.984
 4053ETHY    C1 3973  21.204   5.421   6.825
 4054ETHY    C1 3974  21.280   4.916   6.642
 4055THSLK    S 3975  22.108   7.285   7.749
 4056ETHY    C1 3976  21.998   6.849   7.821
 4057ETHY    C1 3977  21.955   6.323   7.928
 4058ETHY    C1 3978  22.012   5.811   8.059
 4059ETHY    C1 3979  22.165   5.323   8.213
 4060ETHY    C1 3980  22.407   4.870   8.388
 4061AUSL   AUS 3981  21.999   8.795   7.093
 4062AUSL   AUS 3982  22.416   8.725   7.237
 4063AUL    AUL 3983  22.302   9.009   7.011
 4064THSLK    S 3984  22.043   9.025   6.975
 4065ETHY    C1 3985  22.203   9.329   6.674
 4066ETHY    C1 3986  22.317   9.734   6.339
 4067ETHY    C1 3987  22.342  10.177   6.045
 4068ETHY    C1 3988  22.283  10.646   5.798
 4069ETHY    C1 3989  22.142  11.133   5.604
 4070THSLK    S 3990  22.603   8.846   7.085
 4071ETHY    C1 3991  22.977   9.002   6.876
 4072ETHY    C1 3992  23.375   9.266   6.629
 4073ETHY    C1 3993  23.708   9.610   6.395
 4074ETHY    C1 3994  23.970  10.022   6.184
 4075ETHY    C1 3995  24.161  10.496   5.998
 4076AUSL   AUS 3996  21.847   8.888   7.338
 4077AUSL   AUS 3997  21.734   8.631   6.992
 4078AUL    AUL 3998  21.696   9.009   7.011
 4079THSLK    S 3999  21.890   9.139   7.237
 4080ETHY    C1 4000  22.000   9.550   7.074
 4081ETHY    C1 4001  22.043  10.056   6.896
 4082ETHY    C1 4002  21.986  10.564   6.745
 4083ETHY    C1 4003  21.833  11.061   6.627
 4084ETHY    C1 4004  21.591  11.540   6.545
 4085THSLK    S 4005  21.620   8.766   6.802
 4086ETHY    C1 4006  21.554   8.938   6.385
 4087ETHY    C1 4007  21.411   9.190   5.932
 4088ETHY    C1 4008  21.202   9.489   5.544
 4089ETHY    C1 4009  20.936   9.827   5.230
 4090ETHY    C1 4010  20.620  10.200   4.993
 4091AUSL   AUS 4011  21.999   7.635   7.093
 4092AUSL   AUS 4012  21.583   7.704   7.237
 4093AUL    AUL 4013  21.696   7.420   7.011
 4094THSLK    S 4014  21.399   7.554   7.128
 4095ETHY    C1 4015  21.027   7.293   7.085
 4096ETHY    C1 4016  20.628   6.955   6.958
 4097ETHY    C1 4017  20.293   6.596   6.753
 4098ETHY    C1 4018  20.031   6.222   6.478
 4099ETHY    C1 4019  19.844   5.839   6.142
 4100THSLK    S 4020  21.959   7.376   7.019
 4101ETHY    C1 4021  21.802   6.970   6.885
 4102ETHY    C1 4022  21.687   6.490   6.671
 4103ETHY    C1 4023  21.660   6.031   6.404
 4104ETHY    C1 4024  21.720   5.600   6.094
 4105ETHY    C1 4025  21.864   5.205   5.751
 4106AUSL   AUS 4026  22.151   7.541   7.338
 4107AUSL   AUS 4027  22.264   7.798   6.992
 4108AUL    AUL 4028  22.302   7.420   7.011
 4109THSLK    S 4029  22.110   7.284   7.262
 4110ETHY    C1 4030  22.001   6.846   7.195
 4111ETHY    C1 4031  21.958   6.320   7.086
 4112ETHY    C1 4032  22.014   5.809   6.951
 4113ETHY    C1 4033  22.167   5.321   6.798
 4114ETHY    C1 4034  22.411   4.867   6.629
 4115THSLK    S 4035  22.384   7.608   6.853
 4116ETHY    C1 4036  22.453   7.222   6.621
 4117ETHY    C1 4037  22.595   6.814   6.300
 4118ETHY    C1 4038  22.802   6.478   5.942
 4119ETHY    C1 4039  23.068   6.221   5.559
 4120ETHY    C1 4040  23.388   6.043   5.158
 4121AUC    AUC 4041  27.591   3.912   7.502
 4122AUC    AUC 4042  27.837   3.912   7.350
 4123AUC    AUC 4043  27.837   3.912   7.653
 4124AUC    AUC 4044  27.346   3.912   7.350
 4125AUC    AUC 4045  27.346   3.912   7.653
 4126AUC    AUC 4046  27.439   4.157   7.502
 4127AUC    AUC 4047  27.743   4.157   7.502
 4128AUC    AUC 4048  27.439   3.666   7.502
 4129AUC    AUC 4049  27.743   3.666   7.502
 4130AUC    AUC 4050  27.591   3.760   7.747
 4131AUC    AUC 4051  27.591   4.063   7.747
 4132AUC    AUC 4052  27.591   3.760   7.256
 4133AUC    AUC 4053  27.591   4.063   7.256
 4134AUC    AUC 4054  28.082   3.912   7.198
 4135AUC    AUC 4055  28.082   3.912   7.502
 4136AUC    AUC 4056  28.082   3.912   7.805
 4137AUC    AUC 4057  27.100   3.912   7.198
 4138AUC    AUC 4058  27.100   3.912   7.502
 4139AUC    AUC 4059  27.100   3.912   7.805
 4140AUC    AUC 4060  27.288   4.402   7.502
 4141AUC    AUC 4061  27.591   4.402   7.502
 4142AUC    AUC 4062  27.894   4.402   7.502
 4143AUC    AUC 4063  27.288   3.421   7.502
 4144AUC    AUC 4064  27.591   3.421   7.502
 4145AUC    AUC 4065  27.894   3.421   7.502
 4146AUC    AUC 4066  27.591   3.608   7.992
 4147AUC    AUC 4067  27.591   3.912   7.992
 4148AUC    AUC 4068  27.591   4.215   7.992
 4149AUC    AUC 4069  27.591   3.608   7.011
 4150AUC    AUC 4070  27.591   3.912   7.011
 4151AUC    AUC 4071  27.591   4.215   7.011
 4152AUC    AUC 4072  27.837   3.760   7.899
 4153AUC    AUC 4073  27.837   4.063   7.899
 4154AUC    AUC 4074  27.837   3.760   7.105
 4155AUC    AUC 4075  27.837   4.063   7.105
 4156AUC    AUC 4076  27.346   3.760   7.899
 4157AUC    AUC 4077  27.346   4.063   7.899
 4158AUC    AUC 4078  27.346   3.760   7.105
 4159AUC    AUC 4079  27.346   4.063   7.105
 4160AUC    AUC 4080  27.988   4.157   7.350
 4161AUC    AUC 4081  27.988   4.157   7.653
 4162AUC    AUC 4082  27.194   4.157   7.350
 4163AUC    AUC 4083  27.194   4.157   7.653
 4164AUC    AUC 4084  27.988   3.666   7.350
 4165AUC    AUC 4085  27.988   3.666   7.653
 4166AUC    AUC 4086  27.194   3.666   7.350
 4167AUC    AUC 4087  27.194   3.666   7.653
 4168AUC    AUC 4088  27.439   4.309   7.747
 4169AUC    AUC 4089  27.743   4.309   7.747
 4170AUC    AUC 4090  27.439   3.514   7.747
 4171AUC    AUC 4091  27.743   3.514   7.747
 4172AUC    AUC 4092  27.439   4.309   7.256
 4173AUC    AUC 4093  27.743   4.309   7.256
 4174AUC    AUC 4094  27.439   3.514   7.256
 4175AUC    AUC 4095  27.743   3.514   7.256
 4176AUSL   AUS 4096  28.000   3.912   8.082
 4177AUSL   AUS 4097  27.856   3.495   8.012
 4178AUL    AUL 4098  28.082   3.608   8.296
 4179THSLK    S 4099  27.970   3.307   8.156
 4180ETHY    C1 4100  28.036   2.922   8.391
 4181ETHY    C1 4101  28.179   2.514   8.710
 4182ETHY    C1 4102  28.388   2.178   9.066
 4183ETHY    C1 4103  28.654   1.920   9.450
 4184ETHY    C1 4104  28.970   1.744   9.855
 4185THSLK    S 4105  28.096   3.862   8.326
 4186ETHY    C1 4106  28.312   3.676   8.681
 4187ETHY    C1 4107  28.587   3.541   9.124
 4188ETHY    C1 4108  28.868   3.511   9.575
 4189ETHY    C1 4109  29.146   3.580  10.025
 4190ETHY    C1 4110  29.415   3.748  10.466
 4191AUSL   AUS 4111  27.755   3.760   8.175
 4192AUSL   AUS 4112  27.428   4.063   8.175
 4193AUL    AUL 4113  27.591   3.912   8.483
 4194THSLK    S 4114  27.833   3.707   8.417
 4195ETHY    C1 4115  27.910   3.457   8.790
 4196ETHY    C1 4116  28.026   3.240   9.269
 4197ETHY    C1 4117  28.163   3.124   9.769
 4198ETHY    C1 4118  28.313   3.106  10.281
 4199ETHY    C1 4119  28.472   3.187  10.794
 4200THSLK    S 4120  27.341   4.020   8.431
 4201ETHY    C1 4121  27.259   3.908   8.864
 4202ETHY    C1 4122  27.145   3.862   9.388
 4203ETHY    C1 4123  27.013   3.920   9.901
 4204ETHY    C1 4124  26.862   4.073  10.389
 4205ETHY    C1 4125  26.696   4.317  10.844
 4206AUSL   AUS 4126  27.755   4.063   8.175
 4207AUSL   AUS 4127  28.101   4.176   7.918
 4208AUL    AUL 4128  28.082   4.215   8.296
 4209THSLK    S 4129  27.842   4.117   8.414
 4210ETHY    C1 4130  27.923   4.368   8.786
 4211ETHY    C1 4131  28.037   4.584   9.265
 4212ETHY    C1 4132  28.170   4.700   9.767
 4213ETHY    C1 4133  28.320   4.718  10.279
 4214ETHY    C1 4134  28.486   4.638  10.789
 4215THSLK    S 4135  28.275   4.278   8.080
 4216ETHY    C1 4136  28.639   4.288   8.354
 4217ETHY    C1 4137  29.055   4.390   8.680
 4218ETHY    C1 4138  29.435   4.589   8.995
 4219ETHY    C1 4139  29.770   4.876   9.296
 4220ETHY    C1 4140  30.051   5.244   9.577
 4221AUSL   AUS 4141  28.000   3.912   6.922
 4222AUSL   AUS 4142  27.856   4.328   6.992
 4223AUL    AUL 4143  28.082   4.215   6.707
 4224THSLK    S 4144  28.103   3.862   6.681
 4225ETHY    C1 4145  28.324   3.676   6.329
 4226ETHY    C1 4146  28.597   3.541   5.885
 4227ETHY    C1 4147  28.875   3.511   5.432
 4228ETHY    C1 4148  29.153   3.580   4.982
 4229ETHY    C1 4149  29.427   3.748   4.545
 4230THSLK    S 4150  28.034   4.443   6.825
 4231ETHY    C1 4151  28.322   4.548   6.488
 4232ETHY    C1 4152  28.622   4.752   6.090
 4233ETHY    C1 4153  28.865   5.040   5.714
 4234ETHY    C1 4154  29.049   5.404   5.371
 4235ETHY    C1 4155  29.173   5.835   5.065
 4236AUSL   AUS 4156  27.755   3.760   6.828
 4237AUSL   AUS 4157  28.101   3.647   7.085
 4238AUL    AUL 4158  28.082   3.608   6.707
 4239THSLK    S 4159  28.238   3.455   6.944
 4240ETHY    C1 4160  28.446   3.112   6.729
 4241ETHY    C1 4161  28.747   2.770   6.442
 4242ETHY    C1 4162  29.098   2.517   6.133
 4243ETHY    C1 4163  29.492   2.355   5.812
 4244ETHY    C1 4164  29.921   2.284   5.486
 4245THSLK    S 4165  27.842   3.706   6.590
 4246ETHY    C1 4166  27.923   3.455   6.217
 4247ETHY    C1 4167  28.037   3.239   5.738
 4248ETHY    C1 4168  28.170   3.123   5.236
 4249ETHY    C1 4169  28.320   3.105   4.725
 4250ETHY    C1 4170  28.486   3.185   4.214
 4251AUSL   AUS 4171  27.755   4.063   6.828
 4252AUSL   AUS 4172  27.428   3.760   6.828
 4253AUL    AUL 4173  27.591   3.912   6.520
 4254THSLK    S 4174  27.333   3.706   6.592
 4255ETHY    C1 4175  27.196   3.458   6.235
 4256ETHY    C1 4176  27.036   3.244   5.767
 4257ETHY    C1 4177  26.889   3.129   5.269
 4258ETHY    C1 4178  26.762   3.110   4.751
 4259ETHY    C1 4179  26.657   3.186   4.224
 4260THSLK    S 4180  27.858   4.021   6.578
 4261ETHY    C1 4181  27.999   3.906   6.160
 4262ETHY    C1 4182  28.157   3.859   5.647
 4263ETHY    C1 4183  28.300   3.915   5.138
 4264ETHY    C1 4184  28.428   4.069   4.643
 4265ETHY    C1 4185  28.539   4.317   4.174
 4266AUSL   AUS 4186  27.182   3.912   8.082
 4267AUSL   AUS 4187  27.326   4.328   8.012
 4268AUL    AUL 4188  27.100   4.215   8.296
 4269THSLK    S 4189  27.079   3.862   8.322
 4270ETHY    C1 4190  26.858   3.676   8.674
 4271ETHY    C1 4191  26.585   3.541   9.118
 4272ETHY    C1 4192  26.308   3.511   9.571
 4273ETHY    C1 4193  26.030   3.580  10.021
 4274ETHY    C1 4194  25.755   3.748  10.458
 4275THSLK    S 4195  27.206   4.457   8.202
 4276ETHY    C1 4196  27.137   4.626   8.620
 4277ETHY    C1 4197  26.995   4.879   9.073
 4278ETHY    C1 4198  26.789   5.180   9.460
 4279ETHY    C1 4199  26.522   5.519   9.775
 4280ETHY    C1 4200  26.202   5.886  10.013
 4281AUSL   AUS 4201  27.428   3.760   8.175
 4282AUSL   AUS 4202  27.081   3.647   7.918
 4283AUL    AUL 4203  27.100   3.608   8.296
 4284THSLK    S 4204  26.903   3.483   8.029
 4285ETHY    C1 4205  26.535   3.230   8.125
 4286ETHY    C1 4206  26.120   2.951   8.323
 4287ETHY    C1 4207  25.742   2.711   8.611
 4288ETHY    C1 4208  25.408   2.515   8.978
 4289ETHY    C1 4209  25.122   2.369   9.415
 4290THSLK    S 4210  27.325   3.708   8.410
 4291ETHY    C1 4211  27.183   3.461   8.766
 4292ETHY    C1 4212  27.025   3.246   9.233
 4293ETHY    C1 4213  26.882   3.130   9.733
 4294ETHY    C1 4214  26.755   3.112  10.250
 4295ETHY    C1 4215  26.643   3.190  10.775
 4296AUSL   AUS 4216  27.182   3.912   6.922
 4297AUSL   AUS 4217  27.326   3.495   6.992
 4298AUL    AUL 4218  27.100   3.608   6.707
 4299THSLK    S 4219  27.087   3.862   6.677
 4300ETHY    C1 4220  26.870   3.676   6.322
 4301ETHY    C1 4221  26.595   3.541   5.879
 4302ETHY    C1 4222  26.314   3.511   5.429
 4303ETHY    C1 4223  26.036   3.580   4.978
 4304ETHY    C1 4224  25.768   3.748   4.537
 4305THSLK    S 4225  27.154   3.321   6.872
 4306ETHY    C1 4226  26.869   3.000   6.717
 4307ETHY    C1 4227  26.568   2.641   6.453
 4308ETHY    C1 4228  26.323   2.318   6.109
 4309ETHY    C1 4229  26.139   2.035   5.696
 4310ETHY    C1 4230  26.020   1.795   5.223
 4311AUSL   AUS 4231  27.428   4.063   6.828
 4312AUSL   AUS 4232  27.081   4.176   7.085
 4313AUL    AUL 4233  27.100   4.215   6.707
 4314THSLK    S 4234  26.950   4.306   6.893
 4315ETHY    C1 4235  26.744   4.406   6.499
 4316ETHY    C1 4236  26.442   4.570   6.085
 4317ETHY    C1 4237  26.088   4.782   5.748
 4318ETHY    C1 4238  25.695   5.036   5.494
 4319ETHY    C1 4239  25.270   5.329   5.324
 4320THSLK    S 4240  27.349   4.022   6.571
 4321ETHY    C1 4241  27.272   3.910   6.136
 4322ETHY    C1 4242  27.156   3.865   5.612
 4323ETHY    C1 4243  27.020   3.921   5.101
 4324ETHY    C1 4244  26.870   4.075   4.613
 4325ETHY    C1 4245  26.710   4.320   4.156
 4326AUSL   AUS 4246  28.171   4.321   7.502
 4327AUSL   AUS 4247  28.101   4.176   7.085
 4328AUL    AUL 4248  28.385   4.402   7.198
 4329THSLK    S 4249  28.280   4.279   6.930
 4330ETHY    C1 4250  28.647   4.290   6.659
 4331ETHY    C1 4251  29.062   4.392   6.332
 4332ETHY    C1 4252  29.440   4.590   6.014
 4333ETHY    C1 4253  29.774   4.877   5.713
 4334ETHY    C1 4254  30.060   5.247   5.438
 4335THSLK    S 4255  28.439   4.377   7.506
 4336ETHY    C1 4256  28.891   4.438   7.508
 4337ETHY    C1 4257  29.405   4.597   7.507
 4338ETHY    C1 4258  29.873   4.851   7.505
 4339ETHY    C1 4259  30.286   5.188   7.506
 4340ETHY    C1 4260  30.638   5.602   7.509
 4341AUSL   AUS 4261  28.265   4.075   7.350
 4342AUSL   AUS 4262  28.265   3.748   7.653
 4343AUL    AUL 4263  28.573   3.912   7.502
 4344THSLK    S 4264  28.524   4.118   7.348
 4345ETHY    C1 4265  28.969   4.048   7.278
 4346ETHY    C1 4266  29.500   4.055   7.190
 4347ETHY    C1 4267  30.013   4.165   7.101
 4348ETHY    C1 4268  30.498   4.371   7.017
 4349ETHY    C1 4269  30.945   4.668   6.940
 4350THSLK    S 4270  28.497   3.610   7.662
 4351ETHY    C1 4271  28.843   3.321   7.728
 4352ETHY    C1 4272  29.304   3.054   7.809
 4353ETHY    C1 4273  29.801   2.885   7.892
 4354ETHY    C1 4274  30.322   2.813   7.980
 4355ETHY    C1 4275  30.857   2.839   8.071
 4356AUSL   AUS 4276  28.265   4.075   7.653
 4357AUSL   AUS 4277  28.008   4.422   7.766
 4358AUL    AUL 4278  28.385   4.402   7.805
 4359THSLK    S 4279  28.191   4.541   7.926
 4360ETHY    C1 4280  28.563   4.696   8.139
 4361ETHY    C1 4281  28.963   4.961   8.385
 4362ETHY    C1 4282  29.297   5.305   8.615
 4363ETHY    C1 4283  29.559   5.718   8.827
 4364ETHY    C1 4284  29.746   6.190   9.019
 4365THSLK    S 4285  28.523   4.118   7.664
 4366ETHY    C1 4286  28.967   4.048   7.738
 4367ETHY    C1 4287  29.498   4.055   7.825
 4368ETHY    C1 4288  30.012   4.165   7.910
 4369ETHY    C1 4289  30.496   4.371   7.994
 4370ETHY    C1 4290  30.943   4.668   8.078
 4371AUSL   AUS 4291  27.011   4.321   7.502
 4372AUSL   AUS 4292  27.081   4.176   7.918
 4373AUL    AUL 4293  26.797   4.402   7.805
 4374THSLK    S 4294  26.945   4.299   8.109
 4375ETHY    C1 4295  26.736   4.395   8.503
 4376ETHY    C1 4296  26.435   4.561   8.917
 4377ETHY    C1 4297  26.084   4.776   9.254
 4378ETHY    C1 4298  25.690   5.030   9.509
 4379ETHY    C1 4299  25.261   5.317   9.678
 4380THSLK    S 4300  26.795   4.461   7.506
 4381ETHY    C1 4301  26.539   4.839   7.508
 4382ETHY    C1 4302  26.166   5.227   7.507
 4383ETHY    C1 4303  25.730   5.533   7.505
 4384ETHY    C1 4304  25.244   5.751   7.506
 4385ETHY    C1 4305  24.717   5.881   7.509
 4386AUSL   AUS 4306  26.917   4.075   7.350
 4387AUSL   AUS 4307  27.175   4.422   7.237
 4388AUL    AUL 4308  26.797   4.402   7.198
 4389THSLK    S 4309  26.686   4.190   7.303
 4390ETHY    C1 4310  26.339   4.378   7.075
 4391ETHY    C1 4311  25.879   4.570   6.872
 4392ETHY    C1 4312  25.381   4.720   6.758
 4393ETHY    C1 4313  24.860   4.830   6.733
 4394ETHY    C1 4314  24.326   4.900   6.796
 4395THSLK    S 4315  27.059   4.587   7.058
 4396ETHY    C1 4316  26.943   4.903   6.750
 4397ETHY    C1 4317  26.729   5.281   6.432
 4398ETHY    C1 4318  26.437   5.650   6.183
 4399ETHY    C1 4319  26.079   6.003   6.008
 4400ETHY    C1 4320  25.661   6.336   5.909
 4401AUSL   AUS 4321  26.917   4.075   7.653
 4402AUSL   AUS 4322  26.917   3.748   7.350
 4403AUL    AUL 4323  26.609   3.912   7.502
 4404THSLK    S 4324  26.659   3.674   7.390
 4405ETHY    C1 4325  26.215   3.639   7.486
 4406ETHY    C1 4326  25.684   3.558   7.518
 4407ETHY    C1 4327  25.170   3.433   7.458
 4408ETHY    C1 4328  24.686   3.265   7.311
 4409ETHY    C1 4329  24.239   3.058   7.083
 4410THSLK    S 4330  26.684   4.182   7.704
 4411ETHY    C1 4331  26.337   4.366   7.935
 4412ETHY    C1 4332  25.877   4.559   8.137
 4413ETHY    C1 4333  25.380   4.714   8.249
 4414ETHY    C1 4334  24.859   4.824   8.274
 4415ETHY    C1 4335  24.323   4.887   8.213
 4416AUSL   AUS 4336  28.171   3.502   7.502
 4417AUSL   AUS 4337  28.101   3.647   7.918
 4418AUL    AUL 4338  28.385   3.421   7.805
 4419THSLK    S 4339  28.387   3.362   7.506
 4420ETHY    C1 4340  28.643   2.984   7.508
 4421ETHY    C1 4341  29.016   2.596   7.507
 4422ETHY    C1 4342  29.452   2.290   7.505
 4423ETHY    C1 4343  29.938   2.072   7.506
 4424ETHY    C1 4344  30.465   1.942   7.509
 4425THSLK    S 4345  28.233   3.457   8.066
 4426ETHY    C1 4346  28.438   3.114   8.285
 4427ETHY    C1 4347  28.740   2.772   8.570
 4428ETHY    C1 4348  29.094   2.519   8.877
 4429ETHY    C1 4349  29.488   2.356   9.198
 4430ETHY    C1 4350  29.912   2.286   9.529
 4431AUSL   AUS 4351  28.265   3.748   7.350
 4432AUSL   AUS 4352  28.008   3.401   7.237
 4433AUL    AUL 4353  28.385   3.421   7.198
 4434THSLK    S 4354  28.498   3.610   7.350
 4435ETHY    C1 4355  28.846   3.321   7.289
 4436ETHY    C1 4356  29.305   3.054   7.206
 4437ETHY    C1 4357  29.802   2.885   7.118
 4438ETHY    C1 4358  30.324   2.813   7.031
 4439ETHY    C1 4359  30.859   2.839   6.947
 4440THSLK    S 4360  28.127   3.211   7.104
 4441ETHY    C1 4361  28.244   2.794   6.963
 4442ETHY    C1 4362  28.458   2.340   6.765
 4443ETHY    C1 4363  28.748   1.954   6.543
 4444ETHY    C1 4364  29.107   1.639   6.306
 4445ETHY    C1 4365  29.527   1.400   6.058
 4446AUSL   AUS 4366  27.011   3.502   7.502
 4447AUSL   AUS 4367  27.081   3.647   7.085
 4448AUL    AUL 4368  26.797   3.421   7.198
 4449THSLK    S 4369  26.908   3.476   6.973
 4450ETHY    C1 4370  26.543   3.219   6.877
 4451ETHY    C1 4371  26.127   2.942   6.679
 4452ETHY    C1 4372  25.747   2.705   6.392
 4453ETHY    C1 4373  25.413   2.509   6.025
 4454ETHY    C1 4374  25.131   2.357   5.587
 4455THSLK    S 4375  26.743   3.446   7.506
 4456ETHY    C1 4376  26.291   3.385   7.508
 4457ETHY    C1 4377  25.777   3.226   7.507
 4458ETHY    C1 4378  25.309   2.972   7.505
 4459ETHY    C1 4379  24.896   2.635   7.506
 4460ETHY    C1 4380  24.544   2.221   7.509
 4461AUSL   AUS 4381  26.917   3.748   7.653
 4462AUSL   AUS 4382  27.175   3.401   7.766
 4463AUL    AUL 4383  26.797   3.421   7.805
 4464THSLK    S 4384  26.987   3.257   7.880
 4465ETHY    C1 4385  26.613   3.000   7.926
 4466ETHY    C1 4386  26.215   2.660   8.052
 4467ETHY    C1 4387  25.882   2.298   8.255
 4468ETHY    C1 4388  25.620   1.924   8.529
 4469ETHY    C1 4389  25.429   1.546   8.870
 4470THSLK    S 4390  26.658   3.681   7.617
 4471ETHY    C1 4391  26.213   3.651   7.524
 4472ETHY    C1 4392  25.682   3.569   7.490
 4473ETHY    C1 4393  25.169   3.440   7.549
 4474ETHY    C1 4394  24.685   3.272   7.696
 4475ETHY    C1 4395  24.237   3.070   7.928
 4476AUSL   AUS 4396  27.591   4.492   7.911
 4477AUSL   AUS 4397  27.175   4.422   7.766
 4478AUL    AUL 4398  27.288   4.706   7.992
 4479THSLK    S 4399  27.055   4.581   7.950
 4480ETHY    C1 4400  26.938   4.893   8.261
 4481ETHY    C1 4401  26.724   5.273   8.578
 4482ETHY    C1 4402  26.434   5.644   8.824
 4483ETHY    C1 4403  26.076   5.998   9.000
 4484ETHY    C1 4404  25.655   6.326   9.102
 4485THSLK    S 4405  27.631   4.718   8.035
 4486ETHY    C1 4406  27.788   5.020   8.339
 4487ETHY    C1 4407  27.903   5.426   8.672
 4488ETHY    C1 4408  27.930   5.870   8.964
 4489ETHY    C1 4409  27.870   6.339   9.211
 4490ETHY    C1 4410  27.726   6.823   9.410
 4491AUSL   AUS 4411  27.439   4.585   7.665
 4492AUSL   AUS 4412  27.743   4.585   7.338
 4493AUL    AUL 4413  27.591   4.893   7.502
 4494THSLK    S 4414  27.480   4.833   7.774
 4495ETHY    C1 4415  27.589   5.243   7.942
 4496ETHY    C1 4416  27.633   5.750   8.118
 4497ETHY    C1 4417  27.576   6.258   8.265
 4498ETHY    C1 4418  27.423   6.755   8.383
 4499ETHY    C1 4419  27.180   7.232   8.472
 4500THSLK    S 4420  27.796   4.820   7.241
 4501ETHY    C1 4421  28.041   5.176   7.094
 4502ETHY    C1 4422  28.254   5.641   6.927
 4503ETHY    C1 4423  28.369   6.139   6.779
 4504ETHY    C1 4424  28.389   6.658   6.655
 4505ETHY    C1 4425  28.314   7.187   6.558
 4506AUSL   AUS 4426  27.743   4.585   7.665
 4507AUSL   AUS 4427  27.856   4.328   8.012
 4508AUL    AUL 4428  27.894   4.706   7.992
 4509THSLK    S 4429  28.028   4.441   8.184
 4510ETHY    C1 4430  28.313   4.544   8.524
 4511ETHY    C1 4431  28.615   4.748   8.921
 4512ETHY    C1 4432  28.860   5.038   9.294
 4513ETHY    C1 4433  29.044   5.401   9.638
 4514ETHY    C1 4434  29.163   5.831   9.948
 4515THSLK    S 4435  27.794   4.819   7.771
 4516ETHY    C1 4436  28.038   5.173   7.922
 4517ETHY    C1 4437  28.251   5.639   8.087
 4518ETHY    C1 4438  28.367   6.138   8.231
 4519ETHY    C1 4439  28.386   6.656   8.356
 4520ETHY    C1 4440  28.311   7.184   8.458
 4521AUSL   AUS 4441  27.591   3.332   7.911
 4522AUSL   AUS 4442  28.008   3.401   7.766
 4523AUL    AUL 4443  27.894   3.117   7.992
 4524THSLK    S 4444  27.547   3.077   7.990
 4525ETHY    C1 4445  27.387   2.673   8.128
 4526ETHY    C1 4446  27.273   2.192   8.341
 4527ETHY    C1 4447  27.248   1.731   8.605
 4528ETHY    C1 4448  27.307   1.301   8.915
 4529ETHY    C1 4449  27.448   0.909   9.263
 4530THSLK    S 4450  28.123   3.212   7.908
 4531ETHY    C1 4451  28.239   2.796   8.052
 4532ETHY    C1 4452  28.453   2.343   8.248
 4533ETHY    C1 4453  28.745   1.955   8.467
 4534ETHY    C1 4454  29.104   1.640   8.705
 4535ETHY    C1 4455  29.521   1.403   8.958
 4536AUSL   AUS 4456  27.439   3.238   7.665
 4537AUSL   AUS 4457  27.326   3.495   8.012
 4538AUL    AUL 4458  27.288   3.117   7.992
 4539THSLK    S 4459  27.386   2.998   7.745
 4540ETHY    C1 4460  27.141   2.617   7.801
 4541ETHY    C1 4461  26.928   2.132   7.897
 4542ETHY    C1 4462  26.813   1.629   8.025
 4543ETHY    C1 4463  26.794   1.120   8.186
 4544ETHY    C1 4464  26.868   0.617   8.374
 4545THSLK    S 4465  27.148   3.327   8.133
 4546ETHY    C1 4466  26.860   3.009   8.289
 4547ETHY    C1 4467  26.560   2.649   8.552
 4548ETHY    C1 4468  26.317   2.323   8.896
 4549ETHY    C1 4469  26.133   2.040   9.309
 4550ETHY    C1 4470  26.009   1.806   9.783
 4551AUSL   AUS 4471  27.743   3.238   7.665
 4552AUSL   AUS 4472  27.439   3.238   7.338
 4553AUL    AUL 4473  27.591   2.930   7.502
 4554THSLK    S 4474  27.388   2.995   7.266
 4555ETHY    C1 4475  27.144   2.613   7.215
 4556ETHY    C1 4476  26.931   2.129   7.117
 4557ETHY    C1 4477  26.815   1.627   6.984
 4558ETHY    C1 4478  26.796   1.118   6.825
 4559ETHY    C1 4479  26.872   0.613   6.642
 4560THSLK    S 4480  27.700   2.982   7.749
 4561ETHY    C1 4481  27.590   2.546   7.821
 4562ETHY    C1 4482  27.547   2.020   7.928
 4563ETHY    C1 4483  27.604   1.508   8.059
 4564ETHY    C1 4484  27.757   1.020   8.213
 4565ETHY    C1 4485  27.999   0.567   8.388
 4566AUSL   AUS 4486  27.591   4.492   7.093
 4567AUSL   AUS 4487  28.008   4.422   7.237
 4568AUL    AUL 4488  27.894   4.706   7.011
 4569THSLK    S 4489  27.635   4.722   6.975
 4570ETHY    C1 4490  27.795   5.026   6.674
 4571ETHY    C1 4491  27.909   5.431   6.339
 4572ETHY    C1 4492  27.934   5.874   6.045
 4573ETHY    C1 4493  27.875   6.343   5.798
 4574ETHY    C1 4494  27.734   6.830   5.604
 4575THSLK    S 4495  28.195   4.543   7.085
 4576ETHY    C1 4496  28.569   4.699   6.876
 4577ETHY    C1 4497  28.967   4.963   6.629
 4578ETHY    C1 4498  29.300   5.307   6.395
 4579ETHY    C1 4499  29.562   5.719   6.184
 4580ETHY    C1 4500  29.753   6.193   5.998
 4581AUSL   AUS 4501  27.439   4.585   7.338
 4582AUSL   AUS 4502  27.326   4.328   6.992
 4583AUL    AUL 4503  27.288   4.706   7.011
 4584THSLK    S 4504  27.482   4.836   7.237
 4585ETHY    C1 4505  27.592   5.247   7.074
 4586ETHY    C1 4506  27.635   5.753   6.896
 4587ETHY    C1 4507  27.578   6.261   6.745
 4588ETHY    C1 4508  27.425   6.758   6.627
 4589ETHY    C1 4509  27.183   7.237   6.545
 4590THSLK    S 4510  27.212   4.463   6.802
 4591ETHY    C1 4511  27.146   4.635   6.385
 4592ETHY    C1 4512  27.003   4.887   5.932
 4593ETHY    C1 4513  26.794   5.186   5.544
 4594ETHY    C1 4514  26.528   5.524   5.230
 4595ETHY    C1 4515  26.212   5.897   4.993
 4596AUSL   AUS 4516  27.591   3.332   7.093
 4597AUSL   AUS 4517  27.175   3.401   7.237
 4598AUL    AUL 4518  27.288   3.117   7.011
 4599THSLK    S 4519  26.991   3.251   7.128
 4600ETHY    C1 4520  26.619   2.990   7.085
 4601ETHY    C1 4521  26.220   2.652   6.958
 4602ETHY    C1 4522  25.885   2.293   6.753
 4603ETHY    C1 4523  25.623   1.919   6.478
 4604ETHY    C1 4524  25.436   1.536   6.142
 4605THSLK    S 4525  27.551   3.073   7.019
 4606ETHY    C1 4526  27.394   2.667   6.885
 4607ETHY    C1 4527  27.279   2.187   6.671
 4608ETHY    C1 4528  27.252   1.728   6.404
 4609ETHY    C1 4529  27.312   1.297   6.094
 4610ETHY    C1 4530  27.456   0.902   5.751
 4611AUSL   AUS 4531  27.743   3.238   7.338
 4612AUSL   AUS 4532  27.856   3.495   6.992
 4613AUL    AUL 4533  27.894   3.117   7.011
 4614THSLK    S 4534  27.702   2.981   7.262
 4615ETHY    C1 4535  27.593   2.543   7.195
 4616ETHY    C1 4536  27.550   2.017   7.086
 4617ETHY    C1 4537  27.606   1.506   6.951
 4618ETHY    C1 4538  27.759   1.018   6.798
 4619ETHY    C1 4539  28.003   0.564   6.629
 4620THSLK    S 4540  27.976   3.305   6.853
 4621ETHY    C1 4541  28.045   2.919   6.621
 4622ETHY    C1 4542  28.187   2.511   6.300
 4623ETHY    C1 4543  28.394   2.175   5.942
 4624ETHY    C1 4544  28.660   1.918   5.559
 4625ETHY    C1 4545  28.980   1.740   5.158
 4626AUC    AUC 4546  28.215  23.919   7.502
 4627AUC    AUC 4547  28.461  23.919   7.350
 4628AUC    AUC 4548  28.461  23.919   7.653
 4629AUC    AUC 4549  27.970  23.919   7.350
 4630AUC    AUC 4550  27.970  23.919   7.653
 4631AUC    AUC 4551  28.063  24.164   7.502
 4632AUC    AUC 4552  28.367  24.164   7.502
 4633AUC    AUC 4553  28.063  23.673   7.502
 4634AUC    AUC 4554  28.367  23.673   7.502
 4635AUC    AUC 4555  28.215  23.767   7.747
 4636AUC    AUC 4556  28.215  24.070   7.747
 4637AUC    AUC 4557  28.215  23.767   7.256
 4638AUC    AUC 4558  28.215  24.070   7.256
 4639AUC    AUC 4559  28.706  23.919   7.198
 4640AUC    AUC 4560  28.706  23.919   7.502
 4641AUC    AUC 4561  28.706  23.919   7.805
 4642AUC    AUC 4562  27.724  23.919   7.198
 4643AUC    AUC 4563  27.724  23.919   7.502
 4644AUC    AUC 4564  27.724  23.919   7.805
 4645AUC    AUC 4565  27.912  24.409   7.502
 4646AUC    AUC 4566  28.215  24.409   7.502
 4647AUC    AUC 4567  28.518  24.409   7.502
 4648AUC    AUC 4568  27.912  23.428   7.502
 4649AUC    AUC 4569  28.215  23.428   7.502
 4650AUC    AUC 4570  28.518  23.428   7.502
 4651AUC    AUC 4571  28.215  23.615   7.992
 4652AUC    AUC 4572  28.215  23.919   7.992
 4653AUC    AUC 4573  28.215  24.222   7.992
 4654AUC    AUC 4574  28.215  23.615   7.011
 4655AUC    AUC 4575  28.215  23.919   7.011
 4656AUC    AUC 4576  28.215  24.222   7.011
 4657AUC    AUC 4577  28.461  23.767   7.899
 4658AUC    AUC 4578  28.461  24.070   7.899
 4659AUC    AUC 4579  28.461  23.767   7.105
 4660AUC    AUC 4580  28.461  24.070   7.105
 4661AUC    AUC 4581  27.970  23.767   7.899
 4662AUC    AUC 4582  27.970  24.070   7.899
 4663AUC    AUC 4583  27.970  23.767   7.105
 4664AUC    AUC 4584  27.970  24.070   7.105
 4665AUC    AUC 4585  28.612  24.164   7.350
 4666AUC    AUC 4586  28.612  24.164   7.653
 4667AUC    AUC 4587  27.818  24.164   7.350
 4668AUC    AUC 4588  27.818  24.164   7.653
 4669AUC    AUC 4589  28.612  23.673   7.350
 4670AUC    AUC 4590  28.612  23.673   7.653
 4671AUC    AUC 4591  27.818  23.673   7.350
 4672AUC    AUC 4592  27.818  23.673   7.653
 4673AUC    AUC 4593  28.063  24.316   7.747
 4674AUC    AUC 4594  28.367  24.316   7.747
 4675AUC    AUC 4595  28.063  23.521   7.747
 4676AUC    AUC 4596  28.367  23.521   7.747
 4677AUC    AUC 4597  28.063  24.316   7.256
 4678AUC    AUC 4598  28.367  24.316   7.256
 4679AUC    AUC 4599  28.063  23.521   7.256
 4680AUC    AUC 4600  28.367  23.521   7.256
 4681AUSL   AUS 4601  28.624  23.919   8.082
 4682AUSL   AUS 4602  28.480  23.502   8.012
 4683AUL    AUL 4603  28.706  23.615   8.296
 4684THSLK    S 4604  28.594  23.314   8.156
 4685ETHY    C1 4605  28.660  22.929   8.391
 4686ETHY    C1 4606  28.803  22.521   8.710
 4687ETHY    C1 4607  29.012  22.185   9.066
 4688ETHY    C1 4608  29.278  21.927   9.450
 4689ETHY    C1 4609  29.594  21.751   9.855
 4690THSLK    S 4610  28.720  23.869   8.326
 4691ETHY    C1 4611  28.936  23.683   8.681
 4692ETHY    C1 4612  29.211  23.548   9.124
 4693ETHY    C1 4613  29.492  23.518   9.575
 4694ETHY    C1 4614  29.770  23.587  10.025
 4695ETHY    C1 4615  30.039  23.755  10.466
 4696AUSL   AUS 4616  28.379  23.767   8.175
 4697AUSL   AUS 4617  28.052  24.070   8.175
 4698AUL    AUL 4618  28.215  23.919   8.483
 4699THSLK    S 4619  28.457  23.714   8.417
 4700ETHY    C1 4620  28.534  23.464   8.790
 4701ETHY    C1 4621  28.650  23.247   9.269
 4702ETHY    C1 4622  28.787  23.131   9.769
 4703ETHY    C1 4623  28.937  23.113  10.281
 4704ETHY    C1 4624  29.096  23.194  10.794
 4705THSLK    S 4625  27.965  24.027   8.431
 4706ETHY    C1 4626  27.883  23.915   8.864
 4707ETHY    C1 4627  27.769  23.869   9.388
 4708ETHY    C1 4628  27.637  23.927   9.901
 4709ETHY    C1 4629  27.486  24.080  10.389
 4710ETHY    C1 4630  27.320  24.324  10.844
 4711AUSL   AUS 4631  28.379  24.070   8.175
 4712AUSL   AUS 4632  28.725  24.183   7.918
 4713AUL    AUL 4633  28.706  24.222   8.296
 4714THSLK    S 4634  28.466  24.124   8.414
 4715ETHY    C1 4635  28.547  24.375   8.786
 4716ETHY    C1 4636  28.661  24.591   9.265
 4717ETHY    C1 4637  28.794  24.707   9.767
 4718ETHY    C1 4638  28.944  24.725  10.279
 4719ETHY    C1 4639  29.110  24.645  10.789
 4720THSLK    S 4640  28.899  24.285   8.080
 4721ETHY    C1 4641  29.263  24.295   8.354
 4722ETHY    C1 4642  29.679  24.397   8.680
 4723ETHY    C1 4643  30.059  24.596   8.995
 4724ETHY    C1 4644  30.394  24.883   9.296
 4725ETHY    C1 4645  30.675  25.251   9.577
 4726AUSL   AUS 4646  28.624  23.919   6.922
 4727AUSL   AUS 4647  28.480  24.335   6.992
 4728AUL    AUL 4648  28.706  24.222   6.707
 4729THSLK    S 4649  28.727  23.869   6.681
 4730ETHY    C1 4650  28.948  23.683   6.329
 4731ETHY    C1 4651  29.221  23.548   5.885
 4732ETHY    C1 4652  29.499  23.518   5.432
 4733ETHY    C1 4653  29.777  23.587   4.982
 4734ETHY    C1 4654  30.051  23.755   4.545
 4735THSLK    S 4655  28.658  24.450   6.825
 4736ETHY    C1 4656  28.946  24.555   6.488
 4737ETHY    C1 4657  29.246  24.759   6.090
 4738ETHY    C1 4658  29.489  25.047   5.714
 4739ETHY    C1 4659  29.673  25.411   5.371
 4740ETHY    C1 4660  29.797  25.842   5.065
 4741AUSL   AUS 4661  28.379  23.767   6.828
 4742AUSL   AUS 4662  28.725  23.654   7.085
 4743AUL    AUL 4663  28.706  23.615   6.707
 4744THSLK    S 4664  28.862  23.462   6.944
 4745ETHY    C1 4665  29.070  23.119   6.729
 4746ETHY    C1 4666  29.371  22.777   6.442
 4747ETHY    C1 4667  29.722  22.524   6.133
 4748ETHY    C1 4668  30.116  22.362   5.812
 4749ETHY    C1 4669  30.545  22.291   5.486
 4750THSLK    S 4670  28.466  23.713   6.590
 4751ETHY    C1 4671  28.547  23.462   6.217
 4752ETHY    C1 4672  28.661  23.246   5.738
 4753ETHY    C1 4673  28.794  23.130   5.236
 4754ETHY    C1 4674  28.944  23.112   4.725
 4755ETHY    C1 4675  29.110  23.192   4.214
 4756AUSL   AUS 4676  28.379  24.070   6.828
 4757AUSL   AUS 4677  28.052  23.767   6.828
 4758AUL    AUL 4678  28.215  23.919   6.520
 4759THSLK    S 4679  27.957  23.713   6.592
 4760ETHY    C1 4680  27.820  23.465   6.235
 4761ETHY    C1 4681  27.660  23.251   5.767
 4762ETHY    C1 4682  27.513  23.136   5.269
 4763ETHY    C1 4683  27.386  23.117   4.751
 4764ETHY    C1 4684  27.281  23.193   4.224
 4765THSLK    S 4685  28.482  24.028   6.578
 4766ETHY    C1 4686  28.623  23.913   6.160
 4767ETHY    C1 4687  28.781  23.866   5.647
 4768ETHY    C1 4688  28.924  23.922   5.138
 4769ETHY    C1 4689  29.052  24.076   4.643
 4770ETHY    C1 4690  29.163  24.324   4.174
 4771AUSL   AUS 4691  27.806  23.919   8.082
 4772AUSL   AUS 4692  27.950  24.335   8.012
 4773AUL    AUL 4693  27.724  24.222   8.296
 4774THSLK    S 4694  27.703  23.869   8.322
 4775ETHY    C1 4695  27.482  23.683   8.674
 4776ETHY    C1 4696  27.209  23.548   9.118
 4777ETHY    C1 4697  26.932  23.518   9.571
 4778ETHY    C1 4698  26.654  23.587  10.021
 4779ETHY    C1 4699  26.379  23.755  10.458
 4780THSLK    S 4700  27.830  24.464   8.202
 4781ETHY    C1 4701  27.761  24.633   8.620
 4782ETHY    C1 4702  27.619  24.886   9.073
 4783ETHY    C1 4703  27.413  25.187   9.460
 4784ETHY    C1 4704  27.146  25.526   9.775
 4785ETHY    C1 4705  26.826  25.893  10.013
 4786AUSL   AUS 4706  28.052  23.767   8.175
 4787AUSL   AUS 4707  27.705  23.654   7.918
 4788AUL    AUL 4708  27.724  23.615   8.296
 4789THSLK    S 4709  27.527  23.490   8.029
 4790ETHY    C1 4710  27.159  23.237   8.125
 4791ETHY    C1 4711  26.744  22.958   8.323
 4792ETHY    C1 4712  26.366  22.718   8.611
 4793ETHY    C1 4713  26.032  22.522   8.978
 4794ETHY    C1 4714  25.746  22.376   9.415
 4795THSLK    S 4715  27.949  23.715   8.410
 4796ETHY    C1 4716  27.807  23.468   8.766
 4797ETHY    C1 4717  27.649  23.253   9.233
 4798ETHY    C1 4718  27.506  23.137   9.733
 4799ETHY    C1 4719  27.379  23.119  10.250
 4800ETHY    C1 4720  27.267  23.197  10.775
 4801AUSL   AUS 4721  27.806  23.919   6.922
 4802AUSL   AUS 4722  27.950  23.502   6.992
 4803AUL    AUL 4723  27.724  23.615   6.707
 4804THSLK    S 4724  27.711  23.869   6.677
 4805ETHY    C1 4725  27.494  23.683   6.322
 4806ETHY    C1 4726  27.219  23.548   5.879
 4807ETHY    C1 4727  26.938  23.518   5.429
 4808ETHY    C1 4728  26.660  23.587   4.978
 4809ETHY    C1 4729  26.392  23.755   4.537
 4810THSLK    S 4730  27.778  23.328   6.872
 4811ETHY    C1 4731  27.493  23.007   6.717
 4812ETHY    C1 4732  27.192  22.648   6.453
 4813ETHY    C1 4733  26.947  22.325   6.109
 4814ETHY    C1 4734  26.763  22.042   5.696
 4815ETHY    C1 4735  26.644  21.802   5.223
 4816AUSL   AUS 4736  28.052  24.070   6.828
 4817AUSL   AUS 4737  27.705  24.183   7.085
 4818AUL    AUL 4738  27.724  24.222   6.707
 4819THSLK    S 4739  27.574  24.313   6.893
 4820ETHY    C1 4740  27.368  24.413   6.499
 4821ETHY    C1 4741  27.066  24.577   6.085
 4822ETHY    C1 4742  26.712  24.789   5.748
 4823ETHY    C1 4743  26.319  25.043   5.494
 4824ETHY    C1 4744  25.894  25.336   5.324
 4825THSLK    S 4745  27.973  24.029   6.571
 4826ETHY    C1 4746  27.896  23.917   6.136
 4827ETHY    C1 4747  27.780  23.872   5.612
 4828ETHY    C1 4748  27.644  23.928   5.101
 4829ETHY    C1 4749  27.494  24.082   4.613
 4830ETHY    C1 4750  27.334  24.327   4.156
 4831AUSL   AUS 4751  28.795  24.328   7.502
 4832AUSL   AUS 4752  28.725  24.183   7.085
 4833AUL    AUL 4753  29.009  24.409   7.198
 4834THSLK    S 4754  28.904  24.286   6.930
 4835ETHY    C1 4755  29.271  24.297   6.659
 4836ETHY    C1 4756  29.686  24.399   6.332
 4837ETHY    C1 4757  30.064  24.597   6.014
 4838ETHY    C1 4758  30.398  24.884   5.713
 4839ETHY    C1 4759  30.684  25.254   5.438
 4840THSLK    S 4760  29.063  24.384   7.506
 4841ETHY    C1 4761  29.515  24.445   7.508
 4842ETHY    C1 4762  30.029  24.604   7.507
 4843ETHY    C1 4763  30.497  24.858   7.505
 4844ETHY    C1 4764  30.910  25.195   7.506
 4845ETHY    C1 4765  31.262  25.609   7.509
 4846AUSL   AUS 4766  28.889  24.082   7.350
 4847AUSL   AUS 4767  28.889  23.755   7.653
 4848AUL    AUL 4768  29.197  23.919   7.502
 4849THSLK    S 4769  29.148  24.125   7.348
 4850ETHY    C1 4770  29.593  24.055   7.278
 4851ETHY    C1 4771  30.124  24.062   7.190
 4852ETHY    C1 4772  30.637  24.172   7.101
 4853ETHY    C1 4773  31.122  24.378   7.017
 4854ETHY    C1 4774  31.569  24.675   6.940
 4855THSLK    S 4775  29.121  23.617   7.662
 4856ETHY    C1 4776  29.467  23.328   7.728
 4857ETHY    C1 4777  29.928  23.061   7.809
 4858ETHY    C1 4778  30.425  22.892   7.892
 4859ETHY    C1 4779  30.946  22.820   7.980
 4860ETHY    C1 4780  31.481  22.846   8.071
 4861AUSL   AUS 4781  28.889  24.082   7.653
 4862AUSL   AUS 4782  28.632  24.429   7.766
 4863AUL    AUL 4783  29.009  24.409   7.805
 4864THSLK    S 4784  28.815  24.548   7.926
 4865ETHY    C1 4785  29.187  24.703   8.139
 4866ETHY    C1 4786  29.587  24.968   8.385
 4867ETHY    C1 4787  29.921  25.312   8.615
 4868ETHY    C1 4788  30.183  25.725   8.827
 4869ETHY    C1 4789  30.370  26.197   9.019
 4870THSLK    S 4790  29.147  24.125   7.664
 4871ETHY    C1 4791  29.591  24.055   7.738
 4872ETHY    C1 4792  30.122  24.062   7.825
 4873ETHY    C1 4793  30.636  24.172   7.910
 4874ETHY    C1 4794  31.120  24.378   7.994
 4875ETHY    C1 4795  31.567  24.675   8.078
 4876AUSL   AUS 4796  27.635  24.328   7.502
 4877AUSL   AUS 4797  27.705  24.183   7.918
 4878AUL    AUL 4798  27.421  24.409   7.805
 4879THSLK    S 4799  27.569  24.306   8.109
 4880ETHY    C1 4800  27.360  24.402   8.503
 4881ETHY    C1 4801  27.059  24.568   8.917
 4882ETHY    C1 4802  26.708  24.783   9.254
 4883ETHY    C1 4803  26.314  25.037   9.509
 4884ETHY    C1 4804  25.885  25.324   9.678
 4885THSLK    S 4805  27.419  24.468   7.506
 4886ETHY    C1 4806  27.163  24.846   7.508
 4887ETHY    C1 4807  26.790  25.234   7.507
 4888ETHY    C1 4808  26.354  25.540   7.505
 4889ETHY    C1 4809  25.868  25.758   7.506
 4890ETHY    C1 4810  25.341  25.888   7.509
 4891AUSL   AUS 4811  27.541  24.082   7.350
 4892AUSL   AUS 4812  27.799  24.429   7.237
 4893AUL    AUL 4813  27.421  24.409   7.198
 4894THSLK    S 4814  27.310  24.197   7.303
 4895ETHY    C1 4815  26.963  24.385   7.075
 4896ETHY    C1 4816  26.503  24.577   6.872
 4897ETHY    C1 4817  26.005  24.727   6.758
 4898ETHY    C1 4818  25.484  24.837   6.733
 4899ETHY    C1 4819  24.950  24.907   6.796
 4900THSLK    S 4820  27.683  24.594   7.058
 4901ETHY    C1 4821  27.567  24.910   6.750
 4902ETHY    C1 4822  27.353  25.288   6.432
 4903ETHY    C1 4823  27.061  25.657   6.183
 4904ETHY    C1 4824  26.703  26.010   6.008
 4905ETHY    C1 4825  26.285  26.343   5.909
 4906AUSL   AUS 4826  27.541  24.082   7.653
 4907AUSL   AUS 4827  27.541  23.755   7.350
 4908AUL    AUL 4828  27.233  23.919   7.502
 4909THSLK    S 4829  27.283  23.681   7.390
 4910ETHY    C1 4830  26.839  23.646   7.486
 4911ETHY    C1 4831  26.308  23.565   7.518
 4912ETHY    C1 4832  25.794  23.440   7.458
 4913ETHY    C1 4833  25.310  23.272   7.311
 4914ETHY    C1 4834  24.863  23.065   7.083
 4915THSLK    S 4835  27.308  24.189   7.704
 4916ETHY    C1 4836  26.961  24.373   7.935
 4917ETHY    C1 4837  26.501  24.566   8.137
 4918ETHY    C1 4838  26.004  24.721   8.249
 4919ETHY    C1 4839  25.483  24.831   8.274
 4920ETHY    C1 4840  24.947  24.894   8.213
 4921AUSL   AUS 4841  28.795  23.509   7.502
 4922AUSL   AUS 4842  28.725  23.654   7.918
 4923AUL    AUL 4843  29.009  23.428   7.805
 4924THSLK    S 4844  29.011  23.369   7.506
 4925ETHY    C1 4845  29.267  22.991   7.508
 4926ETHY    C1 4846  29.640  22.603   7.507
 4927ETHY    C1 4847  30.076  22.297   7.505
 4928ETHY    C1 4848  30.562  22.079   7.506
 4929ETHY    C1 4849  31.089  21.949   7.509
 4930THSLK    S 4850  28.857  23.464   8.066
 4931ETHY    C1 4851  29.062  23.121   8.285
 4932ETHY    C1 4852  29.364  22.779   8.570
 4933ETHY    C1 4853  29.718  22.526   8.877
 4934ETHY    C1 4854  30.112  22.363   9.198
 4935ETHY    C1 4855  30.536  22.293   9.529
 4936AUSL   AUS 4856  28.889  23.755   7.350
 4937AUSL   AUS 4857  28.632  23.408   7.237
 4938AUL    AUL 4858  29.009  23.428   7.198
 4939THSLK    S 4859  29.122  23.617   7.350
 4940ETHY    C1 4860  29.470  23.328   7.289
 4941ETHY    C1 4861  29.929  23.061   7.206
 4942ETHY    C1 4862  30.426  22.892   7.118
 4943ETHY    C1 4863  30.948  22.820   7.031
 4944ETHY    C1 4864  31.483  22.846   6.947
 4945THSLK    S 4865  28.751  23.218   7.104
 4946ETHY    C1 4866  28.868  22.801   6.963
 4947ETHY    C1 4867  29.082  22.347   6.765
 4948ETHY    C1 4868  29.372  21.961   6.543
 4949ETHY    C1 4869  29.731  21.646   6.306
 4950ETHY    C1 4870  30.151  21.407   6.058
 4951AUSL   AUS 4871  27.635  23.509   7.502
 4952AUSL   AUS 4872  27.705  23.654   7.085
 4953AUL    AUL 4873  27.421  23.428   7.198
 4954THSLK    S 4874  27.532  23.483   6.973
 4955ETHY    C1 4875  27.167  23.226   6.877
 4956ETHY    C1 4876  26.751  22.949   6.679
 4957ETHY    C1 4877  26.371  22.712   6.392
 4958ETHY    C1 4878  26.037  22.516   6.025
 4959ETHY    C1 4879  25.755  22.364   5.587
 4960THSLK    S 4880  27.367  23.453   7.506
 4961ETHY    C1 4881  26.915  23.392   7.508
 4962ETHY    C1 4882  26.401  23.233   7.507
 4963ETHY    C1 4883  25.933  22.979   7.505
 4964ETHY    C1 4884  25.520  22.642   7.506
 4965ETHY    C1 4885  25.168  22.228   7.509
 4966AUSL   AUS 4886  27.541  23.755   7.653
 4967AUSL   AUS 4887  27.799  23.408   7.766
 4968AUL    AUL 4888  27.421  23.428   7.805
 4969THSLK    S 4889  27.611  23.264   7.880
 4970ETHY    C1 4890  27.237  23.007   7.926
 4971ETHY    C1 4891  26.839  22.667   8.052
 4972ETHY    C1 4892  26.506  22.305   8.255
 4973ETHY    C1 4893  26.244  21.931   8.529
 4974ETHY    C1 4894  26.053  21.553   8.870
 4975THSLK    S 4895  27.282  23.688   7.617
 4976ETHY    C1 4896  26.837  23.658   7.524
 4977ETHY    C1 4897  26.306  23.576   7.490
 4978ETHY    C1 4898  25.793  23.447   7.549
 4979ETHY    C1 4899  25.309  23.279   7.696
 4980ETHY    C1 4900  24.861  23.077   7.928
 4981AUSL   AUS 4901  28.215  24.499   7.911
 4982AUSL   AUS 4902  27.799  24.429   7.766
 4983AUL    AUL 4903  27.912  24.713   7.992
 4984THSLK    S 4904  27.679  24.588   7.950
 4985ETHY    C1 4905  27.562  24.900   8.261
 4986ETHY    C1 4906  27.348  25.280   8.578
 4987ETHY    C1 4907  27.058  25.651   8.824
 4988ETHY    C1 4908  26.700  26.005   9.000
 4989ETHY    C1 4909  26.279  26.333   9.102
 4990THSLK    S 4910  28.255  24.725   8.035
 4991ETHY    C1 4911  28.412  25.027   8.339
 4992ETHY    C1 4912  28.527  25.433   8.672
 4993ETHY    C1 4913  28.554  25.877   8.964
 4994ETHY    C1 4914  28.494  26.346   9.211
 4995ETHY    C1 4915  28.350  26.830   9.410
 4996AUSL   AUS 4916  28.063  24.592   7.665
 4997AUSL   AUS 4917  28.367  24.592   7.338
 4998AUL    AUL 4918  28.215  24.900   7.502
 4999THSLK    S 4919  28.104  24.840   7.774
 5000ETHY    C1 4920  28.213  25.250   7.942
 5001ETHY    C1 4921  28.257  25.757   8.118
 5002ETHY    C1 4922  28.200  26.265   8.265
 5003ETHY    C1 4923  28.047  26.762   8.383
 5004ETHY    C1 4924  27.804  27.239   8.472
 5005THSLK    S 4925  28.420  24.827   7.241
 5006ETHY    C1 4926  28.665  25.183   7.094
 5007ETHY    C1 4927  28.878  25.648   6.927
 5008ETHY    C1 4928  28.993  26.146   6.779
 5009ETHY    C1 4929  29.013  26.665   6.655
 5010ETHY    C1 4930  28.938  27.194   6.558
 5011AUSL   AUS 4931  28.367  24.592   7.665
 5012AUSL   AUS 4932  28.480  24.335   8.012
 5013AUL    AUL 4933  28.518  24.713   7.992
 5014THSLK    S 4934  28.652  24.448   8.184
 5015ETHY    C1 4935  28.937  24.551   8.524
 5016ETHY    C1 4936  29.239  24.755   8.921
 5017ETHY    C1 4937  29.484  25.045   9.294
 5018ETHY    C1 4938  29.668  25.408   9.638
 5019ETHY    C1 4939  29.787  25.838   9.948
 5020THSLK    S 4940  28.418  24.826   7.771
 5021ETHY    C1 4941  28.662  25.180   7.922
 5022ETHY    C1 4942  28.875  25.646   8.087
 5023ETHY    C1 4943  28.991  26.145   8.231
 5024ETHY    C1 4944  29.010  26.663   8.356
 5025ETHY    C1 4945  28.935  27.191   8.458
 5026AUSL   AUS 4946  28.215  23.339   7.911
 5027AUSL   AUS 4947  28.632  23.408   7.766
 5028AUL    AUL 4948  28.518  23.124   7.992
 5029THSLK    S 4949  28.171  23.084   7.990
 5030ETHY    C1 4950  28.011  22.680   8.128
 5031ETHY    C1 4951  27.897  22.199   8.341
 5032ETHY    C1 4952  27.872  21.738   8.605
 5033ETHY    C1 4953  27.931  21.308   8.915
 5034ETHY    C1 4954  28.072  20.916   9.263
 5035THSLK    S 4955  28.747  23.219   7.908
 5036ETHY    C1 4956  28.863  22.803   8.052
 5037ETHY    C1 4957  29.077  22.350   8.248
 5038ETHY    C1 4958  29.369  21.962   8.467
 5039ETHY    C1 4959  29.728  21.647   8.705
 5040ETHY    C1 4960  30.145  21.410   8.958
 5041AUSL   AUS 4961  28.063  23.245   7.665
 5042AUSL   AUS 4962  27.950  23.502   8.012
 5043AUL    AUL 4963  27.912  23.124   7.992
 5044THSLK    S 4964  28.010  23.005   7.745
 5045ETHY    C1 4965  27.765  22.624   7.801
 5046ETHY    C1 4966  27.552  22.139   7.897
 5047ETHY    C1 4967  27.437  21.636   8.025
 5048ETHY    C1 4968  27.418  21.127   8.186
 5049ETHY    C1 4969  27.492  20.624   8.374
 5050THSLK    S 4970  27.772  23.334   8.133
 5051ETHY    C1 4971  27.484  23.016   8.289
 5052ETHY    C1 4972  27.184  22.656   8.552
 5053ETHY    C1 4973  26.941  22.330   8.896
 5054ETHY    C1 4974  26.757  22.047   9.309
 5055ETHY    C1 4975  26.633  21.813   9.783
 5056AUSL   AUS 4976  28.367  23.245   7.665
 5057AUSL   AUS 4977  28.063  23.245   7.338
 5058AUL    AUL 4978  28.215  22.937   7.502
 5059THSLK    S 4979  28.012  23.002   7.266
 5060ETHY    C1 4980  27.768  22.620   7.215
 5061ETHY    C1 4981  27.555  22.136   7.117
 5062ETHY    C1 4982  27.439  21.634   6.984
 5063ETHY    C1 4983  27.420  21.125   6.825
 5064ETHY    C1 4984  27.496  20.620   6.642
 5065THSLK    S 4985  28.324  22.989   7.749
 5066ETHY    C1 4986  28.214  22.553   7.821
 5067ETHY    C1 4987  28.171  22.027   7.928
 5068ETHY    C1 4988  28.228  21.515   8.059
 5069ETHY    C1 4989  28.381  21.027   8.213
 5070ETHY    C1 4990  28.623  20.574   8.388
 5071AUSL   AUS 4991  28.215  24.499   7.093
 5072AUSL   AUS 4992  28.632  24.429   7.237
 5073AUL    AUL 4993  28.518  24.713   7.011
 5074THSLK    S 4994  28.259  24.729   6.975
 5075ETHY    C1 4995  28.419  25.033   6.674
 5076ETHY    C1 4996  28.533  25.438   6.339
 5077ETHY    C1 4997  28.558  25.881   6.045
 5078ETHY    C1 4998  28.499  26.350   5.798
 5079ETHY    C1 4999  28.358  26.837   5.604
 5080THSLK    S 5000  28.819  24.550   7.085
 5081ETHY    C1 5001  29.193  24.706   6.876
 5082ETHY    C1 5002  29.591  24.970   6.629
 5083ETHY    C1 5003  29.924  25.314   6.395
 5084ETHY    C1 5004  30.186  25.726   6.184
 5085ETHY    C1 5005  30.377  26.200   5.998
 5086AUSL   AUS 5006  28.063  24.592   7.338
 5087AUSL   AUS 5007  27.950  24.335   6.992
 5088AUL    AUL 5008  27.912  24.713   7.011
 5089THSLK    S 5009  28.106  24.843   7.237
 5090ETHY    C1 5010  28.216  25.254   7.074
 5091ETHY    C1 5011  28.259  25.760   6.896
 5092ETHY    C1 5012  28.202  26.268   6.745
 5093ETHY    C1 5013  28.049  26.765   6.627
 5094ETHY    C1 5014  27.807  27.244   6.545
 5095THSLK    S 5015  27.836  24.470   6.802
 5096ETHY    C1 5016  27.770  24.642   6.385
 5097ETHY    C1 5017  27.627  24.894   5.932
 5098ETHY    C1 5018  27.418  25.193   5.544
 5099ETHY    C1 5019  27.152  25.531   5.230
 5100ETHY    C1 5020  26.836  25.904   4.993
 5101AUSL   AUS 5021  28.215  23.339   7.093
 5102AUSL   AUS 5022  27.799  23.408   7.237
 5103AUL    AUL 5023  27.912  23.124   7.011
 5104THSLK    S 5024  27.615  23.258   7.128
 5105ETHY    C1 5025  27.243  22.997   7.085
 5106ETHY    C1 5026  26.844  22.659   6.958
 5107ETHY    C1 5027  26.509  22.300   6.753
 5108ETHY    C1 5028  26.247  21.926   6.478
 5109ETHY    C1 5029  26.060  21.543   6.142
 5110THSLK    S 5030  28.175  23.080   7.019
 5111ETHY    C1 5031  28.018  22.674   6.885
 5112ETHY    C1 5032  27.903  22.194   6.671
 5113ETHY    C1 5033  27.876  21.735   6.404
 5114ETHY    C1 5034  27.936  21.304   6.094
 5115ETHY    C1 5035  28.080  20.909   5.751
 5116AUSL   AUS 5036  28.367  23.245   7.338
 5117AUSL   AUS 5037  28.480  23.502   6.992
 5118AUL    AUL 5038  28.518  23.124   7.011
 5119THSLK    S 5039  28.326  22.988   7.262
 5120ETHY    C1 5040  28.217  22.550   7.195
 5121ETHY    C1 5041  28.174  22.024   7.086
 5122ETHY    C1 5042  28.230  21.513   6.951
 5123ETHY    C1 5043  28.383  21.025   6.798
 5124ETHY    C1 5044  28.627  20.571   6.629
 5125THSLK    S 5045  28.600  23.312   6.853
 5126ETHY    C1 5046  28.669  22.926   6.621
 5127ETHY    C1 5047  28.811  22.518   6.300
 5128ETHY    C1 5048  29.018  22.182   5.942
 5129ETHY    C1 5049  29.284  21.925   5.559
 5130ETHY    C1 5050  29.604  21.747   5.158
 5131POPC   NC3 5051  19.806  29.145   9.453
 5131POPC   PO4 5052  19.793  29.151   9.153
 5131POPC   GL1 5053  19.805  29.108   8.853
 5131POPC   GL2 5054  19.928  29.138   8.853
 5131POPC   C1A 5055  19.819  29.182   8.553
 5131POPC   D2A 5056  19.828  29.149   8.253
 5131POPC   C3A 5057  19.792  29.103   7.953
 5131POPC   C4A 5058  19.843  29.133   7.653
 5131POPC   C1B 5059  20.085  29.024   8.553
 5131POPC   C2B 5060  20.067  29.034   8.253
 5131POPC   C3B 5061  20.082  29.079   7.953
 5131POPC   C4B 5062  20.081  28.991   7.653
 5132POPC   NC3 5063  36.165   4.285   9.453
 5132POPC   PO4 5064  36.177   4.292   9.153
 5132POPC   GL1 5065  36.105   4.352   8.853
 5132POPC   GL2 5066  36.199   4.238   8.853
 5132POPC   C1A 5067  36.085   4.303   8.553
 5132POPC   D2A 5068  36.106   4.329   8.253
 5132POPC   C3A 5069  36.087   4.367   7.953
 5132POPC   C4A 5070  36.165   4.347   7.653
 5132POPC   C1B 5071  36.340   4.152   8.553
 5132POPC   C2B 5072  36.310   4.176   8.253
 5132POPC   C3B 5073  36.326   4.096   7.953
 5132POPC   C4B 5074  36.282   4.161   7.653
 5133POPC   NC3 5075  18.327   4.344   9.453
 5133POPC   PO4 5076  18.314   4.300   9.153
 5133POPC   GL1 5077  18.303   4.272   8.853
 5133POPC   GL2 5078  18.181   4.391   8.853
 5133POPC   C1A 5079  18.257   4.289   8.553
 5133POPC   D2A 5080  18.276   4.323   8.253
 5133POPC   C3A 5081  18.295   4.335   7.953
 5133POPC   C4A 5082  18.253   4.287   7.653
 5133POPC   C1B 5083  18.162   4.476   8.553
 5133POPC   C2B 5084  18.084   4.462   8.253
 5133POPC   C3B 5085  18.168   4.555   7.953
 5133POPC   C4B 5086  18.079   4.491   7.653
 5134POPC   NC3 5087   5.095  22.918   9.453
 5134POPC   PO4 5088   5.142  22.918   9.153
 5134POPC   GL1 5089   5.045  22.897   8.853
 5134POPC   GL2 5090   5.205  23.039   8.853
 5134POPC   C1A 5091   5.087  22.894   8.553
 5134POPC   D2A 5092   5.131  22.968   8.253
 5134POPC   C3A 5093   5.046  22.974   7.953
 5134POPC   C4A 5094   5.113  22.952   7.653
 5134POPC   C1B 5095   5.296  23.075   8.553
 5134POPC   C2B 5096   5.366  23.046   8.253
 5134POPC   C3B 5097   5.283  23.084   7.953
 5134POPC   C4B 5098   5.370  22.999   7.653
 5135POPC   NC3 5099  26.807  21.385   9.453
 5135POPC   PO4 5100  26.814  21.424   9.153
 5135POPC   GL1 5101  26.835  21.417   8.853
 5135POPC   GL2 5102  26.806  21.449   8.853
 5135POPC   C1A 5103  26.807  21.397   8.553
 5135POPC   D2A 5104  26.777  21.378   8.253
 5135POPC   C3A 5105  26.799  21.413   7.953
 5135POPC   C4A 5106  26.838  21.360   7.653
 5135POPC   C1B 5107  26.706  21.567   8.553
 5135POPC   C2B 5108  26.702  21.587   8.253
 5135POPC   C3B 5109  26.659  21.594   7.953
 5135POPC   C4B 5110  26.651  21.638   7.653
 5136POPC   NC3 5111   8.958   0.485   9.453
 5136POPC   PO4 5112   8.959   0.454   9.153
 5136POPC   GL1 5113   8.940   0.424   8.853
 5136POPC   GL2 5114   8.831   0.455   8.853
 5136POPC   C1A 5115   8.960   0.431   8.553
 5136POPC   D2A 5116   8.972   0.465   8.253
 5136POPC   C3A 5117   8.986   0.455   7.953
 5136POPC   C4A 5118   8.949   0.437   7.653
 5136POPC   C1B 5119   8.710   0.445   8.553
 5136POPC   C2B 5120   8.712   0.467   8.253
 5136POPC   C3B 5121   8.678   0.391   7.953
 5136POPC   C4B 5122   8.693   0.422   7.653
 5137POPC   NC3 5123  43.913  34.560   9.453
 5137POPC   PO4 5124  43.916  34.570   9.153
 5137POPC   GL1 5125  43.910  34.536   8.853
 5137POPC   GL2 5126  43.959  34.664   8.853
 5137POPC   C1A 5127  43.920  34.624   8.553
 5137POPC   D2A 5128  43.845  34.590   8.253
 5137POPC   C3A 5129  43.906  34.560   7.953
 5137POPC   C4A 5130  43.934  34.601   7.653
 5137POPC   C1B 5131  44.137  34.640   8.553
 5137POPC   C2B 5132  44.129  34.699   8.253
 5137POPC   C3B 5133  44.169  34.620   7.953
 5137POPC   C4B 5134  44.108  34.641   7.653
 5138POPC   NC3 5135  42.312  38.418   9.453
 5138POPC   PO4 5136  42.354  38.491   9.153
 5138POPC   GL1 5137  42.369  38.437   8.853
 5138POPC   GL2 5138  42.214  38.584   8.853
 5138POPC   C1A 5139  42.324  38.465   8.553
 5138POPC   D2A 5140  42.381  38.408   8.253
 5138POPC   C3A 5141  42.365  38.484   7.953
 5138POPC   C4A 5142  42.304  38.457   7.653
 5138POPC   C1B 5143  42.156  38.619   8.553
 5138POPC   C2B 5144  42.158  38.669   8.253
 5138POPC   C3B 5145  42.184  38.636   7.953
 5138POPC   C4B 5146  42.169  38.617   7.653
 5139POPC   NC3 5147   0.395  32.261   9.453
 5139POPC   PO4 5148   0.441  32.235   9.153
 5139POPC   GL1 5149   0.476  32.205   8.853
 5139POPC   GL2 5150   0.417  32.364   8.853
 5139POPC   C1A 5151   0.464  32.266   8.553
 5139POPC   D2A 5152   0.425  32.262   8.253
 5139POPC   C3A 5153   0.472  32.224   7.953
 5139POPC   C4A 5154   0.403  32.273   7.653
 5139POPC   C1B 5155   0.317  32.458   8.553
 5139POPC   C2B 5156   0.411  32.474   8.253
 5139POPC   C3B 5157   0.330  32.526   7.953
 5139POPC   C4B 5158   0.391  32.455   7.653
 5140POPC   NC3 5159  38.480  20.635   9.453
 5140POPC   PO4 5160  38.413  20.643   9.153
 5140POPC   GL1 5161  38.423  20.611   8.853
 5140POPC   GL2 5162  38.376  20.535   8.853
 5140POPC   C1A 5163  38.463  20.633   8.553
 5140POPC   D2A 5164  38.414  20.610   8.253
 5140POPC   C3A 5165  38.448  20.608   7.953
 5140POPC   C4A 5166  38.418  20.586   7.653
 5140POPC   C1B 5167  38.297  20.362   8.553
 5140POPC   C2B 5168  38.377  20.393   8.253
 5140POPC   C3B 5169  38.300  20.423   7.953
 5140POPC   C4B 5170  38.302  20.388   7.653
 5141POPC   NC3 5171  31.474  42.323   9.453
 5141POPC   PO4 5172  31.488  42.350   9.153
 5141POPC   GL1 5173  31.478  42.341   8.853
 5141POPC   GL2 5174  31.593  42.209   8.853
 5141POPC   C1A 5175  31.496  42.352   8.553
 5141POPC   D2A 5176  31.428  42.345   8.253
 5141POPC   C3A 5177  31.447  42.297   7.953
 5141POPC   C4A 5178  31.460  42.383   7.653
 5141POPC   C1B 5179  31.623  42.130   8.553
 5141POPC   C2B 5180  31.656  42.202   8.253
 5141POPC   C3B 5181  31.667  42.154   7.953
 5141POPC   C4B 5182  31.606  42.109   7.653
 5142POPC   NC3 5183  25.308  29.899   9.453
 5142POPC   PO4 5184  25.292  29.905   9.153
 5142POPC   GL1 5185  25.311  29.911   8.853
 5142POPC   GL2 5186  25.142  29.852   8.853
 5142POPC   C1A 5187  25.249  29.900   8.553
 5142POPC   D2A 5188  25.272  29.919   8.253
 5142POPC   C3A 5189  25.311  29.901   7.953
 5142POPC   C4A 5190  25.280  29.876   7.653
 5142POPC   C1B 5191  24.992  29.834   8.553
 5142POPC   C2B 5192  25.019  29.817   8.253
 5142POPC   C3B 5193  25.024  29.826   7.953
 5142POPC   C4B 5194  25.011  29.880   7.653
 5143POPC   NC3 5195  36.905  22.190   9.453
 5143POPC   PO4 5196  36.868  22.144   9.153
 5143POPC   GL1 5197  36.950  22.211   8.853
 5143POPC   GL2 5198  36.931  22.044   8.853
 5143POPC   C1A 5199  36.864  22.132   8.553
 5143POPC   D2A 5200  36.871  22.183   8.253
 5143POPC   C3A 5201  36.932  22.166   7.953
 5143POPC   C4A 5202  36.885  22.130   7.653
 5143POPC   C1B 5203  37.041  21.944   8.553
 5143POPC   C2B 5204  36.970  21.887   8.253
 5143POPC   C3B 5205  37.003  21.914   7.953
 5143POPC   C4B 5206  36.968  21.898   7.653
 5144POPC   NC3 5207  36.869  44.648   9.453
 5144POPC   PO4 5208  36.895  44.614   9.153
 5144POPC   GL1 5209  36.938  44.638   8.853
 5144POPC   GL2 5210  36.760  44.650   8.853
 5144POPC   C1A 5211  36.891  44.695   8.553
 5144POPC   D2A 5212  36.948  44.626   8.253
 5144POPC   C3A 5213  36.857  44.661   7.953
 5144POPC   C4A 5214  36.916  44.701   7.653
 5144POPC   C1B 5215  36.689  44.746   8.553
 5144POPC   C2B 5216  36.661  44.702   8.253
 5144POPC   C3B 5217  36.609  44.728   7.953
 5144POPC   C4B 5218  36.686  44.698   7.653
 5145POPC   NC3 5219  34.564  34.574   9.453
 5145POPC   PO4 5220  34.611  34.594   9.153
 5145POPC   GL1 5221  34.570  34.531   8.853
 5145POPC   GL2 5222  34.693  34.647   8.853
 5145POPC   C1A 5223  34.619  34.578   8.553
 5145POPC   D2A 5224  34.620  34.547   8.253
 5145POPC   C3A 5225  34.540  34.536   7.953
 5145POPC   C4A 5226  34.575  34.569   7.653
 5145POPC   C1B 5227  34.838  34.632   8.553
 5145POPC   C2B 5228  34.789  34.634   8.253
 5145POPC   C3B 5229  34.786  34.573   7.953
 5145POPC   C4B 5230  34.861  34.589   7.653
 5146POPC   NC3 5231  41.523   5.123   9.453
 5146POPC   PO4 5232  41.581   5.104   9.153
 5146POPC   GL1 5233  41.519   5.094   8.853
 5146POPC   GL2 5234  41.715   4.998   8.853
 5146POPC   C1A 5235  41.592   5.104   8.553
 5146POPC   D2A 5236  41.564   5.115   8.253
 5146POPC   C3A 5237  41.572   5.078   7.953
 5146POPC   C4A 5238  41.596   5.118   7.653
 5146POPC   C1B 5239  41.816   4.934   8.553
 5146POPC   C2B 5240  41.825   5.004   8.253
 5146POPC   C3B 5241  41.814   4.953   7.953
 5146POPC   C4B 5242  41.805   4.982   7.653
 5147POPC   NC3 5243  11.321   0.467   9.453
 5147POPC   PO4 5244  11.299   0.402   9.153
 5147POPC   GL1 5245  11.254   0.479   8.853
 5147POPC   GL2 5246  11.128   0.429   8.853
 5147POPC   C1A 5247  11.304   0.443   8.553
 5147POPC   D2A 5248  11.260   0.432   8.253
 5147POPC   C3A 5249  11.327   0.433   7.953
 5147POPC   C4A 5250  11.260   0.420   7.653
 5147POPC   C1B 5251  11.032   0.438   8.553
 5147POPC   C2B 5252  11.100   0.398   8.253
 5147POPC   C3B 5253  11.070   0.443   7.953
 5147POPC   C4B 5254  11.046   0.372   7.653
 5148POPC   NC3 5255   0.466  36.091   9.453
 5148POPC   PO4 5256   0.469  36.163   9.153
 5148POPC   GL1 5257   0.479  36.159   8.853
 5148POPC   GL2 5258   0.285  36.162   8.853
 5148POPC   C1A 5259   0.453  36.126   8.553
 5148POPC   D2A 5260   0.392  36.154   8.253
 5148POPC   C3A 5261   0.416  36.078   7.953
 5148POPC   C4A 5262   0.405  36.101   7.653
 5148POPC   C1B 5263   0.195  36.235   8.553
 5148POPC   C2B 5264   0.177  36.248   8.253
 5148POPC   C3B 5265   0.231  36.172   7.953
 5148POPC   C4B 5266   0.213  36.195   7.653
 5149POPC   NC3 5267  42.305  17.468   9.453
 5149POPC   PO4 5268  42.339  17.473   9.153
 5149POPC   GL1 5269  42.370  17.556   8.853
 5149POPC   GL2 5270  42.221  17.473   8.853
 5149POPC   C1A 5271  42.291  17.494   8.553
 5149POPC   D2A 5272  42.369  17.486   8.253
 5149POPC   C3A 5273  42.303  17.510   7.953
 5149POPC   C4A 5274  42.295  17.501   7.653
 5149POPC   C1B 5275  42.074  17.474   8.553
 5149POPC   C2B 5276  42.080  17.440   8.253
 5149POPC   C3B 5277  42.120  17.521   7.953
 5149POPC   C4B 5278  42.060  17.504   7.653
 5150POPC   NC3 5279  15.180  33.755   9.453
 5150POPC   PO4 5280  15.141  33.786   9.153
 5150POPC   GL1 5281  15.211  33.783   8.853
 5150POPC   GL2 5282  15.260  33.705   8.853
 5150POPC   C1A 5283  15.229  33.752   8.553
 5150POPC   D2A 5284  15.149  33.795   8.253
 5150POPC   C3A 5285  15.163  33.845   7.953
 5150POPC   C4A 5286  15.150  33.789   7.653
 5150POPC   C1B 5287  15.267  33.607   8.553
 5150POPC   C2B 5288  15.257  33.563   8.253
 5150POPC   C3B 5289  15.320  33.593   7.953
 5150POPC   C4B 5290  15.262  33.568   7.653
 5151POPC   NC3 5291  41.542   1.950   9.453
 5151POPC   PO4 5292  41.606   2.006   9.153
 5151POPC   GL1 5293  41.537   1.950   8.853
 5151POPC   GL2 5294  41.470   2.101   8.853
 5151POPC   C1A 5295  41.535   2.024   8.553
 5151POPC   D2A 5296  41.590   2.003   8.253
 5151POPC   C3A 5297  41.534   1.955   7.953
 5151POPC   C4A 5298  41.551   1.966   7.653
 5151POPC   C1B 5299  41.437   2.271   8.553
 5151POPC   C2B 5300  41.513   2.219   8.253
 5151POPC   C3B 5301  41.491   2.175   7.953
 5151POPC   C4B 5302  41.458   2.248   7.653
 5152POPC   NC3 5303   8.925  24.505   9.453
 5152POPC   PO4 5304   8.958  24.502   9.153
 5152POPC   GL1 5305   9.021  24.474   8.853
 5152POPC   GL2 5306   9.042  24.440   8.853
 5152POPC   C1A 5307   9.021  24.459   8.553
 5152POPC   D2A 5308   8.988  24.443   8.253
 5152POPC   C3A 5309   8.945  24.514   7.953
 5152POPC   C4A 5310   9.017  24.473   7.653
 5152POPC   C1B 5311   9.161  24.261   8.553
 5152POPC   C2B 5312   9.135  24.267   8.253
 5152POPC   C3B 5313   9.129  24.277   7.953
 5152POPC   C4B 5314   9.174  24.311   7.653
 5153POPC   NC3 5315  37.649  30.691   9.453
 5153POPC   PO4 5316  37.699  30.709   9.153
 5153POPC   GL1 5317  37.670  30.663   8.853
 5153POPC   GL2 5318  37.800  30.700   8.853
 5153POPC   C1A 5319  37.683  30.652   8.553
 5153POPC   D2A 5320  37.655  30.659   8.253
 5153POPC   C3A 5321  37.635  30.703   7.953
 5153POPC   C4A 5322  37.664  30.711   7.653
 5153POPC   C1B 5323  37.907  30.590   8.553
 5153POPC   C2B 5324  37.878  30.671   8.253
 5153POPC   C3B 5325  37.961  30.593   7.953
 5153POPC   C4B 5326  37.890  30.671   7.653
 5154POPC   NC3 5327  44.690  30.660   9.453
 5154POPC   PO4 5328  44.694  30.701   9.153
 5154POPC   GL1 5329  44.665  30.679   8.853
 5154POPC   GL2 5330  44.815  30.727   8.853
 5154POPC   C1A 5331  44.691  30.653   8.553
 5154POPC   D2A 5332  44.711  30.684   8.253
 5154POPC   C3A 5333  44.700  30.662   7.953
 5154POPC   C4A 5334  44.670  30.657   7.653
 5154POPC   C1B 5335  44.899  30.745   8.553
 5154POPC   C2B 5336  44.882  30.743   8.253
 5154POPC   C3B 5337  44.871  30.785   7.953
 5154POPC   C4B 5338  44.931  30.719   7.653
 5155POPC   NC3 5339  33.824   8.949   9.453
 5155POPC   PO4 5340  33.772   8.972   9.153
 5155POPC   GL1 5341  33.808   9.019   8.853
 5155POPC   GL2 5342  33.769   9.130   8.853
 5155POPC   C1A 5343  33.799   9.020   8.553
 5155POPC   D2A 5344  33.831   9.007   8.253
 5155POPC   C3A 5345  33.772   9.007   7.953
 5155POPC   C4A 5346  33.756   8.950   7.653
 5155POPC   C1B 5347  33.681   9.237   8.553
 5155POPC   C2B 5348  33.642   9.209   8.253
 5155POPC   C3B 5349  33.717   9.193   7.953
 5155POPC   C4B 5350  33.685   9.202   7.653
 5156POPC   NC3 5351   2.745   8.240   9.453
 5156POPC   PO4 5352   2.745   8.217   9.153
 5156POPC   GL1 5353   2.757   8.223   8.853
 5156POPC   GL2 5354   2.654   8.244   8.853
 5156POPC   C1A 5355   2.719   8.223   8.553
 5156POPC   D2A 5356   2.725   8.180   8.253
 5156POPC   C3A 5357   2.796   8.164   7.953
 5156POPC   C4A 5358   2.801   8.187   7.653
 5156POPC   C1B 5359   2.550   8.391   8.553
 5156POPC   C2B 5360   2.553   8.338   8.253
 5156POPC   C3B 5361   2.600   8.344   7.953
 5156POPC   C4B 5362   2.545   8.374   7.653
 5157POPC   NC3 5363  16.697  30.678   9.453
 5157POPC   PO4 5364  16.727  30.716   9.153
 5157POPC   GL1 5365  16.735  30.656   8.853
 5157POPC   GL2 5366  16.648  30.584   8.853
 5157POPC   C1A 5367  16.779  30.655   8.553
 5157POPC   D2A 5368  16.763  30.691   8.253
 5157POPC   C3A 5369  16.774  30.696   7.953
 5157POPC   C4A 5370  16.726  30.737   7.653
 5157POPC   C1B 5371  16.563  30.518   8.553
 5157POPC   C2B 5372  16.551  30.533   8.253
 5157POPC   C3B 5373  16.469  30.520   7.953
 5157POPC   C4B 5374  16.472  30.565   7.653
 5158POPC   NC3 5375  35.323  44.615   9.453
 5158POPC   PO4 5376  35.359  44.668   9.153
 5158POPC   GL1 5377  35.347  44.635   8.853
 5158POPC   GL2 5378  35.348  44.501   8.853
 5158POPC   C1A 5379  35.360  44.674   8.553
 5158POPC   D2A 5380  35.388  44.622   8.253
 5158POPC   C3A 5381  35.371  44.676   7.953
 5158POPC   C4A 5382  35.304  44.654   7.653
 5158POPC   C1B 5383  35.250  44.442   8.553
 5158POPC   C2B 5384  35.233  44.430   8.253
 5158POPC   C3B 5385  35.277  44.403   7.953
 5158POPC   C4B 5386  35.273  44.420   7.653
 5159POPC   NC3 5387  33.847  41.571   9.453
 5159POPC   PO4 5388  33.821  41.525   9.153
 5159POPC   GL1 5389  33.779  41.527   8.853
 5159POPC   GL2 5390  33.667  41.518   8.853
 5159POPC   C1A 5391  33.795  41.580   8.553
 5159POPC   D2A 5392  33.787  41.549   8.253
 5159POPC   C3A 5393  33.773  41.545   7.953
 5159POPC   C4A 5394  33.820  41.581   7.653
 5159POPC   C1B 5395  33.544  41.416   8.553
 5159POPC   C2B 5396  33.533  41.426   8.253
 5159POPC   C3B 5397  33.563  41.458   7.953
 5159POPC   C4B 5398  33.569  41.412   7.653
 5160POPC   NC3 5399  30.676  44.693   9.453
 5160POPC   PO4 5400  30.729  44.694   9.153
 5160POPC   GL1 5401  30.650  44.662   8.853
 5160POPC   GL2 5402  30.805  44.576   8.853
 5160POPC   C1A 5403  30.697  44.615   8.553
 5160POPC   D2A 5404  30.717  44.659   8.253
 5160POPC   C3A 5405  30.673  44.695   7.953
 5160POPC   C4A 5406  30.737  44.699   7.653
 5160POPC   C1B 5407  30.890  44.453   8.553
 5160POPC   C2B 5408  30.902  44.507   8.253
 5160POPC   C3B 5409  30.850  44.470   7.953
 5160POPC   C4B 5410  30.888  44.475   7.653
 5161POPC   NC3 5411   8.965  22.201   9.453
 5161POPC   PO4 5412   8.965  22.181   9.153
 5161POPC   GL1 5413   8.996  22.205   8.853
 5161POPC   GL2 5414   8.944  22.314   8.853
 5161POPC   C1A 5415   8.961  22.119   8.553
 5161POPC   D2A 5416   9.021  22.129   8.253
 5161POPC   C3A 5417   8.969  22.120   7.953
 5161POPC   C4A 5418   8.951  22.158   7.653
 5161POPC   C1B 5419   8.969  22.418   8.553
 5161POPC   C2B 5420   8.905  22.367   8.253
 5161POPC   C3B 5421   8.908  22.364   7.953
 5161POPC   C4B 5422   8.915  22.373   7.653
 5162POPC   NC3 5423  42.357   2.815   9.453
 5162POPC   PO4 5424  42.366   2.741   9.153
 5162POPC   GL1 5425  42.360   2.747   8.853
 5162POPC   GL2 5426  42.243   2.862   8.853
 5162POPC   C1A 5427  42.334   2.733   8.553
 5162POPC   D2A 5428  42.344   2.748   8.253
 5162POPC   C3A 5429  42.315   2.738   7.953
 5162POPC   C4A 5430  42.312   2.767   7.653
 5162POPC   C1B 5431  42.147   3.011   8.553
 5162POPC   C2B 5432  42.233   2.922   8.253
 5162POPC   C3B 5433  42.183   3.001   7.953
 5162POPC   C4B 5434  42.194   2.966   7.653
 5163POPC   NC3 5435   5.896   5.137   9.453
 5163POPC   PO4 5436   5.895   5.140   9.153
 5163POPC   GL1 5437   5.916   5.067   8.853
 5163POPC   GL2 5438   5.978   4.986   8.853
 5163POPC   C1A 5439   5.830   5.076   8.553
 5163POPC   D2A 5440   5.899   5.078   8.253
 5163POPC   C3A 5441   5.835   5.051   7.953
 5163POPC   C4A 5442   5.887   5.068   7.653
 5163POPC   C1B 5443   6.098   4.917   8.553
 5163POPC   C2B 5444   6.038   4.944   8.253
 5163POPC   C3B 5445   6.057   5.003   7.953
 5163POPC   C4B 5446   6.077   4.980   7.653
 5164POPC   NC3 5447  37.649   8.989   9.453
 5164POPC   PO4 5448  37.658   8.976   9.153
 5164POPC   GL1 5449  37.669   8.965   8.853
 5164POPC   GL2 5450  37.606   8.990   8.853
 5164POPC   C1A 5451  37.705   8.976   8.553
 5164POPC   D2A 5452  37.696   8.933   8.253
 5164POPC   C3A 5453  37.678   9.000   7.953
 5164POPC   C4A 5454  37.660   8.957   7.653
 5164POPC   C1B 5455  37.478   9.014   8.553
 5164POPC   C2B 5456  37.448   9.060   8.253
 5164POPC   C3B 5457  37.436   9.051   7.953
 5164POPC   C4B 5458  37.461   9.044   7.653
 5165POPC   NC3 5459  19.829  19.071   9.453
 5165POPC   PO4 5460  19.842  19.074   9.153
 5165POPC   GL1 5461  19.807  19.046   8.853
 5165POPC   GL2 5462  19.874  18.919   8.853
 5165POPC   C1A 5463  19.811  19.013   8.553
 5165POPC   D2A 5464  19.840  19.100   8.253
 5165POPC   C3A 5465  19.857  19.078   7.953
 5165POPC   C4A 5466  19.846  19.012   7.653
 5165POPC   C1B 5467  19.836  18.842   8.553
 5165POPC   C2B 5468  19.864  18.802   8.253
 5165POPC   C3B 5469  19.901  18.822   7.953
 5165POPC   C4B 5470  19.856  18.782   7.653
 5166POPC   NC3 5471  16.714  26.013   9.453
 5166POPC   PO4 5472  16.682  26.012   9.153
 5166POPC   GL1 5473  16.774  26.012   8.853
 5166POPC   GL2 5474  16.702  25.867   8.853
 5166POPC   C1A 5475  16.702  26.036   8.553
 5166POPC   D2A 5476  16.722  26.082   8.253
 5166POPC   C3A 5477  16.728  26.045   7.953
 5166POPC   C4A 5478  16.770  26.032   7.653
 5166POPC   C1B 5479  16.783  25.783   8.553
 5166POPC   C2B 5480  16.689  25.815   8.253
 5166POPC   C3B 5481  16.720  25.830   7.953
 5166POPC   C4B 5482  16.768  25.810   7.653
 5167POPC   NC3 5483  34.572  16.768   9.453
 5167POPC   PO4 5484  34.557  16.700   9.153
 5167POPC   GL1 5485  34.538  16.718   8.853
 5167POPC   GL2 5486  34.645  16.779   8.853
 5167POPC   C1A 5487  34.544  16.691   8.553
 5167POPC   D2A 5488  34.574  16.765   8.253
 5167POPC   C3A 5489  34.574  16.737   7.953
 5167POPC   C4A 5490  34.588  16.758   7.653
 5167POPC   C1B 5491  34.820  16.871   8.553
 5167POPC   C2B 5492  34.779  16.792   8.253
 5167POPC   C3B 5493  34.766  16.839   7.953
 5167POPC   C4B 5494  34.836  16.822   7.653
 5168POPC   NC3 5495   0.461  19.808   9.453
 5168POPC   PO4 5496   0.397  19.851   9.153
 5168POPC   GL1 5497   0.394  19.809   8.853
 5168POPC   GL2 5498   0.545  19.848   8.853
 5168POPC   C1A 5499   0.475  19.875   8.553
 5168POPC   D2A 5500   0.414  19.811   8.253
 5168POPC   C3A 5501   0.438  19.794   7.953
 5168POPC   C4A 5502   0.434  19.813   7.653
 5168POPC   C1B 5503   0.645  19.970   8.553
 5168POPC   C2B 5504   0.699  19.934   8.253
 5168POPC   C3B 5505   0.670  19.912   7.953
 5168POPC   C4B 5506   0.621  19.914   7.653
 5169POPC   NC3 5507  23.734  35.314   9.453
 5169POPC   PO4 5508  23.692  35.369   9.153
 5169POPC   GL1 5509  23.683  35.382   8.853
 5169POPC   GL2 5510  23.847  35.369   8.853
 5169POPC   C1A 5511  23.749  35.383   8.553
 5169POPC   D2A 5512  23.681  35.352   8.253
 5169POPC   C3A 5513  23.690  35.385   7.953
 5169POPC   C4A 5514  23.702  35.318   7.653
 5169POPC   C1B 5515  24.003  35.295   8.553
 5169POPC   C2B 5516  24.000  35.351   8.253
 5169POPC   C3B 5517  24.003  35.326   7.953
 5169POPC   C4B 5518  23.991  35.377   7.653
 5170POPC   NC3 5519   3.514  43.934   9.453
 5170POPC   PO4 5520   3.581  43.881   9.153
 5170POPC   GL1 5521   3.524  43.878   8.853
 5170POPC   GL2 5522   3.504  43.948   8.853
 5170POPC   C1A 5523   3.500  43.921   8.553
 5170POPC   D2A 5524   3.509  43.868   8.253
 5170POPC   C3A 5525   3.506  43.849   7.953
 5170POPC   C4A 5526   3.565  43.845   7.653
 5170POPC   C1B 5527   3.430  44.128   8.553
 5170POPC   C2B 5528   3.422  44.125   8.253
 5170POPC   C3B 5529   3.455  44.051   7.953
 5170POPC   C4B 5530   3.451  44.135   7.653
 5171POPC   NC3 5531  33.762  31.466   9.453
 5171POPC   PO4 5532  33.788  31.432   9.153
 5171POPC   GL1 5533  33.758  31.462   8.853
 5171POPC   GL2 5534  33.697  31.516   8.853
 5171POPC   C1A 5535  33.826  31.519   8.553
 5171POPC   D2A 5536  33.823  31.470   8.253
 5171POPC   C3A 5537  33.757  31.497   7.953
 5171POPC   C4A 5538  33.816  31.492   7.653
 5171POPC   C1B 5539  33.575  31.553   8.553
 5171POPC   C2B 5540  33.534  31.514   8.253
 5171POPC   C3B 5541  33.586  31.516   7.953
 5171POPC   C4B 5542  33.521  31.524   7.653
 5172POPC   NC3 5543   8.171  22.915   9.453
 5172POPC   PO4 5544   8.203  22.950   9.153
 5172POPC   GL1 5545   8.213  22.988   8.853
 5172POPC   GL2 5546   8.088  22.910   8.853
 5172POPC   C1A 5547   8.188  22.925   8.553
 5172POPC   D2A 5548   8.237  22.951   8.253
 5172POPC   C3A 5549   8.218  22.968   7.953
 5172POPC   C4A 5550   8.223  22.930   7.653
 5172POPC   C1B 5551   7.955  22.994   8.553
 5172POPC   C2B 5552   7.987  22.971   8.253
 5172POPC   C3B 5553   7.951  22.922   7.953
 5172POPC   C4B 5554   7.949  22.986   7.653
 5173POPC   NC3 5555  10.504   4.276   9.453
 5173POPC   PO4 5556  10.539   4.309   9.153
 5173POPC   GL1 5557  10.572   4.306   8.853
 5173POPC   GL2 5558  10.601   4.435   8.853
 5173POPC   C1A 5559  10.480   4.332   8.553
 5173POPC   D2A 5560  10.496   4.358   8.253
 5173POPC   C3A 5561  10.481   4.365   7.953
 5173POPC   C4A 5562  10.538   4.289   7.653
 5173POPC   C1B 5563  10.682   4.494   8.553
 5173POPC   C2B 5564  10.639   4.512   8.253
 5173POPC   C3B 5565  10.722   4.477   7.953
 5173POPC   C4B 5566  10.677   4.512   7.653
 5174POPC   NC3 5567   9.013  27.642   9.453
 5174POPC   PO4 5568   8.969  27.619   9.153
 5174POPC   GL1 5569   8.948  27.561   8.853
 5174POPC   GL2 5570   8.950  27.440   8.853
 5174POPC   C1A 5571   9.020  27.587   8.553
 5174POPC   D2A 5572   9.004  27.585   8.253
 5174POPC   C3A 5573   8.936  27.593   7.953
 5174POPC   C4A 5574   8.941  27.581   7.653
 5174POPC   C1B 5575   8.906  27.390   8.553
 5174POPC   C2B 5576   8.934  27.350   8.253
 5174POPC   C3B 5577   8.930  27.311   7.953
 5174POPC   C4B 5578   8.919  27.359   7.653
 5175POPC   NC3 5579   1.194  12.835   9.453
 5175POPC   PO4 5580   1.258  12.890   9.153
 5175POPC   GL1 5581   1.210  12.858   8.853
 5175POPC   GL2 5582   1.184  12.782   8.853
 5175POPC   C1A 5583   1.171  12.855   8.553
 5175POPC   D2A 5584   1.185  12.897   8.253
 5175POPC   C3A 5585   1.216  12.898   7.953
 5175POPC   C4A 5586   1.178  12.830   7.653
 5175POPC   C1B 5587   1.073  12.683   8.553
 5175POPC   C2B 5588   1.107  12.602   8.253
 5175POPC   C3B 5589   1.123  12.651   7.953
 5175POPC   C4B 5590   1.102  12.608   7.653
 5176POPC   NC3 5591  34.623  29.114   9.453
 5176POPC   PO4 5592  34.572  29.163   9.153
 5176POPC   GL1 5593  34.539  29.123   8.853
 5176POPC   GL2 5594  34.556  29.225   8.853
 5176POPC   C1A 5595  34.611  29.117   8.553
 5176POPC   D2A 5596  34.622  29.188   8.253
 5176POPC   C3A 5597  34.596  29.154   7.953
 5176POPC   C4A 5598  34.582  29.145   7.653
 5176POPC   C1B 5599  34.441  29.373   8.553
 5176POPC   C2B 5600  34.435  29.386   8.253
 5176POPC   C3B 5601  34.434  29.308   7.953
 5176POPC   C4B 5602  34.424  29.369   7.653
 5177POPC   NC3 5603   3.528   6.670   9.453
 5177POPC   PO4 5604   3.527   6.664   9.153
 5177POPC   GL1 5605   3.495   6.670   8.853
 5177POPC   GL2 5606   3.633   6.637   8.853
 5177POPC   C1A 5607   3.515   6.668   8.553
 5177POPC   D2A 5608   3.553   6.668   8.253
 5177POPC   C3A 5609   3.547   6.646   7.953
 5177POPC   C4A 5610   3.511   6.651   7.653
 5177POPC   C1B 5611   3.790   6.668   8.553
 5177POPC   C2B 5612   3.790   6.645   8.253
 5177POPC   C3B 5613   3.840   6.673   7.953
 5177POPC   C4B 5614   3.814   6.669   7.653
 5178POPC   NC3 5615  23.725  12.042   9.453
 5178POPC   PO4 5616  23.684  12.104   9.153
 5178POPC   GL1 5617  23.754  12.075   8.853
 5178POPC   GL2 5618  23.857  12.174   8.853
 5178POPC   C1A 5619  23.718  12.105   8.553
 5178POPC   D2A 5620  23.726  12.117   8.253
 5178POPC   C3A 5621  23.746  12.098   7.953
 5178POPC   C4A 5622  23.745  12.123   7.653
 5178POPC   C1B 5623  23.871  12.222   8.553
 5178POPC   C2B 5624  23.922  12.244   8.253
 5178POPC   C3B 5625  23.891  12.231   7.953
 5178POPC   C4B 5626  23.948  12.215   7.653
 5179POPC   NC3 5627  32.207  24.452   9.453
 5179POPC   PO4 5628  32.216  24.475   9.153
 5179POPC   GL1 5629  32.266  24.450   8.853
 5179POPC   GL2 5630  32.118  24.526   8.853
 5179POPC   C1A 5631  32.281  24.492   8.553
 5179POPC   D2A 5632  32.292  24.492   8.253
 5179POPC   C3A 5633  32.231  24.507   7.953
 5179POPC   C4A 5634  32.267  24.459   7.653
 5179POPC   C1B 5635  32.077  24.625   8.553
 5179POPC   C2B 5636  32.046  24.701   8.253
 5179POPC   C3B 5637  32.068  24.659   7.953
 5179POPC   C4B 5638  32.078  24.631   7.653
 5180POPC   NC3 5639   3.572  12.838   9.453
 5180POPC   PO4 5640   3.537  12.806   9.153
 5180POPC   GL1 5641   3.534  12.894   8.853
 5180POPC   GL2 5642   3.628  12.935   8.853
 5180POPC   C1A 5643   3.565  12.885   8.553
 5180POPC   D2A 5644   3.561  12.858   8.253
 5180POPC   C3A 5645   3.512  12.810   7.953
 5180POPC   C4A 5646   3.506  12.884   7.653
 5180POPC   C1B 5647   3.672  13.039   8.553
 5180POPC   C2B 5648   3.674  13.046   8.253
 5180POPC   C3B 5649   3.683  13.101   7.953
 5180POPC   C4B 5650   3.698  13.057   7.653
 5181POPC   NC3 5651  27.577  40.000   9.453
 5181POPC   PO4 5652  27.634  40.009   9.153
 5181POPC   GL1 5653  27.565  40.007   8.853
 5181POPC   GL2 5654  27.730  40.025   8.853
 5181POPC   C1A 5655  27.634  40.017   8.553
 5181POPC   D2A 5656  27.614  40.019   8.253
 5181POPC   C3A 5657  27.606  40.046   7.953
 5181POPC   C4A 5658  27.558  40.042   7.653
 5181POPC   C1B 5659  27.809  40.111   8.553
 5181POPC   C2B 5660  27.783  40.051   8.253
 5181POPC   C3B 5661  27.809  40.075   7.953
 5181POPC   C4B 5662  27.816  40.142   7.653
 5182POPC   NC3 5663  32.977  26.792   9.453
 5182POPC   PO4 5664  33.048  26.848   9.153
 5182POPC   GL1 5665  33.050  26.821   8.853
 5182POPC   GL2 5666  33.124  26.895   8.853
 5182POPC   C1A 5667  33.057  26.833   8.553
 5182POPC   D2A 5668  32.996  26.767   8.253
 5182POPC   C3A 5669  33.057  26.825   7.953
 5182POPC   C4A 5670  33.053  26.827   7.653
 5182POPC   C1B 5671  33.213  26.964   8.553
 5182POPC   C2B 5672  33.228  26.950   8.253
 5182POPC   C3B 5673  33.220  26.882   7.953
 5182POPC   C4B 5674  33.242  26.890   7.653
 5183POPC   NC3 5675   4.276  40.000   9.453
 5183POPC   PO4 5676   4.335  40.012   9.153
 5183POPC   GL1 5677   4.356  40.018   8.853
 5183POPC   GL2 5678   4.326  39.872   8.853
 5183POPC   C1A 5679   4.358  40.003   8.553
 5183POPC   D2A 5680   4.340  40.010   8.253
 5183POPC   C3A 5681   4.340  39.994   7.953
 5183POPC   C4A 5682   4.282  40.051   7.653
 5183POPC   C1B 5683   4.420  39.753   8.553
 5183POPC   C2B 5684   4.380  39.787   8.253
 5183POPC   C3B 5685   4.361  39.812   7.953
 5183POPC   C4B 5686   4.363  39.727   7.653
 5184POPC   NC3 5687  14.427   0.444   9.453
 5184POPC   PO4 5688  14.427   0.429   9.153
 5184POPC   GL1 5689  14.448   0.442   8.853
 5184POPC   GL2 5690  14.540   0.397   8.853
 5184POPC   C1A 5691  14.446   0.412   8.553
 5184POPC   D2A 5692  14.435   0.416   8.253
 5184POPC   C3A 5693  14.364   0.402   7.953
 5184POPC   C4A 5694  14.391   0.439   7.653
 5184POPC   C1B 5695  14.619   0.416   8.553
 5184POPC   C2B 5696  14.634   0.432   8.253
 5184POPC   C3B 5697  14.676   0.355   7.953
 5184POPC   C4B 5698  14.674   0.345   7.653
 5185POPC   NC3 5699  10.503  26.070   9.453
 5185POPC   PO4 5700  10.547  26.030   9.153
 5185POPC   GL1 5701  10.565  26.057   8.853
 5185POPC   GL2 5702  10.653  25.990   8.853
 5185POPC   C1A 5703  10.485  26.079   8.553
 5185POPC   D2A 5704  10.519  26.022   8.253
 5185POPC   C3A 5705  10.504  26.010   7.953
 5185POPC   C4A 5706  10.489  25.995   7.653
 5185POPC   C1B 5707  10.804  26.079   8.553
 5185POPC   C2B 5708  10.765  26.000   8.253
 5185POPC   C3B 5709  10.778  26.078   7.953
 5185POPC   C4B 5710  10.815  26.002   7.653
 5186POPC   NC3 5711  12.863  25.248   9.453
 5186POPC   PO4 5712  12.886  25.309   9.153
 5186POPC   GL1 5713  12.866  25.311   8.853
 5186POPC   GL2 5714  12.890  25.153   8.853
 5186POPC   C1A 5715  12.869  25.230   8.553
 5186POPC   D2A 5716  12.832  25.264   8.253
 5186POPC   C3A 5717  12.881  25.297   7.953
 5186POPC   C4A 5718  12.880  25.275   7.653
 5186POPC   C1B 5719  12.849  25.035   8.553
 5186POPC   C2B 5720  12.844  24.972   8.253
 5186POPC   C3B 5721  12.835  24.998   7.953
 5186POPC   C4B 5722  12.845  25.002   7.653
 5187POPC   NC3 5723   0.445  44.710   9.453
 5187POPC   PO4 5724   0.451  44.659   9.153
 5187POPC   GL1 5725   0.479  44.704   8.853
 5187POPC   GL2 5726   0.322  44.690   8.853
 5187POPC   C1A 5727   0.393  44.635   8.553
 5187POPC   D2A 5728   0.419  44.709   8.253
 5187POPC   C3A 5729   0.408  44.639   7.953
 5187POPC   C4A 5730   0.479  44.629   7.653
 5187POPC   C1B 5731   0.235  44.703   8.553
 5187POPC   C2B 5732   0.165  44.634   8.253
 5187POPC   C3B 5733   0.145  44.680   7.953
 5187POPC   C4B 5734   0.148  44.625   7.653
 5188POPC   NC3 5735   0.437  24.499   9.453
 5188POPC   PO4 5736   0.400  24.445   9.153
 5188POPC   GL1 5737   0.478  24.500   8.853
 5188POPC   GL2 5738   0.358  24.348   8.853
 5188POPC   C1A 5739   0.458  24.515   8.553
 5188POPC   D2A 5740   0.426  24.463   8.253
 5188POPC   C3A 5741   0.400  24.485   7.953
 5188POPC   C4A 5742   0.391  24.507   7.653
 5188POPC   C1B 5743   0.384  24.208   8.553
 5188POPC   C2B 5744   0.387  24.217   8.253
 5188POPC   C3B 5745   0.392  24.236   7.953
 5188POPC   C4B 5746   0.393  24.277   7.653
 5189POPC   NC3 5747  23.696  26.076   9.453
 5189POPC   PO4 5748  23.714  26.015   9.153
 5189POPC   GL1 5749  23.697  26.001   8.853
 5189POPC   GL2 5750  23.655  25.952   8.853
 5189POPC   C1A 5751  23.703  25.993   8.553
 5189POPC   D2A 5752  23.735  25.999   8.253
 5189POPC   C3A 5753  23.679  26.053   7.953
 5189POPC   C4A 5754  23.726  26.028   7.653
 5189POPC   C1B 5755  23.575  25.864   8.553
 5189POPC   C2B 5756  23.549  25.910   8.253
 5189POPC   C3B 5757  23.531  25.851   7.953
 5189POPC   C4B 5758  23.492  25.920   7.653
 5190POPC   NC3 5759  38.448   3.588   9.453
 5190POPC   PO4 5760  38.461   3.499   9.153
 5190POPC   GL1 5761  38.458   3.494   8.853
 5190POPC   GL2 5762  38.304   3.500   8.853
 5190POPC   C1A 5763  38.430   3.548   8.553
 5190POPC   D2A 5764  38.492   3.573   8.253
 5190POPC   C3A 5765  38.428   3.511   7.953
 5190POPC   C4A 5766  38.411   3.584   7.653
 5190POPC   C1B 5767  38.208   3.541   8.553
 5190POPC   C2B 5768  38.166   3.482   8.253
 5190POPC   C3B 5769  38.196   3.538   7.953
 5190POPC   C4B 5770  38.160   3.457   7.653
 5191POPC   NC3 5771   5.884  16.712   9.453
 5191POPC   PO4 5772   5.889  16.709   9.153
 5191POPC   GL1 5773   5.906  16.694   8.853
 5191POPC   GL2 5774   5.751  16.784   8.853
 5191POPC   C1A 5775   5.914  16.688   8.553
 5191POPC   D2A 5776   5.832  16.692   8.253
 5191POPC   C3A 5777   5.820  16.689   7.953
 5191POPC   C4A 5778   5.896  16.743   7.653
 5191POPC   C1B 5779   5.730  16.930   8.553
 5191POPC   C2B 5780   5.710  16.886   8.253
 5191POPC   C3B 5781   5.660  16.948   7.953
 5191POPC   C4B 5782   5.700  16.910   7.653
 5192POPC   NC3 5783  28.377   8.175   9.453
 5192POPC   PO4 5784  28.331   8.234   9.153
 5192POPC   GL1 5785  28.325   8.177   8.853
 5192POPC   GL2 5786  28.509   8.062   8.853
 5192POPC   C1A 5787  28.324   8.181   8.553
 5192POPC   D2A 5788  28.351   8.193   8.253
 5192POPC   C3A 5789  28.411   8.221   7.953
 5192POPC   C4A 5790  28.385   8.181   7.653
 5192POPC   C1B 5791  28.515   8.003   8.553
 5192POPC   C2B 5792  28.563   8.020   8.253
 5192POPC   C3B 5793  28.557   8.033   7.953
 5192POPC   C4B 5794  28.596   8.058   7.653
 5193POPC   NC3 5795  15.158  35.367   9.453
 5193POPC   PO4 5796  15.204  35.376   9.153
 5193POPC   GL1 5797  15.152  35.353   8.853
 5193POPC   GL2 5798  15.294  35.326   8.853
 5193POPC   C1A 5799  15.201  35.309   8.553
 5193POPC   D2A 5800  15.204  35.380   8.253
 5193POPC   C3A 5801  15.179  35.366   7.953
 5193POPC   C4A 5802  15.168  35.390   7.653
 5193POPC   C1B 5803  15.417  35.266   8.553
 5193POPC   C2B 5804  15.411  35.236   8.253
 5193POPC   C3B 5805  15.389  35.301   7.953
 5193POPC   C4B 5806  15.363  35.270   7.653
 5194POPC   NC3 5807   6.641  37.686   9.453
 5194POPC   PO4 5808   6.689  37.688   9.153
 5194POPC   GL1 5809   6.675  37.707   8.853
 5194POPC   GL2 5810   6.680  37.530   8.853
 5194POPC   C1A 5811   6.641  37.648   8.553
 5194POPC   D2A 5812   6.659  37.706   8.253
 5194POPC   C3A 5813   6.655  37.665   7.953
 5194POPC   C4A 5814   6.619  37.683   7.653
 5194POPC   C1B 5815   6.805  37.489   8.553
 5194POPC   C2B 5816   6.723  37.464   8.253
 5194POPC   C3B 5817   6.769  37.442   7.953
 5194POPC   C4B 5818   6.751  37.510   7.653
 5195POPC   NC3 5819  23.725  17.502   9.453
 5195POPC   PO4 5820  23.696  17.553   9.153
 5195POPC   GL1 5821  23.717  17.503   8.853
 5195POPC   GL2 5822  23.563  17.467   8.853
 5195POPC   C1A 5823  23.685  17.509   8.553
 5195POPC   D2A 5824  23.740  17.531   8.253
 5195POPC   C3A 5825  23.715  17.499   7.953
 5195POPC   C4A 5826  23.670  17.490   7.653
 5195POPC   C1B 5827  23.463  17.449   8.553
 5195POPC   C2B 5828  23.512  17.505   8.253
 5195POPC   C3B 5829  23.424  17.495   7.953
 5195POPC   C4B 5830  23.428  17.531   7.653
 5196POPC   NC3 5831  24.458  15.195   9.453
 5196POPC   PO4 5832  24.515  15.142   9.153
 5196POPC   GL1 5833  24.511  15.203   8.853
 5196POPC   GL2 5834  24.662  15.134   8.853
 5196POPC   C1A 5835  24.471  15.144   8.553
 5196POPC   D2A 5836  24.468  15.155   8.253
 5196POPC   C3A 5837  24.465  15.216   7.953
 5196POPC   C4A 5838  24.457  15.214   7.653
 5196POPC   C1B 5839  24.735  15.097   8.553
 5196POPC   C2B 5840  24.691  15.084   8.253
 5196POPC   C3B 5841  24.730  15.124   7.953
 5196POPC   C4B 5842  24.720  15.093   7.653
 5197POPC   NC3 5843  15.915  16.732   9.453
 5197POPC   PO4 5844  16.001  16.697   9.153
 5197POPC   GL1 5845  15.984  16.685   8.853
 5197POPC   GL2 5846  16.015  16.649   8.853
 5197POPC   C1A 5847  15.919  16.727   8.553
 5197POPC   D2A 5848  15.912  16.715   8.253
 5197POPC   C3A 5849  15.922  16.707   7.953
 5197POPC   C4A 5850  15.967  16.697   7.653
 5197POPC   C1B 5851  16.036  16.532   8.553
 5197POPC   C2B 5852  16.001  16.513   8.253
 5197POPC   C3B 5853  16.032  16.462   7.953
 5197POPC   C4B 5854  15.991  16.522   7.653
 5198POPC   NC3 5855  36.878  28.371   9.453
 5198POPC   PO4 5856  36.893  28.408   9.153
 5198POPC   GL1 5857  36.916  28.334   8.853
 5198POPC   GL2 5858  36.847  28.234   8.853
 5198POPC   C1A 5859  36.884  28.406   8.553
 5198POPC   D2A 5860  36.855  28.355   8.253
 5198POPC   C3A 5861  36.886  28.409   7.953
 5198POPC   C4A 5862  36.894  28.352   7.653
 5198POPC   C1B 5863  36.831  28.118   8.553
 5198POPC   C2B 5864  36.917  28.125   8.253
 5198POPC   C3B 5865  36.867  28.162   7.953
 5198POPC   C4B 5866  36.889  28.163   7.653
 5199POPC   NC3 5867  39.279   8.956   9.453
 5199POPC   PO4 5868  39.213   8.954   9.153
 5199POPC   GL1 5869  39.248   8.992   8.853
 5199POPC   GL2 5870  39.117   8.972   8.853
 5199POPC   C1A 5871  39.212   9.016   8.553
 5199POPC   D2A 5872  39.262   8.960   8.253
 5199POPC   C3A 5873  39.215   9.014   7.953
 5199POPC   C4A 5874  39.187   9.017   7.653
 5199POPC   C1B 5875  38.994   8.906   8.553
 5199POPC   C2B 5876  38.957   8.934   8.253
 5199POPC   C3B 5877  38.993   8.898   7.953
 5199POPC   C4B 5878  39.000   8.974   7.653
 5200POPC   NC3 5879  43.927  44.662   9.453
 5200POPC   PO4 5880  43.905  44.654   9.153
 5200POPC   GL1 5881  43.898  44.691   8.853
 5200POPC   GL2 5882  43.877  44.580   8.853
 5200POPC   C1A 5883  43.856  44.641   8.553
 5200POPC   D2A 5884  43.852  44.698   8.253
 5200POPC   C3A 5885  43.858  44.702   7.953
 5200POPC   C4A 5886  43.866  44.652   7.653
 5200POPC   C1B 5887  43.924  44.380   8.553
 5200POPC   C2B 5888  44.009  44.448   8.253
 5200POPC   C3B 5889  44.005  44.438   7.953
 5200POPC   C4B 5890  43.970  44.440   7.653
 5201POPC   NC3 5891  42.287  12.109   9.453
 5201POPC   PO4 5892  42.306  12.104   9.153
 5201POPC   GL1 5893  42.305  12.057   8.853
 5201POPC   GL2 5894  42.461  12.039   8.853
 5201POPC   C1A 5895  42.317  12.054   8.553
 5201POPC   D2A 5896  42.287  12.120   8.253
 5201POPC   C3A 5897  42.378  12.092   7.953
 5201POPC   C4A 5898  42.368  12.068   7.653
 5201POPC   C1B 5899  42.613  11.979   8.553
 5201POPC   C2B 5900  42.535  12.008   8.253
 5201POPC   C3B 5901  42.611  11.975   7.953
 5201POPC   C4B 5902  42.539  11.981   7.653
 5202POPC   NC3 5903  15.220   5.886   9.453
 5202POPC   PO4 5904  15.152   5.834   9.153
 5202POPC   GL1 5905  15.188   5.839   8.853
 5202POPC   GL2 5906  15.198   5.959   8.853
 5202POPC   C1A 5907  15.174   5.842   8.553
 5202POPC   D2A 5908  15.203   5.824   8.253
 5202POPC   C3A 5909  15.147   5.848   7.953
 5202POPC   C4A 5910  15.141   5.840   7.653
 5202POPC   C1B 5911  15.234   6.120   8.553
 5202POPC   C2B 5912  15.212   6.090   8.253
 5202POPC   C3B 5913  15.232   6.083   7.953
 5202POPC   C4B 5914  15.214   6.118   7.653
 5203POPC   NC3 5915  17.522  20.566   9.453
 5203POPC   PO4 5916  17.482  20.592   9.153
 5203POPC   GL1 5917  17.486  20.611   8.853
 5203POPC   GL2 5918  17.393  20.596   8.853
 5203POPC   C1A 5919  17.542  20.603   8.553
 5203POPC   D2A 5920  17.458  20.622   8.253
 5203POPC   C3A 5921  17.514  20.629   7.953
 5203POPC   C4A 5922  17.533  20.640   7.653
 5203POPC   C1B 5923  17.283  20.636   8.553
 5203POPC   C2B 5924  17.264  20.622   8.253
 5203POPC   C3B 5925  17.252  20.626   7.953
 5203POPC   C4B 5926  17.275  20.623   7.653
 5204POPC   NC3 5927  10.542  43.857   9.453
 5204POPC   PO4 5928  10.520  43.926   9.153
 5204POPC   GL1 5929  10.485  43.915   8.853
 5204POPC   GL2 5930  10.633  43.870   8.853
 5204POPC   C1A 5931  10.515  43.871   8.553
 5204POPC   D2A 5932  10.498  43.908   8.253
 5204POPC   C3A 5933  10.506  43.897   7.953
 5204POPC   C4A 5934  10.490  43.931   7.653
 5204POPC   C1B 5935  10.760  43.882   8.553
 5204POPC   C2B 5936  10.797  43.894   8.253
 5204POPC   C3B 5937  10.782  43.845   7.953
 5204POPC   C4B 5938  10.813  43.828   7.653
 5205POPC   NC3 5939  40.786  18.329   9.453
 5205POPC   PO4 5940  40.829  18.320   9.153
 5205POPC   GL1 5941  40.777  18.291   8.853
 5205POPC   GL2 5942  40.864  18.228   8.853
 5205POPC   C1A 5943  40.791  18.281   8.553
 5205POPC   D2A 5944  40.788  18.257   8.253
 5205POPC   C3A 5945  40.755  18.312   7.953
 5205POPC   C4A 5946  40.799  18.294   7.653
 5205POPC   C1B 5947  40.951  18.062   8.553
 5205POPC   C2B 5948  40.941  18.142   8.253
 5205POPC   C3B 5949  40.945  18.141   7.953
 5205POPC   C4B 5950  40.979  18.138   7.653
 5206POPC   NC3 5951  29.955  27.606   9.453
 5206POPC   PO4 5952  29.886  27.615   9.153
 5206POPC   GL1 5953  29.958  27.594   8.853
 5206POPC   GL2 5954  29.789  27.603   8.853
 5206POPC   C1A 5955  29.966  27.545   8.553
 5206POPC   D2A 5956  29.942  27.555   8.253
 5206POPC   C3A 5957  29.936  27.586   7.953
 5206POPC   C4A 5958  29.961  27.587   7.653
 5206POPC   C1B 5959  29.668  27.674   8.553
 5206POPC   C2B 5960  29.691  27.644   8.253
 5206POPC   C3B 5961  29.727  27.643   7.953
 5206POPC   C4B 5962  29.636  27.651   7.653
 5207POPC   NC3 5963  20.583  44.677   9.453
 5207POPC   PO4 5964  20.649  44.656   9.153
 5207POPC   GL1 5965  20.642  44.636   8.853
 5207POPC   GL2 5966  20.495  44.754   8.853
 5207POPC   C1A 5967  20.629  44.641   8.553
 5207POPC   D2A 5968  20.601  44.705   8.253
 5207POPC   C3A 5969  20.603  44.641   7.953
 5207POPC   C4A 5970  20.626  44.623   7.653
 5207POPC   C1B 5971  20.428  44.843   8.553
 5207POPC   C2B 5972  20.438  44.794   8.253
 5207POPC   C3B 5973  20.371  44.807   7.953
 5207POPC   C4B 5974  20.451  44.818   7.653
 5208POPC   NC3 5975  33.812   4.310   9.453
 5208POPC   PO4 5976  33.785   4.336   9.153
 5208POPC   GL1 5977  33.823   4.286   8.853
 5208POPC   GL2 5978  33.725   4.368   8.853
 5208POPC   C1A 5979  33.802   4.344   8.553
 5208POPC   D2A 5980  33.766   4.299   8.253
 5208POPC   C3A 5981  33.801   4.310   7.953
 5208POPC   C4A 5982  33.773   4.342   7.653
 5208POPC   C1B 5983  33.674   4.529   8.553
 5208POPC   C2B 5984  33.648   4.473   8.253
 5208POPC   C3B 5985  33.582   4.510   7.953
 5208POPC   C4B 5986  33.647   4.459   7.653
 5209POPC   NC3 5987  22.152  23.752   9.453
 5209POPC   PO4 5988  22.122  23.760   9.153
 5209POPC   GL1 5989  22.210  23.700   8.853
 5209POPC   GL2 5990  22.274  23.649   8.853
 5209POPC   C1A 5991  22.178  23.709   8.553
 5209POPC   D2A 5992  22.130  23.676   8.253
 5209POPC   C3A 5993  22.145  23.734   7.953
 5209POPC   C4A 5994  22.159  23.734   7.653
 5209POPC   C1B 5995  22.403  23.714   8.553
 5209POPC   C2B 5996  22.409  23.643   8.253
 5209POPC   C3B 5997  22.437  23.678   7.953
 5209POPC   C4B 5998  22.391  23.728   7.653
 5210POPC   NC3 5999  20.594  32.285   9.453
 5210POPC   PO4 6000  20.611  32.261   9.153
 5210POPC   GL1 6001  20.644  32.297   8.853
 5210POPC   GL2 6002  20.722  32.299   8.853
 5210POPC   C1A 6003  20.617  32.226   8.553
 5210POPC   D2A 6004  20.595  32.276   8.253
 5210POPC   C3A 6005  20.593  32.277   7.953
 5210POPC   C4A 6006  20.632  32.260   7.653
 5210POPC   C1B 6007  20.856  32.282   8.553
 5210POPC   C2B 6008  20.821  32.369   8.253
 5210POPC   C3B 6009  20.832  32.366   7.953
 5210POPC   C4B 6010  20.854  32.329   7.653
 5211POPC   NC3 6011   8.990   8.932   9.453
 5211POPC   PO4 6012   8.923   8.940   9.153
 5211POPC   GL1 6013   8.949   8.932   8.853
 5211POPC   GL2 6014   9.094   9.108   8.853
 5211POPC   C1A 6015   8.960   8.959   8.553
 5211POPC   D2A 6016   8.933   8.973   8.253
 5211POPC   C3A 6017   8.969   8.929   7.953
 5211POPC   C4A 6018   8.981   9.018   7.653
 5211POPC   C1B 6019   9.090   9.175   8.553
 5211POPC   C2B 6020   9.092   9.149   8.253
 5211POPC   C3B 6021   9.088   9.165   7.953
 5211POPC   C4B 6022   9.179   9.134   7.653
 5212POPC   NC3 6023  24.533  18.327   9.453
 5212POPC   PO4 6024  24.477  18.280   9.153
 5212POPC   GL1 6025  24.483  18.236   8.853
 5212POPC   GL2 6026  24.420  18.181   8.853
 5212POPC   C1A 6027  24.535  18.308   8.553
 5212POPC   D2A 6028  24.474  18.291   8.253
 5212POPC   C3A 6029  24.521  18.294   7.953
 5212POPC   C4A 6030  24.470  18.323   7.653
 5212POPC   C1B 6031  24.290  18.094   8.553
 5212POPC   C2B 6032  24.316  18.149   8.253
 5212POPC   C3B 6033  24.290  18.121   7.953
 5212POPC   C4B 6034  24.364  18.133   7.653
 5213POPC   NC3 6035   7.456   9.748   9.453
 5213POPC   PO4 6036   7.432   9.703   9.153
 5213POPC   GL1 6037   7.379   9.752   8.853
 5213POPC   GL2 6038   7.446   9.906   8.853
 5213POPC   C1A 6039   7.374   9.758   8.553
 5213POPC   D2A 6040   7.465   9.702   8.253
 5213POPC   C3A 6041   7.373   9.768   7.953
 5213POPC   C4A 6042   7.440   9.699   7.653
 5213POPC   C1B 6043   7.470  10.014   8.553
 5213POPC   C2B 6044   7.491   9.951   8.253
 5213POPC   C3B 6045   7.466  10.025   7.953
 5213POPC   C4B 6046   7.513  10.002   7.653
 5214POPC   NC3 6047   7.377   3.568   9.453
 5214POPC   PO4 6048   7.446   3.588   9.153
 5214POPC   GL1 6049   7.465   3.509   8.853
 5214POPC   GL2 6050   7.315   3.654   8.853
 5214POPC   C1A 6051   7.463   3.568   8.553
 5214POPC   D2A 6052   7.406   3.583   8.253
 5214POPC   C3A 6053   7.449   3.536   7.953
 5214POPC   C4A 6054   7.401   3.544   7.653
 5214POPC   C1B 6055   7.182   3.712   8.553
 5214POPC   C2B 6056   7.239   3.711   8.253
 5214POPC   C3B 6057   7.243   3.669   7.953
 5214POPC   C4B 6058   7.248   3.658   7.653
 5215POPC   NC3 6059   0.401  30.734   9.453
 5215POPC   PO4 6060   0.409  30.733   9.153
 5215POPC   GL1 6061   0.448  30.685   8.853
 5215POPC   GL2 6062   0.569  30.791   8.853
 5215POPC   C1A 6063   0.430  30.744   8.553
 5215POPC   D2A 6064   0.432  30.735   8.253
 5215POPC   C3A 6065   0.443  30.715   7.953
 5215POPC   C4A 6066   0.393  30.690   7.653
 5215POPC   C1B 6067   0.637  30.854   8.553
 5215POPC   C2B 6068   0.611  30.796   8.253
 5215POPC   C3B 6069   0.661  30.798   7.953
 5215POPC   C4B 6070   0.687  30.854   7.653
 5216POPC   NC3 6071   6.629  26.052   9.453
 5216POPC   PO4 6072   6.676  26.019   9.153
 5216POPC   GL1 6073   6.665  26.075   8.853
 5216POPC   GL2 6074   6.661  25.949   8.853
 5216POPC   C1A 6075   6.638  26.021   8.553
 5216POPC   D2A 6076   6.648  26.072   8.253
 5216POPC   C3A 6077   6.625  26.060   7.953
 5216POPC   C4A 6078   6.652  26.075   7.653
 5216POPC   C1B 6079   6.674  25.842   8.553
 5216POPC   C2B 6080   6.723  25.790   8.253
 5216POPC   C3B 6081   6.720  25.785   7.953
 5216POPC   C4B 6082   6.668  25.766   7.653
 5217POPC   NC3 6083  10.545  13.616   9.453
 5217POPC   PO4 6084  10.488  13.619   9.153
 5217POPC   GL1 6085  10.518  13.670   8.853
 5217POPC   GL2 6086  10.424  13.560   8.853
 5217POPC   C1A 6087  10.496  13.651   8.553
 5217POPC   D2A 6088  10.572  13.580   8.253
 5217POPC   C3A 6089  10.498  13.625   7.953
 5217POPC   C4A 6090  10.545  13.663   7.653
 5217POPC   C1B 6091  10.326  13.589   8.553
 5217POPC   C2B 6092  10.313  13.589   8.253
 5217POPC   C3B 6093  10.307  13.526   7.953
 5217POPC   C4B 6094  10.309  13.582   7.653
 5218POPC   NC3 6095  26.842  40.778   9.453
 5218POPC   PO4 6096  26.833  40.823   9.153
 5218POPC   GL1 6097  26.805  40.813   8.853
 5218POPC   GL2 6098  26.811  40.903   8.853
 5218POPC   C1A 6099  26.857  40.771   8.553
 5218POPC   D2A 6100  26.782  40.747   8.253
 5218POPC   C3A 6101  26.839  40.793   7.953
 5218POPC   C4A 6102  26.810  40.798   7.653
 5218POPC   C1B 6103  26.751  41.031   8.553
 5218POPC   C2B 6104  26.808  40.997   8.253
 5218POPC   C3B 6105  26.742  41.038   7.953
 5218POPC   C4B 6106  26.786  41.056   7.653
 5219POPC   NC3 6107  24.459   0.456   9.453
 5219POPC   PO4 6108  24.494   0.403   9.153
 5219POPC   GL1 6109  24.510   0.481   8.853
 5219POPC   GL2 6110  24.585   0.391   8.853
 5219POPC   C1A 6111  24.446   0.461   8.553
 5219POPC   D2A 6112  24.494   0.408   8.253
 5219POPC   C3A 6113  24.460   0.447   7.953
 5219POPC   C4A 6114  24.511   0.469   7.653
 5219POPC   C1B 6115  24.754   0.433   8.553
 5219POPC   C2B 6116  24.786   0.386   8.253
 5219POPC   C3B 6117  24.692   0.469   7.953
 5219POPC   C4B 6118  24.720   0.451   7.653
 5220POPC   NC3 6119   6.596  27.583   9.453
 5220POPC   PO4 6120   6.676  27.596   9.153
 5220POPC   GL1 6121   6.636  27.562   8.853
 5220POPC   GL2 6122   6.654  27.704   8.853
 5220POPC   C1A 6123   6.668  27.605   8.553
 5220POPC   D2A 6124   6.693  27.551   8.253
 5220POPC   C3A 6125   6.693  27.581   7.953
 5220POPC   C4A 6126   6.648  27.611   7.653
 5220POPC   C1B 6127   6.556  27.813   8.553
 5220POPC   C2B 6128   6.572  27.864   8.253
 5220POPC   C3B 6129   6.579  27.823   7.953
 5220POPC   C4B 6130   6.575  27.821   7.653
 5221POPC   NC3 6131  15.996   6.638   9.453
 5221POPC   PO4 6132  15.911   6.692   9.153
 5221POPC   GL1 6133  15.970   6.637   8.853
 5221POPC   GL2 6134  15.998   6.557   8.853
 5221POPC   C1A 6135  15.907   6.619   8.553
 5221POPC   D2A 6136  15.974   6.602   8.253
 5221POPC   C3A 6137  15.944   6.612   7.953
 5221POPC   C4A 6138  16.003   6.608   7.653
 5221POPC   C1B 6139  15.999   6.361   8.553
 5221POPC   C2B 6140  15.987   6.432   8.253
 5221POPC   C3B 6141  15.985   6.373   7.953
 5221POPC   C4B 6142  15.985   6.405   7.653
 5222POPC   NC3 6143  26.041  29.170   9.453
 5222POPC   PO4 6144  26.045  29.141   9.153
 5222POPC   GL1 6145  26.090  29.112   8.853
 5222POPC   GL2 6146  26.164  29.077   8.853
 5222POPC   C1A 6147  26.011  29.145   8.553
 5222POPC   D2A 6148  26.058  29.185   8.253
 5222POPC   C3A 6149  26.038  29.138   7.953
 5222POPC   C4A 6150  26.042  29.099   7.653
 5222POPC   C1B 6151  26.251  29.118   8.553
 5222POPC   C2B 6152  26.251  29.082   8.253
 5222POPC   C3B 6153  26.268  29.081   7.953
 5222POPC   C4B 6154  26.239  29.076   7.653
 5223POPC   NC3 6155  43.896   6.657   9.453
 5223POPC   PO4 6156  43.909   6.647   9.153
 5223POPC   GL1 6157  43.870   6.645   8.853
 5223POPC   GL2 6158  43.987   6.637   8.853
 5223POPC   C1A 6159  43.929   6.655   8.553
 5223POPC   D2A 6160  43.926   6.657   8.253
 5223POPC   C3A 6161  43.892   6.604   7.953
 5223POPC   C4A 6162  43.880   6.644   7.653
 5223POPC   C1B 6163  44.104   6.605   8.553
 5223POPC   C2B 6164  44.139   6.633   8.253
 5223POPC   C3B 6165  44.154   6.648   7.953
 5223POPC   C4B 6166  44.111   6.674   7.653
 5224POPC   NC3 6167   4.279  11.267   9.453
 5224POPC   PO4 6168   4.294  11.293   9.153
 5224POPC   GL1 6169   4.339  11.259   8.853
 5224POPC   GL2 6170   4.290  11.473   8.853
 5224POPC   C1A 6171   4.321  11.304   8.553
 5224POPC   D2A 6172   4.353  11.257   8.253
 5224POPC   C3A 6173   4.295  11.335   7.953
 5224POPC   C4A 6174   4.310  11.347   7.653
 5224POPC   C1B 6175   4.290  11.536   8.553
 5224POPC   C2B 6176   4.233  11.514   8.253
 5224POPC   C3B 6177   4.251  11.513   7.953
 5224POPC   C4B 6178   4.286  11.539   7.653
 5225POPC   NC3 6179  34.533   5.102   9.453
 5225POPC   PO4 6180  34.620   5.101   9.153
 5225POPC   GL1 6181  34.536   5.112   8.853
 5225POPC   GL2 6182  34.513   5.204   8.853
 5225POPC   C1A 6183  34.543   5.099   8.553
 5225POPC   D2A 6184  34.554   5.049   8.253
 5225POPC   C3A 6185  34.598   5.080   7.953
 5225POPC   C4A 6186  34.590   5.141   7.653
 5225POPC   C1B 6187  34.427   5.357   8.553
 5225POPC   C2B 6188  34.455   5.354   8.253
 5225POPC   C3B 6189  34.450   5.347   7.953
 5225POPC   C4B 6190  34.466   5.354   7.653
 5226POPC   NC3 6191  25.995  17.489   9.453
 5226POPC   PO4 6192  26.067  17.509   9.153
 5226POPC   GL1 6193  26.006  17.528   8.853
 5226POPC   GL2 6194  26.088  17.631   8.853
 5226POPC   C1A 6195  26.052  17.461   8.553
 5226POPC   D2A 6196  26.024  17.534   8.253
 5226POPC   C3A 6197  26.054  17.461   7.953
 5226POPC   C4A 6198  26.037  17.482   7.653
 5226POPC   C1B 6199  26.072  17.760   8.553
 5226POPC   C2B 6200  26.047  17.731   8.253
 5226POPC   C3B 6201  26.076  17.781   7.953
 5226POPC   C4B 6202  26.103  17.710   7.653
 5227POPC   NC3 6203  32.272  16.747   9.453
 5227POPC   PO4 6204  32.270  16.713   9.153
 5227POPC   GL1 6205  32.288  16.757   8.853
 5227POPC   GL2 6206  32.265  16.563   8.853
 5227POPC   C1A 6207  32.259  16.716   8.553
 5227POPC   D2A 6208  32.277  16.761   8.253
 5227POPC   C3A 6209  32.243  16.682   7.953
 5227POPC   C4A 6210  32.291  16.687   7.653
 5227POPC   C1B 6211  32.199  16.441   8.553
 5227POPC   C2B 6212  32.166  16.514   8.253
 5227POPC   C3B 6213  32.224  16.524   7.953
 5227POPC   C4B 6214  32.196  16.459   7.653
 5228POPC   NC3 6215   4.321  12.102   9.453
 5228POPC   PO4 6216   4.323  12.037   9.153
 5228POPC   GL1 6217   4.349  12.084   8.853
 5228POPC   GL2 6218   4.320  12.193   8.853
 5228POPC   C1A 6219   4.329  12.082   8.553
 5228POPC   D2A 6220   4.290  12.098   8.253
 5228POPC   C3A 6221   4.300  12.110   7.953
 5228POPC   C4A 6222   4.291  12.062   7.653
 5228POPC   C1B 6223   4.335  12.346   8.553
 5228POPC   C2B 6224   4.365  12.340   8.253
 5228POPC   C3B 6225   4.338  12.365   7.953
 5228POPC   C4B 6226   4.387  12.349   7.653
 5229POPC   NC3 6227  12.892  36.112   9.453
 5229POPC   PO4 6228  12.890  36.138   9.153
 5229POPC   GL1 6229  12.884  36.102   8.853
 5229POPC   GL2 6230  12.794  36.035   8.853
 5229POPC   C1A 6231  12.869  36.146   8.553
 5229POPC   D2A 6232  12.850  36.155   8.253
 5229POPC   C3A 6233  12.809  36.093   7.953
 5229POPC   C4A 6234  12.896  36.137   7.653
 5229POPC   C1B 6235  12.712  35.901   8.553
 5229POPC   C2B 6236  12.791  35.896   8.253
 5229POPC   C3B 6237  12.747  35.869   7.953
 5229POPC   C4B 6238  12.748  35.913   7.653
 5230POPC   NC3 6239   8.192  44.637   9.453
 5230POPC   PO4 6240   8.177  44.646   9.153
 5230POPC   GL1 6241   8.242  44.642   8.853
 5230POPC   GL2 6242   8.041  44.692   8.853
 5230POPC   C1A 6243   8.237  44.671   8.553
 5230POPC   D2A 6244   8.242  44.703   8.253
 5230POPC   C3A 6245   8.212  44.688   7.953
 5230POPC   C4A 6246   8.238  44.614   7.653
 5230POPC   C1B 6247   7.978  44.693   8.553
 5230POPC   C2B 6248   7.993  44.717   8.253
 5230POPC   C3B 6249   7.983  44.637   7.953
 5230POPC   C4B 6250   7.958  44.705   7.653
 5231POPC   NC3 6251  15.981  22.909   9.453
 5231POPC   PO4 6252  15.961  22.936   9.153
 5231POPC   GL1 6253  15.980  22.894   8.853
 5231POPC   GL2 6254  15.865  23.006   8.853
 5231POPC   C1A 6255  15.915  22.916   8.553
 5231POPC   D2A 6256  15.960  22.962   8.253
 5231POPC   C3A 6257  15.922  22.903   7.953
 5231POPC   C4A 6258  15.957  22.918   7.653
 5231POPC   C1B 6259  15.831  23.134   8.553
 5231POPC   C2B 6260  15.826  23.102   8.253
 5231POPC   C3B 6261  15.801  23.152   7.953
 5231POPC   C4B 6262  15.794  23.116   7.653
 5232POPC   NC3 6263  35.341  36.921   9.453
 5232POPC   PO4 6264  35.367  36.870   9.153
 5232POPC   GL1 6265  35.384  36.883   8.853
 5232POPC   GL2 6266  35.331  36.829   8.853
 5232POPC   C1A 6267  35.348  36.855   8.553
 5232POPC   D2A 6268  35.388  36.867   8.253
 5232POPC   C3A 6269  35.312  36.904   7.953
 5232POPC   C4A 6270  35.352  36.871   7.653
 5232POPC   C1B 6271  35.262  36.668   8.553
 5232POPC   C2B 6272  35.340  36.652   8.253
 5232POPC   C3B 6273  35.255  36.666   7.953
 5232POPC   C4B 6274  35.332  36.673   7.653
 5233POPC   NC3 6275  20.645  21.341   9.453
 5233POPC   PO4 6276  20.611  21.351   9.153
 5233POPC   GL1 6277  20.599  21.413   8.853
 5233POPC   GL2 6278  20.568  21.480   8.853
 5233POPC   C1A 6279  20.626  21.358   8.553
 5233POPC   D2A 6280  20.642  21.366   8.253
 5233POPC   C3A 6281  20.650  21.341   7.953
 5233POPC   C4A 6282  20.631  21.384   7.653
 5233POPC   C1B 6283  20.539  21.599   8.553
 5233POPC   C2B 6284  20.521  21.563   8.253
 5233POPC   C3B 6285  20.449  21.635   7.953
 5233POPC   C4B 6286  20.525  21.651   7.653
 5234POPC   NC3 6287  19.082  40.795   9.453
 5234POPC   PO4 6288  19.009  40.761   9.153
 5234POPC   GL1 6289  19.049  40.739   8.853
 5234POPC   GL2 6290  19.125  40.951   8.853
 5234POPC   C1A 6291  19.072  40.816   8.553
 5234POPC   D2A 6292  19.076  40.733   8.253
 5234POPC   C3A 6293  19.093  40.755   7.953
 5234POPC   C4A 6294  19.017  40.776   7.653
 5234POPC   C1B 6295  19.130  40.982   8.553
 5234POPC   C2B 6296  19.176  40.982   8.253
 5234POPC   C3B 6297  19.116  41.053   7.953
 5234POPC   C4B 6298  19.130  41.070   7.653
 5235POPC   NC3 6299  13.622  36.087   9.453
 5235POPC   PO4 6300  13.655  36.086   9.153
 5235POPC   GL1 6301  13.671  36.126   8.853
 5235POPC   GL2 6302  13.496  36.057   8.853
 5235POPC   C1A 6303  13.599  36.079   8.553
 5235POPC   D2A 6304  13.641  36.085   8.253
 5235POPC   C3A 6305  13.615  36.156   7.953
 5235POPC   C4A 6306  13.662  36.175   7.653
 5235POPC   C1B 6307  13.381  36.032   8.553
 5235POPC   C2B 6308  13.368  36.039   8.253
 5235POPC   C3B 6309  13.396  36.081   7.953
 5235POPC   C4B 6310  13.336  36.082   7.653
 5236POPC   NC3 6311  12.063   2.746   9.453
 5236POPC   PO4 6312  12.081   2.791   9.153
 5236POPC   GL1 6313  12.103   2.752   8.853
 5236POPC   GL2 6314  11.972   2.821   8.853
 5236POPC   C1A 6315  12.056   2.753   8.553
 5236POPC   D2A 6316  12.079   2.724   8.253
 5236POPC   C3A 6317  12.094   2.765   7.953
 5236POPC   C4A 6318  12.035   2.810   7.653
 5236POPC   C1B 6319  11.928   2.879   8.553
 5236POPC   C2B 6320  11.893   2.941   8.253
 5236POPC   C3B 6321  11.861   2.949   7.953
 5236POPC   C4B 6322  11.842   2.956   7.653
 5237POPC   NC3 6323   8.208   2.781   9.453
 5237POPC   PO4 6324   8.222   2.786   9.153
 5237POPC   GL1 6325   8.224   2.733   8.853
 5237POPC   GL2 6326   8.157   2.921   8.853
 5237POPC   C1A 6327   8.202   2.729   8.553
 5237POPC   D2A 6328   8.206   2.779   8.253
 5237POPC   C3A 6329   8.221   2.756   7.953
 5237POPC   C4A 6330   8.233   2.797   7.653
 5237POPC   C1B 6331   8.173   3.001   8.553
 5237POPC   C2B 6332   8.179   3.052   8.253
 5237POPC   C3B 6333   8.167   3.011   7.953
 5237POPC   C4B 6334   8.184   3.004   7.653
 5238POPC   NC3 6335  11.255   9.730   9.453
 5238POPC   PO4 6336  11.289   9.783   9.153
 5238POPC   GL1 6337  11.325   9.717   8.853
 5238POPC   GL2 6338  11.341   9.589   8.853
 5238POPC   C1A 6339  11.335   9.724   8.553
 5238POPC   D2A 6340  11.319   9.751   8.253
 5238POPC   C3A 6341  11.281   9.753   7.953
 5238POPC   C4A 6342  11.264   9.742   7.653
 5238POPC   C1B 6343  11.374   9.547   8.553
 5238POPC   C2B 6344  11.356   9.553   8.253
 5238POPC   C3B 6345  11.367   9.509   7.953
 5238POPC   C4B 6346  11.362   9.525   7.653
 5239POPC   NC3 6347  11.289   5.101   9.453
 5239POPC   PO4 6348  11.316   5.126   9.153
 5239POPC   GL1 6349  11.302   5.143   8.853
 5239POPC   GL2 6350  11.286   5.232   8.853
 5239POPC   C1A 6351  11.302   5.131   8.553
 5239POPC   D2A 6352  11.276   5.061   8.253
 5239POPC   C3A 6353  11.326   5.126   7.953
 5239POPC   C4A 6354  11.336   5.059   7.653
 5239POPC   C1B 6355  11.281   5.367   8.553
 5239POPC   C2B 6356  11.330   5.299   8.253
 5239POPC   C3B 6357  11.276   5.358   7.953
 5239POPC   C4B 6358  11.304   5.352   7.653
 5240POPC   NC3 6359  44.638  29.154   9.453
 5240POPC   PO4 6360  44.647  29.173   9.153
 5240POPC   GL1 6361  44.709  29.154   8.853
 5240POPC   GL2 6362  44.584  29.035   8.853
 5240POPC   C1A 6363  44.632  29.177   8.553
 5240POPC   D2A 6364  44.676  29.126   8.253
 5240POPC   C3A 6365  44.663  29.164   7.953
 5240POPC   C4A 6366  44.685  29.107   7.653
 5240POPC   C1B 6367  44.581  28.927   8.553
 5240POPC   C2B 6368  44.529  28.903   8.253
 5240POPC   C3B 6369  44.613  28.922   7.953
 5240POPC   C4B 6370  44.573  28.871   7.653
 5241POPC   NC3 6371  29.132  21.377   9.453
 5241POPC   PO4 6372  29.142  21.418   9.153
 5241POPC   GL1 6373  29.173  21.380   8.853
 5241POPC   GL2 6374  29.029  21.501   8.853
 5241POPC   C1A 6375  29.122  21.415   8.553
 5241POPC   D2A 6376  29.193  21.352   8.253
 5241POPC   C3A 6377  29.123  21.364   7.953
 5241POPC   C4A 6378  29.100  21.385   7.653
 5241POPC   C1B 6379  29.012  21.556   8.553
 5241POPC   C2B 6380  28.934  21.575   8.253
 5241POPC   C3B 6381  29.009  21.596   7.953
 5241POPC   C4B 6382  29.019  21.584   7.653
 5242POPC   NC3 6383  27.555  12.042   9.453
 5242POPC   PO4 6384  27.601  12.045   9.153
 5242POPC   GL1 6385  27.602  12.095   8.853
 5242POPC   GL2 6386  27.557  12.193   8.853
 5242POPC   C1A 6387  27.602  12.095   8.553
 5242POPC   D2A 6388  27.554  12.042   8.253
 5242POPC   C3A 6389  27.547  12.115   7.953
 5242POPC   C4A 6390  27.563  12.036   7.653
 5242POPC   C1B 6391  27.598  12.328   8.553
 5242POPC   C2B 6392  27.617  12.287   8.253
 5242POPC   C3B 6393  27.601  12.279   7.953
 5242POPC   C4B 6394  27.602  12.320   7.653
 5243POPC   NC3 6395  21.400  19.014   9.453
 5243POPC   PO4 6396  21.423  19.062   9.153
 5243POPC   GL1 6397  21.345  19.061   8.853
 5243POPC   GL2 6398  21.289  19.064   8.853
 5243POPC   C1A 6399  21.377  19.078   8.553
 5243POPC   D2A 6400  21.426  19.106   8.253
 5243POPC   C3A 6401  21.425  19.038   7.953
 5243POPC   C4A 6402  21.384  19.032   7.653
 5243POPC   C1B 6403  21.106  19.118   8.553
 5243POPC   C2B 6404  21.185  19.101   8.253
 5243POPC   C3B 6405  21.170  19.091   7.953
 5243POPC   C4B 6406  21.173  19.103   7.653
 5244POPC   NC3 6407   4.326   8.932   9.453
 5244POPC   PO4 6408   4.324   8.980   9.153
 5244POPC   GL1 6409   4.361   9.013   8.853
 5244POPC   GL2 6410   4.315   9.123   8.853
 5244POPC   C1A 6411   4.356   8.984   8.553
 5244POPC   D2A 6412   4.299   8.974   8.253
 5244POPC   C3A 6413   4.320   8.933   7.953
 5244POPC   C4A 6414   4.319   8.985   7.653
 5244POPC   C1B 6415   4.422   9.205   8.553
 5244POPC   C2B 6416   4.413   9.184   8.253
 5244POPC   C3B 6417   4.348   9.211   7.953
 5244POPC   C4B 6418   4.431   9.179   7.653
 5245POPC   NC3 6419   5.839  14.405   9.453
 5245POPC   PO4 6420   5.908  14.439   9.153
 5245POPC   GL1 6421   5.850  14.366   8.853
 5245POPC   GL2 6422   5.827  14.499   8.853
 5245POPC   C1A 6423   5.884  14.434   8.553
 5245POPC   D2A 6424   5.829  14.377   8.253
 5245POPC   C3A 6425   5.900  14.362   7.953
 5245POPC   C4A 6426   5.833  14.407   7.653
 5245POPC   C1B 6427   5.807  14.632   8.553
 5245POPC   C2B 6428   5.777  14.604   8.253
 5245POPC   C3B 6429   5.793  14.621   7.953
 5245POPC   C4B 6430   5.764  14.681   7.653
 5246POPC   NC3 6431  39.222  29.124   9.453
 5246POPC   PO4 6432  39.258  29.162   9.153
 5246POPC   GL1 6433  39.191  29.176   8.853
 5246POPC   GL2 6434  39.374  29.178   8.853
 5246POPC   C1A 6435  39.254  29.124   8.553
 5246POPC   D2A 6436  39.189  29.182   8.253
 5246POPC   C3A 6437  39.262  29.160   7.953
 5246POPC   C4A 6438  39.211  29.121   7.653
 5246POPC   C1B 6439  39.480  29.282   8.553
 5246POPC   C2B 6440  39.401  29.293   8.253
 5246POPC   C3B 6441  39.462  29.277   7.953
 5246POPC   C4B 6442  39.438  29.244   7.653
 5247POPC   NC3 6443  21.399  14.389   9.453
 5247POPC   PO4 6444  21.345  14.355   9.153
 5247POPC   GL1 6445  21.350  14.363   8.853
 5247POPC   GL2 6446  21.468  14.377   8.853
 5247POPC   C1A 6447  21.413  14.442   8.553
 5247POPC   D2A 6448  21.340  14.405   8.253
 5247POPC   C3A 6449  21.357  14.427   7.953
 5247POPC   C4A 6450  21.350  14.361   7.653
 5247POPC   C1B 6451  21.649  14.345   8.553
 5247POPC   C2B 6452  21.587  14.344   8.253
 5247POPC   C3B 6453  21.666  14.361   7.953
 5247POPC   C4B 6454  21.666  14.336   7.653
 5248POPC   NC3 6455  36.172  25.260   9.453
 5248POPC   PO4 6456  36.176  25.232   9.153
 5248POPC   GL1 6457  36.139  25.303   8.853
 5248POPC   GL2 6458  36.209  25.369   8.853
 5248POPC   C1A 6459  36.150  25.251   8.553
 5248POPC   D2A 6460  36.144  25.254   8.253
 5248POPC   C3A 6461  36.086  25.246   7.953
 5248POPC   C4A 6462  36.103  25.217   7.653
 5248POPC   C1B 6463  36.242  25.466   8.553
 5248POPC   C2B 6464  36.271  25.534   8.253
 5248POPC   C3B 6465  36.250  25.473   7.953
 5248POPC   C4B 6466  36.205  25.523   7.653
 5249POPC   NC3 6467   3.539  29.182   9.453
 5249POPC   PO4 6468   3.587  29.172   9.153
 5249POPC   GL1 6469   3.554  29.108   8.853
 5249POPC   GL2 6470   3.633  29.058   8.853
 5249POPC   C1A 6471   3.568  29.135   8.553
 5249POPC   D2A 6472   3.545  29.179   8.253
 5249POPC   C3A 6473   3.579  29.116   7.953
 5249POPC   C4A 6474   3.547  29.108   7.653
 5249POPC   C1B 6475   3.798  29.088   8.553
 5249POPC   C2B 6476   3.742  29.033   8.253
 5249POPC   C3B 6477   3.772  29.072   7.953
 5249POPC   C4B 6478   3.752  29.083   7.653
 5250POPC   NC3 6479  38.505  22.163   9.453
 5250POPC   PO4 6480  38.460  22.191   9.153
 5250POPC   GL1 6481  38.488  22.181   8.853
 5250POPC   GL2 6482  38.298  22.180   8.853
 5250POPC   C1A 6483  38.472  22.123   8.553
 5250POPC   D2A 6484  38.468  22.181   8.253
 5250POPC   C3A 6485  38.442  22.136   7.953
 5250POPC   C4A 6486  38.436  22.166   7.653
 5250POPC   C1B 6487  38.258  22.102   8.553
 5250POPC   C2B 6488  38.180  22.072   8.253
 5250POPC   C3B 6489  38.171  22.077   7.953
 5250POPC   C4B 6490  38.214  22.128   7.653
 5251POPC   NC3 6491  43.913  33.798   9.453
 5251POPC   PO4 6492  43.854  33.834   9.153
 5251POPC   GL1 6493  43.902  33.812   8.853
 5251POPC   GL2 6494  43.824  33.686   8.853
 5251POPC   C1A 6495  43.883  33.824   8.553
 5251POPC   D2A 6496  43.862  33.829   8.253
 5251POPC   C3A 6497  43.880  33.755   7.953
 5251POPC   C4A 6498  43.904  33.818   7.653
 5251POPC   C1B 6499  43.664  33.657   8.553
 5251POPC   C2B 6500  43.679  33.647   8.253
 5251POPC   C3B 6501  43.661  33.684   7.953
 5251POPC   C4B 6502  43.681  33.607   7.653
 5252POPC   NC3 6503   5.851  13.614   9.453
 5252POPC   PO4 6504   5.852  13.588   9.153
 5252POPC   GL1 6505   5.831  13.630   8.853
 5252POPC   GL2 6506   5.804  13.547   8.853
 5252POPC   C1A 6507   5.897  13.626   8.553
 5252POPC   D2A 6508   5.904  13.636   8.253
 5252POPC   C3A 6509   5.853  13.589   7.953
 5252POPC   C4A 6510   5.911  13.597   7.653
 5252POPC   C1B 6511   5.666  13.387   8.553
 5252POPC   C2B 6512   5.739  13.382   8.253
 5252POPC   C3B 6513   5.682  13.467   7.953
 5252POPC   C4B 6514   5.703  13.402   7.653
 5253POPC   NC3 6515   7.463  17.474   9.453
 5253POPC   PO4 6516   7.427  17.465   9.153
 5253POPC   GL1 6517   7.382  17.485   8.853
 5253POPC   GL2 6518   7.556  17.514   8.853
 5253POPC   C1A 6519   7.408  17.463   8.553
 5253POPC   D2A 6520   7.394  17.515   8.253
 5253POPC   C3A 6521   7.445  17.550   7.953
 5253POPC   C4A 6522   7.453  17.523   7.653
 5253POPC   C1B 6523   7.655  17.604   8.553
 5253POPC   C2B 6524   7.639  17.591   8.253
 5253POPC   C3B 6525   7.613  17.637   7.953
 5253POPC   C4B 6526   7.667  17.559   7.653
 5254POPC   NC3 6527  23.715  13.594   9.453
 5254POPC   PO4 6528  23.707  13.675   9.153
 5254POPC   GL1 6529  23.681  13.601   8.853
 5254POPC   GL2 6530  23.760  13.489   8.853
 5254POPC   C1A 6531  23.710  13.611   8.553
 5254POPC   D2A 6532  23.764  13.646   8.253
 5254POPC   C3A 6533  23.762  13.591   7.953
 5254POPC   C4A 6534  23.683  13.657   7.653
 5254POPC   C1B 6535  23.812  13.464   8.553
 5254POPC   C2B 6536  23.868  13.434   8.253
 5254POPC   C3B 6537  23.842  13.401   7.953
 5254POPC   C4B 6538  23.829  13.443   7.653
 5255POPC   NC3 6539   8.954  28.398   9.453
 5255POPC   PO4 6540   9.003  28.399   9.153
 5255POPC   GL1 6541   8.949  28.403   8.853
 5255POPC   GL2 6542   8.999  28.275   8.853
 5255POPC   C1A 6543   8.971  28.359   8.553
 5255POPC   D2A 6544   8.954  28.371   8.253
 5255POPC   C3A 6545   8.971  28.371   7.953
 5255POPC   C4A 6546   8.933  28.362   7.653
 5255POPC   C1B 6547   8.954  28.112   8.553
 5255POPC   C2B 6548   8.909  28.077   8.253
 5255POPC   C3B 6549   8.957  28.130   7.953
 5255POPC   C4B 6550   8.920  28.167   7.653
 5256POPC   NC3 6551  21.357  35.390   9.453
 5256POPC   PO4 6552  21.423  35.323   9.153
 5256POPC   GL1 6553  21.384  35.314   8.853
 5256POPC   GL2 6554  21.314  35.375   8.853
 5256POPC   C1A 6555  21.413  35.333   8.553
 5256POPC   D2A 6556  21.419  35.370   8.253
 5256POPC   C3A 6557  21.355  35.330   7.953
 5256POPC   C4A 6558  21.392  35.345   7.653
 5256POPC   C1B 6559  21.099  35.439   8.553
 5256POPC   C2B 6560  21.110  35.361   8.253
 5256POPC   C3B 6561  21.159  35.448   7.953
 5256POPC   C4B 6562  21.095  35.428   7.653
 5257POPC   NC3 6563  36.112  43.098   9.453
 5257POPC   PO4 6564  36.170  43.135   9.153
 5257POPC   GL1 6565  36.114  43.090   8.853
 5257POPC   GL2 6566  36.019  43.172   8.853
 5257POPC   C1A 6567  36.120  43.071   8.553
 5257POPC   D2A 6568  36.143  43.140   8.253
 5257POPC   C3A 6569  36.127  43.112   7.953
 5257POPC   C4A 6570  36.140  43.110   7.653
 5257POPC   C1B 6571  36.011  43.306   8.553
 5257POPC   C2B 6572  35.994  43.304   8.253
 5257POPC   C3B 6573  35.987  43.315   7.953
 5257POPC   C4B 6574  36.028  43.333   7.653
 5258POPC   NC3 6575  37.704  19.042   9.453
 5258POPC   PO4 6576  37.699  19.052   9.153
 5258POPC   GL1 6577  37.726  19.094   8.853
 5258POPC   GL2 6578  37.551  19.058   8.853
 5258POPC   C1A 6579  37.645  19.102   8.553
 5258POPC   D2A 6580  37.661  19.075   8.253
 5258POPC   C3A 6581  37.654  19.067   7.953
 5258POPC   C4A 6582  37.668  19.024   7.653
 5258POPC   C1B 6583  37.409  19.058   8.553
 5258POPC   C2B 6584  37.425  19.059   8.253
 5258POPC   C3B 6585  37.425  19.083   7.953
 5258POPC   C4B 6586  37.404  19.071   7.653
 5259POPC   NC3 6587  42.327  39.196   9.453
 5259POPC   PO4 6588  42.378  39.202   9.153
 5259POPC   GL1 6589  42.376  39.200   8.853
 5259POPC   GL2 6590  42.358  39.127   8.853
 5259POPC   C1A 6591  42.381  39.268   8.553
 5259POPC   D2A 6592  42.330  39.207   8.253
 5259POPC   C3A 6593  42.373  39.267   7.953
 5259POPC   C4A 6594  42.329  39.186   7.653
 5259POPC   C1B 6595  42.359  39.011   8.553
 5259POPC   C2B 6596  42.336  38.941   8.253
 5259POPC   C3B 6597  42.343  38.979   7.953
 5259POPC   C4B 6598  42.356  38.935   7.653
 5260POPC   NC3 6599  22.120  22.976   9.453
 5260POPC   PO4 6600  22.202  22.951   9.153
 5260POPC   GL1 6601  22.172  22.958   8.853
 5260POPC   GL2 6602  22.137  22.765   8.853
 5260POPC   C1A 6603  22.136  22.945   8.553
 5260POPC   D2A 6604  22.203  22.981   8.253
 5260POPC   C3A 6605  22.192  22.958   7.953
 5260POPC   C4A 6606  22.147  22.952   7.653
 5260POPC   C1B 6607  22.118  22.663   8.553
 5260POPC   C2B 6608  22.075  22.707   8.253
 5260POPC   C3B 6609  22.146  22.657   7.953
 5260POPC   C4B 6610  22.106  22.716   7.653
 5261POPC   NC3 6611  33.029   8.198   9.453
 5261POPC   PO4 6612  33.056   8.196   9.153
 5261POPC   GL1 6613  32.986   8.224   8.853
 5261POPC   GL2 6614  33.112   8.145   8.853
 5261POPC   C1A 6615  33.049   8.198   8.553
 5261POPC   D2A 6616  32.990   8.215   8.253
 5261POPC   C3A 6617  32.991   8.242   7.953
 5261POPC   C4A 6618  33.066   8.207   7.653
 5261POPC   C1B 6619  33.221   8.082   8.553
 5261POPC   C2B 6620  33.292   8.128   8.253
 5261POPC   C3B 6621  33.307   8.147   7.953
 5261POPC   C4B 6622  33.220   8.089   7.653
 5262POPC   NC3 6623  36.160  18.296   9.453
 5262POPC   PO4 6624  36.128  18.279   9.153
 5262POPC   GL1 6625  36.082  18.326   8.853
 5262POPC   GL2 6626  36.134  18.398   8.853
 5262POPC   C1A 6627  36.130  18.240   8.553
 5262POPC   D2A 6628  36.079  18.306   8.253
 5262POPC   C3A 6629  36.149  18.309   7.953
 5262POPC   C4A 6630  36.151  18.279   7.653
 5262POPC   C1B 6631  36.254  18.553   8.553
 5262POPC   C2B 6632  36.267  18.549   8.253
 5262POPC   C3B 6633  36.180  18.511   7.953
 5262POPC   C4B 6634  36.198  18.520   7.653
 5263POPC   NC3 6635  37.650   9.774   9.453
 5263POPC   PO4 6636  37.691   9.704   9.153
 5263POPC   GL1 6637  37.649   9.791   8.853
 5263POPC   GL2 6638  37.731   9.581   8.853
 5263POPC   C1A 6639  37.700   9.721   8.553
 5263POPC   D2A 6640  37.661   9.787   8.253
 5263POPC   C3A 6641  37.709   9.794   7.953
 5263POPC   C4A 6642  37.710   9.709   7.653
 5263POPC   C1B 6643  37.661   9.524   8.553
 5263POPC   C2B 6644  37.668   9.487   8.253
 5263POPC   C3B 6645  37.701   9.503   7.953
 5263POPC   C4B 6646  37.674   9.537   7.653
 5264POPC   NC3 6647  31.511   7.458   9.453
 5264POPC   PO4 6648  31.454   7.415   9.153
 5264POPC   GL1 6649  31.456   7.417   8.853
 5264POPC   GL2 6650  31.504   7.272   8.853
 5264POPC   C1A 6651  31.472   7.392   8.553
 5264POPC   D2A 6652  31.511   7.427   8.253
 5264POPC   C3A 6653  31.485   7.467   7.953
 5264POPC   C4A 6654  31.507   7.431   7.653
 5264POPC   C1B 6655  31.599   7.186   8.553
 5264POPC   C2B 6656  31.531   7.145   8.253
 5264POPC   C3B 6657  31.581   7.236   7.953
 5264POPC   C4B 6658  31.574   7.193   7.653
 5265POPC   NC3 6659   2.022  16.002   9.453
 5265POPC   PO4 6660   2.015  15.967   9.153
 5265POPC   GL1 6661   1.975  15.943   8.853
 5265POPC   GL2 6662   1.857  15.911   8.853
 5265POPC   C1A 6663   1.968  15.992   8.553
 5265POPC   D2A 6664   1.961  15.922   8.253
 5265POPC   C3A 6665   2.029  15.995   7.953
 5265POPC   C4A 6666   1.941  15.911   7.653
 5265POPC   C1B 6667   1.811  15.874   8.553
 5265POPC   C2B 6668   1.720  15.846   8.253
 5265POPC   C3B 6669   1.744  15.851   7.953
 5265POPC   C4B 6670   1.755  15.899   7.653
 5266POPC   NC3 6671  38.493   9.714   9.453
 5266POPC   PO4 6672  38.466   9.782   9.153
 5266POPC   GL1 6673  38.458   9.722   8.853
 5266POPC   GL2 6674  38.525   9.633   8.853
 5266POPC   C1A 6675  38.465   9.768   8.553
 5266POPC   D2A 6676  38.421   9.738   8.253
 5266POPC   C3A 6677  38.410   9.784   7.953
 5266POPC   C4A 6678  38.438   9.723   7.653
 5266POPC   C1B 6679  38.510   9.507   8.553
 5266POPC   C2B 6680  38.527   9.558   8.253
 5266POPC   C3B 6681  38.535   9.509   7.953
 5266POPC   C4B 6682  38.536   9.510   7.653
 5267POPC   NC3 6683  29.873  43.894   9.453
 5267POPC   PO4 6684  29.873  43.869   9.153
 5267POPC   GL1 6685  29.905  43.843   8.853
 5267POPC   GL2 6686  29.968  43.717   8.853
 5267POPC   C1A 6687  29.967  43.848   8.553
 5267POPC   D2A 6688  29.964  43.848   8.253
 5267POPC   C3A 6689  29.877  43.846   7.953
 5267POPC   C4A 6690  29.970  43.880   7.653
 5267POPC   C1B 6691  29.953  43.671   8.553
 5267POPC   C2B 6692  29.955  43.685   8.253
 5267POPC   C3B 6693  29.905  43.663   7.953
 5267POPC   C4B 6694  29.918  43.660   7.653
 5268POPC   NC3 6695  36.093  33.026   9.453
 5268POPC   PO4 6696  36.084  33.046   9.153
 5268POPC   GL1 6697  36.079  33.068   8.853
 5268POPC   GL2 6698  36.269  33.067   8.853
 5268POPC   C1A 6699  36.095  33.045   8.553
 5268POPC   D2A 6700  36.096  33.027   8.253
 5268POPC   C3A 6701  36.120  33.052   7.953
 5268POPC   C4A 6702  36.080  33.039   7.653
 5268POPC   C1B 6703  36.328  33.165   8.553
 5268POPC   C2B 6704  36.330  33.142   8.253
 5268POPC   C3B 6705  36.311  33.121   7.953
 5268POPC   C4B 6706  36.311  33.132   7.653
 5269POPC   NC3 6707   2.782  14.413   9.453
 5269POPC   PO4 6708   2.722  14.409   9.153
 5269POPC   GL1 6709   2.788  14.408   8.853
 5269POPC   GL2 6710   2.599  14.393   8.853
 5269POPC   C1A 6711   2.733  14.416   8.553
 5269POPC   D2A 6712   2.796  14.379   8.253
 5269POPC   C3A 6713   2.806  14.391   7.953
 5269POPC   C4A 6714   2.787  14.440   7.653
 5269POPC   C1B 6715   2.494  14.397   8.553
 5269POPC   C2B 6716   2.544  14.404   8.253
 5269POPC   C3B 6717   2.466  14.426   7.953
 5269POPC   C4B 6718   2.493  14.427   7.653
 5270POPC   NC3 6719  43.068  43.843   9.453
 5270POPC   PO4 6720  43.138  43.933   9.153
 5270POPC   GL1 6721  43.098  43.922   8.853
 5270POPC   GL2 6722  43.022  43.859   8.853
 5270POPC   C1A 6723  43.086  43.865   8.553
 5270POPC   D2A 6724  43.121  43.909   8.253
 5270POPC   C3A 6725  43.069  43.915   7.953
 5270POPC   C4A 6726  43.132  43.912   7.653
 5270POPC   C1B 6727  42.879  43.804   8.553
 5270POPC   C2B 6728  42.874  43.776   8.253
 5270POPC   C3B 6729  42.851  43.838   7.953
 5270POPC   C4B 6730  42.834  43.758   7.653
 5271POPC   NC3 6731  19.827   1.208   9.453
 5271POPC   PO4 6732  19.837   1.256   9.153
 5271POPC   GL1 6733  19.869   1.229   8.853
 5271POPC   GL2 6734  19.825   1.352   8.853
 5271POPC   C1A 6735  19.820   1.197   8.553
 5271POPC   D2A 6736  19.826   1.242   8.253
 5271POPC   C3A 6737  19.818   1.194   7.953
 5271POPC   C4A 6738  19.869   1.249   7.653
 5271POPC   C1B 6739  19.936   1.412   8.553
 5271POPC   C2B 6740  19.879   1.432   8.253
 5271POPC   C3B 6741  19.922   1.460   7.953
 5271POPC   C4B 6742  19.882   1.446   7.653
 5272POPC   NC3 6743   6.659   1.945   9.453
 5272POPC   PO4 6744   6.638   2.033   9.153
 5272POPC   GL1 6745   6.598   1.981   8.853
 5272POPC   GL2 6746   6.578   2.134   8.853
 5272POPC   C1A 6747   6.638   1.969   8.553
 5272POPC   D2A 6748   6.598   2.015   8.253
 5272POPC   C3A 6749   6.693   2.025   7.953
 5272POPC   C4A 6750   6.671   2.012   7.653
 5272POPC   C1B 6751   6.560   2.198   8.553
 5272POPC   C2B 6752   6.487   2.168   8.253
 5272POPC   C3B 6753   6.488   2.161   7.953
 5272POPC   C4B 6754   6.488   2.170   7.653
 5273POPC   NC3 6755  20.631  43.906   9.453
 5273POPC   PO4 6756  20.639  43.916   9.153
 5273POPC   GL1 6757  20.571  43.931   8.853
 5273POPC   GL2 6758  20.554  43.992   8.853
 5273POPC   C1A 6759  20.585  43.889   8.553
 5273POPC   D2A 6760  20.589  43.841   8.253
 5273POPC   C3A 6761  20.655  43.863   7.953
 5273POPC   C4A 6762  20.576  43.880   7.653
 5273POPC   C1B 6763  20.493  44.057   8.553
 5273POPC   C2B 6764  20.456  44.115   8.253
 5273POPC   C3B 6765  20.491  44.060   7.953
 5273POPC   C4B 6766  20.467  44.113   7.653
 5274POPC   NC3 6767  40.757  17.465   9.453
 5274POPC   PO4 6768  40.804  17.457   9.153
 5274POPC   GL1 6769  40.786  17.529   8.853
 5274POPC   GL2 6770  40.695  17.513   8.853
 5274POPC   C1A 6771  40.749  17.535   8.553
 5274POPC   D2A 6772  40.751  17.553   8.253
 5274POPC   C3A 6773  40.805  17.516   7.953
 5274POPC   C4A 6774  40.756  17.467   7.653
 5274POPC   C1B 6775  40.577  17.546   8.553
 5274POPC   C2B 6776  40.572  17.540   8.253
 5274POPC   C3B 6777  40.517  17.491   7.953
 5274POPC   C4B 6778  40.490  17.512   7.653
 5275POPC   NC3 6779  36.159  26.852   9.453
 5275POPC   PO4 6780  36.130  26.810   9.153
 5275POPC   GL1 6781  36.096  26.807   8.853
 5275POPC   GL2 6782  36.020  26.931   8.853
 5275POPC   C1A 6783  36.162  26.788   8.553
 5275POPC   D2A 6784  36.136  26.785   8.253
 5275POPC   C3A 6785  36.104  26.814   7.953
 5275POPC   C4A 6786  36.148  26.784   7.653
 5275POPC   C1B 6787  36.019  27.018   8.553
 5275POPC   C2B 6788  36.009  27.011   8.253
 5275POPC   C3B 6789  35.959  27.040   7.953
 5275POPC   C4B 6790  36.000  27.063   7.653
 5276POPC   NC3 6791  41.565  10.490   9.453
 5276POPC   PO4 6792  41.548  10.479   9.153
 5276POPC   GL1 6793  41.608  10.485   8.853
 5276POPC   GL2 6794  41.473  10.508   8.853
 5276POPC   C1A 6795  41.576  10.567   8.553
 5276POPC   D2A 6796  41.571  10.567   8.253
 5276POPC   C3A 6797  41.513  10.564   7.953
 5276POPC   C4A 6798  41.608  10.496   7.653
 5276POPC   C1B 6799  41.371  10.450   8.553
 5276POPC   C2B 6800  41.283  10.443   8.253
 5276POPC   C3B 6801  41.287  10.467   7.953
 5276POPC   C4B 6802  41.304  10.442   7.653
 5277POPC   NC3 6803  23.695   1.958   9.453
 5277POPC   PO4 6804  23.667   1.991   9.153
 5277POPC   GL1 6805  23.676   2.000   8.853
 5277POPC   GL2 6806  23.623   2.017   8.853
 5277POPC   C1A 6807  23.735   2.005   8.553
 5277POPC   D2A 6808  23.756   1.983   8.253
 5277POPC   C3A 6809  23.747   2.007   7.953
 5277POPC   C4A 6810  23.732   2.014   7.653
 5277POPC   C1B 6811  23.436   1.966   8.553
 5277POPC   C2B 6812  23.467   1.994   8.253
 5277POPC   C3B 6813  23.457   2.035   7.953
 5277POPC   C4B 6814  23.421   2.019   7.653
 5278POPC   NC3 6815  23.756  10.475   9.453
 5278POPC   PO4 6816  23.738  10.488   9.153
 5278POPC   GL1 6817  23.752  10.530   8.853
 5278POPC   GL2 6818  23.844  10.542   8.853
 5278POPC   C1A 6819  23.690  10.494   8.553
 5278POPC   D2A 6820  23.699  10.493   8.253
 5278POPC   C3A 6821  23.742  10.485   7.953
 5278POPC   C4A 6822  23.697  10.485   7.653
 5278POPC   C1B 6823  23.922  10.448   8.553
 5278POPC   C2B 6824  23.975  10.465   8.253
 5278POPC   C3B 6825  23.946  10.451   7.953
 5278POPC   C4B 6826  23.934  10.496   7.653
 5279POPC   NC3 6827  15.923  29.145   9.453
 5279POPC   PO4 6828  15.906  29.114   9.153
 5279POPC   GL1 6829  15.943  29.176   8.853
 5279POPC   GL2 6830  15.921  28.996   8.853
 5279POPC   C1A 6831  15.972  29.185   8.553
 5279POPC   D2A 6832  15.997  29.096   8.253
 5279POPC   C3A 6833  15.992  29.154   7.953
 5279POPC   C4A 6834  15.999  29.183   7.653
 5279POPC   C1B 6835  15.979  28.931   8.553
 5279POPC   C2B 6836  15.959  28.889   8.253
 5279POPC   C3B 6837  15.972  28.847   7.953
 5279POPC   C4B 6838  16.018  28.877   7.653
 5280POPC   NC3 6839  36.868  43.930   9.453
 5280POPC   PO4 6840  36.869  43.910   9.153
 5280POPC   GL1 6841  36.947  43.903   8.853
 5280POPC   GL2 6842  37.078  43.899   8.853
 5280POPC   C1A 6843  36.885  43.853   8.553
 5280POPC   D2A 6844  36.931  43.932   8.253
 5280POPC   C3A 6845  36.877  43.890   7.953
 5280POPC   C4A 6846  36.894  43.852   7.653
 5280POPC   C1B 6847  37.124  43.914   8.553
 5280POPC   C2B 6848  37.154  43.828   8.253
 5280POPC   C3B 6849  37.110  43.884   7.953
 5280POPC   C4B 6850  37.196  43.894   7.653
 5281POPC   NC3 6851  43.861  18.270   9.453
 5281POPC   PO4 6852  43.857  18.300   9.153
 5281POPC   GL1 6853  43.903  18.307   8.853
 5281POPC   GL2 6854  43.912  18.390   8.853
 5281POPC   C1A 6855  43.872  18.327   8.553
 5281POPC   D2A 6856  43.843  18.322   8.253
 5281POPC   C3A 6857  43.918  18.301   7.953
 5281POPC   C4A 6858  43.853  18.304   7.653
 5281POPC   C1B 6859  44.014  18.462   8.553
 5281POPC   C2B 6860  44.058  18.534   8.253
 5281POPC   C3B 6861  44.057  18.514   7.953
 5281POPC   C4B 6862  44.049  18.470   7.653
 5282POPC   NC3 6863   2.749  20.579   9.453
 5282POPC   PO4 6864   2.725  20.633   9.153
 5282POPC   GL1 6865   2.774  20.578   8.853
 5282POPC   GL2 6866   2.702  20.779   8.853
 5282POPC   C1A 6867   2.797  20.654   8.553
 5282POPC   D2A 6868   2.760  20.580   8.253
 5282POPC   C3A 6869   2.799  20.614   7.953
 5282POPC   C4A 6870   2.727  20.605   7.653
 5282POPC   C1B 6871   2.698  20.879   8.553
 5282POPC   C2B 6872   2.753  20.885   8.253
 5282POPC   C3B 6873   2.767  20.887   7.953
 5282POPC   C4B 6874   2.772  20.873   7.653
 5283POPC   NC3 6875  40.808  22.178   9.453
 5283POPC   PO4 6876  40.829  22.191   9.153
 5283POPC   GL1 6877  40.745  22.204   8.853
 5283POPC   GL2 6878  40.722  22.283   8.853
 5283POPC   C1A 6879  40.756  22.206   8.553
 5283POPC   D2A 6880  40.785  22.193   8.253
 5283POPC   C3A 6881  40.824  22.167   7.953
 5283POPC   C4A 6882  40.767  22.144   7.653
 5283POPC   C1B 6883  40.645  22.393   8.553
 5283POPC   C2B 6884  40.611  22.368   8.253
 5283POPC   C3B 6885  40.607  22.319   7.953
 5283POPC   C4B 6886  40.606  22.411   7.653
 5284POPC   NC3 6887  20.576   1.942   9.453
 5284POPC   PO4 6888  20.634   1.941   9.153
 5284POPC   GL1 6889  20.659   2.040   8.853
 5284POPC   GL2 6890  20.680   2.083   8.853
 5284POPC   C1A 6891  20.594   2.030   8.553
 5284POPC   D2A 6892  20.591   2.034   8.253
 5284POPC   C3A 6893  20.615   2.013   7.953
 5284POPC   C4A 6894  20.636   1.982   7.653
 5284POPC   C1B 6895  20.891   2.122   8.553
 5284POPC   C2B 6896  20.848   2.120   8.253
 5284POPC   C3B 6897  20.810   2.092   7.953
 5284POPC   C4B 6898  20.835   2.099   7.653
 5285POPC   NC3 6899  20.611  42.383   9.453
 5285POPC   PO4 6900  20.658  42.350   9.153
 5285POPC   GL1 6901  20.604  42.351   8.853
 5285POPC   GL2 6902  20.707  42.271   8.853
 5285POPC   C1A 6903  20.631  42.379   8.553
 5285POPC   D2A 6904  20.598  42.286   8.253
 5285POPC   C3A 6905  20.563  42.369   7.953
 5285POPC   C4A 6906  20.561  42.304   7.653
 5285POPC   C1B 6907  20.674  42.076   8.553
 5285POPC   C2B 6908  20.685  42.069   8.253
 5285POPC   C3B 6909  20.681  42.116   7.953
 5285POPC   C4B 6910  20.720  42.089   7.653
 5286POPC   NC3 6911  17.551  42.327   9.453
 5286POPC   PO4 6912  17.475  42.326   9.153
 5286POPC   GL1 6913  17.479  42.341   8.853
 5286POPC   GL2 6914  17.629  42.249   8.853
 5286POPC   C1A 6915  17.544  42.380   8.553
 5286POPC   D2A 6916  17.523  42.300   8.253
 5286POPC   C3A 6917  17.526  42.339   7.953
 5286POPC   C4A 6918  17.556  42.351   7.653
 5286POPC   C1B 6919  17.751  42.168   8.553
 5286POPC   C2B 6920  17.739  42.188   8.253
 5286POPC   C3B 6921  17.710  42.180   7.953
 5286POPC   C4B 6922  17.680  42.177   7.653
 5287POPC   NC3 6923  17.481  43.160   9.453
 5287POPC   PO4 6924  17.513  43.112   9.153
 5287POPC   GL1 6925  17.465  43.147   8.853
 5287POPC   GL2 6926  17.416  42.990   8.853
 5287POPC   C1A 6927  17.504  43.160   8.553
 5287POPC   D2A 6928  17.464  43.107   8.253
 5287POPC   C3A 6929  17.501  43.117   7.953
 5287POPC   C4A 6930  17.491  43.080   7.653
 5287POPC   C1B 6931  17.303  42.918   8.553
 5287POPC   C2B 6932  17.310  42.921   8.253
 5287POPC   C3B 6933  17.340  42.953   7.953
 5287POPC   C4B 6934  17.338  42.917   7.653
 5288POPC   NC3 6935   9.763  11.348   9.453
 5288POPC   PO4 6936   9.733  11.274   9.153
 5288POPC   GL1 6937   9.724  11.335   8.853
 5288POPC   GL2 6938   9.610  11.265   8.853
 5288POPC   C1A 6939   9.779  11.284   8.553
 5288POPC   D2A 6940   9.710  11.321   8.253
 5288POPC   C3A 6941   9.710  11.348   7.953
 5288POPC   C4A 6942   9.739  11.322   7.653
 5288POPC   C1B 6943   9.593  11.098   8.553
 5288POPC   C2B 6944   9.613  11.087   8.253
 5288POPC   C3B 6945   9.545  11.160   7.953
 5288POPC   C4B 6946   9.538  11.092   7.653
 5289POPC   NC3 6947   2.003  40.007   9.453
 5289POPC   PO4 6948   2.036  40.039   9.153
 5289POPC   GL1 6949   2.016  39.963   8.853
 5289POPC   GL2 6950   2.113  39.876   8.853
 5289POPC   C1A 6951   2.024  39.987   8.553
 5289POPC   D2A 6952   1.967  39.981   8.253
 5289POPC   C3A 6953   2.029  40.022   7.953
 5289POPC   C4A 6954   1.986  40.028   7.653
 5289POPC   C1B 6955   2.157  39.870   8.553
 5289POPC   C2B 6956   2.191  39.806   8.253
 5289POPC   C3B 6957   2.210  39.838   7.953
 5289POPC   C4B 6958   2.152  39.782   7.653
 5290POPC   NC3 6959  15.936  18.247   9.453
 5290POPC   PO4 6960  15.916  18.243   9.153
 5290POPC   GL1 6961  15.919  18.238   8.853
 5290POPC   GL2 6962  16.068  18.262   8.853
 5290POPC   C1A 6963  15.941  18.301   8.553
 5290POPC   D2A 6964  15.998  18.260   8.253
 5290POPC   C3A 6965  15.986  18.262   7.953
 5290POPC   C4A 6966  15.931  18.306   7.653
 5290POPC   C1B 6967  16.219  18.288   8.553
 5290POPC   C2B 6968  16.216  18.224   8.253
 5290POPC   C3B 6969  16.247  18.283   7.953
 5290POPC   C4B 6970  16.168  18.220   7.653
 5291POPC   NC3 6971  22.180  36.885   9.453
 5291POPC   PO4 6972  22.137  36.933   9.153
 5291POPC   GL1 6973  22.209  36.876   8.853
 5291POPC   GL2 6974  22.208  36.984   8.853
 5291POPC   C1A 6975  22.134  36.930   8.553
 5291POPC   D2A 6976  22.135  36.862   8.253
 5291POPC   C3A 6977  22.145  36.929   7.953
 5291POPC   C4A 6978  22.155  36.881   7.653
 5291POPC   C1B 6979  22.273  37.146   8.553
 5291POPC   C2B 6980  22.199  37.192   8.253
 5291POPC   C3B 6981  22.191  37.166   7.953
 5291POPC   C4B 6982  22.258  37.180   7.653
 5292POPC   NC3 6983  38.406   8.939   9.453
 5292POPC   PO4 6984  38.445   8.941   9.153
 5292POPC   GL1 6985  38.423   9.013   8.853
 5292POPC   GL2 6986  38.458   9.107   8.853
 5292POPC   C1A 6987  38.452   8.989   8.553
 5292POPC   D2A 6988  38.420   9.010   8.253
 5292POPC   C3A 6989  38.497   8.968   7.953
 5292POPC   C4A 6990  38.503   8.955   7.653
 5292POPC   C1B 6991  38.469   9.191   8.553
 5292POPC   C2B 6992  38.457   9.184   8.253
 5292POPC   C3B 6993  38.475   9.231   7.953
 5292POPC   C4B 6994  38.390   9.228   7.653
 5293POPC   NC3 6995  41.579  19.825   9.453
 5293POPC   PO4 6996  41.510  19.786   9.153
 5293POPC   GL1 6997  41.604  19.824   8.853
 5293POPC   GL2 6998  41.599  19.898   8.853
 5293POPC   C1A 6999  41.573  19.802   8.553
 5293POPC   D2A 7000  41.564  19.837   8.253
 5293POPC   C3A 7001  41.517  19.879   7.953
 5293POPC   C4A 7002  41.548  19.826   7.653
 5293POPC   C1B 7003  41.698  20.038   8.553
 5293POPC   C2B 7004  41.716  19.993   8.253
 5293POPC   C3B 7005  41.682  20.021   7.953
 5293POPC   C4B 7006  41.753  20.050   7.653
 5294POPC   NC3 7007  36.856  20.577   9.453
 5294POPC   PO4 7008  36.872  20.645   9.153
 5294POPC   GL1 7009  36.918  20.573   8.853
 5294POPC   GL2 7010  36.845  20.715   8.853
 5294POPC   C1A 7011  36.883  20.655   8.553
 5294POPC   D2A 7012  36.885  20.608   8.253
 5294POPC   C3A 7013  36.943  20.585   7.953
 5294POPC   C4A 7014  36.857  20.587   7.653
 5294POPC   C1B 7015  36.710  20.733   8.553
 5294POPC   C2B 7016  36.746  20.819   8.253
 5294POPC   C3B 7017  36.713  20.737   7.953
 5294POPC   C4B 7018  36.668  20.821   7.653
 5295POPC   NC3 7019  17.531   1.997   9.453
 5295POPC   PO4 7020  17.477   2.026   9.153
 5295POPC   GL1 7021  17.500   1.963   8.853
 5295POPC   GL2 7022  17.441   1.827   8.853
 5295POPC   C1A 7023  17.516   1.996   8.553
 5295POPC   D2A 7024  17.556   1.959   8.253
 5295POPC   C3A 7025  17.531   1.977   7.953
 5295POPC   C4A 7026  17.481   2.016   7.653
 5295POPC   C1B 7027  17.386   1.775   8.553
 5295POPC   C2B 7028  17.369   1.782   8.253
 5295POPC   C3B 7029  17.372   1.723   7.953
 5295POPC   C4B 7030  17.397   1.786   7.653
 5296POPC   NC3 7031  26.813  12.827   9.453
 5296POPC   PO4 7032  26.849  12.816   9.153
 5296POPC   GL1 7033  26.803  12.898   8.853
 5296POPC   GL2 7034  26.836  12.985   8.853
 5296POPC   C1A 7035  26.812  12.837   8.553
 5296POPC   D2A 7036  26.786  12.859   8.253
 5296POPC   C3A 7037  26.819  12.829   7.953
 5296POPC   C4A 7038  26.803  12.811   7.653
 5296POPC   C1B 7039  26.732  13.077   8.553
 5296POPC   C2B 7040  26.758  13.053   8.253
 5296POPC   C3B 7041  26.765  13.076   7.953
 5296POPC   C4B 7042  26.815  13.097   7.653
 5297POPC   NC3 7043  11.323   3.573   9.453
 5297POPC   PO4 7044  11.345   3.541   9.153
 5297POPC   GL1 7045  11.344   3.557   8.853
 5297POPC   GL2 7046  11.281   3.682   8.853
 5297POPC   C1A 7047  11.267   3.586   8.553
 5297POPC   D2A 7048  11.329   3.525   8.253
 5297POPC   C3A 7049  11.343   3.549   7.953
 5297POPC   C4A 7050  11.291   3.565   7.653
 5297POPC   C1B 7051  11.323   3.746   8.553
 5297POPC   C2B 7052  11.338   3.835   8.253
 5297POPC   C3B 7053  11.309   3.798   7.953
 5297POPC   C4B 7054  11.362   3.836   7.653
 5298POPC   NC3 7055   6.598  19.842   9.453
 5298POPC   PO4 7056   6.670  19.803   9.153
 5298POPC   GL1 7057   6.618  19.834   8.853
 5298POPC   GL2 7058   6.592  19.721   8.853
 5298POPC   C1A 7059   6.621  19.879   8.553
 5298POPC   D2A 7060   6.597  19.876   8.253
 5298POPC   C3A 7061   6.638  19.798   7.953
 5298POPC   C4A 7062   6.627  19.858   7.653
 5298POPC   C1B 7063   6.421  19.729   8.553
 5298POPC   C2B 7064   6.486  19.664   8.253
 5298POPC   C3B 7065   6.417  19.689   7.953
 5298POPC   C4B 7066   6.480  19.685   7.653
 5299POPC   NC3 7067  26.048  19.819   9.453
 5299POPC   PO4 7068  26.018  19.882   9.153
 5299POPC   GL1 7069  26.040  19.819   8.853
 5299POPC   GL2 7070  25.905  19.772   8.853
 5299POPC   C1A 7071  26.006  19.842   8.553
 5299POPC   D2A 7072  26.037  19.857   8.253
 5299POPC   C3A 7073  26.064  19.869   7.953
 5299POPC   C4A 7074  26.011  19.878   7.653
 5299POPC   C1B 7075  25.840  19.759   8.553
 5299POPC   C2B 7076  25.814  19.818   8.253
 5299POPC   C3B 7077  25.844  19.808   7.953
 5299POPC   C4B 7078  25.830  19.751   7.653
 5300POPC   NC3 7079   2.786   0.448   9.453
 5300POPC   PO4 7080   2.812   0.395   9.153
 5300POPC   GL1 7081   2.788   0.478   8.853
 5300POPC   GL2 7082   2.614   0.464   8.853
 5300POPC   C1A 7083   2.783   0.390   8.553
 5300POPC   D2A 7084   2.764   0.405   8.253
 5300POPC   C3A 7085   2.760   0.459   7.953
 5300POPC   C4A 7086   2.781   0.398   7.653
 5300POPC   C1B 7087   2.482   0.375   8.553
 5300POPC   C2B 7088   2.525   0.406   8.253
 5300POPC   C3B 7089   2.494   0.399   7.953
 5300POPC   C4B 7090   2.477   0.388   7.653
 5301POPC   NC3 7091  38.407  24.510   9.453
 5301POPC   PO4 7092  38.440  24.497   9.153
 5301POPC   GL1 7093  38.433  24.497   8.853
 5301POPC   GL2 7094  38.395  24.536   8.853
 5301POPC   C1A 7095  38.415  24.491   8.553
 5301POPC   D2A 7096  38.407  24.494   8.253
 5301POPC   C3A 7097  38.421  24.507   7.953
 5301POPC   C4A 7098  38.466  24.469   7.653
 5301POPC   C1B 7099  38.300  24.661   8.553
 5301POPC   C2B 7100  38.298  24.703   8.253
 5301POPC   C3B 7101  38.246  24.644   7.953
 5301POPC   C4B 7102  38.241  24.664   7.653
 5302POPC   NC3 7103   9.782   8.943   9.453
 5302POPC   PO4 7104   9.708   8.975   9.153
 5302POPC   GL1 7105   9.699   9.007   8.853
 5302POPC   GL2 7106   9.720   9.129   8.853
 5302POPC   C1A 7107   9.727   8.997   8.553
 5302POPC   D2A 7108   9.753   8.994   8.253
 5302POPC   C3A 7109   9.713   8.950   7.953
 5302POPC   C4A 7110   9.756   8.990   7.653
 5302POPC   C1B 7111   9.660   9.173   8.553
 5302POPC   C2B 7112   9.685   9.204   8.253
 5302POPC   C3B 7113   9.659   9.195   7.953
 5302POPC   C4B 7114   9.690   9.233   7.653
 5303POPC   NC3 7115  29.117   1.165   9.453
 5303POPC   PO4 7116  29.121   1.185   9.153
 5303POPC   GL1 7117  29.120   1.218   8.853
 5303POPC   GL2 7118  29.243   1.081   8.853
 5303POPC   C1A 7119  29.179   1.164   8.553
 5303POPC   D2A 7120  29.191   1.198   8.253
 5303POPC   C3A 7121  29.151   1.207   7.953
 5303POPC   C4A 7122  29.177   1.189   7.653
 5303POPC   C1B 7123  29.233   0.959   8.553
 5303POPC   C2B 7124  29.266   0.991   8.253
 5303POPC   C3B 7125  29.235   1.043   7.953
 5303POPC   C4B 7126  29.284   1.017   7.653
 5304POPC   NC3 7127  35.401  26.003   9.453
 5304POPC   PO4 7128  35.359  26.060   9.153
 5304POPC   GL1 7129  35.392  26.047   8.853
 5304POPC   GL2 7130  35.337  25.929   8.853
 5304POPC   C1A 7131  35.381  26.032   8.553
 5304POPC   D2A 7132  35.381  26.087   8.253
 5304POPC   C3A 7133  35.392  26.003   7.953
 5304POPC   C4A 7134  35.386  26.021   7.653
 5304POPC   C1B 7135  35.310  25.757   8.553
 5304POPC   C2B 7136  35.345  25.840   8.253
 5304POPC   C3B 7137  35.286  25.794   7.953
 5304POPC   C4B 7138  35.272  25.826   7.653
 5305POPC   NC3 7139  27.593  29.179   9.453
 5305POPC   PO4 7140  27.544  29.152   9.153
 5305POPC   GL1 7141  27.623  29.153   8.853
 5305POPC   GL2 7142  27.520  29.300   8.853
 5305POPC   C1A 7143  27.622  29.111   8.553
 5305POPC   D2A 7144  27.615  29.148   8.253
 5305POPC   C3A 7145  27.545  29.125   7.953
 5305POPC   C4A 7146  27.614  29.106   7.653
 5305POPC   C1B 7147  27.473  29.429   8.553
 5305POPC   C2B 7148  27.547  29.364   8.253
 5305POPC   C3B 7149  27.538  29.422   7.953
 5305POPC   C4B 7150  27.490  29.377   7.653
 5306POPC   NC3 7151   7.424  36.142   9.453
 5306POPC   PO4 7152   7.429  36.167   9.153
 5306POPC   GL1 7153   7.379  36.144   8.853
 5306POPC   GL2 7154   7.543  36.027   8.853
 5306POPC   C1A 7155   7.388  36.122   8.553
 5306POPC   D2A 7156   7.387  36.134   8.253
 5306POPC   C3A 7157   7.379  36.082   7.953
 5306POPC   C4A 7158   7.375  36.153   7.653
 5306POPC   C1B 7159   7.596  35.981   8.553
 5306POPC   C2B 7160   7.585  36.016   8.253
 5306POPC   C3B 7161   7.636  35.995   7.953
 5306POPC   C4B 7162   7.579  36.014   7.653
 5307POPC   NC3 7163  40.048  22.174   9.453
 5307POPC   PO4 7164  40.047  22.193   9.153
 5307POPC   GL1 7165  40.022  22.162   8.853
 5307POPC   GL2 7166  39.980  22.289   8.853
 5307POPC   C1A 7167  40.046  22.169   8.553
 5307POPC   D2A 7168  40.027  22.202   8.253
 5307POPC   C3A 7169  40.056  22.174   7.953
 5307POPC   C4A 7170  39.960  22.179   7.653
 5307POPC   C1B 7171  40.051  22.407   8.553
 5307POPC   C2B 7172  39.984  22.372   8.253
 5307POPC   C3B 7173  39.993  22.435   7.953
 5307POPC   C4B 7174  40.060  22.371   7.653
 5308POPC   NC3 7175   1.196   6.684   9.453
 5308POPC   PO4 7176   1.197   6.604   9.153
 5308POPC   GL1 7177   1.185   6.601   8.853
 5308POPC   GL2 7178   1.070   6.581   8.853
 5308POPC   C1A 7179   1.197   6.647   8.553
 5308POPC   D2A 7180   1.185   6.622   8.253
 5308POPC   C3A 7181   1.209   6.614   7.953
 5308POPC   C4A 7182   1.225   6.602   7.653
 5308POPC   C1B 7183   0.984   6.555   8.553
 5308POPC   C2B 7184   0.983   6.590   8.253
 5308POPC   C3B 7185   1.007   6.619   7.953
 5308POPC   C4B 7186   0.928   6.561   7.653
 5309POPC   NC3 7187  26.081   1.238   9.453
 5309POPC   PO4 7188  26.012   1.176   9.153
 5309POPC   GL1 7189  26.035   1.245   8.853
 5309POPC   GL2 7190  26.071   1.364   8.853
 5309POPC   C1A 7191  26.087   1.211   8.553
 5309POPC   D2A 7192  26.022   1.244   8.253
 5309POPC   C3A 7193  26.069   1.237   7.953
 5309POPC   C4A 7194  26.087   1.224   7.653
 5309POPC   C1B 7195  26.060   1.430   8.553
 5309POPC   C2B 7196  26.024   1.496   8.253
 5309POPC   C3B 7197  26.016   1.470   7.953
 5309POPC   C4B 7198  26.062   1.464   7.653
 5310POPC   NC3 7199   1.206  42.362   9.453
 5310POPC   PO4 7200   1.195  42.332   9.153
 5310POPC   GL1 7201   1.173  42.356   8.853
 5310POPC   GL2 7202   1.324  42.239   8.853
 5310POPC   C1A 7203   1.246  42.380   8.553
 5310POPC   D2A 7204   1.215  42.326   8.253
 5310POPC   C3A 7205   1.195  42.359   7.953
 5310POPC   C4A 7206   1.188  42.329   7.653
 5310POPC   C1B 7207   1.391  42.120   8.553
 5310POPC   C2B 7208   1.416  42.175   8.253
 5310POPC   C3B 7209   1.389  42.089   7.953
 5310POPC   C4B 7210   1.397  42.146   7.653
 5311POPC   NC3 7211  22.209  30.732   9.453
 5311POPC   PO4 7212  22.134  30.647   9.153
 5311POPC   GL1 7213  22.122  30.698   8.853
 5311POPC   GL2 7214  22.241  30.810   8.853
 5311POPC   C1A 7215  22.193  30.722   8.553
 5311POPC   D2A 7216  22.167  30.744   8.253
 5311POPC   C3A 7217  22.135  30.739   7.953
 5311POPC   C4A 7218  22.148  30.743   7.653
 5311POPC   C1B 7219  22.260  30.956   8.553
 5311POPC   C2B 7220  22.283  30.885   8.253
 5311POPC   C3B 7221  22.246  30.880   7.953
 5311POPC   C4B 7222  22.245  30.884   7.653
 5312POPC   NC3 7223  11.260  22.891   9.453
 5312POPC   PO4 7224  11.252  22.946   9.153
 5312POPC   GL1 7225  11.275  22.938   8.853
 5312POPC   GL2 7226  11.395  23.041   8.853
 5312POPC   C1A 7227  11.325  22.903   8.553
 5312POPC   D2A 7228  11.316  22.969   8.253
 5312POPC   C3A 7229  11.316  22.903   7.953
 5312POPC   C4A 7230  11.253  22.947   7.653
 5312POPC   C1B 7231  11.538  23.077   8.553
 5312POPC   C2B 7232  11.502  23.057   8.253
 5312POPC   C3B 7233  11.496  23.024   7.953
 5312POPC   C4B 7234  11.558  23.042   7.653
 5313POPC   NC3 7235   1.255   2.757   9.453
 5313POPC   PO4 7236   1.205   2.734   9.153
 5313POPC   GL1 7237   1.228   2.799   8.853
 5313POPC   GL2 7238   1.305   2.832   8.853
 5313POPC   C1A 7239   1.172   2.797   8.553
 5313POPC   D2A 7240   1.241   2.747   8.253
 5313POPC   C3A 7241   1.191   2.787   7.953
 5313POPC   C4A 7242   1.192   2.722   7.653
 5313POPC   C1B 7243   1.300   3.002   8.553
 5313POPC   C2B 7244   1.350   2.987   8.253
 5313POPC   C3B 7245   1.291   3.014   7.953
 5313POPC   C4B 7246   1.305   3.006   7.653
 5314POPC   NC3 7247   4.293   5.868   9.453
 5314POPC   PO4 7248   4.333   5.831   9.153
 5314POPC   GL1 7249   4.271   5.842   8.853
 5314POPC   GL2 7250   4.283   6.012   8.853
 5314POPC   C1A 7251   4.316   5.896   8.553
 5314POPC   D2A 7252   4.367   5.860   8.253
 5314POPC   C3A 7253   4.352   5.842   7.953
 5314POPC   C4A 7254   4.290   5.878   7.653
 5314POPC   C1B 7255   4.190   6.089   8.553
 5314POPC   C2B 7256   4.130   6.091   8.253
 5314POPC   C3B 7257   4.172   6.062   7.953
 5314POPC   C4B 7258   4.174   6.057   7.653
 5315POPC   NC3 7259   2.035  35.389   9.453
 5315POPC   PO4 7260   1.985  35.342   9.153
 5315POPC   GL1 7261   2.007  35.339   8.853
 5315POPC   GL2 7262   1.896  35.354   8.853
 5315POPC   C1A 7263   1.990  35.315   8.553
 5315POPC   D2A 7264   1.994  35.323   8.253
 5315POPC   C3A 7265   2.016  35.359   7.953
 5315POPC   C4A 7266   1.950  35.335   7.653
 5315POPC   C1B 7267   1.731  35.395   8.553
 5315POPC   C2B 7268   1.741  35.425   8.253
 5315POPC   C3B 7269   1.730  35.393   7.953
 5315POPC   C4B 7270   1.724  35.394   7.653
 5316POPC   NC3 7271  35.339  12.113   9.453
 5316POPC   PO4 7272  35.344  12.045   9.153
 5316POPC   GL1 7273  35.307  12.034   8.853
 5316POPC   GL2 7274  35.256  12.146   8.853
 5316POPC   C1A 7275  35.340  12.054   8.553
 5316POPC   D2A 7276  35.309  12.042   8.253
 5316POPC   C3A 7277  35.329  12.081   7.953
 5316POPC   C4A 7278  35.384  12.090   7.653
 5316POPC   C1B 7279  35.090  12.161   8.553
 5316POPC   C2B 7280  35.107  12.212   8.253
 5316POPC   C3B 7281  35.155  12.189   7.953
 5316POPC   C4B 7282  35.133  12.175   7.653
 5317POPC   NC3 7283  35.315   2.728   9.453
 5317POPC   PO4 7284  35.386   2.757   9.153
 5317POPC   GL1 7285  35.351   2.787   8.853
 5317POPC   GL2 7286  35.467   2.802   8.853
 5317POPC   C1A 7287  35.332   2.797   8.553
 5317POPC   D2A 7288  35.350   2.739   8.253
 5317POPC   C3A 7289  35.388   2.775   7.953
 5317POPC   C4A 7290  35.337   2.792   7.653
 5317POPC   C1B 7291  35.619   2.880   8.553
 5317POPC   C2B 7292  35.602   2.886   8.253
 5317POPC   C3B 7293  35.545   2.904   7.953
 5317POPC   C4B 7294  35.627   2.906   7.653
 5318POPC   NC3 7295  21.352  38.472   9.453
 5318POPC   PO4 7296  21.339  38.483   9.153
 5318POPC   GL1 7297  21.413  38.442   8.853
 5318POPC   GL2 7298  21.344  38.547   8.853
 5318POPC   C1A 7299  21.404  38.453   8.553
 5318POPC   D2A 7300  21.346  38.424   8.253
 5318POPC   C3A 7301  21.407  38.410   7.953
 5318POPC   C4A 7302  21.402  38.426   7.653
 5318POPC   C1B 7303  21.436  38.714   8.553
 5318POPC   C2B 7304  21.439  38.705   8.253
 5318POPC   C3B 7305  21.367  38.668   7.953
 5318POPC   C4B 7306  21.425  38.742   7.653
 5319POPC   NC3 7307  26.811  29.104   9.453
 5319POPC   PO4 7308  26.777  29.107   9.153
 5319POPC   GL1 7309  26.845  29.132   8.853
 5319POPC   GL2 7310  26.671  29.108   8.853
 5319POPC   C1A 7311  26.862  29.162   8.553
 5319POPC   D2A 7312  26.817  29.120   8.253
 5319POPC   C3A 7313  26.770  29.109   7.953
 5319POPC   C4A 7314  26.791  29.163   7.653
 5319POPC   C1B 7315  26.586  29.133   8.553
 5319POPC   C2B 7316  26.549  29.084   8.253
 5319POPC   C3B 7317  26.563  29.118   7.953
 5319POPC   C4B 7318  26.609  29.119   7.653
 5320POPC   NC3 7319  19.871   4.362   9.453
 5320POPC   PO4 7320  19.836   4.342   9.153
 5320POPC   GL1 7321  19.800   4.294   8.853
 5320POPC   GL2 7322  19.886   4.236   8.853
 5320POPC   C1A 7323  19.826   4.303   8.553
 5320POPC   D2A 7324  19.872   4.317   8.253
 5320POPC   C3A 7325  19.795   4.332   7.953
 5320POPC   C4A 7326  19.834   4.295   7.653
 5320POPC   C1B 7327  19.978   4.144   8.553
 5320POPC   C2B 7328  19.958   4.082   8.253
 5320POPC   C3B 7329  19.968   4.109   7.953
 5320POPC   C4B 7330  19.965   4.108   7.653
 5321POPC   NC3 7331  43.886   9.703   9.453
 5321POPC   PO4 7332  43.864   9.767   9.153
 5321POPC   GL1 7333  43.873   9.720   8.853
 5321POPC   GL2 7334  43.771   9.779   8.853
 5321POPC   C1A 7335  43.873   9.761   8.553
 5321POPC   D2A 7336  43.850   9.700   8.253
 5321POPC   C3A 7337  43.841   9.736   7.953
 5321POPC   C4A 7338  43.843   9.732   7.653
 5321POPC   C1B 7339  43.716   9.925   8.553
 5321POPC   C2B 7340  43.649   9.859   8.253
 5321POPC   C3B 7341  43.663   9.889   7.953
 5321POPC   C4B 7342  43.650   9.920   7.653
 5322POPC   NC3 7343  21.377   1.993   9.453
 5322POPC   PO4 7344  21.375   2.006   9.153
 5322POPC   GL1 7345  21.409   1.965   8.853
 5322POPC   GL2 7346  21.326   2.078   8.853
 5322POPC   C1A 7347  21.355   2.017   8.553
 5322POPC   D2A 7348  21.361   1.986   8.253
 5322POPC   C3A 7349  21.399   1.996   7.953
 5322POPC   C4A 7350  21.380   1.945   7.653
 5322POPC   C1B 7351  21.252   2.185   8.553
 5322POPC   C2B 7352  21.269   2.199   8.253
 5322POPC   C3B 7353  21.321   2.181   7.953
 5322POPC   C4B 7354  21.267   2.218   7.653
 5323POPC   NC3 7355  41.570  35.325   9.453
 5323POPC   PO4 7356  41.604  35.306   9.153
 5323POPC   GL1 7357  41.533  35.320   8.853
 5323POPC   GL2 7358  41.599  35.191   8.853
 5323POPC   C1A 7359  41.543  35.341   8.553
 5323POPC   D2A 7360  41.556  35.360   8.253
 5323POPC   C3A 7361  41.539  35.340   7.953
 5323POPC   C4A 7362  41.588  35.349   7.653
 5323POPC   C1B 7363  41.578  35.098   8.553
 5323POPC   C2B 7364  41.622  35.089   8.253
 5323POPC   C3B 7365  41.580  35.076   7.953
 5323POPC   C4B 7366  41.568  35.154   7.653
 5324POPC   NC3 7367  39.216  30.684   9.453
 5324POPC   PO4 7368  39.251  30.735   9.153
 5324POPC   GL1 7369  39.208  30.692   8.853
 5324POPC   GL2 7370  39.248  30.526   8.853
 5324POPC   C1A 7371  39.266  30.737   8.553
 5324POPC   D2A 7372  39.240  30.745   8.253
 5324POPC   C3A 7373  39.183  30.733   7.953
 5324POPC   C4A 7374  39.195  30.697   7.653
 5324POPC   C1B 7375  39.188  30.433   8.553
 5324POPC   C2B 7376  39.199  30.486   8.253
 5324POPC   C3B 7377  39.250  30.481   7.953
 5324POPC   C4B 7378  39.180  30.421   7.653
 5325POPC   NC3 7379   1.216  38.410   9.453
 5325POPC   PO4 7380   1.206  38.495   9.153
 5325POPC   GL1 7381   1.247  38.455   8.853
 5325POPC   GL2 7382   1.236  38.604   8.853
 5325POPC   C1A 7383   1.186  38.431   8.553
 5325POPC   D2A 7384   1.215  38.409   8.253
 5325POPC   C3A 7385   1.172  38.453   7.953
 5325POPC   C4A 7386   1.220  38.491   7.653
 5325POPC   C1B 7387   1.227  38.711   8.553
 5325POPC   C2B 7388   1.220  38.730   8.253
 5325POPC   C3B 7389   1.226  38.726   7.953
 5325POPC   C4B 7390   1.255  38.719   7.653
 5326POPC   NC3 7391  40.025  36.106   9.453
 5326POPC   PO4 7392  40.019  36.165   9.153
 5326POPC   GL1 7393  40.029  36.160   8.853
 5326POPC   GL2 7394  40.115  36.052   8.853
 5326POPC   C1A 7395  39.957  36.163   8.553
 5326POPC   D2A 7396  39.965  36.132   8.253
 5326POPC   C3A 7397  39.993  36.133   7.953
 5326POPC   C4A 7398  40.003  36.088   7.653
 5326POPC   C1B 7399  40.206  36.064   8.553
 5326POPC   C2B 7400  40.219  36.057   8.253
 5326POPC   C3B 7401  40.258  36.019   7.953
 5326POPC   C4B 7402  40.211  36.012   7.653
 5327POPC   NC3 7403   1.955  28.371   9.453
 5327POPC   PO4 7404   2.009  28.391   9.153
 5327POPC   GL1 7405   2.021  28.395   8.853
 5327POPC   GL2 7406   2.046  28.281   8.853
 5327POPC   C1A 7407   1.982  28.400   8.553
 5327POPC   D2A 7408   1.941  28.391   8.253
 5327POPC   C3A 7409   1.977  28.406   7.953
 5327POPC   C4A 7410   1.991  28.371   7.653
 5327POPC   C1B 7411   2.014  28.113   8.553
 5327POPC   C2B 7412   2.084  28.109   8.253
 5327POPC   C3B 7413   2.094  28.161   7.953
 5327POPC   C4B 7414   2.088  28.110   7.653
 5328POPC   NC3 7415  35.302  19.031   9.453
 5328POPC   PO4 7416  35.337  19.011   9.153
 5328POPC   GL1 7417  35.356  19.018   8.853
 5328POPC   GL2 7418  35.357  19.186   8.853
 5328POPC   C1A 7419  35.382  19.105   8.553
 5328POPC   D2A 7420  35.397  19.061   8.253
 5328POPC   C3A 7421  35.319  19.082   7.953
 5328POPC   C4A 7422  35.379  19.029   7.653
 5328POPC   C1B 7423  35.352  19.301   8.553
 5328POPC   C2B 7424  35.399  19.266   8.253
 5328POPC   C3B 7425  35.401  19.314   7.953
 5328POPC   C4B 7426  35.408  19.339   7.653
 5329POPC   NC3 7427   5.097   2.803   9.453
 5329POPC   PO4 7428   5.121   2.755   9.153
 5329POPC   GL1 7429   5.047   2.746   8.853
 5329POPC   GL2 7430   4.995   2.716   8.853
 5329POPC   C1A 7431   5.114   2.743   8.553
 5329POPC   D2A 7432   5.113   2.791   8.253
 5329POPC   C3A 7433   5.054   2.748   7.953
 5329POPC   C4A 7434   5.125   2.745   7.653
 5329POPC   C1B 7435   4.858   2.757   8.553
 5329POPC   C2B 7436   4.894   2.674   8.253
 5329POPC   C3B 7437   4.882   2.746   7.953
 5329POPC   C4B 7438   4.814   2.717   7.653
 5330POPC   NC3 7439   5.857  39.202   9.453
 5330POPC   PO4 7440   5.886  39.183   9.153
 5330POPC   GL1 7441   5.830  39.246   8.853
 5330POPC   GL2 7442   5.956  39.194   8.853
 5330POPC   C1A 7443   5.886  39.195   8.553
 5330POPC   D2A 7444   5.874  39.258   8.253
 5330POPC   C3A 7445   5.912  39.249   7.953
 5330POPC   C4A 7446   5.897  39.229   7.653
 5330POPC   C1B 7447   6.096  39.252   8.553
 5330POPC   C2B 7448   6.097  39.188   8.253
 5330POPC   C3B 7449   6.080  39.257   7.953
 5330POPC   C4B 7450   6.147  39.238   7.653
 5331POPC   NC3 7451  22.132  19.787   9.453
 5331POPC   PO4 7452  22.115  19.794   9.153
 5331POPC   GL1 7453  22.114  19.866   8.853
 5331POPC   GL2 7454  22.156  19.979   8.853
 5331POPC   C1A 7455  22.144  19.855   8.553
 5331POPC   D2A 7456  22.190  19.830   8.253
 5331POPC   C3A 7457  22.135  19.842   7.953
 5331POPC   C4A 7458  22.141  19.801   7.653
 5331POPC   C1B 7459  22.088  20.078   8.553
 5331POPC   C2B 7460  22.038  20.075   8.253
 5331POPC   C3B 7461  22.037  20.118   7.953
 5331POPC   C4B 7462  22.121  20.067   7.653
 5332POPC   NC3 7463  26.845  27.629   9.453
 5332POPC   PO4 7464  26.780  27.546   9.153
 5332POPC   GL1 7465  26.772  27.558   8.853
 5332POPC   GL2 7466  26.733  27.692   8.853
 5332POPC   C1A 7467  26.803  27.596   8.553
 5332POPC   D2A 7468  26.795  27.616   8.253
 5332POPC   C3A 7469  26.838  27.602   7.953
 5332POPC   C4A 7470  26.772  27.612   7.653
 5332POPC   C1B 7471  26.685  27.779   8.553
 5332POPC   C2B 7472  26.756  27.797   8.253
 5332POPC   C3B 7473  26.742  27.837   7.953
 5332POPC   C4B 7474  26.736  27.789   7.653
 5333POPC   NC3 7475  38.471  29.116   9.453
 5333POPC   PO4 7476  38.473  29.096   9.153
 5333POPC   GL1 7477  38.482  29.187   8.853
 5333POPC   GL2 7478  38.361  29.174   8.853
 5333POPC   C1A 7479  38.494  29.100   8.553
 5333POPC   D2A 7480  38.463  29.113   8.253
 5333POPC   C3A 7481  38.411  29.162   7.953
 5333POPC   C4A 7482  38.502  29.124   7.653
 5333POPC   C1B 7483  38.173  29.213   8.553
 5333POPC   C2B 7484  38.244  29.204   8.253
 5333POPC   C3B 7485  38.164  29.192   7.953
 5333POPC   C4B 7486  38.237  29.226   7.653
 5334POPC   NC3 7487   2.021   5.846   9.453
 5334POPC   PO4 7488   2.000   5.886   9.153
 5334POPC   GL1 7489   1.983   5.918   8.853
 5334POPC   GL2 7490   1.969   5.751   8.853
 5334POPC   C1A 7491   1.975   5.878   8.553
 5334POPC   D2A 7492   1.960   5.898   8.253
 5334POPC   C3A 7493   2.003   5.831   7.953
 5334POPC   C4A 7494   2.027   5.872   7.653
 5334POPC   C1B 7495   1.925   5.613   8.553
 5334POPC   C2B 7496   1.919   5.604   8.253
 5334POPC   C3B 7497   1.910   5.628   7.953
 5334POPC   C4B 7498   1.904   5.638   7.653
 5335POPC   NC3 7499  43.934   0.427   9.453
 5335POPC   PO4 7500  43.927   0.400   9.153
 5335POPC   GL1 7501  43.891   0.432   8.853
 5335POPC   GL2 7502  43.991   0.331   8.853
 5335POPC   C1A 7503  43.905   0.454   8.553
 5335POPC   D2A 7504  43.871   0.477   8.253
 5335POPC   C3A 7505  43.870   0.446   7.953
 5335POPC   C4A 7506  43.851   0.471   7.653
 5335POPC   C1B 7507  44.079   0.279   8.553
 5335POPC   C2B 7508  44.103   0.297   8.253
 5335POPC   C3B 7509  44.024   0.259   7.953
 5335POPC   C4B 7510  44.032   0.254   7.653
 5336POPC   NC3 7511  33.029  33.060   9.453
 5336POPC   PO4 7512  33.046  33.040   9.153
 5336POPC   GL1 7513  32.989  32.989   8.853
 5336POPC   GL2 7514  33.130  33.025   8.853
 5336POPC   C1A 7515  33.037  33.036   8.553
 5336POPC   D2A 7516  33.012  33.028   8.253
 5336POPC   C3A 7517  33.001  33.068   7.953
 5336POPC   C4A 7518  33.053  32.981   7.653
 5336POPC   C1B 7519  33.308  32.955   8.553
 5336POPC   C2B 7520  33.321  32.975   8.253
 5336POPC   C3B 7521  33.297  32.984   7.953
 5336POPC   C4B 7522  33.236  32.974   7.653
 5337POPC   NC3 7523   1.204  37.634   9.453
 5337POPC   PO4 7524   1.244  37.692   9.153
 5337POPC   GL1 7525   1.175  37.706   8.853
 5337POPC   GL2 7526   1.089  37.540   8.853
 5337POPC   C1A 7527   1.249  37.633   8.553
 5337POPC   D2A 7528   1.241  37.711   8.253
 5337POPC   C3A 7529   1.206  37.665   7.953
 5337POPC   C4A 7530   1.262  37.674   7.653
 5337POPC   C1B 7531   1.021  37.457   8.553
 5337POPC   C2B 7532   1.096  37.538   8.253
 5337POPC   C3B 7533   1.067  37.516   7.953
 5337POPC   C4B 7534   1.024  37.476   7.653
 5338POPC   NC3 7535   5.091  26.821   9.453
 5338POPC   PO4 7536   5.125  26.814   9.153
 5338POPC   GL1 7537   5.125  26.818   8.853
 5338POPC   GL2 7538   4.952  26.721   8.853
 5338POPC   C1A 7539   5.044  26.790   8.553
 5338POPC   D2A 7540   5.141  26.865   8.253
 5338POPC   C3A 7541   5.089  26.813   7.953
 5338POPC   C4A 7542   5.083  26.781   7.653
 5338POPC   C1B 7543   4.906  26.730   8.553
 5338POPC   C2B 7544   4.855  26.666   8.253
 5338POPC   C3B 7545   4.901  26.656   7.953
 5338POPC   C4B 7546   4.880  26.713   7.653
 5339POPC   NC3 7547   8.166  41.583   9.453
 5339POPC   PO4 7548   8.152  41.597   9.153
 5339POPC   GL1 7549   8.170  41.517   8.853
 5339POPC   GL2 7550   8.353  41.630   8.853
 5339POPC   C1A 7551   8.206  41.535   8.553
 5339POPC   D2A 7552   8.219  41.561   8.253
 5339POPC   C3A 7553   8.179  41.556   7.953
 5339POPC   C4A 7554   8.160  41.605   7.653
 5339POPC   C1B 7555   8.491  41.566   8.553
 5339POPC   C2B 7556   8.441  41.560   8.253
 5339POPC   C3B 7557   8.406  41.605   7.953
 5339POPC   C4B 7558   8.400  41.570   7.653
 5340POPC   NC3 7559   7.412  14.420   9.453
 5340POPC   PO4 7560   7.457  14.410   9.153
 5340POPC   GL1 7561   7.394  14.364   8.853
 5340POPC   GL2 7562   7.414  14.332   8.853
 5340POPC   C1A 7563   7.384  14.406   8.553
 5340POPC   D2A 7564   7.438  14.362   8.253
 5340POPC   C3A 7565   7.419  14.378   7.953
 5340POPC   C4A 7566   7.465  14.417   7.653
 5340POPC   C1B 7567   7.313  14.171   8.553
 5340POPC   C2B 7568   7.337  14.175   8.253
 5340POPC   C3B 7569   7.310  14.141   7.953
 5340POPC   C4B 7570   7.325  14.198   7.653
 5341POPC   NC3 7571   7.455  26.817   9.453
 5341POPC   PO4 7572   7.469  26.789   9.153
 5341POPC   GL1 7573   7.449  26.855   8.853
 5341POPC   GL2 7574   7.325  26.660   8.853
 5341POPC   C1A 7575   7.465  26.847   8.553
 5341POPC   D2A 7576   7.382  26.828   8.253
 5341POPC   C3A 7577   7.417  26.787   7.953
 5341POPC   C4A 7578   7.380  26.770   7.653
 5341POPC   C1B 7579   7.316  26.586   8.553
 5341POPC   C2B 7580   7.341  26.582   8.253
 5341POPC   C3B 7581   7.327  26.588   7.953
 5341POPC   C4B 7582   7.326  26.572   7.653
 5342POPC   NC3 7583   0.488  15.962   9.453
 5342POPC   PO4 7584   0.419  15.960   9.153
 5342POPC   GL1 7585   0.454  15.948   8.853
 5342POPC   GL2 7586   0.369  15.818   8.853
 5342POPC   C1A 7587   0.477  15.966   8.553
 5342POPC   D2A 7588   0.405  15.944   8.253
 5342POPC   C3A 7589   0.446  15.939   7.953
 5342POPC   C4A 7590   0.484  15.982   7.653
 5342POPC   C1B 7591   0.313  15.704   8.553
 5342POPC   C2B 7592   0.289  15.763   8.253
 5342POPC   C3B 7593   0.265  15.749   7.953
 5342POPC   C4B 7594   0.252  15.773   7.653
 5343POPC   NC3 7595   1.214  12.028   9.453
 5343POPC   PO4 7596   1.251  12.102   9.153
 5343POPC   GL1 7597   1.167  12.114   8.853
 5343POPC   GL2 7598   1.138  12.103   8.853
 5343POPC   C1A 7599   1.171  12.081   8.553
 5343POPC   D2A 7600   1.203  12.058   8.253
 5343POPC   C3A 7601   1.164  12.072   7.953
 5343POPC   C4A 7602   1.188  12.088   7.653
 5343POPC   C1B 7603   0.927  12.143   8.553
 5343POPC   C2B 7604   1.004  12.124   8.253
 5343POPC   C3B 7605   0.999  12.092   7.953
 5343POPC   C4B 7606   0.957  12.094   7.653
 5344POPC   NC3 7607   9.745  12.882   9.453
 5344POPC   PO4 7608   9.752  12.866   9.153
 5344POPC   GL1 7609   9.792  12.850   8.853
 5344POPC   GL2 7610   9.838  12.910   8.853
 5344POPC   C1A 7611   9.740  12.837   8.553
 5344POPC   D2A 7612   9.795  12.825   8.253
 5344POPC   C3A 7613   9.758  12.868   7.953
 5344POPC   C4A 7614   9.725  12.814   7.653
 5344POPC   C1B 7615   9.990  12.883   8.553
 5344POPC   C2B 7616  10.014  12.872   8.253
 5344POPC   C3B 7617   9.943  12.944   7.953
 5344POPC   C4B 7618  10.036  12.942   7.653
 5345POPC   NC3 7619   8.245  43.108   9.453
 5345POPC   PO4 7620   8.185  43.128   9.153
 5345POPC   GL1 7621   8.241  43.157   8.853
 5345POPC   GL2 7622   8.317  43.048   8.853
 5345POPC   C1A 7623   8.165  43.131   8.553
 5345POPC   D2A 7624   8.194  43.070   8.253
 5345POPC   C3A 7625   8.236  43.094   7.953
 5345POPC   C4A 7626   8.208  43.131   7.653
 5345POPC   C1B 7627   8.399  42.959   8.553
 5345POPC   C2B 7628   8.354  42.878   8.253
 5345POPC   C3B 7629   8.389  42.909   7.953
 5345POPC   C4B 7630   8.305  42.961   7.653
 5346POPC   NC3 7631  10.478   1.246   9.453
 5346POPC   PO4 7632  10.481   1.177   9.153
 5346POPC   GL1 7633  10.572   1.216   8.853
 5346POPC   GL2 7634  10.597   1.318   8.853
 5346POPC   C1A 7635  10.498   1.248   8.553
 5346POPC   D2A 7636  10.505   1.185   8.253
 5346POPC   C3A 7637  10.493   1.237   7.953
 5346POPC   C4A 7638  10.548   1.200   7.653
 5346POPC   C1B 7639  10.710   1.413   8.553
 5346POPC   C2B 7640  10.728   1.380   8.253
 5346POPC   C3B 7641  10.645   1.400   7.953
 5346POPC   C4B 7642  10.709   1.384   7.653
 5347POPC   NC3 7643  44.703   7.407   9.453
 5347POPC   PO4 7644  44.680   7.461   9.153
 5347POPC   GL1 7645  44.641   7.424   8.853
 5347POPC   GL2 7646  44.736   7.508   8.853
 5347POPC   C1A 7647  44.632   7.425   8.553
 5347POPC   D2A 7648  44.645   7.402   8.253
 5347POPC   C3A 7649  44.631   7.399   7.953
 5347POPC   C4A 7650  44.649   7.469   7.653
 5347POPC   C1B 7651  44.871   7.561   8.553
 5347POPC   C2B 7652  44.856   7.505   8.253
 5347POPC   C3B 7653  44.882   7.500   7.953
 5347POPC   C4B 7654  44.907   7.553   7.653
 5348POPC   NC3 7655  16.724   2.794   9.453
 5348POPC   PO4 7656  16.701   2.731   9.153
 5348POPC   GL1 7657  16.698   2.777   8.853
 5348POPC   GL2 7658  16.665   2.699   8.853
 5348POPC   C1A 7659  16.701   2.734   8.553
 5348POPC   D2A 7660  16.780   2.801   8.253
 5348POPC   C3A 7661  16.694   2.718   7.953
 5348POPC   C4A 7662  16.704   2.734   7.653
 5348POPC   C1B 7663  16.635   2.563   8.553
 5348POPC   C2B 7664  16.633   2.545   8.253
 5348POPC   C3B 7665  16.605   2.525   7.953
 5348POPC   C4B 7666  16.641   2.517   7.653
 5349POPC   NC3 7667  22.951  35.305   9.453
 5349POPC   PO4 7668  22.922  35.381   9.153
 5349POPC   GL1 7669  22.939  35.312   8.853
 5349POPC   GL2 7670  23.052  35.428   8.853
 5349POPC   C1A 7671  22.922  35.397   8.553
 5349POPC   D2A 7672  22.901  35.393   8.253
 5349POPC   C3A 7673  22.933  35.336   7.953
 5349POPC   C4A 7674  22.950  35.324   7.653
 5349POPC   C1B 7675  23.092  35.577   8.553
 5349POPC   C2B 7676  23.115  35.543   8.253
 5349POPC   C3B 7677  23.071  35.495   7.953
 5349POPC   C4B 7678  23.136  35.491   7.653
 5350POPC   NC3 7679  32.291   1.234   9.453
 5350POPC   PO4 7680  32.291   1.187   9.153
 5350POPC   GL1 7681  32.261   1.177   8.853
 5350POPC   GL2 7682  32.111   1.287   8.853
 5350POPC   C1A 7683  32.221   1.240   8.553
 5350POPC   D2A 7684  32.291   1.170   8.253
 5350POPC   C3A 7685  32.270   1.172   7.953
 5350POPC   C4A 7686  32.279   1.241   7.653
 5350POPC   C1B 7687  32.005   1.397   8.553
 5350POPC   C2B 7688  32.102   1.420   8.253
 5350POPC   C3B 7689  32.044   1.396   7.953
 5350POPC   C4B 7690  32.035   1.397   7.653
 5351POPC   NC3 7691   0.409  43.900   9.453
 5351POPC   PO4 7692   0.447  43.918   9.153
 5351POPC   GL1 7693   0.417  43.911   8.853
 5351POPC   GL2 7694   0.298  43.984   8.853
 5351POPC   C1A 7695   0.467  43.859   8.553
 5351POPC   D2A 7696   0.405  43.913   8.253
 5351POPC   C3A 7697   0.402  43.871   7.953
 5351POPC   C4A 7698   0.392  43.910   7.653
 5351POPC   C1B 7699   0.216  44.062   8.553
 5351POPC   C2B 7700   0.291  44.018   8.253
 5351POPC   C3B 7701   0.253  44.076   7.953
 5351POPC   C4B 7702   0.299  44.030   7.653
 5352POPC   NC3 7703  32.290  22.119   9.453
 5352POPC   PO4 7704  32.244  22.153   9.153
 5352POPC   GL1 7705  32.231  22.193   8.853
 5352POPC   GL2 7706  32.233  22.284   8.853
 5352POPC   C1A 7707  32.278  22.199   8.553
 5352POPC   D2A 7708  32.238  22.112   8.253
 5352POPC   C3A 7709  32.209  22.117   7.953
 5352POPC   C4A 7710  32.248  22.189   7.653
 5352POPC   C1B 7711  32.158  22.453   8.553
 5352POPC   C2B 7712  32.196  22.421   8.253
 5352POPC   C3B 7713  32.177  22.370   7.953
 5352POPC   C4B 7714  32.205  22.393   7.653
 5353POPC   NC3 7715  40.830  40.051   9.453
 5353POPC   PO4 7716  40.736  40.018   9.153
 5353POPC   GL1 7717  40.760  40.048   8.853
 5353POPC   GL2 7718  40.640  40.102   8.853
 5353POPC   C1A 7719  40.822  40.027   8.553
 5353POPC   D2A 7720  40.776  39.992   8.253
 5353POPC   C3A 7721  40.821  40.023   7.953
 5353POPC   C4A 7722  40.796  40.003   7.653
 5353POPC   C1B 7723  40.572  40.156   8.553
 5353POPC   C2B 7724  40.601  40.128   8.253
 5353POPC   C3B 7725  40.607  40.099   7.953
 5353POPC   C4B 7726  40.557  40.123   7.653
 5354POPC   NC3 7727   0.460   2.758   9.453
 5354POPC   PO4 7728   0.394   2.740   9.153
 5354POPC   GL1 7729   0.388   2.749   8.853
 5354POPC   GL2 7730   0.525   2.689   8.853
 5354POPC   C1A 7731   0.440   2.803   8.553
 5354POPC   D2A 7732   0.418   2.740   8.253
 5354POPC   C3A 7733   0.439   2.800   7.953
 5354POPC   C4A 7734   0.487   2.768   7.653
 5354POPC   C1B 7735   0.560   2.551   8.553
 5354POPC   C2B 7736   0.537   2.604   8.253
 5354POPC   C3B 7737   0.539   2.604   7.953
 5354POPC   C4B 7738   0.542   2.543   7.653
 5355POPC   NC3 7739  35.302  18.302   9.453
 5355POPC   PO4 7740  35.322  18.244   9.153
 5355POPC   GL1 7741  35.309  18.320   8.853
 5355POPC   GL2 7742  35.408  18.377   8.853
 5355POPC   C1A 7743  35.324  18.296   8.553
 5355POPC   D2A 7744  35.349  18.271   8.253
 5355POPC   C3A 7745  35.377  18.284   7.953
 5355POPC   C4A 7746  35.349  18.305   7.653
 5355POPC   C1B 7747  35.498  18.491   8.553
 5355POPC   C2B 7748  35.562  18.483   8.253
 5355POPC   C3B 7749  35.510  18.511   7.953
 5355POPC   C4B 7750  35.554  18.478   7.653
 5356POPC   NC3 7751  32.982  28.354   9.453
 5356POPC   PO4 7752  33.040  28.381   9.153
 5356POPC   GL1 7753  32.988  28.373   8.853
 5356POPC   GL2 7754  33.093  28.501   8.853
 5356POPC   C1A 7755  33.066  28.400   8.553
 5356POPC   D2A 7756  33.057  28.328   8.253
 5356POPC   C3A 7757  32.977  28.358   7.953
 5356POPC   C4A 7758  33.055  28.342   7.653
 5356POPC   C1B 7759  33.179  28.608   8.553
 5356POPC   C2B 7760  33.092  28.556   8.253
 5356POPC   C3B 7761  33.096  28.606   7.953
 5356POPC   C4B 7762  33.176  28.583   7.653
 5357POPC   NC3 7763  33.000  41.570   9.453
 5357POPC   PO4 7764  33.009  41.604   9.153
 5357POPC   GL1 7765  32.992  41.555   8.853
 5357POPC   GL2 7766  33.056  41.688   8.853
 5357POPC   C1A 7767  33.061  41.524   8.553
 5357POPC   D2A 7768  33.033  41.601   8.253
 5357POPC   C3A 7769  32.976  41.547   7.953
 5357POPC   C4A 7770  33.069  41.591   7.653
 5357POPC   C1B 7771  33.184  41.819   8.553
 5357POPC   C2B 7772  33.141  41.806   8.253
 5357POPC   C3B 7773  33.129  41.801   7.953
 5357POPC   C4B 7774  33.187  41.826   7.653
 5358POPC   NC3 7775  21.366  23.758   9.453
 5358POPC   PO4 7776  21.379  23.677   9.153
 5358POPC   GL1 7777  21.386  23.713   8.853
 5358POPC   GL2 7778  21.497  23.588   8.853
 5358POPC   C1A 7779  21.344  23.685   8.553
 5358POPC   D2A 7780  21.381  23.671   8.253
 5358POPC   C3A 7781  21.401  23.738   7.953
 5358POPC   C4A 7782  21.420  23.715   7.653
 5358POPC   C1B 7783  21.585  23.539   8.553
 5358POPC   C2B 7784  21.552  23.560   8.253
 5358POPC   C3B 7785  21.545  23.495   7.953
 5358POPC   C4B 7786  21.515  23.537   7.653
 5359POPC   NC3 7787  33.832   2.783   9.453
 5359POPC   PO4 7788  33.827   2.737   9.153
 5359POPC   GL1 7789  33.849   2.769   8.853
 5359POPC   GL2 7790  33.859   2.849   8.853
 5359POPC   C1A 7791  33.833   2.754   8.553
 5359POPC   D2A 7792  33.790   2.753   8.253
 5359POPC   C3A 7793  33.839   2.747   7.953
 5359POPC   C4A 7794  33.804   2.807   7.653
 5359POPC   C1B 7795  33.973   2.948   8.553
 5359POPC   C2B 7796  34.025   2.944   8.253
 5359POPC   C3B 7797  33.970   2.897   7.953
 5359POPC   C4B 7798  34.008   2.851   7.653
 5360POPC   NC3 7799  29.901   7.382   9.453
 5360POPC   PO4 7800  29.885   7.456   9.153
 5360POPC   GL1 7801  29.961   7.462   8.853
 5360POPC   GL2 7802  30.030   7.554   8.853
 5360POPC   C1A 7803  29.938   7.462   8.553
 5360POPC   D2A 7804  29.908   7.462   8.253
 5360POPC   C3A 7805  29.940   7.402   7.953
 5360POPC   C4A 7806  29.893   7.409   7.653
 5360POPC   C1B 7807  30.124   7.559   8.553
 5360POPC   C2B 7808  30.042   7.629   8.253
 5360POPC   C3B 7809  30.067   7.644   7.953
 5360POPC   C4B 7810  30.085   7.621   7.653
 5361POPC   NC3 7811   2.770   1.223   9.453
 5361POPC   PO4 7812   2.717   1.232   9.153
 5361POPC   GL1 7813   2.752   1.213   8.853
 5361POPC   GL2 7814   2.674   1.249   8.853
 5361POPC   C1A 7815   2.802   1.208   8.553
 5361POPC   D2A 7816   2.783   1.181   8.253
 5361POPC   C3A 7817   2.799   1.233   7.953
 5361POPC   C4A 7818   2.772   1.259   7.653
 5361POPC   C1B 7819   2.488   1.266   8.553
 5361POPC   C2B 7820   2.516   1.319   8.253
 5361POPC   C3B 7821   2.536   1.248   7.953
 5361POPC   C4B 7822   2.563   1.295   7.653
 5362POPC   NC3 7823   7.440  21.346   9.453
 5362POPC   PO4 7824   7.434  21.401   9.153
 5362POPC   GL1 7825   7.409  21.344   8.853
 5362POPC   GL2 7826   7.439  21.480   8.853
 5362POPC   C1A 7827   7.386  21.409   8.553
 5362POPC   D2A 7828   7.392  21.386   8.253
 5362POPC   C3A 7829   7.372  21.364   7.953
 5362POPC   C4A 7830   7.448  21.416   7.653
 5362POPC   C1B 7831   7.557  21.609   8.553
 5362POPC   C2B 7832   7.487  21.603   8.253
 5362POPC   C3B 7833   7.578  21.610   7.953
 5362POPC   C4B 7834   7.508  21.654   7.653
 5363POPC   NC3 7835  21.394  13.622   9.453
 5363POPC   PO4 7836  21.386  13.635   9.153
 5363POPC   GL1 7837  21.394  13.588   8.853
 5363POPC   GL2 7838  21.452  13.555   8.853
 5363POPC   C1A 7839  21.353  13.626   8.553
 5363POPC   D2A 7840  21.431  13.612   8.253
 5363POPC   C3A 7841  21.363  13.625   7.953
 5363POPC   C4A 7842  21.418  13.617   7.653
 5363POPC   C1B 7843  21.499  13.364   8.553
 5363POPC   C2B 7844  21.452  13.367   8.253
 5363POPC   C3B 7845  21.431  13.356   7.953
 5363POPC   C4B 7846  21.479  13.409   7.653
 5364POPC   NC3 7847  12.894  24.468   9.453
 5364POPC   PO4 7848  12.820  24.448   9.153
 5364POPC   GL1 7849  12.884  24.500   8.853
 5364POPC   GL2 7850  12.768  24.420   8.853
 5364POPC   C1A 7851  12.888  24.442   8.553
 5364POPC   D2A 7852  12.856  24.535   8.253
 5364POPC   C3A 7853  12.809  24.506   7.953
 5364POPC   C4A 7854  12.840  24.458   7.653
 5364POPC   C1B 7855  12.595  24.339   8.553
 5364POPC   C2B 7856  12.653  24.340   8.253
 5364POPC   C3B 7857  12.617  24.395   7.953
 5364POPC   C4B 7858  12.670  24.360   7.653
 5365POPC   NC3 7859   6.642  36.914   9.453
 5365POPC   PO4 7860   6.689  36.893   9.153
 5365POPC   GL1 7861   6.645  36.929   8.853
 5365POPC   GL2 7862   6.746  36.828   8.853
 5365POPC   C1A 7863   6.634  36.871   8.553
 5365POPC   D2A 7864   6.610  36.912   8.253
 5365POPC   C3A 7865   6.652  36.886   7.953
 5365POPC   C4A 7866   6.640  36.940   7.653
 5365POPC   C1B 7867   6.758  36.688   8.553
 5365POPC   C2B 7868   6.829  36.663   8.253
 5365POPC   C3B 7869   6.829  36.741   7.953
 5365POPC   C4B 7870   6.823  36.688   7.653
 5366POPC   NC3 7871  17.530  29.153   9.453
 5366POPC   PO4 7872  17.459  29.158   9.153
 5366POPC   GL1 7873  17.505  29.172   8.853
 5366POPC   GL2 7874  17.446  28.996   8.853
 5366POPC   C1A 7875  17.510  29.107   8.553
 5366POPC   D2A 7876  17.506  29.124   8.253
 5366POPC   C3A 7877  17.520  29.177   7.953
 5366POPC   C4A 7878  17.471  29.153   7.653
 5366POPC   C1B 7879  17.434  28.865   8.553
 5366POPC   C2B 7880  17.407  28.948   8.253
 5366POPC   C3B 7881  17.421  28.931   7.953
 5366POPC   C4B 7882  17.422  28.881   7.653
 5367POPC   NC3 7883  10.516  37.681   9.453
 5367POPC   PO4 7884  10.544  37.729   9.153
 5367POPC   GL1 7885  10.569  37.642   8.853
 5367POPC   GL2 7886  10.428  37.577   8.853
 5367POPC   C1A 7887  10.480  37.640   8.553
 5367POPC   D2A 7888  10.521  37.654   8.253
 5367POPC   C3A 7889  10.550  37.702   7.953
 5367POPC   C4A 7890  10.528  37.680   7.653
 5367POPC   C1B 7891  10.307  37.545   8.553
 5367POPC   C2B 7892  10.328  37.473   8.253
 5367POPC   C3B 7893  10.309  37.474   7.953
 5367POPC   C4B 7894  10.345  37.521   7.653
 5368POPC   NC3 7895  34.591  22.984   9.453
 5368POPC   PO4 7896  34.580  22.914   9.153
 5368POPC   GL1 7897  34.587  22.902   8.853
 5368POPC   GL2 7898  34.688  22.982   8.853
 5368POPC   C1A 7899  34.560  22.926   8.553
 5368POPC   D2A 7900  34.562  22.980   8.253
 5368POPC   C3A 7901  34.534  22.898   7.953
 5368POPC   C4A 7902  34.594  22.937   7.653
 5368POPC   C1B 7903  34.875  22.926   8.553
 5368POPC   C2B 7904  34.818  22.981   8.253
 5368POPC   C3B 7905  34.874  22.909   7.953
 5368POPC   C4B 7906  34.791  22.986   7.653
 5369POPC   NC3 7907  37.701  15.150   9.453
 5369POPC   PO4 7908  37.640  15.139   9.153
 5369POPC   GL1 7909  37.668  15.160   8.853
 5369POPC   GL2 7910  37.646  15.023   8.853
 5369POPC   C1A 7911  37.661  15.200   8.553
 5369POPC   D2A 7912  37.646  15.224   8.253
 5369POPC   C3A 7913  37.631  15.189   7.953
 5369POPC   C4A 7914  37.699  15.199   7.653
 5369POPC   C1B 7915  37.628  14.916   8.553
 5369POPC   C2B 7916  37.673  14.953   8.253
 5369POPC   C3B 7917  37.660  14.902   7.953
 5369POPC   C4B 7918  37.680  14.901   7.653
 5370POPC   NC3 7919  38.469  28.405   9.453
 5370POPC   PO4 7920  38.443  28.387   9.153
 5370POPC   GL1 7921  38.472  28.329   8.853
 5370POPC   GL2 7922  38.359  28.434   8.853
 5370POPC   C1A 7923  38.490  28.405   8.553
 5370POPC   D2A 7924  38.416  28.322   8.253
 5370POPC   C3A 7925  38.472  28.363   7.953
 5370POPC   C4A 7926  38.433  28.383   7.653
 5370POPC   C1B 7927  38.300  28.569   8.553
 5370POPC   C2B 7928  38.262  28.512   8.253
 5370POPC   C3B 7929  38.305  28.491   7.953
 5370POPC   C4B 7930  38.225  28.542   7.653
 5371POPC   NC3 7931  32.276  25.313   9.453
 5371POPC   PO4 7932  32.257  25.221   9.153
 5371POPC   GL1 7933  32.250  25.313   8.853
 5371POPC   GL2 7934  32.166  25.200   8.853
 5371POPC   C1A 7935  32.224  25.252   8.553
 5371POPC   D2A 7936  32.205  25.249   8.253
 5371POPC   C3A 7937  32.246  25.308   7.953
 5371POPC   C4A 7938  32.218  25.257   7.653
 5371POPC   C1B 7939  31.988  25.172   8.553
 5371POPC   C2B 7940  31.960  25.161   8.253
 5371POPC   C3B 7941  31.965  25.204   7.953
 5371POPC   C4B 7942  32.012  25.181   7.653
 5372POPC   NC3 7943  21.411   3.509   9.453
 5372POPC   PO4 7944  21.401   3.516   9.153
 5372POPC   GL1 7945  21.362   3.577   8.853
 5372POPC   GL2 7946  21.361   3.615   8.853
 5372POPC   C1A 7947  21.415   3.564   8.553
 5372POPC   D2A 7948  21.394   3.545   8.253
 5372POPC   C3A 7949  21.363   3.535   7.953
 5372POPC   C4A 7950  21.386   3.510   7.653
 5372POPC   C1B 7951  21.302   3.784   8.553
 5372POPC   C2B 7952  21.268   3.761   8.253
 5372POPC   C3B 7953  21.318   3.742   7.953
 5372POPC   C4B 7954  21.295   3.782   7.653
 5373POPC   NC3 7955   6.640  13.606   9.453
 5373POPC   PO4 7956   6.625  13.578   9.153
 5373POPC   GL1 7957   6.613  13.676   8.853
 5373POPC   GL2 7958   6.761  13.610   8.853
 5373POPC   C1A 7959   6.620  13.632   8.553
 5373POPC   D2A 7960   6.685  13.602   8.253
 5373POPC   C3A 7961   6.675  13.660   7.953
 5373POPC   C4A 7962   6.614  13.595   7.653
 5373POPC   C1B 7963   6.864  13.598   8.553
 5373POPC   C2B 7964   6.846  13.579   8.253
 5373POPC   C3B 7965   6.860  13.563   7.953
 5373POPC   C4B 7966   6.883  13.601   7.653
 5374POPC   NC3 7967   9.789  37.725   9.453
 5374POPC   PO4 7968   9.720  37.694   9.153
 5374POPC   GL1 7969   9.795  37.712   8.853
 5374POPC   GL2 7970   9.822  37.571   8.853
 5374POPC   C1A 7971   9.747  37.648   8.553
 5374POPC   D2A 7972   9.737  37.711   8.253
 5374POPC   C3A 7973   9.755  37.640   7.953
 5374POPC   C4A 7974   9.780  37.728   7.653
 5374POPC   C1B 7975   9.974  37.550   8.553
 5374POPC   C2B 7976   9.976  37.508   8.253
 5374POPC   C3B 7977   9.932  37.513   7.953
 5374POPC   C4B 7978   9.892  37.467   7.653
 5375POPC   NC3 7979  40.767   2.777   9.453
 5375POPC   PO4 7980  40.772   2.814   9.153
 5375POPC   GL1 7981  40.758   2.813   8.853
 5375POPC   GL2 7982  40.847   2.644   8.853
 5375POPC   C1A 7983  40.734   2.794   8.553
 5375POPC   D2A 7984  40.762   2.764   8.253
 5375POPC   C3A 7985  40.796   2.765   7.953
 5375POPC   C4A 7986  40.791   2.741   7.653
 5375POPC   C1B 7987  40.912   2.613   8.553
 5375POPC   C2B 7988  40.921   2.548   8.253
 5375POPC   C3B 7989  40.952   2.619   7.953
 5375POPC   C4B 7990  40.982   2.568   7.653
 5376POPC   NC3 7991  30.730  37.649   9.453
 5376POPC   PO4 7992  30.676  37.652   9.153
 5376POPC   GL1 7993  30.672  37.681   8.853
 5376POPC   GL2 7994  30.572  37.769   8.853
 5376POPC   C1A 7995  30.698  37.725   8.553
 5376POPC   D2A 7996  30.680  37.637   8.253
 5376POPC   C3A 7997  30.699  37.713   7.953
 5376POPC   C4A 7998  30.667  37.657   7.653
 5376POPC   C1B 7999  30.506  37.852   8.553
 5376POPC   C2B 8000  30.534  37.810   8.253
 5376POPC   C3B 8001  30.465  37.799   7.953
 5376POPC   C4B 8002  30.453  37.854   7.653
 5377POPC   NC3 8003  43.884  40.749   9.453
 5377POPC   PO4 8004  43.905  40.758   9.153
 5377POPC   GL1 8005  43.917  40.831   8.853
 5377POPC   GL2 8006  43.756  40.777   8.853
 5377POPC   C1A 8007  43.923  40.734   8.553
 5377POPC   D2A 8008  43.884  40.747   8.253
 5377POPC   C3A 8009  43.850  40.799   7.953
 5377POPC   C4A 8010  43.847  40.826   7.653
 5377POPC   C1B 8011  43.659  40.810   8.553
 5377POPC   C2B 8012  43.641  40.755   8.253
 5377POPC   C3B 8013  43.648  40.773   7.953
 5377POPC   C4B 8014  43.683  40.766   7.653
 5378POPC   NC3 8015  33.073   3.558   9.453
 5378POPC   PO4 8016  33.014   3.585   9.153
 5378POPC   GL1 8017  33.037   3.498   8.853
 5378POPC   GL2 8018  33.153   3.530   8.853
 5378POPC   C1A 8019  33.059   3.578   8.553
 5378POPC   D2A 8020  32.978   3.516   8.253
 5378POPC   C3A 8021  33.056   3.519   7.953
 5378POPC   C4A 8022  33.068   3.587   7.653
 5378POPC   C1B 8023  33.305   3.574   8.553
 5378POPC   C2B 8024  33.307   3.571   8.253
 5378POPC   C3B 8025  33.289   3.536   7.953
 5378POPC   C4B 8026  33.293   3.615   7.653
 5379POPC   NC3 8027  12.083  25.291   9.453
 5379POPC   PO4 8028  12.094  25.229   9.153
 5379POPC   GL1 8029  12.076  25.216   8.853
 5379POPC   GL2 8030  12.172  25.360   8.853
 5379POPC   C1A 8031  12.068  25.231   8.553
 5379POPC   D2A 8032  12.039  25.305   8.253
 5379POPC   C3A 8033  12.055  25.232   7.953
 5379POPC   C4A 8034  12.071  25.266   7.653
 5379POPC   C1B 8035  12.297  25.337   8.553
 5379POPC   C2B 8036  12.273  25.371   8.253
 5379POPC   C3B 8037  12.353  25.377   7.953
 5379POPC   C4B 8038  12.354  25.324   7.653
 5380POPC   NC3 8039   2.785   1.985   9.453
 5380POPC   PO4 8040   2.760   1.974   9.153
 5380POPC   GL1 8041   2.756   1.940   8.853
 5380POPC   GL2 8042   2.876   2.140   8.853
 5380POPC   C1A 8043   2.786   1.961   8.553
 5380POPC   D2A 8044   2.745   1.975   8.253
 5380POPC   C3A 8045   2.761   2.026   7.953
 5380POPC   C4A 8046   2.775   1.955   7.653
 5380POPC   C1B 8047   2.873   2.237   8.553
 5380POPC   C2B 8048   2.911   2.213   8.253
 5380POPC   C3B 8049   2.909   2.200   7.953
 5380POPC   C4B 8050   2.928   2.204   7.653
 5381POPC   NC3 8051  43.931   7.459   9.453
 5381POPC   PO4 8052  43.883   7.407   9.153
 5381POPC   GL1 8053  43.852   7.441   8.853
 5381POPC   GL2 8054  43.748   7.495   8.853
 5381POPC   C1A 8055  43.839   7.395   8.553
 5381POPC   D2A 8056  43.911   7.391   8.253
 5381POPC   C3A 8057  43.923   7.413   7.953
 5381POPC   C4A 8058  43.888   7.450   7.653
 5381POPC   C1B 8059  43.638   7.523   8.553
 5381POPC   C2B 8060  43.668   7.531   8.253
 5381POPC   C3B 8061  43.600   7.450   7.953
 5381POPC   C4B 8062  43.621   7.451   7.653
 5382POPC   NC3 8063  35.342  16.705   9.453
 5382POPC   PO4 8064  35.379  16.763   9.153
 5382POPC   GL1 8065  35.362  16.711   8.853
 5382POPC   GL2 8066  35.361  16.870   8.853
 5382POPC   C1A 8067  35.398  16.751   8.553
 5382POPC   D2A 8068  35.309  16.773   8.253
 5382POPC   C3A 8069  35.345  16.745   7.953
 5382POPC   C4A 8070  35.367  16.690   7.653
 5382POPC   C1B 8071  35.405  16.964   8.553
 5382POPC   C2B 8072  35.377  16.981   8.253
 5382POPC   C3B 8073  35.446  16.931   7.953
 5382POPC   C4B 8074  35.406  17.003   7.653
 5383POPC   NC3 8075  44.632  18.250   9.453
 5383POPC   PO4 8076  44.710  18.266   9.153
 5383POPC   GL1 8077  44.704  18.255   8.853
 5383POPC   GL2 8078  44.788  18.373   8.853
 5383POPC   C1A 8079  44.660  18.257   8.553
 5383POPC   D2A 8080  44.696  18.239   8.253
 5383POPC   C3A 8081  44.694  18.244   7.953
 5383POPC   C4A 8082  44.683  18.306   7.653
 5383POPC   C1B 8083  44.884  18.411   8.553
 5383POPC   C2B 8084  44.849  18.370   8.253
 5383POPC   C3B 8085  44.907  18.438   7.953
 5383POPC   C4B 8086  44.881  18.414   7.653
 5384POPC   NC3 8087  32.250  14.362   9.453
 5384POPC   PO4 8088  32.254  14.394   9.153
 5384POPC   GL1 8089  32.228  14.402   8.853
 5384POPC   GL2 8090  32.144  14.454   8.853
 5384POPC   C1A 8091  32.251  14.407   8.553
 5384POPC   D2A 8092  32.217  14.378   8.253
 5384POPC   C3A 8093  32.252  14.397   7.953
 5384POPC   C4A 8094  32.277  14.448   7.653
 5384POPC   C1B 8095  32.002  14.519   8.553
 5384POPC   C2B 8096  31.977  14.512   8.253
 5384POPC   C3B 8097  31.968  14.486   7.953
 5384POPC   C4B 8098  32.024  14.493   7.653
 5385POPC   NC3 8099   1.226  15.981   9.453
 5385POPC   PO4 8100   1.213  15.950   9.153
 5385POPC   GL1 8101   1.176  15.951   8.853
 5385POPC   GL2 8102   1.337  16.060   8.853
 5385POPC   C1A 8103   1.259  15.955   8.553
 5385POPC   D2A 8104   1.211  15.944   8.253
 5385POPC   C3A 8105   1.189  15.984   7.953
 5385POPC   C4A 8106   1.245  15.916   7.653
 5385POPC   C1B 8107   1.434  16.124   8.553
 5385POPC   C2B 8108   1.436  16.066   8.253
 5385POPC   C3B 8109   1.406  16.146   7.953
 5385POPC   C4B 8110   1.413  16.106   7.653
 5386POPC   NC3 8111  11.295   8.232   9.453
 5386POPC   PO4 8112  11.332   8.147   9.153
 5386POPC   GL1 8113  11.339   8.215   8.853
 5386POPC   GL2 8114  11.303   8.050   8.853
 5386POPC   C1A 8115  11.297   8.228   8.553
 5386POPC   D2A 8116  11.253   8.237   8.253
 5386POPC   C3A 8117  11.302   8.194   7.953
 5386POPC   C4A 8118  11.259   8.158   7.653
 5386POPC   C1B 8119  11.208   7.927   8.553
 5386POPC   C2B 8120  11.217   7.980   8.253
 5386POPC   C3B 8121  11.267   7.911   7.953
 5386POPC   C4B 8122  11.199   7.979   7.653
 5387POPC   NC3 8123   0.432  38.417   9.453
 5387POPC   PO4 8124   0.399  38.465   9.153
 5387POPC   GL1 8125   0.478  38.411   8.853
 5387POPC   GL2 8126   0.495  38.550   8.853
 5387POPC   C1A 8127   0.409  38.472   8.553
 5387POPC   D2A 8128   0.392  38.422   8.253
 5387POPC   C3A 8129   0.411  38.420   7.953
 5387POPC   C4A 8130   0.409  38.422   7.653
 5387POPC   C1B 8131   0.534  38.653   8.553
 5387POPC   C2B 8132   0.598  38.685   8.253
 5387POPC   C3B 8133   0.565  38.641   7.953
 5387POPC   C4B 8134   0.564  38.623   7.653
 5388POPC   NC3 8135   3.562  32.995   9.453
 5388POPC   PO4 8136   3.514  32.978   9.153
 5388POPC   GL1 8137   3.558  33.060   8.853
 5388POPC   GL2 8138   3.671  33.053   8.853
 5388POPC   C1A 8139   3.494  33.031   8.553
 5388POPC   D2A 8140   3.555  33.009   8.253
 5388POPC   C3A 8141   3.552  33.035   7.953
 5388POPC   C4A 8142   3.558  32.998   7.653
 5388POPC   C1B 8143   3.795  33.083   8.553
 5388POPC   C2B 8144   3.762  33.080   8.253
 5388POPC   C3B 8145   3.778  33.017   7.953
 5388POPC   C4B 8146   3.776  33.096   7.653
 5389POPC   NC3 8147  15.201  32.200   9.453
 5389POPC   PO4 8148  15.194  32.279   9.153
 5389POPC   GL1 8149  15.157  32.224   8.853
 5389POPC   GL2 8150  15.046  32.147   8.853
 5389POPC   C1A 8151  15.171  32.255   8.553
 5389POPC   D2A 8152  15.206  32.234   8.253
 5389POPC   C3A 8153  15.145  32.264   7.953
 5389POPC   C4A 8154  15.182  32.286   7.653
 5389POPC   C1B 8155  14.981  32.070   8.553
 5389POPC   C2B 8156  15.010  32.091   8.253
 5389POPC   C3B 8157  15.056  32.034   7.953
 5389POPC   C4B 8158  14.971  32.049   7.653
 5390POPC   NC3 8159  12.894  12.901   9.453
 5390POPC   PO4 8160  12.824  12.870   9.153
 5390POPC   GL1 8161  12.887  12.878   8.853
 5390POPC   GL2 8162  12.907  12.761   8.853
 5390POPC   C1A 8163  12.862  12.837   8.553
 5390POPC   D2A 8164  12.852  12.869   8.253
 5390POPC   C3A 8165  12.879  12.816   7.953
 5390POPC   C4A 8166  12.878  12.851   7.653
 5390POPC   C1B 8167  13.062  12.665   8.553
 5390POPC   C2B 8168  13.101  12.677   8.253
 5390POPC   C3B 8169  13.029  12.737   7.953
 5390POPC   C4B 8170  13.086  12.749   7.653
 5391POPC   NC3 8171   1.212   5.065   9.453
 5391POPC   PO4 8172   1.256   5.070   9.153
 5391POPC   GL1 8173   1.224   5.104   8.853
 5391POPC   GL2 8174   1.373   5.131   8.853
 5391POPC   C1A 8175   1.186   5.106   8.553
 5391POPC   D2A 8176   1.231   5.128   8.253
 5391POPC   C3A 8177   1.185   5.121   7.953
 5391POPC   C4A 8178   1.241   5.113   7.653
 5391POPC   C1B 8179   1.478   5.161   8.553
 5391POPC   C2B 8180   1.417   5.136   8.253
 5391POPC   C3B 8181   1.469   5.180   7.953
 5391POPC   C4B 8182   1.468   5.114   7.653
 5392POPC   NC3 8183  40.744  10.527   9.453
 5392POPC   PO4 8184  40.802  10.561   9.153
 5392POPC   GL1 8185  40.786  10.572   8.853
 5392POPC   GL2 8186  40.866  10.413   8.853
 5392POPC   C1A 8187  40.827  10.509   8.553
 5392POPC   D2A 8188  40.791  10.570   8.253
 5392POPC   C3A 8189  40.830  10.524   7.953
 5392POPC   C4A 8190  40.755  10.499   7.653
 5392POPC   C1B 8191  40.854  10.323   8.553
 5392POPC   C2B 8192  40.884  10.311   8.253
 5392POPC   C3B 8193  40.886  10.263   7.953
 5392POPC   C4B 8194  40.873  10.311   7.653
 5393POPC   NC3 8195  31.507  16.755   9.453
 5393POPC   PO4 8196  31.521  16.713   9.153
 5393POPC   GL1 8197  31.434  16.685   8.853
 5393POPC   GL2 8198  31.338  16.612   8.853
 5393POPC   C1A 8199  31.486  16.715   8.553
 5393POPC   D2A 8200  31.474  16.758   8.253
 5393POPC   C3A 8201  31.482  16.723   7.953
 5393POPC   C4A 8202  31.443  16.746   7.653
 5393POPC   C1B 8203  31.252  16.525   8.553
 5393POPC   C2B 8204  31.262  16.531   8.253
 5393POPC   C3B 8205  31.305  16.538   7.953
 5393POPC   C4B 8206  31.234  16.527   7.653
 5394POPC   NC3 8207  26.046  30.703   9.453
 5394POPC   PO4 8208  26.016  30.678   9.153
 5394POPC   GL1 8209  26.064  30.687   8.853
 5394POPC   GL2 8210  26.093  30.785   8.853
 5394POPC   C1A 8211  26.068  30.737   8.553
 5394POPC   D2A 8212  26.068  30.667   8.253
 5394POPC   C3A 8213  26.061  30.746   7.953
 5394POPC   C4A 8214  26.078  30.693   7.653
 5394POPC   C1B 8215  26.252  30.845   8.553
 5394POPC   C2B 8216  26.210  30.867   8.253
 5394POPC   C3B 8217  26.234  30.905   7.953
 5394POPC   C4B 8218  26.200  30.848   7.653
 5395POPC   NC3 8219  21.423  20.590   9.453
 5395POPC   PO4 8220  21.368  20.647   9.153
 5395POPC   GL1 8221  21.355  20.645   8.853
 5395POPC   GL2 8222  21.252  20.676   8.853
 5395POPC   C1A 8223  21.424  20.561   8.553
 5395POPC   D2A 8224  21.418  20.643   8.253
 5395POPC   C3A 8225  21.412  20.592   7.953
 5395POPC   C4A 8226  21.408  20.562   7.653
 5395POPC   C1B 8227  21.170  20.722   8.553
 5395POPC   C2B 8228  21.129  20.702   8.253
 5395POPC   C3B 8229  21.196  20.764   7.953
 5395POPC   C4B 8230  21.126  20.772   7.653
 5396POPC   NC3 8231  29.162  41.530   9.453
 5396POPC   PO4 8232  29.125  41.533   9.153
 5396POPC   GL1 8233  29.137  41.546   8.853
 5396POPC   GL2 8234  29.020  41.482   8.853
 5396POPC   C1A 8235  29.133  41.574   8.553
 5396POPC   D2A 8236  29.096  41.576   8.253
 5396POPC   C3A 8237  29.119  41.580   7.953
 5396POPC   C4A 8238  29.164  41.587   7.653
 5396POPC   C1B 8239  28.955  41.339   8.553
 5396POPC   C2B 8240  29.014  41.325   8.253
 5396POPC   C3B 8241  28.959  41.325   7.953
 5396POPC   C4B 8242  29.019  41.377   7.653
 5397POPC   NC3 8243  25.271  15.197   9.453
 5397POPC   PO4 8244  25.244  15.220   9.153
 5397POPC   GL1 8245  25.280  15.172   8.853
 5397POPC   GL2 8246  25.356  15.204   8.853
 5397POPC   C1A 8247  25.300  15.142   8.553
 5397POPC   D2A 8248  25.223  15.177   8.253
 5397POPC   C3A 8249  25.312  15.164   7.953
 5397POPC   C4A 8250  25.259  15.160   7.653
 5397POPC   C1B 8251  25.532  15.155   8.553
 5397POPC   C2B 8252  25.543  15.128   8.253
 5397POPC   C3B 8253  25.475  15.152   7.953
 5397POPC   C4B 8254  25.524  15.121   7.653
 5398POPC   NC3 8255   5.136  35.365   9.453
 5398POPC   PO4 8256   5.101  35.339   9.153
 5398POPC   GL1 8257   5.081  35.356   8.853
 5398POPC   GL2 8258   5.227  35.382   8.853
 5398POPC   C1A 8259   5.091  35.307   8.553
 5398POPC   D2A 8260   5.111  35.303   8.253
 5398POPC   C3A 8261   5.128  35.380   7.953
 5398POPC   C4A 8262   5.070  35.324   7.653
 5398POPC   C1B 8263   5.344  35.339   8.553
 5398POPC   C2B 8264   5.318  35.396   8.253
 5398POPC   C3B 8265   5.354  35.330   7.953
 5398POPC   C4B 8266   5.363  35.375   7.653
 5399POPC   NC3 8267  44.694   1.216   9.453
 5399POPC   PO4 8268  44.710   1.179   9.153
 5399POPC   GL1 8269  44.621   1.226   8.853
 5399POPC   GL2 8270  44.673   1.040   8.853
 5399POPC   C1A 8271  44.642   1.168   8.553
 5399POPC   D2A 8272  44.667   1.261   8.253
 5399POPC   C3A 8273  44.671   1.218   7.953
 5399POPC   C4A 8274  44.669   1.175   7.653
 5399POPC   C1B 8275  44.702   0.926   8.553
 5399POPC   C2B 8276  44.619   0.943   8.253
 5399POPC   C3B 8277  44.678   0.930   7.953
 5399POPC   C4B 8278  44.614   0.931   7.653
 5400POPC   NC3 8279  28.335  18.308   9.453
 5400POPC   PO4 8280  28.377  18.310   9.153
 5400POPC   GL1 8281  28.354  18.317   8.853
 5400POPC   GL2 8282  28.377  18.391   8.853
 5400POPC   C1A 8283  28.338  18.303   8.553
 5400POPC   D2A 8284  28.329  18.316   8.253
 5400POPC   C3A 8285  28.339  18.272   7.953
 5400POPC   C4A 8286  28.358  18.320   7.653
 5400POPC   C1B 8287  28.377  18.556   8.553
 5400POPC   C2B 8288  28.332  18.494   8.253
 5400POPC   C3B 8289  28.350  18.537   7.953
 5400POPC   C4B 8290  28.398  18.551   7.653
 5401POPC   NC3 8291  22.927  39.194   9.453
 5401POPC   PO4 8292  22.985  39.249   9.153
 5401POPC   GL1 8293  22.917  39.263   8.853
 5401POPC   GL2 8294  23.068  39.153   8.853
 5401POPC   C1A 8295  22.938  39.213   8.553
 5401POPC   D2A 8296  22.925  39.247   8.253
 5401POPC   C3A 8297  22.970  39.268   7.953
 5401POPC   C4A 8298  22.984  39.199   7.653
 5401POPC   C1B 8299  23.209  39.132   8.553
 5401POPC   C2B 8300  23.120  39.117   8.253
 5401POPC   C3B 8301  23.132  39.150   7.953
 5401POPC   C4B 8302  23.215  39.173   7.653
 5402POPC   NC3 8303  32.980   6.601   9.453
 5402POPC   PO4 8304  33.068   6.621   9.153
 5402POPC   GL1 8305  33.063   6.693   8.853
 5402POPC   GL2 8306  33.026   6.812   8.853
 5402POPC   C1A 8307  33.041   6.642   8.553
 5402POPC   D2A 8308  33.035   6.621   8.253
 5402POPC   C3A 8309  33.033   6.618   7.953
 5402POPC   C4A 8310  33.062   6.642   7.653
 5402POPC   C1B 8311  33.105   6.851   8.553
 5402POPC   C2B 8312  33.152   6.887   8.253
 5402POPC   C3B 8313  33.056   6.904   7.953
 5402POPC   C4B 8314  33.120   6.846   7.653
 5403POPC   NC3 8315  15.937  33.775   9.453
 5403POPC   PO4 8316  15.924  33.834   9.153
 5403POPC   GL1 8317  15.929  33.848   8.853
 5403POPC   GL2 8318  15.893  33.936   8.853
 5403POPC   C1A 8319  16.003  33.782   8.553
 5403POPC   D2A 8320  15.924  33.773   8.253
 5403POPC   C3A 8321  15.945  33.844   7.953
 5403POPC   C4A 8322  15.960  33.835   7.653
 5403POPC   C1B 8323  15.924  33.988   8.553
 5403POPC   C2B 8324  15.906  34.000   8.253
 5403POPC   C3B 8325  15.863  34.021   7.953
 5403POPC   C4B 8326  15.836  34.030   7.653
 5404POPC   NC3 8327  15.175   6.623   9.453
 5404POPC   PO4 8328  15.188   6.675   9.153
 5404POPC   GL1 8329  15.162   6.609   8.853
 5404POPC   GL2 8330  15.265   6.709   8.853
 5404POPC   C1A 8331  15.219   6.600   8.553
 5404POPC   D2A 8332  15.223   6.681   8.253
 5404POPC   C3A 8333  15.212   6.613   7.953
 5404POPC   C4A 8334  15.163   6.638   7.653
 5404POPC   C1B 8335  15.387   6.740   8.553
 5404POPC   C2B 8336  15.442   6.719   8.253
 5404POPC   C3B 8337  15.434   6.792   7.953
 5404POPC   C4B 8338  15.379   6.763   7.653
 5405POPC   NC3 8339  18.329  12.106   9.453
 5405POPC   PO4 8340  18.261  12.100   9.153
 5405POPC   GL1 8341  18.305  12.064   8.853
 5405POPC   GL2 8342  18.371  12.186   8.853
 5405POPC   C1A 8343  18.313  12.103   8.553
 5405POPC   D2A 8344  18.312  12.039   8.253
 5405POPC   C3A 8345  18.294  12.106   7.953
 5405POPC   C4A 8346  18.239  12.042   7.653
 5405POPC   C1B 8347  18.450  12.278   8.553
 5405POPC   C2B 8348  18.454  12.286   8.253
 5405POPC   C3B 8349  18.483  12.272   7.953
 5405POPC   C4B 8350  18.426  12.301   7.653
 5406POPC   NC3 8351  38.503  11.301   9.453
 5406POPC   PO4 8352  38.441  11.256   9.153
 5406POPC   GL1 8353  38.491  11.269   8.853
 5406POPC   GL2 8354  38.363  11.203   8.853
 5406POPC   C1A 8355  38.421  11.313   8.553
 5406POPC   D2A 8356  38.479  11.291   8.253
 5406POPC   C3A 8357  38.499  11.334   7.953
 5406POPC   C4A 8358  38.495  11.265   7.653
 5406POPC   C1B 8359  38.329  11.072   8.553
 5406POPC   C2B 8360  38.286  11.048   8.253
 5406POPC   C3B 8361  38.349  11.120   7.953
 5406POPC   C4B 8362  38.357  11.038   7.653
 5407POPC   NC3 8363   0.400  27.607   9.453
 5407POPC   PO4 8364   0.406  27.560   9.153
 5407POPC   GL1 8365   0.459  27.638   8.853
 5407POPC   GL2 8366   0.293  27.650   8.853
 5407POPC   C1A 8367   0.448  27.589   8.553
 5407POPC   D2A 8368   0.438  27.598   8.253
 5407POPC   C3A 8369   0.446  27.548   7.953
 5407POPC   C4A 8370   0.413  27.612   7.653
 5407POPC   C1B 8371   0.244  27.784   8.553
 5407POPC   C2B 8372   0.251  27.779   8.253
 5407POPC   C3B 8373   0.220  27.701   7.953
 5407POPC   C4B 8374   0.266  27.777   7.653
 5408POPC   NC3 8375   1.196   7.376   9.453
 5408POPC   PO4 8376   1.171   7.470   9.153
 5408POPC   GL1 8377   1.191   7.432   8.853
 5408POPC   GL2 8378   1.219   7.521   8.853
 5408POPC   C1A 8379   1.226   7.412   8.553
 5408POPC   D2A 8380   1.217   7.425   8.253
 5408POPC   C3A 8381   1.232   7.470   7.953
 5408POPC   C4A 8382   1.199   7.432   7.653
 5408POPC   C1B 8383   1.201   7.656   8.553
 5408POPC   C2B 8384   1.205   7.703   8.253
 5408POPC   C3B 8385   1.153   7.653   7.953
 5408POPC   C4B 8386   1.147   7.687   7.653
 5409POPC   NC3 8387   5.110   1.188   9.453
 5409POPC   PO4 8388   5.128   1.204   9.153
 5409POPC   GL1 8389   5.064   1.244   8.853
 5409POPC   GL2 8390   5.194   1.167   8.853
 5409POPC   C1A 8391   5.136   1.221   8.553
 5409POPC   D2A 8392   5.049   1.237   8.253
 5409POPC   C3A 8393   5.126   1.251   7.953
 5409POPC   C4A 8394   5.131   1.180   7.653
 5409POPC   C1B 8395   5.366   1.139   8.553
 5409POPC   C2B 8396   5.385   1.118   8.253
 5409POPC   C3B 8397   5.359   1.133   7.953
 5409POPC   C4B 8398   5.318   1.172   7.653
 5410POPC   NC3 8399  17.504   4.327   9.453
 5410POPC   PO4 8400  17.509   4.317   9.153
 5410POPC   GL1 8401  17.498   4.287   8.853
 5410POPC   GL2 8402  17.469   4.233   8.853
 5410POPC   C1A 8403  17.530   4.363   8.553
 5410POPC   D2A 8404  17.553   4.318   8.253
 5410POPC   C3A 8405  17.501   4.351   7.953
 5410POPC   C4A 8406  17.459   4.336   7.653
 5410POPC   C1B 8407  17.568   4.091   8.553
 5410POPC   C2B 8408  17.551   4.087   8.253
 5410POPC   C3B 8409  17.479   4.040   7.953
 5410POPC   C4B 8410  17.509   4.093   7.653
 5411POPC   NC3 8411  37.726  44.657   9.453
 5411POPC   PO4 8412  37.721  44.635   9.153
 5411POPC   GL1 8413  37.695  44.691   8.853
 5411POPC   GL2 8414  37.712  44.588   8.853
 5411POPC   C1A 8415  37.695  44.681   8.553
 5411POPC   D2A 8416  37.661  44.695   8.253
 5411POPC   C3A 8417  37.689  44.707   7.953
 5411POPC   C4A 8418  37.718  44.676   7.653
 5411POPC   C1B 8419  37.813  44.425   8.553
 5411POPC   C2B 8420  37.753  44.405   8.253
 5411POPC   C3B 8421  37.776  44.464   7.953
 5411POPC   C4B 8422  37.754  44.452   7.653
 5412POPC   NC3 8423  38.437   5.870   9.453
 5412POPC   PO4 8424  38.487   5.823   9.153
 5412POPC   GL1 8425  38.486   5.856   8.853
 5412POPC   GL2 8426  38.400   5.801   8.853
 5412POPC   C1A 8427  38.481   5.915   8.553
 5412POPC   D2A 8428  38.504   5.838   8.253
 5412POPC   C3A 8429  38.470   5.846   7.953
 5412POPC   C4A 8430  38.479   5.887   7.653
 5412POPC   C1B 8431  38.281   5.698   8.553
 5412POPC   C2B 8432  38.286   5.739   8.253
 5412POPC   C3B 8433  38.261   5.712   7.953
 5412POPC   C4B 8434  38.257   5.679   7.653
 5413POPC   NC3 8435  23.726  27.596   9.453
 5413POPC   PO4 8436  23.712  27.553   9.153
 5413POPC   GL1 8437  23.744  27.582   8.853
 5413POPC   GL2 8438  23.546  27.634   8.853
 5413POPC   C1A 8439  23.729  27.635   8.553
 5413POPC   D2A 8440  23.674  27.595   8.253
 5413POPC   C3A 8441  23.759  27.587   7.953
 5413POPC   C4A 8442  23.676  27.575   7.653
 5413POPC   C1B 8443  23.465  27.630   8.553
 5413POPC   C2B 8444  23.433  27.643   8.253
 5413POPC   C3B 8445  23.497  27.654   7.953
 5413POPC   C4B 8446  23.437  27.634   7.653
 5414POPC   NC3 8447  40.824  22.983   9.453
 5414POPC   PO4 8448  40.778  22.953   9.153
 5414POPC   GL1 8449  40.824  22.983   8.853
 5414POPC   GL2 8450  40.854  22.833   8.853
 5414POPC   C1A 8451  40.811  22.900   8.553
 5414POPC   D2A 8452  40.830  22.921   8.253
 5414POPC   C3A 8453  40.736  22.931   7.953
 5414POPC   C4A 8454  40.801  22.898   7.653
 5414POPC   C1B 8455  41.047  22.836   8.553
 5414POPC   C2B 8456  41.037  22.797   8.253
 5414POPC   C3B 8457  41.042  22.835   7.953
 5414POPC   C4B 8458  41.002  22.830   7.653
 5415POPC   NC3 8459  19.101  41.583   9.453
 5415POPC   PO4 8460  19.059  41.590   9.153
 5415POPC   GL1 8461  19.076  41.568   8.853
 5415POPC   GL2 8462  18.886  41.577   8.853
 5415POPC   C1A 8463  19.109  41.589   8.553
 5415POPC   D2A 8464  19.054  41.600   8.253
 5415POPC   C3A 8465  19.082  41.559   7.953
 5415POPC   C4A 8466  19.011  41.599   7.653
 5415POPC   C1B 8467  18.769  41.633   8.553
 5415POPC   C2B 8468  18.830  41.635   8.253
 5415POPC   C3B 8469  18.850  41.539   7.953
 5415POPC   C4B 8470  18.793  41.569   7.653
 5416POPC   NC3 8471  31.437  39.188   9.453
 5416POPC   PO4 8472  31.490  39.185   9.153
 5416POPC   GL1 8473  31.485  39.269   8.853
 5416POPC   GL2 8474  31.559  39.311   8.853
 5416POPC   C1A 8475  31.427  39.232   8.553
 5416POPC   D2A 8476  31.432  39.219   8.253
 5416POPC   C3A 8477  31.505  39.265   7.953
 5416POPC   C4A 8478  31.493  39.197   7.653
 5416POPC   C1B 8479  31.653  39.347   8.553
 5416POPC   C2B 8480  31.667  39.361   8.253
 5416POPC   C3B 8481  31.634  39.348   7.953
 5416POPC   C4B 8482  31.631  39.381   7.653
 5417POPC   NC3 8483  42.382  31.494   9.453
 5417POPC   PO4 8484  42.343  31.435   9.153
 5417POPC   GL1 8485  42.290  31.427   8.853
 5417POPC   GL2 8486  42.335  31.377   8.853
 5417POPC   C1A 8487  42.289  31.435   8.553
 5417POPC   D2A 8488  42.360  31.478   8.253
 5417POPC   C3A 8489  42.318  31.484   7.953
 5417POPC   C4A 8490  42.309  31.443   7.653
 5417POPC   C1B 8491  42.228  31.192   8.553
 5417POPC   C2B 8492  42.244  31.261   8.253
 5417POPC   C3B 8493  42.308  31.185   7.953
 5417POPC   C4B 8494  42.301  31.224   7.653
 5418POPC   NC3 8495  33.816  11.256   9.453
 5418POPC   PO4 8496  33.764  11.316   9.153
 5418POPC   GL1 8497  33.839  11.341   8.853
 5418POPC   GL2 8498  33.829  11.212   8.853
 5418POPC   C1A 8499  33.780  11.297   8.553
 5418POPC   D2A 8500  33.750  11.318   8.253
 5418POPC   C3A 8501  33.846  11.321   7.953
 5418POPC   C4A 8502  33.796  11.349   7.653
 5418POPC   C1B 8503  33.907  11.109   8.553
 5418POPC   C2B 8504  33.966  11.104   8.253
 5418POPC   C3B 8505  33.965  11.041   7.953
 5418POPC   C4B 8506  33.935  11.128   7.653
 5419POPC   NC3 8507  37.706  19.874   9.453
 5419POPC   PO4 8508  37.632  19.852   9.153
 5419POPC   GL1 8509  37.644  19.830   8.853
 5419POPC   GL2 8510  37.579  19.890   8.853
 5419POPC   C1A 8511  37.690  19.811   8.553
 5419POPC   D2A 8512  37.720  19.874   8.253
 5419POPC   C3A 8513  37.682  19.862   7.953
 5419POPC   C4A 8514  37.679  19.844   7.653
 5419POPC   C1B 8515  37.438  20.015   8.553
 5419POPC   C2B 8516  37.479  19.941   8.253
 5419POPC   C3B 8517  37.476  20.002   7.953
 5419POPC   C4B 8518  37.506  20.005   7.653
 5420POPC   NC3 8519  39.987   8.957   9.453
 5420POPC   PO4 8520  40.014   9.003   9.153
 5420POPC   GL1 8521  39.964   8.968   8.853
 5420POPC   GL2 8522  40.030   9.070   8.853
 5420POPC   C1A 8523  39.996   8.962   8.553
 5420POPC   D2A 8524  40.033   8.978   8.253
 5420POPC   C3A 8525  40.044   8.986   7.953
 5420POPC   C4A 8526  40.026   8.982   7.653
 5420POPC   C1B 8527  39.972   9.199   8.553
 5420POPC   C2B 8528  40.018   9.193   8.253
 5420POPC   C3B 8529  39.987   9.244   7.953
 5420POPC   C4B 8530  39.981   9.202   7.653
 5421POPC   NC3 8531  29.943  39.189   9.453
 5421POPC   PO4 8532  29.951  39.200   9.153
 5421POPC   GL1 8533  29.923  39.257   8.853
 5421POPC   GL2 8534  29.833  39.368   8.853
 5421POPC   C1A 8535  29.882  39.200   8.553
 5421POPC   D2A 8536  29.924  39.183   8.253
 5421POPC   C3A 8537  29.886  39.224   7.953
 5421POPC   C4A 8538  29.949  39.268   7.653
 5421POPC   C1B 8539  29.730  39.408   8.553
 5421POPC   C2B 8540  29.806  39.411   8.253
 5421POPC   C3B 8541  29.723  39.411   7.953
 5421POPC   C4B 8542  29.745  39.416   7.653
 5422POPC   NC3 8543  34.602  36.866   9.453
 5422POPC   PO4 8544  34.625  36.859   9.153
 5422POPC   GL1 8545  34.555  36.950   8.853
 5422POPC   GL2 8546  34.464  36.874   8.853
 5422POPC   C1A 8547  34.596  36.888   8.553
 5422POPC   D2A 8548  34.534  36.938   8.253
 5422POPC   C3A 8549  34.617  36.882   7.953
 5422POPC   C4A 8550  34.533  36.872   7.653
 5422POPC   C1B 8551  34.318  36.800   8.553
 5422POPC   C2B 8552  34.316  36.833   8.253
 5422POPC   C3B 8553  34.378  36.780   7.953
 5422POPC   C4B 8554  34.350  36.813   7.653
 5423POPC   NC3 8555  33.794   8.183   9.453
 5423POPC   PO4 8556  33.778   8.221   9.153
 5423POPC   GL1 8557  33.810   8.238   8.853
 5423POPC   GL2 8558  33.714   8.181   8.853
 5423POPC   C1A 8559  33.816   8.211   8.553
 5423POPC   D2A 8560  33.836   8.211   8.253
 5423POPC   C3A 8561  33.847   8.168   7.953
 5423POPC   C4A 8562  33.753   8.221   7.653
 5423POPC   C1B 8563  33.588   8.039   8.553
 5423POPC   C2B 8564  33.568   8.106   8.253
 5423POPC   C3B 8565  33.615   8.089   7.953
 5423POPC   C4B 8566  33.544   8.122   7.653
 5424POPC   NC3 8567  40.789  11.324   9.453
 5424POPC   PO4 8568  40.797  11.347   9.153
 5424POPC   GL1 8569  40.783  11.312   8.853
 5424POPC   GL2 8570  40.896  11.374   8.853
 5424POPC   C1A 8571  40.762  11.322   8.553
 5424POPC   D2A 8572  40.826  11.329   8.253
 5424POPC   C3A 8573  40.751  11.314   7.953
 5424POPC   C4A 8574  40.782  11.255   7.653
 5424POPC   C1B 8575  41.053  11.407   8.553
 5424POPC   C2B 8576  41.048  11.433   8.253
 5424POPC   C3B 8577  40.984  11.365   7.953
 5424POPC   C4B 8578  41.038  11.350   7.653
 5425POPC   NC3 8579   2.782  43.134   9.453
 5425POPC   PO4 8580   2.724  43.093   9.153
 5425POPC   GL1 8581   2.800  43.100   8.853
 5425POPC   GL2 8582   2.881  42.979   8.853
 5425POPC   C1A 8583   2.720  43.115   8.553
 5425POPC   D2A 8584   2.800  43.127   8.253
 5425POPC   C3A 8585   2.811  43.129   7.953
 5425POPC   C4A 8586   2.723  43.093   7.653
 5425POPC   C1B 8587   2.928  42.965   8.553
 5425POPC   C2B 8588   2.964  42.900   8.253
 5425POPC   C3B 8589   2.912  42.897   7.953
 5425POPC   C4B 8590   2.942  42.966   7.653
 5426POPC   NC3 8591  29.100   8.948   9.453
 5426POPC   PO4 8592  29.104   8.982   9.153
 5426POPC   GL1 8593  29.111   8.933   8.853
 5426POPC   GL2 8594  29.105   9.101   8.853
 5426POPC   C1A 8595  29.108   8.929   8.553
 5426POPC   D2A 8596  29.166   8.957   8.253
 5426POPC   C3A 8597  29.121   9.019   7.953
 5426POPC   C4A 8598  29.194   9.019   7.653
 5426POPC   C1B 8599  29.062   9.261   8.553
 5426POPC   C2B 8600  29.095   9.251   8.253
 5426POPC   C3B 8601  29.057   9.171   7.953
 5426POPC   C4B 8602  29.075   9.189   7.653
 5427POPC   NC3 8603  30.713  39.242   9.453
 5427POPC   PO4 8604  30.657  39.181   9.153
 5427POPC   GL1 8605  30.669  39.213   8.853
 5427POPC   GL2 8606  30.760  39.327   8.853
 5427POPC   C1A 8607  30.656  39.206   8.553
 5427POPC   D2A 8608  30.701  39.230   8.253
 5427POPC   C3A 8609  30.722  39.215   7.953
 5427POPC   C4A 8610  30.739  39.230   7.653
 5427POPC   C1B 8611  30.870  39.455   8.553
 5427POPC   C2B 8612  30.857  39.414   8.253
 5427POPC   C3B 8613  30.793  39.418   7.953
 5427POPC   C4B 8614  30.840  39.471   7.653
 5428POPC   NC3 8615  40.760  29.186   9.453
 5428POPC   PO4 8616  40.815  29.142   9.153
 5428POPC   GL1 8617  40.767  29.118   8.853
 5428POPC   GL2 8618  40.699  29.181   8.853
 5428POPC   C1A 8619  40.761  29.149   8.553
 5428POPC   D2A 8620  40.823  29.126   8.253
 5428POPC   C3A 8621  40.818  29.122   7.953
 5428POPC   C4A 8622  40.807  29.137   7.653
 5428POPC   C1B 8623  40.550  29.195   8.553
 5428POPC   C2B 8624  40.488  29.188   8.253
 5428POPC   C3B 8625  40.532  29.138   7.953
 5428POPC   C4B 8626  40.493  29.144   7.653
 5429POPC   NC3 8627  16.685  21.421   9.453
 5429POPC   PO4 8628  16.752  21.430   9.153
 5429POPC   GL1 8629  16.689  21.383   8.853
 5429POPC   GL2 8630  16.790  21.282   8.853
 5429POPC   C1A 8631  16.698  21.346   8.553
 5429POPC   D2A 8632  16.731  21.427   8.253
 5429POPC   C3A 8633  16.752  21.402   7.953
 5429POPC   C4A 8634  16.710  21.367   7.653
 5429POPC   C1B 8635  16.758  21.151   8.553
 5429POPC   C2B 8636  16.734  21.165   8.253
 5429POPC   C3B 8637  16.767  21.156   7.953
 5429POPC   C4B 8638  16.829  21.095   7.653
 5430POPC   NC3 8639  35.331   9.762   9.453
 5430POPC   PO4 8640  35.310   9.776   9.153
 5430POPC   GL1 8641  35.341   9.736   8.853
 5430POPC   GL2 8642  35.201   9.741   8.853
 5430POPC   C1A 8643  35.306   9.711   8.553
 5430POPC   D2A 8644  35.364   9.769   8.253
 5430POPC   C3A 8645  35.355   9.719   7.953
 5430POPC   C4A 8646  35.390   9.790   7.653
 5430POPC   C1B 8647  35.092   9.817   8.553
 5430POPC   C2B 8648  35.150   9.789   8.253
 5430POPC   C3B 8649  35.125   9.758   7.953
 5430POPC   C4B 8650  35.134   9.846   7.653
 5431POPC   NC3 8651  31.449  29.194   9.453
 5431POPC   PO4 8652  31.496  29.166   9.153
 5431POPC   GL1 8653  31.432  29.128   8.853
 5431POPC   GL2 8654  31.553  29.060   8.853
 5431POPC   C1A 8655  31.437  29.096   8.553
 5431POPC   D2A 8656  31.506  29.108   8.253
 5431POPC   C3A 8657  31.483  29.131   7.953
 5431POPC   C4A 8658  31.435  29.189   7.653
 5431POPC   C1B 8659  31.706  28.945   8.553
 5431POPC   C2B 8660  31.712  28.983   8.253
 5431POPC   C3B 8661  31.682  28.986   7.953
 5431POPC   C4B 8662  31.615  29.003   7.653
 5432POPC   NC3 8663  42.368  32.270   9.453
 5432POPC   PO4 8664  42.348  32.223   9.153
 5432POPC   GL1 8665  42.379  32.280   8.853
 5432POPC   GL2 8666  42.313  32.106   8.853
 5432POPC   C1A 8667  42.355  32.238   8.553
 5432POPC   D2A 8668  42.289  32.263   8.253
 5432POPC   C3A 8669  42.290  32.294   7.953
 5432POPC   C4A 8670  42.346  32.237   7.653
 5432POPC   C1B 8671  42.425  31.966   8.553
 5432POPC   C2B 8672  42.386  32.038   8.253
 5432POPC   C3B 8673  42.430  31.965   7.953
 5432POPC   C4B 8674  42.385  32.023   7.653
 5433POPC   NC3 8675  37.727  32.237   9.453
 5433POPC   PO4 8676  37.660  32.285   9.153
 5433POPC   GL1 8677  37.679  32.275   8.853
 5433POPC   GL2 8678  37.581  32.327   8.853
 5433POPC   C1A 8679  37.634  32.209   8.553
 5433POPC   D2A 8680  37.684  32.257   8.253
 5433POPC   C3A 8681  37.679  32.208   7.953
 5433POPC   C4A 8682  37.643  32.224   7.653
 5433POPC   C1B 8683  37.527  32.433   8.553
 5433POPC   C2B 8684  37.568  32.446   8.253
 5433POPC   C3B 8685  37.523  32.458   7.953
 5433POPC   C4B 8686  37.502  32.443   7.653
 5434POPC   NC3 8687  24.456  26.047   9.453
 5434POPC   PO4 8688  24.470  26.002   9.153
 5434POPC   GL1 8689  24.440  26.021   8.853
 5434POPC   GL2 8690  24.475  25.916   8.853
 5434POPC   C1A 8691  24.534  26.060   8.553
 5434POPC   D2A 8692  24.516  26.019   8.253
 5434POPC   C3A 8693  24.528  26.032   7.953
 5434POPC   C4A 8694  24.446  26.046   7.653
 5434POPC   C1B 8695  24.433  25.820   8.553
 5434POPC   C2B 8696  24.459  25.810   8.253
 5434POPC   C3B 8697  24.399  25.780   7.953
 5434POPC   C4B 8698  24.445  25.808   7.653
 5435POPC   NC3 8699  15.929   4.325   9.453
 5435POPC   PO4 8700  15.950   4.308   9.153
 5435POPC   GL1 8701  15.960   4.311   8.853
 5435POPC   GL2 8702  15.943   4.221   8.853
 5435POPC   C1A 8703  16.003   4.278   8.553
 5435POPC   D2A 8704  15.906   4.315   8.253
 5435POPC   C3A 8705  15.927   4.270   7.953
 5435POPC   C4A 8706  15.950   4.320   7.653
 5435POPC   C1B 8707  16.044   4.062   8.553
 5435POPC   C2B 8708  16.060   4.093   8.253
 5435POPC   C3B 8709  16.059   4.036   7.953
 5435POPC   C4B 8710  15.992   4.089   7.653
 5436POPC   NC3 8711  36.081   6.684   9.453
 5436POPC   PO4 8712  36.144   6.665   9.153
 5436POPC   GL1 8713  36.083   6.608   8.853
 5436POPC   GL2 8714  35.995   6.701   8.853
 5436POPC   C1A 8715  36.123   6.597   8.553
 5436POPC   D2A 8716  36.158   6.680   8.253
 5436POPC   C3A 8717  36.172   6.640   7.953
 5436POPC   C4A 8718  36.126   6.641   7.653
 5436POPC   C1B 8719  35.928   6.785   8.553
 5436POPC   C2B 8720  35.923   6.814   8.253
 5436POPC   C3B 8721  35.981   6.782   7.953
 5436POPC   C4B 8722  35.947   6.788   7.653
 5437POPC   NC3 8723  29.129  38.450   9.453
 5437POPC   PO4 8724  29.136  38.432   9.153
 5437POPC   GL1 8725  29.096  38.497   8.853
 5437POPC   GL2 8726  29.009  38.580   8.853
 5437POPC   C1A 8727  29.193  38.496   8.553
 5437POPC   D2A 8728  29.127  38.436   8.253
 5437POPC   C3A 8729  29.099  38.456   7.953
 5437POPC   C4A 8730  29.100  38.491   7.653
 5437POPC   C1B 8731  28.933  38.606   8.553
 5437POPC   C2B 8732  28.936  38.596   8.253
 5437POPC   C3B 8733  28.975  38.585   7.953
 5437POPC   C4B 8734  28.914  38.599   7.653
 5438POPC   NC3 8735  40.751  28.416   9.453
 5438POPC   PO4 8736  40.769  28.390   9.153
 5438POPC   GL1 8737  40.747  28.413   8.853
 5438POPC   GL2 8738  40.766  28.436   8.853
 5438POPC   C1A 8739  40.750  28.394   8.553
 5438POPC   D2A 8740  40.826  28.344   8.253
 5438POPC   C3A 8741  40.748  28.358   7.953
 5438POPC   C4A 8742  40.775  28.396   7.653
 5438POPC   C1B 8743  40.692  28.625   8.553
 5438POPC   C2B 8744  40.697  28.609   8.253
 5438POPC   C3B 8745  40.658  28.573   7.953
 5438POPC   C4B 8746  40.716  28.633   7.653
 5439POPC   NC3 8747  18.273   6.684   9.453
 5439POPC   PO4 8748  18.290   6.597   9.153
 5439POPC   GL1 8749  18.252   6.633   8.853
 5439POPC   GL2 8750  18.204   6.666   8.853
 5439POPC   C1A 8751  18.270   6.642   8.553
 5439POPC   D2A 8752  18.279   6.663   8.253
 5439POPC   C3A 8753  18.309   6.648   7.953
 5439POPC   C4A 8754  18.326   6.694   7.653
 5439POPC   C1B 8755  18.041   6.723   8.553
 5439POPC   C2B 8756  18.058   6.697   8.253
 5439POPC   C3B 8757  18.047   6.746   7.953
 5439POPC   C4B 8758  18.046   6.748   7.653
 5440POPC   NC3 8759   8.226   8.215   9.453
 5440POPC   PO4 8760   8.244   8.208   9.153
 5440POPC   GL1 8761   8.152   8.154   8.853
 5440POPC   GL2 8762   8.137   8.105   8.853
 5440POPC   C1A 8763   8.215   8.187   8.553
 5440POPC   D2A 8764   8.194   8.188   8.253
 5440POPC   C3A 8765   8.178   8.186   7.953
 5440POPC   C4A 8766   8.207   8.197   7.653
 5440POPC   C1B 8767   8.011   7.960   8.553
 5440POPC   C2B 8768   8.056   8.016   8.253
 5440POPC   C3B 8769   8.005   8.012   7.953
 5440POPC   C4B 8770   8.082   7.978   7.653
 5441POPC   NC3 8771  27.597  18.303   9.453
 5441POPC   PO4 8772  27.584  18.268   9.153
 5441POPC   GL1 8773  27.603  18.308   8.853
 5441POPC   GL2 8774  27.732  18.199   8.853
 5441POPC   C1A 8775  27.634  18.252   8.553
 5441POPC   D2A 8776  27.573  18.242   8.253
 5441POPC   C3A 8777  27.575  18.263   7.953
 5441POPC   C4A 8778  27.598  18.265   7.653
 5441POPC   C1B 8779  27.807  18.252   8.553
 5441POPC   C2B 8780  27.874  18.198   8.253
 5441POPC   C3B 8781  27.823  18.248   7.953
 5441POPC   C4B 8782  27.860  18.155   7.653
 5442POPC   NC3 8783  23.668  22.972   9.453
 5442POPC   PO4 8784  23.693  22.926   9.153
 5442POPC   GL1 8785  23.666  22.954   8.853
 5442POPC   GL2 8786  23.748  22.848   8.853
 5442POPC   C1A 8787  23.671  22.901   8.553
 5442POPC   D2A 8788  23.677  22.915   8.253
 5442POPC   C3A 8789  23.731  22.954   7.953
 5442POPC   C4A 8790  23.697  22.923   7.653
 5442POPC   C1B 8791  23.768  22.644   8.553
 5442POPC   C2B 8792  23.727  22.676   8.253
 5442POPC   C3B 8793  23.778  22.732   7.953
 5442POPC   C4B 8794  23.786  22.691   7.653
 5443POPC   NC3 8795   0.415  34.562   9.453
 5443POPC   PO4 8796   0.464  34.557   9.153
 5443POPC   GL1 8797   0.458  34.537   8.853
 5443POPC   GL2 8798   0.292  34.530   8.853
 5443POPC   C1A 8799   0.463  34.561   8.553
 5443POPC   D2A 8800   0.457  34.535   8.253
 5443POPC   C3A 8801   0.467  34.603   7.953
 5443POPC   C4A 8802   0.476  34.570   7.653
 5443POPC   C1B 8803   0.231  34.467   8.553
 5443POPC   C2B 8804   0.197  34.383   8.253
 5443POPC   C3B 8805   0.242  34.397   7.953
 5443POPC   C4B 8806   0.237  34.422   7.653
 5444POPC   NC3 8807   2.718  13.659   9.453
 5444POPC   PO4 8808   2.796  13.662   9.153
 5444POPC   GL1 8809   2.793  13.623   8.853
 5444POPC   GL2 8810   2.800  13.736   8.853
 5444POPC   C1A 8811   2.808  13.654   8.553
 5444POPC   D2A 8812   2.744  13.645   8.253
 5444POPC   C3A 8813   2.744  13.591   7.953
 5444POPC   C4A 8814   2.736  13.621   7.653
 5444POPC   C1B 8815   2.879  13.815   8.553
 5444POPC   C2B 8816   2.891  13.908   8.253
 5444POPC   C3B 8817   2.836  13.813   7.953
 5444POPC   C4B 8818   2.845  13.880   7.653
 5445POPC   NC3 8819   5.893  44.712   9.453
 5445POPC   PO4 8820   5.838  44.646   9.153
 5445POPC   GL1 8821   5.882  44.618   8.853
 5445POPC   GL2 8822   5.960  44.766   8.853
 5445POPC   C1A 8823   5.916  44.709   8.553
 5445POPC   D2A 8824   5.866  44.643   8.253
 5445POPC   C3A 8825   5.885  44.668   7.953
 5445POPC   C4A 8826   5.835  44.614   7.653
 5445POPC   C1B 8827   6.001  44.862   8.553
 5445POPC   C2B 8828   5.982  44.939   8.253
 5445POPC   C3B 8829   5.924  44.853   7.953
 5445POPC   C4B 8830   5.987  44.905   7.653
 5446POPC   NC3 8831  11.286   6.648   9.453
 5446POPC   PO4 8832  11.284   6.657   9.153
 5446POPC   GL1 8833  11.319   6.605   8.853
 5446POPC   GL2 8834  11.296   6.566   8.853
 5446POPC   C1A 8835  11.250   6.652   8.553
 5446POPC   D2A 8836  11.272   6.681   8.253
 5446POPC   C3A 8837  11.340   6.654   7.953
 5446POPC   C4A 8838  11.279   6.658   7.653
 5446POPC   C1B 8839  11.335   6.423   8.553
 5446POPC   C2B 8840  11.261   6.386   8.253
 5446POPC   C3B 8841  11.268   6.406   7.953
 5446POPC   C4B 8842  11.336   6.412   7.653
 5447POPC   NC3 8843  19.061  19.108   9.453
 5447POPC   PO4 8844  19.083  19.077   9.153
 5447POPC   GL1 8845  19.049  19.055   8.853
 5447POPC   GL2 8846  19.140  18.900   8.853
 5447POPC   C1A 8847  19.075  19.036   8.553
 5447POPC   D2A 8848  19.043  19.045   8.253
 5447POPC   C3A 8849  19.053  19.035   7.953
 5447POPC   C4A 8850  19.066  19.091   7.653
 5447POPC   C1B 8851  19.125  18.852   8.553
 5447POPC   C2B 8852  19.193  18.860   8.253
 5447POPC   C3B 8853  19.133  18.842   7.953
 5447POPC   C4B 8854  19.138  18.809   7.653
 5448POPC   NC3 8855  19.877  33.819   9.453
 5448POPC   PO4 8856  19.797  33.763   9.153
 5448POPC   GL1 8857  19.853  33.756   8.853
 5448POPC   GL2 8858  19.939  33.725   8.853
 5448POPC   C1A 8859  19.867  33.832   8.553
 5448POPC   D2A 8860  19.811  33.822   8.253
 5448POPC   C3A 8861  19.856  33.817   7.953
 5448POPC   C4A 8862  19.877  33.837   7.653
 5448POPC   C1B 8863  20.072  33.669   8.553
 5448POPC   C2B 8864  20.027  33.715   8.253
 5448POPC   C3B 8865  20.055  33.680   7.953
 5448POPC   C4B 8866  20.093  33.687   7.653
 5449POPC   NC3 8867  32.286  40.758   9.453
 5449POPC   PO4 8868  32.263  40.746   9.153
 5449POPC   GL1 8869  32.222  40.831   8.853
 5449POPC   GL2 8870  32.100  40.878   8.853
 5449POPC   C1A 8871  32.205  40.742   8.553
 5449POPC   D2A 8872  32.209  40.813   8.253
 5449POPC   C3A 8873  32.254  40.768   7.953
 5449POPC   C4A 8874  32.293  40.737   7.653
 5449POPC   C1B 8875  32.056  40.935   8.553
 5449POPC   C2B 8876  32.041  40.936   8.253
 5449POPC   C3B 8877  31.988  40.937   7.953
 5449POPC   C4B 8878  32.021  40.898   7.653
 5450POPC   NC3 8879  40.762  13.641   9.453
 5450POPC   PO4 8880  40.812  13.614   9.153
 5450POPC   GL1 8881  40.752  13.665   8.853
 5450POPC   GL2 8882  40.829  13.529   8.853
 5450POPC   C1A 8883  40.800  13.627   8.553
 5450POPC   D2A 8884  40.811  13.605   8.253
 5450POPC   C3A 8885  40.769  13.663   7.953
 5450POPC   C4A 8886  40.831  13.652   7.653
 5450POPC   C1B 8887  40.822  13.354   8.553
 5450POPC   C2B 8888  40.871  13.435   8.253
 5450POPC   C3B 8889  40.910  13.423   7.953
 5450POPC   C4B 8890  40.846  13.344   7.653
 5451POPC   NC3 8891  32.200  36.949   9.453
 5451POPC   PO4 8892  32.222  36.949   9.153
 5451POPC   GL1 8893  32.209  36.871   8.853
 5451POPC   GL2 8894  32.224  36.819   8.853
 5451POPC   C1A 8895  32.234  36.932   8.553
 5451POPC   D2A 8896  32.278  36.945   8.253
 5451POPC   C3A 8897  32.264  36.944   7.953
 5451POPC   C4A 8898  32.219  36.858   7.653
 5451POPC   C1B 8899  32.151  36.671   8.553
 5451POPC   C2B 8900  32.135  36.746   8.253
 5451POPC   C3B 8901  32.125  36.676   7.953
 5451POPC   C4B 8902  32.118  36.715   7.653
 5452POPC   NC3 8903   1.970  23.747   9.453
 5452POPC   PO4 8904   1.959  23.698   9.153
 5452POPC   GL1 8905   2.008  23.739   8.853
 5452POPC   GL2 8906   1.991  23.628   8.853
 5452POPC   C1A 8907   2.031  23.731   8.553
 5452POPC   D2A 8908   1.995  23.668   8.253
 5452POPC   C3A 8909   2.003  23.710   7.953
 5452POPC   C4A 8910   2.036  23.738   7.653
 5452POPC   C1B 8911   2.019  23.471   8.553
 5452POPC   C2B 8912   2.055  23.492   8.253
 5452POPC   C3B 8913   2.091  23.509   7.953
 5452POPC   C4B 8914   2.074  23.507   7.653
 5453POPC   NC3 8915  14.412  15.971   9.453
 5453POPC   PO4 8916  14.432  15.974   9.153
 5453POPC   GL1 8917  14.451  16.004   8.853
 5453POPC   GL2 8918  14.263  15.850   8.853
 5453POPC   C1A 8919  14.361  15.957   8.553
 5453POPC   D2A 8920  14.417  15.951   8.253
 5453POPC   C3A 8921  14.418  15.947   7.953
 5453POPC   C4A 8922  14.404  15.978   7.653
 5453POPC   C1B 8923  14.197  15.820   8.553
 5453POPC   C2B 8924  14.192  15.821   8.253
 5453POPC   C3B 8925  14.216  15.856   7.953
 5453POPC   C4B 8926  14.136  15.841   7.653
 5454POPC   NC3 8927   4.303   1.245   9.453
 5454POPC   PO4 8928   4.329   1.225   9.153
 5454POPC   GL1 8929   4.300   1.198   8.853
 5454POPC   GL2 8930   4.480   1.220   8.853
 5454POPC   C1A 8931   4.282   1.214   8.553
 5454POPC   D2A 8932   4.320   1.205   8.253
 5454POPC   C3A 8933   4.344   1.225   7.953
 5454POPC   C4A 8934   4.316   1.188   7.653
 5454POPC   C1B 8935   4.520   1.251   8.553
 5454POPC   C2B 8936   4.535   1.269   8.253
 5454POPC   C3B 8937   4.599   1.249   7.953
 5454POPC   C4B 8938   4.560   1.265   7.653
 5455POPC   NC3 8939   2.022  26.852   9.453
 5455POPC   PO4 8940   1.972  26.830   9.153
 5455POPC   GL1 8941   2.007  26.802   8.853
 5455POPC   GL2 8942   1.833  26.813   8.853
 5455POPC   C1A 8943   2.029  26.846   8.553
 5455POPC   D2A 8944   1.999  26.850   8.253
 5455POPC   C3A 8945   2.004  26.802   7.953
 5455POPC   C4A 8946   1.948  26.851   7.653
 5455POPC   C1B 8947   1.768  26.716   8.553
 5455POPC   C2B 8948   1.735  26.724   8.253
 5455POPC   C3B 8949   1.784  26.750   7.953
 5455POPC   C4B 8950   1.713  26.709   7.653
 5456POPC   NC3 8951  26.790   9.757   9.453
 5456POPC   PO4 8952  26.795   9.782   9.153
 5456POPC   GL1 8953  26.793   9.744   8.853
 5456POPC   GL2 8954  26.957   9.866   8.853
 5456POPC   C1A 8955  26.860   9.794   8.553
 5456POPC   D2A 8956  26.802   9.764   8.253
 5456POPC   C3A 8957  26.807   9.793   7.953
 5456POPC   C4A 8958  26.795   9.780   7.653
 5456POPC   C1B 8959  26.997   9.943   8.553
 5456POPC   C2B 8960  26.987   9.927   8.253
 5456POPC   C3B 8961  26.974   9.914   7.953
 5456POPC   C4B 8962  26.993   9.886   7.653
 5457POPC   NC3 8963   4.360   6.624   9.453
 5457POPC   PO4 8964   4.314   6.599   9.153
 5457POPC   GL1 8965   4.291   6.600   8.853
 5457POPC   GL2 8966   4.214   6.618   8.853
 5457POPC   C1A 8967   4.280   6.613   8.553
 5457POPC   D2A 8968   4.330   6.595   8.253
 5457POPC   C3A 8969   4.272   6.608   7.953
 5457POPC   C4A 8970   4.325   6.654   7.653
 5457POPC   C1B 8971   4.035   6.627   8.553
 5457POPC   C2B 8972   4.060   6.572   8.253
 5457POPC   C3B 8973   4.117   6.561   7.953
 5457POPC   C4B 8974   4.023   6.611   7.653
 5458POPC   NC3 8975  11.291  43.904   9.453
 5458POPC   PO4 8976  11.254  43.903   9.153
 5458POPC   GL1 8977  11.332  43.860   8.853
 5458POPC   GL2 8978  11.171  43.817   8.853
 5458POPC   C1A 8979  11.266  43.930   8.553
 5458POPC   D2A 8980  11.290  43.892   8.253
 5458POPC   C3A 8981  11.267  43.866   7.953
 5458POPC   C4A 8982  11.265  43.893   7.653
 5458POPC   C1B 8983  11.082  43.742   8.553
 5458POPC   C2B 8984  11.137  43.720   8.253
 5458POPC   C3B 8985  11.145  43.745   7.953
 5458POPC   C4B 8986  11.077  43.783   7.653
 5459POPC   NC3 8987  26.866  43.092   9.453
 5459POPC   PO4 8988  26.788  43.078   9.153
 5459POPC   GL1 8989  26.798  43.072   8.853
 5459POPC   GL2 8990  26.835  43.225   8.853
 5459POPC   C1A 8991  26.771  43.150   8.553
 5459POPC   D2A 8992  26.775  43.140   8.253
 5459POPC   C3A 8993  26.827  43.139   7.953
 5459POPC   C4A 8994  26.804  43.064   7.653
 5459POPC   C1B 8995  26.883  43.353   8.553
 5459POPC   C2B 8996  26.895  43.383   8.253
 5459POPC   C3B 8997  26.880  43.352   7.953
 5459POPC   C4B 8998  26.921  43.366   7.653
 5460POPC   NC3 8999  33.828  32.256   9.453
 5460POPC   PO4 9000  33.809  32.214   9.153
 5460POPC   GL1 9001  33.845  32.243   8.853
 5460POPC   GL2 9002  33.872  32.244   8.853
 5460POPC   C1A 9003  33.765  32.222   8.553
 5460POPC   D2A 9004  33.784  32.282   8.253
 5460POPC   C3A 9005  33.790  32.290   7.953
 5460POPC   C4A 9006  33.842  32.200   7.653
 5460POPC   C1B 9007  34.043  32.308   8.553
 5460POPC   C2B 9008  34.028  32.340   8.253
 5460POPC   C3B 9009  34.042  32.386   7.953
 5460POPC   C4B 9010  34.008  32.373   7.653
 5461POPC   NC3 9011  22.189  41.535   9.453
 5461POPC   PO4 9012  22.160  41.521   9.153
 5461POPC   GL1 9013  22.186  41.595   8.853
 5461POPC   GL2 9014  22.290  41.599   8.853
 5461POPC   C1A 9015  22.206  41.523   8.553
 5461POPC   D2A 9016  22.145  41.570   8.253
 5461POPC   C3A 9017  22.162  41.517   7.953
 5461POPC   C4A 9018  22.170  41.579   7.653
 5461POPC   C1B 9019  22.432  41.677   8.553
 5461POPC   C2B 9020  22.374  41.614   8.253
 5461POPC   C3B 9021  22.393  41.619   7.953
 5461POPC   C4B 9022  22.369  41.646   7.653
 5462POPC   NC3 9023  15.132   4.306   9.453
 5462POPC   PO4 9024  15.228   4.339   9.153
 5462POPC   GL1 9025  15.157   4.270   8.853
 5462POPC   GL2 9026  15.049   4.245   8.853
 5462POPC   C1A 9027  15.163   4.342   8.553
 5462POPC   D2A 9028  15.210   4.280   8.253
 5462POPC   C3A 9029  15.217   4.270   7.953
 5462POPC   C4A 9030  15.149   4.317   7.653
 5462POPC   C1B 9031  15.005   4.138   8.553
 5462POPC   C2B 9032  14.977   4.166   8.253
 5462POPC   C3B 9033  14.966   4.120   7.953
 5462POPC   C4B 9034  15.012   4.165   7.653
 5463POPC   NC3 9035   2.813  34.569   9.453
 5463POPC   PO4 9036   2.807  34.538   9.153
 5463POPC   GL1 9037   2.716  34.537   8.853
 5463POPC   GL2 9038   2.782  34.484   8.853
 5463POPC   C1A 9039   2.782  34.625   8.553
 5463POPC   D2A 9040   2.740  34.547   8.253
 5463POPC   C3A 9041   2.751  34.580   7.953
 5463POPC   C4A 9042   2.736  34.566   7.653
 5463POPC   C1B 9043   2.819  34.305   8.553
 5463POPC   C2B 9044   2.807  34.303   8.253
 5463POPC   C3B 9045   2.768  34.310   7.953
 5463POPC   C4B 9046   2.804  34.341   7.653
 5464POPC   NC3 9047   9.736  24.487   9.453
 5464POPC   PO4 9048   9.772  24.493   9.153
 5464POPC   GL1 9049   9.705  24.517   8.853
 5464POPC   GL2 9050   9.777  24.640   8.853
 5464POPC   C1A 9051   9.767  24.461   8.553
 5464POPC   D2A 9052   9.784  24.485   8.253
 5464POPC   C3A 9053   9.786  24.537   7.953
 5464POPC   C4A 9054   9.738  24.479   7.653
 5464POPC   C1B 9055   9.797  24.716   8.553
 5464POPC   C2B 9056   9.797  24.776   8.253
 5464POPC   C3B 9057   9.779  24.690   7.953
 5464POPC   C4B 9058   9.717  24.761   7.653
 5465POPC   NC3 9059  33.832  26.845   9.453
 5465POPC   PO4 9060  33.820  26.801   9.153
 5465POPC   GL1 9061  33.823  26.780   8.853
 5465POPC   GL2 9062  33.854  26.922   8.853
 5465POPC   C1A 9063  33.821  26.831   8.553
 5465POPC   D2A 9064  33.768  26.821   8.253
 5465POPC   C3A 9065  33.767  26.843   7.953
 5465POPC   C4A 9066  33.820  26.783   7.653
 5465POPC   C1B 9067  33.921  27.081   8.553
 5465POPC   C2B 9068  33.924  26.996   8.253
 5465POPC   C3B 9069  33.929  27.022   7.953
 5465POPC   C4B 9070  33.881  27.060   7.653
 5466POPC   NC3 9071  36.107  12.815   9.453
 5466POPC   PO4 9072  36.141  12.892   9.153
 5466POPC   GL1 9073  36.129  12.899   8.853
 5466POPC   GL2 9074  36.225  12.898   8.853
 5466POPC   C1A 9075  36.177  12.853   8.553
 5466POPC   D2A 9076  36.082  12.848   8.253
 5466POPC   C3A 9077  36.146  12.885   7.953
 5466POPC   C4A 9078  36.170  12.828   7.653
 5466POPC   C1B 9079  36.384  12.948   8.553
 5466POPC   C2B 9080  36.336  12.976   8.253
 5466POPC   C3B 9081  36.409  12.944   7.953
 5466POPC   C4B 9082  36.351  12.901   7.653
 5467POPC   NC3 9083  39.277  31.466   9.453
 5467POPC   PO4 9084  39.236  31.476   9.153
 5467POPC   GL1 9085  39.275  31.476   8.853
 5467POPC   GL2 9086  39.233  31.349   8.853
 5467POPC   C1A 9087  39.198  31.478   8.553
 5467POPC   D2A 9088  39.262  31.463   8.253
 5467POPC   C3A 9089  39.230  31.488   7.953
 5467POPC   C4A 9090  39.253  31.459   7.653
 5467POPC   C1B 9091  39.181  31.225   8.553
 5467POPC   C2B 9092  39.170  31.266   8.253
 5467POPC   C3B 9093  39.162  31.189   7.953
 5467POPC   C4B 9094  39.242  31.222   7.653
 5468POPC   NC3 9095  21.425  36.079   9.453
 5468POPC   PO4 9096  21.361  36.136   9.153
 5468POPC   GL1 9097  21.433  36.082   8.853
 5468POPC   GL2 9098  21.385  36.208   8.853
 5468POPC   C1A 9099  21.384  36.101   8.553
 5468POPC   D2A 9100  21.344  36.160   8.253
 5468POPC   C3A 9101  21.413  36.176   7.953
 5468POPC   C4A 9102  21.341  36.088   7.653
 5468POPC   C1B 9103  21.384  36.407   8.553
 5468POPC   C2B 9104  21.384  36.378   8.253
 5468POPC   C3B 9105  21.326  36.381   7.953
 5468POPC   C4B 9106  21.338  36.402   7.653
 5469POPC   NC3 9107   3.537  22.151   9.453
 5469POPC   PO4 9108   3.520  22.181   9.153
 5469POPC   GL1 9109   3.573  22.124   8.853
 5469POPC   GL2 9110   3.617  22.154   8.853
 5469POPC   C1A 9111   3.540  22.179   8.553
 5469POPC   D2A 9112   3.542  22.114   8.253
 5469POPC   C3A 9113   3.529  22.140   7.953
 5469POPC   C4A 9114   3.566  22.167   7.653
 5469POPC   C1B 9115   3.766  22.093   8.553
 5469POPC   C2B 9116   3.784  22.110   8.253
 5469POPC   C3B 9117   3.780  22.187   7.953
 5469POPC   C4B 9118   3.802  22.188   7.653
 5470POPC   NC3 9119   3.566  34.564   9.453
 5470POPC   PO4 9120   3.577  34.559   9.153
 5470POPC   GL1 9121   3.577  34.605   8.853
 5470POPC   GL2 9122   3.702  34.564   8.853
 5470POPC   C1A 9123   3.570  34.587   8.553
 5470POPC   D2A 9124   3.556  34.552   8.253
 5470POPC   C3A 9125   3.581  34.585   7.953
 5470POPC   C4A 9126   3.501  34.539   7.653
 5470POPC   C1B 9127   3.827  34.543   8.553
 5470POPC   C2B 9128   3.799  34.533   8.253
 5470POPC   C3B 9129   3.761  34.517   7.953
 5470POPC   C4B 9130   3.814  34.588   7.653
 5471POPC   NC3 9131   5.843  35.374   9.453
 5471POPC   PO4 9132   5.878  35.344   9.153
 5471POPC   GL1 9133   5.832  35.305   8.853
 5471POPC   GL2 9134   5.730  35.339   8.853
 5471POPC   C1A 9135   5.882  35.377   8.553
 5471POPC   D2A 9136   5.862  35.395   8.253
 5471POPC   C3A 9137   5.901  35.320   7.953
 5471POPC   C4A 9138   5.880  35.373   7.653
 5471POPC   C1B 9139   5.635  35.290   8.553
 5471POPC   C2B 9140   5.671  35.248   8.253
 5471POPC   C3B 9141   5.590  35.305   7.953
 5471POPC   C4B 9142   5.647  35.251   7.653
 5472POPC   NC3 9143  36.887  37.654   9.453
 5472POPC   PO4 9144  36.867  37.669   9.153
 5472POPC   GL1 9145  36.888  37.704   8.853
 5472POPC   GL2 9146  36.896  37.781   8.853
 5472POPC   C1A 9147  36.915  37.664   8.553
 5472POPC   D2A 9148  36.885  37.711   8.253
 5472POPC   C3A 9149  36.943  37.632   7.953
 5472POPC   C4A 9150  36.921  37.637   7.653
 5472POPC   C1B 9151  36.877  37.969   8.553
 5472POPC   C2B 9152  36.877  37.901   8.253
 5472POPC   C3B 9153  36.940  37.893   7.953
 5472POPC   C4B 9154  36.924  37.915   7.653
 5473POPC   NC3 9155  15.187  21.364   9.453
 5473POPC   PO4 9156  15.224  21.361   9.153
 5473POPC   GL1 9157  15.160  21.432   8.853
 5473POPC   GL2 9158  15.022  21.424   8.853
 5473POPC   C1A 9159  15.182  21.432   8.553
 5473POPC   D2A 9160  15.136  21.427   8.253
 5473POPC   C3A 9161  15.169  21.341   7.953
 5473POPC   C4A 9162  15.160  21.356   7.653
 5473POPC   C1B 9163  14.943  21.440   8.553
 5473POPC   C2B 9164  14.980  21.447   8.253
 5473POPC   C3B 9165  14.966  21.423   7.953
 5473POPC   C4B 9166  14.905  21.438   7.653
 5474POPC   NC3 9167   0.469  33.038   9.453
 5474POPC   PO4 9168   0.420  32.993   9.153
 5474POPC   GL1 9169   0.399  33.044   8.853
 5474POPC   GL2 9170   0.391  32.921   8.853
 5474POPC   C1A 9171   0.427  33.031   8.553
 5474POPC   D2A 9172   0.457  33.046   8.253
 5474POPC   C3A 9173   0.459  33.031   7.953
 5474POPC   C4A 9174   0.407  33.051   7.653
 5474POPC   C1B 9175   0.246  32.799   8.553
 5474POPC   C2B 9176   0.239  32.892   8.253
 5474POPC   C3B 9177   0.306  32.852   7.953
 5474POPC   C4B 9178   0.248  32.841   7.653
 5475POPC   NC3 9179  33.785  18.236   9.453
 5475POPC   PO4 9180  33.785  18.262   9.153
 5475POPC   GL1 9181  33.849  18.296   8.853
 5475POPC   GL2 9182  33.900  18.347   8.853
 5475POPC   C1A 9183  33.767  18.258   8.553
 5475POPC   D2A 9184  33.850  18.304   8.253
 5475POPC   C3A 9185  33.793  18.325   7.953
 5475POPC   C4A 9186  33.798  18.330   7.653
 5475POPC   C1B 9187  33.897  18.495   8.553
 5475POPC   C2B 9188  33.942  18.531   8.253
 5475POPC   C3B 9189  33.972  18.529   7.953
 5475POPC   C4B 9190  33.905  18.469   7.653
 5476POPC   NC3 9191  18.330   9.783   9.453
 5476POPC   PO4 9192  18.270   9.793   9.153
 5476POPC   GL1 9193  18.303   9.786   8.853
 5476POPC   GL2 9194  18.151   9.793   8.853
 5476POPC   C1A 9195  18.288   9.761   8.553
 5476POPC   D2A 9196  18.244   9.721   8.253
 5476POPC   C3A 9197  18.256   9.738   7.953
 5476POPC   C4A 9198  18.292   9.733   7.653
 5476POPC   C1B 9199  18.156   9.886   8.553
 5476POPC   C2B 9200  18.136   9.948   8.253
 5476POPC   C3B 9201  18.133   9.931   7.953
 5476POPC   C4B 9202  18.114   9.940   7.653
 5477POPC   NC3 9203  24.455  30.672   9.453
 5477POPC   PO4 9204  24.486  30.690   9.153
 5477POPC   GL1 9205  24.468  30.653   8.853
 5477POPC   GL2 9206  24.502  30.865   8.853
 5477POPC   C1A 9207  24.474  30.664   8.553
 5477POPC   D2A 9208  24.476  30.692   8.253
 5477POPC   C3A 9209  24.480  30.689   7.953
 5477POPC   C4A 9210  24.527  30.743   7.653
 5477POPC   C1B 9211  24.523  30.975   8.553
 5477POPC   C2B 9212  24.510  30.957   8.253
 5477POPC   C3B 9213  24.528  30.907   7.953
 5477POPC   C4B 9214  24.485  30.980   7.653
 5478POPC   NC3 9215  25.995  18.330   9.453
 5478POPC   PO4 9216  26.058  18.322   9.153
 5478POPC   GL1 9217  26.014  18.300   8.853
 5478POPC   GL2 9218  26.060  18.110   8.853
 5478POPC   C1A 9219  26.020  18.265   8.553
 5478POPC   D2A 9220  26.063  18.303   8.253
 5478POPC   C3A 9221  26.091  18.301   7.953
 5478POPC   C4A 9222  26.083  18.328   7.653
 5478POPC   C1B 9223  26.001  18.015   8.553
 5478POPC   C2B 9224  26.069  17.996   8.253
 5478POPC   C3B 9225  26.068  18.082   7.953
 5478POPC   C4B 9226  26.029  17.992   7.653
 5479POPC   NC3 9227  36.118   2.039   9.453
 5479POPC   PO4 9228  36.093   1.981   9.153
 5479POPC   GL1 9229  36.084   1.963   8.853
 5479POPC   GL2 9230  36.075   1.877   8.853
 5479POPC   C1A 9231  36.093   1.968   8.553
 5479POPC   D2A 9232  36.117   2.018   8.253
 5479POPC   C3A 9233  36.157   1.991   7.953
 5479POPC   C4A 9234  36.131   2.036   7.653
 5479POPC   C1B 9235  36.043   1.734   8.553
 5479POPC   C2B 9236  36.121   1.766   8.253
 5479POPC   C3B 9237  36.061   1.792   7.953
 5479POPC   C4B 9238  36.043   1.694   7.653
 5480POPC   NC3 9239  43.132  32.997   9.453
 5480POPC   PO4 9240  43.113  32.984   9.153
 5480POPC   GL1 9241  43.158  32.989   8.853
 5480POPC   GL2 9242  43.161  32.861   8.853
 5480POPC   C1A 9243  43.132  33.011   8.553
 5480POPC   D2A 9244  43.136  33.052   8.253
 5480POPC   C3A 9245  43.093  33.034   7.953
 5480POPC   C4A 9246  43.158  33.011   7.653
 5480POPC   C1B 9247  43.096  32.761   8.553
 5480POPC   C2B 9248  43.172  32.778   8.253
 5480POPC   C3B 9249  43.099  32.773   7.953
 5480POPC   C4B 9250  43.176  32.794   7.653
 5481POPC   NC3 9251  43.861  12.073   9.453
 5481POPC   PO4 9252  43.848  12.090   9.153
 5481POPC   GL1 9253  43.846  12.032   8.853
 5481POPC   GL2 9254  43.727  12.058   8.853
 5481POPC   C1A 9255  43.928  12.061   8.553
 5481POPC   D2A 9256  43.878  12.109   8.253
 5481POPC   C3A 9257  43.852  12.071   7.953
 5481POPC   C4A 9258  43.935  12.119   7.653
 5481POPC   C1B 9259  43.647  12.067   8.553
 5481POPC   C2B 9260  43.624  12.058   8.253
 5481POPC   C3B 9261  43.654  12.036   7.953
 5481POPC   C4B 9262  43.623  12.071   7.653
 5482POPC   NC3 9263   3.494  15.940   9.453
 5482POPC   PO4 9264   3.566  15.918   9.153
 5482POPC   GL1 9265   3.515  15.975   8.853
 5482POPC   GL2 9266   3.647  16.019   8.853
 5482POPC   C1A 9267   3.536  15.932   8.553
 5482POPC   D2A 9268   3.519  15.994   8.253
 5482POPC   C3A 9269   3.536  15.997   7.953
 5482POPC   C4A 9270   3.542  15.997   7.653
 5482POPC   C1B 9271   3.746  16.036   8.553
 5482POPC   C2B 9272   3.770  15.968   8.253
 5482POPC   C3B 9273   3.824  15.959   7.953
 5482POPC   C4B 9274   3.836  16.007   7.653
 5483POPC   NC3 9275  20.656  40.025   9.453
 5483POPC   PO4 9276  20.640  40.017   9.153
 5483POPC   GL1 9277  20.613  40.010   8.853
 5483POPC   GL2 9278  20.637  39.933   8.853
 5483POPC   C1A 9279  20.617  40.050   8.553
 5483POPC   D2A 9280  20.601  40.029   8.253
 5483POPC   C3A 9281  20.564  40.038   7.953
 5483POPC   C4A 9282  20.637  40.057   7.653
 5483POPC   C1B 9283  20.728  39.751   8.553
 5483POPC   C2B 9284  20.712  39.827   8.253
 5483POPC   C3B 9285  20.685  39.734   7.953
 5483POPC   C4B 9286  20.705  39.753   7.653
 5484POPC   NC3 9287  31.472  20.595   9.453
 5484POPC   PO4 9288  31.508  20.580   9.153
 5484POPC   GL1 9289  31.430  20.623   8.853
 5484POPC   GL2 9290  31.376  20.632   8.853
 5484POPC   C1A 9291  31.512  20.640   8.553
 5484POPC   D2A 9292  31.490  20.592   8.253
 5484POPC   C3A 9293  31.468  20.567   7.953
 5484POPC   C4A 9294  31.442  20.582   7.653
 5484POPC   C1B 9295  31.215  20.755   8.553
 5484POPC   C2B 9296  31.197  20.731   8.253
 5484POPC   C3B 9297  31.262  20.711   7.953
 5484POPC   C4B 9298  31.228  20.715   7.653
 5485POPC   NC3 9299  23.759  19.834   9.453
 5485POPC   PO4 9300  23.753  19.848   9.153
 5485POPC   GL1 9301  23.743  19.853   8.853
 5485POPC   GL2 9302  23.582  19.896   8.853
 5485POPC   C1A 9303  23.716  19.877   8.553
 5485POPC   D2A 9304  23.713  19.789   8.253
 5485POPC   C3A 9305  23.737  19.805   7.953
 5485POPC   C4A 9306  23.667  19.853   7.653
 5485POPC   C1B 9307  23.472  19.934   8.553
 5485POPC   C2B 9308  23.441  19.930   8.253
 5485POPC   C3B 9309  23.451  19.920   7.953
 5485POPC   C4B 9310  23.424  19.933   7.653
 5486POPC   NC3 9311  11.291   1.247   9.453
 5486POPC   PO4 9312  11.281   1.228   9.153
 5486POPC   GL1 9313  11.284   1.249   8.853
 5486POPC   GL2 9314  11.147   1.135   8.853
 5486POPC   C1A 9315  11.345   1.258   8.553
 5486POPC   D2A 9316  11.304   1.235   8.253
 5486POPC   C3A 9317  11.312   1.192   7.953
 5486POPC   C4A 9318  11.341   1.169   7.653
 5486POPC   C1B 9319  11.135   1.066   8.553
 5486POPC   C2B 9320  11.090   1.077   8.253
 5486POPC   C3B 9321  11.075   1.055   7.953
 5486POPC   C4B 9322  11.051   1.086   7.653
 5487POPC   NC3 9323   4.320  33.806   9.453
 5487POPC   PO4 9324   4.300  33.833   9.153
 5487POPC   GL1 9325   4.273  33.773   8.853
 5487POPC   GL2 9326   4.274  33.724   8.853
 5487POPC   C1A 9327   4.283  33.816   8.553
 5487POPC   D2A 9328   4.299  33.813   8.253
 5487POPC   C3A 9329   4.286  33.848   7.953
 5487POPC   C4A 9330   4.334  33.823   7.653
 5487POPC   C1B 9331   4.296  33.510   8.553
 5487POPC   C2B 9332   4.212  33.535   8.253
 5487POPC   C3B 9333   4.291  33.586   7.953
 5487POPC   C4B 9334   4.208  33.535   7.653
 5488POPC   NC3 9335  29.095   8.208   9.453
 5488POPC   PO4 9336  29.163   8.242   9.153
 5488POPC   GL1 9337  29.121   8.159   8.853
 5488POPC   GL2 9338  29.067   8.083   8.853
 5488POPC   C1A 9339  29.157   8.215   8.553
 5488POPC   D2A 9340  29.154   8.217   8.253
 5488POPC   C3A 9341  29.148   8.166   7.953
 5488POPC   C4A 9342  29.131   8.199   7.653
 5488POPC   C1B 9343  29.052   7.939   8.553
 5488POPC   C2B 9344  29.042   7.948   8.253
 5488POPC   C3B 9345  29.102   7.913   7.953
 5488POPC   C4B 9346  29.102   7.921   7.653
 5489POPC   NC3 9347  36.930  11.271   9.453
 5489POPC   PO4 9348  36.930  11.342   9.153
 5489POPC   GL1 9349  36.939  11.272   8.853
 5489POPC   GL2 9350  36.825  11.201   8.853
 5489POPC   C1A 9351  36.890  11.303   8.553
 5489POPC   D2A 9352  36.854  11.339   8.253
 5489POPC   C3A 9353  36.925  11.312   7.953
 5489POPC   C4A 9354  36.882  11.266   7.653
 5489POPC   C1B 9355  36.847  11.042   8.553
 5489POPC   C2B 9356  36.849  11.052   8.253
 5489POPC   C3B 9357  36.764  11.040   7.953
 5489POPC   C4B 9358  36.809  11.037   7.653
 5490POPC   NC3 9359  34.529   8.991   9.453
 5490POPC   PO4 9360  34.567   8.931   9.153
 5490POPC   GL1 9361  34.528   8.971   8.853
 5490POPC   GL2 9362  34.585   8.886   8.853
 5490POPC   C1A 9363  34.590   8.938   8.553
 5490POPC   D2A 9364  34.557   8.923   8.253
 5490POPC   C3A 9365  34.620   8.932   7.953
 5490POPC   C4A 9366  34.581   8.965   7.653
 5490POPC   C1B 9367  34.606   8.704   8.553
 5490POPC   C2B 9368  34.614   8.715   8.253
 5490POPC   C3B 9369  34.637   8.768   7.953
 5490POPC   C4B 9370  34.616   8.781   7.653
 5491POPC   NC3 9371  36.888   5.892   9.453
 5491POPC   PO4 9372  36.859   5.873   9.153
 5491POPC   GL1 9373  36.897   5.917   8.853
 5491POPC   GL2 9374  37.016   5.859   8.853
 5491POPC   C1A 9375  36.857   5.866   8.553
 5491POPC   D2A 9376  36.902   5.910   8.253
 5491POPC   C3A 9377  36.882   5.895   7.953
 5491POPC   C4A 9378  36.913   5.877   7.653
 5491POPC   C1B 9379  37.170   5.895   8.553
 5491POPC   C2B 9380  37.111   5.867   8.253
 5491POPC   C3B 9381  37.168   5.887   7.953
 5491POPC   C4B 9382  37.112   5.845   7.653
 5492POPC   NC3 9383  19.056  36.111   9.453
 5492POPC   PO4 9384  19.067  36.088   9.153
 5492POPC   GL1 9385  19.065  36.108   8.853
 5492POPC   GL2 9386  18.999  36.007   8.853
 5492POPC   C1A 9387  19.062  36.163   8.553
 5492POPC   D2A 9388  19.039  36.131   8.253
 5492POPC   C3A 9389  19.090  36.169   7.953
 5492POPC   C4A 9390  19.096  36.138   7.653
 5492POPC   C1B 9391  18.963  35.932   8.553
 5492POPC   C2B 9392  18.924  35.871   8.253
 5492POPC   C3B 9393  18.889  35.940   7.953
 5492POPC   C4B 9394  18.883  35.910   7.653
 5493POPC   NC3 9395  10.480  14.448   9.453
 5493POPC   PO4 9396  10.526  14.416   9.153
 5493POPC   GL1 9397  10.529  14.403   8.853
 5493POPC   GL2 9398  10.389  14.401   8.853
 5493POPC   C1A 9399  10.505  14.365   8.553
 5493POPC   D2A 9400  10.525  14.444   8.253
 5493POPC   C3A 9401  10.548  14.371   7.953
 5493POPC   C4A 9402  10.526  14.437   7.653
 5493POPC   C1B 9403  10.232  14.405   8.553
 5493POPC   C2B 9404  10.307  14.474   8.253
 5493POPC   C3B 9405  10.225  14.377   7.953
 5493POPC   C4B 9406  10.313  14.445   7.653
 5494POPC   NC3 9407   7.469  15.189   9.453
 5494POPC   PO4 9408   7.436  15.178   9.153
 5494POPC   GL1 9409   7.433  15.203   8.853
 5494POPC   GL2 9410   7.419  15.085   8.853
 5494POPC   C1A 9411   7.413  15.221   8.553
 5494POPC   D2A 9412   7.377  15.157   8.253
 5494POPC   C3A 9413   7.421  15.130   7.953
 5494POPC   C4A 9414   7.439  15.140   7.653
 5494POPC   C1B 9415   7.349  14.951   8.553
 5494POPC   C2B 9416   7.331  14.953   8.253
 5494POPC   C3B 9417   7.353  14.896   7.953
 5494POPC   C4B 9418   7.392  14.897   7.653
 5495POPC   NC3 9419  11.342   1.940   9.453
 5495POPC   PO4 9420  11.251   2.014   9.153
 5495POPC   GL1 9421  11.262   1.987   8.853
 5495POPC   GL2 9422  11.247   2.105   8.853
 5495POPC   C1A 9423  11.313   1.968   8.553
 5495POPC   D2A 9424  11.253   1.998   8.253
 5495POPC   C3A 9425  11.345   1.969   7.953
 5495POPC   C4A 9426  11.299   1.983   7.653
 5495POPC   C1B 9427  11.159   2.148   8.553
 5495POPC   C2B 9428  11.171   2.177   8.253
 5495POPC   C3B 9429  11.113   2.205   7.953
 5495POPC   C4B 9430  11.161   2.225   7.653
 5496POPC   NC3 9431  36.099  44.702   9.453
 5496POPC   PO4 9432  36.104  44.636   9.153
 5496POPC   GL1 9433  36.167  44.674   8.853
 5496POPC   GL2 9434  36.125  44.744   8.853
 5496POPC   C1A 9435  36.120  44.633   8.553
 5496POPC   D2A 9436  36.148  44.645   8.253
 5496POPC   C3A 9437  36.141  44.688   7.953
 5496POPC   C4A 9438  36.168  44.651   7.653
 5496POPC   C1B 9439  36.063  44.923   8.553
 5496POPC   C2B 9440  36.032  44.915   8.253
 5496POPC   C3B 9441  36.024  44.867   7.953
 5496POPC   C4B 9442  36.059  44.881   7.653
 5497POPC   NC3 9443  43.136  37.677   9.453
 5497POPC   PO4 9444  43.082  37.712   9.153
 5497POPC   GL1 9445  43.119  37.636   8.853
 5497POPC   GL2 9446  42.955  37.590   8.853
 5497POPC   C1A 9447  43.125  37.704   8.553
 5497POPC   D2A 9448  43.125  37.633   8.253
 5497POPC   C3A 9449  43.127  37.682   7.953
 5497POPC   C4A 9450  43.144  37.666   7.653
 5497POPC   C1B 9451  42.934  37.582   8.553
 5497POPC   C2B 9452  42.938  37.559   8.253
 5497POPC   C3B 9453  42.913  37.576   7.953
 5497POPC   C4B 9454  42.895  37.520   7.653
 5498POPC   NC3 9455  22.160  36.140   9.453
 5498POPC   PO4 9456  22.166  36.137   9.153
 5498POPC   GL1 9457  22.137  36.160   8.853
 5498POPC   GL2 9458  22.084  36.120   8.853
 5498POPC   C1A 9459  22.178  36.166   8.553
 5498POPC   D2A 9460  22.156  36.106   8.253
 5498POPC   C3A 9461  22.114  36.157   7.953
 5498POPC   C4A 9462  22.178  36.111   7.653
 5498POPC   C1B 9463  21.964  36.239   8.553
 5498POPC   C2B 9464  21.936  36.199   8.253
 5498POPC   C3B 9465  21.896  36.210   7.953
 5498POPC   C4B 9466  21.975  36.214   7.653
 5499POPC   NC3 9467  15.929  29.896   9.453
 5499POPC   PO4 9468  15.960  29.966   9.153
 5499POPC   GL1 9469  15.929  29.942   8.853
 5499POPC   GL2 9470  15.823  29.908   8.853
 5499POPC   C1A 9471  15.919  29.912   8.553
 5499POPC   D2A 9472  15.966  29.949   8.253
 5499POPC   C3A 9473  15.913  29.950   7.953
 5499POPC   C4A 9474  15.906  29.921   7.653
 5499POPC   C1B 9475  15.750  29.946   8.553
 5499POPC   C2B 9476  15.666  29.970   8.253
 5499POPC   C3B 9477  15.695  29.896   7.953
 5499POPC   C4B 9478  15.725  29.975   7.653
 5500POPC   NC3 9479  22.987  26.023   9.453
 5500POPC   PO4 9480  22.951  26.070   9.153
 5500POPC   GL1 9481  22.934  26.062   8.853
 5500POPC   GL2 9482  22.980  25.901   8.853
 5500POPC   C1A 9483  22.901  26.011   8.553
 5500POPC   D2A 9484  22.958  26.016   8.253
 5500POPC   C3A 9485  22.891  26.048   7.953
 5500POPC   C4A 9486  22.956  26.033   7.653
 5500POPC   C1B 9487  22.956  25.816   8.553
 5500POPC   C2B 9488  22.981  25.763   8.253
 5500POPC   C3B 9489  22.992  25.837   7.953
 5500POPC   C4B 9490  22.962  25.769   7.653
 5501POPC   NC3 9491  27.608  16.780   9.453
 5501POPC   PO4 9492  27.576  16.699   9.153
 5501POPC   GL1 9493  27.623  16.764   8.853
 5501POPC   GL2 9494  27.544  16.564   8.853
 5501POPC   C1A 9495  27.642  16.699   8.553
 5501POPC   D2A 9496  27.561  16.718   8.253
 5501POPC   C3A 9497  27.562  16.753   7.953
 5501POPC   C4A 9498  27.553  16.726   7.653
 5501POPC   C1B 9499  27.589  16.530   8.553
 5501POPC   C2B 9500  27.502  16.456   8.253
 5501POPC   C3B 9501  27.553  16.532   7.953
 5501POPC   C4B 9502  27.541  16.457   7.653
 5502POPC   NC3 9503   3.549   5.126   9.453
 5502POPC   PO4 9504   3.518   5.106   9.153
 5502POPC   GL1 9505   3.529   5.053   8.853
 5502POPC   GL2 9506   3.463   5.073   8.853
 5502POPC   C1A 9507   3.518   5.069   8.553
 5502POPC   D2A 9508   3.569   5.097   8.253
 5502POPC   C3A 9509   3.524   5.123   7.953
 5502POPC   C4A 9510   3.544   5.141   7.653
 5502POPC   C1B 9511   3.257   5.171   8.553
 5502POPC   C2B 9512   3.342   5.179   8.253
 5502POPC   C3B 9513   3.338   5.101   7.953
 5502POPC   C4B 9514   3.253   5.114   7.653
 5503POPC   NC3 9515  12.880  32.281   9.453
 5503POPC   PO4 9516  12.895  32.258   9.153
 5503POPC   GL1 9517  12.832  32.252   8.853
 5503POPC   GL2 9518  12.837  32.419   8.853
 5503POPC   C1A 9519  12.806  32.230   8.553
 5503POPC   D2A 9520  12.842  32.227   8.253
 5503POPC   C3A 9521  12.877  32.238   7.953
 5503POPC   C4A 9522  12.827  32.206   7.653
 5503POPC   C1B 9523  12.871  32.463   8.553
 5503POPC   C2B 9524  12.837  32.502   8.253
 5503POPC   C3B 9525  12.884  32.453   7.953
 5503POPC   C4B 9526  12.880  32.453   7.653
 5504POPC   NC3 9527  41.579   2.726   9.453
 5504POPC   PO4 9528  41.531   2.733   9.153
 5504POPC   GL1 9529  41.584   2.795   8.853
 5504POPC   GL2 9530  41.628   2.731   8.853
 5504POPC   C1A 9531  41.577   2.755   8.553
 5504POPC   D2A 9532  41.552   2.724   8.253
 5504POPC   C3A 9533  41.585   2.724   7.953
 5504POPC   C4A 9534  41.531   2.800   7.653
 5504POPC   C1B 9535  41.744   2.643   8.553
 5504POPC   C2B 9536  41.796   2.703   8.253
 5504POPC   C3B 9537  41.843   2.632   7.953
 5504POPC   C4B 9538  41.796   2.681   7.653
 5505POPC   NC3 9539  43.901  23.700   9.453
 5505POPC   PO4 9540  43.839  23.711   9.153
 5505POPC   GL1 9541  43.875  23.739   8.853
 5505POPC   GL2 9542  43.879  23.819   8.853
 5505POPC   C1A 9543  43.879  23.722   8.553
 5505POPC   D2A 9544  43.902  23.761   8.253
 5505POPC   C3A 9545  43.900  23.753   7.953
 5505POPC   C4A 9546  43.870  23.734   7.653
 5505POPC   C1B 9547  43.916  23.990   8.553
 5505POPC   C2B 9548  43.945  23.958   8.253
 5505POPC   C3B 9549  43.903  23.921   7.953
 5505POPC   C4B 9550  43.923  23.991   7.653
 5506POPC   NC3 9551  24.507  29.177   9.453
 5506POPC   PO4 9552  24.485  29.178   9.153
 5506POPC   GL1 9553  24.508  29.149   8.853
 5506POPC   GL2 9554  24.567  29.050   8.853
 5506POPC   C1A 9555  24.534  29.194   8.553
 5506POPC   D2A 9556  24.483  29.130   8.253
 5506POPC   C3A 9557  24.461  29.167   7.953
 5506POPC   C4A 9558  24.477  29.120   7.653
 5506POPC   C1B 9559  24.609  28.865   8.553
 5506POPC   C2B 9560  24.608  28.936   8.253
 5506POPC   C3B 9561  24.535  28.899   7.953
 5506POPC   C4B 9562  24.542  28.921   7.653
 5507POPC   NC3 9563  22.199  12.126   9.453
 5507POPC   PO4 9564  22.202  12.060   9.153
 5507POPC   GL1 9565  22.163  12.047   8.853
 5507POPC   GL2 9566  22.085  11.948   8.853
 5507POPC   C1A 9567  22.156  12.118   8.553
 5507POPC   D2A 9568  22.174  12.053   8.253
 5507POPC   C3A 9569  22.155  12.070   7.953
 5507POPC   C4A 9570  22.196  12.057   7.653
 5507POPC   C1B 9571  21.969  11.872   8.553
 5507POPC   C2B 9572  21.983  11.921   8.253
 5507POPC   C3B 9573  21.967  11.917   7.953
 5507POPC   C4B 9574  22.040  11.906   7.653
 5508POPC   NC3 9575  43.872  10.555   9.453
 5508POPC   PO4 9576  43.864  10.492   9.153
 5508POPC   GL1 9577  43.898  10.549   8.853
 5508POPC   GL2 9578  44.008  10.563   8.853
 5508POPC   C1A 9579  43.868  10.494   8.553
 5508POPC   D2A 9580  43.885  10.502   8.253
 5508POPC   C3A 9581  43.911  10.503   7.953
 5508POPC   C4A 9582  43.859  10.497   7.653
 5508POPC   C1B 9583  44.137  10.603   8.553
 5508POPC   C2B 9584  44.110  10.566   8.253
 5508POPC   C3B 9585  44.160  10.621   7.953
 5508POPC   C4B 9586  44.137  10.607   7.653
 5509POPC   NC3 9587  43.146  29.934   9.453
 5509POPC   PO4 9588  43.093  29.950   9.153
 5509POPC   GL1 9589  43.097  29.925   8.853
 5509POPC   GL2 9590  43.066  29.841   8.853
 5509POPC   C1A 9591  43.150  29.873   8.553
 5509POPC   D2A 9592  43.126  29.877   8.253
 5509POPC   C3A 9593  43.060  29.882   7.953
 5509POPC   C4A 9594  43.105  29.900   7.653
 5509POPC   C1B 9595  43.080  29.628   8.553
 5509POPC   C2B 9596  43.096  29.638   8.253
 5509POPC   C3B 9597  43.047  29.696   7.953
 5509POPC   C4B 9598  43.045  29.674   7.653
 5510POPC   NC3 9599  33.774  20.561   9.453
 5510POPC   PO4 9600  33.795  20.629   9.153
 5510POPC   GL1 9601  33.810  20.647   8.853
 5510POPC   GL2 9602  33.793  20.687   8.853
 5510POPC   C1A 9603  33.841  20.583   8.553
 5510POPC   D2A 9604  33.800  20.646   8.253
 5510POPC   C3A 9605  33.771  20.600   7.953
 5510POPC   C4A 9606  33.787  20.615   7.653
 5510POPC   C1B 9607  33.718  20.896   8.553
 5510POPC   C2B 9608  33.771  20.812   8.253
 5510POPC   C3B 9609  33.714  20.894   7.953
 5510POPC   C4B 9610  33.759  20.842   7.653
 5511POPC   NC3 9611  41.523  15.130   9.453
 5511POPC   PO4 9612  41.517  15.161   9.153
 5511POPC   GL1 9613  41.531  15.139   8.853
 5511POPC   GL2 9614  41.653  15.089   8.853
 5511POPC   C1A 9615  41.592  15.139   8.553
 5511POPC   D2A 9616  41.574  15.213   8.253
 5511POPC   C3A 9617  41.546  15.157   7.953
 5511POPC   C4A 9618  41.538  15.201   7.653
 5511POPC   C1B 9619  41.728  15.037   8.553
 5511POPC   C2B 9620  41.752  15.034   8.253
 5511POPC   C3B 9621  41.747  14.998   7.953
 5511POPC   C4B 9622  41.766  15.001   7.653
 5512POPC   NC3 9623  34.621  22.196   9.453
 5512POPC   PO4 9624  34.567  22.130   9.153
 5512POPC   GL1 9625  34.567  22.201   8.853
 5512POPC   GL2 9626  34.519  22.034   8.853
 5512POPC   C1A 9627  34.570  22.183   8.553
 5512POPC   D2A 9628  34.620  22.190   8.253
 5512POPC   C3A 9629  34.527  22.208   7.953
 5512POPC   C4A 9630  34.575  22.136   7.653
 5512POPC   C1B 9631  34.449  21.973   8.553
 5512POPC   C2B 9632  34.441  21.918   8.253
 5512POPC   C3B 9633  34.431  21.987   7.953
 5512POPC   C4B 9634  34.454  21.932   7.653
 5513POPC   NC3 9635   2.038  27.556   9.453
 5513POPC   PO4 9636   1.989  27.554   9.153
 5513POPC   GL1 9637   1.996  27.596   8.853
 5513POPC   GL2 9638   1.929  27.458   8.853
 5513POPC   C1A 9639   2.020  27.593   8.553
 5513POPC   D2A 9640   1.971  27.627   8.253
 5513POPC   C3A 9641   2.020  27.569   7.953
 5513POPC   C4A 9642   1.987  27.635   7.653
 5513POPC   C1B 9643   1.964  27.388   8.553
 5513POPC   C2B 9644   1.911  27.349   8.253
 5513POPC   C3B 9645   1.911  27.314   7.953
 5513POPC   C4B 9646   1.928  27.344   7.653
 5514POPC   NC3 9647  43.915  33.010   9.453
 5514POPC   PO4 9648  43.850  33.019   9.153
 5514POPC   GL1 9649  43.840  33.025   8.853
 5514POPC   GL2 9650  43.944  33.104   8.853
 5514POPC   C1A 9651  43.902  33.016   8.553
 5514POPC   D2A 9652  43.924  33.044   8.253
 5514POPC   C3A 9653  43.836  33.061   7.953
 5514POPC   C4A 9654  43.872  33.058   7.653
 5514POPC   C1B 9655  43.966  33.217   8.553
 5514POPC   C2B 9656  43.970  33.251   8.253
 5514POPC   C3B 9657  43.971  33.278   7.953
 5514POPC   C4B 9658  44.042  33.245   7.653
 5515POPC   NC3 9659  35.401  36.119   9.453
 5515POPC   PO4 9660  35.398  36.096   9.153
 5515POPC   GL1 9661  35.388  36.083   8.853
 5515POPC   GL2 9662  35.298  36.293   8.853
 5515POPC   C1A 9663  35.343  36.109   8.553
 5515POPC   D2A 9664  35.392  36.128   8.253
 5515POPC   C3A 9665  35.367  36.110   7.953
 5515POPC   C4A 9666  35.373  36.106   7.653
 5515POPC   C1B 9667  35.310  36.395   8.553
 5515POPC   C2B 9668  35.373  36.403   8.253
 5515POPC   C3B 9669  35.293  36.352   7.953
 5515POPC   C4B 9670  35.374  36.426   7.653
 5516POPC   NC3 9671  12.847   8.208   9.453
 5516POPC   PO4 9672  12.874   8.161   9.153
 5516POPC   GL1 9673  12.805   8.167   8.853
 5516POPC   GL2 9674  12.861   8.334   8.853
 5516POPC   C1A 9675  12.856   8.207   8.553
 5516POPC   D2A 9676  12.861   8.177   8.253
 5516POPC   C3A 9677  12.860   8.167   7.953
 5516POPC   C4A 9678  12.813   8.220   7.653
 5516POPC   C1B 9679  12.854   8.452   8.553
 5516POPC   C2B 9680  12.788   8.457   8.253
 5516POPC   C3B 9681  12.802   8.425   7.953
 5516POPC   C4B 9682  12.794   8.406   7.653
 5517POPC   NC3 9683  35.332  22.907   9.453
 5517POPC   PO4 9684  35.375  22.957   9.153
 5517POPC   GL1 9685  35.354  22.950   8.853
 5517POPC   GL2 9686  35.381  23.037   8.853
 5517POPC   C1A 9687  35.302  22.958   8.553
 5517POPC   D2A 9688  35.370  22.985   8.253
 5517POPC   C3A 9689  35.395  22.987   7.953
 5517POPC   C4A 9690  35.332  22.958   7.653
 5517POPC   C1B 9691  35.452  23.183   8.553
 5517POPC   C2B 9692  35.504  23.156   8.253
 5517POPC   C3B 9693  35.498  23.152   7.953
 5517POPC   C4B 9694  35.516  23.170   7.653
 5518POPC   NC3 9695  14.432   8.971   9.453
 5518POPC   PO4 9696  14.442   8.993   9.153
 5518POPC   GL1 9697  14.361   9.014   8.853
 5518POPC   GL2 9698  14.510   8.940   8.853
 5518POPC   C1A 9699  14.370   8.933   8.553
 5518POPC   D2A 9700  14.398   8.941   8.253
 5518POPC   C3A 9701  14.444   8.939   7.953
 5518POPC   C4A 9702  14.372   9.007   7.653
 5518POPC   C1B 9703  14.645   8.896   8.553
 5518POPC   C2B 9704  14.630   8.900   8.253
 5518POPC   C3B 9705  14.686   8.982   7.953
 5518POPC   C4B 9706  14.658   8.969   7.653
 5519POPC   NC3 9707  42.343   4.323   9.453
 5519POPC   PO4 9708  42.358   4.357   9.153
 5519POPC   GL1 9709  42.353   4.302   8.853
 5519POPC   GL2 9710  42.430   4.364   8.853
 5519POPC   C1A 9711  42.376   4.365   8.553
 5519POPC   D2A 9712  42.323   4.311   8.253
 5519POPC   C3A 9713  42.304   4.295   7.953
 5519POPC   C4A 9714  42.288   4.275   7.653
 5519POPC   C1B 9715  42.626   4.319   8.553
 5519POPC   C2B 9716  42.553   4.353   8.253
 5519POPC   C3B 9717  42.552   4.320   7.953
 5519POPC   C4B 9718  42.556   4.351   7.653
 5520POPC   NC3 9719   9.782  25.246   9.453
 5520POPC   PO4 9720   9.705  25.233   9.153
 5520POPC   GL1 9721   9.772  25.287   8.853
 5520POPC   GL2 9722   9.838  25.368   8.853
 5520POPC   C1A 9723   9.790  25.235   8.553
 5520POPC   D2A 9724   9.711  25.267   8.253
 5520POPC   C3A 9725   9.788  25.269   7.953
 5520POPC   C4A 9726   9.743  25.287   7.653
 5520POPC   C1B 9727   9.926  25.496   8.553
 5520POPC   C2B 9728   9.933  25.511   8.253
 5520POPC   C3B 9729   9.933  25.450   7.953
 5520POPC   C4B 9730   9.871  25.463   7.653
 5521POPC   NC3 9731  43.840  25.245   9.453
 5521POPC   PO4 9732  43.877  25.285   9.153
 5521POPC   GL1 9733  43.893  25.250   8.853
 5521POPC   GL2 9734  43.953  25.336   8.853
 5521POPC   C1A 9735  43.893  25.264   8.553
 5521POPC   D2A 9736  43.853  25.230   8.253
 5521POPC   C3A 9737  43.840  25.251   7.953
 5521POPC   C4A 9738  43.863  25.293   7.653
 5521POPC   C1B 9739  43.969  25.455   8.553
 5521POPC   C2B 9740  44.009  25.532   8.253
 5521POPC   C3B 9741  43.955  25.460   7.953
 5521POPC   C4B 9742  44.006  25.452   7.653
 5522POPC   NC3 9743   8.941   8.214   9.453
 5522POPC   PO4 9744   8.988   8.174   9.153
 5522POPC   GL1 9745   8.931   8.220   8.853
 5522POPC   GL2 9746   9.034   8.098   8.853
 5522POPC   C1A 9747   8.963   8.222   8.553
 5522POPC   D2A 9748   8.990   8.246   8.253
 5522POPC   C3A 9749   8.997   8.171   7.953
 5522POPC   C4A 9750   9.003   8.193   7.653
 5522POPC   C1B 9751   9.011   7.978   8.553
 5522POPC   C2B 9752   9.034   7.932   8.253
 5522POPC   C3B 9753   9.025   8.002   7.953
 5522POPC   C4B 9754   9.025   7.933   7.653
 5523POPC   NC3 9755   2.785  17.547   9.453
 5523POPC   PO4 9756   2.771  17.509   9.153
 5523POPC   GL1 9757   2.745  17.498   8.853
 5523POPC   GL2 9758   2.865  17.532   8.853
 5523POPC   C1A 9759   2.751  17.458   8.553
 5523POPC   D2A 9760   2.810  17.496   8.253
 5523POPC   C3A 9761   2.813  17.484   7.953
 5523POPC   C4A 9762   2.750  17.512   7.653
 5523POPC   C1B 9763   2.933  17.632   8.553
 5523POPC   C2B 9764   2.955  17.677   8.253
 5523POPC   C3B 9765   2.922  17.685   7.953
 5523POPC   C4B 9766   2.997  17.644   7.653
 5524POPC   NC3 9767  42.353  25.283   9.453
 5524POPC   PO4 9768  42.294  25.294   9.153
 5524POPC   GL1 9769  42.334  25.265   8.853
 5524POPC   GL2 9770  42.225  25.208   8.853
 5524POPC   C1A 9771  42.367  25.271   8.553
 5524POPC   D2A 9772  42.381  25.243   8.253
 5524POPC   C3A 9773  42.342  25.232   7.953
 5524POPC   C4A 9774  42.293  25.273   7.653
 5524POPC   C1B 9775  42.108  25.219   8.553
 5524POPC   C2B 9776  42.071  25.244   8.253
 5524POPC   C3B 9777  42.064  25.241   7.953
 5524POPC   C4B 9778  42.118  25.183   7.653
 5525POPC   NC3 9779   5.127  26.019   9.453
 5525POPC   PO4 9780   5.071  26.084   9.153
 5525POPC   GL1 9781   5.126  26.070   8.853
 5525POPC   GL2 9782   5.199  25.945   8.853
 5525POPC   C1A 9783   5.133  26.005   8.553
 5525POPC   D2A 9784   5.118  26.051   8.253
 5525POPC   C3A 9785   5.064  26.081   7.953
 5525POPC   C4A 9786   5.114  26.034   7.653
 5525POPC   C1B 9787   5.246  25.827   8.553
 5525POPC   C2B 9788   5.219  25.812   8.253
 5525POPC   C3B 9789   5.210  25.843   7.953
 5525POPC   C4B 9790   5.226  25.884   7.653
 5526POPC   NC3 9791  36.904  17.553   9.453
 5526POPC   PO4 9792  36.874  17.515   9.153
 5526POPC   GL1 9793  36.895  17.464   8.853
 5526POPC   GL2 9794  37.029  17.481   8.853
 5526POPC   C1A 9795  36.948  17.480   8.553
 5526POPC   D2A 9796  36.896  17.505   8.253
 5526POPC   C3A 9797  36.868  17.523   7.953
 5526POPC   C4A 9798  36.913  17.550   7.653
 5526POPC   C1B 9799  37.129  17.530   8.553
 5526POPC   C2B 9800  37.152  17.515   8.253
 5526POPC   C3B 9801  37.156  17.462   7.953
 5526POPC   C4B 9802  37.161  17.491   7.653
 5527POPC   NC3 9803  16.743   3.529   9.453
 5527POPC   PO4 9804  16.776   3.541   9.153
 5527POPC   GL1 9805  16.732   3.534   8.853
 5527POPC   GL2 9806  16.589   3.554   8.853
 5527POPC   C1A 9807  16.779   3.547   8.553
 5527POPC   D2A 9808  16.768   3.500   8.253
 5527POPC   C3A 9809  16.683   3.510   7.953
 5527POPC   C4A 9810  16.761   3.502   7.653
 5527POPC   C1B 9811  16.542   3.670   8.553
 5527POPC   C2B 9812  16.539   3.604   8.253
 5527POPC   C3B 9813  16.455   3.657   7.953
 5527POPC   C4B 9814  16.494   3.629   7.653
 5528POPC   NC3 9815  39.227  15.229   9.453
 5528POPC   PO4 9816  39.219  15.135   9.153
 5528POPC   GL1 9817  39.266  15.132   8.853
 5528POPC   GL2 9818  39.091  15.071   8.853
 5528POPC   C1A 9819  39.223  15.161   8.553
 5528POPC   D2A 9820  39.231  15.204   8.253
 5528POPC   C3A 9821  39.187  15.134   7.953
 5528POPC   C4A 9822  39.271  15.151   7.653
 5528POPC   C1B 9823  39.027  15.023   8.553
 5528POPC   C2B 9824  39.065  15.002   8.253
 5528POPC   C3B 9825  39.047  15.040   7.953
 5528POPC   C4B 9826  39.002  14.987   7.653
 5529POPC   NC3 9827  25.246  44.675   9.453
 5529POPC   PO4 9828  25.295  44.675   9.153
 5529POPC   GL1 9829  25.270  44.660   8.853
 5529POPC   GL2 9830  25.143  44.639   8.853
 5529POPC   C1A 9831  25.236  44.687   8.553
 5529POPC   D2A 9832  25.256  44.693   8.253
 5529POPC   C3A 9833  25.313  44.663   7.953
 5529POPC   C4A 9834  25.225  44.702   7.653
 5529POPC   C1B 9835  25.060  44.625   8.553
 5529POPC   C2B 9836  25.025  44.649   8.253
 5529POPC   C3B 9837  25.057  44.642   7.953
 5529POPC   C4B 9838  24.979  44.679   7.653
 5530POPC   NC3 9839  40.782  44.649   9.453
 5530POPC   PO4 9840  40.781  44.700   9.153
 5530POPC   GL1 9841  40.819  44.640   8.853
 5530POPC   GL2 9842  40.877  44.720   8.853
 5530POPC   C1A 9843  40.755  44.691   8.553
 5530POPC   D2A 9844  40.802  44.685   8.253
 5530POPC   C3A 9845  40.790  44.669   7.953
 5530POPC   C4A 9846  40.788  44.637   7.653
 5530POPC   C1B 9847  40.929  44.905   8.553
 5530POPC   C2B 9848  40.926  44.871   8.253
 5530POPC   C3B 9849  40.903  44.871   7.953
 5530POPC   C4B 9850  40.900  44.906   7.653
 5531POPC   NC3 9851  40.016  43.101   9.453
 5531POPC   PO4 9852  40.050  43.065   9.153
 5531POPC   GL1 9853  39.971  43.099   8.853
 5531POPC   GL2 9854  40.143  43.172   8.853
 5531POPC   C1A 9855  39.980  43.158   8.553
 5531POPC   D2A 9856  40.033  43.097   8.253
 5531POPC   C3A 9857  39.983  43.090   7.953
 5531POPC   C4A 9858  40.007  43.107   7.653
 5531POPC   C1B 9859  40.273  43.204   8.553
 5531POPC   C2B 9860  40.219  43.202   8.253
 5531POPC   C3B 9861  40.229  43.218   7.953
 5531POPC   C4B 9862  40.209  43.215   7.653
 5532POPC   NC3 9863   9.758   1.976   9.453
 5532POPC   PO4 9864   9.781   2.011   9.153
 5532POPC   GL1 9865   9.750   2.021   8.853
 5532POPC   GL2 9866   9.828   1.933   8.853
 5532POPC   C1A 9867   9.796   2.014   8.553
 5532POPC   D2A 9868   9.765   2.037   8.253
 5532POPC   C3A 9869   9.726   2.026   7.953
 5532POPC   C4A 9870   9.779   2.027   7.653
 5532POPC   C1B 9871   9.977   1.972   8.553
 5532POPC   C2B 9872  10.038   1.946   8.253
 5532POPC   C3B 9873   9.956   1.937   7.953
 5532POPC   C4B 9874   9.951   1.971   7.653
 5533POPC   NC3 9875   8.957  42.375   9.453
 5533POPC   PO4 9876   9.020  42.331   9.153
 5533POPC   GL1 9877   8.985  42.381   8.853
 5533POPC   GL2 9878   9.049  42.224   8.853
 5533POPC   C1A 9879   9.003  42.382   8.553
 5533POPC   D2A 9880   9.002  42.349   8.253
 5533POPC   C3A 9881   9.001  42.381   7.953
 5533POPC   C4A 9882   8.998  42.310   7.653
 5533POPC   C1B 9883   9.006  42.070   8.553
 5533POPC   C2B 9884   9.052  42.072   8.253
 5533POPC   C3B 9885   9.016  42.119   7.953
 5533POPC   C4B 9886   9.040  42.138   7.653
 5534POPC   NC3 9887  41.559  28.401   9.453
 5534POPC   PO4 9888  41.589  28.339   9.153
 5534POPC   GL1 9889  41.590  28.405   8.853
 5534POPC   GL2 9890  41.599  28.523   8.853
 5534POPC   C1A 9891  41.559  28.404   8.553
 5534POPC   D2A 9892  41.529  28.404   8.253
 5534POPC   C3A 9893  41.520  28.330   7.953
 5534POPC   C4A 9894  41.599  28.379   7.653
 5534POPC   C1B 9895  41.743  28.582   8.553
 5534POPC   C2B 9896  41.675  28.596   8.253
 5534POPC   C3B 9897  41.655  28.619   7.953
 5534POPC   C4B 9898  41.714  28.606   7.653
 5535POPC   NC3 9899   2.770  22.204   9.453
 5535POPC   PO4 9900   2.782  22.159   9.153
 5535POPC   GL1 9901   2.745  22.165   8.853
 5535POPC   GL2 9902   2.640  22.085   8.853
 5535POPC   C1A 9903   2.749  22.142   8.553
 5535POPC   D2A 9904   2.727  22.159   8.253
 5535POPC   C3A 9905   2.760  22.185   7.953
 5535POPC   C4A 9906   2.746  22.160   7.653
 5535POPC   C1B 9907   2.518  22.086   8.553
 5535POPC   C2B 9908   2.527  22.028   8.253
 5535POPC   C3B 9909   2.500  21.997   7.953
 5535POPC   C4B 9910   2.518  22.086   7.653
 5536POPC   NC3 9911   0.447  13.603   9.453
 5536POPC   PO4 9912   0.452  13.603   9.153
 5536POPC   GL1 9913   0.425  13.579   8.853
 5536POPC   GL2 9914   0.400  13.737   8.853
 5536POPC   C1A 9915   0.415  13.651   8.553
 5536POPC   D2A 9916   0.403  13.627   8.253
 5536POPC   C3A 9917   0.481  13.652   7.953
 5536POPC   C4A 9918   0.455  13.659   7.653
 5536POPC   C1B 9919   0.343  13.797   8.553
 5536POPC   C2B 9920   0.299  13.799   8.253
 5536POPC   C3B 9921   0.337  13.877   7.953
 5536POPC   C4B 9922   0.286  13.814   7.653
 5537POPC   NC3 9923  40.807  36.119   9.453
 5537POPC   PO4 9924  40.810  36.117   9.153
 5537POPC   GL1 9925  40.800  36.120   8.853
 5537POPC   GL2 9926  40.795  36.017   8.853
 5537POPC   C1A 9927  40.816  36.133   8.553
 5537POPC   D2A 9928  40.787  36.110   8.253
 5537POPC   C3A 9929  40.762  36.089   7.953
 5537POPC   C4A 9930  40.831  36.087   7.653
 5537POPC   C1B 9931  40.864  35.940   8.553
 5537POPC   C2B 9932  40.851  35.943   8.253
 5537POPC   C3B 9933  40.913  35.941   7.953
 5537POPC   C4B 9934  40.856  35.951   7.653
 5538POPC   NC3 9935  39.258  24.506   9.453
 5538POPC   PO4 9936  39.254  24.443   9.153
 5538POPC   GL1 9937  39.203  24.490   8.853
 5538POPC   GL2 9938  39.243  24.624   8.853
 5538POPC   C1A 9939  39.223  24.498   8.553
 5538POPC   D2A 9940  39.198  24.499   8.253
 5538POPC   C3A 9941  39.183  24.521   7.953
 5538POPC   C4A 9942  39.195  24.475   7.653
 5538POPC   C1B 9943  39.205  24.708   8.553
 5538POPC   C2B 9944  39.163  24.684   8.253
 5538POPC   C3B 9945  39.121  24.754   7.953
 5538POPC   C4B 9946  39.169  24.757   7.653
 5539POPC   NC3 9947   0.429  17.485   9.453
 5539POPC   PO4 9948   0.431  17.462   9.153
 5539POPC   GL1 9949   0.395  17.486   8.853
 5539POPC   GL2 9950   0.360  17.437   8.853
 5539POPC   C1A 9951   0.444  17.533   8.553
 5539POPC   D2A 9952   0.392  17.459   8.253
 5539POPC   C3A 9953   0.468  17.548   7.953
 5539POPC   C4A 9954   0.477  17.513   7.653
 5539POPC   C1B 9955   0.362  17.322   8.553
 5539POPC   C2B 9956   0.377  17.227   8.253
 5539POPC   C3B 9957   0.311  17.288   7.953
 5539POPC   C4B 9958   0.348  17.231   7.653
 5540POPC   NC3 9959  43.087   8.215   9.453
 5540POPC   PO4 9960  43.113   8.201   9.153
 5540POPC   GL1 9961  43.159   8.156   8.853
 5540POPC   GL2 9962  42.950   8.264   8.853
 5540POPC   C1A 9963  43.069   8.244   8.553
 5540POPC   D2A 9964  43.122   8.198   8.253
 5540POPC   C3A 9965  43.125   8.184   7.953
 5540POPC   C4A 9966  43.119   8.229   7.653
 5540POPC   C1B 9967  42.871   8.300   8.553
 5540POPC   C2B 9968  42.832   8.237   8.253
 5540POPC   C3B 9969  42.828   8.317   7.953
 5540POPC   C4B 9970  42.853   8.254   7.653
 5541POPC   NC3 9971  23.756   3.493   9.453
 5541POPC   PO4 9972  23.723   3.588   9.153
 5541POPC   GL1 9973  23.741   3.577   8.853
 5541POPC   GL2 9974  23.741   3.694   8.853
 5541POPC   C1A 9975  23.674   3.529   8.553
 5541POPC   D2A 9976  23.739   3.523   8.253
 5541POPC   C3A 9977  23.737   3.585   7.953
 5541POPC   C4A 9978  23.744   3.498   7.653
 5541POPC   C1B 9979  23.854   3.787   8.553
 5541POPC   C2B 9980  23.812   3.729   8.253
 5541POPC   C3B 9981  23.834   3.759   7.953
 5541POPC   C4B 9982  23.830   3.740   7.653
 5542POPC   NC3 9983  24.519  23.759   9.453
 5542POPC   PO4 9984  24.529  23.752   9.153
 5542POPC   GL1 9985  24.455  23.667   8.853
 5542POPC   GL2 9986  24.392  23.604   8.853
 5542POPC   C1A 9987  24.524  23.677   8.553
 5542POPC   D2A 9988  24.499  23.684   8.253
 5542POPC   C3A 9989  24.499  23.702   7.953
 5542POPC   C4A 9990  24.458  23.737   7.653
 5542POPC   C1B 9991  24.363  23.520   8.553
 5542POPC   C2B 9992  24.330  23.481   8.253
 5542POPC   C3B 9993  24.296  23.536   7.953
 5542POPC   C4B 9994  24.336  23.567   7.653
 5543POPC   NC3 9995  13.578  21.433   9.453
 5543POPC   PO4 9996  13.636  21.408   9.153
 5543POPC   GL1 9997  13.636  21.386   8.853
 5543POPC   GL2 9998  13.758  21.414   8.853
 5543POPC   C1A 9999  13.665  21.376   8.553
 5543POPC   D2A10000  13.604  21.403   8.253
 5543POPC   C3A10001  13.618  21.389   7.953
 5543POPC   C4A10002  13.594  21.375   7.653
 5543POPC   C1B10003  13.831  21.439   8.553
 5543POPC   C2B10004  13.827  21.418   8.253
 5543POPC   C3B10005  13.841  21.503   7.953
 5543POPC   C4B10006  13.861  21.473   7.653
 5544POPC   NC310007  12.865   5.140   9.453
 5544POPC   PO410008  12.813   5.135   9.153
 5544POPC   GL110009  12.847   5.073   8.853
 5544POPC   GL210010  12.779   4.986   8.853
 5544POPC   C1A10011  12.808   5.089   8.553
 5544POPC   D2A10012  12.843   5.088   8.253
 5544POPC   C3A10013  12.862   5.105   7.953
 5544POPC   C4A10014  12.874   5.084   7.653
 5544POPC   C1B10015  12.732   4.917   8.553
 5544POPC   C2B10016  12.700   4.905   8.253
 5544POPC   C3B10017  12.702   4.899   7.953
 5544POPC   C4B10018  12.692   4.945   7.653
 5545POPC   NC310019  26.783  40.050   9.453
 5545POPC   PO410020  26.841  39.990   9.153
 5545POPC   GL110021  26.816  40.048   8.853
 5545POPC   GL210022  26.728  39.943   8.853
 5545POPC   C1A10023  26.779  39.963   8.553
 5545POPC   D2A10024  26.820  40.053   8.253
 5545POPC   C3A10025  26.771  40.040   7.953
 5545POPC   C4A10026  26.831  39.992   7.653
 5545POPC   C1B10027  26.673  39.835   8.553
 5545POPC   C2B10028  26.653  39.845   8.253
 5545POPC   C3B10029  26.651  39.835   7.953
 5545POPC   C4B10030  26.677  39.844   7.653
 5546POPC   NC310031  44.650  15.161   9.453
 5546POPC   PO410032  44.704  15.187   9.153
 5546POPC   GL110033  44.613  15.184   8.853
 5546POPC   GL210034  44.583  15.157   8.853
 5546POPC   C1A10035  44.704  15.219   8.553
 5546POPC   D2A10036  44.655  15.184   8.253
 5546POPC   C3A10037  44.637  15.152   7.953
 5546POPC   C4A10038  44.640  15.155   7.653
 5546POPC   C1B10039  44.397  15.101   8.553
 5546POPC   C2B10040  44.397  15.097   8.253
 5546POPC   C3B10041  44.455  15.153   7.953
 5546POPC   C4B10042  44.390  15.098   7.653
 5547POPC   NC310043  21.382  10.491   9.453
 5547POPC   PO410044  21.423  10.560   9.153
 5547POPC   GL110045  21.402  10.535   8.853
 5547POPC   GL210046  21.281  10.584   8.853
 5547POPC   C1A10047  21.389  10.520   8.553
 5547POPC   D2A10048  21.427  10.547   8.253
 5547POPC   C3A10049  21.432  10.554   7.953
 5547POPC   C4A10050  21.411  10.500   7.653
 5547POPC   C1B10051  21.152  10.665   8.553
 5547POPC   C2B10052  21.169  10.577   8.253
 5547POPC   C3B10053  21.124  10.600   7.953
 5547POPC   C4B10054  21.127  10.583   7.653
 5548POPC   NC310055  35.364  15.995   9.453
 5548POPC   PO410056  35.377  15.966   9.153
 5548POPC   GL110057  35.320  15.915   8.853
 5548POPC   GL210058  35.225  16.044   8.853
 5548POPC   C1A10059  35.317  15.967   8.553
 5548POPC   D2A10060  35.340  15.987   8.253
 5548POPC   C3A10061  35.320  15.929   7.953
 5548POPC   C4A10062  35.322  15.945   7.653
 5548POPC   C1B10063  35.154  16.101   8.553
 5548POPC   C2B10064  35.161  16.147   8.253
 5548POPC   C3B10065  35.147  16.071   7.953
 5548POPC   C4B10066  35.198  16.075   7.653
 5549POPC   NC310067  16.734  33.027   9.453
 5549POPC   PO410068  16.770  33.039   9.153
 5549POPC   GL110069  16.771  33.007   8.853
 5549POPC   GL210070  16.785  33.186   8.853
 5549POPC   C1A10071  16.774  32.989   8.553
 5549POPC   D2A10072  16.762  32.975   8.253
 5549POPC   C3A10073  16.779  33.012   7.953
 5549POPC   C4A10074  16.699  33.018   7.653
 5549POPC   C1B10075  16.815  33.286   8.553
 5549POPC   C2B10076  16.792  33.317   8.253
 5549POPC   C3B10077  16.789  33.307   7.953
 5549POPC   C4B10078  16.743  33.248   7.653
 5550POPC   NC310079  40.786  12.113   9.453
 5550POPC   PO410080  40.820  12.075   9.153
 5550POPC   GL110081  40.762  12.063   8.853
 5550POPC   GL210082  40.874  12.112   8.853
 5550POPC   C1A10083  40.788  12.069   8.553
 5550POPC   D2A10084  40.801  12.042   8.253
 5550POPC   C3A10085  40.753  12.094   7.953
 5550POPC   C4A10086  40.752  12.055   7.653
 5550POPC   C1B10087  41.038  12.225   8.553
 5550POPC   C2B10088  41.000  12.178   8.253
 5550POPC   C3B10089  40.989  12.212   7.953
 5550POPC   C4B10090  41.025  12.169   7.653
 5551POPC   NC310091   2.735  16.714   9.453
 5551POPC   PO410092   2.741  16.692   9.153
 5551POPC   GL110093   2.749  16.682   8.853
 5551POPC   GL210094   2.647  16.795   8.853
 5551POPC   C1A10095   2.722  16.711   8.553
 5551POPC   D2A10096   2.813  16.761   8.253
 5551POPC   C3A10097   2.804  16.703   7.953
 5551POPC   C4A10098   2.784  16.719   7.653
 5551POPC   C1B10099   2.530  16.904   8.553
 5551POPC   C2B10100   2.611  16.925   8.253
 5551POPC   C3B10101   2.607  16.875   7.953
 5551POPC   C4B10102   2.614  16.935   7.653
 5552POPC   NC310103  18.281  33.792   9.453
 5552POPC   PO410104  18.294  33.844   9.153
 5552POPC   GL110105  18.254  33.798   8.853
 5552POPC   GL210106  18.230  33.915   8.853
 5552POPC   C1A10107  18.280  33.771   8.553
 5552POPC   D2A10108  18.234  33.763   8.253
 5552POPC   C3A10109  18.280  33.813   7.953
 5552POPC   C4A10110  18.241  33.839   7.653
 5552POPC   C1B10111  18.061  33.968   8.553
 5552POPC   C2B10112  18.063  33.947   8.253
 5552POPC   C3B10113  18.095  33.977   7.953
 5552POPC   C4B10114  18.141  33.933   7.653
 5553POPC   NC310115   0.450  42.292   9.453
 5553POPC   PO410116   0.419  42.371   9.153
 5553POPC   GL110117   0.420  42.383   8.853
 5553POPC   GL210118   0.464  42.475   8.853
 5553POPC   C1A10119   0.397  42.327   8.553
 5553POPC   D2A10120   0.421  42.328   8.253
 5553POPC   C3A10121   0.397  42.372   7.953
 5553POPC   C4A10122   0.445  42.376   7.653
 5553POPC   C1B10123   0.426  42.629   8.553
 5553POPC   C2B10124   0.362  42.580   8.253
 5553POPC   C3B10125   0.375  42.608   7.953
 5553POPC   C4B10126   0.434  42.545   7.653
 5554POPC   NC310127  16.720   9.763   9.453
 5554POPC   PO410128  16.732   9.732   9.153
 5554POPC   GL110129  16.740   9.758   8.853
 5554POPC   GL210130  16.638   9.733   8.853
 5554POPC   C1A10131  16.717   9.735   8.553
 5554POPC   D2A10132  16.720   9.795   8.253
 5554POPC   C3A10133  16.768   9.710   7.953
 5554POPC   C4A10134  16.775   9.739   7.653
 5554POPC   C1B10135  16.529   9.714   8.553
 5554POPC   C2B10136  16.514   9.653   8.253
 5554POPC   C3B10137  16.492   9.626   7.953
 5554POPC   C4B10138  16.487   9.690   7.653
 5555POPC   NC310139   0.393  11.346   9.453
 5555POPC   PO410140   0.393  11.268   9.153
 5555POPC   GL110141   0.392  11.294   8.853
 5555POPC   GL210142   0.507  11.275   8.853
 5555POPC   C1A10143   0.434  11.342   8.553
 5555POPC   D2A10144   0.458  11.340   8.253
 5555POPC   C3A10145   0.406  11.274   7.953
 5555POPC   C4A10146   0.487  11.266   7.653
 5555POPC   C1B10147   0.693  11.208   8.553
 5555POPC   C2B10148   0.627  11.183   8.253
 5555POPC   C3B10149   0.700  11.211   7.953
 5555POPC   C4B10150   0.679  11.199   7.653
 5556POPC   NC310151   8.175  25.264   9.453
 5556POPC   PO410152   8.193  25.252   9.153
 5556POPC   GL110153   8.164  25.272   8.853
 5556POPC   GL210154   8.034  25.341   8.853
 5556POPC   C1A10155   8.208  25.240   8.553
 5556POPC   D2A10156   8.209  25.281   8.253
 5556POPC   C3A10157   8.204  25.300   7.953
 5556POPC   C4A10158   8.189  25.311   7.653
 5556POPC   C1B10159   7.941  25.361   8.553
 5556POPC   C2B10160   7.987  25.370   8.253
 5556POPC   C3B10161   8.009  25.307   7.953
 5556POPC   C4B10162   7.958  25.317   7.653
 5557POPC   NC310163  15.932   7.454   9.453
 5557POPC   PO410164  15.912   7.427   9.153
 5557POPC   GL110165  15.998   7.447   8.853
 5557POPC   GL210166  16.077   7.456   8.853
 5557POPC   C1A10167  15.997   7.469   8.553
 5557POPC   D2A10168  15.938   7.423   8.253
 5557POPC   C3A10169  15.914   7.464   7.953
 5557POPC   C4A10170  15.962   7.421   7.653
 5557POPC   C1B10171  16.161   7.403   8.553
 5557POPC   C2B10172  16.173   7.404   8.253
 5557POPC   C3B10173  16.155   7.426   7.953
 5557POPC   C4B10174  16.231   7.393   7.653
 5558POPC   NC310175  43.854  30.661   9.453
 5558POPC   PO410176  43.849  30.680   9.153
 5558POPC   GL110177  43.852  30.711   8.853
 5558POPC   GL210178  43.884  30.863   8.853
 5558POPC   C1A10179  43.892  30.670   8.553
 5558POPC   D2A10180  43.844  30.734   8.253
 5558POPC   C3A10181  43.839  30.659   7.953
 5558POPC   C4A10182  43.892  30.666   7.653
 5558POPC   C1B10183  43.821  30.969   8.553
 5558POPC   C2B10184  43.854  30.922   8.253
 5558POPC   C3B10185  43.893  30.938   7.953
 5558POPC   C4B10186  43.830  30.969   7.653
 5559POPC   NC310187  34.555   3.516   9.453
 5559POPC   PO410188  34.592   3.520   9.153
 5559POPC   GL110189  34.528   3.510   8.853
 5559POPC   GL210190  34.444   3.528   8.853
 5559POPC   C1A10191  34.612   3.533   8.553
 5559POPC   D2A10192  34.564   3.516   8.253
 5559POPC   C3A10193  34.607   3.554   7.953
 5559POPC   C4A10194  34.596   3.509   7.653
 5559POPC   C1B10195  34.353   3.447   8.553
 5559POPC   C2B10196  34.336   3.398   8.253
 5559POPC   C3B10197  34.324   3.479   7.953
 5559POPC   C4B10198  34.389   3.388   7.653
 5560POPC   NC310199   9.015   1.252   9.453
 5560POPC   PO410200   8.992   1.173   9.153
 5560POPC   GL110201   9.015   1.180   8.853
 5560POPC   GL210202   8.821   1.244   8.853
 5560POPC   C1A10203   8.970   1.261   8.553
 5560POPC   D2A10204   8.976   1.244   8.253
 5560POPC   C3A10205   8.957   1.201   7.953
 5560POPC   C4A10206   9.008   1.165   7.653
 5560POPC   C1B10207   8.705   1.252   8.553
 5560POPC   C2B10208   8.767   1.221   8.253
 5560POPC   C3B10209   8.755   1.244   7.953
 5560POPC   C4B10210   8.751   1.216   7.653
 5561POPC   NC310211  36.866  10.557   9.453
 5561POPC   PO410212  36.910  10.492   9.153
 5561POPC   GL110213  36.907  10.521   8.853
 5561POPC   GL210214  36.793  10.443   8.853
 5561POPC   C1A10215  36.887  10.548   8.553
 5561POPC   D2A10216  36.930  10.497   8.253
 5561POPC   C3A10217  36.855  10.532   7.953
 5561POPC   C4A10218  36.921  10.535   7.653
 5561POPC   C1B10219  36.814  10.353   8.553
 5561POPC   C2B10220  36.732  10.267   8.253
 5561POPC   C3B10221  36.766  10.320   7.953
 5561POPC   C4B10222  36.782  10.362   7.653
 5562POPC   NC310223  10.556  12.035   9.453
 5562POPC   PO410224  10.476  12.110   9.153
 5562POPC   GL110225  10.559  12.063   8.853
 5562POPC   GL210226  10.412  11.955   8.853
 5562POPC   C1A10227  10.532  12.086   8.553
 5562POPC   D2A10228  10.547  12.033   8.253
 5562POPC   C3A10229  10.522  12.076   7.953
 5562POPC   C4A10230  10.540  12.054   7.653
 5562POPC   C1B10231  10.320  11.893   8.553
 5562POPC   C2B10232  10.335  11.966   8.253
 5562POPC   C3B10233  10.321  11.885   7.953
 5562POPC   C4B10234  10.348  11.967   7.653
 5563POPC   NC310235  19.796  21.367   9.453
 5563POPC   PO410236  19.803  21.400   9.153
 5563POPC   GL110237  19.857  21.379   8.853
 5563POPC   GL210238  19.965  21.363   8.853
 5563POPC   C1A10239  19.791  21.409   8.553
 5563POPC   D2A10240  19.871  21.349   8.253
 5563POPC   C3A10241  19.847  21.407   7.953
 5563POPC   C4A10242  19.840  21.380   7.653
 5563POPC   C1B10243  20.008  21.278   8.553
 5563POPC   C2B10244  20.099  21.266   8.253
 5563POPC   C3B10245  20.007  21.257   7.953
 5563POPC   C4B10246  20.092  21.302   7.653
 5564POPC   NC310247  14.443  29.885   9.453
 5564POPC   PO410248  14.421  29.880   9.153
 5564POPC   GL110249  14.379  29.952   8.853
 5564POPC   GL210250  14.263  29.919   8.853
 5564POPC   C1A10251  14.393  29.918   8.553
 5564POPC   D2A10252  14.373  29.914   8.253
 5564POPC   C3A10253  14.420  29.941   7.953
 5564POPC   C4A10254  14.370  29.963   7.653
 5564POPC   C1B10255  14.129  29.898   8.553
 5564POPC   C2B10256  14.105  29.928   8.253
 5564POPC   C3B10257  14.117  29.870   7.953
 5564POPC   C4B10258  14.193  29.915   7.653
 5565POPC   NC310259   5.894  27.595   9.453
 5565POPC   PO410260   5.853  27.586   9.153
 5565POPC   GL110261   5.883  27.571   8.853
 5565POPC   GL210262   5.733  27.543   8.853
 5565POPC   C1A10263   5.917  27.580   8.553
 5565POPC   D2A10264   5.900  27.624   8.253
 5565POPC   C3A10265   5.842  27.628   7.953
 5565POPC   C4A10266   5.842  27.548   7.653
 5565POPC   C1B10267   5.577  27.552   8.553
 5565POPC   C2B10268   5.660  27.568   8.253
 5565POPC   C3B10269   5.660  27.540   7.953
 5565POPC   C4B10270   5.616  27.615   7.653
 5566POPC   NC310271  26.808  16.744   9.453
 5566POPC   PO410272  26.864  16.708   9.153
 5566POPC   GL110273  26.822  16.762   8.853
 5566POPC   GL210274  26.661  16.650   8.853
 5566POPC   C1A10275  26.843  16.742   8.553
 5566POPC   D2A10276  26.795  16.726   8.253
 5566POPC   C3A10277  26.837  16.704   7.953
 5566POPC   C4A10278  26.826  16.708   7.653
 5566POPC   C1B10279  26.598  16.570   8.553
 5566POPC   C2B10280  26.573  16.614   8.253
 5566POPC   C3B10281  26.599  16.565   7.953
 5566POPC   C4B10282  26.569  16.591   7.653
 5567POPC   NC310283   3.506  43.135   9.453
 5567POPC   PO410284   3.520  43.075   9.153
 5567POPC   GL110285   3.505  43.130   8.853
 5567POPC   GL210286   3.498  43.259   8.853
 5567POPC   C1A10287   3.505  43.149   8.553
 5567POPC   D2A10288   3.585  43.149   8.253
 5567POPC   C3A10289   3.573  43.086   7.953
 5567POPC   C4A10290   3.587  43.119   7.653
 5567POPC   C1B10291   3.440  43.299   8.553
 5567POPC   C2B10292   3.451  43.371   8.253
 5567POPC   C3B10293   3.418  43.318   7.953
 5567POPC   C4B10294   3.374  43.299   7.653
 5568POPC   NC310295  12.095  44.710   9.453
 5568POPC   PO410296  12.126  44.626   9.153
 5568POPC   GL110297  12.100  44.621   8.853
 5568POPC   GL210298  12.214  44.559   8.853
 5568POPC   C1A10299  12.085  44.690   8.553
 5568POPC   D2A10300  12.068  44.673   8.253
 5568POPC   C3A10301  12.061  44.670   7.953
 5568POPC   C4A10302  12.100  44.663   7.653
 5568POPC   C1B10303  12.248  44.497   8.553
 5568POPC   C2B10304  12.273  44.500   8.253
 5568POPC   C3B10305  12.253  44.489   7.953
 5568POPC   C4B10306  12.251  44.506   7.653
 5569POPC   NC310307  37.632  22.943   9.453
 5569POPC   PO410308  37.705  22.939   9.153
 5569POPC   GL110309  37.714  22.903   8.853
 5569POPC   GL210310  37.543  23.010   8.853
 5569POPC   C1A10311  37.688  22.925   8.553
 5569POPC   D2A10312  37.700  22.920   8.253
 5569POPC   C3A10313  37.709  22.938   7.953
 5569POPC   C4A10314  37.703  22.975   7.653
 5569POPC   C1B10315  37.485  22.994   8.553
 5569POPC   C2B10316  37.486  22.997   8.253
 5569POPC   C3B10317  37.438  23.015   7.953
 5569POPC   C4B10318  37.464  23.068   7.653
 5570POPC   NC310319  43.838  32.238   9.453
 5570POPC   PO410320  43.923  32.249   9.153
 5570POPC   GL110321  43.840  32.255   8.853
 5570POPC   GL210322  43.900  32.116   8.853
 5570POPC   C1A10323  43.907  32.241   8.553
 5570POPC   D2A10324  43.913  32.223   8.253
 5570POPC   C3A10325  43.929  32.270   7.953
 5570POPC   C4A10326  43.928  32.244   7.653
 5570POPC   C1B10327  43.929  31.970   8.553
 5570POPC   C2B10328  43.973  31.976   8.253
 5570POPC   C3B10329  43.948  32.021   7.953
 5570POPC   C4B10330  43.907  31.990   7.653
 5571POPC   NC310331  34.590   1.189   9.453
 5571POPC   PO410332  34.595   1.197   9.153
 5571POPC   GL110333  34.593   1.216   8.853
 5571POPC   GL210334  34.694   1.291   8.853
 5571POPC   C1A10335  34.582   1.260   8.553
 5571POPC   D2A10336  34.619   1.210   8.253
 5571POPC   C3A10337  34.580   1.230   7.953
 5571POPC   C4A10338  34.608   1.234   7.653
 5571POPC   C1B10339  34.816   1.274   8.553
 5571POPC   C2B10340  34.832   1.295   8.253
 5571POPC   C3B10341  34.777   1.331   7.953
 5571POPC   C4B10342  34.810   1.311   7.653
 5572POPC   NC310343   4.359  15.929   9.453
 5572POPC   PO410344   4.365  15.950   9.153
 5572POPC   GL110345   4.278  16.005   8.853
 5572POPC   GL210346   4.448  16.072   8.853
 5572POPC   C1A10347   4.293  15.951   8.553
 5572POPC   D2A10348   4.284  15.933   8.253
 5572POPC   C3A10349   4.342  15.987   7.953
 5572POPC   C4A10350   4.273  15.965   7.653
 5572POPC   C1B10351   4.509  16.166   8.553
 5572POPC   C2B10352   4.456  16.091   8.253
 5572POPC   C3B10353   4.508  16.104   7.953
 5572POPC   C4B10354   4.522  16.149   7.653
 5573POPC   NC310355   9.781   3.493   9.453
 5573POPC   PO410356   9.699   3.536   9.153
 5573POPC   GL110357   9.715   3.510   8.853
 5573POPC   GL210358   9.644   3.623   8.853
 5573POPC   C1A10359   9.792   3.516   8.553
 5573POPC   D2A10360   9.765   3.557   8.253
 5573POPC   C3A10361   9.743   3.562   7.953
 5573POPC   C4A10362   9.737   3.570   7.653
 5573POPC   C1B10363   9.561   3.734   8.553
 5573POPC   C2B10364   9.607   3.763   8.253
 5573POPC   C3B10365   9.552   3.689   7.953
 5573POPC   C4B10366   9.607   3.757   7.653
 5574POPC   NC310367  12.112  36.935   9.453
 5574POPC   PO410368  12.067  36.894   9.153
 5574POPC   GL110369  12.109  36.865   8.853
 5574POPC   GL210370  12.169  36.837   8.853
 5574POPC   C1A10371  12.068  36.865   8.553
 5574POPC   D2A10372  12.113  36.898   8.253
 5574POPC   C3A10373  12.071  36.930   7.953
 5574POPC   C4A10374  12.060  36.887   7.653
 5574POPC   C1B10375  12.214  36.680   8.553
 5574POPC   C2B10376  12.270  36.761   8.253
 5574POPC   C3B10377  12.275  36.757   7.953
 5574POPC   C4B10378  12.291  36.719   7.653
 5575POPC   NC310379   2.036  29.107   9.453
 5575POPC   PO410380   2.016  29.156   9.153
 5575POPC   GL110381   2.012  29.133   8.853
 5575POPC   GL210382   2.089  29.146   8.853
 5575POPC   C1A10383   2.002  29.130   8.553
 5575POPC   D2A10384   2.037  29.177   8.253
 5575POPC   C3A10385   2.002  29.156   7.953
 5575POPC   C4A10386   1.940  29.149   7.653
 5575POPC   C1B10387   2.189  29.054   8.553
 5575POPC   C2B10388   2.237  29.084   8.253
 5575POPC   C3B10389   2.280  29.125   7.953
 5575POPC   C4B10390   2.263  29.131   7.653
 5576POPC   NC310391  36.877   5.093   9.453
 5576POPC   PO410392  36.927   5.068   9.153
 5576POPC   GL110393  36.856   5.101   8.853
 5576POPC   GL210394  37.043   5.040   8.853
 5576POPC   C1A10395  36.867   5.115   8.553
 5576POPC   D2A10396  36.853   5.129   8.253
 5576POPC   C3A10397  36.896   5.070   7.953
 5576POPC   C4A10398  36.935   5.114   7.653
 5576POPC   C1B10399  37.096   5.039   8.553
 5576POPC   C2B10400  37.182   5.054   8.253
 5576POPC   C3B10401  37.126   5.026   7.953
 5576POPC   C4B10402  37.160   5.036   7.653
 5577POPC   NC310403  39.996   6.609   9.453
 5577POPC   PO410404  40.012   6.603   9.153
 5577POPC   GL110405  40.050   6.651   8.853
 5577POPC   GL210406  39.907   6.735   8.853
 5577POPC   C1A10407  40.009   6.658   8.553
 5577POPC   D2A10408  39.985   6.687   8.253
 5577POPC   C3A10409  40.033   6.634   7.953
 5577POPC   C4A10410  40.015   6.612   7.653
 5577POPC   C1B10411  39.899   6.891   8.553
 5577POPC   C2B10412  39.899   6.902   8.253
 5577POPC   C3B10413  39.848   6.872   7.953
 5577POPC   C4B10414  39.929   6.866   7.653
 5578POPC   NC310415  10.545  36.892   9.453
 5578POPC   PO410416  10.540  36.860   9.153
 5578POPC   GL110417  10.506  36.928   8.853
 5578POPC   GL210418  10.360  36.900   8.853
 5578POPC   C1A10419  10.538  36.938   8.553
 5578POPC   D2A10420  10.528  36.946   8.253
 5578POPC   C3A10421  10.478  36.890   7.953
 5578POPC   C4A10422  10.561  36.855   7.653
 5578POPC   C1B10423  10.323  36.868   8.553
 5578POPC   C2B10424  10.308  36.844   8.253
 5578POPC   C3B10425  10.323  36.853   7.953
 5578POPC   C4B10426  10.231  36.910   7.653
 5579POPC   NC310427  19.870  12.883   9.453
 5579POPC   PO410428  19.872  12.844   9.153
 5579POPC   GL110429  19.856  12.883   8.853
 5579POPC   GL210430  19.775  12.926   8.853
 5579POPC   C1A10431  19.859  12.822   8.553
 5579POPC   D2A10432  19.868  12.807   8.253
 5579POPC   C3A10433  19.834  12.825   7.953
 5579POPC   C4A10434  19.839  12.850   7.653
 5579POPC   C1B10435  19.752  13.097   8.553
 5579POPC   C2B10436  19.717  13.080   8.253
 5579POPC   C3B10437  19.734  13.091   7.953
 5579POPC   C4B10438  19.738  13.035   7.653
 5580POPC   NC310439  18.318  40.819   9.453
 5580POPC   PO410440  18.268  40.760   9.153
 5580POPC   GL110441  18.268  40.818   8.853
 5580POPC   GL210442  18.282  40.672   8.853
 5580POPC   C1A10443  18.236  40.764   8.553
 5580POPC   D2A10444  18.239  40.746   8.253
 5580POPC   C3A10445  18.327  40.820   7.953
 5580POPC   C4A10446  18.295  40.769   7.653
 5580POPC   C1B10447  18.228  40.576   8.553
 5580POPC   C2B10448  18.243  40.549   8.253
 5580POPC   C3B10449  18.225  40.515   7.953
 5580POPC   C4B10450  18.209  40.568   7.653
 5581POPC   NC310451   0.473  12.059   9.453
 5581POPC   PO410452   0.434  12.053   9.153
 5581POPC   GL110453   0.485  12.047   8.853
 5581POPC   GL210454   0.323  12.112   8.853
 5581POPC   C1A10455   0.446  12.124   8.553
 5581POPC   D2A10456   0.488  12.054   8.253
 5581POPC   C3A10457   0.450  12.068   7.953
 5581POPC   C4A10458   0.465  12.081   7.653
 5581POPC   C1B10459   0.138  12.068   8.553
 5581POPC   C2B10460   0.204  12.056   8.253
 5581POPC   C3B10461   0.175  12.041   7.953
 5581POPC   C4B10462   0.149  12.122   7.653
 5582POPC   NC310463  24.518  38.462   9.453
 5582POPC   PO410464  24.440  38.446   9.153
 5582POPC   GL110465  24.519  38.441   8.853
 5582POPC   GL210466  24.431  38.553   8.853
 5582POPC   C1A10467  24.452  38.435   8.553
 5582POPC   D2A10468  24.462  38.439   8.253
 5582POPC   C3A10469  24.504  38.427   7.953
 5582POPC   C4A10470  24.478  38.413   7.653
 5582POPC   C1B10471  24.349  38.590   8.553
 5582POPC   C2B10472  24.283  38.686   8.253
 5582POPC   C3B10473  24.344  38.661   7.953
 5582POPC   C4B10474  24.299  38.623   7.653
 5583POPC   NC310475  16.762   4.301   9.453
 5583POPC   PO410476  16.701   4.281   9.153
 5583POPC   GL110477  16.712   4.360   8.853
 5583POPC   GL210478  16.792   4.458   8.853
 5583POPC   C1A10479  16.739   4.337   8.553
 5583POPC   D2A10480  16.694   4.360   8.253
 5583POPC   C3A10481  16.714   4.308   7.953
 5583POPC   C4A10482  16.699   4.355   7.653
 5583POPC   C1B10483  16.805   4.554   8.553
 5583POPC   C2B10484  16.786   4.594   8.253
 5583POPC   C3B10485  16.813   4.592   7.953
 5583POPC   C4B10486  16.808   4.559   7.653
 5584POPC   NC310487   9.723  44.625   9.453
 5584POPC   PO410488   9.714  44.697   9.153
 5584POPC   GL110489   9.776  44.642   8.853
 5584POPC   GL210490   9.626  44.642   8.853
 5584POPC   C1A10491   9.700  44.643   8.553
 5584POPC   D2A10492   9.739  44.641   8.253
 5584POPC   C3A10493   9.709  44.693   7.953
 5584POPC   C4A10494   9.798  44.675   7.653
 5584POPC   C1B10495   9.496  44.604   8.553
 5584POPC   C2B10496   9.551  44.580   8.253
 5584POPC   C3B10497   9.548  44.597   7.953
 5584POPC   C4B10498   9.515  44.578   7.653
 5585POPC   NC310499  32.257  15.154   9.453
 5585POPC   PO410500  32.211  15.221   9.153
 5585POPC   GL110501  32.208  15.149   8.853
 5585POPC   GL210502  32.398  15.103   8.853
 5585POPC   C1A10503  32.230  15.144   8.553
 5585POPC   D2A10504  32.295  15.192   8.253
 5585POPC   C3A10505  32.200  15.144   7.953
 5585POPC   C4A10506  32.270  15.200   7.653
 5585POPC   C1B10507  32.514  15.110   8.553
 5585POPC   C2B10508  32.525  15.089   8.253
 5585POPC   C3B10509  32.521  15.068   7.953
 5585POPC   C4B10510  32.506  15.086   7.653
 5586POPC   NC310511  25.277  10.477   9.453
 5586POPC   PO410512  25.299  10.553   9.153
 5586POPC   GL110513  25.311  10.567   8.853
 5586POPC   GL210514  25.351  10.444   8.853
 5586POPC   C1A10515  25.222  10.506   8.553
 5586POPC   D2A10516  25.255  10.521   8.253
 5586POPC   C3A10517  25.241  10.512   7.953
 5586POPC   C4A10518  25.293  10.534   7.653
 5586POPC   C1B10519  25.479  10.458   8.553
 5586POPC   C2B10520  25.542  10.455   8.253
 5586POPC   C3B10521  25.471  10.398   7.953
 5586POPC   C4B10522  25.476  10.430   7.653
 5587POPC   NC310523  32.258   2.815   9.453
 5587POPC   PO410524  32.295   2.747   9.153
 5587POPC   GL110525  32.240   2.765   8.853
 5587POPC   GL210526  32.362   2.762   8.853
 5587POPC   C1A10527  32.266   2.775   8.553
 5587POPC   D2A10528  32.288   2.762   8.253
 5587POPC   C3A10529  32.242   2.748   7.953
 5587POPC   C4A10530  32.227   2.749   7.653
 5587POPC   C1B10531  32.518   2.793   8.553
 5587POPC   C2B10532  32.524   2.830   8.253
 5587POPC   C3B10533  32.475   2.825   7.953
 5587POPC   C4B10534  32.531   2.850   7.653
 5588POPC   NC310535  17.485  38.417   9.453
 5588POPC   PO410536  17.499  38.496   9.153
 5588POPC   GL110537  17.466  38.407   8.853
 5588POPC   GL210538  17.411  38.564   8.853
 5588POPC   C1A10539  17.557  38.454   8.553
 5588POPC   D2A10540  17.529  38.501   8.253
 5588POPC   C3A10541  17.555  38.461   7.953
 5588POPC   C4A10542  17.476  38.497   7.653
 5588POPC   C1B10543  17.368  38.688   8.553
 5588POPC   C2B10544  17.363  38.681   8.253
 5588POPC   C3B10545  17.444  38.651   7.953
 5588POPC   C4B10546  17.358  38.630   7.653
 5589POPC   NC310547   7.453  15.927   9.453
 5589POPC   PO410548   7.428  15.985   9.153
 5589POPC   GL110549   7.435  15.950   8.853
 5589POPC   GL210550   7.345  16.033   8.853
 5589POPC   C1A10551   7.448  15.935   8.553
 5589POPC   D2A10552   7.454  15.994   8.253
 5589POPC   C3A10553   7.386  15.946   7.953
 5589POPC   C4A10554   7.384  15.986   7.653
 5589POPC   C1B10555   7.283  16.194   8.553
 5589POPC   C2B10556   7.283  16.147   8.253
 5589POPC   C3B10557   7.352  16.197   7.953
 5589POPC   C4B10558   7.309  16.234   7.653
 5590POPC   NC310559  37.681  43.099   9.453
 5590POPC   PO410560  37.649  43.139   9.153
 5590POPC   GL110561  37.689  43.133   8.853
 5590POPC   GL210562  37.534  43.148   8.853
 5590POPC   C1A10563  37.718  43.104   8.553
 5590POPC   D2A10564  37.638  43.127   8.253
 5590POPC   C3A10565  37.727  43.084   7.953
 5590POPC   C4A10566  37.715  43.076   7.653
 5590POPC   C1B10567  37.458  43.202   8.553
 5590POPC   C2B10568  37.475  43.245   8.253
 5590POPC   C3B10569  37.441  43.238   7.953
 5590POPC   C4B10570  37.508  43.273   7.653
 5591POPC   NC310571   8.955  26.863   9.453
 5591POPC   PO410572   8.927  26.805   9.153
 5591POPC   GL110573   8.977  26.846   8.853
 5591POPC   GL210574   8.935  26.901   8.853
 5591POPC   C1A10575   8.939  26.841   8.553
 5591POPC   D2A10576   8.947  26.800   8.253
 5591POPC   C3A10577   8.937  26.806   7.953
 5591POPC   C4A10578   9.013  26.832   7.653
 5591POPC   C1B10579   8.890  27.104   8.553
 5591POPC   C2B10580   8.886  27.059   8.253
 5591POPC   C3B10581   8.886  27.027   7.953
 5591POPC   C4B10582   8.966  27.018   7.653
 5592POPC   NC310583  22.152  18.287   9.453
 5592POPC   PO410584  22.120  18.236   9.153
 5592POPC   GL110585  22.149  18.308   8.853
 5592POPC   GL210586  22.202  18.430   8.853
 5592POPC   C1A10587  22.199  18.274   8.553
 5592POPC   D2A10588  22.136  18.245   8.253
 5592POPC   C3A10589  22.118  18.246   7.953
 5592POPC   C4A10590  22.188  18.278   7.653
 5592POPC   C1B10591  22.163  18.511   8.553
 5592POPC   C2B10592  22.116  18.531   8.253
 5592POPC   C3B10593  22.178  18.483   7.953
 5592POPC   C4B10594  22.119  18.492   7.653
 5593POPC   NC310595  41.512  29.881   9.453
 5593POPC   PO410596  41.536  29.899   9.153
 5593POPC   GL110597  41.559  29.894   8.853
 5593POPC   GL210598  41.603  30.023   8.853
 5593POPC   C1A10599  41.590  29.923   8.553
 5593POPC   D2A10600  41.541  29.948   8.253
 5593POPC   C3A10601  41.515  29.871   7.953
 5593POPC   C4A10602  41.549  29.952   7.653
 5593POPC   C1B10603  41.598  30.131   8.553
 5593POPC   C2B10604  41.659  30.173   8.253
 5593POPC   C3B10605  41.597  30.186   7.953
 5593POPC   C4B10606  41.615  30.206   7.653
 5594POPC   NC310607  13.665   7.470   9.453
 5594POPC   PO410608  13.631   7.374   9.153
 5594POPC   GL110609  13.601   7.414   8.853
 5594POPC   GL210610  13.614   7.336   8.853
 5594POPC   C1A10611  13.645   7.438   8.553
 5594POPC   D2A10612  13.649   7.425   8.253
 5594POPC   C3A10613  13.603   7.381   7.953
 5594POPC   C4A10614  13.652   7.465   7.653
 5594POPC   C1B10615  13.546   7.143   8.553
 5594POPC   C2B10616  13.570   7.192   8.253
 5594POPC   C3B10617  13.534   7.217   7.953
 5594POPC   C4B10618  13.514   7.234   7.653
 5595POPC   NC310619  33.752   0.406   9.453
 5595POPC   PO410620  33.784   0.440   9.153
 5595POPC   GL110621  33.836   0.396   8.853
 5595POPC   GL210622  33.772   0.505   8.853
 5595POPC   C1A10623  33.796   0.395   8.553
 5595POPC   D2A10624  33.798   0.449   8.253
 5595POPC   C3A10625  33.845   0.439   7.953
 5595POPC   C4A10626  33.804   0.481   7.653
 5595POPC   C1B10627  33.695   0.663   8.553
 5595POPC   C2B10628  33.672   0.679   8.253
 5595POPC   C3B10629  33.722   0.638   7.953
 5595POPC   C4B10630  33.722   0.612   7.653
 5596POPC   NC310631   7.417  29.164   9.453
 5596POPC   PO410632   7.458  29.184   9.153
 5596POPC   GL110633   7.460  29.135   8.853
 5596POPC   GL210634   7.578  29.229   8.853
 5596POPC   C1A10635   7.373  29.166   8.553
 5596POPC   D2A10636   7.445  29.111   8.253
 5596POPC   C3A10637   7.426  29.108   7.953
 5596POPC   C4A10638   7.398  29.179   7.653
 5596POPC   C1B10639   7.628  29.254   8.553
 5596POPC   C2B10640   7.657  29.254   8.253
 5596POPC   C3B10641   7.654  29.249   7.953
 5596POPC   C4B10642   7.593  29.261   7.653
 5597POPC   NC310643  10.510  22.888   9.453
 5597POPC   PO410644  10.522  22.938   9.153
 5597POPC   GL110645  10.482  22.958   8.853
 5597POPC   GL210646  10.631  22.875   8.853
 5597POPC   C1A10647  10.530  22.915   8.553
 5597POPC   D2A10648  10.571  22.927   8.253
 5597POPC   C3A10649  10.538  22.974   7.953
 5597POPC   C4A10650  10.476  22.891   7.653
 5597POPC   C1B10651  10.749  22.787   8.553
 5597POPC   C2B10652  10.736  22.864   8.253
 5597POPC   C3B10653  10.721  22.841   7.953
 5597POPC   C4B10654  10.753  22.793   7.653
 5598POPC   NC310655  38.452  31.458   9.453
 5598POPC   PO410656  38.421  31.491   9.153
 5598POPC   GL110657  38.443  31.513   8.853
 5598POPC   GL210658  38.567  31.591   8.853
 5598POPC   C1A10659  38.441  31.428   8.553
 5598POPC   D2A10660  38.453  31.457   8.253
 5598POPC   C3A10661  38.445  31.440   7.953
 5598POPC   C4A10662  38.419  31.505   7.653
 5598POPC   C1B10663  38.650  31.582   8.553
 5598POPC   C2B10664  38.653  31.609   8.253
 5598POPC   C3B10665  38.683  31.581   7.953
 5598POPC   C4B10666  38.639  31.564   7.653
 5599POPC   NC310667  35.344  34.561   9.453
 5599POPC   PO410668  35.358  34.570   9.153
 5599POPC   GL110669  35.310  34.570   8.853
 5599POPC   GL210670  35.432  34.646   8.853
 5599POPC   C1A10671  35.386  34.580   8.553
 5599POPC   D2A10672  35.357  34.580   8.253
 5599POPC   C3A10673  35.317  34.548   7.953
 5599POPC   C4A10674  35.346  34.624   7.653
 5599POPC   C1B10675  35.524  34.774   8.553
 5599POPC   C2B10676  35.562  34.772   8.253
 5599POPC   C3B10677  35.503  34.762   7.953
 5599POPC   C4B10678  35.596  34.699   7.653
 5600POPC   NC310679  39.989   1.184   9.453
 5600POPC   PO410680  40.020   1.233   9.153
 5600POPC   GL110681  40.020   1.171   8.853
 5600POPC   GL210682  40.089   1.281   8.853
 5600POPC   C1A10683  40.036   1.166   8.553
 5600POPC   D2A10684  40.045   1.170   8.253
 5600POPC   C3A10685  40.046   1.180   7.953
 5600POPC   C4A10686  40.025   1.225   7.653
 5600POPC   C1B10687  40.101   1.478   8.553
 5600POPC   C2B10688  40.168   1.428   8.253
 5600POPC   C3B10689  40.155   1.469   7.953
 5600POPC   C4B10690  40.156   1.427   7.653
 5601POPC   NC310691  26.863  38.461   9.453
 5601POPC   PO410692  26.810  38.476   9.153
 5601POPC   GL110693  26.862  38.496   8.853
 5601POPC   GL210694  26.774  38.320   8.853
 5601POPC   C1A10695  26.770  38.483   8.553
 5601POPC   D2A10696  26.805  38.478   8.253
 5601POPC   C3A10697  26.809  38.420   7.953
 5601POPC   C4A10698  26.770  38.445   7.653
 5601POPC   C1B10699  26.673  38.271   8.553
 5601POPC   C2B10700  26.704  38.285   8.253
 5601POPC   C3B10701  26.653  38.233   7.953
 5601POPC   C4B10702  26.721  38.229   7.653
 5602POPC   NC310703  15.213  34.576   9.453
 5602POPC   PO410704  15.185  34.592   9.153
 5602POPC   GL110705  15.152  34.570   8.853
 5602POPC   GL210706  15.278  34.461   8.853
 5602POPC   C1A10707  15.137  34.599   8.553
 5602POPC   D2A10708  15.226  34.614   8.253
 5602POPC   C3A10709  15.195  34.534   7.953
 5602POPC   C4A10710  15.168  34.589   7.653
 5602POPC   C1B10711  15.424  34.401   8.553
 5602POPC   C2B10712  15.417  34.430   8.253
 5602POPC   C3B10713  15.376  34.410   7.953
 5602POPC   C4B10714  15.355  34.427   7.653
 5603POPC   NC310715   6.682  23.685   9.453
 5603POPC   PO410716   6.628  23.675   9.153
 5603POPC   GL110717   6.600  23.710   8.853
 5603POPC   GL210718   6.505  23.649   8.853
 5603POPC   C1A10719   6.599  23.716   8.553
 5603POPC   D2A10720   6.631  23.685   8.253
 5603POPC   C3A10721   6.665  23.719   7.953
 5603POPC   C4A10722   6.631  23.746   7.653
 5603POPC   C1B10723   6.396  23.643   8.553
 5603POPC   C2B10724   6.383  23.667   8.253
 5603POPC   C3B10725   6.428  23.622   7.953
 5603POPC   C4B10726   6.411  23.630   7.653
 5604POPC   NC310727  43.849  13.628   9.453
 5604POPC   PO410728  43.838  13.658   9.153
 5604POPC   GL110729  43.852  13.628   8.853
 5604POPC   GL210730  43.977  13.702   8.853
 5604POPC   C1A10731  43.910  13.603   8.553
 5604POPC   D2A10732  43.855  13.601   8.253
 5604POPC   C3A10733  43.854  13.581   7.953
 5604POPC   C4A10734  43.928  13.605   7.653
 5604POPC   C1B10735  44.105  13.836   8.553
 5604POPC   C2B10736  44.095  13.830   8.253
 5604POPC   C3B10737  44.061  13.808   7.953
 5604POPC   C4B10738  44.093  13.786   7.653
 5605POPC   NC310739  29.887  29.109   9.453
 5605POPC   PO410740  29.909  29.163   9.153
 5605POPC   GL110741  29.921  29.111   8.853
 5605POPC   GL210742  30.080  29.088   8.853
 5605POPC   C1A10743  29.951  29.189   8.553
 5605POPC   D2A10744  29.938  29.123   8.253
 5605POPC   C3A10745  29.941  29.149   7.953
 5605POPC   C4A10746  29.905  29.165   7.653
 5605POPC   C1B10747  30.212  29.132   8.553
 5605POPC   C2B10748  30.196  29.114   8.253
 5605POPC   C3B10749  30.170  29.113   7.953
 5605POPC   C4B10750  30.205  29.105   7.653
 5606POPC   NC310751  41.539  44.683   9.453
 5606POPC   PO410752  41.525  44.674   9.153
 5606POPC   GL110753  41.584  44.643   8.853
 5606POPC   GL210754  41.637  44.582   8.853
 5606POPC   C1A10755  41.537  44.664   8.553
 5606POPC   D2A10756  41.542  44.624   8.253
 5606POPC   C3A10757  41.528  44.619   7.953
 5606POPC   C4A10758  41.579  44.650   7.653
 5606POPC   C1B10759  41.830  44.605   8.553
 5606POPC   C2B10760  41.801  44.548   8.253
 5606POPC   C3B10761  41.781  44.611   7.953
 5606POPC   C4B10762  41.806  44.582   7.653
 5607POPC   NC310763  29.194  44.701   9.453
 5607POPC   PO410764  29.193  44.675   9.153
 5607POPC   GL110765  29.186  44.710   8.853
 5607POPC   GL210766  29.231  44.678   8.853
 5607POPC   C1A10767  29.173  44.626   8.553
 5607POPC   D2A10768  29.142  44.612   8.253
 5607POPC   C3A10769  29.161  44.685   7.953
 5607POPC   C4A10770  29.123  44.648   7.653
 5607POPC   C1B10771  29.425  44.771   8.553
 5607POPC   C2B10772  29.422  44.692   8.253
 5607POPC   C3B10773  29.345  44.762   7.953
 5607POPC   C4B10774  29.354  44.749   7.653
 5608POPC   NC310775  22.891  12.089   9.453
 5608POPC   PO410776  22.905  12.066   9.153
 5608POPC   GL110777  22.985  12.111   8.853
 5608POPC   GL210778  23.073  12.134   8.853
 5608POPC   C1A10779  22.967  12.084   8.553
 5608POPC   D2A10780  22.901  12.086   8.253
 5608POPC   C3A10781  22.936  12.075   7.953
 5608POPC   C4A10782  22.919  12.051   7.653
 5608POPC   C1B10783  23.165  12.088   8.553
 5608POPC   C2B10784  23.161  12.118   8.253
 5608POPC   C3B10785  23.207  12.128   7.953
 5608POPC   C4B10786  23.192  12.066   7.653
 5609POPC   NC310787   0.465  41.527   9.453
 5609POPC   PO410788   0.473  41.543   9.153
 5609POPC   GL110789   0.474  41.531   8.853
 5609POPC   GL210790   0.532  41.609   8.853
 5609POPC   C1A10791   0.412  41.608   8.553
 5609POPC   D2A10792   0.470  41.533   8.253
 5609POPC   C3A10793   0.405  41.527   7.953
 5609POPC   C4A10794   0.421  41.570   7.653
 5609POPC   C1B10795   0.592  41.694   8.553
 5609POPC   C2B10796   0.648  41.758   8.253
 5609POPC   C3B10797   0.625  41.752   7.953
 5609POPC   C4B10798   0.656  41.750   7.653
 5610POPC   NC310799  22.182  15.979   9.453
 5610POPC   PO410800  22.191  15.962   9.153
 5610POPC   GL110801  22.208  16.000   8.853
 5610POPC   GL210802  22.030  15.986   8.853
 5610POPC   C1A10803  22.211  15.969   8.553
 5610POPC   D2A10804  22.133  15.937   8.253
 5610POPC   C3A10805  22.175  15.971   7.953
 5610POPC   C4A10806  22.208  15.923   7.653
 5610POPC   C1B10807  21.887  15.966   8.553
 5610POPC   C2B10808  21.918  15.909   8.253
 5610POPC   C3B10809  21.921  15.897   7.953
 5610POPC   C4B10810  21.943  15.926   7.653
 5611POPC   NC310811  19.831  19.795   9.453
 5611POPC   PO410812  19.786  19.816   9.153
 5611POPC   GL110813  19.793  19.847   8.853
 5611POPC   GL210814  19.886  19.925   8.853
 5611POPC   C1A10815  19.882  19.867   8.553
 5611POPC   D2A10816  19.829  19.806   8.253
 5611POPC   C3A10817  19.867  19.864   7.953
 5611POPC   C4A10818  19.856  19.831   7.653
 5611POPC   C1B10819  19.879  20.053   8.553
 5611POPC   C2B10820  19.874  20.069   8.253
 5611POPC   C3B10821  19.859  20.075   7.953
 5611POPC   C4B10822  19.879  20.087   7.653
 5612POPC   NC310823  14.413  22.891   9.453
 5612POPC   PO410824  14.394  22.949   9.153
 5612POPC   GL110825  14.372  22.963   8.853
 5612POPC   GL210826  14.489  22.997   8.853
 5612POPC   C1A10827  14.378  22.946   8.553
 5612POPC   D2A10828  14.388  22.931   8.253
 5612POPC   C3A10829  14.394  22.965   7.953
 5612POPC   C4A10830  14.384  22.898   7.653
 5612POPC   C1B10831  14.580  23.121   8.553
 5612POPC   C2B10832  14.494  23.122   8.253
 5612POPC   C3B10833  14.509  23.196   7.953
 5612POPC   C4B10834  14.582  23.148   7.653
 5613POPC   NC310835  41.522   3.539   9.453
 5613POPC   PO410836  41.573   3.589   9.153
 5613POPC   GL110837  41.523   3.561   8.853
 5613POPC   GL210838  41.496   3.618   8.853
 5613POPC   C1A10839  41.608   3.532   8.553
 5613POPC   D2A10840  41.518   3.535   8.253
 5613POPC   C3A10841  41.559   3.585   7.953
 5613POPC   C4A10842  41.535   3.566   7.653
 5613POPC   C1B10843  41.490   3.747   8.553
 5613POPC   C2B10844  41.506   3.745   8.253
 5613POPC   C3B10845  41.474   3.766   7.953
 5613POPC   C4B10846  41.539   3.773   7.653
 5614POPC   NC310847  36.127  20.621   9.453
 5614POPC   PO410848  36.174  20.609   9.153
 5614POPC   GL110849  36.133  20.643   8.853
 5614POPC   GL210850  36.294  20.535   8.853
 5614POPC   C1A10851  36.106  20.582   8.553
 5614POPC   D2A10852  36.106  20.648   8.253
 5614POPC   C3A10853  36.086  20.582   7.953
 5614POPC   C4A10854  36.126  20.647   7.653
 5614POPC   C1B10855  36.322  20.578   8.553
 5614POPC   C2B10856  36.402  20.518   8.253
 5614POPC   C3B10857  36.381  20.499   7.953
 5614POPC   C4B10858  36.329  20.549   7.653
 5615POPC   NC310859  12.887  29.128   9.453
 5615POPC   PO410860  12.814  29.188   9.153
 5615POPC   GL110861  12.874  29.159   8.853
 5615POPC   GL210862  12.970  29.158   8.853
 5615POPC   C1A10863  12.866  29.191   8.553
 5615POPC   D2A10864  12.881  29.168   8.253
 5615POPC   C3A10865  12.815  29.185   7.953
 5615POPC   C4A10866  12.824  29.130   7.653
 5615POPC   C1B10867  13.052  29.109   8.553
 5615POPC   C2B10868  13.124  29.114   8.253
 5615POPC   C3B10869  13.144  29.136   7.953
 5615POPC   C4B10870  13.072  29.110   7.653
 5616POPC   NC310871  42.355   9.777   9.453
 5616POPC   PO410872  42.316   9.735   9.153
 5616POPC   GL110873  42.350   9.726   8.853
 5616POPC   GL210874  42.384   9.704   8.853
 5616POPC   C1A10875  42.326   9.780   8.553
 5616POPC   D2A10876  42.344   9.719   8.253
 5616POPC   C3A10877  42.317   9.767   7.953
 5616POPC   C4A10878  42.354   9.758   7.653
 5616POPC   C1B10879  42.510   9.559   8.553
 5616POPC   C2B10880  42.500   9.560   8.253
 5616POPC   C3B10881  42.518   9.593   7.953
 5616POPC   C4B10882  42.532   9.561   7.653
 5617POPC   NC310883  36.940  29.105   9.453
 5617POPC   PO410884  36.894  29.180   9.153
 5617POPC   GL110885  36.947  29.097   8.853
 5617POPC   GL210886  36.982  29.212   8.853
 5617POPC   C1A10887  36.949  29.157   8.553
 5617POPC   D2A10888  36.903  29.127   8.253
 5617POPC   C3A10889  36.890  29.191   7.953
 5617POPC   C4A10890  36.920  29.142   7.653
 5617POPC   C1B10891  37.093  29.288   8.553
 5617POPC   C2B10892  37.131  29.265   8.253
 5617POPC   C3B10893  37.131  29.270   7.953
 5617POPC   C4B10894  37.125  29.256   7.653
 5618POPC   NC310895  22.174  40.033   9.453
 5618POPC   PO410896  22.199  39.971   9.153
 5618POPC   GL110897  22.138  39.992   8.853
 5618POPC   GL210898  22.298  40.094   8.853
 5618POPC   C1A10899  22.177  39.972   8.553
 5618POPC   D2A10900  22.191  39.958   8.253
 5618POPC   C3A10901  22.192  40.038   7.953
 5618POPC   C4A10902  22.117  40.051   7.653
 5618POPC   C1B10903  22.394  40.099   8.553
 5618POPC   C2B10904  22.414  40.073   8.253
 5618POPC   C3B10905  22.354  40.118   7.953
 5618POPC   C4B10906  22.441  40.145   7.653
 5619POPC   NC310907   3.569  32.264   9.453
 5619POPC   PO410908   3.587  32.280   9.153
 5619POPC   GL110909   3.517  32.271   8.853
 5619POPC   GL210910   3.475  32.343   8.853
 5619POPC   C1A10911   3.543  32.206   8.553
 5619POPC   D2A10912   3.555  32.233   8.253
 5619POPC   C3A10913   3.502  32.256   7.953
 5619POPC   C4A10914   3.550  32.220   7.653
 5619POPC   C1B10915   3.311  32.303   8.553
 5619POPC   C2B10916   3.274  32.345   8.253
 5619POPC   C3B10917   3.341  32.368   7.953
 5619POPC   C4B10918   3.327  32.308   7.653
 5620POPC   NC310919   2.778  40.735   9.453
 5620POPC   PO410920   2.762  40.794   9.153
 5620POPC   GL110921   2.798  40.820   8.853
 5620POPC   GL210922   2.603  40.785   8.853
 5620POPC   C1A10923   2.761  40.833   8.553
 5620POPC   D2A10924   2.763  40.793   8.253
 5620POPC   C3A10925   2.795  40.781   7.953
 5620POPC   C4A10926   2.735  40.759   7.653
 5620POPC   C1B10927   2.520  40.896   8.553
 5620POPC   C2B10928   2.513  40.858   8.253
 5620POPC   C3B10929   2.521  40.829   7.953
 5620POPC   C4B10930   2.546  40.877   7.653
 5621POPC   NC310931  19.786  26.085   9.453
 5621POPC   PO410932  19.840  26.018   9.153
 5621POPC   GL110933  19.790  25.999   8.853
 5621POPC   GL210934  19.768  25.895   8.853
 5621POPC   C1A10935  19.786  26.006   8.553
 5621POPC   D2A10936  19.854  25.996   8.253
 5621POPC   C3A10937  19.827  26.078   7.953
 5621POPC   C4A10938  19.865  26.064   7.653
 5621POPC   C1B10939  19.705  25.844   8.553
 5621POPC   C2B10940  19.718  25.828   8.253
 5621POPC   C3B10941  19.755  25.854   7.953
 5621POPC   C4B10942  19.739  25.818   7.653
 5622POPC   NC310943  32.998  43.897   9.453
 5622POPC   PO410944  32.984  43.863   9.153
 5622POPC   GL110945  33.009  43.861   8.853
 5622POPC   GL210946  32.971  43.968   8.853
 5622POPC   C1A10947  33.063  43.891   8.553
 5622POPC   D2A10948  33.043  43.862   8.253
 5622POPC   C3A10949  33.016  43.921   7.953
 5622POPC   C4A10950  32.978  43.872   7.653
 5622POPC   C1B10951  32.950  44.107   8.553
 5622POPC   C2B10952  32.974  44.086   8.253
 5622POPC   C3B10953  32.990  44.170   7.953
 5622POPC   C4B10954  32.983  44.119   7.653
 5623POPC   NC310955   5.901  23.753   9.453
 5623POPC   PO410956   5.907  23.690   9.153
 5623POPC   GL110957   5.882  23.729   8.853
 5623POPC   GL210958   5.759  23.675   8.853
 5623POPC   C1A10959   5.834  23.671   8.553
 5623POPC   D2A10960   5.892  23.725   8.253
 5623POPC   C3A10961   5.915  23.666   7.953
 5623POPC   C4A10962   5.870  23.758   7.653
 5623POPC   C1B10963   5.646  23.553   8.553
 5623POPC   C2B10964   5.682  23.488   8.253
 5623POPC   C3B10965   5.716  23.560   7.953
 5623POPC   C4B10966   5.717  23.496   7.653
 5624POPC   NC310967  35.376  29.907   9.453
 5624POPC   PO410968  35.322  29.918   9.153
 5624POPC   GL110969  35.327  29.918   8.853
 5624POPC   GL210970  35.437  29.876   8.853
 5624POPC   C1A10971  35.326  29.963   8.553
 5624POPC   D2A10972  35.327  29.914   8.253
 5624POPC   C3A10973  35.304  29.969   7.953
 5624POPC   C4A10974  35.336  29.934   7.653
 5624POPC   C1B10975  35.585  29.795   8.553
 5624POPC   C2B10976  35.558  29.793   8.253
 5624POPC   C3B10977  35.607  29.801   7.953
 5624POPC   C4B10978  35.570  29.768   7.653
 5625POPC   NC310979  15.214  27.605   9.453
 5625POPC   PO410980  15.176  27.618   9.153
 5625POPC   GL110981  15.176  27.567   8.853
 5625POPC   GL210982  15.233  27.716   8.853
 5625POPC   C1A10983  15.180  27.550   8.553
 5625POPC   D2A10984  15.141  27.588   8.253
 5625POPC   C3A10985  15.214  27.622   7.953
 5625POPC   C4A10986  15.177  27.632   7.653
 5625POPC   C1B10987  15.293  27.842   8.553
 5625POPC   C2B10988  15.310  27.805   8.253
 5625POPC   C3B10989  15.240  27.849   7.953
 5625POPC   C4B10990  15.315  27.812   7.653
 5626POPC   NC310991  18.292  40.028   9.453
 5626POPC   PO410992  18.316  40.021   9.153
 5626POPC   GL110993  18.237  39.985   8.853
 5626POPC   GL210994  18.372  40.003   8.853
 5626POPC   C1A10995  18.329  39.997   8.553
 5626POPC   D2A10996  18.328  39.973   8.253
 5626POPC   C3A10997  18.266  40.039   7.953
 5626POPC   C4A10998  18.332  40.025   7.653
 5626POPC   C1B10999  18.575  40.006   8.553
 5626POPC   C2B11000  18.521  39.966   8.253
 5626POPC   C3B11001  18.485  40.018   7.953
 5626POPC   C4B11002  18.503  39.989   7.653
 5627POPC   NC311003  22.977  14.395   9.453
 5627POPC   PO411004  22.978  14.442   9.153
 5627POPC   GL111005  22.890  14.365   8.853
 5627POPC   GL211006  22.933  14.232   8.853
 5627POPC   C1A11007  22.901  14.445   8.553
 5627POPC   D2A11008  22.985  14.435   8.253
 5627POPC   C3A11009  22.949  14.384   7.953
 5627POPC   C4A11010  22.944  14.452   7.653
 5627POPC   C1B11011  22.876  14.164   8.553
 5627POPC   C2B11012  22.919  14.139   8.253
 5627POPC   C3B11013  22.930  14.186   7.953
 5627POPC   C4B11014  22.913  14.111   7.653
 5628POPC   NC311015  18.249  29.954   9.453
 5628POPC   PO411016  18.249  29.901   9.153
 5628POPC   GL111017  18.332  29.906   8.853
 5628POPC   GL211018  18.223  29.763   8.853
 5628POPC   C1A11019  18.300  29.966   8.553
 5628POPC   D2A11020  18.321  29.873   8.253
 5628POPC   C3A11021  18.283  29.938   7.953
 5628POPC   C4A11022  18.303  29.934   7.653
 5628POPC   C1B11023  18.200  29.691   8.553
 5628POPC   C2B11024  18.250  29.669   8.253
 5628POPC   C3B11025  18.190  29.643   7.953
 5628POPC   C4B11026  18.242  29.688   7.653
 5629POPC   NC311027   9.774  39.988   9.453
 5629POPC   PO411028   9.722  40.033   9.153
 5629POPC   GL111029   9.763  39.972   8.853
 5629POPC   GL211030   9.601  39.956   8.853
 5629POPC   C1A11031   9.758  39.962   8.553
 5629POPC   D2A11032   9.774  40.056   8.253
 5629POPC   C3A11033   9.750  39.973   7.953
 5629POPC   C4A11034   9.757  40.001   7.653
 5629POPC   C1B11035   9.462  39.987   8.553
 5629POPC   C2B11036   9.506  39.965   8.253
 5629POPC   C3B11037   9.482  39.932   7.953
 5629POPC   C4B11038   9.463  39.980   7.653
 5630POPC   NC311039   1.202  43.892   9.453
 5630POPC   PO411040   1.227  43.862   9.153
 5630POPC   GL111041   1.229  43.912   8.853
 5630POPC   GL211042   1.301  43.803   8.853
 5630POPC   C1A11043   1.211  43.849   8.553
 5630POPC   D2A11044   1.172  43.861   8.253
 5630POPC   C3A11045   1.257  43.853   7.953
 5630POPC   C4A11046   1.263  43.932   7.653
 5630POPC   C1B11047   1.349  43.739   8.553
 5630POPC   C2B11048   1.354  43.755   8.253
 5630POPC   C3B11049   1.360  43.666   7.953
 5630POPC   C4B11050   1.396  43.715   7.653
 5631POPC   NC311051  26.802  12.026   9.453
 5631POPC   PO411052  26.786  12.065   9.153
 5631POPC   GL111053  26.864  12.042   8.853
 5631POPC   GL211054  26.906  12.138   8.853
 5631POPC   C1A11055  26.848  12.111   8.553
 5631POPC   D2A11056  26.835  12.035   8.253
 5631POPC   C3A11057  26.798  12.051   7.953
 5631POPC   C4A11058  26.796  12.066   7.653
 5631POPC   C1B11059  27.005  12.219   8.553
 5631POPC   C2B11060  26.967  12.282   8.253
 5631POPC   C3B11061  26.986  12.260   7.953
 5631POPC   C4B11062  27.043  12.194   7.653
 5632POPC   NC311063  18.316   5.856   9.453
 5632POPC   PO411064  18.254   5.902   9.153
 5632POPC   GL111065  18.313   5.831   8.853
 5632POPC   GL211066  18.274   5.772   8.853
 5632POPC   C1A11067  18.286   5.869   8.553
 5632POPC   D2A11068  18.284   5.882   8.253
 5632POPC   C3A11069  18.286   5.832   7.953
 5632POPC   C4A11070  18.268   5.850   7.653
 5632POPC   C1B11071  18.183   5.607   8.553
 5632POPC   C2B11072  18.134   5.650   8.253
 5632POPC   C3B11073  18.154   5.605   7.953
 5632POPC   C4B11074  18.135   5.646   7.653
 5633POPC   NC311075  26.821  26.785   9.453
 5633POPC   PO411076  26.822  26.808   9.153
 5633POPC   GL111077  26.791  26.849   8.853
 5633POPC   GL211078  26.690  26.926   8.853
 5633POPC   C1A11079  26.768  26.859   8.553
 5633POPC   D2A11080  26.788  26.791   8.253
 5633POPC   C3A11081  26.851  26.821   7.953
 5633POPC   C4A11082  26.858  26.819   7.653
 5633POPC   C1B11083  26.615  26.932   8.553
 5633POPC   C2B11084  26.576  27.011   8.253
 5633POPC   C3B11085  26.576  26.950   7.953
 5633POPC   C4B11086  26.654  26.960   7.653
 5634POPC   NC311087  36.951  36.154   9.453
 5634POPC   PO411088  36.883  36.133   9.153
 5634POPC   GL111089  36.929  36.132   8.853
 5634POPC   GL211090  36.920  35.996   8.853
 5634POPC   C1A11091  36.911  36.152   8.553
 5634POPC   D2A11092  36.898  36.159   8.253
 5634POPC   C3A11093  36.922  36.109   7.953
 5634POPC   C4A11094  36.865  36.163   7.653
 5634POPC   C1B11095  36.869  35.913   8.553
 5634POPC   C2B11096  36.915  35.873   8.253
 5634POPC   C3B11097  36.892  35.892   7.953
 5634POPC   C4B11098  36.816  35.926   7.653
 5635POPC   NC311099  44.625  28.367   9.453
 5635POPC   PO411100  44.629  28.377   9.153
 5635POPC   GL111101  44.623  28.383   8.853
 5635POPC   GL211102  44.588  28.370   8.853
 5635POPC   C1A11103  44.653  28.360   8.553
 5635POPC   D2A11104  44.694  28.417   8.253
 5635POPC   C3A11105  44.706  28.333   7.953
 5635POPC   C4A11106  44.647  28.323   7.653
 5635POPC   C1B11107  44.414  28.429   8.553
 5635POPC   C2B11108  44.378  28.391   8.253
 5635POPC   C3B11109  44.385  28.385   7.953
 5635POPC   C4B11110  44.382  28.370   7.653
 5636POPC   NC311111  36.101  15.182   9.453
 5636POPC   PO411112  36.112  15.206   9.153
 5636POPC   GL111113  36.103  15.178   8.853
 5636POPC   GL211114  36.074  15.092   8.853
 5636POPC   C1A11115  36.108  15.193   8.553
 5636POPC   D2A11116  36.153  15.194   8.253
 5636POPC   C3A11117  36.148  15.172   7.953
 5636POPC   C4A11118  36.149  15.165   7.653
 5636POPC   C1B11119  35.902  14.967   8.553
 5636POPC   C2B11120  35.893  15.005   8.253
 5636POPC   C3B11121  35.930  14.980   7.953
 5636POPC   C4B11122  35.947  14.993   7.653
 5637POPC   NC311123  40.046   5.141   9.453
 5637POPC   PO411124  40.020   5.073   9.153
 5637POPC   GL111125  40.044   5.134   8.853
 5637POPC   GL211126  40.046   5.239   8.853
 5637POPC   C1A11127  39.981   5.126   8.553
 5637POPC   D2A11128  40.035   5.137   8.253
 5637POPC   C3A11129  39.978   5.085   7.953
 5637POPC   C4A11130  40.035   5.076   7.653
 5637POPC   C1B11131  40.059   5.381   8.553
 5637POPC   C2B11132  40.004   5.388   8.253
 5637POPC   C3B11133  40.053   5.392   7.953
 5637POPC   C4B11134  39.987   5.327   7.653
 5638POPC   NC311135  15.972  15.930   9.453
 5638POPC   PO411136  15.922  15.911   9.153
 5638POPC   GL111137  15.920  15.991   8.853
 5638POPC   GL211138  16.037  16.078   8.853
 5638POPC   C1A11139  15.966  15.926   8.553
 5638POPC   D2A11140  15.944  15.911   8.253
 5638POPC   C3A11141  15.909  15.936   7.953
 5638POPC   C4A11142  15.947  15.956   7.653
 5638POPC   C1B11143  16.067  16.164   8.553
 5638POPC   C2B11144  16.115  16.191   8.253
 5638POPC   C3B11145  16.071  16.131   7.953
 5638POPC   C4B11146  16.027  16.150   7.653
 5639POPC   NC311147  42.379  22.901   9.453
 5639POPC   PO411148  42.377  22.955   9.153
 5639POPC   GL111149  42.380  22.889   8.853
 5639POPC   GL211150  42.458  22.980   8.853
 5639POPC   C1A11151  42.369  22.919   8.553
 5639POPC   D2A11152  42.381  22.946   8.253
 5639POPC   C3A11153  42.304  22.905   7.953
 5639POPC   C4A11154  42.285  22.930   7.653
 5639POPC   C1B11155  42.606  23.064   8.553
 5639POPC   C2B11156  42.553  23.001   8.253
 5639POPC   C3B11157  42.543  23.070   7.953
 5639POPC   C4B11158  42.558  23.045   7.653
 5640POPC   NC311159  25.315  13.617   9.453
 5640POPC   PO411160  25.292  13.640   9.153
 5640POPC   GL111161  25.294  13.593   8.853
 5640POPC   GL211162  25.346  13.646   8.853
 5640POPC   C1A11163  25.268  13.661   8.553
 5640POPC   D2A11164  25.302  13.609   8.253
 5640POPC   C3A11165  25.230  13.587   7.953
 5640POPC   C4A11166  25.287  13.618   7.653
 5640POPC   C1B11167  25.532  13.539   8.553
 5640POPC   C2B11168  25.503  13.539   8.253
 5640POPC   C3B11169  25.466  13.547   7.953
 5640POPC   C4B11170  25.527  13.626   7.653
 5641POPC   NC311171  14.431  30.687   9.453
 5641POPC   PO411172  14.379  30.690   9.153
 5641POPC   GL111173  14.385  30.680   8.853
 5641POPC   GL211174  14.325  30.670   8.853
 5641POPC   C1A11175  14.362  30.666   8.553
 5641POPC   D2A11176  14.357  30.705   8.253
 5641POPC   C3A11177  14.383  30.668   7.953
 5641POPC   C4A11178  14.378  30.713   7.653
 5641POPC   C1B11179  14.115  30.756   8.553
 5641POPC   C2B11180  14.179  30.718   8.253
 5641POPC   C3B11181  14.140  30.776   7.953
 5641POPC   C4B11182  14.112  30.729   7.653
 5642POPC   NC311183  40.777   5.088   9.453
 5642POPC   PO411184  40.789   5.090   9.153
 5642POPC   GL111185  40.736   5.089   8.853
 5642POPC   GL211186  40.898   4.962   8.853
 5642POPC   C1A11187  40.793   5.090   8.553
 5642POPC   D2A11188  40.741   5.090   8.253
 5642POPC   C3A11189  40.773   5.137   7.953
 5642POPC   C4A11190  40.787   5.069   7.653
 5642POPC   C1B11191  40.983   4.899   8.553
 5642POPC   C2B11192  40.916   4.873   8.253
 5642POPC   C3B11193  40.900   4.900   7.953
 5642POPC   C4B11194  40.903   4.860   7.653
 5643POPC   NC311195  34.617   4.269   9.453
 5643POPC   PO411196  34.528   4.313   9.153
 5643POPC   GL111197  34.598   4.323   8.853
 5643POPC   GL211198  34.669   4.237   8.853
 5643POPC   C1A11199  34.551   4.293   8.553
 5643POPC   D2A11200  34.613   4.339   8.253
 5643POPC   C3A11201  34.527   4.304   7.953
 5643POPC   C4A11202  34.534   4.361   7.653
 5643POPC   C1B11203  34.741   4.159   8.553
 5643POPC   C2B11204  34.774   4.099   8.253
 5643POPC   C3B11205  34.737   4.140   7.953
 5643POPC   C4B11206  34.769   4.082   7.653
 5644POPC   NC311207  12.109   4.319   9.453
 5644POPC   PO411208  12.117   4.290   9.153
 5644POPC   GL111209  12.062   4.320   8.853
 5644POPC   GL211210  11.944   4.182   8.853
 5644POPC   C1A11211  12.106   4.339   8.553
 5644POPC   D2A11212  12.055   4.331   8.253
 5644POPC   C3A11213  12.095   4.280   7.953
 5644POPC   C4A11214  12.088   4.282   7.653
 5644POPC   C1B11215  11.865   4.151   8.553
 5644POPC   C2B11216  11.874   4.126   8.253
 5644POPC   C3B11217  11.905   4.156   7.953
 5644POPC   C4B11218  11.953   4.150   7.653
 5645POPC   NC311219  36.078  11.295   9.453
 5645POPC   PO411220  36.132  11.281   9.153
 5645POPC   GL111221  36.097  11.332   8.853
 5645POPC   GL211222  36.139  11.129   8.853
 5645POPC   C1A11223  36.151  11.331   8.553
 5645POPC   D2A11224  36.124  11.254   8.253
 5645POPC   C3A11225  36.092  11.294   7.953
 5645POPC   C4A11226  36.156  11.268   7.653
 5645POPC   C1B11227  36.094  11.027   8.553
 5645POPC   C2B11228  36.109  11.038   8.253
 5645POPC   C3B11229  36.176  11.057   7.953
 5645POPC   C4B11230  36.174  11.038   7.653
 5646POPC   NC311231   9.781  36.095   9.453
 5646POPC   PO411232   9.718  36.170   9.153
 5646POPC   GL111233   9.750  36.148   8.853
 5646POPC   GL211234   9.639  36.130   8.853
 5646POPC   C1A11235   9.724  36.109   8.553
 5646POPC   D2A11236   9.764  36.126   8.253
 5646POPC   C3A11237   9.717  36.158   7.953
 5646POPC   C4A11238   9.698  36.134   7.653
 5646POPC   C1B11239   9.473  36.243   8.553
 5646POPC   C2B11240   9.505  36.161   8.253
 5646POPC   C3B11241   9.558  36.245   7.953
 5646POPC   C4B11242   9.535  36.191   7.653
 5647POPC   NC311243  38.448  12.079   9.453
 5647POPC   PO411244  38.477  12.061   9.153
 5647POPC   GL111245  38.478  12.059   8.853
 5647POPC   GL211246  38.365  12.030   8.853
 5647POPC   C1A11247  38.486  12.029   8.553
 5647POPC   D2A11248  38.446  12.124   8.253
 5647POPC   C3A11249  38.494  12.124   7.953
 5647POPC   C4A11250  38.505  12.079   7.653
 5647POPC   C1B11251  38.181  12.059   8.553
 5647POPC   C2B11252  38.228  11.991   8.253
 5647POPC   C3B11253  38.165  12.006   7.953
 5647POPC   C4B11254  38.254  11.987   7.653
 5648POPC   NC311255   4.323  40.824   9.453
 5648POPC   PO411256   4.339  40.764   9.153
 5648POPC   GL111257   4.320  40.832   8.853
 5648POPC   GL211258   4.337  40.906   8.853
 5648POPC   C1A11259   4.273  40.745   8.553
 5648POPC   D2A11260   4.327  40.762   8.253
 5648POPC   C3A11261   4.285  40.787   7.953
 5648POPC   C4A11262   4.350  40.770   7.653
 5648POPC   C1B11263   4.446  40.986   8.553
 5648POPC   C2B11264   4.380  40.964   8.253
 5648POPC   C3B11265   4.387  41.048   7.953
 5648POPC   C4B11266   4.406  41.054   7.653
 5649POPC   NC311267  26.832  19.822   9.453
 5649POPC   PO411268  26.793  19.798   9.153
 5649POPC   GL111269  26.866  19.813   8.853
 5649POPC   GL211270  26.685  19.825   8.853
 5649POPC   C1A11271  26.818  19.797   8.553
 5649POPC   D2A11272  26.848  19.866   8.253
 5649POPC   C3A11273  26.856  19.849   7.953
 5649POPC   C4A11274  26.825  19.810   7.653
 5649POPC   C1B11275  26.573  19.834   8.553
 5649POPC   C2B11276  26.542  19.863   8.253
 5649POPC   C3B11277  26.549  19.901   7.953
 5649POPC   C4B11278  26.538  19.856   7.653
 5650POPC   NC311279   4.307  42.334   9.453
 5650POPC   PO411280   4.327  42.306   9.153
 5650POPC   GL111281   4.335  42.286   8.853
 5650POPC   GL211282   4.455  42.304   8.853
 5650POPC   C1A11283   4.329  42.289   8.553
 5650POPC   D2A11284   4.342  42.306   8.253
 5650POPC   C3A11285   4.307  42.352   7.953
 5650POPC   C4A11286   4.366  42.329   7.653
 5650POPC   C1B11287   4.521  42.226   8.553
 5650POPC   C2B11288   4.502  42.166   8.253
 5650POPC   C3B11289   4.518  42.160   7.953
 5650POPC   C4B11290   4.503  42.209   7.653
 5651POPC   NC311291  20.660  22.170   9.453
 5651POPC   PO411292  20.627  22.187   9.153
 5651POPC   GL111293  20.604  22.205   8.853
 5651POPC   GL211294  20.515  22.265   8.853
 5651POPC   C1A11295  20.633  22.143   8.553
 5651POPC   D2A11296  20.630  22.128   8.253
 5651POPC   C3A11297  20.626  22.172   7.953
 5651POPC   C4A11298  20.650  22.177   7.653
 5651POPC   C1B11299  20.451  22.325   8.553
 5651POPC   C2B11300  20.451  22.378   8.253
 5651POPC   C3B11301  20.399  22.341   7.953
 5651POPC   C4B11302  20.439  22.325   7.653
 5652POPC   NC311303  40.012   3.515   9.453
 5652POPC   PO411304  40.045   3.541   9.153
 5652POPC   GL111305  40.026   3.537   8.853
 5652POPC   GL211306  39.920   3.587   8.853
 5652POPC   C1A11307  40.042   3.541   8.553
 5652POPC   D2A11308  40.019   3.569   8.253
 5652POPC   C3A11309  40.034   3.504   7.953
 5652POPC   C4A11310  39.966   3.540   7.653
 5652POPC   C1B11311  39.802   3.615   8.553
 5652POPC   C2B11312  39.818   3.687   8.253
 5652POPC   C3B11313  39.832   3.618   7.953
 5652POPC   C4B11314  39.748   3.642   7.653
 5653POPC   NC311315  10.543  36.107   9.453
 5653POPC   PO411316  10.574  36.145   9.153
 5653POPC   GL111317  10.518  36.156   8.853
 5653POPC   GL211318  10.364  36.071   8.853
 5653POPC   C1A11319  10.491  36.127   8.553
 5653POPC   D2A11320  10.483  36.107   8.253
 5653POPC   C3A11321  10.565  36.112   7.953
 5653POPC   C4A11322  10.483  36.121   7.653
 5653POPC   C1B11323  10.288  36.046   8.553
 5653POPC   C2B11324  10.244  36.008   8.253
 5653POPC   C3B11325  10.313  36.034   7.953
 5653POPC   C4B11326  10.325  36.009   7.653
 5654POPC   NC311327   2.740   5.860   9.453
 5654POPC   PO411328   2.724   5.852   9.153
 5654POPC   GL111329   2.762   5.871   8.853
 5654POPC   GL211330   2.895   5.944   8.853
 5654POPC   C1A11331   2.749   5.840   8.553
 5654POPC   D2A11332   2.764   5.896   8.253
 5654POPC   C3A11333   2.798   5.881   7.953
 5654POPC   C4A11334   2.807   5.841   7.653
 5654POPC   C1B11335   2.963   6.063   8.553
 5654POPC   C2B11336   2.972   6.085   8.253
 5654POPC   C3B11337   2.903   6.095   7.953
 5654POPC   C4B11338   2.916   6.042   7.653
 5655POPC   NC311339  18.303  23.762   9.453
 5655POPC   PO411340  18.244  23.752   9.153
 5655POPC   GL111341  18.260  23.675   8.853
 5655POPC   GL211342  18.263  23.848   8.853
 5655POPC   C1A11343  18.321  23.712   8.553
 5655POPC   D2A11344  18.333  23.737   8.253
 5655POPC   C3A11345  18.260  23.717   7.953
 5655POPC   C4A11346  18.264  23.695   7.653
 5655POPC   C1B11347  18.105  23.879   8.553
 5655POPC   C2B11348  18.095  23.891   8.253
 5655POPC   C3B11349  18.134  23.953   7.953
 5655POPC   C4B11350  18.175  23.877   7.653
 5656POPC   NC311351  20.628  25.275   9.453
 5656POPC   PO411352  20.619  25.302   9.153
 5656POPC   GL111353  20.608  25.263   8.853
 5656POPC   GL211354  20.499  25.315   8.853
 5656POPC   C1A11355  20.606  25.239   8.553
 5656POPC   D2A11356  20.584  25.315   8.253
 5656POPC   C3A11357  20.564  25.243   7.953
 5656POPC   C4A11358  20.650  25.296   7.653
 5656POPC   C1B11359  20.326  25.286   8.553
 5656POPC   C2B11360  20.335  25.304   8.253
 5656POPC   C3B11361  20.368  25.296   7.953
 5656POPC   C4B11362  20.361  25.309   7.653
 5657POPC   NC311363  27.601  15.972   9.453
 5657POPC   PO411364  27.557  15.906   9.153
 5657POPC   GL111365  27.628  15.985   8.853
 5657POPC   GL211366  27.559  16.041   8.853
 5657POPC   C1A11367  27.551  15.984   8.553
 5657POPC   D2A11368  27.633  16.005   8.253
 5657POPC   C3A11369  27.587  15.980   7.953
 5657POPC   C4A11370  27.585  15.972   7.653
 5657POPC   C1B11371  27.469  16.181   8.553
 5657POPC   C2B11372  27.419  16.215   8.253
 5657POPC   C3B11373  27.506  16.168   7.953
 5657POPC   C4B11374  27.471  16.163   7.653
 5658POPC   NC311375   5.123  27.598   9.453
 5658POPC   PO411376   5.115  27.623   9.153
 5658POPC   GL111377   5.116  27.627   8.853
 5658POPC   GL211378   5.029  27.498   8.853
 5658POPC   C1A11379   5.092  27.625   8.553
 5658POPC   D2A11380   5.133  27.619   8.253
 5658POPC   C3A11381   5.127  27.598   7.953
 5658POPC   C4A11382   5.052  27.641   7.653
 5658POPC   C1B11383   4.915  27.482   8.553
 5658POPC   C2B11384   4.873  27.403   8.253
 5658POPC   C3B11385   4.911  27.431   7.953
 5658POPC   C4B11386   4.902  27.476   7.653
 5659POPC   NC311387   6.603  40.773   9.453
 5659POPC   PO411388   6.667  40.782   9.153
 5659POPC   GL111389   6.613  40.773   8.853
 5659POPC   GL211390   6.550  40.788   8.853
 5659POPC   C1A11391   6.649  40.743   8.553
 5659POPC   D2A11392   6.614  40.800   8.253
 5659POPC   C3A11393   6.626  40.789   7.953
 5659POPC   C4A11394   6.670  40.747   7.653
 5659POPC   C1B11395   6.424  40.899   8.553
 5659POPC   C2B11396   6.397  40.835   8.253
 5659POPC   C3B11397   6.394  40.851   7.953
 5659POPC   C4B11398   6.415  40.853   7.653
 5660POPC   NC311399  39.202   8.234   9.453
 5660POPC   PO411400  39.262   8.186   9.153
 5660POPC   GL111401  39.197   8.163   8.853
 5660POPC   GL211402  39.343   8.231   8.853
 5660POPC   C1A11403  39.242   8.244   8.553
 5660POPC   D2A11404  39.202   8.158   8.253
 5660POPC   C3A11405  39.229   8.233   7.953
 5660POPC   C4A11406  39.230   8.162   7.653
 5660POPC   C1B11407  39.507   8.170   8.553
 5660POPC   C2B11408  39.459   8.204   8.253
 5660POPC   C3B11409  39.477   8.217   7.953
 5660POPC   C4B11410  39.530   8.217   7.653
 5661POPC   NC311411  30.680  26.865   9.453
 5661POPC   PO411412  30.738  26.786   9.153
 5661POPC   GL111413  30.672  26.822   8.853
 5661POPC   GL211414  30.705  26.711   8.853
 5661POPC   C1A11415  30.670  26.838   8.553
 5661POPC   D2A11416  30.655  26.792   8.253
 5661POPC   C3A11417  30.681  26.840   7.953
 5661POPC   C4A11418  30.746  26.810   7.653
 5661POPC   C1B11419  30.780  26.589   8.553
 5661POPC   C2B11420  30.773  26.583   8.253
 5661POPC   C3B11421  30.766  26.556   7.953
 5661POPC   C4B11422  30.855  26.570   7.653
 5662POPC   NC311423  32.984  15.918   9.453
 5662POPC   PO411424  33.047  15.940   9.153
 5662POPC   GL111425  33.063  15.984   8.853
 5662POPC   GL211426  33.082  15.807   8.853
 5662POPC   C1A11427  33.048  15.958   8.553
 5662POPC   D2A11428  32.981  15.968   8.253
 5662POPC   C3A11429  33.055  15.941   7.953
 5662POPC   C4A11430  33.049  15.967   7.653
 5662POPC   C1B11431  33.081  15.738   8.553
 5662POPC   C2B11432  33.048  15.734   8.253
 5662POPC   C3B11433  33.045  15.727   7.953
 5662POPC   C4B11434  33.033  15.706   7.653
 5663POPC   NC311435  42.377   6.634   9.453
 5663POPC   PO411436  42.333   6.615   9.153
 5663POPC   GL111437  42.329   6.673   8.853
 5663POPC   GL211438  42.296   6.548   8.853
 5663POPC   C1A11439  42.322   6.680   8.553
 5663POPC   D2A11440  42.342   6.603   8.253
 5663POPC   C3A11441  42.312   6.611   7.953
 5663POPC   C4A11442  42.364   6.607   7.653
 5663POPC   C1B11443  42.182   6.460   8.553
 5663POPC   C2B11444  42.248   6.390   8.253
 5663POPC   C3B11445  42.184   6.438   7.953
 5663POPC   C4B11446  42.214   6.445   7.653
 5664POPC   NC311447  15.159  26.772   9.453
 5664POPC   PO411448  15.146  26.782   9.153
 5664POPC   GL111449  15.225  26.806   8.853
 5664POPC   GL211450  15.039  26.938   8.853
 5664POPC   C1A11451  15.202  26.859   8.553
 5664POPC   D2A11452  15.150  26.825   8.253
 5664POPC   C3A11453  15.154  26.848   7.953
 5664POPC   C4A11454  15.169  26.795   7.653
 5664POPC   C1B11455  14.976  26.975   8.553
 5664POPC   C2B11456  14.968  26.952   8.253
 5664POPC   C3B11457  15.026  26.948   7.953
 5664POPC   C4B11458  14.979  26.914   7.653
 5665POPC   NC311459  36.093   8.187   9.453
 5665POPC   PO411460  36.088   8.235   9.153
 5665POPC   GL111461  36.128   8.163   8.853
 5665POPC   GL211462  36.045   8.324   8.853
 5665POPC   C1A11463  36.168   8.159   8.553
 5665POPC   D2A11464  36.174   8.208   8.253
 5665POPC   C3A11465  36.169   8.185   7.953
 5665POPC   C4A11466  36.085   8.180   7.653
 5665POPC   C1B11467  36.056   8.422   8.553
 5665POPC   C2B11468  36.055   8.434   8.253
 5665POPC   C3B11469  36.075   8.430   7.953
 5665POPC   C4B11470  35.984   8.394   7.653
 5666POPC   NC311471   4.313  38.438   9.453
 5666POPC   PO411472   4.294  38.483   9.153
 5666POPC   GL111473   4.271  38.504   8.853
 5666POPC   GL211474   4.408  38.566   8.853
 5666POPC   C1A11475   4.288  38.412   8.553
 5666POPC   D2A11476   4.297  38.453   8.253
 5666POPC   C3A11477   4.312  38.440   7.953
 5666POPC   C4A11478   4.290  38.458   7.653
 5666POPC   C1B11479   4.472  38.567   8.553
 5666POPC   C2B11480   4.545  38.596   8.253
 5666POPC   C3B11481   4.515  38.571   7.953
 5666POPC   C4B11482   4.494  38.562   7.653
 5667POPC   NC311483  34.616  42.361   9.453
 5667POPC   PO411484  34.618  42.309   9.153
 5667POPC   GL111485  34.553  42.380   8.853
 5667POPC   GL211486  34.554  42.467   8.853
 5667POPC   C1A11487  34.605  42.375   8.553
 5667POPC   D2A11488  34.618  42.364   8.253
 5667POPC   C3A11489  34.559  42.310   7.953
 5667POPC   C4A11490  34.532  42.346   7.653
 5667POPC   C1B11491  34.523  42.594   8.553
 5667POPC   C2B11492  34.531  42.554   8.253
 5667POPC   C3B11493  34.556  42.562   7.953
 5667POPC   C4B11494  34.568  42.548   7.653
 5668POPC   NC311495   9.732   9.756   9.453
 5668POPC   PO411496   9.795   9.710   9.153
 5668POPC   GL111497   9.770   9.698   8.853
 5668POPC   GL211498   9.820   9.804   8.853
 5668POPC   C1A11499   9.714   9.795   8.553
 5668POPC   D2A11500   9.702   9.715   8.253
 5668POPC   C3A11501   9.794   9.779   7.953
 5668POPC   C4A11502   9.774   9.720   7.653
 5668POPC   C1B11503   9.991   9.781   8.553
 5668POPC   C2B11504  10.030   9.808   8.253
 5668POPC   C3B11505  10.037   9.861   7.953
 5668POPC   C4B11506   9.948   9.864   7.653
 5669POPC   NC311507  27.593  44.676   9.453
 5669POPC   PO411508  27.553  44.656   9.153
 5669POPC   GL111509  27.584  44.640   8.853
 5669POPC   GL211510  27.595  44.560   8.853
 5669POPC   C1A11511  27.552  44.712   8.553
 5669POPC   D2A11512  27.553  44.675   8.253
 5669POPC   C3A11513  27.602  44.614   7.953
 5669POPC   C4A11514  27.606  44.651   7.653
 5669POPC   C1B11515  27.553  44.382   8.553
 5669POPC   C2B11516  27.542  44.452   8.253
 5669POPC   C3B11517  27.592  44.381   7.953
 5669POPC   C4B11518  27.551  44.373   7.653
 5670POPC   NC311519   1.226  11.261   9.453
 5670POPC   PO411520   1.189  11.307   9.153
 5670POPC   GL111521   1.193  11.337   8.853
 5670POPC   GL211522   1.373  11.266   8.853
 5670POPC   C1A11523   1.224  11.297   8.553
 5670POPC   D2A11524   1.234  11.288   8.253
 5670POPC   C3A11525   1.166  11.297   7.953
 5670POPC   C4A11526   1.234  11.279   7.653
 5670POPC   C1B11527   1.432  11.264   8.553
 5670POPC   C2B11528   1.481  11.317   8.253
 5670POPC   C3B11529   1.439  11.348   7.953
 5670POPC   C4B11530   1.473  11.287   7.653
 5671POPC   NC311531  32.221  18.261   9.453
 5671POPC   PO411532  32.219  18.271   9.153
 5671POPC   GL111533  32.252  18.297   8.853
 5671POPC   GL211534  32.383  18.281   8.853
 5671POPC   C1A11535  32.268  18.271   8.553
 5671POPC   D2A11536  32.230  18.275   8.253
 5671POPC   C3A11537  32.294  18.262   7.953
 5671POPC   C4A11538  32.232  18.312   7.653
 5671POPC   C1B11539  32.464  18.393   8.553
 5671POPC   C2B11540  32.483  18.370   8.253
 5671POPC   C3B11541  32.506  18.311   7.953
 5671POPC   C4B11542  32.444  18.327   7.653
 5672POPC   NC311543  11.323   5.904   9.453
 5672POPC   PO411544  11.335   5.879   9.153
 5672POPC   GL111545  11.275   5.887   8.853
 5672POPC   GL211546  11.424   5.838   8.853
 5672POPC   C1A11547  11.292   5.879   8.553
 5672POPC   D2A11548  11.319   5.830   8.253
 5672POPC   C3A11549  11.349   5.888   7.953
 5672POPC   C4A11550  11.294   5.825   7.653
 5672POPC   C1B11551  11.593   5.929   8.553
 5672POPC   C2B11552  11.583   5.878   8.253
 5672POPC   C3B11553  11.597   5.852   7.953
 5672POPC   C4B11554  11.550   5.870   7.653
 5673POPC   NC311555   7.464   5.046   9.453
 5673POPC   PO411556   7.438   5.073   9.153
 5673POPC   GL111557   7.461   5.082   8.853
 5673POPC   GL211558   7.267   5.010   8.853
 5673POPC   C1A11559   7.377   5.121   8.553
 5673POPC   D2A11560   7.450   5.122   8.253
 5673POPC   C3A11561   7.426   5.082   7.953
 5673POPC   C4A11562   7.443   5.137   7.653
 5673POPC   C1B11563   7.165   5.007   8.553
 5673POPC   C2B11564   7.167   4.986   8.253
 5673POPC   C3B11565   7.151   5.040   7.953
 5673POPC   C4B11566   7.204   5.008   7.653
 5674POPC   NC311567  36.088  21.378   9.453
 5674POPC   PO411568  36.087  21.408   9.153
 5674POPC   GL111569  36.133  21.344   8.853
 5674POPC   GL211570  36.267  21.302   8.853
 5674POPC   C1A11571  36.172  21.424   8.553
 5674POPC   D2A11572  36.122  21.410   8.253
 5674POPC   C3A11573  36.098  21.384   7.953
 5674POPC   C4A11574  36.123  21.346   7.653
 5674POPC   C1B11575  36.316  21.270   8.553
 5674POPC   C2B11576  36.383  21.268   8.253
 5674POPC   C3B11577  36.378  21.231   7.953
 5674POPC   C4B11578  36.370  21.242   7.653
 5675POPC   NC311579   1.234  10.530   9.453
 5675POPC   PO411580   1.231  10.510   9.153
 5675POPC   GL111581   1.238  10.522   8.853
 5675POPC   GL211582   1.308  10.595   8.853
 5675POPC   C1A11583   1.207  10.476   8.553
 5675POPC   D2A11584   1.171  10.479   8.253
 5675POPC   C3A11585   1.205  10.483   7.953
 5675POPC   C4A11586   1.173  10.519   7.653
 5675POPC   C1B11587   1.328  10.735   8.553
 5675POPC   C2B11588   1.381  10.771   8.253
 5675POPC   C3B11589   1.302  10.725   7.953
 5675POPC   C4B11590   1.346  10.717   7.653
 5676POPC   NC311591  42.368  41.536   9.453
 5676POPC   PO411592  42.289  41.564   9.153
 5676POPC   GL111593  42.306  41.516   8.853
 5676POPC   GL211594  42.304  41.654   8.853
 5676POPC   C1A11595  42.328  41.533   8.553
 5676POPC   D2A11596  42.363  41.581   8.253
 5676POPC   C3A11597  42.328  41.546   7.953
 5676POPC   C4A11598  42.382  41.588   7.653
 5676POPC   C1B11599  42.248  41.823   8.553
 5676POPC   C2B11600  42.216  41.787   8.253
 5676POPC   C3B11601  42.219  41.806   7.953
 5676POPC   C4B11602  42.238  41.767   7.653
 5677POPC   NC311603  15.221  14.370   9.453
 5677POPC   PO411604  15.144  14.439   9.153
 5677POPC   GL111605  15.157  14.412   8.853
 5677POPC   GL211606  15.152  14.507   8.853
 5677POPC   C1A11607  15.135  14.433   8.553
 5677POPC   D2A11608  15.190  14.421   8.253
 5677POPC   C3A11609  15.185  14.392   7.953
 5677POPC   C4A11610  15.199  14.452   7.653
 5677POPC   C1B11611  15.146  14.597   8.553
 5677POPC   C2B11612  15.082  14.655   8.253
 5677POPC   C3B11613  15.123  14.598   7.953
 5677POPC   C4B11614  15.096  14.655   7.653
 5678POPC   NC311615  12.058   0.401   9.453
 5678POPC   PO411616  12.085   0.419   9.153
 5678POPC   GL111617  12.056   0.423   8.853
 5678POPC   GL211618  12.070   0.567   8.853
 5678POPC   C1A11619  12.078   0.464   8.553
 5678POPC   D2A11620  12.124   0.458   8.253
 5678POPC   C3A11621  12.121   0.419   7.953
 5678POPC   C4A11622  12.111   0.452   7.653
 5678POPC   C1B11623  12.086   0.691   8.553
 5678POPC   C2B11624  12.137   0.713   8.253
 5678POPC   C3B11625  12.124   0.642   7.953
 5678POPC   C4B11626  12.098   0.665   7.653
 5679POPC   NC311627  33.815   3.572   9.453
 5679POPC   PO411628  33.766   3.558   9.153
 5679POPC   GL111629  33.757   3.578   8.853
 5679POPC   GL211630  33.931   3.582   8.853
 5679POPC   C1A11631  33.823   3.568   8.553
 5679POPC   D2A11632  33.753   3.534   8.253
 5679POPC   C3A11633  33.818   3.503   7.953
 5679POPC   C4A11634  33.830   3.512   7.653
 5679POPC   C1B11635  34.019   3.688   8.553
 5679POPC   C2B11636  34.035   3.663   8.253
 5679POPC   C3B11637  34.047   3.623   7.953
 5679POPC   C4B11638  33.986   3.608   7.653
 5680POPC   NC311639  10.569  12.815   9.453
 5680POPC   PO411640  10.482  12.895   9.153
 5680POPC   GL111641  10.494  12.837   8.853
 5680POPC   GL211642  10.668  12.818   8.853
 5680POPC   C1A11643  10.571  12.823   8.553
 5680POPC   D2A11644  10.499  12.830   8.253
 5680POPC   C3A11645  10.500  12.823   7.953
 5680POPC   C4A11646  10.486  12.867   7.653
 5680POPC   C1B11647  10.770  12.839   8.553
 5680POPC   C2B11648  10.768  12.871   8.253
 5680POPC   C3B11649  10.779  12.878   7.953
 5680POPC   C4B11650  10.769  12.902   7.653
 5681POPC   NC311651   0.405   1.953   9.453
 5681POPC   PO411652   0.433   2.006   9.153
 5681POPC   GL111653   0.445   1.983   8.853
 5681POPC   GL211654   0.372   1.857   8.853
 5681POPC   C1A11655   0.460   2.019   8.553
 5681POPC   D2A11656   0.428   2.039   8.253
 5681POPC   C3A11657   0.476   1.993   7.953
 5681POPC   C4A11658   0.451   2.000   7.653
 5681POPC   C1B11659   0.359   1.718   8.553
 5681POPC   C2B11660   0.398   1.708   8.253
 5681POPC   C3B11661   0.340   1.746   7.953
 5681POPC   C4B11662   0.395   1.746   7.653
 5682POPC   NC311663  17.511   6.653   9.453
 5682POPC   PO411664  17.534   6.636   9.153
 5682POPC   GL111665  17.535   6.654   8.853
 5682POPC   GL211666  17.508   6.523   8.853
 5682POPC   C1A11667  17.527   6.666   8.553
 5682POPC   D2A11668  17.480   6.614   8.253
 5682POPC   C3A11669  17.475   6.615   7.953
 5682POPC   C4A11670  17.482   6.675   7.653
 5682POPC   C1B11671  17.461   6.442   8.553
 5682POPC   C2B11672  17.402   6.367   8.253
 5682POPC   C3B11673  17.372   6.386   7.953
 5682POPC   C4B11674  17.461   6.369   7.653
 5683POPC   NC311675  22.912  20.624   9.453
 5683POPC   PO411676  22.949  20.656   9.153
 5683POPC   GL111677  22.910  20.636   8.853
 5683POPC   GL211678  22.774  20.571   8.853
 5683POPC   C1A11679  22.961  20.633   8.553
 5683POPC   D2A11680  22.979  20.595   8.253
 5683POPC   C3A11681  22.940  20.651   7.953
 5683POPC   C4A11682  22.896  20.635   7.653
 5683POPC   C1B11683  22.664  20.572   8.553
 5683POPC   C2B11684  22.714  20.548   8.253
 5683POPC   C3B11685  22.702  20.515   7.953
 5683POPC   C4B11686  22.662  20.571   7.653
 5684POPC   NC311687  42.302  14.364   9.453
 5684POPC   PO411688  42.383  14.440   9.153
 5684POPC   GL111689  42.375  14.427   8.853
 5684POPC   GL211690  42.471  14.438   8.853
 5684POPC   C1A11691  42.318  14.372   8.553
 5684POPC   D2A11692  42.302  14.366   8.253
 5684POPC   C3A11693  42.336  14.420   7.953
 5684POPC   C4A11694  42.350  14.431   7.653
 5684POPC   C1B11695  42.624  14.421   8.553
 5684POPC   C2B11696  42.585  14.378   8.253
 5684POPC   C3B11697  42.570  14.405   7.953
 5684POPC   C4B11698  42.610  14.403   7.653
 5685POPC   NC311699  35.314  29.120   9.453
 5685POPC   PO411700  35.364  29.117   9.153
 5685POPC   GL111701  35.331  29.195   8.853
 5685POPC   GL211702  35.326  29.282   8.853
 5685POPC   C1A11703  35.329  29.137   8.553
 5685POPC   D2A11704  35.378  29.127   8.253
 5685POPC   C3A11705  35.395  29.170   7.953
 5685POPC   C4A11706  35.334  29.164   7.653
 5685POPC   C1B11707  35.315  29.360   8.553
 5685POPC   C2B11708  35.331  29.431   8.253
 5685POPC   C3B11709  35.289  29.349   7.953
 5685POPC   C4B11710  35.329  29.436   7.653
 5686POPC   NC311711  21.339  33.795   9.453
 5686POPC   PO411712  21.383  33.796   9.153
 5686POPC   GL111713  21.415  33.793   8.853
 5686POPC   GL211714  21.381  33.919   8.853
 5686POPC   C1A11715  21.400  33.750   8.553
 5686POPC   D2A11716  21.393  33.802   8.253
 5686POPC   C3A11717  21.378  33.772   7.953
 5686POPC   C4A11718  21.359  33.754   7.653
 5686POPC   C1B11719  21.358  34.041   8.553
 5686POPC   C2B11720  21.346  34.075   8.253
 5686POPC   C3B11721  21.316  34.038   7.953
 5686POPC   C4B11722  21.360  33.999   7.653
 5687POPC   NC311723  23.753  14.388   9.453
 5687POPC   PO411724  23.721  14.434   9.153
 5687POPC   GL111725  23.704  14.415   8.853
 5687POPC   GL211726  23.730  14.558   8.853
 5687POPC   C1A11727  23.664  14.375   8.553
 5687POPC   D2A11728  23.754  14.379   8.253
 5687POPC   C3A11729  23.681  14.360   7.953
 5687POPC   C4A11730  23.734  14.420   7.653
 5687POPC   C1B11731  23.746  14.668   8.553
 5687POPC   C2B11732  23.750  14.681   8.253
 5687POPC   C3B11733  23.801  14.679   7.953
 5687POPC   C4B11734  23.776  14.603   7.653
 5688POPC   NC311735  19.049  13.654   9.453
 5688POPC   PO411736  19.066  13.666   9.153
 5688POPC   GL111737  19.024  13.660   8.853
 5688POPC   GL211738  19.080  13.499   8.853
 5688POPC   C1A11739  19.085  13.611   8.553
 5688POPC   D2A11740  19.035  13.659   8.253
 5688POPC   C3A11741  19.058  13.624   7.953
 5688POPC   C4A11742  19.088  13.666   7.653
 5688POPC   C1B11743  19.040  13.344   8.553
 5688POPC   C2B11744  19.061  13.339   8.253
 5688POPC   C3B11745  18.986  13.392   7.953
 5688POPC   C4B11746  18.996  13.349   7.653
 5689POPC   NC311747  24.496  39.188   9.453
 5689POPC   PO411748  24.510  39.209   9.153
 5689POPC   GL111749  24.537  39.201   8.853
 5689POPC   GL211750  24.497  39.371   8.853
 5689POPC   C1A11751  24.493  39.256   8.553
 5689POPC   D2A11752  24.517  39.181   8.253
 5689POPC   C3A11753  24.498  39.270   7.953
 5689POPC   C4A11754  24.504  39.273   7.653
 5689POPC   C1B11755  24.632  39.423   8.553
 5689POPC   C2B11756  24.567  39.423   8.253
 5689POPC   C3B11757  24.554  39.448   7.953
 5689POPC   C4B11758  24.593  39.485   7.653
 5690POPC   NC311759  17.471  36.905   9.453
 5690POPC   PO411760  17.486  36.857   9.153
 5690POPC   GL111761  17.463  36.943   8.853
 5690POPC   GL211762  17.497  37.011   8.853
 5690POPC   C1A11763  17.547  36.944   8.553
 5690POPC   D2A11764  17.475  36.899   8.253
 5690POPC   C3A11765  17.532  36.934   7.953
 5690POPC   C4A11766  17.542  36.932   7.653
 5690POPC   C1B11767  17.465  37.135   8.553
 5690POPC   C2B11768  17.490  37.135   8.253
 5690POPC   C3B11769  17.446  37.153   7.953
 5690POPC   C4B11770  17.518  37.181   7.653
 5691POPC   NC311771  26.793  42.338   9.453
 5691POPC   PO411772  26.866  42.292   9.153
 5691POPC   GL111773  26.837  42.315   8.853
 5691POPC   GL211774  26.878  42.435   8.853
 5691POPC   C1A11775  26.853  42.321   8.553
 5691POPC   D2A11776  26.842  42.292   8.253
 5691POPC   C3A11777  26.867  42.323   7.953
 5691POPC   C4A11778  26.785  42.304   7.653
 5691POPC   C1B11779  26.926  42.552   8.553
 5691POPC   C2B11780  26.948  42.539   8.253
 5691POPC   C3B11781  26.908  42.510   7.953
 5691POPC   C4B11782  26.974  42.557   7.653
 5692POPC   NC311783  44.705  26.085   9.453
 5692POPC   PO411784  44.634  26.010   9.153
 5692POPC   GL111785  44.625  26.018   8.853
 5692POPC   GL211786  44.533  26.105   8.853
 5692POPC   C1A11787  44.696  25.993   8.553
 5692POPC   D2A11788  44.662  26.040   8.253
 5692POPC   C3A11789  44.683  26.064   7.953
 5692POPC   C4A11790  44.689  26.021   7.653
 5692POPC   C1B11791  44.481  26.188   8.553
 5692POPC   C2B11792  44.503  26.252   8.253
 5692POPC   C3B11793  44.466  26.270   7.953
 5692POPC   C4B11794  44.501  26.188   7.653
 5693POPC   NC311795  35.348   1.990   9.453
 5693POPC   PO411796  35.393   1.959   9.153
 5693POPC   GL111797  35.362   1.950   8.853
 5693POPC   GL211798  35.233   1.897   8.853
 5693POPC   C1A11799  35.304   1.994   8.553
 5693POPC   D2A11800  35.307   1.954   8.253
 5693POPC   C3A11801  35.359   1.957   7.953
 5693POPC   C4A11802  35.393   1.941   7.653
 5693POPC   C1B11803  35.170   1.836   8.553
 5693POPC   C2B11804  35.125   1.803   8.253
 5693POPC   C3B11805  35.118   1.820   7.953
 5693POPC   C4B11806  35.168   1.825   7.653
 5694POPC   NC311807   1.942   4.348   9.453
 5694POPC   PO411808   2.023   4.315   9.153
 5694POPC   GL111809   1.962   4.327   8.853
 5694POPC   GL211810   1.850   4.308   8.853
 5694POPC   C1A11811   1.967   4.292   8.553
 5694POPC   D2A11812   2.003   4.272   8.253
 5694POPC   C3A11813   2.028   4.338   7.953
 5694POPC   C4A11814   1.982   4.342   7.653
 5694POPC   C1B11815   1.774   4.314   8.553
 5694POPC   C2B11816   1.780   4.340   8.253
 5694POPC   C3B11817   1.721   4.291   7.953
 5694POPC   C4B11818   1.706   4.310   7.653
 5695POPC   NC311819  19.883  32.248   9.453
 5695POPC   PO411820  19.827  32.264   9.153
 5695POPC   GL111821  19.871  32.261   8.853
 5695POPC   GL211822  19.806  32.162   8.853
 5695POPC   C1A11823  19.835  32.242   8.553
 5695POPC   D2A11824  19.866  32.246   8.253
 5695POPC   C3A11825  19.870  32.266   7.953
 5695POPC   C4A11826  19.832  32.268   7.653
 5695POPC   C1B11827  19.805  31.990   8.553
 5695POPC   C2B11828  19.812  32.043   8.253
 5695POPC   C3B11829  19.736  31.986   7.953
 5695POPC   C4B11830  19.787  31.966   7.653
 5696POPC   NC311831   8.207  43.891   9.453
 5696POPC   PO411832   8.152  43.850   9.153
 5696POPC   GL111833   8.201  43.935   8.853
 5696POPC   GL211834   8.180  44.039   8.853
 5696POPC   C1A11835   8.197  43.859   8.553
 5696POPC   D2A11836   8.154  43.920   8.253
 5696POPC   C3A11837   8.225  43.911   7.953
 5696POPC   C4A11838   8.182  43.904   7.653
 5696POPC   C1B11839   8.055  44.093   8.553
 5696POPC   C2B11840   8.073  44.138   8.253
 5696POPC   C3B11841   8.066  44.148   7.953
 5696POPC   C4B11842   8.025  44.153   7.653
 5697POPC   NC311843  34.587  15.155   9.453
 5697POPC   PO411844  34.612  15.165   9.153
 5697POPC   GL111845  34.585  15.136   8.853
 5697POPC   GL211846  34.587  15.062   8.853
 5697POPC   C1A11847  34.624  15.173   8.553
 5697POPC   D2A11848  34.536  15.213   8.253
 5697POPC   C3A11849  34.553  15.176   7.953
 5697POPC   C4A11850  34.607  15.224   7.653
 5697POPC   C1B11851  34.664  14.974   8.553
 5697POPC   C2B11852  34.670  14.921   8.253
 5697POPC   C3B11853  34.668  14.996   7.953
 5697POPC   C4B11854  34.674  14.984   7.653
 5698POPC   NC311855  40.750  33.059   9.453
 5698POPC   PO411856  40.757  33.050   9.153
 5698POPC   GL111857  40.790  32.997   8.853
 5698POPC   GL211858  40.865  33.067   8.853
 5698POPC   C1A11859  40.734  33.010   8.553
 5698POPC   D2A11860  40.783  33.018   8.253
 5698POPC   C3A11861  40.813  32.981   7.953
 5698POPC   C4A11862  40.744  33.052   7.653
 5698POPC   C1B11863  40.985  33.096   8.553
 5698POPC   C2B11864  40.982  33.135   8.253
 5698POPC   C3B11865  41.057  33.077   7.953
 5698POPC   C4B11866  41.014  33.146   7.653
 5699POPC   NC311867  19.034  29.963   9.453
 5699POPC   PO411868  19.053  29.886   9.153
 5699POPC   GL111869  19.063  29.935   8.853
 5699POPC   GL211870  18.935  30.015   8.853
 5699POPC   C1A11871  19.057  29.888   8.553
 5699POPC   D2A11872  19.074  29.933   8.253
 5699POPC   C3A11873  19.075  29.903   7.953
 5699POPC   C4A11874  19.027  29.938   7.653
 5699POPC   C1B11875  18.918  30.113   8.553
 5699POPC   C2B11876  18.910  30.123   8.253
 5699POPC   C3B11877  18.885  30.106   7.953
 5699POPC   C4B11878  18.881  30.071   7.653
 5700POPC   NC311879   6.690  36.087   9.453
 5700POPC   PO411880   6.641  36.125   9.153
 5700POPC   GL111881   6.694  36.098   8.853
 5700POPC   GL211882   6.597  36.257   8.853
 5700POPC   C1A11883   6.640  36.122   8.553
 5700POPC   D2A11884   6.645  36.122   8.253
 5700POPC   C3A11885   6.654  36.175   7.953
 5700POPC   C4A11886   6.632  36.105   7.653
 5700POPC   C1B11887   6.576  36.402   8.553
 5700POPC   C2B11888   6.573  36.412   8.253
 5700POPC   C3B11889   6.593  36.329   7.953
 5700POPC   C4B11890   6.602  36.377   7.653
 5701POPC   NC311891   3.581   0.421   9.453
 5701POPC   PO411892   3.536   0.460   9.153
 5701POPC   GL111893   3.553   0.438   8.853
 5701POPC   GL211894   3.633   0.543   8.853
 5701POPC   C1A11895   3.502   0.454   8.553
 5701POPC   D2A11896   3.499   0.431   8.253
 5701POPC   C3A11897   3.512   0.430   7.953
 5701POPC   C4A11898   3.497   0.480   7.653
 5701POPC   C1B11899   3.702   0.643   8.553
 5701POPC   C2B11900   3.635   0.609   8.253
 5701POPC   C3B11901   3.680   0.627   7.953
 5701POPC   C4B11902   3.651   0.678   7.653
 5702POPC   NC311903   9.709  26.858   9.453
 5702POPC   PO411904   9.772  26.841   9.153
 5702POPC   GL111905   9.752  26.807   8.853
 5702POPC   GL211906   9.724  26.922   8.853
 5702POPC   C1A11907   9.788  26.835   8.553
 5702POPC   D2A11908   9.767  26.784   8.253
 5702POPC   C3A11909   9.747  26.776   7.953
 5702POPC   C4A11910   9.734  26.768   7.653
 5702POPC   C1B11911   9.638  27.037   8.553
 5702POPC   C2B11912   9.574  27.029   8.253
 5702POPC   C3B11913   9.659  26.983   7.953
 5702POPC   C4B11914   9.657  27.052   7.653
 5703POPC   NC311915  17.527   2.750   9.453
 5703POPC   PO411916  17.537   2.792   9.153
 5703POPC   GL111917  17.541   2.792   8.853
 5703POPC   GL211918  17.614   2.707   8.853
 5703POPC   C1A11919  17.477   2.804   8.553
 5703POPC   D2A11920  17.484   2.719   8.253
 5703POPC   C3A11921  17.556   2.785   7.953
 5703POPC   C4A11922  17.491   2.725   7.653
 5703POPC   C1B11923  17.714   2.708   8.553
 5703POPC   C2B11924  17.734   2.720   8.253
 5703POPC   C3B11925  17.788   2.682   7.953
 5703POPC   C4B11926  17.731   2.693   7.653
 5704POPC   NC311927  10.533  29.162   9.453
 5704POPC   PO411928  10.511  29.138   9.153
 5704POPC   GL111929  10.482  29.164   8.853
 5704POPC   GL211930  10.502  29.214   8.853
 5704POPC   C1A11931  10.566  29.107   8.553
 5704POPC   D2A11932  10.552  29.193   8.253
 5704POPC   C3A11933  10.531  29.165   7.953
 5704POPC   C4A11934  10.570  29.169   7.653
 5704POPC   C1B11935  10.396  29.332   8.553
 5704POPC   C2B11936  10.362  29.403   8.253
 5704POPC   C3B11937  10.384  29.383   7.953
 5704POPC   C4B11938  10.390  29.396   7.653
 5705POPC   NC311939  18.330   2.742   9.453
 5705POPC   PO411940  18.299   2.725   9.153
 5705POPC   GL111941  18.272   2.717   8.853
 5705POPC   GL211942  18.411   2.848   8.853
 5705POPC   C1A11943  18.242   2.750   8.553
 5705POPC   D2A11944  18.320   2.756   8.253
 5705POPC   C3A11945  18.277   2.720   7.953
 5705POPC   C4A11946  18.299   2.757   7.653
 5705POPC   C1B11947  18.443   2.943   8.553
 5705POPC   C2B11948  18.421   2.907   8.253
 5705POPC   C3B11949  18.466   2.980   7.953
 5705POPC   C4B11950  18.511   2.934   7.653
 5706POPC   NC311951   9.712  10.508   9.453
 5706POPC   PO411952   9.792  10.497   9.153
 5706POPC   GL111953   9.751  10.546   8.853
 5706POPC   GL211954   9.783  10.609   8.853
 5706POPC   C1A11955   9.758  10.513   8.553
 5706POPC   D2A11956   9.795  10.530   8.253
 5706POPC   C3A11957   9.705  10.543   7.953
 5706POPC   C4A11958   9.738  10.505   7.653
 5706POPC   C1B11959   9.772  10.789   8.553
 5706POPC   C2B11960   9.755  10.805   8.253
 5706POPC   C3B11961   9.767  10.747   7.953
 5706POPC   C4B11962   9.788  10.732   7.653
 5707POPC   NC311963   4.300  29.876   9.453
 5707POPC   PO411964   4.331  29.930   9.153
 5707POPC   GL111965   4.313  29.965   8.853
 5707POPC   GL211966   4.352  29.768   8.853
 5707POPC   C1A11967   4.305  29.872   8.553
 5707POPC   D2A11968   4.270  29.908   8.253
 5707POPC   C3A11969   4.277  29.928   7.953
 5707POPC   C4A11970   4.336  29.959   7.653
 5707POPC   C1B11971   4.393  29.660   8.553
 5707POPC   C2B11972   4.443  29.711   8.253
 5707POPC   C3B11973   4.448  29.646   7.953
 5707POPC   C4B11974   4.378  29.706   7.653
 5708POPC   NC311975  32.219   7.457   9.453
 5708POPC   PO411976  32.269   7.376   9.153
 5708POPC   GL111977  32.251   7.376   8.853
 5708POPC   GL211978  32.101   7.386   8.853
 5708POPC   C1A11979  32.258   7.402   8.553
 5708POPC   D2A11980  32.282   7.419   8.253
 5708POPC   C3A11981  32.241   7.377   7.953
 5708POPC   C4A11982  32.241   7.440   7.653
 5708POPC   C1B11983  31.988   7.375   8.553
 5708POPC   C2B11984  32.050   7.354   8.253
 5708POPC   C3B11985  31.983   7.364   7.953
 5708POPC   C4B11986  32.012   7.321   7.653
 5709POPC   NC311987   9.713   5.830   9.453
 5709POPC   PO411988   9.716   5.866   9.153
 5709POPC   GL111989   9.783   5.871   8.853
 5709POPC   GL211990   9.689   6.017   8.853
 5709POPC   C1A11991   9.719   5.876   8.553
 5709POPC   D2A11992   9.711   5.844   8.253
 5709POPC   C3A11993   9.713   5.848   7.953
 5709POPC   C4A11994   9.790   5.828   7.653
 5709POPC   C1B11995   9.762   6.135   8.553
 5709POPC   C2B11996   9.756   6.148   8.253
 5709POPC   C3B11997   9.678   6.104   7.953
 5709POPC   C4B11998   9.670   6.153   7.653
 5710POPC   NC311999  22.185  29.910   9.453
 5710POPC   PO412000  22.122  29.951   9.153
 5710POPC   GL112001  22.168  29.874   8.853
 5710POPC   GL212002  22.230  30.002   8.853
 5710POPC   C1A12003  22.181  29.945   8.553
 5710POPC   D2A12004  22.191  29.957   8.253
 5710POPC   C3A12005  22.142  29.953   7.953
 5710POPC   C4A12006  22.198  29.908   7.653
 5710POPC   C1B12007  22.365  30.148   8.553
 5710POPC   C2B12008  22.311  30.106   8.253
 5710POPC   C3B12009  22.319  30.083   7.953
 5710POPC   C4B12010  22.289  30.141   7.653
 5711POPC   NC312011   5.897  24.477   9.453
 5711POPC   PO412012   5.904  24.444   9.153
 5711POPC   GL112013   5.919  24.516   8.853
 5711POPC   GL212014   5.949  24.634   8.853
 5711POPC   C1A12015   5.887  24.506   8.553
 5711POPC   D2A12016   5.868  24.491   8.253
 5711POPC   C3A12017   5.835  24.441   7.953
 5711POPC   C4A12018   5.883  24.517   7.653
 5711POPC   C1B12019   5.945  24.766   8.553
 5711POPC   C2B12020   5.999  24.707   8.253
 5711POPC   C3B12021   5.934  24.727   7.953
 5711POPC   C4B12022   5.946  24.753   7.653
 5712POPC   NC312023  12.052  36.150   9.453
 5712POPC   PO412024  12.106  36.084   9.153
 5712POPC   GL112025  12.090  36.093   8.853
 5712POPC   GL212026  12.103  36.253   8.853
 5712POPC   C1A12027  12.121  36.097   8.553
 5712POPC   D2A12028  12.118  36.141   8.253
 5712POPC   C3A12029  12.089  36.169   7.953
 5712POPC   C4A12030  12.061  36.167   7.653
 5712POPC   C1B12031  12.086  36.354   8.553
 5712POPC   C2B12032  12.108  36.375   8.253
 5712POPC   C3B12033  12.131  36.396   7.953
 5712POPC   C4B12034  12.126  36.366   7.653
 5713POPC   NC312035  16.734  34.622   9.453
 5713POPC   PO412036  16.732  34.620   9.153
 5713POPC   GL112037  16.686  34.562   8.853
 5713POPC   GL212038  16.860  34.690   8.853
 5713POPC   C1A12039  16.774  34.561   8.553
 5713POPC   D2A12040  16.765  34.538   8.253
 5713POPC   C3A12041  16.742  34.595   7.953
 5713POPC   C4A12042  16.749  34.536   7.653
 5713POPC   C1B12043  16.930  34.719   8.553
 5713POPC   C2B12044  16.943  34.809   8.253
 5713POPC   C3B12045  16.857  34.779   7.953
 5713POPC   C4B12046  16.919  34.765   7.653
 5714POPC   NC312047  40.741  25.258   9.453
 5714POPC   PO412048  40.762  25.272   9.153
 5714POPC   GL112049  40.796  25.250   8.853
 5714POPC   GL212050  40.867  25.281   8.853
 5714POPC   C1A12051  40.774  25.264   8.553
 5714POPC   D2A12052  40.738  25.286   8.253
 5714POPC   C3A12053  40.756  25.226   7.953
 5714POPC   C4A12054  40.737  25.245   7.653
 5714POPC   C1B12055  40.990  25.222   8.553
 5714POPC   C2B12056  41.069  25.231   8.253
 5714POPC   C3B12057  40.987  25.273   7.953
 5714POPC   C4B12058  41.055  25.224   7.653
 5715POPC   NC312059  24.466  27.636   9.453
 5715POPC   PO412060  24.537  27.558   9.153
 5715POPC   GL112061  24.539  27.605   8.853
 5715POPC   GL212062  24.404  27.555   8.853
 5715POPC   C1A12063  24.472  27.614   8.553
 5715POPC   D2A12064  24.463  27.564   8.253
 5715POPC   C3A12065  24.502  27.637   7.953
 5715POPC   C4A12066  24.489  27.543   7.653
 5715POPC   C1B12067  24.210  27.562   8.553
 5715POPC   C2B12068  24.272  27.615   8.253
 5715POPC   C3B12069  24.252  27.572   7.953
 5715POPC   C4B12070  24.193  27.559   7.653
 5716POPC   NC312071  39.998  43.851   9.453
 5716POPC   PO412072  39.960  43.886   9.153
 5716POPC   GL112073  40.051  43.926   8.853
 5716POPC   GL212074  40.088  43.909   8.853
 5716POPC   C1A12075  39.993  43.866   8.553
 5716POPC   D2A12076  39.990  43.878   8.253
 5716POPC   C3A12077  39.981  43.856   7.953
 5716POPC   C4A12078  39.984  43.931   7.653
 5716POPC   C1B12079  40.210  43.915   8.553
 5716POPC   C2B12080  40.248  43.890   8.253
 5716POPC   C3B12081  40.300  43.874   7.953
 5716POPC   C4B12082  40.284  43.915   7.653
 5717POPC   NC312083   5.848  33.790   9.453
 5717POPC   PO412084   5.825  33.762   9.153
 5717POPC   GL112085   5.860  33.769   8.853
 5717POPC   GL212086   5.866  33.636   8.853
 5717POPC   C1A12087   5.890  33.847   8.553
 5717POPC   D2A12088   5.907  33.829   8.253
 5717POPC   C3A12089   5.828  33.775   7.953
 5717POPC   C4A12090   5.852  33.829   7.653
 5717POPC   C1B12091   5.788  33.585   8.553
 5717POPC   C2B12092   5.836  33.535   8.253
 5717POPC   C3B12093   5.803  33.564   7.953
 5717POPC   C4B12094   5.817  33.573   7.653
 5718POPC   NC312095  43.853  29.137   9.453
 5718POPC   PO412096  43.911  29.175   9.153
 5718POPC   GL112097  43.910  29.160   8.853
 5718POPC   GL212098  43.895  29.222   8.853
 5718POPC   C1A12099  43.911  29.182   8.553
 5718POPC   D2A12100  43.885  29.174   8.253
 5718POPC   C3A12101  43.869  29.145   7.953
 5718POPC   C4A12102  43.838  29.156   7.653
 5718POPC   C1B12103  43.871  29.415   8.553
 5718POPC   C2B12104  43.904  29.418   8.253
 5718POPC   C3B12105  43.899  29.385   7.953
 5718POPC   C4B12106  43.831  29.413   7.653
 5719POPC   NC312107  32.225  23.721   9.453
 5719POPC   PO412108  32.205  23.733   9.153
 5719POPC   GL112109  32.237  23.747   8.853
 5719POPC   GL212110  32.090  23.741   8.853
 5719POPC   C1A12111  32.274  23.708   8.553
 5719POPC   D2A12112  32.264  23.716   8.253
 5719POPC   C3A12113  32.232  23.664   7.953
 5719POPC   C4A12114  32.259  23.674   7.653
 5719POPC   C1B12115  31.990  23.808   8.553
 5719POPC   C2B12116  32.012  23.838   8.253
 5719POPC   C3B12117  32.035  23.757   7.953
 5719POPC   C4B12118  32.060  23.801   7.653
 5720POPC   NC312119  17.480  25.253   9.453
 5720POPC   PO412120  17.529  25.245   9.153
 5720POPC   GL112121  17.525  25.224   8.853
 5720POPC   GL212122  17.520  25.399   8.853
 5720POPC   C1A12123  17.552  25.311   8.553
 5720POPC   D2A12124  17.481  25.257   8.253
 5720POPC   C3A12125  17.550  25.282   7.953
 5720POPC   C4A12126  17.553  25.226   7.653
 5720POPC   C1B12127  17.526  25.533   8.553
 5720POPC   C2B12128  17.557  25.557   8.253
 5720POPC   C3B12129  17.549  25.520   7.953
 5720POPC   C4B12130  17.525  25.556   7.653
 5721POPC   NC312131  27.548  29.897   9.453
 5721POPC   PO412132  27.594  29.960   9.153
 5721POPC   GL112133  27.588  29.913   8.853
 5721POPC   GL212134  27.515  30.042   8.853
 5721POPC   C1A12135  27.544  29.902   8.553
 5721POPC   D2A12136  27.637  29.897   8.253
 5721POPC   C3A12137  27.547  29.924   7.953
 5721POPC   C4A12138  27.574  29.887   7.653
 5721POPC   C1B12139  27.422  30.136   8.553
 5721POPC   C2B12140  27.469  30.149   8.253
 5721POPC   C3B12141  27.459  30.160   7.953
 5721POPC   C4B12142  27.419  30.151   7.653
 5722POPC   NC312143  25.287  39.218   9.453
 5722POPC   PO412144  25.247  39.221   9.153
 5722POPC   GL112145  25.297  39.199   8.853
 5722POPC   GL212146  25.389  39.272   8.853
 5722POPC   C1A12147  25.240  39.185   8.553
 5722POPC   D2A12148  25.281  39.242   8.253
 5722POPC   C3A12149  25.226  39.272   7.953
 5722POPC   C4A12150  25.301  39.198   7.653
 5722POPC   C1B12151  25.454  39.363   8.553
 5722POPC   C2B12152  25.478  39.334   8.253
 5722POPC   C3B12153  25.531  39.312   7.953
 5722POPC   C4B12154  25.525  39.294   7.653
 5723POPC   NC312155  35.360   8.220   9.453
 5723POPC   PO412156  35.401   8.195   9.153
 5723POPC   GL112157  35.344   8.240   8.853
 5723POPC   GL212158  35.483   8.114   8.853
 5723POPC   C1A12159  35.326   8.194   8.553
 5723POPC   D2A12160  35.325   8.188   8.253
 5723POPC   C3A12161  35.378   8.183   7.953
 5723POPC   C4A12162  35.305   8.238   7.653
 5723POPC   C1B12163  35.562   8.059   8.553
 5723POPC   C2B12164  35.538   8.130   8.253
 5723POPC   C3B12165  35.617   8.149   7.953
 5723POPC   C4B12166  35.580   8.086   7.653
 5724POPC   NC312167  30.723  19.824   9.453
 5724POPC   PO412168  30.680  19.858   9.153
 5724POPC   GL112169  30.654  19.800   8.853
 5724POPC   GL212170  30.726  19.977   8.853
 5724POPC   C1A12171  30.691  19.856   8.553
 5724POPC   D2A12172  30.742  19.800   8.253
 5724POPC   C3A12173  30.722  19.852   7.953
 5724POPC   C4A12174  30.705  19.876   7.653
 5724POPC   C1B12175  30.789  20.065   8.553
 5724POPC   C2B12176  30.838  20.056   8.253
 5724POPC   C3B12177  30.780  20.053   7.953
 5724POPC   C4B12178  30.855  20.074   7.653
 5725POPC   NC312179  34.624  30.727   9.453
 5725POPC   PO412180  34.538  30.671   9.153
 5725POPC   GL112181  34.557  30.683   8.853
 5725POPC   GL212182  34.638  30.529   8.853
 5725POPC   C1A12183  34.601  30.729   8.553
 5725POPC   D2A12184  34.548  30.740   8.253
 5725POPC   C3A12185  34.610  30.695   7.953
 5725POPC   C4A12186  34.583  30.708   7.653
 5725POPC   C1B12187  34.643  30.466   8.553
 5725POPC   C2B12188  34.642  30.434   8.253
 5725POPC   C3B12189  34.617  30.405   7.953
 5725POPC   C4B12190  34.567  30.485   7.653
 5726POPC   NC312191  29.187  29.182   9.453
 5726POPC   PO412192  29.112  29.138   9.153
 5726POPC   GL112193  29.121  29.150   8.853
 5726POPC   GL212194  29.199  29.030   8.853
 5726POPC   C1A12195  29.167  29.181   8.553
 5726POPC   D2A12196  29.168  29.160   8.253
 5726POPC   C3A12197  29.180  29.190   7.953
 5726POPC   C4A12198  29.134  29.138   7.653
 5726POPC   C1B12199  29.160  28.926   8.553
 5726POPC   C2B12200  29.211  28.905   8.253
 5726POPC   C3B12201  29.155  28.914   7.953
 5726POPC   C4B12202  29.127  28.926   7.653
 5727POPC   NC312203   0.408  21.380   9.453
 5727POPC   PO412204   0.452  21.430   9.153
 5727POPC   GL112205   0.419  21.366   8.853
 5727POPC   GL212206   0.504  21.329   8.853
 5727POPC   C1A12207   0.460  21.405   8.553
 5727POPC   D2A12208   0.434  21.387   8.253
 5727POPC   C3A12209   0.469  21.400   7.953
 5727POPC   C4A12210   0.431  21.403   7.653
 5727POPC   C1B12211   0.638  21.280   8.553
 5727POPC   C2B12212   0.677  21.209   8.253
 5727POPC   C3B12213   0.622  21.269   7.953
 5727POPC   C4B12214   0.617  21.253   7.653
 5728POPC   NC312215  38.462  15.215   9.453
 5728POPC   PO412216  38.463  15.195   9.153
 5728POPC   GL112217  38.423  15.155   8.853
 5728POPC   GL212218  38.358  15.027   8.853
 5728POPC   C1A12219  38.460  15.146   8.553
 5728POPC   D2A12220  38.422  15.218   8.253
 5728POPC   C3A12221  38.500  15.158   7.953
 5728POPC   C4A12222  38.491  15.224   7.653
 5728POPC   C1B12223  38.337  14.966   8.553
 5728POPC   C2B12224  38.266  14.947   8.253
 5728POPC   C3B12225  38.350  14.931   7.953
 5728POPC   C4B12226  38.297  14.955   7.653
 5729POPC   NC312227  24.488  36.091   9.453
 5729POPC   PO412228  24.457  36.096   9.153
 5729POPC   GL112229  24.462  36.178   8.853
 5729POPC   GL212230  24.485  36.274   8.853
 5729POPC   C1A12231  24.468  36.090   8.553
 5729POPC   D2A12232  24.480  36.170   8.253
 5729POPC   C3A12233  24.449  36.118   7.953
 5729POPC   C4A12234  24.449  36.156   7.653
 5729POPC   C1B12235  24.348  36.400   8.553
 5729POPC   C2B12236  24.351  36.319   8.253
 5729POPC   C3B12237  24.376  36.373   7.953
 5729POPC   C4B12238  24.383  36.399   7.653
 5730POPC   NC312239  37.666  35.399   9.453
 5730POPC   PO412240  37.728  35.351   9.153
 5730POPC   GL112241  37.720  35.370   8.853
 5730POPC   GL212242  37.830  35.354   8.853
 5730POPC   C1A12243  37.692  35.321   8.553
 5730POPC   D2A12244  37.677  35.386   8.253
 5730POPC   C3A12245  37.704  35.371   7.953
 5730POPC   C4A12246  37.674  35.393   7.653
 5730POPC   C1B12247  37.959  35.334   8.553
 5730POPC   C2B12248  37.974  35.342   8.253
 5730POPC   C3B12249  37.953  35.288   7.953
 5730POPC   C4B12250  37.958  35.305   7.653
 5731POPC   NC312251   3.584  19.845   9.453
 5731POPC   PO412252   3.527  19.870   9.153
 5731POPC   GL112253   3.542  19.816   8.853
 5731POPC   GL212254   3.439  19.948   8.853
 5731POPC   C1A12255   3.571  19.816   8.553
 5731POPC   D2A12256   3.533  19.785   8.253
 5731POPC   C3A12257   3.540  19.802   7.953
 5731POPC   C4A12258   3.589  19.808   7.653
 5731POPC   C1B12259   3.354  20.033   8.553
 5731POPC   C2B12260   3.361  20.077   8.253
 5731POPC   C3B12261   3.395  19.991   7.953
 5731POPC   C4B12262   3.426  20.068   7.653
 5732POPC   NC312263  22.208   4.334   9.453
 5732POPC   PO412264  22.185   4.352   9.153
 5732POPC   GL112265  22.190   4.350   8.853
 5732POPC   GL212266  22.264   4.183   8.853
 5732POPC   C1A12267  22.183   4.313   8.553
 5732POPC   D2A12268  22.176   4.286   8.253
 5732POPC   C3A12269  22.211   4.294   7.953
 5732POPC   C4A12270  22.168   4.351   7.653
 5732POPC   C1B12271  22.311   4.106   8.553
 5732POPC   C2B12272  22.265   4.120   8.253
 5732POPC   C3B12273  22.279   4.086   7.953
 5732POPC   C4B12274  22.237   4.120   7.653
 5733POPC   NC312275  38.474   6.633   9.453
 5733POPC   PO412276  38.446   6.692   9.153
 5733POPC   GL112277  38.501   6.640   8.853
 5733POPC   GL212278  38.578   6.582   8.853
 5733POPC   C1A12279  38.454   6.674   8.553
 5733POPC   D2A12280  38.453   6.660   8.253
 5733POPC   C3A12281  38.491   6.695   7.953
 5733POPC   C4A12282  38.416   6.670   7.653
 5733POPC   C1B12283  38.644   6.492   8.553
 5733POPC   C2B12284  38.648   6.545   8.253
 5733POPC   C3B12285  38.726   6.505   7.953
 5733POPC   C4B12286  38.723   6.551   7.653
 5734POPC   NC312287  33.758  38.405   9.453
 5734POPC   PO412288  33.783  38.406   9.153
 5734POPC   GL112289  33.794  38.442   8.853
 5734POPC   GL212290  33.876  38.547   8.853
 5734POPC   C1A12291  33.799  38.456   8.553
 5734POPC   D2A12292  33.779  38.440   8.253
 5734POPC   C3A12293  33.829  38.487   7.953
 5734POPC   C4A12294  33.800  38.492   7.653
 5734POPC   C1B12295  34.045  38.522   8.553
 5734POPC   C2B12296  34.046  38.591   8.253
 5734POPC   C3B12297  33.992  38.521   7.953
 5734POPC   C4B12298  33.991  38.583   7.653
 5735POPC   NC312299  44.667   0.477   9.453
 5735POPC   PO412300  44.644   0.464   9.153
 5735POPC   GL112301  44.673   0.423   8.853
 5735POPC   GL212302  44.774   0.557   8.853
 5735POPC   C1A12303  44.663   0.464   8.553
 5735POPC   D2A12304  44.661   0.400   8.253
 5735POPC   C3A12305  44.692   0.402   7.953
 5735POPC   C4A12306  44.712   0.471   7.653
 5735POPC   C1B12307  44.808   0.649   8.553
 5735POPC   C2B12308  44.812   0.597   8.253
 5735POPC   C3B12309  44.813   0.593   7.953
 5735POPC   C4B12310  44.836   0.636   7.653
 5736POPC   NC312311  32.279  43.919   9.453
 5736POPC   PO412312  32.232  43.860   9.153
 5736POPC   GL112313  32.277  43.916   8.853
 5736POPC   GL212314  32.240  44.016   8.853
 5736POPC   C1A12315  32.268  43.912   8.553
 5736POPC   D2A12316  32.298  43.857   8.253
 5736POPC   C3A12317  32.218  43.933   7.953
 5736POPC   C4A12318  32.214  43.926   7.653
 5736POPC   C1B12319  32.348  44.076   8.553
 5736POPC   C2B12320  32.300  44.077   8.253
 5736POPC   C3B12321  32.364  44.079   7.953
 5736POPC   C4B12322  32.358  44.096   7.653
 5737POPC   NC312323  25.240  43.869   9.453
 5737POPC   PO412324  25.271  43.893   9.153
 5737POPC   GL112325  25.298  43.905   8.853
 5737POPC   GL212326  25.368  43.813   8.853
 5737POPC   C1A12327  25.281  43.933   8.553
 5737POPC   D2A12328  25.253  43.921   8.253
 5737POPC   C3A12329  25.228  43.837   7.953
 5737POPC   C4A12330  25.265  43.847   7.653
 5737POPC   C1B12331  25.494  43.741   8.553
 5737POPC   C2B12332  25.493  43.729   8.253
 5737POPC   C3B12333  25.471  43.694   7.953
 5737POPC   C4B12334  25.494  43.735   7.653
 5738POPC   NC312335  44.640  32.277   9.453
 5738POPC   PO412336  44.656  32.267   9.153
 5738POPC   GL112337  44.657  32.224   8.853
 5738POPC   GL212338  44.638  32.101   8.853
 5738POPC   C1A12339  44.617  32.270   8.553
 5738POPC   D2A12340  44.703  32.202   8.253
 5738POPC   C3A12341  44.678  32.201   7.953
 5738POPC   C4A12342  44.684  32.237   7.653
 5738POPC   C1B12343  44.495  32.006   8.553
 5738POPC   C2B12344  44.477  32.069   8.253
 5738POPC   C3B12345  44.536  31.988   7.953
 5738POPC   C4B12346  44.514  31.994   7.653
 5739POPC   NC312347  20.604  40.818   9.453
 5739POPC   PO412348  20.568  40.804   9.153
 5739POPC   GL112349  20.648  40.769   8.853
 5739POPC   GL212350  20.437  40.768   8.853
 5739POPC   C1A12351  20.653  40.797   8.553
 5739POPC   D2A12352  20.627  40.791   8.253
 5739POPC   C3A12353  20.651  40.821   7.953
 5739POPC   C4A12354  20.610  40.773   7.653
 5739POPC   C1B12355  20.312  40.821   8.553
 5739POPC   C2B12356  20.348  40.854   8.253
 5739POPC   C3B12357  20.360  40.765   7.953
 5739POPC   C4B12358  20.363  40.812   7.653
 5740POPC   NC312359  16.776   1.237   9.453
 5740POPC   PO412360  16.779   1.201   9.153
 5740POPC   GL112361  16.719   1.221   8.853
 5740POPC   GL212362  16.636   1.307   8.853
 5740POPC   C1A12363  16.729   1.183   8.553
 5740POPC   D2A12364  16.771   1.248   8.253
 5740POPC   C3A12365  16.705   1.237   7.953
 5740POPC   C4A12366  16.750   1.257   7.653
 5740POPC   C1B12367  16.581   1.469   8.553
 5740POPC   C2B12368  16.562   1.464   8.253
 5740POPC   C3B12369  16.566   1.417   7.953
 5740POPC   C4B12370  16.546   1.428   7.653
 5741POPC   NC312371  39.201  26.780   9.453
 5741POPC   PO412372  39.202  26.833   9.153
 5741POPC   GL112373  39.272  26.839   8.853
 5741POPC   GL212374  39.121  26.868   8.853
 5741POPC   C1A12375  39.189  26.866   8.553
 5741POPC   D2A12376  39.218  26.853   8.253
 5741POPC   C3A12377  39.276  26.863   7.953
 5741POPC   C4A12378  39.208  26.788   7.653
 5741POPC   C1B12379  38.971  26.883   8.553
 5741POPC   C2B12380  38.997  26.861   8.253
 5741POPC   C3B12381  38.994  26.904   7.953
 5741POPC   C4B12382  39.035  26.831   7.653
 5742POPC   NC312383  32.261   1.962   9.453
 5742POPC   PO412384  32.201   2.030   9.153
 5742POPC   GL112385  32.239   1.959   8.853
 5742POPC   GL212386  32.196   2.080   8.853
 5742POPC   C1A12387  32.202   2.010   8.553
 5742POPC   D2A12388  32.202   1.993   8.253
 5742POPC   C3A12389  32.240   1.995   7.953
 5742POPC   C4A12390  32.265   1.997   7.653
 5742POPC   C1B12391  32.031   2.107   8.553
 5742POPC   C2B12392  32.011   2.201   8.253
 5742POPC   C3B12393  32.021   2.189   7.953
 5742POPC   C4B12394  32.040   2.153   7.653
 5743POPC   NC312395  24.506  29.889   9.453
 5743POPC   PO412396  24.495  29.950   9.153
 5743POPC   GL112397  24.533  29.946   8.853
 5743POPC   GL212398  24.456  30.011   8.853
 5743POPC   C1A12399  24.444  29.945   8.553
 5743POPC   D2A12400  24.537  29.905   8.253
 5743POPC   C3A12401  24.456  29.930   7.953
 5743POPC   C4A12402  24.488  29.917   7.653
 5743POPC   C1B12403  24.503  30.156   8.553
 5743POPC   C2B12404  24.523  30.123   8.253
 5743POPC   C3B12405  24.507  30.156   7.953
 5743POPC   C4B12406  24.475  30.203   7.653
 5744POPC   NC312407  39.208  32.223   9.453
 5744POPC   PO412408  39.255  32.224   9.153
 5744POPC   GL112409  39.192  32.223   8.853
 5744POPC   GL212410  39.324  32.224   8.853
 5744POPC   C1A12411  39.231  32.217   8.553
 5744POPC   D2A12412  39.243  32.213   8.253
 5744POPC   C3A12413  39.208  32.281   7.953
 5744POPC   C4A12414  39.269  32.221   7.653
 5744POPC   C1B12415  39.525  32.314   8.553
 5744POPC   C2B12416  39.475  32.302   8.253
 5744POPC   C3B12417  39.524  32.274   7.953
 5744POPC   C4B12418  39.504  32.226   7.653
 5745POPC   NC312419  23.678  25.233   9.453
 5745POPC   PO412420  23.734  25.239   9.153
 5745POPC   GL112421  23.666  25.224   8.853
 5745POPC   GL212422  23.796  25.311   8.853
 5745POPC   C1A12423  23.751  25.297   8.553
 5745POPC   D2A12424  23.697  25.262   8.253
 5745POPC   C3A12425  23.762  25.253   7.953
 5745POPC   C4A12426  23.698  25.311   7.653
 5745POPC   C1B12427  23.916  25.488   8.553
 5745POPC   C2B12428  23.863  25.455   8.253
 5745POPC   C3B12429  23.927  25.411   7.953
 5745POPC   C4B12430  23.869  25.403   7.653
 5746POPC   NC312431  14.366   9.785   9.453
 5746POPC   PO412432  14.389   9.786   9.153
 5746POPC   GL112433  14.366   9.752   8.853
 5746POPC   GL212434  14.495   9.704   8.853
 5746POPC   C1A12435  14.380   9.777   8.553
 5746POPC   D2A12436  14.423   9.731   8.253
 5746POPC   C3A12437  14.379   9.760   7.953
 5746POPC   C4A12438  14.370   9.719   7.653
 5746POPC   C1B12439  14.599   9.671   8.553
 5746POPC   C2B12440  14.596   9.709   8.253
 5746POPC   C3B12441  14.618   9.687   7.953
 5746POPC   C4B12442  14.650   9.651   7.653
 5747POPC   NC312443   0.455  39.258   9.453
 5747POPC   PO412444   0.410  39.276   9.153
 5747POPC   GL112445   0.442  39.213   8.853
 5747POPC   GL212446   0.538  39.291   8.853
 5747POPC   C1A12447   0.414  39.268   8.553
 5747POPC   D2A12448   0.417  39.212   8.253
 5747POPC   C3A12449   0.407  39.237   7.953
 5747POPC   C4A12450   0.397  39.210   7.653
 5747POPC   C1B12451   0.678  39.261   8.553
 5747POPC   C2B12452   0.713  39.288   8.253
 5747POPC   C3B12453   0.711  39.238   7.953
 5747POPC   C4B12454   0.728  39.211   7.653
 5748POPC   NC312455  41.603  29.181   9.453
 5748POPC   PO412456  41.546  29.147   9.153
 5748POPC   GL112457  41.515  29.148   8.853
 5748POPC   GL212458  41.676  29.229   8.853
 5748POPC   C1A12459  41.598  29.163   8.553
 5748POPC   D2A12460  41.572  29.108   8.253
 5748POPC   C3A12461  41.597  29.108   7.953
 5748POPC   C4A12462  41.559  29.141   7.653
 5748POPC   C1B12463  41.729  29.366   8.553
 5748POPC   C2B12464  41.717  29.290   8.253
 5748POPC   C3B12465  41.737  29.301   7.953
 5748POPC   C4B12466  41.771  29.287   7.653
 5749POPC   NC312467  15.177   7.454   9.453
 5749POPC   PO412468  15.130   7.440   9.153
 5749POPC   GL112469  15.138   7.399   8.853
 5749POPC   GL212470  15.097   7.537   8.853
 5749POPC   C1A12471  15.189   7.404   8.553
 5749POPC   D2A12472  15.146   7.392   8.253
 5749POPC   C3A12473  15.220   7.451   7.953
 5749POPC   C4A12474  15.166   7.434   7.653
 5749POPC   C1B12475  15.087   7.668   8.553
 5749POPC   C2B12476  15.005   7.657   8.253
 5749POPC   C3B12477  15.002   7.636   7.953
 5749POPC   C4B12478  15.015   7.658   7.653
 5750POPC   NC312479   8.197  39.203   9.453
 5750POPC   PO412480   8.236  39.272   9.153
 5750POPC   GL112481   8.246  39.208   8.853
 5750POPC   GL212482   8.227  39.088   8.853
 5750POPC   C1A12483   8.187  39.261   8.553
 5750POPC   D2A12484   8.156  39.250   8.253
 5750POPC   C3A12485   8.175  39.239   7.953
 5750POPC   C4A12486   8.179  39.227   7.653
 5750POPC   C1B12487   8.356  38.963   8.553
 5750POPC   C2B12488   8.265  39.022   8.253
 5750POPC   C3B12489   8.279  38.985   7.953
 5750POPC   C4B12490   8.267  39.054   7.653
 5751POPC   NC312491   5.861  25.277   9.453
 5751POPC   PO412492   5.855  25.310   9.153
 5751POPC   GL112493   5.822  25.227   8.853
 5751POPC   GL212494   5.962  25.294   8.853
 5751POPC   C1A12495   5.847  25.302   8.553
 5751POPC   D2A12496   5.881  25.256   8.253
 5751POPC   C3A12497   5.891  25.283   7.953
 5751POPC   C4A12498   5.913  25.284   7.653
 5751POPC   C1B12499   6.126  25.395   8.553
 5751POPC   C2B12500   6.099  25.347   8.253
 5751POPC   C3B12501   6.130  25.432   7.953
 5751POPC   C4B12502   6.074  25.416   7.653
 5752POPC   NC312503  44.667   5.074   9.453
 5752POPC   PO412504  44.623   5.087   9.153
 5752POPC   GL112505  44.707   5.092   8.853
 5752POPC   GL212506  44.751   5.019   8.853
 5752POPC   C1A12507  44.632   5.066   8.553
 5752POPC   D2A12508  44.702   5.143   8.253
 5752POPC   C3A12509  44.687   5.118   7.953
 5752POPC   C4A12510  44.625   5.047   7.653
 5752POPC   C1B12511  44.715   4.869   8.553
 5752POPC   C2B12512  44.727   4.904   8.253
 5752POPC   C3B12513  44.710   4.905   7.953
 5752POPC   C4B12514  44.725   4.873   7.653
 5753POPC   NC312515  38.423  19.845   9.453
 5753POPC   PO412516  38.444  19.879   9.153
 5753POPC   GL112517  38.423  19.841   8.853
 5753POPC   GL212518  38.346  19.859   8.853
 5753POPC   C1A12519  38.419  19.819   8.553
 5753POPC   D2A12520  38.457  19.802   8.253
 5753POPC   C3A12521  38.406  19.811   7.953
 5753POPC   C4A12522  38.441  19.814   7.653
 5753POPC   C1B12523  38.183  19.937   8.553
 5753POPC   C2B12524  38.256  19.931   8.253
 5753POPC   C3B12525  38.263  19.878   7.953
 5753POPC   C4B12526  38.211  19.961   7.653
 5754POPC   NC312527  10.503   7.458   9.453
 5754POPC   PO412528  10.538   7.399   9.153
 5754POPC   GL112529  10.552   7.441   8.853
 5754POPC   GL212530  10.646   7.381   8.853
 5754POPC   C1A12531  10.545   7.386   8.553
 5754POPC   D2A12532  10.523   7.422   8.253
 5754POPC   C3A12533  10.519   7.420   7.953
 5754POPC   C4A12534  10.477   7.451   7.653
 5754POPC   C1B12535  10.724   7.287   8.553
 5754POPC   C2B12536  10.744   7.318   8.253
 5754POPC   C3B12537  10.731   7.278   7.953
 5754POPC   C4B12538  10.712   7.262   7.653
 5755POPC   NC312539   6.651  39.250   9.453
 5755POPC   PO412540   6.615  39.213   9.153
 5755POPC   GL112541   6.691  39.231   8.853
 5755POPC   GL212542   6.489  39.265   8.853
 5755POPC   C1A12543   6.658  39.215   8.553
 5755POPC   D2A12544   6.657  39.182   8.253
 5755POPC   C3A12545   6.690  39.247   7.953
 5755POPC   C4A12546   6.665  39.196   7.653
 5755POPC   C1B12547   6.462  39.318   8.553
 5755POPC   C2B12548   6.459  39.407   8.253
 5755POPC   C3B12549   6.471  39.387   7.953
 5755POPC   C4B12550   6.457  39.323   7.653
 5756POPC   NC312551  12.835   0.469   9.453
 5756POPC   PO412552  12.872   0.473   9.153
 5756POPC   GL112553  12.822   0.398   8.853
 5756POPC   GL212554  12.937   0.443   8.853
 5756POPC   C1A12555  12.896   0.484   8.553
 5756POPC   D2A12556  12.842   0.425   8.253
 5756POPC   C3A12557  12.853   0.418   7.953
 5756POPC   C4A12558  12.837   0.442   7.653
 5756POPC   C1B12559  13.091   0.552   8.553
 5756POPC   C2B12560  13.107   0.486   8.253
 5756POPC   C3B12561  13.072   0.555   7.953
 5756POPC   C4B12562  13.074   0.467   7.653
 5757POPC   NC312563  19.795  39.238   9.453
 5757POPC   PO412564  19.884  39.244   9.153
 5757POPC   GL112565  19.803  39.222   8.853
 5757POPC   GL212566  19.730  39.182   8.853
 5757POPC   C1A12567  19.848  39.229   8.553
 5757POPC   D2A12568  19.792  39.229   8.253
 5757POPC   C3A12569  19.821  39.274   7.953
 5757POPC   C4A12570  19.854  39.194   7.653
 5757POPC   C1B12571  19.585  39.227   8.553
 5757POPC   C2B12572  19.572  39.255   8.253
 5757POPC   C3B12573  19.555  39.235   7.953
 5757POPC   C4B12574  19.600  39.248   7.653
 5758POPC   NC312575  24.461   4.315   9.453
 5758POPC   PO412576  24.493   4.272   9.153
 5758POPC   GL112577  24.513   4.325   8.853
 5758POPC   GL212578  24.450   4.182   8.853
 5758POPC   C1A12579  24.448   4.354   8.553
 5758POPC   D2A12580  24.469   4.359   8.253
 5758POPC   C3A12581  24.533   4.310   7.953
 5758POPC   C4A12582  24.446   4.278   7.653
 5758POPC   C1B12583  24.337   4.129   8.553
 5758POPC   C2B12584  24.345   4.109   8.253
 5758POPC   C3B12585  24.388   4.086   7.953
 5758POPC   C4B12586  24.347   4.082   7.653
 5759POPC   NC312587   1.235  22.132   9.453
 5759POPC   PO412588   1.190  22.127   9.153
 5759POPC   GL112589   1.221  22.137   8.853
 5759POPC   GL212590   1.163  22.007   8.853
 5759POPC   C1A12591   1.196  22.208   8.553
 5759POPC   D2A12592   1.206  22.155   8.253
 5759POPC   C3A12593   1.241  22.143   7.953
 5759POPC   C4A12594   1.229  22.211   7.653
 5759POPC   C1B12595   1.169  21.968   8.553
 5759POPC   C2B12596   1.154  21.881   8.253
 5759POPC   C3B12597   1.093  21.928   7.953
 5759POPC   C4B12598   1.122  21.929   7.653
 5760POPC   NC312599   1.954  22.197   9.453
 5760POPC   PO412600   2.009  22.176   9.153
 5760POPC   GL112601   2.000  22.203   8.853
 5760POPC   GL212602   2.026  22.307   8.853
 5760POPC   C1A12603   1.987  22.146   8.553
 5760POPC   D2A12604   1.963  22.192   8.253
 5760POPC   C3A12605   2.013  22.165   7.953
 5760POPC   C4A12606   1.969  22.173   7.653
 5760POPC   C1B12607   1.999  22.405   8.553
 5760POPC   C2B12608   1.983  22.460   8.253
 5760POPC   C3B12609   2.004  22.380   7.953
 5760POPC   C4B12610   1.988  22.379   7.653
 5761POPC   NC312611  13.584  35.366   9.453
 5761POPC   PO412612  13.589  35.345   9.153
 5761POPC   GL112613  13.625  35.304   8.853
 5761POPC   GL212614  13.697  35.437   8.853
 5761POPC   C1A12615  13.597  35.359   8.553
 5761POPC   D2A12616  13.612  35.352   8.253
 5761POPC   C3A12617  13.595  35.366   7.953
 5761POPC   C4A12618  13.662  35.394   7.653
 5761POPC   C1B12619  13.808  35.453   8.553
 5761POPC   C2B12620  13.882  35.516   8.253
 5761POPC   C3B12621  13.859  35.480   7.953
 5761POPC   C4B12622  13.827  35.516   7.653
 5762POPC   NC312623  41.556  31.436   9.453
 5762POPC   PO412624  41.522  31.498   9.153
 5762POPC   GL112625  41.598  31.498   8.853
 5762POPC   GL212626  41.570  31.614   8.853
 5762POPC   C1A12627  41.523  31.486   8.553
 5762POPC   D2A12628  41.577  31.493   8.253
 5762POPC   C3A12629  41.541  31.433   7.953
 5762POPC   C4A12630  41.510  31.449   7.653
 5762POPC   C1B12631  41.542  31.680   8.553
 5762POPC   C2B12632  41.473  31.754   8.253
 5762POPC   C3B12633  41.505  31.717   7.953
 5762POPC   C4B12634  41.477  31.760   7.653
 5763POPC   NC312635   7.419  18.296   9.453
 5763POPC   PO412636   7.431  18.313   9.153
 5763POPC   GL112637   7.408  18.236   8.853
 5763POPC   GL212638   7.431  18.359   8.853
 5763POPC   C1A12639   7.406  18.301   8.553
 5763POPC   D2A12640   7.371  18.237   8.253
 5763POPC   C3A12641   7.375  18.251   7.953
 5763POPC   C4A12642   7.384  18.325   7.653
 5763POPC   C1B12643   7.470  18.526   8.553
 5763POPC   C2B12644   7.433  18.575   8.253
 5763POPC   C3B12645   7.448  18.493   7.953
 5763POPC   C4B12646   7.453  18.568   7.653
 5764POPC   NC312647  13.584   8.989   9.453
 5764POPC   PO412648  13.583   9.019   9.153
 5764POPC   GL112649  13.642   9.008   8.853
 5764POPC   GL212650  13.565   8.832   8.853
 5764POPC   C1A12651  13.673   8.977   8.553
 5764POPC   D2A12652  13.632   8.982   8.253
 5764POPC   C3A12653  13.628   8.952   7.953
 5764POPC   C4A12654  13.658   8.961   7.653
 5764POPC   C1B12655  13.462   8.737   8.553
 5764POPC   C2B12656  13.450   8.748   8.253
 5764POPC   C3B12657  13.482   8.787   7.953
 5764POPC   C4B12658  13.419   8.761   7.653
 5765POPC   NC312659  29.965  19.801   9.453
 5765POPC   PO412660  29.935  19.884   9.153
 5765POPC   GL112661  29.949  19.871   8.853
 5765POPC   GL212662  29.945  19.998   8.853
 5765POPC   C1A12663  29.951  19.826   8.553
 5765POPC   D2A12664  29.898  19.840   8.253
 5765POPC   C3A12665  29.931  19.836   7.953
 5765POPC   C4A12666  29.895  19.789   7.653
 5765POPC   C1B12667  29.977  20.102   8.553
 5765POPC   C2B12668  29.955  20.085   8.253
 5765POPC   C3B12669  29.953  20.049   7.953
 5765POPC   C4B12670  30.028  20.112   7.653
 5766POPC   NC312671   2.760  35.326   9.453
 5766POPC   PO412672   2.733  35.381   9.153
 5766POPC   GL112673   2.750  35.364   8.853
 5766POPC   GL212674   2.911  35.272   8.853
 5766POPC   C1A12675   2.800  35.343   8.553
 5766POPC   D2A12676   2.780  35.395   8.253
 5766POPC   C3A12677   2.771  35.345   7.953
 5766POPC   C4A12678   2.799  35.387   7.653
 5766POPC   C1B12679   2.970  35.303   8.553
 5766POPC   C2B12680   2.986  35.314   8.253
 5766POPC   C3B12681   2.985  35.289   7.953
 5766POPC   C4B12682   2.959  35.234   7.653
 5767POPC   NC312683  24.533  42.350   9.453
 5767POPC   PO412684  24.526  42.377   9.153
 5767POPC   GL112685  24.500  42.377   8.853
 5767POPC   GL212686  24.462  42.491   8.853
 5767POPC   C1A12687  24.469  42.359   8.553
 5767POPC   D2A12688  24.525  42.342   8.253
 5767POPC   C3A12689  24.441  42.349   7.953
 5767POPC   C4A12690  24.524  42.329   7.653
 5767POPC   C1B12691  24.498  42.580   8.553
 5767POPC   C2B12692  24.566  42.551   8.253
 5767POPC   C3B12693  24.555  42.605   7.953
 5767POPC   C4B12694  24.522  42.599   7.653
 5768POPC   NC312695   4.292  37.658   9.453
 5768POPC   PO412696   4.350  37.634   9.153
 5768POPC   GL112697   4.285  37.678   8.853
 5768POPC   GL212698   4.332  37.581   8.853
 5768POPC   C1A12699   4.321  37.680   8.553
 5768POPC   D2A12700   4.281  37.718   8.253
 5768POPC   C3A12701   4.313  37.634   7.953
 5768POPC   C4A12702   4.367  37.705   7.653
 5768POPC   C1B12703   4.432  37.437   8.553
 5768POPC   C2B12704   4.458  37.500   8.253
 5768POPC   C3B12705   4.450  37.459   7.953
 5768POPC   C4B12706   4.388  37.423   7.653
 5769POPC   NC312707  19.030  39.242   9.453
 5769POPC   PO412708  19.054  39.232   9.153
 5769POPC   GL112709  19.028  39.211   8.853
 5769POPC   GL212710  19.156  39.259   8.853
 5769POPC   C1A12711  19.026  39.247   8.553
 5769POPC   D2A12712  19.010  39.194   8.253
 5769POPC   C3A12713  19.064  39.209   7.953
 5769POPC   C4A12714  19.010  39.221   7.653
 5769POPC   C1B12715  19.268  39.314   8.553
 5769POPC   C2B12716  19.301  39.382   8.253
 5769POPC   C3B12717  19.265  39.378   7.953
 5769POPC   C4B12718  19.321  39.373   7.653
 5770POPC   NC312719   1.199  36.158   9.453
 5770POPC   PO412720   1.237  36.174   9.153
 5770POPC   GL112721   1.237  36.105   8.853
 5770POPC   GL212722   1.289  36.159   8.853
 5770POPC   C1A12723   1.247  36.089   8.553
 5770POPC   D2A12724   1.217  36.091   8.253
 5770POPC   C3A12725   1.226  36.111   7.953
 5770POPC   C4A12726   1.200  36.119   7.653
 5770POPC   C1B12727   1.395  36.297   8.553
 5770POPC   C2B12728   1.439  36.287   8.253
 5770POPC   C3B12729   1.429  36.298   7.953
 5770POPC   C4B12730   1.381  36.298   7.653
 5771POPC   NC312731   7.456   8.936   9.453
 5771POPC   PO412732   7.398   8.925   9.153
 5771POPC   GL112733   7.439   8.937   8.853
 5771POPC   GL212734   7.488   9.059   8.853
 5771POPC   C1A12735   7.412   8.961   8.553
 5771POPC   D2A12736   7.400   8.990   8.253
 5771POPC   C3A12737   7.451   8.998   7.953
 5771POPC   C4A12738   7.432   8.958   7.653
 5771POPC   C1B12739   7.484   9.224   8.553
 5771POPC   C2B12740   7.532   9.250   8.253
 5771POPC   C3B12741   7.520   9.217   7.953
 5771POPC   C4B12742   7.446   9.255   7.653
 5772POPC   NC312743   8.157   6.636   9.453
 5772POPC   PO412744   8.224   6.662   9.153
 5772POPC   GL112745   8.188   6.678   8.853
 5772POPC   GL212746   8.280   6.562   8.853
 5772POPC   C1A12747   8.229   6.632   8.553
 5772POPC   D2A12748   8.215   6.659   8.253
 5772POPC   C3A12749   8.173   6.686   7.953
 5772POPC   C4A12750   8.167   6.646   7.653
 5772POPC   C1B12751   8.450   6.549   8.553
 5772POPC   C2B12752   8.373   6.581   8.253
 5772POPC   C3B12753   8.395   6.521   7.953
 5772POPC   C4B12754   8.387   6.558   7.653
 5773POPC   NC312755  29.898  43.110   9.453
 5773POPC   PO412756  29.930  43.081   9.153
 5773POPC   GL112757  29.906  43.138   8.853
 5773POPC   GL212758  29.954  43.193   8.853
 5773POPC   C1A12759  29.880  43.147   8.553
 5773POPC   D2A12760  29.922  43.086   8.253
 5773POPC   C3A12761  29.881  43.092   7.953
 5773POPC   C4A12762  29.894  43.132   7.653
 5773POPC   C1B12763  30.099  43.323   8.553
 5773POPC   C2B12764  30.100  43.327   8.253
 5773POPC   C3B12765  30.056  43.339   7.953
 5773POPC   C4B12766  30.130  43.288   7.653
 5774POPC   NC312767   5.910  19.058   9.453
 5774POPC   PO412768   5.859  19.086   9.153
 5774POPC   GL112769   5.847  19.062   8.853
 5774POPC   GL212770   5.955  19.034   8.853
 5774POPC   C1A12771   5.857  19.037   8.553
 5774POPC   D2A12772   5.845  19.042   8.253
 5774POPC   C3A12773   5.848  19.011   7.953
 5774POPC   C4A12774   5.849  19.063   7.653
 5774POPC   C1B12775   6.084  19.000   8.553
 5774POPC   C2B12776   6.111  18.976   8.253
 5774POPC   C3B12777   6.096  18.963   7.953
 5774POPC   C4B12778   6.082  18.969   7.653
 5775POPC   NC312779  15.956   0.406   9.453
 5775POPC   PO412780  16.002   0.421   9.153
 5775POPC   GL112781  15.906   0.433   8.853
 5775POPC   GL212782  16.044   0.328   8.853
 5775POPC   C1A12783  15.951   0.397   8.553
 5775POPC   D2A12784  15.961   0.469   8.253
 5775POPC   C3A12785  15.956   0.436   7.953
 5775POPC   C4A12786  16.003   0.410   7.653
 5775POPC   C1B12787  16.035   0.216   8.553
 5775POPC   C2B12788  16.099   0.213   8.253
 5775POPC   C3B12789  16.081   0.234   7.953
 5775POPC   C4B12790  16.097   0.177   7.653
 5776POPC   NC312791  10.485  16.000   9.453
 5776POPC   PO412792  10.502  15.915   9.153
 5776POPC   GL112793  10.539  15.933   8.853
 5776POPC   GL212794  10.430  15.828   8.853
 5776POPC   C1A12795  10.523  15.941   8.553
 5776POPC   D2A12796  10.486  15.909   8.253
 5776POPC   C3A12797  10.492  15.940   7.953
 5776POPC   C4A12798  10.529  15.944   7.653
 5776POPC   C1B12799  10.359  15.761   8.553
 5776POPC   C2B12800  10.372  15.802   8.253
 5776POPC   C3B12801  10.405  15.735   7.953
 5776POPC   C4B12802  10.337  15.793   7.653
 5777POPC   NC312803  16.755  43.863   9.453
 5777POPC   PO412804  16.780  43.925   9.153
 5777POPC   GL112805  16.702  43.920   8.853
 5777POPC   GL212806  16.794  43.813   8.853
 5777POPC   C1A12807  16.718  43.865   8.553
 5777POPC   D2A12808  16.704  43.870   8.253
 5777POPC   C3A12809  16.719  43.857   7.953
 5777POPC   C4A12810  16.742  43.837   7.653
 5777POPC   C1B12811  16.830  43.670   8.553
 5777POPC   C2B12812  16.861  43.697   8.253
 5777POPC   C3B12813  16.792  43.690   7.953
 5777POPC   C4B12814  16.783  43.659   7.653
 5778POPC   NC312815   4.340  32.250   9.453
 5778POPC   PO412816   4.306  32.262   9.153
 5778POPC   GL112817   4.310  32.273   8.853
 5778POPC   GL212818   4.326  32.094   8.853
 5778POPC   C1A12819   4.325  32.267   8.553
 5778POPC   D2A12820   4.302  32.206   8.253
 5778POPC   C3A12821   4.278  32.239   7.953
 5778POPC   C4A12822   4.340  32.215   7.653
 5778POPC   C1B12823   4.320  32.017   8.553
 5778POPC   C2B12824   4.320  31.972   8.253
 5778POPC   C3B12825   4.319  31.976   7.953
 5778POPC   C4B12826   4.305  31.962   7.653
 5779POPC   NC312827  34.564  19.833   9.453
 5779POPC   PO412828  34.607  19.869   9.153
 5779POPC   GL112829  34.548  19.802   8.853
 5779POPC   GL212830  34.720  19.916   8.853
 5779POPC   C1A12831  34.590  19.825   8.553
 5779POPC   D2A12832  34.561  19.870   8.253
 5779POPC   C3A12833  34.535  19.790   7.953
 5779POPC   C4A12834  34.619  19.785   7.653
 5779POPC   C1B12835  34.789  19.924   8.553
 5779POPC   C2B12836  34.782  19.900   8.253
 5779POPC   C3B12837  34.849  19.893   7.953
 5779POPC   C4B12838  34.836  19.905   7.653
 5780POPC   NC312839  22.961   5.866   9.453
 5780POPC   PO412840  22.911   5.848   9.153
 5780POPC   GL112841  22.974   5.898   8.853
 5780POPC   GL212842  23.083   5.829   8.853
 5780POPC   C1A12843  22.946   5.824   8.553
 5780POPC   D2A12844  22.965   5.894   8.253
 5780POPC   C3A12845  22.946   5.889   7.953
 5780POPC   C4A12846  22.910   5.886   7.653
 5780POPC   C1B12847  23.156   5.809   8.553
 5780POPC   C2B12848  23.227   5.806   8.253
 5780POPC   C3B12849  23.180   5.868   7.953
 5780POPC   C4B12850  23.144   5.875   7.653
 5781POPC   NC312851  44.671  36.893   9.453
 5781POPC   PO412852  44.612  36.904   9.153
 5781POPC   GL112853  44.636  36.944   8.853
 5781POPC   GL212854  44.597  36.815   8.853
 5781POPC   C1A12855  44.658  36.884   8.553
 5781POPC   D2A12856  44.629  36.856   8.253
 5781POPC   C3A12857  44.658  36.866   7.953
 5781POPC   C4A12858  44.702  36.946   7.653
 5781POPC   C1B12859  44.605  36.702   8.553
 5781POPC   C2B12860  44.542  36.686   8.253
 5781POPC   C3B12861  44.531  36.620   7.953
 5781POPC   C4B12862  44.611  36.637   7.653
 5782POPC   NC312863  13.621   4.335   9.453
 5782POPC   PO412864  13.619   4.334   9.153
 5782POPC   GL112865  13.624   4.299   8.853
 5782POPC   GL212866  13.577   4.163   8.853
 5782POPC   C1A12867  13.664   4.317   8.553
 5782POPC   D2A12868  13.668   4.315   8.253
 5782POPC   C3A12869  13.612   4.322   7.953
 5782POPC   C4A12870  13.663   4.281   7.653
 5782POPC   C1B12871  13.592   4.054   8.553
 5782POPC   C2B12872  13.600   4.089   8.253
 5782POPC   C3B12873  13.506   4.105   7.953
 5782POPC   C4B12874  13.565   4.111   7.653
 5783POPC   NC312875   4.312  27.559   9.453
 5783POPC   PO412876   4.269  27.593   9.153
 5783POPC   GL112877   4.279  27.632   8.853
 5783POPC   GL212878   4.232  27.564   8.853
 5783POPC   C1A12879   4.271  27.559   8.553
 5783POPC   D2A12880   4.301  27.637   8.253
 5783POPC   C3A12881   4.312  27.637   7.953
 5783POPC   C4A12882   4.278  27.624   7.653
 5783POPC   C1B12883   4.134  27.451   8.553
 5783POPC   C2B12884   4.064  27.469   8.253
 5783POPC   C3B12885   4.100  27.419   7.953
 5783POPC   C4B12886   4.067  27.427   7.653
 5784POPC   NC312887  39.260  29.966   9.453
 5784POPC   PO412888  39.200  29.922   9.153
 5784POPC   GL112889  39.219  29.928   8.853
 5784POPC   GL212890  39.318  29.919   8.853
 5784POPC   C1A12891  39.229  29.876   8.553
 5784POPC   D2A12892  39.250  29.894   8.253
 5784POPC   C3A12893  39.266  29.900   7.953
 5784POPC   C4A12894  39.264  29.926   7.653
 5784POPC   C1B12895  39.519  29.956   8.553
 5784POPC   C2B12896  39.448  30.029   8.253
 5784POPC   C3B12897  39.441  29.988   7.953
 5784POPC   C4B12898  39.508  29.970   7.653
 5785POPC   NC312899  25.235  15.967   9.453
 5785POPC   PO412900  25.269  15.962   9.153
 5785POPC   GL112901  25.231  15.948   8.853
 5785POPC   GL212902  25.381  15.914   8.853
 5785POPC   C1A12903  25.277  15.977   8.553
 5785POPC   D2A12904  25.261  15.907   8.253
 5785POPC   C3A12905  25.243  15.983   7.953
 5785POPC   C4A12906  25.249  15.917   7.653
 5785POPC   C1B12907  25.491  15.899   8.553
 5785POPC   C2B12908  25.523  15.868   8.253
 5785POPC   C3B12909  25.527  15.910   7.953
 5785POPC   C4B12910  25.519  15.899   7.653
 5786POPC   NC312911   8.189  15.197   9.453
 5786POPC   PO412912   8.198  15.163   9.153
 5786POPC   GL112913   8.219  15.145   8.853
 5786POPC   GL212914   8.357  15.232   8.853
 5786POPC   C1A12915   8.171  15.132   8.553
 5786POPC   D2A12916   8.221  15.164   8.253
 5786POPC   C3A12917   8.170  15.152   7.953
 5786POPC   C4A12918   8.227  15.169   7.653
 5786POPC   C1B12919   8.479  15.188   8.553
 5786POPC   C2B12920   8.410  15.224   8.253
 5786POPC   C3B12921   8.425  15.181   7.953
 5786POPC   C4B12922   8.453  15.218   7.653
 5787POPC   NC312923   9.776  26.067   9.453
 5787POPC   PO412924   9.724  26.026   9.153
 5787POPC   GL112925   9.777  26.081   8.853
 5787POPC   GL212926   9.714  25.891   8.853
 5787POPC   C1A12927   9.723  26.016   8.553
 5787POPC   D2A12928   9.770  26.088   8.253
 5787POPC   C3A12929   9.798  26.023   7.953
 5787POPC   C4A12930   9.772  26.017   7.653
 5787POPC   C1B12931   9.620  25.848   8.553
 5787POPC   C2B12932   9.629  25.779   8.253
 5787POPC   C3B12933   9.639  25.784   7.953
 5787POPC   C4B12934   9.697  25.763   7.653
 5788POPC   NC312935  10.548   9.731   9.453
 5788POPC   PO412936  10.494   9.741   9.153
 5788POPC   GL112937  10.540   9.712   8.853
 5788POPC   GL212938  10.506   9.886   8.853
 5788POPC   C1A12939  10.481   9.782   8.553
 5788POPC   D2A12940  10.542   9.748   8.253
 5788POPC   C3A12941  10.528   9.741   7.953
 5788POPC   C4A12942  10.546   9.765   7.653
 5788POPC   C1B12943  10.401   9.937   8.553
 5788POPC   C2B12944  10.462  10.022   8.253
 5788POPC   C3B12945  10.474   9.939   7.953
 5788POPC   C4B12946  10.429   9.937   7.653
 5789POPC   NC312947  35.307  43.897   9.453
 5789POPC   PO412948  35.359  43.866   9.153
 5789POPC   GL112949  35.364  43.870   8.853
 5789POPC   GL212950  35.274  43.773   8.853
 5789POPC   C1A12951  35.346  43.915   8.553
 5789POPC   D2A12952  35.315  43.902   8.253
 5789POPC   C3A12953  35.325  43.876   7.953
 5789POPC   C4A12954  35.340  43.922   7.653
 5789POPC   C1B12955  35.166  43.668   8.553
 5789POPC   C2B12956  35.127  43.662   8.253
 5789POPC   C3B12957  35.167  43.683   7.953
 5789POPC   C4B12958  35.207  43.738   7.653
 5790POPC   NC312959   2.023  12.043   9.453
 5790POPC   PO412960   1.992  12.034   9.153
 5790POPC   GL112961   1.949  12.035   8.853
 5790POPC   GL212962   2.038  11.977   8.853
 5790POPC   C1A12963   1.970  12.049   8.553
 5790POPC   D2A12964   1.974  12.086   8.253
 5790POPC   C3A12965   2.010  12.114   7.953
 5790POPC   C4A12966   2.036  12.113   7.653
 5790POPC   C1B12967   2.169  11.919   8.553
 5790POPC   C2B12968   2.137  11.881   8.253
 5790POPC   C3B12969   2.112  11.876   7.953
 5790POPC   C4B12970   2.153  11.874   7.653
 5791POPC   NC312971  33.051   1.263   9.453
 5791POPC   PO412972  33.055   1.197   9.153
 5791POPC   GL112973  33.062   1.180   8.853
 5791POPC   GL212974  32.938   1.065   8.853
 5791POPC   C1A12975  32.991   1.209   8.553
 5791POPC   D2A12976  33.047   1.180   8.253
 5791POPC   C3A12977  33.049   1.184   7.953
 5791POPC   C4A12978  33.047   1.255   7.653
 5791POPC   C1B12979  32.865   0.974   8.553
 5791POPC   C2B12980  32.914   0.971   8.253
 5791POPC   C3B12981  32.896   0.993   7.953
 5791POPC   C4B12982  32.878   0.959   7.653
 5792POPC   NC312983  12.808  30.729   9.453
 5792POPC   PO412984  12.842  30.682   9.153
 5792POPC   GL112985  12.849  30.729   8.853
 5792POPC   GL212986  12.897  30.768   8.853
 5792POPC   C1A12987  12.883  30.703   8.553
 5792POPC   D2A12988  12.803  30.653   8.253
 5792POPC   C3A12989  12.872  30.739   7.953
 5792POPC   C4A12990  12.814  30.661   7.653
 5792POPC   C1B12991  13.063  30.895   8.553
 5792POPC   C2B12992  13.017  30.904   8.253
 5792POPC   C3B12993  13.068  30.912   7.953
 5792POPC   C4B12994  13.045  30.873   7.653
 5793POPC   NC312995  43.916  43.859   9.453
 5793POPC   PO412996  43.851  43.839   9.153
 5793POPC   GL112997  43.887  43.883   8.853
 5793POPC   GL212998  44.008  43.834   8.853
 5793POPC   C1A12999  43.906  43.930   8.553
 5793POPC   D2A13000  43.861  43.894   8.253
 5793POPC   C3A13001  43.893  43.867   7.953
 5793POPC   C4A13002  43.857  43.907   7.653
 5793POPC   C1B13003  44.052  43.802   8.553
 5793POPC   C2B13004  44.129  43.804   8.253
 5793POPC   C3B13005  44.133  43.742   7.953
 5793POPC   C4B13006  44.110  43.730   7.653
 5794POPC   NC313007  28.335  27.624   9.453
 5794POPC   PO413008  28.330  27.641   9.153
 5794POPC   GL113009  28.347  27.600   8.853
 5794POPC   GL213010  28.510  27.643   8.853
 5794POPC   C1A13011  28.402  27.558   8.553
 5794POPC   D2A13012  28.367  27.552   8.253
 5794POPC   C3A13013  28.337  27.547   7.953
 5794POPC   C4A13014  28.319  27.577   7.653
 5794POPC   C1B13015  28.613  27.649   8.553
 5794POPC   C2B13016  28.633  27.669   8.253
 5794POPC   C3B13017  28.606  27.736   7.953
 5794POPC   C4B13018  28.551  27.731   7.653
 5795POPC   NC313019  18.320   0.421   9.453
 5795POPC   PO413020  18.327   0.403   9.153
 5795POPC   GL113021  18.234   0.431   8.853
 5795POPC   GL213022  18.271   0.318   8.853
 5795POPC   C1A13023  18.277   0.456   8.553
 5795POPC   D2A13024  18.293   0.474   8.253
 5795POPC   C3A13025  18.256   0.464   7.953
 5795POPC   C4A13026  18.321   0.465   7.653
 5795POPC   C1B13027  18.349   0.193   8.553
 5795POPC   C2B13028  18.349   0.192   8.253
 5795POPC   C3B13029  18.309   0.180   7.953
 5795POPC   C4B13030  18.311   0.190   7.653
 5796POPC   NC313031  18.322  21.433   9.453
 5796POPC   PO413032  18.307  21.410   9.153
 5796POPC   GL113033  18.327  21.414   8.853
 5796POPC   GL213034  18.285  21.313   8.853
 5796POPC   C1A13035  18.246  21.366   8.553
 5796POPC   D2A13036  18.292  21.434   8.253
 5796POPC   C3A13037  18.234  21.415   7.953
 5796POPC   C4A13038  18.247  21.370   7.653
 5796POPC   C1B13039  18.315  21.123   8.553
 5796POPC   C2B13040  18.315  21.152   8.253
 5796POPC   C3B13041  18.368  21.126   7.953
 5796POPC   C4B13042  18.331  21.094   7.653
 5797POPC   NC313043  12.806   7.427   9.453
 5797POPC   PO413044  12.829   7.403   9.153
 5797POPC   GL113045  12.839   7.397   8.853
 5797POPC   GL213046  12.819   7.354   8.853
 5797POPC   C1A13047  12.812   7.416   8.553
 5797POPC   D2A13048  12.802   7.424   8.253
 5797POPC   C3A13049  12.841   7.446   7.953
 5797POPC   C4A13050  12.883   7.432   7.653
 5797POPC   C1B13051  12.762   7.218   8.553
 5797POPC   C2B13052  12.770   7.148   8.253
 5797POPC   C3B13053  12.710   7.165   7.953
 5797POPC   C4B13054  12.751   7.242   7.653
 5798POPC   NC313055   8.224  15.955   9.453
 5798POPC   PO413056   8.152  15.944   9.153
 5798POPC   GL113057   8.201  15.945   8.853
 5798POPC   GL213058   8.111  16.016   8.853
 5798POPC   C1A13059   8.244  15.961   8.553
 5798POPC   D2A13060   8.196  15.989   8.253
 5798POPC   C3A13061   8.206  15.961   7.953
 5798POPC   C4A13062   8.205  15.928   7.653
 5798POPC   C1B13063   7.931  16.009   8.553
 5798POPC   C2B13064   7.956  16.025   8.253
 5798POPC   C3B13065   7.989  16.077   7.953
 5798POPC   C4B13066   7.940  16.048   7.653
 5799POPC   NC313067  33.039  24.522   9.453
 5799POPC   PO413068  33.039  24.485   9.153
 5799POPC   GL113069  33.026  24.525   8.853
 5799POPC   GL213070  33.105  24.616   8.853
 5799POPC   C1A13071  32.990  24.534   8.553
 5799POPC   D2A13072  33.023  24.502   8.253
 5799POPC   C3A13073  33.068  24.519   7.953
 5799POPC   C4A13074  32.984  24.456   7.653
 5799POPC   C1B13075  33.233  24.639   8.553
 5799POPC   C2B13076  33.215  24.630   8.253
 5799POPC   C3B13077  33.211  24.641   7.953
 5799POPC   C4B13078  33.196  24.718   7.653
 5800POPC   NC313079  29.115  25.278   9.453
 5800POPC   PO413080  29.163  25.303   9.153
 5800POPC   GL113081  29.184  25.303   8.853
 5800POPC   GL213082  29.203  25.300   8.853
 5800POPC   C1A13083  29.125  25.270   8.553
 5800POPC   D2A13084  29.119  25.257   8.253
 5800POPC   C3A13085  29.101  25.283   7.953
 5800POPC   C4A13086  29.125  25.261   7.653
 5800POPC   C1B13087  29.395  25.379   8.553
 5800POPC   C2B13088  29.356  25.429   8.253
 5800POPC   C3B13089  29.376  25.377   7.953
 5800POPC   C4B13090  29.368  25.409   7.653
 5801POPC   NC313091  19.820  26.786   9.453
 5801POPC   PO413092  19.803  26.800   9.153
 5801POPC   GL113093  19.837  26.863   8.853
 5801POPC   GL213094  19.874  26.690   8.853
 5801POPC   C1A13095  19.836  26.801   8.553
 5801POPC   D2A13096  19.866  26.777   8.253
 5801POPC   C3A13097  19.845  26.804   7.953
 5801POPC   C4A13098  19.852  26.784   7.653
 5801POPC   C1B13099  19.902  26.596   8.553
 5801POPC   C2B13100  19.856  26.544   8.253
 5801POPC   C3B13101  19.897  26.574   7.953
 5801POPC   C4B13102  19.853  26.582   7.653
 5802POPC   NC313103   3.534   1.977   9.453
 5802POPC   PO413104   3.518   1.987   9.153
 5802POPC   GL113105   3.565   2.027   8.853
 5802POPC   GL213106   3.408   2.046   8.853
 5802POPC   C1A13107   3.576   2.022   8.553
 5802POPC   D2A13108   3.585   2.034   8.253
 5802POPC   C3A13109   3.515   1.992   7.953
 5802POPC   C4A13110   3.500   1.996   7.653
 5802POPC   C1B13111   3.333   2.044   8.553
 5802POPC   C2B13112   3.315   2.052   8.253
 5802POPC   C3B13113   3.354   2.115   7.953
 5802POPC   C4B13114   3.359   2.057   7.653
 5803POPC   NC313115   1.965   6.646   9.453
 5803POPC   PO413116   1.964   6.621   9.153
 5803POPC   GL113117   1.940   6.644   8.853
 5803POPC   GL213118   2.032   6.685   8.853
 5803POPC   C1A13119   2.015   6.608   8.553
 5803POPC   D2A13120   2.003   6.595   8.253
 5803POPC   C3A13121   1.978   6.622   7.953
 5803POPC   C4A13122   2.016   6.619   7.653
 5803POPC   C1B13123   2.147   6.840   8.553
 5803POPC   C2B13124   2.136   6.855   8.253
 5803POPC   C3B13125   2.153   6.809   7.953
 5803POPC   C4B13126   2.222   6.832   7.653
 5804POPC   NC313127  17.502   3.494   9.453
 5804POPC   PO413128  17.513   3.585   9.153
 5804POPC   GL113129  17.532   3.527   8.853
 5804POPC   GL213130  17.657   3.466   8.853
 5804POPC   C1A13131  17.518   3.523   8.553
 5804POPC   D2A13132  17.515   3.591   8.253
 5804POPC   C3A13133  17.541   3.546   7.953
 5804POPC   C4A13134  17.509   3.548   7.653
 5804POPC   C1B13135  17.766   3.478   8.553
 5804POPC   C2B13136  17.774   3.476   8.253
 5804POPC   C3B13137  17.758   3.384   7.953
 5804POPC   C4B13138  17.708   3.401   7.653
 5805POPC   NC313139  11.287  22.166   9.453
 5805POPC   PO413140  11.339  22.150   9.153
 5805POPC   GL113141  11.347  22.194   8.853
 5805POPC   GL213142  11.325  22.285   8.853
 5805POPC   C1A13143  11.270  22.178   8.553
 5805POPC   D2A13144  11.312  22.153   8.253
 5805POPC   C3A13145  11.328  22.207   7.953
 5805POPC   C4A13146  11.262  22.208   7.653
 5805POPC   C1B13147  11.364  22.347   8.553
 5805POPC   C2B13148  11.368  22.364   8.253
 5805POPC   C3B13149  11.452  22.383   7.953
 5805POPC   C4B13150  11.385  22.396   7.653
 5806POPC   NC313151  34.533  18.284   9.453
 5806POPC   PO413152  34.587  18.292   9.153
 5806POPC   GL113153  34.611  18.281   8.853
 5806POPC   GL213154  34.722  18.307   8.853
 5806POPC   C1A13155  34.559  18.246   8.553
 5806POPC   D2A13156  34.559  18.269   8.253
 5806POPC   C3A13157  34.591  18.242   7.953
 5806POPC   C4A13158  34.583  18.288   7.653
 5806POPC   C1B13159  34.839  18.417   8.553
 5806POPC   C2B13160  34.776  18.418   8.253
 5806POPC   C3B13161  34.801  18.419   7.953
 5806POPC   C4B13162  34.820  18.446   7.653
 5807POPC   NC313163  39.276  25.291   9.453
 5807POPC   PO413164  39.272  25.275   9.153
 5807POPC   GL113165  39.260  25.267   8.853
 5807POPC   GL213166  39.367  25.210   8.853
 5807POPC   C1A13167  39.245  25.301   8.553
 5807POPC   D2A13168  39.222  25.237   8.253
 5807POPC   C3A13169  39.228  25.224   7.953
 5807POPC   C4A13170  39.219  25.274   7.653
 5807POPC   C1B13171  39.499  25.171   8.553
 5807POPC   C2B13172  39.437  25.192   8.253
 5807POPC   C3B13173  39.441  25.169   7.953
 5807POPC   C4B13174  39.497  25.183   7.653
 5808POPC   NC313175  16.780  17.524   9.453
 5808POPC   PO413176  16.781  17.469   9.153
 5808POPC   GL113177  16.755  17.515   8.853
 5808POPC   GL213178  16.608  17.446   8.853
 5808POPC   C1A13179  16.687  17.543   8.553
 5808POPC   D2A13180  16.711  17.537   8.253
 5808POPC   C3A13181  16.747  17.512   7.953
 5808POPC   C4A13182  16.690  17.547   7.653
 5808POPC   C1B13183  16.498  17.369   8.553
 5808POPC   C2B13184  16.520  17.427   8.253
 5808POPC   C3B13185  16.549  17.412   7.953
 5808POPC   C4B13186  16.519  17.371   7.653
 5809POPC   NC313187  15.974   8.229   9.453
 5809POPC   PO413188  15.987   8.148   9.153
 5809POPC   GL113189  15.995   8.168   8.853
 5809POPC   GL213190  16.049   8.121   8.853
 5809POPC   C1A13191  15.989   8.196   8.553
 5809POPC   D2A13192  15.906   8.206   8.253
 5809POPC   C3A13193  15.953   8.237   7.953
 5809POPC   C4A13194  15.957   8.190   7.653
 5809POPC   C1B13195  16.076   8.027   8.553
 5809POPC   C2B13196  16.063   7.955   8.253
 5809POPC   C3B13197  16.133   7.968   7.953
 5809POPC   C4B13198  16.128   7.942   7.653
 5810POPC   NC313199   0.487  25.271   9.453
 5810POPC   PO413200   0.444  25.261   9.153
 5810POPC   GL113201   0.425  25.241   8.853
 5810POPC   GL213202   0.464  25.113   8.853
 5810POPC   C1A13203   0.456  25.282   8.553
 5810POPC   D2A13204   0.479  25.219   8.253
 5810POPC   C3A13205   0.434  25.312   7.953
 5810POPC   C4A13206   0.436  25.231   7.653
 5810POPC   C1B13207   0.534  25.068   8.553
 5810POPC   C2B13208   0.550  25.075   8.253
 5810POPC   C3B13209   0.556  25.075   7.953
 5810POPC   C4B13210   0.522  25.027   7.653
 5811POPC   NC313211  15.185   3.567   9.453
 5811POPC   PO413212  15.169   3.550   9.153
 5811POPC   GL113213  15.158   3.586   8.853
 5811POPC   GL213214  15.051   3.480   8.853
 5811POPC   C1A13215  15.136   3.567   8.553
 5811POPC   D2A13216  15.212   3.586   8.253
 5811POPC   C3A13217  15.178   3.542   7.953
 5811POPC   C4A13218  15.214   3.570   7.653
 5811POPC   C1B13219  14.906   3.442   8.553
 5811POPC   C2B13220  14.935   3.502   8.253
 5811POPC   C3B13221  14.965   3.479   7.953
 5811POPC   C4B13222  14.944   3.458   7.653
 5812POPC   NC313223  25.279  20.650   9.453
 5812POPC   PO413224  25.255  20.587   9.153
 5812POPC   GL113225  25.249  20.582   8.853
 5812POPC   GL213226  25.103  20.616   8.853
 5812POPC   C1A13227  25.237  20.648   8.553
 5812POPC   D2A13228  25.290  20.588   8.253
 5812POPC   C3A13229  25.259  20.563   7.953
 5812POPC   C4A13230  25.248  20.629   7.653
 5812POPC   C1B13231  25.013  20.569   8.553
 5812POPC   C2B13232  25.071  20.557   8.253
 5812POPC   C3B13233  25.031  20.494   7.953
 5812POPC   C4B13234  25.029  20.526   7.653
 5813POPC   NC313235  24.534  37.704   9.453
 5813POPC   PO413236  24.454  37.632   9.153
 5813POPC   GL113237  24.457  37.666   8.853
 5813POPC   GL213238  24.420  37.580   8.853
 5813POPC   C1A13239  24.488  37.683   8.553
 5813POPC   D2A13240  24.497  37.718   8.253
 5813POPC   C3A13241  24.474  37.642   7.953
 5813POPC   C4A13242  24.451  37.684   7.653
 5813POPC   C1B13243  24.291  37.525   8.553
 5813POPC   C2B13244  24.264  37.527   8.253
 5813POPC   C3B13245  24.308  37.545   7.953
 5813POPC   C4B13246  24.280  37.563   7.653
 5814POPC   NC313247  19.102  28.338   9.453
 5814POPC   PO413248  19.019  28.332   9.153
 5814POPC   GL113249  19.067  28.351   8.853
 5814POPC   GL213250  19.076  28.539   8.853
 5814POPC   C1A13251  19.069  28.347   8.553
 5814POPC   D2A13252  19.040  28.340   8.253
 5814POPC   C3A13253  19.034  28.384   7.953
 5814POPC   C4A13254  19.011  28.374   7.653
 5814POPC   C1B13255  19.063  28.577   8.553
 5814POPC   C2B13256  18.991  28.581   8.253
 5814POPC   C3B13257  19.037  28.582   7.953
 5814POPC   C4B13258  19.043  28.584   7.653
 5815POPC   NC313259  12.119   1.943   9.453
 5815POPC   PO413260  12.102   1.974   9.153
 5815POPC   GL113261  12.116   2.031   8.853
 5815POPC   GL213262  12.110   2.105   8.853
 5815POPC   C1A13263  12.082   2.023   8.553
 5815POPC   D2A13264  12.054   1.990   8.253
 5815POPC   C3A13265  12.125   1.967   7.953
 5815POPC   C4A13266  12.114   2.024   7.653
 5815POPC   C1B13267  12.248   2.210   8.553
 5815POPC   C2B13268  12.204   2.164   8.253
 5815POPC   C3B13269  12.183   2.242   7.953
 5815POPC   C4B13270  12.203   2.189   7.653
 5816POPC   NC313271   8.237  19.081   9.453
 5816POPC   PO413272   8.212  19.011   9.153
 5816POPC   GL113273   8.191  19.092   8.853
 5816POPC   GL213274   8.344  19.077   8.853
 5816POPC   C1A13275   8.171  19.021   8.553
 5816POPC   D2A13276   8.186  19.032   8.253
 5816POPC   C3A13277   8.216  19.066   7.953
 5816POPC   C4A13278   8.206  19.081   7.653
 5816POPC   C1B13279   8.412  19.170   8.553
 5816POPC   C2B13280   8.445  19.136   8.253
 5816POPC   C3B13281   8.372  19.177   7.953
 5816POPC   C4B13282   8.452  19.147   7.653
 5817POPC   NC313283  40.826   8.217   9.453
 5817POPC   PO413284  40.832   8.169   9.153
 5817POPC   GL113285  40.753   8.194   8.853
 5817POPC   GL213286  40.800   8.076   8.853
 5817POPC   C1A13287  40.770   8.174   8.553
 5817POPC   D2A13288  40.759   8.156   8.253
 5817POPC   C3A13289  40.776   8.227   7.953
 5817POPC   C4A13290  40.744   8.205   7.653
 5817POPC   C1B13291  40.944   8.014   8.553
 5817POPC   C2B13292  40.898   7.992   8.253
 5817POPC   C3B13293  40.928   8.003   7.953
 5817POPC   C4B13294  40.928   7.938   7.653
 5818POPC   NC313295  14.434  33.794   9.453
 5818POPC   PO413296  14.366  33.816   9.153
 5818POPC   GL113297  14.370  33.835   8.853
 5818POPC   GL213298  14.506  33.924   8.853
 5818POPC   C1A13299  14.366  33.775   8.553
 5818POPC   D2A13300  14.419  33.795   8.253
 5818POPC   C3A13301  14.418  33.780   7.953
 5818POPC   C4A13302  14.412  33.779   7.653
 5818POPC   C1B13303  14.538  33.999   8.553
 5818POPC   C2B13304  14.550  34.011   8.253
 5818POPC   C3B13305  14.607  33.984   7.953
 5818POPC   C4B13306  14.624  34.001   7.653
 5819POPC   NC313307  44.693  19.075   9.453
 5819POPC   PO413308  44.629  19.054   9.153
 5819POPC   GL113309  44.690  19.048   8.853
 5819POPC   GL213310  44.761  19.041   8.853
 5819POPC   C1A13311  44.710  19.106   8.553
 5819POPC   D2A13312  44.664  19.016   8.253
 5819POPC   C3A13313  44.656  19.020   7.953
 5819POPC   C4A13314  44.690  19.045   7.653
 5819POPC   C1B13315  44.877  18.950   8.553
 5819POPC   C2B13316  44.836  18.958   8.253
 5819POPC   C3B13317  44.894  18.944   7.953
 5819POPC   C4B13318  44.860  18.929   7.653
 5820POPC   NC313319  25.999  19.051   9.453
 5820POPC   PO413320  26.058  19.095   9.153
 5820POPC   GL113321  26.038  19.084   8.853
 5820POPC   GL213322  26.174  19.156   8.853
 5820POPC   C1A13323  26.023  19.052   8.553
 5820POPC   D2A13324  25.999  19.037   8.253
 5820POPC   C3A13325  26.085  19.031   7.953
 5820POPC   C4A13326  26.005  19.073   7.653
 5820POPC   C1B13327  26.282  19.218   8.553
 5820POPC   C2B13328  26.279  19.130   8.253
 5820POPC   C3B13329  26.287  19.189   7.953
 5820POPC   C4B13330  26.297  19.145   7.653
 5821POPC   NC313331  20.649  19.883   9.453
 5821POPC   PO413332  20.566  19.862   9.153
 5821POPC   GL113333  20.631  19.832   8.853
 5821POPC   GL213334  20.743  19.918   8.853
 5821POPC   C1A13335  20.618  19.858   8.553
 5821POPC   D2A13336  20.603  19.869   8.253
 5821POPC   C3A13337  20.653  19.833   7.953
 5821POPC   C4A13338  20.644  19.863   7.653
 5821POPC   C1B13339  20.814  20.012   8.553
 5821POPC   C2B13340  20.856  20.012   8.253
 5821POPC   C3B13341  20.805  19.993   7.953
 5821POPC   C4B13342  20.846  20.010   7.653
 5822POPC   NC313343  12.814  16.730   9.453
 5822POPC   PO413344  12.877  16.714   9.153
 5822POPC   GL113345  12.814  16.762   8.853
 5822POPC   GL213346  12.692  16.710   8.853
 5822POPC   C1A13347  12.853  16.738   8.553
 5822POPC   D2A13348  12.839  16.692   8.253
 5822POPC   C3A13349  12.861  16.735   7.953
 5822POPC   C4A13350  12.880  16.730   7.653
 5822POPC   C1B13351  12.597  16.804   8.553
 5822POPC   C2B13352  12.606  16.746   8.253
 5822POPC   C3B13353  12.617  16.802   7.953
 5822POPC   C4B13354  12.632  16.810   7.653
 5823POPC   NC313355  18.333   2.036   9.453
 5823POPC   PO413356  18.259   1.994   9.153
 5823POPC   GL113357  18.287   1.995   8.853
 5823POPC   GL213358  18.402   1.881   8.853
 5823POPC   C1A13359  18.237   2.027   8.553
 5823POPC   D2A13360  18.254   2.024   8.253
 5823POPC   C3A13361  18.323   1.954   7.953
 5823POPC   C4A13362  18.237   2.029   7.653
 5823POPC   C1B13363  18.496   1.844   8.553
 5823POPC   C2B13364  18.476   1.850   8.253
 5823POPC   C3B13365  18.469   1.848   7.953
 5823POPC   C4B13366  18.481   1.837   7.653
 5824POPC   NC313367  21.373  28.348   9.453
 5824POPC   PO413368  21.354  28.339   9.153
 5824POPC   GL113369  21.432  28.385   8.853
 5824POPC   GL213370  21.256  28.472   8.853
 5824POPC   C1A13371  21.381  28.400   8.553
 5824POPC   D2A13372  21.405  28.379   8.253
 5824POPC   C3A13373  21.381  28.326   7.953
 5824POPC   C4A13374  21.384  28.394   7.653
 5824POPC   C1B13375  21.137  28.489   8.553
 5824POPC   C2B13376  21.126  28.518   8.253
 5824POPC   C3B13377  21.135  28.458   7.953
 5824POPC   C4B13378  21.188  28.458   7.653
 5825POPC   NC313379  18.279   3.498   9.453
 5825POPC   PO413380  18.309   3.541   9.153
 5825POPC   GL113381  18.257   3.548   8.853
 5825POPC   GL213382  18.284   3.703   8.853
 5825POPC   C1A13383  18.302   3.504   8.553
 5825POPC   D2A13384  18.258   3.533   8.253
 5825POPC   C3A13385  18.311   3.557   7.953
 5825POPC   C4A13386  18.332   3.544   7.653
 5825POPC   C1B13387  18.281   3.773   8.553
 5825POPC   C2B13388  18.235   3.837   8.253
 5825POPC   C3B13389  18.284   3.821   7.953
 5825POPC   C4B13390  18.259   3.804   7.653
 5826POPC   NC313391  17.495  22.986   9.453
 5826POPC   PO413392  17.474  22.926   9.153
 5826POPC   GL113393  17.480  22.960   8.853
 5826POPC   GL213394  17.379  22.811   8.853
 5826POPC   C1A13395  17.541  22.910   8.553
 5826POPC   D2A13396  17.554  22.985   8.253
 5826POPC   C3A13397  17.536  22.969   7.953
 5826POPC   C4A13398  17.554  22.981   7.653
 5826POPC   C1B13399  17.301  22.706   8.553
 5826POPC   C2B13400  17.326  22.792   8.253
 5826POPC   C3B13401  17.368  22.697   7.953
 5826POPC   C4B13402  17.364  22.740   7.653
 5827POPC   NC313403   0.465  15.182   9.453
 5827POPC   PO413404   0.470  15.197   9.153
 5827POPC   GL113405   0.437  15.227   8.853
 5827POPC   GL213406   0.365  15.102   8.853
 5827POPC   C1A13407   0.445  15.210   8.553
 5827POPC   D2A13408   0.469  15.226   8.253
 5827POPC   C3A13409   0.432  15.193   7.953
 5827POPC   C4A13410   0.439  15.223   7.653
 5827POPC   C1B13411   0.360  14.943   8.553
 5827POPC   C2B13412   0.332  14.968   8.253
 5827POPC   C3B13413   0.418  14.913   7.953
 5827POPC   C4B13414   0.425  14.901   7.653
 5828POPC   NC313415  44.641   8.939   9.453
 5828POPC   PO413416  44.690   8.994   9.153
 5828POPC   GL113417  44.700   8.927   8.853
 5828POPC   GL213418  44.624   8.825   8.853
 5828POPC   C1A13419  44.668   8.961   8.553
 5828POPC   D2A13420  44.654   8.941   8.253
 5828POPC   C3A13421  44.664   8.962   7.953
 5828POPC   C4A13422  44.695   8.926   7.653
 5828POPC   C1B13423  44.595   8.742   8.553
 5828POPC   C2B13424  44.570   8.738   8.253
 5828POPC   C3B13425  44.588   8.710   7.953
 5828POPC   C4B13426  44.552   8.774   7.653
 5829POPC   NC313427   1.233  20.658   9.453
 5829POPC   PO413428   1.259  20.598   9.153
 5829POPC   GL113429   1.173  20.636   8.853
 5829POPC   GL213430   1.284  20.571   8.853
 5829POPC   C1A13431   1.230  20.574   8.553
 5829POPC   D2A13432   1.170  20.586   8.253
 5829POPC   C3A13433   1.213  20.604   7.953
 5829POPC   C4A13434   1.167  20.562   7.653
 5829POPC   C1B13435   1.466  20.462   8.553
 5829POPC   C2B13436   1.464  20.505   8.253
 5829POPC   C3B13437   1.381  20.494   7.953
 5829POPC   C4B13438   1.396  20.468   7.653
 5830POPC   NC313439  12.895   2.038   9.453
 5830POPC   PO413440  12.812   1.993   9.153
 5830POPC   GL113441  12.819   2.037   8.853
 5830POPC   GL213442  12.981   2.026   8.853
 5830POPC   C1A13443  12.830   1.980   8.553
 5830POPC   D2A13444  12.860   1.952   8.253
 5830POPC   C3A13445  12.830   1.977   7.953
 5830POPC   C4A13446  12.862   2.018   7.653
 5830POPC   C1B13447  13.107   2.051   8.553
 5830POPC   C2B13448  13.138   1.991   8.253
 5830POPC   C3B13449  13.105   2.072   7.953
 5830POPC   C4B13450  13.052   2.038   7.653
 5831POPC   NC313451  24.517  43.118   9.453
 5831POPC   PO413452  24.526  43.114   9.153
 5831POPC   GL113453  24.504  43.123   8.853
 5831POPC   GL213454  24.404  43.076   8.853
 5831POPC   C1A13455  24.528  43.095   8.553
 5831POPC   D2A13456  24.534  43.135   8.253
 5831POPC   C3A13457  24.461  43.073   7.953
 5831POPC   C4A13458  24.504  43.127   7.653
 5831POPC   C1B13459  24.209  43.039   8.553
 5831POPC   C2B13460  24.214  43.118   8.253
 5831POPC   C3B13461  24.273  43.055   7.953
 5831POPC   C4B13462  24.219  43.042   7.653
 5832POPC   NC313463  11.336  29.939   9.453
 5832POPC   PO413464  11.319  29.955   9.153
 5832POPC   GL113465  11.303  29.910   8.853
 5832POPC   GL213466  11.384  29.856   8.853
 5832POPC   C1A13467  11.334  29.903   8.553
 5832POPC   D2A13468  11.345  29.875   8.253
 5832POPC   C3A13469  11.290  29.910   7.953
 5832POPC   C4A13470  11.280  29.886   7.653
 5832POPC   C1B13471  11.540  29.807   8.553
 5832POPC   C2B13472  11.571  29.812   8.253
 5832POPC   C3B13473  11.503  29.837   7.953
 5832POPC   C4B13474  11.520  29.851   7.653
 5833POPC   NC313475  31.430  28.385   9.453
 5833POPC   PO413476  31.488  28.359   9.153
 5833POPC   GL113477  31.494  28.404   8.853
 5833POPC   GL213478  31.396  28.368   8.853
 5833POPC   C1A13479  31.426  28.365   8.553
 5833POPC   D2A13480  31.497  28.386   8.253
 5833POPC   C3A13481  31.438  28.363   7.953
 5833POPC   C4A13482  31.475  28.323   7.653
 5833POPC   C1B13483  31.276  28.495   8.553
 5833POPC   C2B13484  31.248  28.426   8.253
 5833POPC   C3B13485  31.254  28.422   7.953
 5833POPC   C4B13486  31.267  28.443   7.653
 5834POPC   NC313487   1.997  43.139   9.453
 5834POPC   PO413488   1.949  43.130   9.153
 5834POPC   GL113489   1.955  43.063   8.853
 5834POPC   GL213490   1.913  42.943   8.853
 5834POPC   C1A13491   1.943  43.073   8.553
 5834POPC   D2A13492   1.995  43.148   8.253
 5834POPC   C3A13493   2.007  43.107   7.953
 5834POPC   C4A13494   1.956  43.127   7.653
 5834POPC   C1B13495   1.944  42.861   8.553
 5834POPC   C2B13496   1.963  42.883   8.253
 5834POPC   C3B13497   1.875  42.907   7.953
 5834POPC   C4B13498   1.915  42.904   7.653
 5835POPC   NC313499  22.159  40.806   9.453
 5835POPC   PO413500  22.204  40.773   9.153
 5835POPC   GL113501  22.155  40.751   8.853
 5835POPC   GL213502  22.162  40.648   8.853
 5835POPC   C1A13503  22.133  40.744   8.553
 5835POPC   D2A13504  22.131  40.774   8.253
 5835POPC   C3A13505  22.177  40.813   7.953
 5835POPC   C4A13506  22.128  40.786   7.653
 5835POPC   C1B13507  22.159  40.571   8.553
 5835POPC   C2B13508  22.112  40.555   8.253
 5835POPC   C3B13509  22.114  40.510   7.953
 5835POPC   C4B13510  22.171  40.545   7.653
 5836POPC   NC313511  33.026  30.688   9.453
 5836POPC   PO413512  32.980  30.729   9.153
 5836POPC   GL113513  32.995  30.691   8.853
 5836POPC   GL213514  33.129  30.593   8.853
 5836POPC   C1A13515  33.050  30.668   8.553
 5836POPC   D2A13516  32.998  30.722   8.253
 5836POPC   C3A13517  33.052  30.732   7.953
 5836POPC   C4A13518  33.033  30.746   7.653
 5836POPC   C1B13519  33.173  30.540   8.553
 5836POPC   C2B13520  33.192  30.522   8.253
 5836POPC   C3B13521  33.248  30.497   7.953
 5836POPC   C4B13522  33.234  30.518   7.653
 5837POPC   NC313523  31.503  15.915   9.453
 5837POPC   PO413524  31.481  15.915   9.153
 5837POPC   GL113525  31.426  15.961   8.853
 5837POPC   GL213526  31.520  16.023   8.853
 5837POPC   C1A13527  31.488  15.947   8.553
 5837POPC   D2A13528  31.500  15.971   8.253
 5837POPC   C3A13529  31.516  15.969   7.953
 5837POPC   C4A13530  31.440  15.925   7.653
 5837POPC   C1B13531  31.594  16.172   8.553
 5837POPC   C2B13532  31.567  16.161   8.253
 5837POPC   C3B13533  31.553  16.226   7.953
 5837POPC   C4B13534  31.617  16.150   7.653
 5838POPC   NC313535  42.347  43.850   9.453
 5838POPC   PO413536  42.304  43.869   9.153
 5838POPC   GL113537  42.334  43.883   8.853
 5838POPC   GL213538  42.208  43.769   8.853
 5838POPC   C1A13539  42.286  43.899   8.553
 5838POPC   D2A13540  42.324  43.892   8.253
 5838POPC   C3A13541  42.364  43.925   7.953
 5838POPC   C4A13542  42.309  43.879   7.653
 5838POPC   C1B13543  42.155  43.767   8.553
 5838POPC   C2B13544  42.139  43.747   8.253
 5838POPC   C3B13545  42.100  43.741   7.953
 5838POPC   C4B13546  42.090  43.688   7.653
 5839POPC   NC313547  24.470  12.827   9.453
 5839POPC   PO413548  24.470  12.887   9.153
 5839POPC   GL113549  24.461  12.849   8.853
 5839POPC   GL213550  24.407  12.749   8.853
 5839POPC   C1A13551  24.451  12.846   8.553
 5839POPC   D2A13552  24.505  12.866   8.253
 5839POPC   C3A13553  24.441  12.872   7.953
 5839POPC   C4A13554  24.475  12.885   7.653
 5839POPC   C1B13555  24.314  12.756   8.553
 5839POPC   C2B13556  24.319  12.750   8.253
 5839POPC   C3B13557  24.266  12.752   7.953
 5839POPC   C4B13558  24.270  12.705   7.653
 5840POPC   NC313559   5.823  22.203   9.453
 5840POPC   PO413560   5.823  22.209   9.153
 5840POPC   GL113561   5.830  22.116   8.853
 5840POPC   GL213562   5.804  22.091   8.853
 5840POPC   C1A13563   5.898  22.198   8.553
 5840POPC   D2A13564   5.834  22.115   8.253
 5840POPC   C3A13565   5.864  22.159   7.953
 5840POPC   C4A13566   5.877  22.193   7.653
 5840POPC   C1B13567   5.645  22.003   8.553
 5840POPC   C2B13568   5.628  21.993   8.253
 5840POPC   C3B13569   5.607  22.024   7.953
 5840POPC   C4B13570   5.687  22.021   7.653
 5841POPC   NC313571   5.098  22.121   9.453
 5841POPC   PO413572   5.055  22.147   9.153
 5841POPC   GL113573   5.126  22.192   8.853
 5841POPC   GL213574   5.166  22.062   8.853
 5841POPC   C1A13575   5.076  22.133   8.553
 5841POPC   D2A13576   5.086  22.120   8.253
 5841POPC   C3A13577   5.069  22.116   7.953
 5841POPC   C4A13578   5.097  22.148   7.653
 5841POPC   C1B13579   5.222  21.932   8.553
 5841POPC   C2B13580   5.196  21.958   8.253
 5841POPC   C3B13581   5.197  21.914   7.953
 5841POPC   C4B13582   5.224  21.951   7.653
 5842POPC   NC313583   0.458  35.348   9.453
 5842POPC   PO413584   0.391  35.355   9.153
 5842POPC   GL113585   0.455  35.349   8.853
 5842POPC   GL213586   0.355  35.242   8.853
 5842POPC   C1A13587   0.454  35.321   8.553
 5842POPC   D2A13588   0.450  35.313   8.253
 5842POPC   C3A13589   0.392  35.337   7.953
 5842POPC   C4A13590   0.393  35.395   7.653
 5842POPC   C1B13591   0.293  35.158   8.553
 5842POPC   C2B13592   0.312  35.154   8.253
 5842POPC   C3B13593   0.276  35.196   7.953
 5842POPC   C4B13594   0.298  35.165   7.653
 5843POPC   NC313595  17.547  27.582   9.453
 5843POPC   PO413596  17.466  27.582   9.153
 5843POPC   GL113597  17.483  27.560   8.853
 5843POPC   GL213598  17.645  27.519   8.853
 5843POPC   C1A13599  17.487  27.556   8.553
 5843POPC   D2A13600  17.458  27.619   8.253
 5843POPC   C3A13601  17.482  27.586   7.953
 5843POPC   C4A13602  17.536  27.585   7.653
 5843POPC   C1B13603  17.774  27.514   8.553
 5843POPC   C2B13604  17.794  27.537   8.253
 5843POPC   C3B13605  17.707  27.569   7.953
 5843POPC   C4B13606  17.702  27.555   7.653
 5844POPC   NC313607   8.213  42.350   9.453
 5844POPC   PO413608   8.187  42.369   9.153
 5844POPC   GL113609   8.208  42.371   8.853
 5844POPC   GL213610   8.164  42.180   8.853
 5844POPC   C1A13611   8.208  42.304   8.553
 5844POPC   D2A13612   8.224  42.374   8.253
 5844POPC   C3A13613   8.209  42.295   7.953
 5844POPC   C4A13614   8.180  42.309   7.653
 5844POPC   C1B13615   8.262  42.077   8.553
 5844POPC   C2B13616   8.215  42.086   8.253
 5844POPC   C3B13617   8.203  42.086   7.953
 5844POPC   C4B13618   8.248  42.071   7.653
 5845POPC   NC313619  16.703  38.490   9.453
 5845POPC   PO413620  16.690  38.502   9.153
 5845POPC   GL113621  16.687  38.446   8.853
 5845POPC   GL213622  16.586  38.453   8.853
 5845POPC   C1A13623  16.770  38.457   8.553
 5845POPC   D2A13624  16.770  38.493   8.253
 5845POPC   C3A13625  16.763  38.483   7.953
 5845POPC   C4A13626  16.776  38.409   7.653
 5845POPC   C1B13627  16.471  38.500   8.553
 5845POPC   C2B13628  16.469  38.523   8.253
 5845POPC   C3B13629  16.455  38.577   7.953
 5845POPC   C4B13630  16.529  38.499   7.653
 5846POPC   NC313631   2.775  32.249   9.453
 5846POPC   PO413632   2.798  32.232   9.153
 5846POPC   GL113633   2.742  32.270   8.853
 5846POPC   GL213634   2.745  32.123   8.853
 5846POPC   C1A13635   2.765  32.249   8.553
 5846POPC   D2A13636   2.788  32.252   8.253
 5846POPC   C3A13637   2.806  32.284   7.953
 5846POPC   C4A13638   2.789  32.233   7.653
 5846POPC   C1B13639   2.719  31.961   8.553
 5846POPC   C2B13640   2.743  32.046   8.253
 5846POPC   C3B13641   2.704  32.026   7.953
 5846POPC   C4B13642   2.746  32.038   7.653
 5847POPC   NC313643  29.877   3.524   9.453
 5847POPC   PO413644  29.926   3.544   9.153
 5847POPC   GL113645  29.929   3.549   8.853
 5847POPC   GL213646  29.942   3.715   8.853
 5847POPC   C1A13647  29.923   3.512   8.553
 5847POPC   D2A13648  29.934   3.591   8.253
 5847POPC   C3A13649  29.913   3.575   7.953
 5847POPC   C4A13650  29.941   3.572   7.653
 5847POPC   C1B13651  29.921   3.793   8.553
 5847POPC   C2B13652  29.986   3.833   8.253
 5847POPC   C3B13653  29.901   3.798   7.953
 5847POPC   C4B13654  29.895   3.824   7.653
 5848POPC   NC313655   4.290  25.275   9.453
 5848POPC   PO413656   4.356  25.277   9.153
 5848POPC   GL113657   4.284  25.307   8.853
 5848POPC   GL213658   4.305  25.154   8.853
 5848POPC   C1A13659   4.280  25.229   8.553
 5848POPC   D2A13660   4.330  25.300   8.253
 5848POPC   C3A13661   4.345  25.299   7.953
 5848POPC   C4A13662   4.273  25.274   7.653
 5848POPC   C1B13663   4.326  25.007   8.553
 5848POPC   C2B13664   4.389  25.017   8.253
 5848POPC   C3B13665   4.330  25.023   7.953
 5848POPC   C4B13666   4.374  25.011   7.653
 5849POPC   NC313667  21.350  19.866   9.453
 5849POPC   PO413668  21.411  19.872   9.153
 5849POPC   GL113669  21.342  19.860   8.853
 5849POPC   GL213670  21.474  19.873   8.853
 5849POPC   C1A13671  21.346  19.843   8.553
 5849POPC   D2A13672  21.426  19.851   8.253
 5849POPC   C3A13673  21.360  19.854   7.953
 5849POPC   C4A13674  21.396  19.861   7.653
 5849POPC   C1B13675  21.663  19.838   8.553
 5849POPC   C2B13676  21.591  19.785   8.253
 5849POPC   C3B13677  21.637  19.834   7.953
 5849POPC   C4B13678  21.601  19.847   7.653
 5850POPC   NC313679  44.684  33.751   9.453
 5850POPC   PO413680  44.686  33.783   9.153
 5850POPC   GL113681  44.647  33.817   8.853
 5850POPC   GL213682  44.793  33.783   8.853
 5850POPC   C1A13683  44.700  33.765   8.553
 5850POPC   D2A13684  44.711  33.785   8.253
 5850POPC   C3A13685  44.675  33.797   7.953
 5850POPC   C4A13686  44.619  33.809   7.653
 5850POPC   C1B13687  44.877  33.807   8.553
 5850POPC   C2B13688  44.929  33.809   8.253
 5850POPC   C3B13689  44.929  33.863   7.953
 5850POPC   C4B13690  44.922  33.835   7.653
 5851POPC   NC313691  43.845  15.179   9.453
 5851POPC   PO413692  43.914  15.200   9.153
 5851POPC   GL113693  43.881  15.201   8.853
 5851POPC   GL213694  43.960  15.261   8.853
 5851POPC   C1A13695  43.877  15.151   8.553
 5851POPC   D2A13696  43.934  15.219   8.253
 5851POPC   C3A13697  43.916  15.190   7.953
 5851POPC   C4A13698  43.922  15.197   7.653
 5851POPC   C1B13699  44.161  15.294   8.553
 5851POPC   C2B13700  44.093  15.264   8.253
 5851POPC   C3B13701  44.088  15.318   7.953
 5851POPC   C4B13702  44.149  15.279   7.653
 5852POPC   NC313703  31.469  43.111   9.453
 5852POPC   PO413704  31.490  43.116   9.153
 5852POPC   GL113705  31.484  43.131   8.853
 5852POPC   GL213706  31.332  43.131   8.853
 5852POPC   C1A13707  31.447  43.106   8.553
 5852POPC   D2A13708  31.444  43.110   8.253
 5852POPC   C3A13709  31.497  43.072   7.953
 5852POPC   C4A13710  31.439  43.073   7.653
 5852POPC   C1B13711  31.235  43.181   8.553
 5852POPC   C2B13712  31.280  43.242   8.253
 5852POPC   C3B13713  31.273  43.222   7.953
 5852POPC   C4B13714  31.262  43.227   7.653
 5853POPC   NC313715  18.236  35.369   9.453
 5853POPC   PO413716  18.330  35.307   9.153
 5853POPC   GL113717  18.293  35.355   8.853
 5853POPC   GL213718  18.124  35.368   8.853
 5853POPC   C1A13719  18.271  35.346   8.553
 5853POPC   D2A13720  18.272  35.397   8.253
 5853POPC   C3A13721  18.258  35.326   7.953
 5853POPC   C4A13722  18.260  35.319   7.653
 5853POPC   C1B13723  18.077  35.489   8.553
 5853POPC   C2B13724  18.082  35.421   8.253
 5853POPC   C3B13725  18.075  35.475   7.953
 5853POPC   C4B13726  18.062  35.486   7.653
 5854POPC   NC313727  22.130  44.645   9.453
 5854POPC   PO413728  22.127  44.642   9.153
 5854POPC   GL113729  22.191  44.646   8.853
 5854POPC   GL213730  22.083  44.616   8.853
 5854POPC   C1A13731  22.185  44.618   8.553
 5854POPC   D2A13732  22.142  44.629   8.253
 5854POPC   C3A13733  22.171  44.642   7.953
 5854POPC   C4A13734  22.141  44.620   7.653
 5854POPC   C1B13735  21.913  44.583   8.553
 5854POPC   C2B13736  21.930  44.554   8.253
 5854POPC   C3B13737  21.903  44.598   7.953
 5854POPC   C4B13738  21.987  44.519   7.653
 5855POPC   NC313739  40.792  16.748   9.453
 5855POPC   PO413740  40.811  16.713   9.153
 5855POPC   GL113741  40.736  16.760   8.853
 5855POPC   GL213742  40.693  16.639   8.853
 5855POPC   C1A13743  40.802  16.693   8.553
 5855POPC   D2A13744  40.783  16.777   8.253
 5855POPC   C3A13745  40.830  16.714   7.953
 5855POPC   C4A13746  40.765  16.699   7.653
 5855POPC   C1B13747  40.639  16.506   8.553
 5855POPC   C2B13748  40.659  16.580   8.253
 5855POPC   C3B13749  40.592  16.487   7.953
 5855POPC   C4B13750  40.646  16.558   7.653
 5856POPC   NC313751  19.051  23.733   9.453
 5856POPC   PO413752  19.060  23.755   9.153
 5856POPC   GL113753  19.054  23.739   8.853
 5856POPC   GL213754  19.085  23.830   8.853
 5856POPC   C1A13755  19.087  23.708   8.553
 5856POPC   D2A13756  19.074  23.696   8.253
 5856POPC   C3A13757  19.046  23.707   7.953
 5856POPC   C4A13758  19.104  23.699   7.653
 5856POPC   C1B13759  19.111  23.975   8.553
 5856POPC   C2B13760  19.053  24.007   8.253
 5856POPC   C3B13761  19.054  23.957   7.953
 5856POPC   C4B13762  19.049  23.982   7.653
 5857POPC   NC313763  21.348  39.260   9.453
 5857POPC   PO413764  21.366  39.206   9.153
 5857POPC   GL113765  21.435  39.242   8.853
 5857POPC   GL213766  21.384  39.346   8.853
 5857POPC   C1A13767  21.357  39.264   8.553
 5857POPC   D2A13768  21.367  39.264   8.253
 5857POPC   C3A13769  21.354  39.224   7.953
 5857POPC   C4A13770  21.429  39.254   7.653
 5857POPC   C1B13771  21.296  39.437   8.553
 5857POPC   C2B13772  21.324  39.426   8.253
 5857POPC   C3B13773  21.273  39.438   7.953
 5857POPC   C4B13774  21.283  39.494   7.653
 5858POPC   NC313775  16.739  32.223   9.453
 5858POPC   PO413776  16.687  32.201   9.153
 5858POPC   GL113777  16.743  32.215   8.853
 5858POPC   GL213778  16.624  32.308   8.853
 5858POPC   C1A13779  16.768  32.234   8.553
 5858POPC   D2A13780  16.717  32.285   8.253
 5858POPC   C3A13781  16.761  32.251   7.953
 5858POPC   C4A13782  16.719  32.220   7.653
 5858POPC   C1B13783  16.486  32.275   8.553
 5858POPC   C2B13784  16.471  32.334   8.253
 5858POPC   C3B13785  16.522  32.269   7.953
 5858POPC   C4B13786  16.436  32.290   7.653
 5859POPC   NC313787  22.895  43.879   9.453
 5859POPC   PO413788  22.924  43.932   9.153
 5859POPC   GL113789  22.923  43.885   8.853
 5859POPC   GL213790  23.076  43.788   8.853
 5859POPC   C1A13791  22.980  43.924   8.553
 5859POPC   D2A13792  22.922  43.926   8.253
 5859POPC   C3A13793  22.968  43.857   7.953
 5859POPC   C4A13794  22.960  43.850   7.653
 5859POPC   C1B13795  23.191  43.751   8.553
 5859POPC   C2B13796  23.179  43.764   8.253
 5859POPC   C3B13797  23.157  43.770   7.953
 5859POPC   C4B13798  23.185  43.766   7.653
 5860POPC   NC313799  38.443  26.796   9.453
 5860POPC   PO413800  38.411  26.845   9.153
 5860POPC   GL113801  38.411  26.782   8.853
 5860POPC   GL213802  38.543  26.665   8.853
 5860POPC   C1A13803  38.479  26.864   8.553
 5860POPC   D2A13804  38.429  26.791   8.253
 5860POPC   C3A13805  38.447  26.845   7.953
 5860POPC   C4A13806  38.471  26.849   7.653
 5860POPC   C1B13807  38.634  26.602   8.553
 5860POPC   C2B13808  38.616  26.596   8.253
 5860POPC   C3B13809  38.592  26.609   7.953
 5860POPC   C4B13810  38.607  26.560   7.653
 5861POPC   NC313811  17.547  28.350   9.453
 5861POPC   PO413812  17.466  28.406   9.153
 5861POPC   GL113813  17.506  28.407   8.853
 5861POPC   GL213814  17.530  28.526   8.853
 5861POPC   C1A13815  17.532  28.365   8.553
 5861POPC   D2A13816  17.477  28.369   8.253
 5861POPC   C3A13817  17.487  28.412   7.953
 5861POPC   C4A13818  17.507  28.404   7.653
 5861POPC   C1B13819  17.548  28.621   8.553
 5861POPC   C2B13820  17.579  28.630   8.253
 5861POPC   C3B13821  17.603  28.650   7.953
 5861POPC   C4B13822  17.549  28.625   7.653
 5862POPC   NC313823  33.762  43.089   9.453
 5862POPC   PO413824  33.786  43.064   9.153
 5862POPC   GL113825  33.822  43.105   8.853
 5862POPC   GL213826  33.777  43.197   8.853
 5862POPC   C1A13827  33.759  43.119   8.553
 5862POPC   D2A13828  33.800  43.127   8.253
 5862POPC   C3A13829  33.778  43.114   7.953
 5862POPC   C4A13830  33.793  43.141   7.653
 5862POPC   C1B13831  33.805  43.394   8.553
 5862POPC   C2B13832  33.760  43.395   8.253
 5862POPC   C3B13833  33.746  43.338   7.953
 5862POPC   C4B13834  33.759  43.368   7.653
 5863POPC   NC313835  18.291  34.529   9.453
 5863POPC   PO413836  18.274  34.576   9.153
 5863POPC   GL113837  18.252  34.619   8.853
 5863POPC   GL213838  18.313  34.435   8.853
 5863POPC   C1A13839  18.300  34.599   8.553
 5863POPC   D2A13840  18.242  34.553   8.253
 5863POPC   C3A13841  18.317  34.563   7.953
 5863POPC   C4A13842  18.248  34.562   7.653
 5863POPC   C1B13843  18.270  34.282   8.553
 5863POPC   C2B13844  18.267  34.372   8.253
 5863POPC   C3B13845  18.256  34.372   7.953
 5863POPC   C4B13846  18.308  34.369   7.653
 5864POPC   NC313847   9.772   6.653   9.453
 5864POPC   PO413848   9.780   6.633   9.153
 5864POPC   GL113849   9.706   6.611   8.853
 5864POPC   GL213850   9.805   6.585   8.853
 5864POPC   C1A13851   9.773   6.647   8.553
 5864POPC   D2A13852   9.758   6.631   8.253
 5864POPC   C3A13853   9.708   6.605   7.953
 5864POPC   C4A13854   9.708   6.611   7.653
 5864POPC   C1B13855   9.971   6.439   8.553
 5864POPC   C2B13856   9.954   6.428   8.253
 5864POPC   C3B13857   9.941   6.432   7.953
 5864POPC   C4B13858   9.955   6.511   7.653
 5865POPC   NC313859  44.686  36.128   9.453
 5865POPC   PO413860  44.690  36.120   9.153
 5865POPC   GL113861  44.668  36.084   8.853
 5865POPC   GL213862  44.622  36.007   8.853
 5865POPC   C1A13863  44.698  36.147   8.553
 5865POPC   D2A13864  44.632  36.139   8.253
 5865POPC   C3A13865  44.696  36.125   7.953
 5865POPC   C4A13866  44.668  36.107   7.653
 5865POPC   C1B13867  44.493  35.883   8.553
 5865POPC   C2B13868  44.499  35.935   8.253
 5865POPC   C3B13869  44.506  35.908   7.953
 5865POPC   C4B13870  44.553  35.898   7.653
 5866POPC   NC313871  26.002   8.150   9.453
 5866POPC   PO413872  26.047   8.208   9.153
 5866POPC   GL113873  26.008   8.181   8.853
 5866POPC   GL213874  26.120   8.106   8.853
 5866POPC   C1A13875  26.051   8.228   8.553
 5866POPC   D2A13876  26.066   8.210   8.253
 5866POPC   C3A13877  26.061   8.235   7.953
 5866POPC   C4A13878  26.008   8.188   7.653
 5866POPC   C1B13879  26.313   8.074   8.553
 5866POPC   C2B13880  26.229   8.078   8.253
 5866POPC   C3B13881  26.292   8.129   7.953
 5866POPC   C4B13882  26.295   8.115   7.653
 5867POPC   NC313883  22.174   1.986   9.453
 5867POPC   PO413884  22.163   1.999   9.153
 5867POPC   GL113885  22.151   1.998   8.853
 5867POPC   GL213886  22.278   2.042   8.853
 5867POPC   C1A13887  22.161   1.992   8.553
 5867POPC   D2A13888  22.179   2.013   8.253
 5867POPC   C3A13889  22.112   2.018   7.953
 5867POPC   C4A13890  22.126   1.957   7.653
 5867POPC   C1B13891  22.399   2.040   8.553
 5867POPC   C2B13892  22.410   2.043   8.253
 5867POPC   C3B13893  22.440   2.049   7.953
 5867POPC   C4B13894  22.373   2.042   7.653
 5868POPC   NC313895   7.465  19.808   9.453
 5868POPC   PO413896   7.399  19.815   9.153
 5868POPC   GL113897   7.423  19.850   8.853
 5868POPC   GL213898   7.531  19.840   8.853
 5868POPC   C1A13899   7.426  19.868   8.553
 5868POPC   D2A13900   7.439  19.797   8.253
 5868POPC   C3A13901   7.378  19.852   7.953
 5868POPC   C4A13902   7.427  19.808   7.653
 5868POPC   C1B13903   7.632  19.751   8.553
 5868POPC   C2B13904   7.711  19.773   8.253
 5868POPC   C3B13905   7.714  19.830   7.953
 5868POPC   C4B13906   7.707  19.748   7.653
 5869POPC   NC313907  29.930  44.616   9.453
 5869POPC   PO413908  29.955  44.684   9.153
 5869POPC   GL113909  29.963  44.629   8.853
 5869POPC   GL213910  29.878  44.537   8.853
 5869POPC   C1A13911  29.962  44.682   8.553
 5869POPC   D2A13912  29.894  44.650   8.253
 5869POPC   C3A13913  29.909  44.673   7.953
 5869POPC   C4A13914  29.964  44.657   7.653
 5869POPC   C1B13915  29.793  44.490   8.553
 5869POPC   C2B13916  29.780  44.396   8.253
 5869POPC   C3B13917  29.750  44.423   7.953
 5869POPC   C4B13918  29.840  44.446   7.653
 5870POPC   NC313919  20.656  13.644   9.453
 5870POPC   PO413920  20.594  13.599   9.153
 5870POPC   GL113921  20.585  13.643   8.853
 5870POPC   GL213922  20.685  13.654   8.853
 5870POPC   C1A13923  20.639  13.603   8.553
 5870POPC   D2A13924  20.655  13.614   8.253
 5870POPC   C3A13925  20.595  13.592   7.953
 5870POPC   C4A13926  20.604  13.672   7.653
 5870POPC   C1B13927  20.891  13.624   8.553
 5870POPC   C2B13928  20.850  13.602   8.253
 5870POPC   C3B13929  20.855  13.546   7.953
 5870POPC   C4B13930  20.873  13.623   7.653
 5871POPC   NC313931  29.130   7.445   9.453
 5871POPC   PO413932  29.160   7.461   9.153
 5871POPC   GL113933  29.103   7.385   8.853
 5871POPC   GL213934  29.211   7.302   8.853
 5871POPC   C1A13935  29.112   7.436   8.553
 5871POPC   D2A13936  29.096   7.371   8.253
 5871POPC   C3A13937  29.185   7.385   7.953
 5871POPC   C4A13938  29.190   7.376   7.653
 5871POPC   C1B13939  29.295   7.190   8.553
 5871POPC   C2B13940  29.336   7.229   8.253
 5871POPC   C3B13941  29.301   7.232   7.953
 5871POPC   C4B13942  29.306   7.279   7.653
 5872POPC   NC313943  38.501  13.608   9.453
 5872POPC   PO413944  38.489  13.646   9.153
 5872POPC   GL113945  38.409  13.649   8.853
 5872POPC   GL213946  38.360  13.734   8.853
 5872POPC   C1A13947  38.439  13.593   8.553
 5872POPC   D2A13948  38.417  13.643   8.253
 5872POPC   C3A13949  38.417  13.627   7.953
 5872POPC   C4A13950  38.502  13.610   7.653
 5872POPC   C1B13951  38.236  13.813   8.553
 5872POPC   C2B13952  38.280  13.831   8.253
 5872POPC   C3B13953  38.323  13.836   7.953
 5872POPC   C4B13954  38.252  13.792   7.653
 5873POPC   NC313955   8.926   7.436   9.453
 5873POPC   PO413956   8.944   7.377   9.153
 5873POPC   GL113957   8.974   7.398   8.853
 5873POPC   GL213958   9.097   7.321   8.853
 5873POPC   C1A13959   8.954   7.388   8.553
 5873POPC   D2A13960   8.969   7.465   8.253
 5873POPC   C3A13961   8.963   7.398   7.953
 5873POPC   C4A13962   8.930   7.457   7.653
 5873POPC   C1B13963   9.192   7.237   8.553
 5873POPC   C2B13964   9.185   7.214   8.253
 5873POPC   C3B13965   9.186   7.219   7.953
 5873POPC   C4B13966   9.156   7.201   7.653
 5874POPC   NC313967  41.540  17.491   9.453
 5874POPC   PO413968  41.550  17.524   9.153
 5874POPC   GL113969  41.554  17.465   8.853
 5874POPC   GL213970  41.599  17.632   8.853
 5874POPC   C1A13971  41.557  17.520   8.553
 5874POPC   D2A13972  41.530  17.498   8.253
 5874POPC   C3A13973  41.526  17.462   7.953
 5874POPC   C4A13974  41.604  17.508   7.653
 5874POPC   C1B13975  41.561  17.786   8.553
 5874POPC   C2B13976  41.555  17.744   8.253
 5874POPC   C3B13977  41.628  17.726   7.953
 5874POPC   C4B13978  41.632  17.739   7.653
 5875POPC   NC313979  27.627  14.434   9.453
 5875POPC   PO413980  27.604  14.449   9.153
 5875POPC   GL113981  27.578  14.362   8.853
 5875POPC   GL213982  27.674  14.392   8.853
 5875POPC   C1A13983  27.643  14.447   8.553
 5875POPC   D2A13984  27.629  14.388   8.253
 5875POPC   C3A13985  27.607  14.452   7.953
 5875POPC   C4A13986  27.554  14.435   7.653
 5875POPC   C1B13987  27.844  14.327   8.553
 5875POPC   C2B13988  27.821  14.299   8.253
 5875POPC   C3B13989  27.866  14.331   7.953
 5875POPC   C4B13990  27.867  14.325   7.653
 5876POPC   NC313991  30.696  15.968   9.453
 5876POPC   PO413992  30.666  15.964   9.153
 5876POPC   GL113993  30.649  15.960   8.853
 5876POPC   GL213994  30.782  16.079   8.853
 5876POPC   C1A13995  30.655  15.952   8.553
 5876POPC   D2A13996  30.734  15.921   8.253
 5876POPC   C3A13997  30.740  15.950   7.953
 5876POPC   C4A13998  30.710  15.949   7.653
 5876POPC   C1B13999  30.837  16.142   8.553
 5876POPC   C2B14000  30.902  16.106   8.253
 5876POPC   C3B14001  30.899  16.163   7.953
 5876POPC   C4B14002  30.820  16.148   7.653
 5877POPC   NC314003   5.043   7.433   9.453
 5877POPC   PO414004   5.058   7.429   9.153
 5877POPC   GL114005   5.085   7.403   8.853
 5877POPC   GL214006   5.186   7.350   8.853
 5877POPC   C1A14007   5.139   7.405   8.553
 5877POPC   D2A14008   5.079   7.449   8.253
 5877POPC   C3A14009   5.120   7.385   7.953
 5877POPC   C4A14010   5.080   7.450   7.653
 5877POPC   C1B14011   5.238   7.278   8.553
 5877POPC   C2B14012   5.233   7.212   8.253
 5877POPC   C3B14013   5.276   7.210   7.953
 5877POPC   C4B14014   5.251   7.265   7.653
 5878POPC   NC314015  18.306  19.877   9.453
 5878POPC   PO414016  18.329  19.824   9.153
 5878POPC   GL114017  18.309  19.811   8.853
 5878POPC   GL214018  18.199  19.733   8.853
 5878POPC   C1A14019  18.264  19.814   8.553
 5878POPC   D2A14020  18.291  19.837   8.253
 5878POPC   C3A14021  18.322  19.848   7.953
 5878POPC   C4A14022  18.298  19.836   7.653
 5878POPC   C1B14023  18.094  19.664   8.553
 5878POPC   C2B14024  18.114  19.631   8.253
 5878POPC   C3B14025  18.119  19.646   7.953
 5878POPC   C4B14026  18.130  19.601   7.653
 5879POPC   NC314027  39.200   7.380   9.453
 5879POPC   PO414028  39.197   7.435   9.153
 5879POPC   GL114029  39.250   7.378   8.853
 5879POPC   GL214030  39.109   7.441   8.853
 5879POPC   C1A14031  39.235   7.414   8.553
 5879POPC   D2A14032  39.184   7.426   8.253
 5879POPC   C3A14033  39.185   7.468   7.953
 5879POPC   C4A14034  39.240   7.389   7.653
 5879POPC   C1B14035  39.046   7.510   8.553
 5879POPC   C2B14036  39.016   7.530   8.253
 5879POPC   C3B14037  38.995   7.522   7.953
 5879POPC   C4B14038  39.013   7.603   7.653
 5880POPC   NC314039   2.803  18.287   9.453
 5880POPC   PO414040   2.798  18.298   9.153
 5880POPC   GL114041   2.740  18.328   8.853
 5880POPC   GL214042   2.703  18.193   8.853
 5880POPC   C1A14043   2.743  18.270   8.553
 5880POPC   D2A14044   2.722  18.244   8.253
 5880POPC   C3A14045   2.732  18.266   7.953
 5880POPC   C4A14046   2.762  18.323   7.653
 5880POPC   C1B14047   2.664  18.015   8.553
 5880POPC   C2B14048   2.639  18.035   8.253
 5880POPC   C3B14049   2.690  18.056   7.953
 5880POPC   C4B14050   2.668  18.075   7.653
 5881POPC   NC314051   5.061   4.310   9.453
 5881POPC   PO414052   5.125   4.309   9.153
 5881POPC   GL114053   5.057   4.324   8.853
 5881POPC   GL214054   5.109   4.404   8.853
 5881POPC   C1A14055   5.046   4.363   8.553
 5881POPC   D2A14056   5.069   4.303   8.253
 5881POPC   C3A14057   5.094   4.347   7.953
 5881POPC   C4A14058   5.077   4.346   7.653
 5881POPC   C1B14059   5.257   4.485   8.553
 5881POPC   C2B14060   5.221   4.554   8.253
 5881POPC   C3B14061   5.177   4.529   7.953
 5881POPC   C4B14062   5.259   4.545   7.653
 5882POPC   NC314063  29.884  17.495   9.453
 5882POPC   PO414064  29.901  17.474   9.153
 5882POPC   GL114065  29.956  17.472   8.853
 5882POPC   GL214066  29.993  17.472   8.853
 5882POPC   C1A14067  29.910  17.529   8.553
 5882POPC   D2A14068  29.947  17.553   8.253
 5882POPC   C3A14069  29.946  17.466   7.953
 5882POPC   C4A14070  29.885  17.552   7.653
 5882POPC   C1B14071  30.202  17.460   8.553
 5882POPC   C2B14072  30.183  17.437   8.253
 5882POPC   C3B14073  30.203  17.407   7.953
 5882POPC   C4B14074  30.199  17.409   7.653
 5883POPC   NC314075  12.087  13.655   9.453
 5883POPC   PO414076  12.066  13.638   9.153
 5883POPC   GL114077  12.098  13.610   8.853
 5883POPC   GL214078  12.182  13.600   8.853
 5883POPC   C1A14079  12.068  13.578   8.553
 5883POPC   D2A14080  12.049  13.635   8.253
 5883POPC   C3A14081  12.064  13.616   7.953
 5883POPC   C4A14082  12.109  13.586   7.653
 5883POPC   C1B14083  12.312  13.558   8.553
 5883POPC   C2B14084  12.359  13.576   8.253
 5883POPC   C3B14085  12.365  13.561   7.953
 5883POPC   C4B14086  12.340  13.556   7.653
 5884POPC   NC314087  16.749   9.020   9.453
 5884POPC   PO414088  16.694   9.004   9.153
 5884POPC   GL114089  16.731   8.947   8.853
 5884POPC   GL214090  16.825   9.005   8.853
 5884POPC   C1A14091  16.702   8.994   8.553
 5884POPC   D2A14092  16.732   9.014   8.253
 5884POPC   C3A14093  16.719   8.932   7.953
 5884POPC   C4A14094  16.729   9.010   7.653
 5884POPC   C1B14095  16.930   9.078   8.553
 5884POPC   C2B14096  16.902   9.144   8.253
 5884POPC   C3B14097  16.939   9.119   7.953
 5884POPC   C4B14098  16.971   9.072   7.653
 5885POPC   NC314099  36.858  34.559   9.453
 5885POPC   PO414100  36.856  34.618   9.153
 5885POPC   GL114101  36.950  34.566   8.853
 5885POPC   GL214102  36.949  34.725   8.853
 5885POPC   C1A14103  36.914  34.527   8.553
 5885POPC   D2A14104  36.895  34.561   8.253
 5885POPC   C3A14105  36.887  34.618   7.953
 5885POPC   C4A14106  36.880  34.625   7.653
 5885POPC   C1B14107  37.067  34.798   8.553
 5885POPC   C2B14108  37.012  34.815   8.253
 5885POPC   C3B14109  37.006  34.828   7.953
 5885POPC   C4B14110  37.030  34.803   7.653
 5886POPC   NC314111  12.876  35.359   9.453
 5886POPC   PO414112  12.844  35.302   9.153
 5886POPC   GL114113  12.835  35.328   8.853
 5886POPC   GL214114  12.751  35.226   8.853
 5886POPC   C1A14115  12.840  35.384   8.553
 5886POPC   D2A14116  12.869  35.391   8.253
 5886POPC   C3A14117  12.811  35.391   7.953
 5886POPC   C4A14118  12.814  35.342   7.653
 5886POPC   C1B14119  12.696  35.147   8.553
 5886POPC   C2B14120  12.616  35.140   8.253
 5886POPC   C3B14121  12.652  35.195   7.953
 5886POPC   C4B14122  12.697  35.221   7.653
 5887POPC   NC314123  31.432  26.784   9.453
 5887POPC   PO414124  31.498  26.772   9.153
 5887POPC   GL114125  31.484  26.811   8.853
 5887POPC   GL214126  31.320  26.930   8.853
 5887POPC   C1A14127  31.469  26.850   8.553
 5887POPC   D2A14128  31.501  26.842   8.253
 5887POPC   C3A14129  31.467  26.818   7.953
 5887POPC   C4A14130  31.461  26.807   7.653
 5887POPC   C1B14131  31.277  26.941   8.553
 5887POPC   C2B14132  31.243  26.958   8.253
 5887POPC   C3B14133  31.308  26.972   7.953
 5887POPC   C4B14134  31.264  26.935   7.653
 5888POPC   NC314135  40.740   3.514   9.453
 5888POPC   PO414136  40.812   3.500   9.153
 5888POPC   GL114137  40.738   3.565   8.853
 5888POPC   GL214138  40.721   3.428   8.853
 5888POPC   C1A14139  40.761   3.576   8.553
 5888POPC   D2A14140  40.825   3.542   8.253
 5888POPC   C3A14141  40.741   3.499   7.953
 5888POPC   C4A14142  40.832   3.510   7.653
 5888POPC   C1B14143  40.637   3.263   8.553
 5888POPC   C2B14144  40.705   3.320   8.253
 5888POPC   C3B14145  40.647   3.335   7.953
 5888POPC   C4B14146  40.653   3.266   7.653
 5889POPC   NC314147  37.708  27.632   9.453
 5889POPC   PO414148  37.630  27.545   9.153
 5889POPC   GL114149  37.631  27.590   8.853
 5889POPC   GL214150  37.659  27.495   8.853
 5889POPC   C1A14151  37.653  27.571   8.553
 5889POPC   D2A14152  37.699  27.551   8.253
 5889POPC   C3A14153  37.698  27.575   7.953
 5889POPC   C4A14154  37.705  27.547   7.653
 5889POPC   C1B14155  37.606  27.309   8.553
 5889POPC   C2B14156  37.664  27.381   8.253
 5889POPC   C3B14157  37.573  27.304   7.953
 5889POPC   C4B14158  37.645  27.375   7.653
 5890POPC   NC314159  12.108   3.525   9.453
 5890POPC   PO414160  12.084   3.512   9.153
 5890POPC   GL114161  12.104   3.581   8.853
 5890POPC   GL214162  12.075   3.381   8.853
 5890POPC   C1A14163  12.083   3.565   8.553
 5890POPC   D2A14164  12.110   3.546   8.253
 5890POPC   C3A14165  12.087   3.569   7.953
 5890POPC   C4A14166  12.108   3.581   7.653
 5890POPC   C1B14167  12.146   3.295   8.553
 5890POPC   C2B14168  12.100   3.338   8.253
 5890POPC   C3B14169  12.110   3.327   7.953
 5890POPC   C4B14170  12.191   3.291   7.653
 5891POPC   NC314171  15.185  36.917   9.453
 5891POPC   PO414172  15.201  36.904   9.153
 5891POPC   GL114173  15.164  36.865   8.853
 5891POPC   GL214174  15.131  36.802   8.853
 5891POPC   C1A14175  15.132  36.857   8.553
 5891POPC   D2A14176  15.220  36.860   8.253
 5891POPC   C3A14177  15.218  36.944   7.953
 5891POPC   C4A14178  15.206  36.870   7.653
 5891POPC   C1B14179  15.034  36.761   8.553
 5891POPC   C2B14180  15.032  36.734   8.253
 5891POPC   C3B14181  14.947  36.697   7.953
 5891POPC   C4B14182  14.990  36.731   7.653
 5892POPC   NC314183  30.663  27.548   9.453
 5892POPC   PO414184  30.673  27.603   9.153
 5892POPC   GL114185  30.684  27.636   8.853
 5892POPC   GL214186  30.671  27.442   8.853
 5892POPC   C1A14187  30.709  27.615   8.553
 5892POPC   D2A14188  30.746  27.584   8.253
 5892POPC   C3A14189  30.733  27.635   7.953
 5892POPC   C4A14190  30.729  27.592   7.653
 5892POPC   C1B14191  30.573  27.316   8.553
 5892POPC   C2B14192  30.635  27.350   8.253
 5892POPC   C3B14193  30.636  27.375   7.953
 5892POPC   C4B14194  30.598  27.378   7.653
 5893POPC   NC314195  26.054  15.964   9.453
 5893POPC   PO414196  26.070  15.980   9.153
 5893POPC   GL114197  26.018  15.931   8.853
 5893POPC   GL214198  25.935  16.091   8.853
 5893POPC   C1A14199  26.015  15.938   8.553
 5893POPC   D2A14200  26.073  15.992   8.253
 5893POPC   C3A14201  25.998  15.908   7.953
 5893POPC   C4A14202  26.054  15.963   7.653
 5893POPC   C1B14203  25.871  16.180   8.553
 5893POPC   C2B14204  25.914  16.172   8.253
 5893POPC   C3B14205  25.914  16.110   7.953
 5893POPC   C4B14206  25.902  16.140   7.653
 5894POPC   NC314207  28.390  41.519   9.453
 5894POPC   PO414208  28.387  41.599   9.153
 5894POPC   GL114209  28.384  41.557   8.853
 5894POPC   GL214210  28.222  41.431   8.853
 5894POPC   C1A14211  28.327  41.576   8.553
 5894POPC   D2A14212  28.413  41.582   8.253
 5894POPC   C3A14213  28.356  41.524   7.953
 5894POPC   C4A14214  28.394  41.565   7.653
 5894POPC   C1B14215  28.146  41.427   8.553
 5894POPC   C2B14216  28.126  41.438   8.253
 5894POPC   C3B14217  28.139  41.426   7.953
 5894POPC   C4B14218  28.200  41.417   7.653
 5895POPC   NC314219  12.061   6.665   9.453
 5895POPC   PO414220  12.047   6.633   9.153
 5895POPC   GL114221  12.050   6.691   8.853
 5895POPC   GL214222  11.950   6.680   8.853
 5895POPC   C1A14223  12.062   6.628   8.553
 5895POPC   D2A14224  12.032   6.601   8.253
 5895POPC   C3A14225  12.105   6.678   7.953
 5895POPC   C4A14226  12.102   6.653   7.653
 5895POPC   C1B14227  11.809   6.746   8.553
 5895POPC   C2B14228  11.822   6.678   8.253
 5895POPC   C3B14229  11.881   6.702   7.953
 5895POPC   C4B14230  11.881   6.658   7.653
 5896POPC   NC314231  33.015  20.577   9.453
 5896POPC   PO414232  33.004  20.641   9.153
 5896POPC   GL114233  33.009  20.653   8.853
 5896POPC   GL214234  33.010  20.697   8.853
 5896POPC   C1A14235  33.027  20.592   8.553
 5896POPC   D2A14236  32.996  20.629   8.253
 5896POPC   C3A14237  33.028  20.591   7.953
 5896POPC   C4A14238  33.070  20.642   7.653
 5896POPC   C1B14239  32.930  20.797   8.553
 5896POPC   C2B14240  32.935  20.865   8.253
 5896POPC   C3B14241  32.858  20.829   7.953
 5896POPC   C4B14242  32.856  20.846   7.653
 5897POPC   NC314243  43.118  14.359   9.453
 5897POPC   PO414244  43.139  14.397   9.153
 5897POPC   GL114245  43.127  14.423   8.853
 5897POPC   GL214246  42.984  14.483   8.853
 5897POPC   C1A14247  43.125  14.390   8.553
 5897POPC   D2A14248  43.142  14.395   8.253
 5897POPC   C3A14249  43.062  14.428   7.953
 5897POPC   C4A14250  43.153  14.442   7.653
 5897POPC   C1B14251  42.914  14.489   8.553
 5897POPC   C2B14252  42.824  14.493   8.253
 5897POPC   C3B14253  42.870  14.520   7.953
 5897POPC   C4B14254  42.867  14.515   7.653
 5898POPC   NC314255  37.649  18.243   9.453
 5898POPC   PO414256  37.729  18.260   9.153
 5898POPC   GL114257  37.707  18.313   8.853
 5898POPC   GL214258  37.820  18.266   8.853
 5898POPC   C1A14259  37.649  18.295   8.553
 5898POPC   D2A14260  37.636  18.309   8.253
 5898POPC   C3A14261  37.674  18.243   7.953
 5898POPC   C4A14262  37.716  18.285   7.653
 5898POPC   C1B14263  37.955  18.330   8.553
 5898POPC   C2B14264  37.955  18.265   8.253
 5898POPC   C3B14265  37.938  18.343   7.953
 5898POPC   C4B14266  37.959  18.344   7.653
 5899POPC   NC314267   2.731  43.854   9.453
 5899POPC   PO414268   2.795  43.843   9.153
 5899POPC   GL114269   2.752  43.930   8.853
 5899POPC   GL214270   2.870  43.950   8.853
 5899POPC   C1A14271   2.783  43.867   8.553
 5899POPC   D2A14272   2.788  43.887   8.253
 5899POPC   C3A14273   2.768  43.897   7.953
 5899POPC   C4A14274   2.763  43.868   7.653
 5899POPC   C1B14275   2.866  44.124   8.553
 5899POPC   C2B14276   2.867  44.136   8.253
 5899POPC   C3B14277   2.904  44.083   7.953
 5899POPC   C4B14278   2.883  44.109   7.653
 5900POPC   NC314279  20.577  41.606   9.453
 5900POPC   PO414280  20.573  41.563   9.153
 5900POPC   GL114281  20.658  41.555   8.853
 5900POPC   GL214282  20.781  41.595   8.853
 5900POPC   C1A14283  20.619  41.591   8.553
 5900POPC   D2A14284  20.594  41.520   8.253
 5900POPC   C3A14285  20.599  41.551   7.953
 5900POPC   C4A14286  20.586  41.523   7.653
 5900POPC   C1B14287  20.827  41.635   8.553
 5900POPC   C2B14288  20.863  41.572   8.253
 5900POPC   C3B14289  20.868  41.638   7.953
 5900POPC   C4B14290  20.808  41.591   7.653
 5901POPC   NC314291  40.787  36.916   9.453
 5901POPC   PO414292  40.796  36.877   9.153
 5901POPC   GL114293  40.774  36.899   8.853
 5901POPC   GL214294  40.723  36.982   8.853
 5901POPC   C1A14295  40.805  36.907   8.553
 5901POPC   D2A14296  40.791  36.893   8.253
 5901POPC   C3A14297  40.741  36.934   7.953
 5901POPC   C4A14298  40.768  36.904   7.653
 5901POPC   C1B14299  40.673  37.155   8.553
 5901POPC   C2B14300  40.653  37.151   8.253
 5901POPC   C3B14301  40.677  37.085   7.953
 5901POPC   C4B14302  40.634  37.114   7.653
 5902POPC   NC314303   1.219  33.833   9.453
 5902POPC   PO414304   1.248  33.829   9.153
 5902POPC   GL114305   1.193  33.756   8.853
 5902POPC   GL214306   1.262  33.704   8.853
 5902POPC   C1A14307   1.239  33.773   8.553
 5902POPC   D2A14308   1.264  33.817   8.253
 5902POPC   C3A14309   1.256  33.833   7.953
 5902POPC   C4A14310   1.176  33.763   7.653
 5902POPC   C1B14311   1.363  33.584   8.553
 5902POPC   C2B14312   1.369  33.634   8.253
 5902POPC   C3B14313   1.381  33.582   7.953
 5902POPC   C4B14314   1.343  33.609   7.653
 5903POPC   NC314315  21.430  42.312   9.453
 5903POPC   PO414316  21.413  42.287   9.153
 5903POPC   GL114317  21.342  42.360   8.853
 5903POPC   GL214318  21.518  42.400   8.853
 5903POPC   C1A14319  21.353  42.334   8.553
 5903POPC   D2A14320  21.420  42.361   8.253
 5903POPC   C3A14321  21.371  42.346   7.953
 5903POPC   C4A14322  21.401  42.347   7.653
 5903POPC   C1B14323  21.547  42.502   8.553
 5903POPC   C2B14324  21.550  42.439   8.253
 5903POPC   C3B14325  21.623  42.438   7.953
 5903POPC   C4B14326  21.608  42.468   7.653
 5904POPC   NC314327  42.347  36.943   9.453
 5904POPC   PO414328  42.293  36.862   9.153
 5904POPC   GL114329  42.304  36.881   8.853
 5904POPC   GL214330  42.254  37.015   8.853
 5904POPC   C1A14331  42.318  36.906   8.553
 5904POPC   D2A14332  42.348  36.903   8.253
 5904POPC   C3A14333  42.299  36.915   7.953
 5904POPC   C4A14334  42.363  36.859   7.653
 5904POPC   C1B14335  42.165  37.068   8.553
 5904POPC   C2B14336  42.159  37.059   8.253
 5904POPC   C3B14337  42.106  37.067   7.953
 5904POPC   C4B14338  42.136  37.011   7.653
 5905POPC   NC314339   1.222  44.644   9.453
 5905POPC   PO414340   1.230  44.692   9.153
 5905POPC   GL114341   1.230  44.616   8.853
 5905POPC   GL214342   1.122  44.638   8.853
 5905POPC   C1A14343   1.239  44.662   8.553
 5905POPC   D2A14344   1.205  44.676   8.253
 5905POPC   C3A14345   1.243  44.699   7.953
 5905POPC   C4A14346   1.216  44.688   7.653
 5905POPC   C1B14347   1.009  44.630   8.553
 5905POPC   C2B14348   0.958  44.671   8.253
 5905POPC   C3B14349   1.007  44.636   7.953
 5905POPC   C4B14350   0.986  44.693   7.653
 5906POPC   NC314351  23.667  44.689   9.453
 5906POPC   PO414352  23.670  44.711   9.153
 5906POPC   GL114353  23.725  44.703   8.853
 5906POPC   GL214354  23.830  44.553   8.853
 5906POPC   C1A14355  23.669  44.691   8.553
 5906POPC   D2A14356  23.719  44.617   8.253
 5906POPC   C3A14357  23.697  44.704   7.953
 5906POPC   C4A14358  23.762  44.672   7.653
 5906POPC   C1B14359  23.885  44.502   8.553
 5906POPC   C2B14360  23.912  44.482   8.253
 5906POPC   C3B14361  23.907  44.577   7.953
 5906POPC   C4B14362  23.906  44.503   7.653
 5907POPC   NC314363   0.480  36.951   9.453
 5907POPC   PO414364   0.419  36.886   9.153
 5907POPC   GL114365   0.473  36.880   8.853
 5907POPC   GL214366   0.423  36.809   8.853
 5907POPC   C1A14367   0.437  36.926   8.553
 5907POPC   D2A14368   0.426  36.941   8.253
 5907POPC   C3A14369   0.420  36.899   7.953
 5907POPC   C4A14370   0.476  36.941   7.653
 5907POPC   C1B14371   0.397  36.642   8.553
 5907POPC   C2B14372   0.324  36.680   8.253
 5907POPC   C3B14373   0.351  36.694   7.953
 5907POPC   C4B14374   0.351  36.718   7.653
 5908POPC   NC314375  35.369  28.410   9.453
 5908POPC   PO414376  35.376  28.335   9.153
 5908POPC   GL114377  35.358  28.376   8.853
 5908POPC   GL214378  35.349  28.213   8.853
 5908POPC   C1A14379  35.308  28.418   8.553
 5908POPC   D2A14380  35.366  28.385   8.253
 5908POPC   C3A14381  35.349  28.352   7.953
 5908POPC   C4A14382  35.308  28.394   7.653
 5908POPC   C1B14383  35.344  28.128   8.553
 5908POPC   C2B14384  35.388  28.160   8.253
 5908POPC   C3B14385  35.391  28.110   7.953
 5908POPC   C4B14386  35.352  28.084   7.653
 5909POPC   NC314387  12.871   1.189   9.453
 5909POPC   PO414388  12.889   1.196   9.153
 5909POPC   GL114389  12.888   1.228   8.853
 5909POPC   GL214390  12.916   1.090   8.853
 5909POPC   C1A14391  12.804   1.229   8.553
 5909POPC   D2A14392  12.857   1.198   8.253
 5909POPC   C3A14393  12.889   1.184   7.953
 5909POPC   C4A14394  12.857   1.215   7.653
 5909POPC   C1B14395  12.969   1.043   8.553
 5909POPC   C2B14396  12.993   0.971   8.253
 5909POPC   C3B14397  12.922   0.957   7.953
 5909POPC   C4B14398  12.984   0.947   7.653
 5910POPC   NC314399  15.140  44.699   9.453
 5910POPC   PO414400  15.203  44.662   9.153
 5910POPC   GL114401  15.150  44.632   8.853
 5910POPC   GL214402  15.102  44.574   8.853
 5910POPC   C1A14403  15.210  44.614   8.553
 5910POPC   D2A14404  15.219  44.671   8.253
 5910POPC   C3A14405  15.161  44.654   7.953
 5910POPC   C4A14406  15.161  44.649   7.653
 5910POPC   C1B14407  14.950  44.516   8.553
 5910POPC   C2B14408  14.995  44.461   8.253
 5910POPC   C3B14409  15.006  44.505   7.953
 5910POPC   C4B14410  15.016  44.462   7.653
 5911POPC   NC314411   9.000  12.045   9.453
 5911POPC   PO414412   8.948  12.122   9.153
 5911POPC   GL114413   8.968  12.062   8.853
 5911POPC   GL214414   9.009  12.216   8.853
 5911POPC   C1A14415   8.998  12.070   8.553
 5911POPC   D2A14416   8.925  12.030   8.253
 5911POPC   C3A14417   8.929  12.038   7.953
 5911POPC   C4A14418   9.014  12.063   7.653
 5911POPC   C1B14419   9.085  12.322   8.553
 5911POPC   C2B14420   8.999  12.279   8.253
 5911POPC   C3B14421   9.091  12.341   7.953
 5911POPC   C4B14422   9.045  12.314   7.653
 5912POPC   NC314423   3.546  20.631   9.453
 5912POPC   PO414424   3.541  20.610   9.153
 5912POPC   GL114425   3.523  20.596   8.853
 5912POPC   GL214426   3.622  20.596   8.853
 5912POPC   C1A14427   3.584  20.566   8.553
 5912POPC   D2A14428   3.576  20.653   8.253
 5912POPC   C3A14429   3.520  20.603   7.953
 5912POPC   C4A14430   3.502  20.584   7.653
 5912POPC   C1B14431   3.750  20.664   8.553
 5912POPC   C2B14432   3.749  20.663   8.253
 5912POPC   C3B14433   3.811  20.640   7.953
 5912POPC   C4B14434   3.778  20.715   7.653
 5913POPC   NC314435   2.789  15.210   9.453
 5913POPC   PO414436   2.768  15.183   9.153
 5913POPC   GL114437   2.741  15.169   8.853
 5913POPC   GL214438   2.774  15.271   8.853
 5913POPC   C1A14439   2.778  15.179   8.553
 5913POPC   D2A14440   2.719  15.185   8.253
 5913POPC   C3A14441   2.716  15.154   7.953
 5913POPC   C4A14442   2.719  15.196   7.653
 5913POPC   C1B14443   2.746  15.452   8.553
 5913POPC   C2B14444   2.797  15.418   8.253
 5913POPC   C3B14445   2.759  15.411   7.953
 5913POPC   C4B14446   2.802  15.433   7.653
 5914POPC   NC314447  37.725  21.419   9.453
 5914POPC   PO414448  37.693  21.361   9.153
 5914POPC   GL114449  37.694  21.386   8.853
 5914POPC   GL214450  37.578  21.295   8.853
 5914POPC   C1A14451  37.629  21.386   8.553
 5914POPC   D2A14452  37.674  21.407   8.253
 5914POPC   C3A14453  37.632  21.342   7.953
 5914POPC   C4A14454  37.669  21.384   7.653
 5914POPC   C1B14455  37.571  21.193   8.553
 5914POPC   C2B14456  37.570  21.176   8.253
 5914POPC   C3B14457  37.567  21.148   7.953
 5914POPC   C4B14458  37.624  21.162   7.653
 5915POPC   NC314459   2.020  16.741   9.453
 5915POPC   PO414460   1.979  16.734   9.153
 5915POPC   GL114461   2.022  16.767   8.853
 5915POPC   GL214462   2.048  16.562   8.853
 5915POPC   C1A14463   2.019  16.767   8.553
 5915POPC   D2A14464   2.025  16.717   8.253
 5915POPC   C3A14465   1.977  16.760   7.953
 5915POPC   C4A14466   2.022  16.731   7.653
 5915POPC   C1B14467   2.042  16.459   8.553
 5915POPC   C2B14468   2.094  16.474   8.253
 5915POPC   C3B14469   2.077  16.531   7.953
 5915POPC   C4B14470   2.102  16.530   7.653
 5916POPC   NC314471  18.277  15.927   9.453
 5916POPC   PO414472  18.306  15.943   9.153
 5916POPC   GL114473  18.277  15.980   8.853
 5916POPC   GL214474  18.209  15.937   8.853
 5916POPC   C1A14475  18.285  15.954   8.553
 5916POPC   D2A14476  18.264  15.967   8.253
 5916POPC   C3A14477  18.314  15.985   7.953
 5916POPC   C4A14478  18.234  15.910   7.653
 5916POPC   C1B14479  18.012  16.016   8.553
 5916POPC   C2B14480  18.043  15.961   8.253
 5916POPC   C3B14481  18.063  15.994   7.953
 5916POPC   C4B14482  18.029  16.020   7.653
 5917POPC   NC314483  15.948  35.368   9.453
 5917POPC   PO414484  15.939  35.380   9.153
 5917POPC   GL114485  15.984  35.344   8.853
 5917POPC   GL214486  15.811  35.376   8.853
 5917POPC   C1A14487  15.909  35.342   8.553
 5917POPC   D2A14488  15.986  35.389   8.253
 5917POPC   C3A14489  15.924  35.389   7.953
 5917POPC   C4A14490  15.918  35.323   7.653
 5917POPC   C1B14491  15.749  35.466   8.553
 5917POPC   C2B14492  15.772  35.514   8.253
 5917POPC   C3B14493  15.752  35.441   7.953
 5917POPC   C4B14494  15.786  35.444   7.653
 5918POPC   NC314495  16.761  19.878   9.453
 5918POPC   PO414496  16.685  19.831   9.153
 5918POPC   GL114497  16.728  19.798   8.853
 5918POPC   GL214498  16.765  19.939   8.853
 5918POPC   C1A14499  16.744  19.829   8.553
 5918POPC   D2A14500  16.759  19.858   8.253
 5918POPC   C3A14501  16.726  19.862   7.953
 5918POPC   C4A14502  16.749  19.879   7.653
 5918POPC   C1B14503  16.810  20.031   8.553
 5918POPC   C2B14504  16.858  20.098   8.253
 5918POPC   C3B14505  16.864  20.089   7.953
 5918POPC   C4B14506  16.798  20.059   7.653
 5919POPC   NC314507  15.134   1.184   9.453
 5919POPC   PO414508  15.134   1.213   9.153
 5919POPC   GL114509  15.149   1.234   8.853
 5919POPC   GL214510  15.241   1.116   8.853
 5919POPC   C1A14511  15.222   1.216   8.553
 5919POPC   D2A14512  15.147   1.230   8.253
 5919POPC   C3A14513  15.154   1.242   7.953
 5919POPC   C4A14514  15.177   1.190   7.653
 5919POPC   C1B14515  15.232   1.031   8.553
 5919POPC   C2B14516  15.301   0.981   8.253
 5919POPC   C3B14517  15.305   0.964   7.953
 5919POPC   C4B14518  15.309   0.979   7.653
 5920POPC   NC314519  19.844  22.172   9.453
 5920POPC   PO414520  19.789  22.175   9.153
 5920POPC   GL114521  19.800  22.208   8.853
 5920POPC   GL214522  19.834  22.091   8.853
 5920POPC   C1A14523  19.879  22.155   8.553
 5920POPC   D2A14524  19.842  22.192   8.253
 5920POPC   C3A14525  19.861  22.187   7.953
 5920POPC   C4A14526  19.829  22.118   7.653
 5920POPC   C1B14527  19.959  21.911   8.553
 5920POPC   C2B14528  19.920  21.953   8.253
 5920POPC   C3B14529  19.925  21.937   7.953
 5920POPC   C4B14530  19.909  21.933   7.653
 5921POPC   NC314531  37.654   8.231   9.453
 5921POPC   PO414532  37.638   8.229   9.153
 5921POPC   GL114533  37.689   8.160   8.853
 5921POPC   GL214534  37.735   8.157   8.853
 5921POPC   C1A14535  37.663   8.159   8.553
 5921POPC   D2A14536  37.699   8.212   8.253
 5921POPC   C3A14537  37.687   8.147   7.953
 5921POPC   C4A14538  37.668   8.149   7.653
 5921POPC   C1B14539  37.896   8.025   8.553
 5921POPC   C2B14540  37.855   8.011   8.253
 5921POPC   C3B14541  37.863   7.988   7.953
 5921POPC   C4B14542  37.848   8.034   7.653
 5922POPC   NC314543  39.197  26.013   9.453
 5922POPC   PO414544  39.200  26.072   9.153
 5922POPC   GL114545  39.195  26.026   8.853
 5922POPC   GL214546  39.360  25.978   8.853
 5922POPC   C1A14547  39.241  26.039   8.553
 5922POPC   D2A14548  39.276  26.010   8.253
 5922POPC   C3A14549  39.186  26.042   7.953
 5922POPC   C4A14550  39.214  26.078   7.653
 5922POPC   C1B14551  39.489  25.910   8.553
 5922POPC   C2B14552  39.477  25.948   8.253
 5922POPC   C3B14553  39.402  25.963   7.953
 5922POPC   C4B14554  39.398  25.956   7.653
 5923POPC   NC314555   6.622   9.738   9.453
 5923POPC   PO414556   6.657   9.767   9.153
 5923POPC   GL114557   6.624   9.754   8.853
 5923POPC   GL214558   6.600   9.885   8.853
 5923POPC   C1A14559   6.668   9.748   8.553
 5923POPC   D2A14560   6.688   9.710   8.253
 5923POPC   C3A14561   6.649   9.725   7.953
 5923POPC   C4A14562   6.635   9.700   7.653
 5923POPC   C1B14563   6.538   9.958   8.553
 5923POPC   C2B14564   6.528   9.986   8.253
 5923POPC   C3B14565   6.557   9.949   7.953
 5923POPC   C4B14566   6.546  10.002   7.653
 5924POPC   NC314567  24.444  33.795   9.453
 5924POPC   PO414568  24.447  33.763   9.153
 5924POPC   GL114569  24.447  33.801   8.853
 5924POPC   GL214570  24.607  33.752   8.853
 5924POPC   C1A14571  24.530  33.819   8.553
 5924POPC   D2A14572  24.530  33.829   8.253
 5924POPC   C3A14573  24.444  33.791   7.953
 5924POPC   C4A14574  24.476  33.774   7.653
 5924POPC   C1B14575  24.723  33.748   8.553
 5924POPC   C2B14576  24.720  33.708   8.253
 5924POPC   C3B14577  24.720  33.706   7.953
 5924POPC   C4B14578  24.777  33.722   7.653
 5925POPC   NC314579  43.903  36.913   9.453
 5925POPC   PO414580  43.869  36.944   9.153
 5925POPC   GL114581  43.923  36.937   8.853
 5925POPC   GL214582  43.890  36.984   8.853
 5925POPC   C1A14583  43.897  36.861   8.553
 5925POPC   D2A14584  43.929  36.894   8.253
 5925POPC   C3A14585  43.905  36.882   7.953
 5925POPC   C4A14586  43.889  36.854   7.653
 5925POPC   C1B14587  43.917  37.111   8.553
 5925POPC   C2B14588  43.934  37.168   8.253
 5925POPC   C3B14589  43.978  37.195   7.953
 5925POPC   C4B14590  43.980  37.164   7.653
 5926POPC   NC314591  42.320  19.836   9.453
 5926POPC   PO414592  42.381  19.838   9.153
 5926POPC   GL114593  42.298  19.786   8.853
 5926POPC   GL214594  42.413  19.954   8.853
 5926POPC   C1A14595  42.363  19.834   8.553
 5926POPC   D2A14596  42.376  19.799   8.253
 5926POPC   C3A14597  42.382  19.836   7.953
 5926POPC   C4A14598  42.337  19.830   7.653
 5926POPC   C1B14599  42.415  20.051   8.553
 5926POPC   C2B14600  42.382  20.111   8.253
 5926POPC   C3B14601  42.382  20.101   7.953
 5926POPC   C4B14602  42.382  20.077   7.653
 5927POPC   NC314603  19.820  43.086   9.453
 5927POPC   PO414604  19.787  43.071   9.153
 5927POPC   GL114605  19.876  43.147   8.853
 5927POPC   GL214606  19.912  43.023   8.853
 5927POPC   C1A14607  19.875  43.106   8.553
 5927POPC   D2A14608  19.880  43.099   8.253
 5927POPC   C3A14609  19.841  43.105   7.953
 5927POPC   C4A14610  19.871  43.140   7.653
 5927POPC   C1B14611  19.983  42.937   8.553
 5927POPC   C2B14612  19.967  42.887   8.253
 5927POPC   C3B14613  20.013  42.881   7.953
 5927POPC   C4B14614  19.964  42.950   7.653
 5928POPC   NC314615   5.099  37.704   9.453
 5928POPC   PO414616   5.113  37.726   9.153
 5928POPC   GL114617   5.116  37.631   8.853
 5928POPC   GL214618   4.996  37.670   8.853
 5928POPC   C1A14619   5.101  37.716   8.553
 5928POPC   D2A14620   5.071  37.668   8.253
 5928POPC   C3A14621   5.137  37.684   7.953
 5928POPC   C4A14622   5.077  37.632   7.653
 5928POPC   C1B14623   4.807  37.630   8.553
 5928POPC   C2B14624   4.810  37.567   8.253
 5928POPC   C3B14625   4.827  37.585   7.953
 5928POPC   C4B14626   4.846  37.555   7.653
 5929POPC   NC314627  14.411  34.571   9.453
 5929POPC   PO414628  14.385  34.588   9.153
 5929POPC   GL114629  14.426  34.562   8.853
 5929POPC   GL214630  14.259  34.686   8.853
 5929POPC   C1A14631  14.416  34.620   8.553
 5929POPC   D2A14632  14.386  34.602   8.253
 5929POPC   C3A14633  14.373  34.605   7.953
 5929POPC   C4A14634  14.418  34.572   7.653
 5929POPC   C1B14635  14.198  34.732   8.553
 5929POPC   C2B14636  14.252  34.761   8.253
 5929POPC   C3B14637  14.263  34.760   7.953
 5929POPC   C4B14638  14.182  34.751   7.653
 5930POPC   NC314639   1.264  21.387   9.453
 5930POPC   PO414640   1.172  21.431   9.153
 5930POPC   GL114641   1.199  21.380   8.853
 5930POPC   GL214642   1.112  21.353   8.853
 5930POPC   C1A14643   1.191  21.364   8.553
 5930POPC   D2A14644   1.218  21.422   8.253
 5930POPC   C3A14645   1.212  21.349   7.953
 5930POPC   C4A14646   1.238  21.349   7.653
 5930POPC   C1B14647   0.994  21.343   8.553
 5930POPC   C2B14648   0.963  21.366   8.253
 5930POPC   C3B14649   0.917  21.381   7.953
 5930POPC   C4B14650   0.936  21.378   7.653
 5931POPC   NC314651   8.938   6.616   9.453
 5931POPC   PO414652   8.943   6.607   9.153
 5931POPC   GL114653   8.955   6.632   8.853
 5931POPC   GL214654   8.802   6.671   8.853
 5931POPC   C1A14655   8.984   6.673   8.553
 5931POPC   D2A14656   8.933   6.631   8.253
 5931POPC   C3A14657   8.928   6.600   7.953
 5931POPC   C4A14658   8.953   6.646   7.653
 5931POPC   C1B14659   8.684   6.660   8.553
 5931POPC   C2B14660   8.691   6.641   8.253
 5931POPC   C3B14661   8.739   6.674   7.953
 5931POPC   C4B14662   8.703   6.648   7.653
 5932POPC   NC314663   1.237   9.772   9.453
 5932POPC   PO414664   1.225   9.763   9.153
 5932POPC   GL114665   1.203   9.719   8.853
 5932POPC   GL214666   1.185   9.609   8.853
 5932POPC   C1A14667   1.260   9.785   8.553
 5932POPC   D2A14668   1.211   9.720   8.253
 5932POPC   C3A14669   1.251   9.708   7.953
 5932POPC   C4A14670   1.260   9.707   7.653
 5932POPC   C1B14671   1.059   9.542   8.553
 5932POPC   C2B14672   1.058   9.550   8.253
 5932POPC   C3B14673   1.084   9.543   7.953
 5932POPC   C4B14674   1.075   9.524   7.653
 5933POPC   NC314675  20.603  28.366   9.453
 5933POPC   PO414676  20.613  28.402   9.153
 5933POPC   GL114677  20.632  28.392   8.853
 5933POPC   GL214678  20.671  28.204   8.853
 5933POPC   C1A14679  20.583  28.380   8.553
 5933POPC   D2A14680  20.596  28.353   8.253
 5933POPC   C3A14681  20.621  28.347   7.953
 5933POPC   C4A14682  20.637  28.394   7.653
 5933POPC   C1B14683  20.735  28.097   8.553
 5933POPC   C2B14684  20.671  28.178   8.253
 5933POPC   C3B14685  20.716  28.160   7.953
 5933POPC   C4B14686  20.728  28.103   7.653
 5934POPC   NC314687   8.178  10.573   9.453
 5934POPC   PO414688   8.158  10.494   9.153
 5934POPC   GL114689   8.195  10.565   8.853
 5934POPC   GL214690   8.287  10.569   8.853
 5934POPC   C1A14691   8.173  10.505   8.553
 5934POPC   D2A14692   8.209  10.554   8.253
 5934POPC   C3A14693   8.197  10.486   7.953
 5934POPC   C4A14694   8.191  10.480   7.653
 5934POPC   C1B14695   8.467  10.472   8.553
 5934POPC   C2B14696   8.421  10.516   8.253
 5934POPC   C3B14697   8.487  10.527   7.953
 5934POPC   C4B14698   8.423  10.494   7.653
 5935POPC   NC314699  43.898  38.417   9.453
 5935POPC   PO414700  43.904  38.418   9.153
 5935POPC   GL114701  43.872  38.422   8.853
 5935POPC   GL214702  43.934  38.610   8.853
 5935POPC   C1A14703  43.871  38.448   8.553
 5935POPC   D2A14704  43.890  38.427   8.253
 5935POPC   C3A14705  43.892  38.480   7.953
 5935POPC   C4A14706  43.842  38.456   7.653
 5935POPC   C1B14707  44.022  38.663   8.553
 5935POPC   C2B14708  44.020  38.711   8.253
 5935POPC   C3B14709  44.023  38.668   7.953
 5935POPC   C4B14710  43.993  38.705   7.653
 5936POPC   NC314711   6.654   1.251   9.453
 5936POPC   PO414712   6.632   1.187   9.153
 5936POPC   GL114713   6.694   1.177   8.853
 5936POPC   GL214714   6.625   1.387   8.853
 5936POPC   C1A14715   6.679   1.212   8.553
 5936POPC   D2A14716   6.639   1.199   8.253
 5936POPC   C3A14717   6.656   1.231   7.953
 5936POPC   C4A14718   6.694   1.188   7.653
 5936POPC   C1B14719   6.679   1.483   8.553
 5936POPC   C2B14720   6.683   1.479   8.253
 5936POPC   C3B14721   6.672   1.414   7.953
 5936POPC   C4B14722   6.694   1.513   7.653
 5937POPC   NC314723  43.861  17.536   9.453
 5937POPC   PO414724  43.931  17.523   9.153
 5937POPC   GL114725  43.926  17.519   8.853
 5937POPC   GL214726  43.768  17.479   8.853
 5937POPC   C1A14727  43.845  17.475   8.553
 5937POPC   D2A14728  43.853  17.464   8.253
 5937POPC   C3A14729  43.905  17.524   7.953
 5937POPC   C4A14730  43.856  17.466   7.653
 5937POPC   C1B14731  43.688  17.459   8.553
 5937POPC   C2B14732  43.629  17.394   8.253
 5937POPC   C3B14733  43.614  17.432   7.953
 5937POPC   C4B14734  43.679  17.441   7.653
 5938POPC   NC314735  32.270  43.086   9.453
 5938POPC   PO414736  32.242  43.095   9.153
 5938POPC   GL114737  32.280  43.108   8.853
 5938POPC   GL214738  32.325  43.249   8.853
 5938POPC   C1A14739  32.236  43.159   8.553
 5938POPC   D2A14740  32.213  43.097   8.253
 5938POPC   C3A14741  32.253  43.092   7.953
 5938POPC   C4A14742  32.264  43.135   7.653
 5938POPC   C1B14743  32.360  43.297   8.553
 5938POPC   C2B14744  32.336  43.347   8.253
 5938POPC   C3B14745  32.356  43.343   7.953
 5938POPC   C4B14746  32.373  43.390   7.653
 5939POPC   NC314747  42.321  15.160   9.453
 5939POPC   PO414748  42.298  15.211   9.153
 5939POPC   GL114749  42.331  15.173   8.853
 5939POPC   GL214750  42.419  15.280   8.853
 5939POPC   C1A14751  42.330  15.143   8.553
 5939POPC   D2A14752  42.360  15.170   8.253
 5939POPC   C3A14753  42.321  15.153   7.953
 5939POPC   C4A14754  42.357  15.129   7.653
 5939POPC   C1B14755  42.503  15.387   8.553
 5939POPC   C2B14756  42.558  15.364   8.253
 5939POPC   C3B14757  42.539  15.314   7.953
 5939POPC   C4B14758  42.536  15.392   7.653
 5940POPC   NC314759   1.968  11.258   9.453
 5940POPC   PO414760   2.003  11.316   9.153
 5940POPC   GL114761   1.957  11.262   8.853
 5940POPC   GL214762   1.911  11.263   8.853
 5940POPC   C1A14763   1.945  11.296   8.553
 5940POPC   D2A14764   1.945  11.344   8.253
 5940POPC   C3A14765   2.027  11.295   7.953
 5940POPC   C4A14766   2.018  11.324   7.653
 5940POPC   C1B14767   1.742  11.151   8.553
 5940POPC   C2B14768   1.765  11.213   8.253
 5940POPC   C3B14769   1.788  11.173   7.953
 5940POPC   C4B14770   1.801  11.153   7.653
 5941POPC   NC314771  35.337  20.645   9.453
 5941POPC   PO414772  35.315  20.655   9.153
 5941POPC   GL114773  35.307  20.619   8.853
 5941POPC   GL214774  35.265  20.629   8.853
 5941POPC   C1A14775  35.399  20.599   8.553
 5941POPC   D2A14776  35.386  20.619   8.253
 5941POPC   C3A14777  35.370  20.616   7.953
 5941POPC   C4A14778  35.388  20.660   7.653
 5941POPC   C1B14779  35.108  20.644   8.553
 5941POPC   C2B14780  35.146  20.679   8.253
 5941POPC   C3B14781  35.074  20.674   7.953
 5941POPC   C4B14782  35.065  20.655   7.653
 5942POPC   NC314783  39.191  12.061   9.453
 5942POPC   PO414784  39.193  12.054   9.153
 5942POPC   GL114785  39.198  12.109   8.853
 5942POPC   GL214786  39.328  12.038   8.853
 5942POPC   C1A14787  39.279  12.116   8.553
 5942POPC   D2A14788  39.220  12.030   8.253
 5942POPC   C3A14789  39.261  12.031   7.953
 5942POPC   C4A14790  39.241  12.042   7.653
 5942POPC   C1B14791  39.491  12.111   8.553
 5942POPC   C2B14792  39.488  12.099   8.253
 5942POPC   C3B14793  39.517  12.062   7.953
 5942POPC   C4B14794  39.525  12.047   7.653
 5943POPC   NC314795  12.804   2.741   9.453
 5943POPC   PO414796  12.854   2.716   9.153
 5943POPC   GL114797  12.891   2.738   8.853
 5943POPC   GL214798  12.724   2.699   8.853
 5943POPC   C1A14799  12.878   2.719   8.553
 5943POPC   D2A14800  12.874   2.745   8.253
 5943POPC   C3A14801  12.854   2.716   7.953
 5943POPC   C4A14802  12.825   2.750   7.653
 5943POPC   C1B14803  12.633   2.645   8.553
 5943POPC   C2B14804  12.613   2.650   8.253
 5943POPC   C3B14805  12.606   2.709   7.953
 5943POPC   C4B14806  12.659   2.726   7.653
 5944POPC   NC314807   8.178  17.520   9.453
 5944POPC   PO414808   8.245  17.556   9.153
 5944POPC   GL114809   8.206  17.473   8.853
 5944POPC   GL214810   8.192  17.640   8.853
 5944POPC   C1A14811   8.179  17.482   8.553
 5944POPC   D2A14812   8.214  17.544   8.253
 5944POPC   C3A14813   8.213  17.507   7.953
 5944POPC   C4A14814   8.223  17.488   7.653
 5944POPC   C1B14815   8.248  17.729   8.553
 5944POPC   C2B14816   8.276  17.723   8.253
 5944POPC   C3B14817   8.280  17.730   7.953
 5944POPC   C4B14818   8.232  17.782   7.653
 5945POPC   NC314819  29.173  15.228   9.453
 5945POPC   PO414820  29.143  15.183   9.153
 5945POPC   GL114821  29.137  15.169   8.853
 5945POPC   GL214822  29.014  15.186   8.853
 5945POPC   C1A14823  29.123  15.162   8.553
 5945POPC   D2A14824  29.130  15.220   8.253
 5945POPC   C3A14825  29.159  15.186   7.953
 5945POPC   C4A14826  29.135  15.199   7.653
 5945POPC   C1B14827  28.885  15.256   8.553
 5945POPC   C2B14828  28.888  15.220   8.253
 5945POPC   C3B14829  28.910  15.186   7.953
 5945POPC   C4B14830  28.915  15.214   7.653
 5946POPC   NC314831  33.835  27.597   9.453
 5946POPC   PO414832  33.758  27.611   9.153
 5946POPC   GL114833  33.796  27.638   8.853
 5946POPC   GL214834  33.849  27.478   8.853
 5946POPC   C1A14835  33.811  27.571   8.553
 5946POPC   D2A14836  33.769  27.626   8.253
 5946POPC   C3A14837  33.790  27.596   7.953
 5946POPC   C4A14838  33.818  27.600   7.653
 5946POPC   C1B14839  33.996  27.400   8.553
 5946POPC   C2B14840  33.980  27.421   8.253
 5946POPC   C3B14841  33.961  27.380   7.953
 5946POPC   C4B14842  33.899  27.381   7.653
 5947POPC   NC314843  19.804   0.486   9.453
 5947POPC   PO414844  19.794   0.390   9.153
 5947POPC   GL114845  19.861   0.458   8.853
 5947POPC   GL214846  19.782   0.513   8.853
 5947POPC   C1A14847  19.831   0.412   8.553
 5947POPC   D2A14848  19.811   0.419   8.253
 5947POPC   C3A14849  19.863   0.418   7.953
 5947POPC   C4A14850  19.871   0.431   7.653
 5947POPC   C1B14851  19.785   0.648   8.553
 5947POPC   C2B14852  19.803   0.643   8.253
 5947POPC   C3B14853  19.734   0.663   7.953
 5947POPC   C4B14854  19.779   0.672   7.653
 5948POPC   NC314855   5.865  18.269   9.453
 5948POPC   PO414856   5.867  18.236   9.153
 5948POPC   GL114857   5.855  18.291   8.853
 5948POPC   GL214858   6.005  18.190   8.853
 5948POPC   C1A14859   5.837  18.283   8.553
 5948POPC   D2A14860   5.850  18.297   8.253
 5948POPC   C3A14861   5.907  18.276   7.953
 5948POPC   C4A14862   5.906  18.237   7.653
 5948POPC   C1B14863   6.086  18.202   8.553
 5948POPC   C2B14864   6.056  18.137   8.253
 5948POPC   C3B14865   6.146  18.214   7.953
 5948POPC   C4B14866   6.146  18.170   7.653
 5949POPC   NC314867  25.286  39.998   9.453
 5949POPC   PO414868  25.293  40.027   9.153
 5949POPC   GL114869  25.283  39.971   8.853
 5949POPC   GL214870  25.216  40.166   8.853
 5949POPC   C1A14871  25.229  40.006   8.553
 5949POPC   D2A14872  25.289  39.967   8.253
 5949POPC   C3A14873  25.276  40.020   7.953
 5949POPC   C4A14874  25.253  39.983   7.653
 5949POPC   C1B14875  25.194  40.227   8.553
 5949POPC   C2B14876  25.232  40.277   8.253
 5949POPC   C3B14877  25.202  40.196   7.953
 5949POPC   C4B14878  25.147  40.276   7.653
 5950POPC   NC314879  36.162  19.798   9.453
 5950POPC   PO414880  36.147  19.845   9.153
 5950POPC   GL114881  36.085  19.868   8.853
 5950POPC   GL214882  36.080  19.904   8.853
 5950POPC   C1A14883  36.078  19.849   8.553
 5950POPC   D2A14884  36.147  19.842   8.253
 5950POPC   C3A14885  36.121  19.860   7.953
 5950POPC   C4A14886  36.152  19.864   7.653
 5950POPC   C1B14887  36.003  20.000   8.553
 5950POPC   C2B14888  35.956  20.010   8.253
 5950POPC   C3B14889  35.937  20.021   7.953
 5950POPC   C4B14890  35.932  20.045   7.653
 5951POPC   NC314891   5.110   9.712   9.453
 5951POPC   PO414892   5.103   9.756   9.153
 5951POPC   GL114893   5.128   9.786   8.853
 5951POPC   GL214894   5.159   9.637   8.853
 5951POPC   C1A14895   5.070   9.707   8.553
 5951POPC   D2A14896   5.125   9.787   8.253
 5951POPC   C3A14897   5.049   9.745   7.953
 5951POPC   C4A14898   5.048   9.749   7.653
 5951POPC   C1B14899   5.198   9.519   8.553
 5951POPC   C2B14900   5.246   9.536   8.253
 5951POPC   C3B14901   5.258   9.507   7.953
 5951POPC   C4B14902   5.193   9.584   7.653
 5952POPC   NC314903  35.387  10.551   9.453
 5952POPC   PO414904  35.338  10.542   9.153
 5952POPC   GL114905  35.379  10.568   8.853
 5952POPC   GL214906  35.515  10.485   8.853
 5952POPC   C1A14907  35.308  10.560   8.553
 5952POPC   D2A14908  35.323  10.494   8.253
 5952POPC   C3A14909  35.328  10.477   7.953
 5952POPC   C4A14910  35.401  10.567   7.653
 5952POPC   C1B14911  35.589  10.499   8.553
 5952POPC   C2B14912  35.649  10.506   8.253
 5952POPC   C3B14913  35.627  10.559   7.953
 5952POPC   C4B14914  35.644  10.533   7.653
 5953POPC   NC314915   8.977  22.970   9.453
 5953POPC   PO414916   9.016  22.891   9.153
 5953POPC   GL114917   8.945  22.899   8.853
 5953POPC   GL214918   8.922  23.112   8.853
 5953POPC   C1A14919   9.011  22.960   8.553
 5953POPC   D2A14920   8.938  22.910   8.253
 5953POPC   C3A14921   8.979  22.979   7.953
 5953POPC   C4A14922   8.955  22.983   7.653
 5953POPC   C1B14923   8.972  23.184   8.553
 5953POPC   C2B14924   8.971  23.162   8.253
 5953POPC   C3B14925   8.992  23.163   7.953
 5953POPC   C4B14926   8.999  23.198   7.653
 5954POPC   NC314927  11.323  12.828   9.453
 5954POPC   PO414928  11.331  12.837   9.153
 5954POPC   GL114929  11.266  12.893   8.853
 5954POPC   GL214930  11.152  12.830   8.853
 5954POPC   C1A14931  11.310  12.850   8.553
 5954POPC   D2A14932  11.260  12.887   8.253
 5954POPC   C3A14933  11.335  12.831   7.953
 5954POPC   C4A14934  11.318  12.870   7.653
 5954POPC   C1B14935  11.068  12.863   8.553
 5954POPC   C2B14936  11.014  12.865   8.253
 5954POPC   C3B14937  11.029  12.845   7.953
 5954POPC   C4B14938  11.062  12.804   7.653
 5955POPC   NC314939  19.862  40.768   9.453
 5955POPC   PO414940  19.864  40.741   9.153
 5955POPC   GL114941  19.829  40.830   8.853
 5955POPC   GL214942  19.952  40.866   8.853
 5955POPC   C1A14943  19.791  40.785   8.553
 5955POPC   D2A14944  19.874  40.784   8.253
 5955POPC   C3A14945  19.812  40.796   7.953
 5955POPC   C4A14946  19.821  40.743   7.653
 5955POPC   C1B14947  20.090  40.900   8.553
 5955POPC   C2B14948  20.086  40.880   8.253
 5955POPC   C3B14949  20.072  40.933   7.953
 5955POPC   C4B14950  20.000  40.941   7.653
 5956POPC   NC314951  12.857   3.558   9.453
 5956POPC   PO414952  12.820   3.538   9.153
 5956POPC   GL114953  12.875   3.500   8.853
 5956POPC   GL214954  12.795   3.703   8.853
 5956POPC   C1A14955  12.863   3.582   8.553
 5956POPC   D2A14956  12.825   3.591   8.253
 5956POPC   C3A14957  12.854   3.540   7.953
 5956POPC   C4A14958  12.804   3.514   7.653
 5956POPC   C1B14959  12.830   3.753   8.553
 5956POPC   C2B14960  12.868   3.831   8.253
 5956POPC   C3B14961  12.789   3.772   7.953
 5956POPC   C4B14962  12.843   3.786   7.653
 5957POPC   NC314963   8.157  28.393   9.453
 5957POPC   PO414964   8.245  28.319   9.153
 5957POPC   GL114965   8.234  28.344   8.853
 5957POPC   GL214966   8.252  28.522   8.853
 5957POPC   C1A14967   8.153  28.352   8.553
 5957POPC   D2A14968   8.154  28.328   8.253
 5957POPC   C3A14969   8.241  28.365   7.953
 5957POPC   C4A14970   8.183  28.352   7.653
 5957POPC   C1B14971   8.276  28.583   8.553
 5957POPC   C2B14972   8.220  28.648   8.253
 5957POPC   C3B14973   8.221  28.588   7.953
 5957POPC   C4B14974   8.275  28.622   7.653
 5958POPC   NC314975   5.096   5.834   9.453
 5958POPC   PO414976   5.077   5.834   9.153
 5958POPC   GL114977   5.066   5.876   8.853
 5958POPC   GL214978   5.072   5.777   8.853
 5958POPC   C1A14979   5.059   5.832   8.553
 5958POPC   D2A14980   5.134   5.888   8.253
 5958POPC   C3A14981   5.079   5.890   7.953
 5958POPC   C4A14982   5.059   5.850   7.653
 5958POPC   C1B14983   4.998   5.580   8.553
 5958POPC   C2B14984   5.071   5.606   8.253
 5958POPC   C3B14985   5.060   5.594   7.953
 5958POPC   C4B14986   5.081   5.577   7.653
 5959POPC   NC314987  32.997  36.911   9.453
 5959POPC   PO414988  33.025  36.952   9.153
 5959POPC   GL114989  33.065  36.886   8.853
 5959POPC   GL214990  32.883  36.828   8.853
 5959POPC   C1A14991  32.999  36.889   8.553
 5959POPC   D2A14992  33.027  36.892   8.253
 5959POPC   C3A14993  33.070  36.864   7.953
 5959POPC   C4A14994  33.047  36.885   7.653
 5959POPC   C1B14995  32.736  36.877   8.553
 5959POPC   C2B14996  32.765  36.799   8.253
 5959POPC   C3B14997  32.792  36.806   7.953
 5959POPC   C4B14998  32.778  36.865   7.653
 5960POPC   NC314999  19.027   0.470   9.453
 5960POPC   PO415000  19.012   0.462   9.153
 5960POPC   GL115001  19.028   0.392   8.853
 5960POPC   GL215002  18.979   0.282   8.853
 5960POPC   C1A15003  19.091   0.408   8.553
 5960POPC   D2A15004  19.020   0.466   8.253
 5960POPC   C3A15005  19.108   0.399   7.953
 5960POPC   C4A15006  19.030   0.417   7.653
 5960POPC   C1B15007  18.997   0.240   8.553
 5960POPC   C2B15008  18.927   0.250   8.253
 5960POPC   C3B15009  18.958   0.196   7.953
 5960POPC   C4B15010  18.982   0.201   7.653
 5961POPC   NC315011   8.989  10.481   9.453
 5961POPC   PO415012   8.998  10.531   9.153
 5961POPC   GL115013   8.968  10.485   8.853
 5961POPC   GL215014   9.097  10.395   8.853
 5961POPC   C1A15015   9.000  10.499   8.553
 5961POPC   D2A15016   8.941  10.520   8.253
 5961POPC   C3A15017   9.008  10.564   7.953
 5961POPC   C4A15018   8.988  10.568   7.653
 5961POPC   C1B15019   9.157  10.350   8.553
 5961POPC   C2B15020   9.188  10.335   8.253
 5961POPC   C3B15021   9.179  10.362   7.953
 5961POPC   C4B15022   9.163  10.399   7.653
 5962POPC   NC315023  15.186   5.120   9.453
 5962POPC   PO415024  15.142   5.064   9.153
 5962POPC   GL115025  15.166   5.107   8.853
 5962POPC   GL215026  15.130   5.175   8.853
 5962POPC   C1A15027  15.143   5.132   8.553
 5962POPC   D2A15028  15.146   5.088   8.253
 5962POPC   C3A15029  15.217   5.115   7.953
 5962POPC   C4A15030  15.138   5.054   7.653
 5962POPC   C1B15031  15.044   5.273   8.553
 5962POPC   C2B15032  15.073   5.325   8.253
 5962POPC   C3B15033  15.035   5.318   7.953
 5962POPC   C4B15034  15.020   5.286   7.653
 5963POPC   NC315035  31.503  44.625   9.453
 5963POPC   PO415036  31.502  44.663   9.153
 5963POPC   GL115037  31.517  44.658   8.853
 5963POPC   GL215038  31.398  44.803   8.853
 5963POPC   C1A15039  31.439  44.643   8.553
 5963POPC   D2A15040  31.469  44.710   8.253
 5963POPC   C3A15041  31.461  44.705   7.953
 5963POPC   C4A15042  31.513  44.712   7.653
 5963POPC   C1B15043  31.351  44.850   8.553
 5963POPC   C2B15044  31.336  44.909   8.253
 5963POPC   C3B15045  31.314  44.913   7.953
 5963POPC   C4B15046  31.382  44.858   7.653
 5964POPC   NC315047  36.940  29.923   9.453
 5964POPC   PO415048  36.878  29.889   9.153
 5964POPC   GL115049  36.936  29.963   8.853
 5964POPC   GL215050  36.839  29.789   8.853
 5964POPC   C1A15051  36.927  29.876   8.553
 5964POPC   D2A15052  36.869  29.942   8.253
 5964POPC   C3A15053  36.942  29.956   7.953
 5964POPC   C4A15054  36.924  29.967   7.653
 5964POPC   C1B15055  36.846  29.709   8.553
 5964POPC   C2B15056  36.838  29.729   8.253
 5964POPC   C3B15057  36.807  29.729   7.953
 5964POPC   C4B15058  36.797  29.651   7.653
 5965POPC   NC315059  36.944  22.957   9.453
 5965POPC   PO415060  36.867  22.947   9.153
 5965POPC   GL115061  36.912  22.939   8.853
 5965POPC   GL215062  36.824  22.851   8.853
 5965POPC   C1A15063  36.936  22.918   8.553
 5965POPC   D2A15064  36.911  22.922   8.253
 5965POPC   C3A15065  36.878  22.890   7.953
 5965POPC   C4A15066  36.875  22.968   7.653
 5965POPC   C1B15067  36.731  22.700   8.553
 5965POPC   C2B15068  36.724  22.766   8.253
 5965POPC   C3B15069  36.749  22.701   7.953
 5965POPC   C4B15070  36.741  22.696   7.653
 5966POPC   NC315071   9.772  43.114   9.453
 5966POPC   PO415072   9.730  43.073   9.153
 5966POPC   GL115073   9.795  43.143   8.853
 5966POPC   GL215074   9.725  42.969   8.853
 5966POPC   C1A15075   9.729  43.110   8.553
 5966POPC   D2A15076   9.796  43.144   8.253
 5966POPC   C3A15077   9.727  43.115   7.953
 5966POPC   C4A15078   9.737  43.160   7.653
 5966POPC   C1B15079   9.705  42.813   8.553
 5966POPC   C2B15080   9.755  42.851   8.253
 5966POPC   C3B15081   9.723  42.815   7.953
 5966POPC   C4B15082   9.722  42.855   7.653
 5967POPC   NC315083  29.960  36.867   9.453
 5967POPC   PO415084  29.963  36.870   9.153
 5967POPC   GL115085  29.937  36.909   8.853
 5967POPC   GL215086  29.965  36.742   8.853
 5967POPC   C1A15087  29.898  36.883   8.553
 5967POPC   D2A15088  29.955  36.860   8.253
 5967POPC   C3A15089  29.933  36.952   7.953
 5967POPC   C4A15090  29.938  36.890   7.653
 5967POPC   C1B15091  30.026  36.660   8.553
 5967POPC   C2B15092  29.952  36.641   8.253
 5967POPC   C3B15093  30.015  36.701   7.953
 5967POPC   C4B15094  30.034  36.705   7.653
 5968POPC   NC315095   1.255  15.142   9.453
 5968POPC   PO415096   1.221  15.201   9.153
 5968POPC   GL115097   1.168  15.202   8.853
 5968POPC   GL215098   1.120  15.076   8.853
 5968POPC   C1A15099   1.216  15.204   8.553
 5968POPC   D2A15100   1.253  15.141   8.253
 5968POPC   C3A15101   1.214  15.135   7.953
 5968POPC   C4A15102   1.167  15.206   7.653
 5968POPC   C1B15103   1.023  15.027   8.553
 5968POPC   C2B15104   1.053  15.032   8.253
 5968POPC   C3B15105   1.009  15.078   7.953
 5968POPC   C4B15106   1.045  14.996   7.653
 5969POPC   NC315107  30.650  30.671   9.453
 5969POPC   PO415108  30.650  30.711   9.153
 5969POPC   GL115109  30.660  30.651   8.853
 5969POPC   GL215110  30.786  30.623   8.853
 5969POPC   C1A15111  30.724  30.711   8.553
 5969POPC   D2A15112  30.700  30.671   8.253
 5969POPC   C3A15113  30.741  30.692   7.953
 5969POPC   C4A15114  30.717  30.737   7.653
 5969POPC   C1B15115  30.890  30.647   8.553
 5969POPC   C2B15116  30.956  30.609   8.253
 5969POPC   C3B15117  30.935  30.571   7.953
 5969POPC   C4B15118  30.909  30.572   7.653
 5970POPC   NC315119   5.104  39.231   9.453
 5970POPC   PO415120   5.121  39.272   9.153
 5970POPC   GL115121   5.069  39.262   8.853
 5970POPC   GL215122   5.174  39.321   8.853
 5970POPC   C1A15123   5.059  39.207   8.553
 5970POPC   D2A15124   5.049  39.246   8.253
 5970POPC   C3A15125   5.082  39.276   7.953
 5970POPC   C4A15126   5.115  39.250   7.653
 5970POPC   C1B15127   5.174  39.445   8.553
 5970POPC   C2B15128   5.227  39.423   8.253
 5970POPC   C3B15129   5.222  39.413   7.953
 5970POPC   C4B15130   5.232  39.414   7.653
 5971POPC   NC315131  18.282  39.230   9.453
 5971POPC   PO415132  18.275  39.192   9.153
 5971POPC   GL115133  18.251  39.183   8.853
 5971POPC   GL215134  18.334  39.313   8.853
 5971POPC   C1A15135  18.252  39.204   8.553
 5971POPC   D2A15136  18.321  39.199   8.253
 5971POPC   C3A15137  18.245  39.200   7.953
 5971POPC   C4A15138  18.305  39.274   7.653
 5971POPC   C1B15139  18.358  39.416   8.553
 5971POPC   C2B15140  18.372  39.412   8.253
 5971POPC   C3B15141  18.431  39.425   7.953
 5971POPC   C4B15142  18.428  39.440   7.653
 5972POPC   NC315143  11.329  27.553   9.453
 5972POPC   PO415144  11.327  27.573   9.153
 5972POPC   GL115145  11.252  27.601   8.853
 5972POPC   GL215146  11.422  27.642   8.853
 5972POPC   C1A15147  11.326  27.589   8.553
 5972POPC   D2A15148  11.322  27.551   8.253
 5972POPC   C3A15149  11.277  27.629   7.953
 5972POPC   C4A15150  11.326  27.584   7.653
 5972POPC   C1B15151  11.527  27.604   8.553
 5972POPC   C2B15152  11.503  27.637   8.253
 5972POPC   C3B15153  11.573  27.604   7.953
 5972POPC   C4B15154  11.592  27.617   7.653
 5973POPC   NC315155  38.460   5.076   9.453
 5973POPC   PO415156  38.469   5.058   9.153
 5973POPC   GL115157  38.489   5.081   8.853
 5973POPC   GL215158  38.366   5.163   8.853
 5973POPC   C1A15159  38.462   5.101   8.553
 5973POPC   D2A15160  38.407   5.067   8.253
 5973POPC   C3A15161  38.429   5.120   7.953
 5973POPC   C4A15162  38.498   5.047   7.653
 5973POPC   C1B15163  38.237   5.221   8.553
 5973POPC   C2B15164  38.239   5.209   8.253
 5973POPC   C3B15165  38.211   5.235   7.953
 5973POPC   C4B15166  38.267   5.260   7.653
 5974POPC   NC315167  25.292  36.933   9.453
 5974POPC   PO415168  25.242  36.924   9.153
 5974POPC   GL115169  25.299  36.918   8.853
 5974POPC   GL215170  25.264  37.001   8.853
 5974POPC   C1A15171  25.220  36.937   8.553
 5974POPC   D2A15172  25.313  36.913   8.253
 5974POPC   C3A15173  25.308  36.924   7.953
 5974POPC   C4A15174  25.234  36.903   7.653
 5974POPC   C1B15175  25.226  37.202   8.553
 5974POPC   C2B15176  25.292  37.197   8.253
 5974POPC   C3B15177  25.292  37.123   7.953
 5974POPC   C4B15178  25.242  37.150   7.653
 5975POPC   NC315179   1.999  36.107   9.453
 5975POPC   PO415180   1.998  36.080   9.153
 5975POPC   GL115181   1.940  36.135   8.853
 5975POPC   GL215182   2.033  36.041   8.853
 5975POPC   C1A15183   2.033  36.158   8.553
 5975POPC   D2A15184   1.956  36.089   8.253
 5975POPC   C3A15185   1.987  36.130   7.953
 5975POPC   C4A15186   2.029  36.166   7.653
 5975POPC   C1B15187   2.144  35.940   8.553
 5975POPC   C2B15188   2.178  35.948   8.253
 5975POPC   C3B15189   2.161  35.880   7.953
 5975POPC   C4B15190   2.146  35.942   7.653
 5976POPC   NC315191   3.558  36.877   9.453
 5976POPC   PO415192   3.536  36.864   9.153
 5976POPC   GL115193   3.551  36.942   8.853
 5976POPC   GL215194   3.567  37.002   8.853
 5976POPC   C1A15195   3.578  36.932   8.553
 5976POPC   D2A15196   3.560  36.871   8.253
 5976POPC   C3A15197   3.547  36.886   7.953
 5976POPC   C4A15198   3.543  36.916   7.653
 5976POPC   C1B15199   3.690  37.102   8.553
 5976POPC   C2B15200   3.657  37.103   8.253
 5976POPC   C3B15201   3.671  37.146   7.953
 5976POPC   C4B15202   3.712  37.118   7.653
 5977POPC   NC315203  22.922   4.300   9.453
 5977POPC   PO415204  22.902   4.271   9.153
 5977POPC   GL115205  22.892   4.301   8.853
 5977POPC   GL215206  22.933   4.148   8.853
 5977POPC   C1A15207  22.890   4.366   8.553
 5977POPC   D2A15208  22.977   4.345   8.253
 5977POPC   C3A15209  22.888   4.285   7.953
 5977POPC   C4A15210  22.932   4.298   7.653
 5977POPC   C1B15211  22.843   4.056   8.553
 5977POPC   C2B15212  22.920   4.124   8.253
 5977POPC   C3B15213  22.874   4.046   7.953
 5977POPC   C4B15214  22.915   4.081   7.653
 5978POPC   NC315215   8.971   1.961   9.453
 5978POPC   PO415216   8.928   2.026   9.153
 5978POPC   GL115217   8.957   2.004   8.853
 5978POPC   GL215218   9.053   1.835   8.853
 5978POPC   C1A15219   8.945   1.996   8.553
 5978POPC   D2A15220   8.925   2.017   8.253
 5978POPC   C3A15221   8.971   2.005   7.953
 5978POPC   C4A15222   8.954   1.963   7.653
 5978POPC   C1B15223   9.048   1.740   8.553
 5978POPC   C2B15224   9.026   1.738   8.253
 5978POPC   C3B15225   9.071   1.789   7.953
 5978POPC   C4B15226   9.057   1.792   7.653
 5979POPC   NC315227  39.201  35.328   9.453
 5979POPC   PO415228  39.196  35.327   9.153
 5979POPC   GL115229  39.235  35.391   8.853
 5979POPC   GL215230  39.149  35.449   8.853
 5979POPC   C1A15231  39.277  35.328   8.553
 5979POPC   D2A15232  39.261  35.371   8.253
 5979POPC   C3A15233  39.183  35.394   7.953
 5979POPC   C4A15234  39.217  35.309   7.653
 5979POPC   C1B15235  39.132  35.540   8.553
 5979POPC   C2B15236  39.187  35.630   8.253
 5979POPC   C3B15237  39.150  35.578   7.953
 5979POPC   C4B15238  39.111  35.580   7.653
 5980POPC   NC315239  22.959  32.259   9.453
 5980POPC   PO415240  22.901  32.276   9.153
 5980POPC   GL115241  22.983  32.244   8.853
 5980POPC   GL215242  22.877  32.197   8.853
 5980POPC   C1A15243  22.945  32.243   8.553
 5980POPC   D2A15244  22.953  32.223   8.253
 5980POPC   C3A15245  22.897  32.248   7.953
 5980POPC   C4A15246  22.930  32.225   7.653
 5980POPC   C1B15247  22.759  32.036   8.553
 5980POPC   C2B15248  22.752  32.074   8.253
 5980POPC   C3B15249  22.756  32.042   7.953
 5980POPC   C4B15250  22.791  32.096   7.653
 5981POPC   NC315251  38.503   2.796   9.453
 5981POPC   PO415252  38.411   2.760   9.153
 5981POPC   GL115253  38.476   2.761   8.853
 5981POPC   GL215254  38.463   2.604   8.853
 5981POPC   C1A15255  38.455   2.757   8.553
 5981POPC   D2A15256  38.413   2.716   8.253
 5981POPC   C3A15257  38.467   2.782   7.953
 5981POPC   C4A15258  38.440   2.724   7.653
 5981POPC   C1B15259  38.570   2.503   8.553
 5981POPC   C2B15260  38.515   2.543   8.253
 5981POPC   C3B15261  38.545   2.520   7.953
 5981POPC   C4B15262  38.568   2.496   7.653
 5982POPC   NC315263  28.333  38.432   9.453
 5982POPC   PO415264  28.365  38.447   9.153
 5982POPC   GL115265  28.407  38.436   8.853
 5982POPC   GL215266  28.233  38.460   8.853
 5982POPC   C1A15267  28.336  38.445   8.553
 5982POPC   D2A15268  28.348  38.425   8.253
 5982POPC   C3A15269  28.378  38.424   7.953
 5982POPC   C4A15270  28.351  38.442   7.653
 5982POPC   C1B15271  28.077  38.408   8.553
 5982POPC   C2B15272  28.114  38.355   8.253
 5982POPC   C3B15273  28.078  38.376   7.953
 5982POPC   C4B15274  28.127  38.400   7.653
 5983POPC   NC315275  19.877  28.374   9.453
 5983POPC   PO415276  19.814  28.332   9.153
 5983POPC   GL115277  19.796  28.383   8.853
 5983POPC   GL215278  19.774  28.481   8.853
 5983POPC   C1A15279  19.863  28.400   8.553
 5983POPC   D2A15280  19.852  28.394   8.253
 5983POPC   C3A15281  19.851  28.417   7.953
 5983POPC   C4A15282  19.856  28.363   7.653
 5983POPC   C1B15283  19.637  28.505   8.553
 5983POPC   C2B15284  19.606  28.485   8.253
 5983POPC   C3B15285  19.624  28.463   7.953
 5983POPC   C4B15286  19.592  28.526   7.653
 5984POPC   NC315287  43.124  17.518   9.453
 5984POPC   PO415288  43.128  17.514   9.153
 5984POPC   GL115289  43.128  17.491   8.853
 5984POPC   GL215290  42.953  17.537   8.853
 5984POPC   C1A15291  43.085  17.508   8.553
 5984POPC   D2A15292  43.082  17.469   8.253
 5984POPC   C3A15293  43.120  17.512   7.953
 5984POPC   C4A15294  43.138  17.466   7.653
 5984POPC   C1B15295  42.908  17.462   8.553
 5984POPC   C2B15296  42.821  17.512   8.253
 5984POPC   C3B15297  42.829  17.499   7.953
 5984POPC   C4B15298  42.901  17.483   7.653
 5985POPC   NC315299  35.357  33.784   9.453
 5985POPC   PO415300  35.305  33.753   9.153
 5985POPC   GL115301  35.348  33.820   8.853
 5985POPC   GL215302  35.362  33.629   8.853
 5985POPC   C1A15303  35.390  33.842   8.553
 5985POPC   D2A15304  35.389  33.785   8.253
 5985POPC   C3A15305  35.339  33.844   7.953
 5985POPC   C4A15306  35.390  33.816   7.653
 5985POPC   C1B15307  35.399  33.536   8.553
 5985POPC   C2B15308  35.402  33.516   8.253
 5985POPC   C3B15309  35.396  33.572   7.953
 5985POPC   C4B15310  35.378  33.585   7.653
 5986POPC   NC315311  30.716  36.942   9.453
 5986POPC   PO415312  30.739  36.865   9.153
 5986POPC   GL115313  30.724  36.879   8.853
 5986POPC   GL215314  30.801  36.938   8.853
 5986POPC   C1A15315  30.744  36.874   8.553
 5986POPC   D2A15316  30.727  36.942   8.253
 5986POPC   C3A15317  30.651  36.898   7.953
 5986POPC   C4A15318  30.701  36.894   7.653
 5986POPC   C1B15319  30.933  36.989   8.553
 5986POPC   C2B15320  30.915  37.025   8.253
 5986POPC   C3B15321  30.967  37.018   7.953
 5986POPC   C4B15322  30.948  36.994   7.653
 5987POPC   NC315323  15.955  27.575   9.453
 5987POPC   PO415324  15.964  27.587   9.153
 5987POPC   GL115325  15.981  27.579   8.853
 5987POPC   GL215326  15.918  27.521   8.853
 5987POPC   C1A15327  15.988  27.608   8.553
 5987POPC   D2A15328  15.983  27.591   8.253
 5987POPC   C3A15329  15.966  27.638   7.953
 5987POPC   C4A15330  15.932  27.575   7.653
 5987POPC   C1B15331  15.840  27.370   8.553
 5987POPC   C2B15332  15.840  27.400   8.253
 5987POPC   C3B15333  15.861  27.359   7.953
 5987POPC   C4B15334  15.860  27.346   7.653
 5988POPC   NC315335   5.059  31.513   9.453
 5988POPC   PO415336   5.070  31.476   9.153
 5988POPC   GL115337   5.074  31.481   8.853
 5988POPC   GL215338   5.227  31.369   8.853
 5988POPC   C1A15339   5.131  31.512   8.553
 5988POPC   D2A15340   5.089  31.432   8.253
 5988POPC   C3A15341   5.120  31.430   7.953
 5988POPC   C4A15342   5.136  31.495   7.653
 5988POPC   C1B15343   5.312  31.282   8.553
 5988POPC   C2B15344   5.267  31.343   8.253
 5988POPC   C3B15345   5.245  31.297   7.953
 5988POPC   C4B15346   5.293  31.252   7.653
 5989POPC   NC315347   3.564  24.492   9.453
 5989POPC   PO415348   3.576  24.464   9.153
 5989POPC   GL115349   3.506  24.535   8.853
 5989POPC   GL215350   3.557  24.326   8.853
 5989POPC   C1A15351   3.587  24.469   8.553
 5989POPC   D2A15352   3.493  24.467   8.253
 5989POPC   C3A15353   3.519  24.440   7.953
 5989POPC   C4A15354   3.572  24.531   7.653
 5989POPC   C1B15355   3.462  24.270   8.553
 5989POPC   C2B15356   3.490  24.291   8.253
 5989POPC   C3B15357   3.460  24.212   7.953
 5989POPC   C4B15358   3.492  24.265   7.653
 5990POPC   NC315359  31.484  21.364   9.453
 5990POPC   PO415360  31.516  21.344   9.153
 5990POPC   GL115361  31.491  21.428   8.853
 5990POPC   GL215362  31.310  21.326   8.853
 5990POPC   C1A15363  31.455  21.404   8.553
 5990POPC   D2A15364  31.520  21.355   8.253
 5990POPC   C3A15365  31.451  21.409   7.953
 5990POPC   C4A15366  31.463  21.339   7.653
 5990POPC   C1B15367  31.196  21.361   8.553
 5990POPC   C2B15368  31.250  21.406   8.253
 5990POPC   C3B15369  31.181  21.308   7.953
 5990POPC   C4B15370  31.248  21.391   7.653
 5991POPC   NC315371  36.855  18.310   9.453
 5991POPC   PO415372  36.880  18.255   9.153
 5991POPC   GL115373  36.950  18.255   8.853
 5991POPC   GL215374  36.915  18.194   8.853
 5991POPC   C1A15375  36.868  18.323   8.553
 5991POPC   D2A15376  36.937  18.249   8.253
 5991POPC   C3A15377  36.942  18.279   7.953
 5991POPC   C4A15378  36.926  18.234   7.653
 5991POPC   C1B15379  36.910  18.017   8.553
 5991POPC   C2B15380  36.865  18.029   8.253
 5991POPC   C3B15381  36.906  18.081   7.953
 5991POPC   C4B15382  36.847  18.009   7.653
 5992POPC   NC315383  29.925  19.099   9.453
 5992POPC   PO415384  29.935  19.036   9.153
 5992POPC   GL115385  29.950  19.092   8.853
 5992POPC   GL215386  29.833  19.150   8.853
 5992POPC   C1A15387  29.893  19.037   8.553
 5992POPC   D2A15388  29.874  19.092   8.253
 5992POPC   C3A15389  29.919  19.067   7.953
 5992POPC   C4A15390  29.894  19.073   7.653
 5992POPC   C1B15391  29.754  19.175   8.553
 5992POPC   C2B15392  29.692  19.215   8.253
 5992POPC   C3B15393  29.708  19.143   7.953
 5992POPC   C4B15394  29.670  19.192   7.653
 5993POPC   NC315395   1.176  16.772   9.453
 5993POPC   PO415396   1.189  16.773   9.153
 5993POPC   GL115397   1.174  16.713   8.853
 5993POPC   GL215398   1.102  16.730   8.853
 5993POPC   C1A15399   1.222  16.756   8.553
 5993POPC   D2A15400   1.217  16.769   8.253
 5993POPC   C3A15401   1.244  16.692   7.953
 5993POPC   C4A15402   1.229  16.774   7.653
 5993POPC   C1B15403   0.999  16.720   8.553
 5993POPC   C2B15404   0.948  16.712   8.253
 5993POPC   C3B15405   0.946  16.738   7.953
 5993POPC   C4B15406   0.970  16.730   7.653
 5994POPC   NC315407  43.066  36.925   9.453
 5994POPC   PO415408  43.066  36.887   9.153
 5994POPC   GL115409  43.111  36.859   8.853
 5994POPC   GL215410  43.032  36.763   8.853
 5994POPC   C1A15411  43.136  36.903   8.553
 5994POPC   D2A15412  43.144  36.873   8.253
 5994POPC   C3A15413  43.069  36.942   7.953
 5994POPC   C4A15414  43.089  36.946   7.653
 5994POPC   C1B15415  43.020  36.693   8.553
 5994POPC   C2B15416  42.985  36.661   8.253
 5994POPC   C3B15417  42.955  36.693   7.953
 5994POPC   C4B15418  42.976  36.698   7.653
 5995POPC   NC315419  15.204  23.670   9.453
 5995POPC   PO415420  15.229  23.724   9.153
 5995POPC   GL115421  15.196  23.734   8.853
 5995POPC   GL215422  15.085  23.736   8.853
 5995POPC   C1A15423  15.188  23.754   8.553
 5995POPC   D2A15424  15.200  23.702   8.253
 5995POPC   C3A15425  15.190  23.714   7.953
 5995POPC   C4A15426  15.216  23.692   7.653
 5995POPC   C1B15427  14.918  23.726   8.553
 5995POPC   C2B15428  14.975  23.723   8.253
 5995POPC   C3B15429  14.897  23.691   7.953
 5995POPC   C4B15430  14.966  23.719   7.653
 5996POPC   NC315431   5.056  43.922   9.453
 5996POPC   PO415432   5.101  43.853   9.153
 5996POPC   GL115433   5.135  43.906   8.853
 5996POPC   GL215434   5.011  43.892   8.853
 5996POPC   C1A15435   5.086  43.894   8.553
 5996POPC   D2A15436   5.100  43.934   8.253
 5996POPC   C3A15437   5.140  43.923   7.953
 5996POPC   C4A15438   5.063  43.922   7.653
 5996POPC   C1B15439   4.811  43.879   8.553
 5996POPC   C2B15440   4.827  43.835   8.253
 5996POPC   C3B15441   4.808  43.888   7.953
 5996POPC   C4B15442   4.853  43.870   7.653
 5997POPC   NC315443  15.916  26.088   9.453
 5997POPC   PO415444  15.990  26.056   9.153
 5997POPC   GL115445  15.967  26.091   8.853
 5997POPC   GL215446  16.044  25.954   8.853
 5997POPC   C1A15447  15.921  26.004   8.553
 5997POPC   D2A15448  15.965  26.027   8.253
 5997POPC   C3A15449  15.977  25.999   7.953
 5997POPC   C4A15450  15.981  26.050   7.653
 5997POPC   C1B15451  16.189  25.845   8.553
 5997POPC   C2B15452  16.185  25.908   8.253
 5997POPC   C3B15453  16.118  25.859   7.953
 5997POPC   C4B15454  16.174  25.865   7.653
 5998POPC   NC315455   0.465   5.056   9.453
 5998POPC   PO415456   0.403   5.135   9.153
 5998POPC   GL115457   0.459   5.059   8.853
 5998POPC   GL215458   0.427   5.241   8.853
 5998POPC   C1A15459   0.450   5.120   8.553
 5998POPC   D2A15460   0.407   5.128   8.253
 5998POPC   C3A15461   0.437   5.096   7.953
 5998POPC   C4A15462   0.480   5.062   7.653
 5998POPC   C1B15463   0.364   5.375   8.553
 5998POPC   C2B15464   0.335   5.309   8.253
 5998POPC   C3B15465   0.366   5.304   7.953
 5998POPC   C4B15466   0.405   5.360   7.653
 5999POPC   NC315467   7.381  12.889   9.453
 5999POPC   PO415468   7.393  12.833   9.153
 5999POPC   GL115469   7.421  12.890   8.853
 5999POPC   GL215470   7.273  12.727   8.853
 5999POPC   C1A15471   7.457  12.812   8.553
 5999POPC   D2A15472   7.409  12.866   8.253
 5999POPC   C3A15473   7.388  12.874   7.953
 5999POPC   C4A15474   7.404  12.809   7.653
 5999POPC   C1B15475   7.221  12.696   8.553
 5999POPC   C2B15476   7.215  12.699   8.253
 5999POPC   C3B15477   7.186  12.664   7.953
 5999POPC   C4B15478   7.214  12.676   7.653
 6000POPC   NC315479  15.953  17.467   9.453
 6000POPC   PO415480  15.929  17.502   9.153
 6000POPC   GL115481  15.960  17.495   8.853
 6000POPC   GL215482  16.043  17.585   8.853
 6000POPC   C1A15483  15.913  17.505   8.553
 6000POPC   D2A15484  15.920  17.528   8.253
 6000POPC   C3A15485  15.977  17.542   7.953
 6000POPC   C4A15486  15.925  17.547   7.653
 6000POPC   C1B15487  16.025  17.737   8.553
 6000POPC   C2B15488  16.045  17.767   8.253
 6000POPC   C3B15489  16.085  17.783   7.953
 6000POPC   C4B15490  16.085  17.734   7.653
 6001POPC   NC315491  26.022  33.792   9.453
 6001POPC   PO415492  26.045  33.821   9.153
 6001POPC   GL115493  26.011  33.816   8.853
 6001POPC   GL215494  26.170  33.768   8.853
 6001POPC   C1A15495  26.016  33.786   8.553
 6001POPC   D2A15496  26.009  33.845   8.253
 6001POPC   C3A15497  26.029  33.770   7.953
 6001POPC   C4A15498  26.024  33.844   7.653
 6001POPC   C1B15499  26.223  33.718   8.553
 6001POPC   C2B15500  26.293  33.705   8.253
 6001POPC   C3B15501  26.277  33.684   7.953
 6001POPC   C4B15502  26.276  33.721   7.653
 6002POPC   NC315503   6.621  20.562   9.453
 6002POPC   PO415504   6.690  20.651   9.153
 6002POPC   GL115505   6.656  20.599   8.853
 6002POPC   GL215506   6.694  20.518   8.853
 6002POPC   C1A15507   6.644  20.584   8.553
 6002POPC   D2A15508   6.654  20.575   8.253
 6002POPC   C3A15509   6.671  20.655   7.953
 6002POPC   C4A15510   6.667  20.596   7.653
 6002POPC   C1B15511   6.676  20.411   8.553
 6002POPC   C2B15512   6.737  20.418   8.253
 6002POPC   C3B15513   6.682  20.345   7.953
 6002POPC   C4B15514   6.751  20.412   7.653
 6003POPC   NC315515  40.817  21.413   9.453
 6003POPC   PO415516  40.814  21.339   9.153
 6003POPC   GL115517  40.799  21.349   8.853
 6003POPC   GL215518  40.655  21.345   8.853
 6003POPC   C1A15519  40.791  21.375   8.553
 6003POPC   D2A15520  40.783  21.395   8.253
 6003POPC   C3A15521  40.764  21.359   7.953
 6003POPC   C4A15522  40.811  21.374   7.653
 6003POPC   C1B15523  40.537  21.251   8.553
 6003POPC   C2B15524  40.590  21.298   8.253
 6003POPC   C3B15525  40.534  21.295   7.953
 6003POPC   C4B15526  40.531  21.290   7.653
 6004POPC   NC315527  33.808  22.945   9.453
 6004POPC   PO415528  33.783  22.956   9.153
 6004POPC   GL115529  33.833  22.971   8.853
 6004POPC   GL215530  33.667  22.893   8.853
 6004POPC   C1A15531  33.795  22.973   8.553
 6004POPC   D2A15532  33.807  22.969   8.253
 6004POPC   C3A15533  33.793  22.906   7.953
 6004POPC   C4A15534  33.774  22.908   7.653
 6004POPC   C1B15535  33.659  22.775   8.553
 6004POPC   C2B15536  33.649  22.730   8.253
 6004POPC   C3B15537  33.634  22.797   7.953
 6004POPC   C4B15538  33.642  22.804   7.653
 6005POPC   NC315539  13.610  25.994   9.453
 6005POPC   PO415540  13.660  26.059   9.153
 6005POPC   GL115541  13.652  26.069   8.853
 6005POPC   GL215542  13.727  26.170   8.853
 6005POPC   C1A15543  13.588  26.080   8.553
 6005POPC   D2A15544  13.626  26.010   8.253
 6005POPC   C3A15545  13.626  26.024   7.953
 6005POPC   C4A15546  13.664  26.010   7.653
 6005POPC   C1B15547  13.736  26.289   8.553
 6005POPC   C2B15548  13.787  26.254   8.253
 6005POPC   C3B15549  13.752  26.194   7.953
 6005POPC   C4B15550  13.785  26.220   7.653
 6006POPC   NC315551   5.819  19.845   9.453
 6006POPC   PO415552   5.874  19.848   9.153
 6006POPC   GL115553   5.837  19.803   8.853
 6006POPC   GL215554   6.002  19.875   8.853
 6006POPC   C1A15555   5.830  19.873   8.553
 6006POPC   D2A15556   5.837  19.817   8.253
 6006POPC   C3A15557   5.913  19.827   7.953
 6006POPC   C4A15558   5.827  19.856   7.653
 6006POPC   C1B15559   6.114  19.874   8.553
 6006POPC   C2B15560   6.153  19.908   8.253
 6006POPC   C3B15561   6.116  19.881   7.953
 6006POPC   C4B15562   6.130  19.924   7.653
 6007POPC   NC315563  15.963  36.950   9.453
 6007POPC   PO415564  15.907  36.888   9.153
 6007POPC   GL115565  15.973  36.883   8.853
 6007POPC   GL215566  15.789  36.960   8.853
 6007POPC   C1A15567  15.970  36.854   8.553
 6007POPC   D2A15568  15.967  36.922   8.253
 6007POPC   C3A15569  15.909  36.930   7.953
 6007POPC   C4A15570  16.003  36.927   7.653
 6007POPC   C1B15571  15.727  36.960   8.553
 6007POPC   C2B15572  15.717  36.984   8.253
 6007POPC   C3B15573  15.706  36.935   7.953
 6007POPC   C4B15574  15.717  37.008   7.653
 6008POPC   NC315575  23.750  24.471   9.453
 6008POPC   PO415576  23.735  24.462   9.153
 6008POPC   GL115577  23.694  24.454   8.853
 6008POPC   GL215578  23.797  24.399   8.853
 6008POPC   C1A15579  23.706  24.520   8.553
 6008POPC   D2A15580  23.753  24.467   8.253
 6008POPC   C3A15581  23.666  24.474   7.953
 6008POPC   C4A15582  23.731  24.518   7.653
 6008POPC   C1B15583  23.868  24.339   8.553
 6008POPC   C2B15584  23.833  24.273   8.253
 6008POPC   C3B15585  23.913  24.282   7.953
 6008POPC   C4B15586  23.890  24.290   7.653
 6009POPC   NC315587  23.699  29.942   9.453
 6009POPC   PO415588  23.667  29.954   9.153
 6009POPC   GL115589  23.685  29.936   8.853
 6009POPC   GL215590  23.659  29.886   8.853
 6009POPC   C1A15591  23.674  29.898   8.553
 6009POPC   D2A15592  23.710  29.961   8.253
 6009POPC   C3A15593  23.669  29.945   7.953
 6009POPC   C4A15594  23.679  29.936   7.653
 6009POPC   C1B15595  23.469  29.749   8.553
 6009POPC   C2B15596  23.524  29.720   8.253
 6009POPC   C3B15597  23.492  29.736   7.953
 6009POPC   C4B15598  23.498  29.766   7.653
 6010POPC   NC315599  43.842   5.857   9.453
 6010POPC   PO415600  43.935   5.824   9.153
 6010POPC   GL115601  43.922   5.883   8.853
 6010POPC   GL215602  43.795   5.872   8.853
 6010POPC   C1A15603  43.902   5.867   8.553
 6010POPC   D2A15604  43.924   5.851   8.253
 6010POPC   C3A15605  43.876   5.834   7.953
 6010POPC   C4A15606  43.842   5.899   7.653
 6010POPC   C1B15607  43.678   5.857   8.553
 6010POPC   C2B15608  43.626   5.812   8.253
 6010POPC   C3B15609  43.629   5.765   7.953
 6010POPC   C4B15610  43.664   5.795   7.653
 6011POPC   NC315611  13.657  34.593   9.453
 6011POPC   PO415612  13.584  34.626   9.153
 6011POPC   GL115613  13.626  34.617   8.853
 6011POPC   GL215614  13.568  34.722   8.853
 6011POPC   C1A15615  13.610  34.612   8.553
 6011POPC   D2A15616  13.580  34.593   8.253
 6011POPC   C3A15617  13.671  34.621   7.953
 6011POPC   C4A15618  13.639  34.574   7.653
 6011POPC   C1B15619  13.559  34.811   8.553
 6011POPC   C2B15620  13.507  34.762   8.253
 6011POPC   C3B15621  13.508  34.772   7.953
 6011POPC   C4B15622  13.512  34.819   7.653
 6012POPC   NC315623  18.329  36.951   9.453
 6012POPC   PO415624  18.308  36.867   9.153
 6012POPC   GL115625  18.323  36.872   8.853
 6012POPC   GL215626  18.401  36.890   8.853
 6012POPC   C1A15627  18.275  36.931   8.553
 6012POPC   D2A15628  18.290  36.907   8.253
 6012POPC   C3A15629  18.279  36.896   7.953
 6012POPC   C4A15630  18.287  36.922   7.653
 6012POPC   C1B15631  18.499  36.887   8.553
 6012POPC   C2B15632  18.540  36.851   8.253
 6012POPC   C3B15633  18.548  36.890   7.953
 6012POPC   C4B15634  18.572  36.845   7.653
 6013POPC   NC315635   5.121  29.126   9.453
 6013POPC   PO415636   5.073  29.145   9.153
 6013POPC   GL115637   5.093  29.118   8.853
 6013POPC   GL215638   5.030  28.992   8.853
 6013POPC   C1A15639   5.100  29.143   8.553
 6013POPC   D2A15640   5.134  29.142   8.253
 6013POPC   C3A15641   5.050  29.182   7.953
 6013POPC   C4A15642   5.102  29.191   7.653
 6013POPC   C1B15643   5.003  28.938   8.553
 6013POPC   C2B15644   5.002  28.932   8.253
 6013POPC   C3B15645   5.011  28.857   7.953
 6013POPC   C4B15646   4.997  28.860   7.653
 6014POPC   NC315647  27.609  17.556   9.453
 6014POPC   PO415648  27.583  17.534   9.153
 6014POPC   GL115649  27.639  17.520   8.853
 6014POPC   GL215650  27.682  17.511   8.853
 6014POPC   C1A15651  27.641  17.527   8.553
 6014POPC   D2A15652  27.576  17.503   8.253
 6014POPC   C3A15653  27.631  17.522   7.953
 6014POPC   C4A15654  27.624  17.495   7.653
 6014POPC   C1B15655  27.809  17.556   8.553
 6014POPC   C2B15656  27.878  17.547   8.253
 6014POPC   C3B15657  27.875  17.523   7.953
 6014POPC   C4B15658  27.867  17.590   7.653
 6015POPC   NC315659  41.529  25.303   9.453
 6015POPC   PO415660  41.537  25.239   9.153
 6015POPC   GL115661  41.526  25.259   8.853
 6015POPC   GL215662  41.407  25.187   8.853
 6015POPC   C1A15663  41.596  25.251   8.553
 6015POPC   D2A15664  41.577  25.285   8.253
 6015POPC   C3A15665  41.558  25.259   7.953
 6015POPC   C4A15666  41.593  25.291   7.653
 6015POPC   C1B15667  41.396  25.145   8.553
 6015POPC   C2B15668  41.398  25.154   8.253
 6015POPC   C3B15669  41.403  25.151   7.953
 6015POPC   C4B15670  41.313  25.152   7.653
 6016POPC   NC315671  18.247  26.014   9.453
 6016POPC   PO415672  18.281  26.005   9.153
 6016POPC   GL115673  18.282  25.993   8.853
 6016POPC   GL215674  18.422  26.051   8.853
 6016POPC   C1A15675  18.288  26.060   8.553
 6016POPC   D2A15676  18.256  26.076   8.253
 6016POPC   C3A15677  18.258  26.015   7.953
 6016POPC   C4A15678  18.288  26.053   7.653
 6016POPC   C1B15679  18.504  26.042   8.553
 6016POPC   C2B15680  18.552  26.038   8.253
 6016POPC   C3B15681  18.490  26.007   7.953
 6016POPC   C4B15682  18.530  26.014   7.653
 6017POPC   NC315683  40.016  11.328   9.453
 6017POPC   PO415684  40.023  11.333   9.153
 6017POPC   GL115685  40.019  11.273   8.853
 6017POPC   GL215686  40.054  11.239   8.853
 6017POPC   C1A15687  40.057  11.335   8.553
 6017POPC   D2A15688  39.961  11.342   8.253
 6017POPC   C3A15689  39.964  11.317   7.953
 6017POPC   C4A15690  40.028  11.314   7.653
 6017POPC   C1B15691  40.168  11.048   8.553
 6017POPC   C2B15692  40.103  11.035   8.253
 6017POPC   C3B15693  40.107  11.062   7.953
 6017POPC   C4B15694  40.104  11.092   7.653
 6018POPC   NC315695  42.371  44.700   9.453
 6018POPC   PO415696  42.326  44.696   9.153
 6018POPC   GL115697  42.318  44.696   8.853
 6018POPC   GL215698  42.314  44.498   8.853
 6018POPC   C1A15699  42.327  44.687   8.553
 6018POPC   D2A15700  42.337  44.705   8.253
 6018POPC   C3A15701  42.384  44.698   7.953
 6018POPC   C4A15702  42.305  44.650   7.653
 6018POPC   C1B15703  42.299  44.449   8.553
 6018POPC   C2B15704  42.349  44.376   8.253
 6018POPC   C3B15705  42.340  44.377   7.953
 6018POPC   C4B15706  42.341  44.438   7.653
 6019POPC   NC315707   3.544  23.755   9.453
 6019POPC   PO415708   3.586  23.722   9.153
 6019POPC   GL115709   3.511  23.716   8.853
 6019POPC   GL215710   3.470  23.850   8.853
 6019POPC   C1A15711   3.507  23.694   8.553
 6019POPC   D2A15712   3.560  23.744   8.253
 6019POPC   C3A15713   3.588  23.691   7.953
 6019POPC   C4A15714   3.519  23.703   7.653
 6019POPC   C1B15715   3.433  23.919   8.553
 6019POPC   C2B15716   3.433  23.928   8.253
 6019POPC   C3B15717   3.489  23.937   7.953
 6019POPC   C4B15718   3.488  24.002   7.653
 6020POPC   NC315719  23.688  15.922   9.453
 6020POPC   PO415720  23.688  15.994   9.153
 6020POPC   GL115721  23.706  15.913   8.853
 6020POPC   GL215722  23.648  16.029   8.853
 6020POPC   C1A15723  23.706  16.002   8.553
 6020POPC   D2A15724  23.763  15.972   8.253
 6020POPC   C3A15725  23.748  15.960   7.953
 6020POPC   C4A15726  23.731  15.989   7.653
 6020POPC   C1B15727  23.498  16.093   8.553
 6020POPC   C2B15728  23.457  16.022   8.253
 6020POPC   C3B15729  23.479  16.049   7.953
 6020POPC   C4B15730  23.465  16.094   7.653
 6021POPC   NC315731   7.428  19.047   9.453
 6021POPC   PO415732   7.418  19.029   9.153
 6021POPC   GL115733   7.438  19.089   8.853
 6021POPC   GL215734   7.374  18.929   8.853
 6021POPC   C1A15735   7.453  19.038   8.553
 6021POPC   D2A15736   7.398  19.076   8.253
 6021POPC   C3A15737   7.466  19.045   7.953
 6021POPC   C4A15738   7.386  19.096   7.653
 6021POPC   C1B15739   7.388  18.790   8.553
 6021POPC   C2B15740   7.379  18.817   8.253
 6021POPC   C3B15741   7.383  18.862   7.953
 6021POPC   C4B15742   7.322  18.834   7.653
 6022POPC   NC315743  29.956  20.632   9.453
 6022POPC   PO415744  29.887  20.634   9.153
 6022POPC   GL115745  29.969  20.653   8.853
 6022POPC   GL215746  30.015  20.535   8.853
 6022POPC   C1A15747  29.902  20.604   8.553
 6022POPC   D2A15748  29.891  20.574   8.253
 6022POPC   C3A15749  29.961  20.643   7.953
 6022POPC   C4A15750  29.877  20.590   7.653
 6022POPC   C1B15751  30.147  20.532   8.553
 6022POPC   C2B15752  30.140  20.562   8.253
 6022POPC   C3B15753  30.174  20.517   7.953
 6022POPC   C4B15754  30.159  20.482   7.653
 6023POPC   NC315755  28.411   1.264   9.453
 6023POPC   PO415756  28.392   1.208   9.153
 6023POPC   GL115757  28.417   1.219   8.853
 6023POPC   GL215758  28.324   1.111   8.853
 6023POPC   C1A15759  28.405   1.197   8.553
 6023POPC   D2A15760  28.408   1.261   8.253
 6023POPC   C3A15761  28.393   1.194   7.953
 6023POPC   C4A15762  28.330   1.258   7.653
 6023POPC   C1B15763  28.379   1.002   8.553
 6023POPC   C2B15764  28.338   0.954   8.253
 6023POPC   C3B15765  28.338   1.012   7.953
 6023POPC   C4B15766  28.352   0.993   7.653
 6024POPC   NC315767  23.710  39.239   9.453
 6024POPC   PO415768  23.706  39.280   9.153
 6024POPC   GL115769  23.713  39.260   8.853
 6024POPC   GL215770  23.755  39.098   8.853
 6024POPC   C1A15771  23.706  39.259   8.553
 6024POPC   D2A15772  23.687  39.213   8.253
 6024POPC   C3A15773  23.712  39.181   7.953
 6024POPC   C4A15774  23.720  39.244   7.653
 6024POPC   C1B15775  23.905  39.047   8.553
 6024POPC   C2B15776  23.858  39.084   8.253
 6024POPC   C3B15777  23.901  39.103   7.953
 6024POPC   C4B15778  23.929  39.057   7.653
 6025POPC   NC315779  22.182   1.249   9.453
 6025POPC   PO415780  22.192   1.191   9.153
 6025POPC   GL115781  22.196   1.194   8.853
 6025POPC   GL215782  22.289   1.232   8.853
 6025POPC   C1A15783  22.166   1.177   8.553
 6025POPC   D2A15784  22.150   1.175   8.253
 6025POPC   C3A15785  22.187   1.231   7.953
 6025POPC   C4A15786  22.138   1.204   7.653
 6025POPC   C1B15787  22.335   1.335   8.553
 6025POPC   C2B15788  22.370   1.327   8.253
 6025POPC   C3B15789  22.335   1.312   7.953
 6025POPC   C4B15790  22.375   1.289   7.653
 6026POPC   NC315791   5.077  16.713   9.453
 6026POPC   PO415792   5.130  16.685   9.153
 6026POPC   GL115793   5.063  16.700   8.853
 6026POPC   GL215794   5.030  16.872   8.853
 6026POPC   C1A15795   5.074  16.730   8.553
 6026POPC   D2A15796   5.132  16.747   8.253
 6026POPC   C3A15797   5.052  16.719   7.953
 6026POPC   C4A15798   5.123  16.733   7.653
 6026POPC   C1B15799   4.875  16.881   8.553
 6026POPC   C2B15800   4.902  16.929   8.253
 6026POPC   C3B15801   4.970  16.895   7.953
 6026POPC   C4B15802   4.954  16.916   7.653
 6027POPC   NC315803  40.759  31.424   9.453
 6027POPC   PO415804  40.798  31.515   9.153
 6027POPC   GL115805  40.751  31.442   8.853
 6027POPC   GL215806  40.810  31.368   8.853
 6027POPC   C1A15807  40.746  31.518   8.553
 6027POPC   D2A15808  40.774  31.503   8.253
 6027POPC   C3A15809  40.818  31.434   7.953
 6027POPC   C4A15810  40.825  31.522   7.653
 6027POPC   C1B15811  40.830  31.255   8.553
 6027POPC   C2B15812  40.777  31.242   8.253
 6027POPC   C3B15813  40.808  31.235   7.953
 6027POPC   C4B15814  40.795  31.213   7.653
 6028POPC   NC315815  32.232  32.235   9.453
 6028POPC   PO415816  32.275  32.269   9.153
 6028POPC   GL115817  32.220  32.230   8.853
 6028POPC   GL215818  32.259  32.114   8.853
 6028POPC   C1A15819  32.271  32.227   8.553
 6028POPC   D2A15820  32.245  32.256   8.253
 6028POPC   C3A15821  32.246  32.259   7.953
 6028POPC   C4A15822  32.254  32.281   7.653
 6028POPC   C1B15823  32.223  31.973   8.553
 6028POPC   C2B15824  32.186  31.953   8.253
 6028POPC   C3B15825  32.182  32.029   7.953
 6028POPC   C4B15826  32.251  31.990   7.653
 6029POPC   NC315827  29.143  36.105   9.453
 6029POPC   PO415828  29.182  36.177   9.153
 6029POPC   GL115829  29.145  36.091   8.853
 6029POPC   GL215830  29.050  36.187   8.853
 6029POPC   C1A15831  29.122  36.140   8.553
 6029POPC   D2A15832  29.194  36.097   8.253
 6029POPC   C3A15833  29.150  36.090   7.953
 6029POPC   C4A15834  29.118  36.092   7.653
 6029POPC   C1B15835  29.034  36.347   8.553
 6029POPC   C2B15836  29.029  36.324   8.253
 6029POPC   C3B15837  28.967  36.363   7.953
 6029POPC   C4B15838  29.036  36.326   7.653
 6030POPC   NC315839  20.596  22.964   9.453
 6030POPC   PO415840  20.594  22.902   9.153
 6030POPC   GL115841  20.596  22.984   8.853
 6030POPC   GL215842  20.727  22.988   8.853
 6030POPC   C1A15843  20.610  22.890   8.553
 6030POPC   D2A15844  20.658  22.977   8.253
 6030POPC   C3A15845  20.639  22.955   7.953
 6030POPC   C4A15846  20.569  22.894   7.653
 6030POPC   C1B15847  20.869  23.038   8.553
 6030POPC   C2B15848  20.780  23.012   8.253
 6030POPC   C3B15849  20.837  23.043   7.953
 6030POPC   C4B15850  20.849  23.081   7.653
 6031POPC   NC315851  19.074  22.163   9.453
 6031POPC   PO415852  19.060  22.144   9.153
 6031POPC   GL115853  19.021  22.134   8.853
 6031POPC   GL215854  18.909  22.246   8.853
 6031POPC   C1A15855  19.069  22.211   8.553
 6031POPC   D2A15856  19.039  22.186   8.253
 6031POPC   C3A15857  19.095  22.133   7.953
 6031POPC   C4A15858  19.068  22.139   7.653
 6031POPC   C1B15859  18.832  22.259   8.553
 6031POPC   C2B15860  18.857  22.298   8.253
 6031POPC   C3B15861  18.884  22.302   7.953
 6031POPC   C4B15862  18.809  22.268   7.653
 6032POPC   NC315863  36.097   2.779   9.453
 6032POPC   PO415864  36.150   2.792   9.153
 6032POPC   GL115865  36.122   2.733   8.853
 6032POPC   GL215866  35.991   2.768   8.853
 6032POPC   C1A15867  36.159   2.793   8.553
 6032POPC   D2A15868  36.156   2.734   8.253
 6032POPC   C3A15869  36.097   2.772   7.953
 6032POPC   C4A15870  36.166   2.791   7.653
 6032POPC   C1B15871  35.884   2.826   8.553
 6032POPC   C2B15872  35.889   2.873   8.253
 6032POPC   C3B15873  35.847   2.812   7.953
 6032POPC   C4B15874  35.860   2.853   7.653
 6033POPC   NC315875  31.439  32.247   9.453
 6033POPC   PO415876  31.520  32.292   9.153
 6033POPC   GL115877  31.459  32.236   8.853
 6033POPC   GL215878  31.391  32.205   8.853
 6033POPC   C1A15879  31.476  32.217   8.553
 6033POPC   D2A15880  31.509  32.261   8.253
 6033POPC   C3A15881  31.475  32.225   7.953
 6033POPC   C4A15882  31.481  32.270   7.653
 6033POPC   C1B15883  31.254  32.210   8.553
 6033POPC   C2B15884  31.223  32.256   8.253
 6033POPC   C3B15885  31.248  32.206   7.953
 6033POPC   C4B15886  31.245  32.209   7.653
 6034POPC   NC315887  40.013  19.067   9.453
 6034POPC   PO415888  39.973  19.097   9.153
 6034POPC   GL115889  39.999  19.057   8.853
 6034POPC   GL215890  39.886  19.083   8.853
 6034POPC   C1A15891  40.054  19.058   8.553
 6034POPC   D2A15892  40.051  19.090   8.253
 6034POPC   C3A15893  40.056  19.094   7.953
 6034POPC   C4A15894  40.055  19.079   7.653
 6034POPC   C1B15895  39.723  18.968   8.553
 6034POPC   C2B15896  39.743  19.043   8.253
 6034POPC   C3B15897  39.721  19.005   7.953
 6034POPC   C4B15898  39.768  19.030   7.653
 6035POPC   NC315899  32.216  15.932   9.453
 6035POPC   PO415900  32.276  15.991   9.153
 6035POPC   GL115901  32.272  15.957   8.853
 6035POPC   GL215902  32.098  16.056   8.853
 6035POPC   C1A15903  32.214  15.961   8.553
 6035POPC   D2A15904  32.249  15.995   8.253
 6035POPC   C3A15905  32.215  15.908   7.953
 6035POPC   C4A15906  32.285  15.937   7.653
 6035POPC   C1B15907  32.004  16.050   8.553
 6035POPC   C2B15908  32.058  16.055   8.253
 6035POPC   C3B15909  32.053  16.138   7.953
 6035POPC   C4B15910  32.036  16.103   7.653
 6036POPC   NC315911  39.966  20.654   9.453
 6036POPC   PO415912  40.036  20.618   9.153
 6036POPC   GL115913  40.018  20.619   8.853
 6036POPC   GL215914  39.990  20.745   8.853
 6036POPC   C1A15915  39.968  20.574   8.553
 6036POPC   D2A15916  40.026  20.594   8.253
 6036POPC   C3A15917  40.015  20.654   7.953
 6036POPC   C4A15918  40.014  20.613   7.653
 6036POPC   C1B15919  40.022  20.853   8.553
 6036POPC   C2B15920  39.998  20.864   8.253
 6036POPC   C3B15921  39.990  20.848   7.953
 6036POPC   C4B15922  40.070  20.901   7.653
 6037POPC   NC315923  29.103  29.890   9.453
 6037POPC   PO415924  29.165  29.919   9.153
 6037POPC   GL115925  29.159  29.931   8.853
 6037POPC   GL215926  29.250  29.985   8.853
 6037POPC   C1A15927  29.108  29.873   8.553
 6037POPC   D2A15928  29.182  29.952   8.253
 6037POPC   C3A15929  29.180  29.932   7.953
 6037POPC   C4A15930  29.119  29.922   7.653
 6037POPC   C1B15931  29.343  30.079   8.553
 6037POPC   C2B15932  29.357  29.999   8.253
 6037POPC   C3B15933  29.374  30.053   7.953
 6037POPC   C4B15934  29.350  30.024   7.653
 6038POPC   NC315935  28.356  31.490   9.453
 6038POPC   PO415936  28.414  31.472   9.153
 6038POPC   GL115937  28.365  31.500   8.853
 6038POPC   GL215938  28.200  31.415   8.853
 6038POPC   C1A15939  28.342  31.423   8.553
 6038POPC   D2A15940  28.389  31.448   8.253
 6038POPC   C3A15941  28.370  31.516   7.953
 6038POPC   C4A15942  28.412  31.443   7.653
 6038POPC   C1B15943  28.166  31.456   8.553
 6038POPC   C2B15944  28.147  31.493   8.253
 6038POPC   C3B15945  28.167  31.429   7.953
 6038POPC   C4B15946  28.083  31.477   7.653
 6039POPC   NC315947  22.890  43.133   9.453
 6039POPC   PO415948  22.975  43.152   9.153
 6039POPC   GL115949  22.982  43.143   8.853
 6039POPC   GL215950  22.766  43.086   8.853
 6039POPC   C1A15951  22.945  43.122   8.553
 6039POPC   D2A15952  22.889  43.082   8.253
 6039POPC   C3A15953  22.915  43.113   7.953
 6039POPC   C4A15954  22.925  43.112   7.653
 6039POPC   C1B15955  22.642  43.150   8.553
 6039POPC   C2B15956  22.668  43.123   8.253
 6039POPC   C3B15957  22.713  43.135   7.953
 6039POPC   C4B15958  22.667  43.070   7.653
 6040POPC   NC315959  33.004  23.711   9.453
 6040POPC   PO415960  33.054  23.669   9.153
 6040POPC   GL115961  33.039  23.705   8.853
 6040POPC   GL215962  32.944  23.779   8.853
 6040POPC   C1A15963  33.065  23.699   8.553
 6040POPC   D2A15964  33.007  23.763   8.253
 6040POPC   C3A15965  32.981  23.700   7.953
 6040POPC   C4A15966  33.038  23.738   7.653
 6040POPC   C1B15967  32.766  23.875   8.553
 6040POPC   C2B15968  32.810  23.852   8.253
 6040POPC   C3B15969  32.842  23.780   7.953
 6040POPC   C4B15970  32.801  23.819   7.653
 6041POPC   NC315971  20.638  12.059   9.453
 6041POPC   PO415972  20.601  12.055   9.153
 6041POPC   GL115973  20.651  12.073   8.853
 6041POPC   GL215974  20.651  12.180   8.853
 6041POPC   C1A15975  20.619  12.097   8.553
 6041POPC   D2A15976  20.608  12.027   8.253
 6041POPC   C3A15977  20.575  12.078   7.953
 6041POPC   C4A15978  20.579  12.101   7.653
 6041POPC   C1B15979  20.803  12.316   8.553
 6041POPC   C2B15980  20.732  12.222   8.253
 6041POPC   C3B15981  20.775  12.282   7.953
 6041POPC   C4B15982  20.799  12.298   7.653
 6042POPC   NC315983  25.250  12.810   9.453
 6042POPC   PO415984  25.253  12.857   9.153
 6042POPC   GL115985  25.254  12.856   8.853
 6042POPC   GL215986  25.318  13.017   8.853
 6042POPC   C1A15987  25.221  12.866   8.553
 6042POPC   D2A15988  25.290  12.835   8.253
 6042POPC   C3A15989  25.235  12.812   7.953
 6042POPC   C4A15990  25.260  12.847   7.653
 6042POPC   C1B15991  25.294  13.099   8.553
 6042POPC   C2B15992  25.324  13.049   8.253
 6042POPC   C3B15993  25.295  13.052   7.953
 6042POPC   C4B15994  25.373  13.120   7.653
 6043POPC   NC315995  18.326  22.972   9.453
 6043POPC   PO415996  18.311  22.985   9.153
 6043POPC   GL115997  18.309  22.967   8.853
 6043POPC   GL215998  18.199  22.956   8.853
 6043POPC   C1A15999  18.270  22.915   8.553
 6043POPC   D2A16000  18.262  22.897   8.253
 6043POPC   C3A16001  18.301  22.892   7.953
 6043POPC   C4A16002  18.252  22.919   7.653
 6043POPC   C1B16003  18.083  22.950   8.553
 6043POPC   C2B16004  18.029  22.918   8.253
 6043POPC   C3B16005  18.054  22.937   7.953
 6043POPC   C4B16006  17.986  22.941   7.653
 6044POPC   NC316007  22.201  35.311   9.453
 6044POPC   PO416008  22.162  35.400   9.153
 6044POPC   GL116009  22.198  35.351   8.853
 6044POPC   GL216010  22.233  35.314   8.853
 6044POPC   C1A16011  22.210  35.366   8.553
 6044POPC   D2A16012  22.146  35.400   8.253
 6044POPC   C3A16013  22.143  35.307   7.953
 6044POPC   C4A16014  22.198  35.381   7.653
 6044POPC   C1B16015  22.396  35.251   8.553
 6044POPC   C2B16016  22.330  35.158   8.253
 6044POPC   C3B16017  22.410  35.226   7.953
 6044POPC   C4B16018  22.315  35.205   7.653
 6045POPC   NC316019  34.529   0.422   9.453
 6045POPC   PO416020  34.559   0.455   9.153
 6045POPC   GL116021  34.577   0.464   8.853
 6045POPC   GL216022  34.714   0.412   8.853
 6045POPC   C1A16023  34.537   0.397   8.553
 6045POPC   D2A16024  34.621   0.426   8.253
 6045POPC   C3A16025  34.560   0.479   7.953
 6045POPC   C4A16026  34.610   0.488   7.653
 6045POPC   C1B16027  34.846   0.431   8.553
 6045POPC   C2B16028  34.861   0.454   8.253
 6045POPC   C3B16029  34.868   0.415   7.953
 6045POPC   C4B16030  34.843   0.408   7.653
 6046POPC   NC316031  14.372   1.992   9.453
 6046POPC   PO416032  14.422   2.001   9.153
 6046POPC   GL116033  14.437   2.034   8.853
 6046POPC   GL216034  14.325   1.971   8.853
 6046POPC   C1A16035  14.399   1.971   8.553
 6046POPC   D2A16036  14.453   2.020   8.253
 6046POPC   C3A16037  14.376   2.025   7.953
 6046POPC   C4A16038  14.399   2.024   7.653
 6046POPC   C1B16039  14.180   1.928   8.553
 6046POPC   C2B16040  14.139   1.928   8.253
 6046POPC   C3B16041  14.131   1.966   7.953
 6046POPC   C4B16042  14.161   1.956   7.653
 6047POPC   NC316043  18.306  28.338   9.453
 6047POPC   PO416044  18.267  28.393   9.153
 6047POPC   GL116045  18.286  28.322   8.853
 6047POPC   GL216046  18.364  28.355   8.853
 6047POPC   C1A16047  18.294  28.354   8.553
 6047POPC   D2A16048  18.284  28.371   8.253
 6047POPC   C3A16049  18.305  28.415   7.953
 6047POPC   C4A16050  18.255  28.321   7.653
 6047POPC   C1B16051  18.494  28.248   8.553
 6047POPC   C2B16052  18.495  28.277   8.253
 6047POPC   C3B16053  18.480  28.237   7.953
 6047POPC   C4B16054  18.514  28.247   7.653
 6048POPC   NC316055  14.421  24.499   9.453
 6048POPC   PO416056  14.418  24.456   9.153
 6048POPC   GL116057  14.401  24.510   8.853
 6048POPC   GL216058  14.328  24.371   8.853
 6048POPC   C1A16059  14.355  24.495   8.553
 6048POPC   D2A16060  14.419  24.476   8.253
 6048POPC   C3A16061  14.372  24.501   7.953
 6048POPC   C4A16062  14.365  24.450   7.653
 6048POPC   C1B16063  14.349  24.206   8.553
 6048POPC   C2B16064  14.316  24.287   8.253
 6048POPC   C3B16065  14.334  24.230   7.953
 6048POPC   C4B16066  14.301  24.277   7.653
 6049POPC   NC316067  40.778  34.571   9.453
 6049POPC   PO416068  40.804  34.586   9.153
 6049POPC   GL116069  40.769  34.565   8.853
 6049POPC   GL216070  40.725  34.609   8.853
 6049POPC   C1A16071  40.769  34.594   8.553
 6049POPC   D2A16072  40.741  34.619   8.253
 6049POPC   C3A16073  40.815  34.562   7.953
 6049POPC   C4A16074  40.772  34.590   7.653
 6049POPC   C1B16075  40.533  34.752   8.553
 6049POPC   C2B16076  40.553  34.725   8.253
 6049POPC   C3B16077  40.546  34.736   7.953
 6049POPC   C4B16078  40.555  34.766   7.653
 6050POPC   NC316079  35.372  25.264   9.453
 6050POPC   PO416080  35.321  25.230   9.153
 6050POPC   GL116081  35.351  25.274   8.853
 6050POPC   GL216082  35.253  25.416   8.853
 6050POPC   C1A16083  35.340  25.218   8.553
 6050POPC   D2A16084  35.313  25.289   8.253
 6050POPC   C3A16085  35.379  25.274   7.953
 6050POPC   C4A16086  35.317  25.227   7.653
 6050POPC   C1B16087  35.219  25.468   8.553
 6050POPC   C2B16088  35.276  25.483   8.253
 6050POPC   C3B16089  35.192  25.501   7.953
 6050POPC   C4B16090  35.251  25.512   7.653
 6051POPC   NC316091   1.943  24.441   9.453
 6051POPC   PO416092   1.962  24.534   9.153
 6051POPC   GL116093   1.950  24.445   8.853
 6051POPC   GL216094   1.885  24.369   8.853
 6051POPC   C1A16095   1.950  24.486   8.553
 6051POPC   D2A16096   2.002  24.530   8.253
 6051POPC   C3A16097   2.017  24.496   7.953
 6051POPC   C4A16098   2.024  24.483   7.653
 6051POPC   C1B16099   1.832  24.340   8.553
 6051POPC   C2B16100   1.847  24.263   8.253
 6051POPC   C3B16101   1.879  24.249   7.953
 6051POPC   C4B16102   1.825  24.296   7.653
 6052POPC   NC316103  16.746  29.959   9.453
 6052POPC   PO416104  16.714  29.910   9.153
 6052POPC   GL116105  16.703  29.874   8.853
 6052POPC   GL216106  16.792  30.028   8.853
 6052POPC   C1A16107  16.749  29.874   8.553
 6052POPC   D2A16108  16.685  29.928   8.253
 6052POPC   C3A16109  16.737  29.930   7.953
 6052POPC   C4A16110  16.754  29.915   7.653
 6052POPC   C1B16111  16.951  30.088   8.553
 6052POPC   C2B16112  16.872  30.044   8.253
 6052POPC   C3B16113  16.936  30.081   7.953
 6052POPC   C4B16114  16.898  30.094   7.653
 6053POPC   NC316115  44.699  31.470   9.453
 6053POPC   PO416116  44.618  31.474   9.153
 6053POPC   GL116117  44.653  31.451   8.853
 6053POPC   GL216118  44.718  31.386   8.853
 6053POPC   C1A16119  44.652  31.495   8.553
 6053POPC   D2A16120  44.687  31.439   8.253
 6053POPC   C3A16121  44.676  31.442   7.953
 6053POPC   C4A16122  44.617  31.463   7.653
 6053POPC   C1B16123  44.709  31.262   8.553
 6053POPC   C2B16124  44.683  31.233   8.253
 6053POPC   C3B16125  44.768  31.189   7.953
 6053POPC   C4B16126  44.725  31.224   7.653
 6054POPC   NC316127  39.194  44.638   9.453
 6054POPC   PO416128  39.193  44.615   9.153
 6054POPC   GL116129  39.229  44.647   8.853
 6054POPC   GL216130  39.157  44.551   8.853
 6054POPC   C1A16131  39.278  44.649   8.553
 6054POPC   D2A16132  39.181  44.622   8.253
 6054POPC   C3A16133  39.246  44.638   7.953
 6054POPC   C4A16134  39.217  44.620   7.653
 6054POPC   C1B16135  39.062  44.430   8.553
 6054POPC   C2B16136  39.054  44.493   8.253
 6054POPC   C3B16137  39.105  44.506   7.953
 6054POPC   C4B16138  39.044  44.470   7.653
 6055POPC   NC316139  24.524  28.371   9.453
 6055POPC   PO416140  24.501  28.377   9.153
 6055POPC   GL116141  24.534  28.321   8.853
 6055POPC   GL216142  24.461  28.286   8.853
 6055POPC   C1A16143  24.500  28.385   8.553
 6055POPC   D2A16144  24.512  28.353   8.253
 6055POPC   C3A16145  24.459  28.391   7.953
 6055POPC   C4A16146  24.479  28.367   7.653
 6055POPC   C1B16147  24.482  28.128   8.553
 6055POPC   C2B16148  24.487  28.159   8.253
 6055POPC   C3B16149  24.535  28.083   7.953
 6055POPC   C4B16150  24.480  28.154   7.653
 6056POPC   NC316151  18.275  25.289   9.453
 6056POPC   PO416152  18.287  25.271   9.153
 6056POPC   GL116153  18.262  25.223   8.853
 6056POPC   GL216154  18.180  25.344   8.853
 6056POPC   C1A16155  18.327  25.314   8.553
 6056POPC   D2A16156  18.291  25.300   8.253
 6056POPC   C3A16157  18.280  25.216   7.953
 6056POPC   C4A16158  18.265  25.302   7.653
 6056POPC   C1B16159  18.088  25.447   8.553
 6056POPC   C2B16160  18.108  25.353   8.253
 6056POPC   C3B16161  18.121  25.359   7.953
 6056POPC   C4B16162  18.079  25.380   7.653
 6057POPC   NC316163   5.839   1.996   9.453
 6057POPC   PO416164   5.863   1.980   9.153
 6057POPC   GL116165   5.821   2.008   8.853
 6057POPC   GL216166   5.975   1.947   8.853
 6057POPC   C1A16167   5.897   2.029   8.553
 6057POPC   D2A16168   5.902   1.946   8.253
 6057POPC   C3A16169   5.904   1.988   7.953
 6057POPC   C4A16170   5.854   2.023   7.653
 6057POPC   C1B16171   6.078   2.015   8.553
 6057POPC   C2B16172   6.095   1.970   8.253
 6057POPC   C3B16173   6.086   2.013   7.953
 6057POPC   C4B16174   6.074   2.029   7.653
 6058POPC   NC316175  36.152  26.048   9.453
 6058POPC   PO416176  36.087  26.078   9.153
 6058POPC   GL116177  36.105  26.069   8.853
 6058POPC   GL216178  36.253  26.096   8.853
 6058POPC   C1A16179  36.128  26.018   8.553
 6058POPC   D2A16180  36.082  26.049   8.253
 6058POPC   C3A16181  36.149  26.089   7.953
 6058POPC   C4A16182  36.163  26.038   7.653
 6058POPC   C1B16183  36.309  26.099   8.553
 6058POPC   C2B16184  36.367  26.145   8.253
 6058POPC   C3B16185  36.353  26.168   7.953
 6058POPC   C4B16186  36.354  26.175   7.653
 6059POPC   NC316187  36.860  16.683   9.453
 6059POPC   PO416188  36.864  16.755   9.153
 6059POPC   GL116189  36.874  16.765   8.853
 6059POPC   GL216190  36.885  16.828   8.853
 6059POPC   C1A16191  36.880  16.745   8.553
 6059POPC   D2A16192  36.934  16.702   8.253
 6059POPC   C3A16193  36.904  16.773   7.953
 6059POPC   C4A16194  36.924  16.776   7.653
 6059POPC   C1B16195  36.897  16.968   8.553
 6059POPC   C2B16196  36.923  16.962   8.253
 6059POPC   C3B16197  36.902  16.943   7.953
 6059POPC   C4B16198  36.926  16.936   7.653
 6060POPC   NC316199  42.354  35.359   9.453
 6060POPC   PO416200  42.358  35.315   9.153
 6060POPC   GL116201  42.286  35.311   8.853
 6060POPC   GL216202  42.223  35.259   8.853
 6060POPC   C1A16203  42.297  35.356   8.553
 6060POPC   D2A16204  42.299  35.345   8.253
 6060POPC   C3A16205  42.351  35.364   7.953
 6060POPC   C4A16206  42.378  35.332   7.653
 6060POPC   C1B16207  42.070  35.263   8.553
 6060POPC   C2B16208  42.165  35.279   8.253
 6060POPC   C3B16209  42.073  35.244   7.953
 6060POPC   C4B16210  42.154  35.255   7.653
 6061POPC   NC316211  18.256  38.499   9.453
 6061POPC   PO416212  18.276  38.480   9.153
 6061POPC   GL116213  18.306  38.455   8.853
 6061POPC   GL216214  18.327  38.375   8.853
 6061POPC   C1A16215  18.258  38.491   8.553
 6061POPC   D2A16216  18.275  38.405   8.253
 6061POPC   C3A16217  18.276  38.463   7.953
 6061POPC   C4A16218  18.276  38.415   7.653
 6061POPC   C1B16219  18.451  38.298   8.553
 6061POPC   C2B16220  18.479  38.225   8.253
 6061POPC   C3B16221  18.433  38.300   7.953
 6061POPC   C4B16222  18.408  38.264   7.653
 6062POPC   NC316223  19.009  43.841   9.453
 6062POPC   PO416224  19.079  43.847   9.153
 6062POPC   GL116225  19.054  43.893   8.853
 6062POPC   GL216226  19.033  43.982   8.853
 6062POPC   C1A16227  19.047  43.877   8.553
 6062POPC   D2A16228  19.012  43.878   8.253
 6062POPC   C3A16229  19.043  43.889   7.953
 6062POPC   C4A16230  19.071  43.853   7.653
 6062POPC   C1B16231  19.003  44.160   8.553
 6062POPC   C2B16232  18.978  44.116   8.253
 6062POPC   C3B16233  19.038  44.168   7.953
 6062POPC   C4B16234  18.998  44.111   7.653
 6063POPC   NC316235  11.323   2.741   9.453
 6063POPC   PO416236  11.343   2.769   9.153
 6063POPC   GL116237  11.325   2.790   8.853
 6063POPC   GL216238  11.172   2.772   8.853
 6063POPC   C1A16239  11.255   2.742   8.553
 6063POPC   D2A16240  11.274   2.750   8.253
 6063POPC   C3A16241  11.279   2.775   7.953
 6063POPC   C4A16242  11.314   2.744   7.653
 6063POPC   C1B16243  11.054   2.774   8.553
 6063POPC   C2B16244  11.060   2.700   8.253
 6063POPC   C3B16245  11.096   2.764   7.953
 6063POPC   C4B16246  11.026   2.690   7.653
 6064POPC   NC316247  20.630  27.608   9.453
 6064POPC   PO416248  20.573  27.549   9.153
 6064POPC   GL116249  20.640  27.624   8.853
 6064POPC   GL216250  20.639  27.735   8.853
 6064POPC   C1A16251  20.600  27.572   8.553
 6064POPC   D2A16252  20.613  27.616   8.253
 6064POPC   C3A16253  20.639  27.610   7.953
 6064POPC   C4A16254  20.583  27.640   7.653
 6064POPC   C1B16255  20.696  27.796   8.553
 6064POPC   C2B16256  20.662  27.817   8.253
 6064POPC   C3B16257  20.676  27.833   7.953
 6064POPC   C4B16258  20.657  27.863   7.653
 6065POPC   NC316259   1.988   8.967   9.453
 6065POPC   PO416260   2.006   8.979   9.153
 6065POPC   GL116261   2.009   8.971   8.853
 6065POPC   GL216262   1.857   9.040   8.853
 6065POPC   C1A16263   1.976   8.981   8.553
 6065POPC   D2A16264   1.954   8.926   8.253
 6065POPC   C3A16265   2.021   8.945   7.953
 6065POPC   C4A16266   2.006   8.937   7.653
 6065POPC   C1B16267   1.795   9.081   8.553
 6065POPC   C2B16268   1.749   9.124   8.253
 6065POPC   C3B16269   1.793   9.131   7.953
 6065POPC   C4B16270   1.816   9.063   7.653
 6066POPC   NC316271  26.864  28.358   9.453
 6066POPC   PO416272  26.821  28.320   9.153
 6066POPC   GL116273  26.770  28.388   8.853
 6066POPC   GL216274  26.945  28.380   8.853
 6066POPC   C1A16275  26.822  28.355   8.553
 6066POPC   D2A16276  26.796  28.401   8.253
 6066POPC   C3A16277  26.782  28.406   7.953
 6066POPC   C4A16278  26.788  28.338   7.653
 6066POPC   C1B16279  27.035  28.463   8.553
 6066POPC   C2B16280  27.012  28.485   8.253
 6066POPC   C3B16281  27.023  28.525   7.953
 6066POPC   C4B16282  27.048  28.427   7.653
 6067POPC   NC316283  12.841  31.504   9.453
 6067POPC   PO416284  12.894  31.521   9.153
 6067POPC   GL116285  12.832  31.516   8.853
 6067POPC   GL216286  12.794  31.615   8.853
 6067POPC   C1A16287  12.866  31.474   8.553
 6067POPC   D2A16288  12.845  31.453   8.253
 6067POPC   C3A16289  12.829  31.455   7.953
 6067POPC   C4A16290  12.863  31.445   7.653
 6067POPC   C1B16291  12.804  31.766   8.553
 6067POPC   C2B16292  12.837  31.736   8.253
 6067POPC   C3B16293  12.817  31.686   7.953
 6067POPC   C4B16294  12.856  31.769   7.653
 6068POPC   NC316295  42.320   1.204   9.453
 6068POPC   PO416296  42.295   1.208   9.153
 6068POPC   GL116297  42.370   1.261   8.853
 6068POPC   GL216298  42.220   1.165   8.853
 6068POPC   C1A16299  42.320   1.226   8.553
 6068POPC   D2A16300  42.335   1.188   8.253
 6068POPC   C3A16301  42.330   1.254   7.953
 6068POPC   C4A16302  42.368   1.242   7.653
 6068POPC   C1B16303  42.106   1.092   8.553
 6068POPC   C2B16304  42.097   1.086   8.253
 6068POPC   C3B16305  42.080   1.071   7.953
 6068POPC   C4B16306  42.087   1.034   7.653
 6069POPC   NC316307  26.829  14.370   9.453
 6069POPC   PO416308  26.772  14.382   9.153
 6069POPC   GL116309  26.781  14.364   8.853
 6069POPC   GL216310  26.827  14.506   8.853
 6069POPC   C1A16311  26.804  14.439   8.553
 6069POPC   D2A16312  26.805  14.445   8.253
 6069POPC   C3A16313  26.842  14.439   7.953
 6069POPC   C4A16314  26.810  14.401   7.653
 6069POPC   C1B16315  26.821  14.664   8.553
 6069POPC   C2B16316  26.851  14.696   8.253
 6069POPC   C3B16317  26.800  14.609   7.953
 6069POPC   C4B16318  26.862  14.701   7.653
 6070POPC   NC316319  36.105  31.510   9.453
 6070POPC   PO416320  36.132  31.484   9.153
 6070POPC   GL116321  36.161  31.492   8.853
 6070POPC   GL216322  36.015  31.474   8.853
 6070POPC   C1A16323  36.136  31.494   8.553
 6070POPC   D2A16324  36.169  31.515   8.253
 6070POPC   C3A16325  36.174  31.508   7.953
 6070POPC   C4A16326  36.122  31.496   7.653
 6070POPC   C1B16327  35.906  31.553   8.553
 6070POPC   C2B16328  35.904  31.585   8.253
 6070POPC   C3B16329  35.853  31.609   7.953
 6070POPC   C4B16330  35.935  31.571   7.653
 6071POPC   NC316331  13.613  28.363   9.453
 6071POPC   PO416332  13.635  28.380   9.153
 6071POPC   GL116333  13.619  28.379   8.853
 6071POPC   GL216334  13.669  28.518   8.853
 6071POPC   C1A16335  13.601  28.412   8.553
 6071POPC   D2A16336  13.582  28.329   8.253
 6071POPC   C3A16337  13.629  28.345   7.953
 6071POPC   C4A16338  13.634  28.394   7.653
 6071POPC   C1B16339  13.737  28.570   8.553
 6071POPC   C2B16340  13.761  28.635   8.253
 6071POPC   C3B16341  13.751  28.551   7.953
 6071POPC   C4B16342  13.698  28.547   7.653
 6072POPC   NC316343  15.996  42.333   9.453
 6072POPC   PO416344  15.976  42.340   9.153
 6072POPC   GL116345  15.917  42.331   8.853
 6072POPC   GL216346  15.980  42.175   8.853
 6072POPC   C1A16347  15.997  42.324   8.553
 6072POPC   D2A16348  15.938  42.359   8.253
 6072POPC   C3A16349  15.938  42.340   7.953
 6072POPC   C4A16350  15.933  42.304   7.653
 6072POPC   C1B16351  16.021  42.113   8.553
 6072POPC   C2B16352  15.995  42.129   8.253
 6072POPC   C3B16353  15.950  42.052   7.953
 6072POPC   C4B16354  16.021  42.054   7.653
 6073POPC   NC316355  29.160  19.073   9.453
 6073POPC   PO416356  29.102  19.071   9.153
 6073POPC   GL116357  29.136  19.072   8.853
 6073POPC   GL216358  29.066  19.152   8.853
 6073POPC   C1A16359  29.153  19.098   8.553
 6073POPC   D2A16360  29.186  19.054   8.253
 6073POPC   C3A16361  29.121  19.087   7.953
 6073POPC   C4A16362  29.146  19.025   7.653
 6073POPC   C1B16363  28.915  19.145   8.553
 6073POPC   C2B16364  28.933  19.105   8.253
 6073POPC   C3B16365  28.874  19.114   7.953
 6073POPC   C4B16366  28.865  19.131   7.653
 6074POPC   NC316367  16.725  37.652   9.453
 6074POPC   PO416368  16.719  37.640   9.153
 6074POPC   GL116369  16.702  37.726   8.853
 6074POPC   GL216370  16.610  37.661   8.853
 6074POPC   C1A16371  16.694  37.673   8.553
 6074POPC   D2A16372  16.767  37.676   8.253
 6074POPC   C3A16373  16.756  37.692   7.953
 6074POPC   C4A16374  16.766  37.698   7.653
 6074POPC   C1B16375  16.554  37.587   8.553
 6074POPC   C2B16376  16.473  37.549   8.253
 6074POPC   C3B16377  16.553  37.538   7.953
 6074POPC   C4B16378  16.515  37.575   7.653
 6075POPC   NC316379   1.240  27.573   9.453
 6075POPC   PO416380   1.184  27.608   9.153
 6075POPC   GL116381   1.189  27.589   8.853
 6075POPC   GL216382   1.077  27.488   8.853
 6075POPC   C1A16383   1.201  27.634   8.553
 6075POPC   D2A16384   1.192  27.598   8.253
 6075POPC   C3A16385   1.222  27.568   7.953
 6075POPC   C4A16386   1.254  27.609   7.653
 6075POPC   C1B16387   1.023  27.494   8.553
 6075POPC   C2B16388   1.000  27.435   8.253
 6075POPC   C3B16389   0.977  27.430   7.953
 6075POPC   C4B16390   1.002  27.470   7.653
 6076POPC   NC316391  30.654   3.589   9.453
 6076POPC   PO416392  30.709   3.576   9.153
 6076POPC   GL116393  30.699   3.538   8.853
 6076POPC   GL216394  30.633   3.635   8.853
 6076POPC   C1A16395  30.653   3.556   8.553
 6076POPC   D2A16396  30.650   3.587   8.253
 6076POPC   C3A16397  30.737   3.534   7.953
 6076POPC   C4A16398  30.657   3.581   7.653
 6076POPC   C1B16399  30.617   3.769   8.553
 6076POPC   C2B16400  30.593   3.789   8.253
 6076POPC   C3B16401  30.600   3.793   7.953
 6076POPC   C4B16402  30.579   3.754   7.653
 6077POPC   NC316403   1.980  19.095   9.453
 6077POPC   PO416404   1.988  19.092   9.153
 6077POPC   GL116405   1.995  19.018   8.853
 6077POPC   GL216406   2.077  19.049   8.853
 6077POPC   C1A16407   1.996  19.052   8.553
 6077POPC   D2A16408   2.008  19.082   8.253
 6077POPC   C3A16409   2.006  19.071   7.953
 6077POPC   C4A16410   1.964  19.064   7.653
 6077POPC   C1B16411   2.193  19.011   8.553
 6077POPC   C2B16412   2.198  18.965   8.253
 6077POPC   C3B16413   2.265  19.049   7.953
 6077POPC   C4B16414   2.283  19.000   7.653
 6078POPC   NC316415  16.697  25.311   9.453
 6078POPC   PO416416  16.740  25.290   9.153
 6078POPC   GL116417  16.757  25.236   8.853
 6078POPC   GL216418  16.736  25.363   8.853
 6078POPC   C1A16419  16.700  25.308   8.553
 6078POPC   D2A16420  16.748  25.297   8.253
 6078POPC   C3A16421  16.750  25.284   7.953
 6078POPC   C4A16422  16.742  25.253   7.653
 6078POPC   C1B16423  16.684  25.491   8.553
 6078POPC   C2B16424  16.676  25.550   8.253
 6078POPC   C3B16425  16.662  25.469   7.953
 6078POPC   C4B16426  16.702  25.471   7.653
 6079POPC   NC316427  16.696  28.346   9.453
 6079POPC   PO416428  16.743  28.417   9.153
 6079POPC   GL116429  16.780  28.323   8.853
 6079POPC   GL216430  16.672  28.497   8.853
 6079POPC   C1A16431  16.704  28.391   8.553
 6079POPC   D2A16432  16.691  28.346   8.253
 6079POPC   C3A16433  16.702  28.389   7.953
 6079POPC   C4A16434  16.751  28.328   7.653
 6079POPC   C1B16435  16.537  28.588   8.553
 6079POPC   C2B16436  16.548  28.603   8.253
 6079POPC   C3B16437  16.624  28.615   7.953
 6079POPC   C4B16438  16.630  28.605   7.653
 6080POPC   NC316439  16.769  33.795   9.453
 6080POPC   PO416440  16.758  33.758   9.153
 6080POPC   GL116441  16.772  33.821   8.853
 6080POPC   GL216442  16.760  33.708   8.853
 6080POPC   C1A16443  16.730  33.824   8.553
 6080POPC   D2A16444  16.772  33.761   8.253
 6080POPC   C3A16445  16.719  33.844   7.953
 6080POPC   C4A16446  16.750  33.809   7.653
 6080POPC   C1B16447  16.720  33.522   8.553
 6080POPC   C2B16448  16.774  33.513   8.253
 6080POPC   C3B16449  16.723  33.583   7.953
 6080POPC   C4B16450  16.772  33.576   7.653
 6081POPC   NC316451  42.348  27.543   9.453
 6081POPC   PO416452  42.310  27.564   9.153
 6081POPC   GL116453  42.293  27.581   8.853
 6081POPC   GL216454  42.437  27.643   8.853
 6081POPC   C1A16455  42.319  27.561   8.553
 6081POPC   D2A16456  42.364  27.545   8.253
 6081POPC   C3A16457  42.360  27.621   7.953
 6081POPC   C4A16458  42.292  27.633   7.653
 6081POPC   C1B16459  42.571  27.786   8.553
 6081POPC   C2B16460  42.530  27.759   8.253
 6081POPC   C3B16461  42.560  27.742   7.953
 6081POPC   C4B16462  42.496  27.732   7.653
 6082POPC   NC316463   2.733  32.985   9.453
 6082POPC   PO416464   2.731  33.050   9.153
 6082POPC   GL116465   2.769  32.998   8.853
 6082POPC   GL216466   2.810  33.091   8.853
 6082POPC   C1A16467   2.761  33.047   8.553
 6082POPC   D2A16468   2.792  33.073   8.253
 6082POPC   C3A16469   2.762  33.035   7.953
 6082POPC   C4A16470   2.751  33.061   7.653
 6082POPC   C1B16471   2.883  33.260   8.553
 6082POPC   C2B16472   2.936  33.249   8.253
 6082POPC   C3B16473   2.967  33.256   7.953
 6082POPC   C4B16474   2.917  33.175   7.653
 6083POPC   NC316475   8.947  40.754   9.453
 6083POPC   PO416476   9.014  40.776   9.153
 6083POPC   GL116477   8.967  40.798   8.853
 6083POPC   GL216478   9.022  40.931   8.853
 6083POPC   C1A16479   8.998  40.741   8.553
 6083POPC   D2A16480   8.989  40.813   8.253
 6083POPC   C3A16481   8.937  40.744   7.953
 6083POPC   C4A16482   9.021  40.803   7.653
 6083POPC   C1B16483   8.982  40.986   8.553
 6083POPC   C2B16484   9.001  41.018   8.253
 6083POPC   C3B16485   8.972  41.004   7.953
 6083POPC   C4B16486   8.975  41.063   7.653
 6084POPC   NC316487   1.986  18.295   9.453
 6084POPC   PO416488   1.958  18.246   9.153
 6084POPC   GL116489   1.973  18.286   8.853
 6084POPC   GL216490   1.844  18.313   8.853
 6084POPC   C1A16491   2.015  18.323   8.553
 6084POPC   D2A16492   1.980  18.314   8.253
 6084POPC   C3A16493   1.999  18.290   7.953
 6084POPC   C4A16494   1.990  18.277   7.653
 6084POPC   C1B16495   1.780  18.322   8.553
 6084POPC   C2B16496   1.736  18.369   8.253
 6084POPC   C3B16497   1.774  18.299   7.953
 6084POPC   C4B16498   1.723  18.355   7.653
 6085POPC   NC316499   6.632  43.921   9.453
 6085POPC   PO416500   6.596  43.872   9.153
 6085POPC   GL116501   6.691  43.865   8.853
 6085POPC   GL216502   6.676  43.748   8.853
 6085POPC   C1A16503   6.672  43.903   8.553
 6085POPC   D2A16504   6.664  43.920   8.253
 6085POPC   C3A16505   6.637  43.915   7.953
 6085POPC   C4A16506   6.674  43.862   7.653
 6085POPC   C1B16507   6.703  43.673   8.553
 6085POPC   C2B16508   6.646  43.616   8.253
 6085POPC   C3B16509   6.715  43.618   7.953
 6085POPC   C4B16510   6.720  43.624   7.653
 6086POPC   NC316511  11.292  29.145   9.453
 6086POPC   PO416512  11.342  29.187   9.153
 6086POPC   GL116513  11.287  29.147   8.853
 6086POPC   GL216514  11.193  29.198   8.853
 6086POPC   C1A16515  11.250  29.127   8.553
 6086POPC   D2A16516  11.255  29.119   8.253
 6086POPC   C3A16517  11.278  29.113   7.953
 6086POPC   C4A16518  11.295  29.157   7.653
 6086POPC   C1B16519  11.125  29.367   8.553
 6086POPC   C2B16520  11.087  29.307   8.253
 6086POPC   C3B16521  11.137  29.340   7.953
 6086POPC   C4B16522  11.107  29.289   7.653
 6087POPC   NC316523  17.506  21.370   9.453
 6087POPC   PO416524  17.523  21.426   9.153
 6087POPC   GL116525  17.460  21.393   8.853
 6087POPC   GL216526  17.419  21.441   8.853
 6087POPC   C1A16527  17.532  21.400   8.553
 6087POPC   D2A16528  17.497  21.355   8.253
 6087POPC   C3A16529  17.476  21.405   7.953
 6087POPC   C4A16530  17.464  21.377   7.653
 6087POPC   C1B16531  17.304  21.499   8.553
 6087POPC   C2B16532  17.292  21.560   8.253
 6087POPC   C3B16533  17.294  21.552   7.953
 6087POPC   C4B16534  17.271  21.521   7.653
 6088POPC   NC316535   2.811  25.285   9.453
 6088POPC   PO416536   2.789  25.220   9.153
 6088POPC   GL116537   2.797  25.281   8.853
 6088POPC   GL216538   2.730  25.391   8.853
 6088POPC   C1A16539   2.797  25.298   8.553
 6088POPC   D2A16540   2.795  25.276   8.253
 6088POPC   C3A16541   2.765  25.250   7.953
 6088POPC   C4A16542   2.749  25.299   7.653
 6088POPC   C1B16543   2.676  25.516   8.553
 6088POPC   C2B16544   2.745  25.527   8.253
 6088POPC   C3B16545   2.720  25.479   7.953
 6088POPC   C4B16546   2.728  25.493   7.653
 6089POPC   NC316547   1.978   7.424   9.453
 6089POPC   PO416548   2.014   7.372   9.153
 6089POPC   GL116549   1.944   7.401   8.853
 6089POPC   GL216550   1.893   7.316   8.853
 6089POPC   C1A16551   1.956   7.414   8.553
 6089POPC   D2A16552   1.996   7.429   8.253
 6089POPC   C3A16553   1.991   7.419   7.953
 6089POPC   C4A16554   1.986   7.463   7.653
 6089POPC   C1B16555   1.772   7.336   8.553
 6089POPC   C2B16556   1.807   7.338   8.253
 6089POPC   C3B16557   1.764   7.313   7.953
 6089POPC   C4B16558   1.787   7.329   7.653
 6090POPC   NC316559  26.087  38.435   9.453
 6090POPC   PO416560  26.024  38.464   9.153
 6090POPC   GL116561  26.044  38.504   8.853
 6090POPC   GL216562  25.960  38.344   8.853
 6090POPC   C1A16563  26.091  38.499   8.553
 6090POPC   D2A16564  26.072  38.434   8.253
 6090POPC   C3A16565  26.088  38.433   7.953
 6090POPC   C4A16566  26.029  38.428   7.653
 6090POPC   C1B16567  25.808  38.283   8.553
 6090POPC   C2B16568  25.809  38.304   8.253
 6090POPC   C3B16569  25.856  38.302   7.953
 6090POPC   C4B16570  25.836  38.313   7.653
 6091POPC   NC316571  24.473  44.616   9.453
 6091POPC   PO416572  24.441  44.693   9.153
 6091POPC   GL116573  24.511  44.700   8.853
 6091POPC   GL216574  24.550  44.528   8.853
 6091POPC   C1A16575  24.508  44.630   8.553
 6091POPC   D2A16576  24.519  44.666   8.253
 6091POPC   C3A16577  24.476  44.699   7.953
 6091POPC   C4A16578  24.518  44.648   7.653
 6091POPC   C1B16579  24.594  44.414   8.553
 6091POPC   C2B16580  24.645  44.435   8.253
 6091POPC   C3B16581  24.613  44.398   7.953
 6091POPC   C4B16582  24.635  44.447   7.653
 6092POPC   NC316583  15.912  25.269   9.453
 6092POPC   PO416584  15.929  25.248   9.153
 6092POPC   GL116585  15.966  25.237   8.853
 6092POPC   GL216586  16.090  25.285   8.853
 6092POPC   C1A16587  15.983  25.299   8.553
 6092POPC   D2A16588  15.914  25.221   8.253
 6092POPC   C3A16589  15.964  25.286   7.953
 6092POPC   C4A16590  15.983  25.274   7.653
 6092POPC   C1B16591  16.117  25.391   8.553
 6092POPC   C2B16592  16.140  25.384   8.253
 6092POPC   C3B16593  16.119  25.379   7.953
 6092POPC   C4B16594  16.199  25.392   7.653
 6093POPC   NC316595  18.283  15.212   9.453
 6093POPC   PO416596  18.257  15.200   9.153
 6093POPC   GL116597  18.324  15.208   8.853
 6093POPC   GL216598  18.137  15.155   8.853
 6093POPC   C1A16599  18.238  15.169   8.553
 6093POPC   D2A16600  18.249  15.180   8.253
 6093POPC   C3A16601  18.250  15.192   7.953
 6093POPC   C4A16602  18.304  15.149   7.653
 6093POPC   C1B16603  18.015  15.215   8.553
 6093POPC   C2B16604  18.051  15.140   8.253
 6093POPC   C3B16605  18.050  15.177   7.953
 6093POPC   C4B16606  17.993  15.187   7.653
 6094POPC   NC316607   1.258   8.172   9.453
 6094POPC   PO416608   1.193   8.212   9.153
 6094POPC   GL116609   1.223   8.210   8.853
 6094POPC   GL216610   1.090   8.089   8.853
 6094POPC   C1A16611   1.172   8.164   8.553
 6094POPC   D2A16612   1.196   8.197   8.253
 6094POPC   C3A16613   1.220   8.173   7.953
 6094POPC   C4A16614   1.192   8.233   7.653
 6094POPC   C1B16615   1.011   8.118   8.553
 6094POPC   C2B16616   1.029   8.109   8.253
 6094POPC   C3B16617   0.967   8.099   7.953
 6094POPC   C4B16618   0.955   8.094   7.653
 6095POPC   NC316619  21.396  29.161   9.453
 6095POPC   PO416620  21.418  29.103   9.153
 6095POPC   GL116621  21.386  29.135   8.853
 6095POPC   GL216622  21.247  29.177   8.853
 6095POPC   C1A16623  21.393  29.165   8.553
 6095POPC   D2A16624  21.397  29.177   8.253
 6095POPC   C3A16625  21.403  29.132   7.953
 6095POPC   C4A16626  21.375  29.179   7.653
 6095POPC   C1B16627  21.182  29.211   8.553
 6095POPC   C2B16628  21.156  29.260   8.253
 6095POPC   C3B16629  21.100  29.213   7.953
 6095POPC   C4B16630  21.162  29.209   7.653
 6096POPC   NC316631  13.640  25.268   9.453
 6096POPC   PO416632  13.620  25.296   9.153
 6096POPC   GL116633  13.632  25.285   8.853
 6096POPC   GL216634  13.563  25.153   8.853
 6096POPC   C1A16635  13.660  25.313   8.553
 6096POPC   D2A16636  13.580  25.254   8.253
 6096POPC   C3A16637  13.588  25.275   7.953
 6096POPC   C4A16638  13.587  25.303   7.653
 6096POPC   C1B16639  13.441  25.156   8.553
 6096POPC   C2B16640  13.468  25.105   8.253
 6096POPC   C3B16641  13.378  25.109   7.953
 6096POPC   C4B16642  13.454  25.164   7.653
 6097POPC   NC316643  13.660  27.582   9.453
 6097POPC   PO416644  13.650  27.596   9.153
 6097POPC   GL116645  13.634  27.547   8.853
 6097POPC   GL216646  13.711  27.605   8.853
 6097POPC   C1A16647  13.651  27.631   8.553
 6097POPC   D2A16648  13.656  27.566   8.253
 6097POPC   C3A16649  13.654  27.577   7.953
 6097POPC   C4A16650  13.667  27.605   7.653
 6097POPC   C1B16651  13.875  27.748   8.553
 6097POPC   C2B16652  13.858  27.730   8.253
 6097POPC   C3B16653  13.874  27.721   7.953
 6097POPC   C4B16654  13.845  27.666   7.653
 6098POPC   NC316655  41.608  34.593   9.453
 6098POPC   PO416656  41.564  34.583   9.153
 6098POPC   GL116657  41.539  34.624   8.853
 6098POPC   GL216658  41.643  34.533   8.853
 6098POPC   C1A16659  41.576  34.584   8.553
 6098POPC   D2A16660  41.518  34.542   8.253
 6098POPC   C3A16661  41.580  34.615   7.953
 6098POPC   C4A16662  41.540  34.599   7.653
 6098POPC   C1B16663  41.782  34.504   8.553
 6098POPC   C2B16664  41.779  34.478   8.253
 6098POPC   C3B16665  41.804  34.448   7.953
 6098POPC   C4B16666  41.818  34.449   7.653
 6099POPC   NC316667  15.208  29.194   9.453
 6099POPC   PO416668  15.150  29.165   9.153
 6099POPC   GL116669  15.198  29.136   8.853
 6099POPC   GL216670  15.212  29.278   8.853
 6099POPC   C1A16671  15.211  29.142   8.553
 6099POPC   D2A16672  15.138  29.124   8.253
 6099POPC   C3A16673  15.173  29.167   7.953
 6099POPC   C4A16674  15.201  29.153   7.653
 6099POPC   C1B16675  15.216  29.389   8.553
 6099POPC   C2B16676  15.257  29.375   8.253
 6099POPC   C3B16677  15.262  29.349   7.953
 6099POPC   C4B16678  15.211  29.353   7.653
 6100POPC   NC316679  19.878   2.747   9.453
 6100POPC   PO416680  19.859   2.733   9.153
 6100POPC   GL116681  19.793   2.757   8.853
 6100POPC   GL216682  19.767   2.666   8.853
 6100POPC   C1A16683  19.798   2.735   8.553
 6100POPC   D2A16684  19.819   2.783   8.253
 6100POPC   C3A16685  19.845   2.738   7.953
 6100POPC   C4A16686  19.806   2.780   7.653
 6100POPC   C1B16687  19.734   2.504   8.553
 6100POPC   C2B16688  19.728   2.554   8.253
 6100POPC   C3B16689  19.775   2.577   7.953
 6100POPC   C4B16690  19.765   2.489   7.653
 6101POPC   NC316691  20.658   3.504   9.453
 6101POPC   PO416692  20.578   3.548   9.153
 6101POPC   GL116693  20.579   3.572   8.853
 6101POPC   GL216694  20.587   3.454   8.853
 6101POPC   C1A16695  20.602   3.550   8.553
 6101POPC   D2A16696  20.566   3.563   8.253
 6101POPC   C3A16697  20.610   3.499   7.953
 6101POPC   C4A16698  20.597   3.586   7.653
 6101POPC   C1B16699  20.581   3.262   8.553
 6101POPC   C2B16700  20.548   3.302   8.253
 6101POPC   C3B16701  20.501   3.325   7.953
 6101POPC   C4B16702  20.591   3.338   7.653
 6102POPC   NC316703  39.974  44.700   9.453
 6102POPC   PO416704  39.991  44.701   9.153
 6102POPC   GL116705  40.005  44.626   8.853
 6102POPC   GL216706  39.966  44.500   8.853
 6102POPC   C1A16707  40.049  44.639   8.553
 6102POPC   D2A16708  40.043  44.698   8.253
 6102POPC   C3A16709  39.995  44.654   7.953
 6102POPC   C4A16710  39.962  44.619   7.653
 6102POPC   C1B16711  39.941  44.392   8.553
 6102POPC   C2B16712  39.970  44.458   8.253
 6102POPC   C3B16713  39.914  44.447   7.953
 6102POPC   C4B16714  39.922  44.376   7.653
 6103POPC   NC316715   4.349   2.738   9.453
 6103POPC   PO416716   4.274   2.773   9.153
 6103POPC   GL116717   4.309   2.775   8.853
 6103POPC   GL216718   4.320   2.663   8.853
 6103POPC   C1A16719   4.321   2.811   8.553
 6103POPC   D2A16720   4.325   2.787   8.253
 6103POPC   C3A16721   4.278   2.792   7.953
 6103POPC   C4A16722   4.325   2.781   7.653
 6103POPC   C1B16723   4.370   2.503   8.553
 6103POPC   C2B16724   4.318   2.535   8.253
 6103POPC   C3B16725   4.360   2.503   7.953
 6103POPC   C4B16726   4.369   2.470   7.653
 6104POPC   NC316727  42.289  21.397   9.453
 6104POPC   PO416728  42.321  21.347   9.153
 6104POPC   GL116729  42.378  21.357   8.853
 6104POPC   GL216730  42.411  21.463   8.853
 6104POPC   C1A16731  42.289  21.389   8.553
 6104POPC   D2A16732  42.373  21.411   8.253
 6104POPC   C3A16733  42.329  21.428   7.953
 6104POPC   C4A16734  42.288  21.410   7.653
 6104POPC   C1B16735  42.437  21.568   8.553
 6104POPC   C2B16736  42.497  21.624   8.253
 6104POPC   C3B16737  42.498  21.610   7.953
 6104POPC   C4B16738  42.463  21.593   7.653
 6105POPC   NC316739  39.266  37.675   9.453
 6105POPC   PO416740  39.204  37.726   9.153
 6105POPC   GL116741  39.190  37.672   8.853
 6105POPC   GL216742  39.287  37.648   8.853
 6105POPC   C1A16743  39.211  37.727   8.553
 6105POPC   D2A16744  39.265  37.665   8.253
 6105POPC   C3A16745  39.199  37.641   7.953
 6105POPC   C4A16746  39.206  37.677   7.653
 6105POPC   C1B16747  39.421  37.581   8.553
 6105POPC   C2B16748  39.441  37.514   8.253
 6105POPC   C3B16749  39.415  37.496   7.953
 6105POPC   C4B16750  39.392  37.506   7.653
 6106POPC   NC316751  41.531  18.249   9.453
 6106POPC   PO416752  41.554  18.234   9.153
 6106POPC   GL116753  41.536  18.330   8.853
 6106POPC   GL216754  41.685  18.261   8.853
 6106POPC   C1A16755  41.549  18.312   8.553
 6106POPC   D2A16756  41.596  18.260   8.253
 6106POPC   C3A16757  41.602  18.268   7.953
 6106POPC   C4A16758  41.566  18.245   7.653
 6106POPC   C1B16759  41.783  18.139   8.553
 6106POPC   C2B16760  41.777  18.141   8.253
 6106POPC   C3B16761  41.737  18.183   7.953
 6106POPC   C4B16762  41.795  18.143   7.653
 6107POPC   NC316763  35.395  19.840   9.453
 6107POPC   PO416764  35.382  19.825   9.153
 6107POPC   GL116765  35.342  19.813   8.853
 6107POPC   GL216766  35.404  19.923   8.853
 6107POPC   C1A16767  35.362  19.838   8.553
 6107POPC   D2A16768  35.387  19.873   8.253
 6107POPC   C3A16769  35.380  19.837   7.953
 6107POPC   C4A16770  35.393  19.848   7.653
 6107POPC   C1B16771  35.474  20.056   8.553
 6107POPC   C2B16772  35.549  20.011   8.253
 6107POPC   C3B16773  35.470  20.078   7.953
 6107POPC   C4B16774  35.547  20.067   7.653
 6108POPC   NC316775  43.072  36.138   9.453
 6108POPC   PO416776  43.101  36.150   9.153
 6108POPC   GL116777  43.072  36.085   8.853
 6108POPC   GL216778  43.248  36.051   8.853
 6108POPC   C1A16779  43.129  36.083   8.553
 6108POPC   D2A16780  43.156  36.088   8.253
 6108POPC   C3A16781  43.156  36.093   7.953
 6108POPC   C4A16782  43.113  36.111   7.653
 6108POPC   C1B16783  43.268  35.987   8.553
 6108POPC   C2B16784  43.295  36.000   8.253
 6108POPC   C3B16785  43.314  36.012   7.953
 6108POPC   C4B16786  43.343  35.938   7.653
 6109POPC   NC316787   4.341  31.510   9.453
 6109POPC   PO416788   4.294  31.499   9.153
 6109POPC   GL116789   4.363  31.473   8.853
 6109POPC   GL216790   4.437  31.561   8.853
 6109POPC   C1A16791   4.319  31.487   8.553
 6109POPC   D2A16792   4.332  31.518   8.253
 6109POPC   C3A16793   4.313  31.446   7.953
 6109POPC   C4A16794   4.330  31.503   7.653
 6109POPC   C1B16795   4.525  31.570   8.553
 6109POPC   C2B16796   4.490  31.564   8.253
 6109POPC   C3B16797   4.535  31.633   7.953
 6109POPC   C4B16798   4.493  31.564   7.653
 6110POPC   NC316799  36.857   0.444   9.453
 6110POPC   PO416800  36.910   0.484   9.153
 6110POPC   GL116801  36.905   0.477   8.853
 6110POPC   GL216802  36.803   0.508   8.853
 6110POPC   C1A16803  36.853   0.432   8.553
 6110POPC   D2A16804  36.876   0.440   8.253
 6110POPC   C3A16805  36.916   0.449   7.953
 6110POPC   C4A16806  36.950   0.472   7.653
 6110POPC   C1B16807  36.816   0.644   8.553
 6110POPC   C2B16808  36.777   0.671   8.253
 6110POPC   C3B16809  36.721   0.649   7.953
 6110POPC   C4B16810  36.771   0.697   7.653
 6111POPC   NC316811  34.576   7.385   9.453
 6111POPC   PO416812  34.602   7.445   9.153
 6111POPC   GL116813  34.560   7.378   8.853
 6111POPC   GL216814  34.533   7.331   8.853
 6111POPC   C1A16815  34.571   7.431   8.553
 6111POPC   D2A16816  34.546   7.416   8.253
 6111POPC   C3A16817  34.571   7.457   7.953
 6111POPC   C4A16818  34.617   7.456   7.653
 6111POPC   C1B16819  34.500   7.204   8.553
 6111POPC   C2B16820  34.573   7.176   8.253
 6111POPC   C3B16821  34.582   7.160   7.953
 6111POPC   C4B16822  34.511   7.168   7.653
 6112POPC   NC316823   5.820   9.707   9.453
 6112POPC   PO416824   5.819   9.760   9.153
 6112POPC   GL116825   5.891   9.785   8.853
 6112POPC   GL216826   5.981   9.788   8.853
 6112POPC   C1A16827   5.881   9.780   8.553
 6112POPC   D2A16828   5.891   9.767   8.253
 6112POPC   C3A16829   5.851   9.719   7.953
 6112POPC   C4A16830   5.915   9.758   7.653
 6112POPC   C1B16831   6.093   9.741   8.553
 6112POPC   C2B16832   6.093   9.761   8.253
 6112POPC   C3B16833   6.164   9.722   7.953
 6112POPC   C4B16834   6.126   9.720   7.653
 6113POPC   NC316835  10.537  40.004   9.453
 6113POPC   PO416836  10.508  39.981   9.153
 6113POPC   GL116837  10.526  40.050   8.853
 6113POPC   GL216838  10.475  39.966   8.853
 6113POPC   C1A16839  10.512  40.051   8.553
 6113POPC   D2A16840  10.495  40.010   8.253
 6113POPC   C3A16841  10.488  39.972   7.953
 6113POPC   C4A16842  10.486  40.034   7.653
 6113POPC   C1B16843  10.304  39.793   8.553
 6113POPC   C2B16844  10.372  39.852   8.253
 6113POPC   C3B16845  10.386  39.856   7.953
 6113POPC   C4B16846  10.324  39.848   7.653
 6114POPC   NC316847  24.534  13.646   9.453
 6114POPC   PO416848  24.531  13.651   9.153
 6114POPC   GL116849  24.495  13.671   8.853
 6114POPC   GL216850  24.458  13.705   8.853
 6114POPC   C1A16851  24.510  13.626   8.553
 6114POPC   D2A16852  24.485  13.639   8.253
 6114POPC   C3A16853  24.505  13.594   7.953
 6114POPC   C4A16854  24.455  13.660   7.653
 6114POPC   C1B16855  24.399  13.847   8.553
 6114POPC   C2B16856  24.447  13.877   8.253
 6114POPC   C3B16857  24.428  13.884   7.953
 6114POPC   C4B16858  24.408  13.893   7.653
 6115POPC   NC316859  33.764  19.802   9.453
 6115POPC   PO416860  33.833  19.865   9.153
 6115POPC   GL116861  33.831  19.830   8.853
 6115POPC   GL216862  33.856  19.701   8.853
 6115POPC   C1A16863  33.804  19.803   8.553
 6115POPC   D2A16864  33.827  19.813   8.253
 6115POPC   C3A16865  33.783  19.787   7.953
 6115POPC   C4A16866  33.761  19.847   7.653
 6115POPC   C1B16867  33.942  19.636   8.553
 6115POPC   C2B16868  33.937  19.606   8.253
 6115POPC   C3B16869  33.957  19.643   7.953
 6115POPC   C4B16870  33.900  19.634   7.653
 6116POPC   NC316871  30.648   1.169   9.453
 6116POPC   PO416872  30.671   1.174   9.153
 6116POPC   GL116873  30.706   1.205   8.853
 6116POPC   GL216874  30.583   1.365   8.853
 6116POPC   C1A16875  30.690   1.184   8.553
 6116POPC   D2A16876  30.698   1.237   8.253
 6116POPC   C3A16877  30.681   1.186   7.953
 6116POPC   C4A16878  30.677   1.168   7.653
 6116POPC   C1B16879  30.552   1.386   8.553
 6116POPC   C2B16880  30.541   1.399   8.253
 6116POPC   C3B16881  30.569   1.369   7.953
 6116POPC   C4B16882  30.574   1.433   7.653
 6117POPC   NC316883  10.549  41.572   9.453
 6117POPC   PO416884  10.547  41.606   9.153
 6117POPC   GL116885  10.484  41.522   8.853
 6117POPC   GL216886  10.449  41.589   8.853
 6117POPC   C1A16887  10.536  41.595   8.553
 6117POPC   D2A16888  10.549  41.599   8.253
 6117POPC   C3A16889  10.542  41.518   7.953
 6117POPC   C4A16890  10.474  41.511   7.653
 6117POPC   C1B16891  10.329  41.677   8.553
 6117POPC   C2B16892  10.290  41.672   8.253
 6117POPC   C3B16893  10.342  41.644   7.953
 6117POPC   C4B16894  10.332  41.638   7.653
 6118POPC   NC316895  38.476  21.413   9.453
 6118POPC   PO416896  38.426  21.351   9.153
 6118POPC   GL116897  38.488  21.340   8.853
 6118POPC   GL216898  38.391  21.475   8.853
 6118POPC   C1A16899  38.505  21.367   8.553
 6118POPC   D2A16900  38.412  21.424   8.253
 6118POPC   C3A16901  38.444  21.420   7.953
 6118POPC   C4A16902  38.451  21.337   7.653
 6118POPC   C1B16903  38.261  21.541   8.553
 6118POPC   C2B16904  38.336  21.590   8.253
 6118POPC   C3B16905  38.249  21.575   7.953
 6118POPC   C4B16906  38.341  21.531   7.653
 6119POPC   NC316907  11.316   4.291   9.453
 6119POPC   PO416908  11.297   4.344   9.153
 6119POPC   GL116909  11.309   4.366   8.853
 6119POPC   GL216910  11.284   4.193   8.853
 6119POPC   C1A16911  11.271   4.286   8.553
 6119POPC   D2A16912  11.266   4.334   8.253
 6119POPC   C3A16913  11.328   4.299   7.953
 6119POPC   C4A16914  11.294   4.298   7.653
 6119POPC   C1B16915  11.269   4.039   8.553
 6119POPC   C2B16916  11.274   4.056   8.253
 6119POPC   C3B16917  11.225   4.047   7.953
 6119POPC   C4B16918  11.288   4.023   7.653
 6120POPC   NC316919  32.210  39.226   9.453
 6120POPC   PO416920  32.224  39.271   9.153
 6120POPC   GL116921  32.237  39.220   8.853
 6120POPC   GL216922  32.175  39.194   8.853
 6120POPC   C1A16923  32.291  39.250   8.553
 6120POPC   D2A16924  32.228  39.212   8.253
 6120POPC   C3A16925  32.214  39.190   7.953
 6120POPC   C4A16926  32.270  39.206   7.653
 6120POPC   C1B16927  32.044  39.090   8.553
 6120POPC   C2B16928  32.017  39.047   8.253
 6120POPC   C3B16929  32.102  39.041   7.953
 6120POPC   C4B16930  32.014  39.042   7.653
 6121POPC   NC316931  44.686  15.997   9.453
 6121POPC   PO416932  44.652  15.908   9.153
 6121POPC   GL116933  44.639  15.926   8.853
 6121POPC   GL216934  44.691  16.110   8.853
 6121POPC   C1A16935  44.648  15.933   8.553
 6121POPC   D2A16936  44.624  15.956   8.253
 6121POPC   C3A16937  44.683  15.983   7.953
 6121POPC   C4A16938  44.674  15.945   7.653
 6121POPC   C1B16939  44.710  16.169   8.553
 6121POPC   C2B16940  44.679  16.207   8.253
 6121POPC   C3B16941  44.697  16.220   7.953
 6121POPC   C4B16942  44.742  16.240   7.653
 6122POPC   NC316943   1.229  26.784   9.453
 6122POPC   PO416944   1.212  26.786   9.153
 6122POPC   GL116945   1.174  26.839   8.853
 6122POPC   GL216946   1.218  26.686   8.853
 6122POPC   C1A16947   1.166  26.808   8.553
 6122POPC   D2A16948   1.193  26.788   8.253
 6122POPC   C3A16949   1.215  26.825   7.953
 6122POPC   C4A16950   1.209  26.847   7.653
 6122POPC   C1B16951   1.153  26.597   8.553
 6122POPC   C2B16952   1.232  26.586   8.253
 6122POPC   C3B16953   1.215  26.600   7.953
 6122POPC   C4B16954   1.154  26.595   7.653
 6123POPC   NC316955  44.668  43.103   9.453
 6123POPC   PO416956  44.674  43.118   9.153
 6123POPC   GL116957  44.676  43.099   8.853
 6123POPC   GL216958  44.639  43.021   8.853
 6123POPC   C1A16959  44.641  43.127   8.553
 6123POPC   D2A16960  44.640  43.132   8.253
 6123POPC   C3A16961  44.670  43.134   7.953
 6123POPC   C4A16962  44.620  43.153   7.653
 6123POPC   C1B16963  44.642  42.852   8.553
 6123POPC   C2B16964  44.682  42.820   8.253
 6123POPC   C3B16965  44.686  42.825   7.953
 6123POPC   C4B16966  44.694  42.864   7.653
 6124POPC   NC316967  25.261  29.102   9.453
 6124POPC   PO416968  25.257  29.175   9.153
 6124POPC   GL116969  25.250  29.194   8.853
 6124POPC   GL216970  25.319  29.233   8.853
 6124POPC   C1A16971  25.271  29.136   8.553
 6124POPC   D2A16972  25.239  29.169   8.253
 6124POPC   C3A16973  25.310  29.103   7.953
 6124POPC   C4A16974  25.243  29.178   7.653
 6124POPC   C1B16975  25.479  29.304   8.553
 6124POPC   C2B16976  25.433  29.323   8.253
 6124POPC   C3B16977  25.508  29.298   7.953
 6124POPC   C4B16978  25.456  29.309   7.653
 6125POPC   NC316979   1.227  31.478   9.453
 6125POPC   PO416980   1.257  31.485   9.153
 6125POPC   GL116981   1.261  31.520   8.853
 6125POPC   GL216982   1.364  31.402   8.853
 6125POPC   C1A16983   1.238  31.440   8.553
 6125POPC   D2A16984   1.246  31.473   8.253
 6125POPC   C3A16985   1.246  31.443   7.953
 6125POPC   C4A16986   1.172  31.485   7.653
 6125POPC   C1B16987   1.419  31.395   8.553
 6125POPC   C2B16988   1.493  31.351   8.253
 6125POPC   C3B16989   1.483  31.403   7.953
 6125POPC   C4B16990   1.486  31.392   7.653
 6126POPC   NC316991  13.635  15.907   9.453
 6126POPC   PO416992  13.670  15.993   9.153
 6126POPC   GL116993  13.617  15.976   8.853
 6126POPC   GL216994  13.620  16.083   8.853
 6126POPC   C1A16995  13.624  15.942   8.553
 6126POPC   D2A16996  13.640  15.987   8.253
 6126POPC   C3A16997  13.590  15.951   7.953
 6126POPC   C4A16998  13.642  15.946   7.653
 6126POPC   C1B16999  13.532  16.176   8.553
 6126POPC   C2B17000  13.607  16.218   8.253
 6126POPC   C3B17001  13.565  16.235   7.953
 6126POPC   C4B17002  13.567  16.243   7.653
 6127POPC   NC317003  43.123  38.496   9.453
 6127POPC   PO417004  43.079  38.443   9.153
 6127POPC   GL117005  43.123  38.461   8.853
 6127POPC   GL217006  43.056  38.366   8.853
 6127POPC   C1A17007  43.074  38.473   8.553
 6127POPC   D2A17008  43.132  38.478   8.253
 6127POPC   C3A17009  43.111  38.444   7.953
 6127POPC   C4A17010  43.149  38.421   7.653
 6127POPC   C1B17011  42.867  38.289   8.553
 6127POPC   C2B17012  42.935  38.275   8.253
 6127POPC   C3B17013  42.910  38.268   7.953
 6127POPC   C4B17014  42.931  38.273   7.653
 6128POPC   NC317015  29.140  15.990   9.453
 6128POPC   PO417016  29.104  15.965   9.153
 6128POPC   GL117017  29.131  15.921   8.853
 6128POPC   GL217018  29.234  15.956   8.853
 6128POPC   C1A17019  29.131  15.957   8.553
 6128POPC   D2A17020  29.112  15.939   8.253
 6128POPC   C3A17021  29.192  15.966   7.953
 6128POPC   C4A17022  29.166  15.995   7.653
 6128POPC   C1B17023  29.397  16.032   8.553
 6128POPC   C2B17024  29.409  16.055   8.253
 6128POPC   C3B17025  29.341  15.988   7.953
 6128POPC   C4B17026  29.339  16.035   7.653
 6129POPC   NC317027   6.673  24.472   9.453
 6129POPC   PO417028   6.637  24.537   9.153
 6129POPC   GL117029   6.681  24.471   8.853
 6129POPC   GL217030   6.493  24.575   8.853
 6129POPC   C1A17031   6.678  24.538   8.553
 6129POPC   D2A17032   6.603  24.520   8.253
 6129POPC   C3A17033   6.671  24.508   7.953
 6129POPC   C4A17034   6.599  24.458   7.653
 6129POPC   C1B17035   6.428  24.579   8.553
 6129POPC   C2B17036   6.412  24.646   8.253
 6129POPC   C3B17037   6.420  24.609   7.953
 6129POPC   C4B17038   6.474  24.589   7.653
 6130POPC   NC317039   2.777  26.010   9.453
 6130POPC   PO417040   2.732  26.064   9.153
 6130POPC   GL117041   2.741  25.997   8.853
 6130POPC   GL217042   2.902  26.039   8.853
 6130POPC   C1A17043   2.770  26.002   8.553
 6130POPC   D2A17044   2.747  26.021   8.253
 6130POPC   C3A17045   2.749  26.051   7.953
 6130POPC   C4A17046   2.756  26.020   7.653
 6130POPC   C1B17047   3.040  26.061   8.553
 6130POPC   C2B17048   2.972  26.053   8.253
 6130POPC   C3B17049   3.001  26.077   7.953
 6130POPC   C4B17050   3.014  26.001   7.653
 6131POPC   NC317051  30.656   0.406   9.453
 6131POPC   PO417052  30.713   0.479   9.153
 6131POPC   GL117053  30.740   0.429   8.853
 6131POPC   GL217054  30.786   0.421   8.853
 6131POPC   C1A17055  30.667   0.399   8.553
 6131POPC   D2A17056  30.657   0.428   8.253
 6131POPC   C3A17057  30.659   0.430   7.953
 6131POPC   C4A17058  30.712   0.417   7.653
 6131POPC   C1B17059  30.982   0.320   8.553
 6131POPC   C2B17060  30.963   0.392   8.253
 6131POPC   C3B17061  30.915   0.392   7.953
 6131POPC   C4B17062  30.982   0.322   7.653
 6132POPC   NC317063  44.694   3.548   9.453
 6132POPC   PO417064  44.703   3.571   9.153
 6132POPC   GL117065  44.709   3.576   8.853
 6132POPC   GL217066  44.498   3.489   8.853
 6132POPC   C1A17067  44.625   3.585   8.553
 6132POPC   D2A17068  44.709   3.529   8.253
 6132POPC   C3A17069  44.663   3.511   7.953
 6132POPC   C4A17070  44.687   3.521   7.653
 6132POPC   C1B17071  44.420   3.510   8.553
 6132POPC   C2B17072  44.416   3.415   8.253
 6132POPC   C3B17073  44.388   3.461   7.953
 6132POPC   C4B17074  44.389   3.445   7.653
 6133POPC   NC317075  33.821   6.630   9.453
 6133POPC   PO417076  33.774   6.663   9.153
 6133POPC   GL117077  33.788   6.648   8.853
 6133POPC   GL217078  33.772   6.792   8.853
 6133POPC   C1A17079  33.797   6.662   8.553
 6133POPC   D2A17080  33.801   6.661   8.253
 6133POPC   C3A17081  33.807   6.651   7.953
 6133POPC   C4A17082  33.789   6.607   7.653
 6133POPC   C1B17083  33.648   6.888   8.553
 6133POPC   C2B17084  33.673   6.824   8.253
 6133POPC   C3B17085  33.675   6.886   7.953
 6133POPC   C4B17086  33.717   6.828   7.653
 6134POPC   NC317087  36.138  24.513   9.453
 6134POPC   PO417088  36.145  24.477   9.153
 6134POPC   GL117089  36.155  24.535   8.853
 6134POPC   GL217090  36.220  24.608   8.853
 6134POPC   C1A17091  36.108  24.502   8.553
 6134POPC   D2A17092  36.102  24.441   8.253
 6134POPC   C3A17093  36.168  24.537   7.953
 6134POPC   C4A17094  36.088  24.520   7.653
 6134POPC   C1B17095  36.286  24.622   8.553
 6134POPC   C2B17096  36.288  24.656   8.253
 6134POPC   C3B17097  36.355  24.686   7.953
 6134POPC   C4B17098  36.326  24.687   7.653
 6135POPC   NC317099   5.049   0.416   9.453
 6135POPC   PO417100   5.044   0.440   9.153
 6135POPC   GL117101   5.091   0.464   8.853
 6135POPC   GL217102   5.169   0.441   8.853
 6135POPC   C1A17103   5.083   0.470   8.553
 6135POPC   D2A17104   5.060   0.413   8.253
 6135POPC   C3A17105   5.071   0.437   7.953
 6135POPC   C4A17106   5.092   0.449   7.653
 6135POPC   C1B17107   5.332   0.411   8.553
 6135POPC   C2B17108   5.313   0.440   8.253
 6135POPC   C3B17109   5.379   0.497   7.953
 6135POPC   C4B17110   5.311   0.498   7.653
 6136POPC   NC317111  40.019   2.755   9.453
 6136POPC   PO417112  39.962   2.789   9.153
 6136POPC   GL117113  39.993   2.721   8.853
 6136POPC   GL217114  40.120   2.709   8.853
 6136POPC   C1A17115  40.034   2.765   8.553
 6136POPC   D2A17116  39.980   2.782   8.253
 6136POPC   C3A17117  40.003   2.773   7.953
 6136POPC   C4A17118  39.965   2.760   7.653
 6136POPC   C1B17119  40.191   2.706   8.553
 6136POPC   C2B17120  40.237   2.629   8.253
 6136POPC   C3B17121  40.285   2.710   7.953
 6136POPC   C4B17122  40.200   2.719   7.653
 6137POPC   NC317123  14.372  25.295   9.453
 6137POPC   PO417124  14.361  25.237   9.153
 6137POPC   GL117125  14.421  25.242   8.853
 6137POPC   GL217126  14.399  25.158   8.853
 6137POPC   C1A17127  14.451  25.231   8.553
 6137POPC   D2A17128  14.414  25.256   8.253
 6137POPC   C3A17129  14.397  25.309   7.953
 6137POPC   C4A17130  14.375  25.283   7.653
 6137POPC   C1B17131  14.444  25.003   8.553
 6137POPC   C2B17132  14.484  25.000   8.253
 6137POPC   C3B17133  14.389  25.063   7.953
 6137POPC   C4B17134  14.430  24.977   7.653
 6138POPC   NC317135  13.625  31.446   9.453
 6138POPC   PO417136  13.656  31.514   9.153
 6138POPC   GL117137  13.588  31.424   8.853
 6138POPC   GL217138  13.680  31.375   8.853
 6138POPC   C1A17139  13.674  31.496   8.553
 6138POPC   D2A17140  13.597  31.496   8.253
 6138POPC   C3A17141  13.626  31.507   7.953
 6138POPC   C4A17142  13.595  31.445   7.653
 6138POPC   C1B17143  13.760  31.290   8.553
 6138POPC   C2B17144  13.705  31.239   8.253
 6138POPC   C3B17145  13.714  31.280   7.953
 6138POPC   C4B17146  13.760  31.268   7.653
 6139POPC   NC317147  41.533  13.658   9.453
 6139POPC   PO417148  41.512  13.621   9.153
 6139POPC   GL117149  41.529  13.668   8.853
 6139POPC   GL217150  41.680  13.729   8.853
 6139POPC   C1A17151  41.550  13.654   8.553
 6139POPC   D2A17152  41.526  13.649   8.253
 6139POPC   C3A17153  41.560  13.596   7.953
 6139POPC   C4A17154  41.575  13.668   7.653
 6139POPC   C1B17155  41.735  13.808   8.553
 6139POPC   C2B17156  41.732  13.802   8.253
 6139POPC   C3B17157  41.686  13.838   7.953
 6139POPC   C4B17158  41.707  13.779   7.653
 6140POPC   NC317159  12.091  12.110   9.453
 6140POPC   PO417160  12.125  12.098   9.153
 6140POPC   GL117161  12.040  12.108   8.853
 6140POPC   GL217162  12.187  12.153   8.853
 6140POPC   C1A17163  12.124  12.030   8.553
 6140POPC   D2A17164  12.026  12.071   8.253
 6140POPC   C3A17165  12.112  12.061   7.953
 6140POPC   C4A17166  12.081  12.050   7.653
 6140POPC   C1B17167  12.274  12.285   8.553
 6140POPC   C2B17168  12.278  12.269   8.253
 6140POPC   C3B17169  12.259  12.219   7.953
 6140POPC   C4B17170  12.285  12.239   7.653
 6141POPC   NC317171   7.448  37.659   9.453
 6141POPC   PO417172   7.403  37.659   9.153
 6141POPC   GL117173   7.452  37.664   8.853
 6141POPC   GL217174   7.407  37.607   8.853
 6141POPC   C1A17175   7.470  37.694   8.553
 6141POPC   D2A17176   7.389  37.707   8.253
 6141POPC   C3A17177   7.395  37.663   7.953
 6141POPC   C4A17178   7.436  37.655   7.653
 6141POPC   C1B17179   7.314  37.480   8.553
 6141POPC   C2B17180   7.374  37.397   8.253
 6141POPC   C3B17181   7.326  37.429   7.953
 6141POPC   C4B17182   7.365  37.478   7.653
 6142POPC   NC317183  14.377   8.186   9.453
 6142POPC   PO417184  14.392   8.206   9.153
 6142POPC   GL117185  14.405   8.209   8.853
 6142POPC   GL217186  14.404   8.334   8.853
 6142POPC   C1A17187  14.383   8.151   8.553
 6142POPC   D2A17188  14.428   8.167   8.253
 6142POPC   C3A17189  14.408   8.180   7.953
 6142POPC   C4A17190  14.451   8.175   7.653
 6142POPC   C1B17191  14.286   8.465   8.553
 6142POPC   C2B17192  14.359   8.478   8.253
 6142POPC   C3B17193  14.326   8.455   7.953
 6142POPC   C4B17194  14.371   8.417   7.653
 6143POPC   NC317195  16.727  36.905   9.453
 6143POPC   PO417196  16.750  36.936   9.153
 6143POPC   GL117197  16.694  36.947   8.853
 6143POPC   GL217198  16.590  36.876   8.853
 6143POPC   C1A17199  16.774  36.945   8.553
 6143POPC   D2A17200  16.689  36.945   8.253
 6143POPC   C3A17201  16.720  36.855   7.953
 6143POPC   C4A17202  16.744  36.934   7.653
 6143POPC   C1B17203  16.514  36.806   8.553
 6143POPC   C2B17204  16.511  36.878   8.253
 6143POPC   C3B17205  16.454  36.796   7.953
 6143POPC   C4B17206  16.469  36.794   7.653
 6144POPC   NC317207  31.505  25.259   9.453
 6144POPC   PO417208  31.503  25.299   9.153
 6144POPC   GL117209  31.468  25.247   8.853
 6144POPC   GL217210  31.542  25.240   8.853
 6144POPC   C1A17211  31.514  25.269   8.553
 6144POPC   D2A17212  31.512  25.289   8.253
 6144POPC   C3A17213  31.453  25.299   7.953
 6144POPC   C4A17214  31.479  25.248   7.653
 6144POPC   C1B17215  31.674  25.181   8.553
 6144POPC   C2B17216  31.750  25.142   8.253
 6144POPC   C3B17217  31.692  25.221   7.953
 6144POPC   C4B17218  31.754  25.156   7.653
 6145POPC   NC317219  41.556   7.404   9.453
 6145POPC   PO417220  41.580   7.379   9.153
 6145POPC   GL117221  41.555   7.433   8.853
 6145POPC   GL217222  41.571   7.580   8.853
 6145POPC   C1A17223  41.559   7.431   8.553
 6145POPC   D2A17224  41.534   7.463   8.253
 6145POPC   C3A17225  41.581   7.377   7.953
 6145POPC   C4A17226  41.546   7.389   7.653
 6145POPC   C1B17227  41.665   7.695   8.553
 6145POPC   C2B17228  41.601   7.618   8.253
 6145POPC   C3B17229  41.617   7.618   7.953
 6145POPC   C4B17230  41.633   7.616   7.653
 6146POPC   NC317231  40.054   8.188   9.453
 6146POPC   PO417232  40.000   8.158   9.153
 6146POPC   GL117233  39.970   8.207   8.853
 6146POPC   GL217234  40.117   8.227   8.853
 6146POPC   C1A17235  39.993   8.236   8.553
 6146POPC   D2A17236  40.000   8.239   8.253
 6146POPC   C3A17237  39.971   8.197   7.953
 6146POPC   C4A17238  40.029   8.226   7.653
 6146POPC   C1B17239  40.298   8.239   8.553
 6146POPC   C2B17240  40.263   8.262   8.253
 6146POPC   C3B17241  40.273   8.266   7.953
 6146POPC   C4B17242  40.275   8.195   7.653
 6147POPC   NC317243  19.060  18.299   9.453
 6147POPC   PO417244  19.015  18.324   9.153
 6147POPC   GL117245  19.095  18.263   8.853
 6147POPC   GL217246  19.039  18.170   8.853
 6147POPC   C1A17247  19.037  18.286   8.553
 6147POPC   D2A17248  19.082  18.317   8.253
 6147POPC   C3A17249  19.099  18.278   7.953
 6147POPC   C4A17250  19.062  18.237   7.653
 6147POPC   C1B17251  19.068  18.033   8.553
 6147POPC   C2B17252  18.995  18.072   8.253
 6147POPC   C3B17253  18.988  18.041   7.953
 6147POPC   C4B17254  18.985  18.057   7.653
 6148POPC   NC317255  35.329  37.706   9.453
 6148POPC   PO417256  35.339  37.661   9.153
 6148POPC   GL117257  35.379  37.700   8.853
 6148POPC   GL217258  35.272  37.578   8.853
 6148POPC   C1A17259  35.358  37.707   8.553
 6148POPC   D2A17260  35.392  37.631   8.253
 6148POPC   C3A17261  35.302  37.678   7.953
 6148POPC   C4A17262  35.377  37.634   7.653
 6148POPC   C1B17263  35.267  37.485   8.553
 6148POPC   C2B17264  35.227  37.409   8.253
 6148POPC   C3B17265  35.243  37.447   7.953
 6148POPC   C4B17266  35.239  37.482   7.653
 6149POPC   NC317267  36.079  36.174   9.453
 6149POPC   PO417268  36.173  36.111   9.153
 6149POPC   GL117269  36.111  36.098   8.853
 6149POPC   GL217270  36.209  36.042   8.853
 6149POPC   C1A17271  36.130  36.159   8.553
 6149POPC   D2A17272  36.136  36.140   8.253
 6149POPC   C3A17273  36.136  36.079   7.953
 6149POPC   C4A17274  36.078  36.105   7.653
 6149POPC   C1B17275  36.278  35.921   8.553
 6149POPC   C2B17276  36.304  35.994   8.253
 6149POPC   C3B17277  36.322  35.928   7.953
 6149POPC   C4B17278  36.302  35.995   7.653
 6150POPC   NC317279  19.021  38.491   9.453
 6150POPC   PO417280  19.029  38.471   9.153
 6150POPC   GL117281  19.054  38.503   8.853
 6150POPC   GL217282  19.052  38.306   8.853
 6150POPC   C1A17283  19.011  38.440   8.553
 6150POPC   D2A17284  19.049  38.498   8.253
 6150POPC   C3A17285  19.063  38.495   7.953
 6150POPC   C4A17286  19.037  38.458   7.653
 6150POPC   C1B17287  19.066  38.240   8.553
 6150POPC   C2B17288  19.022  38.238   8.253
 6150POPC   C3B17289  19.007  38.158   7.953
 6150POPC   C4B17290  19.034  38.184   7.653
 6151POPC   NC317291  40.035  14.378   9.453
 6151POPC   PO417292  40.036  14.393   9.153
 6151POPC   GL117293  39.964  14.371   8.853
 6151POPC   GL217294  39.889  14.481   8.853
 6151POPC   C1A17295  39.975  14.440   8.553
 6151POPC   D2A17296  39.980  14.420   8.253
 6151POPC   C3A17297  40.029  14.378   7.953
 6151POPC   C4A17298  39.968  14.408   7.653
 6151POPC   C1B17299  39.763  14.531   8.553
 6151POPC   C2B17300  39.752  14.473   8.253
 6151POPC   C3B17301  39.757  14.457   7.953
 6151POPC   C4B17302  39.767  14.480   7.653
 6152POPC   NC317303  43.897  35.308   9.453
 6152POPC   PO417304  43.911  35.305   9.153
 6152POPC   GL117305  43.899  35.303   8.853
 6152POPC   GL217306  43.835  35.505   8.853
 6152POPC   C1A17307  43.842  35.311   8.553
 6152POPC   D2A17308  43.878  35.367   8.253
 6152POPC   C3A17309  43.895  35.323   7.953
 6152POPC   C4A17310  43.878  35.360   7.653
 6152POPC   C1B17311  43.856  35.580   8.553
 6152POPC   C2B17312  43.788  35.630   8.253
 6152POPC   C3B17313  43.818  35.593   7.953
 6152POPC   C4B17314  43.860  35.569   7.653
 6153POPC   NC317315  41.535   4.336   9.453
 6153POPC   PO417316  41.511   4.273   9.153
 6153POPC   GL117317  41.578   4.294   8.853
 6153POPC   GL217318  41.604   4.452   8.853
 6153POPC   C1A17319  41.602   4.341   8.553
 6153POPC   D2A17320  41.583   4.292   8.253
 6153POPC   C3A17321  41.589   4.296   7.953
 6153POPC   C4A17322  41.555   4.292   7.653
 6153POPC   C1B17323  41.703   4.486   8.553
 6153POPC   C2B17324  41.729   4.446   8.253
 6153POPC   C3B17325  41.756   4.494   7.953
 6153POPC   C4B17326  41.760   4.527   7.653
 6154POPC   NC317327  35.356  31.487   9.453
 6154POPC   PO417328  35.352  31.468   9.153
 6154POPC   GL117329  35.362  31.427   8.853
 6154POPC   GL217330  35.362  31.620   8.853
 6154POPC   C1A17331  35.333  31.506   8.553
 6154POPC   D2A17332  35.393  31.474   8.253
 6154POPC   C3A17333  35.402  31.452   7.953
 6154POPC   C4A17334  35.311  31.485   7.653
 6154POPC   C1B17335  35.284  31.754   8.553
 6154POPC   C2B17336  35.308  31.692   8.253
 6154POPC   C3B17337  35.313  31.729   7.953
 6154POPC   C4B17338  35.367  31.729   7.653
 6155POPC   NC317339  17.473  32.217   9.453
 6155POPC   PO417340  17.494  32.264   9.153
 6155POPC   GL117341  17.545  32.208   8.853
 6155POPC   GL217342  17.600  32.245   8.853
 6155POPC   C1A17343  17.511  32.203   8.553
 6155POPC   D2A17344  17.469  32.259   8.253
 6155POPC   C3A17345  17.537  32.219   7.953
 6155POPC   C4A17346  17.494  32.291   7.653
 6155POPC   C1B17347  17.727  32.109   8.553
 6155POPC   C2B17348  17.691  32.124   8.253
 6155POPC   C3B17349  17.741  32.179   7.953
 6155POPC   C4B17350  17.753  32.169   7.653
 6156POPC   NC317351  26.785  19.022   9.453
 6156POPC   PO417352  26.801  19.009   9.153
 6156POPC   GL117353  26.835  19.047   8.853
 6156POPC   GL217354  26.912  19.197   8.853
 6156POPC   C1A17355  26.867  19.076   8.553
 6156POPC   D2A17356  26.769  19.070   8.253
 6156POPC   C3A17357  26.861  19.087   7.953
 6156POPC   C4A17358  26.834  19.034   7.653
 6156POPC   C1B17359  26.931  19.210   8.553
 6156POPC   C2B17360  26.936  19.271   8.253
 6156POPC   C3B17361  27.003  19.287   7.953
 6156POPC   C4B17362  26.982  19.284   7.653
 6157POPC   NC317363  36.900  35.341   9.453
 6157POPC   PO417364  36.854  35.382   9.153
 6157POPC   GL117365  36.858  35.353   8.853
 6157POPC   GL217366  36.790  35.330   8.853
 6157POPC   C1A17367  36.914  35.349   8.553
 6157POPC   D2A17368  36.864  35.341   8.253
 6157POPC   C3A17369  36.940  35.318   7.953
 6157POPC   C4A17370  36.864  35.356   7.653
 6157POPC   C1B17371  36.643  35.260   8.553
 6157POPC   C2B17372  36.636  35.199   8.253
 6157POPC   C3B17373  36.705  35.265   7.953
 6157POPC   C4B17374  36.703  35.260   7.653
 6158POPC   NC317375  36.142  30.670   9.453
 6158POPC   PO417376  36.143  30.648   9.153
 6158POPC   GL117377  36.169  30.720   8.853
 6158POPC   GL217378  36.238  30.676   8.853
 6158POPC   C1A17379  36.095  30.708   8.553
 6158POPC   D2A17380  36.090  30.723   8.253
 6158POPC   C3A17381  36.129  30.737   7.953
 6158POPC   C4A17382  36.170  30.652   7.653
 6158POPC   C1B17383  36.334  30.633   8.553
 6158POPC   C2B17384  36.388  30.586   8.253
 6158POPC   C3B17385  36.374  30.638   7.953
 6158POPC   C4B17386  36.341  30.620   7.653
 6159POPC   NC317387  33.783  33.832   9.453
 6159POPC   PO417388  33.841  33.780   9.153
 6159POPC   GL117389  33.832  33.812   8.853
 6159POPC   GL217390  33.823  33.931   8.853
 6159POPC   C1A17391  33.762  33.847   8.553
 6159POPC   D2A17392  33.753  33.820   8.253
 6159POPC   C3A17393  33.796  33.809   7.953
 6159POPC   C4A17394  33.835  33.810   7.653
 6159POPC   C1B17395  33.860  34.084   8.553
 6159POPC   C2B17396  33.823  34.072   8.253
 6159POPC   C3B17397  33.822  34.072   7.953
 6159POPC   C4B17398  33.860  34.004   7.653
 6160POPC   NC317399  15.923  33.073   9.453
 6160POPC   PO417400  15.952  33.008   9.153
 6160POPC   GL117401  15.981  32.983   8.853
 6160POPC   GL217402  16.036  33.095   8.853
 6160POPC   C1A17403  15.985  33.030   8.553
 6160POPC   D2A17404  15.951  33.056   8.253
 6160POPC   C3A17405  15.975  33.051   7.953
 6160POPC   C4A17406  15.993  33.024   7.653
 6160POPC   C1B17407  16.209  33.084   8.553
 6160POPC   C2B17408  16.158  33.115   8.253
 6160POPC   C3B17409  16.186  33.071   7.953
 6160POPC   C4B17410  16.243  33.094   7.653
 6161POPC   NC317411  41.592   0.458   9.453
 6161POPC   PO417412  41.534   0.423   9.153
 6161POPC   GL117413  41.540   0.434   8.853
 6161POPC   GL217414  41.395   0.368   8.853
 6161POPC   C1A17415  41.582   0.405   8.553
 6161POPC   D2A17416  41.516   0.456   8.253
 6161POPC   C3A17417  41.607   0.390   7.953
 6161POPC   C4A17418  41.535   0.390   7.653
 6161POPC   C1B17419  41.310   0.328   8.553
 6161POPC   C2B17420  41.372   0.388   8.253
 6161POPC   C3B17421  41.356   0.355   7.953
 6161POPC   C4B17422  41.371   0.324   7.653
 6162POPC   NC317423  33.836  32.986   9.453
 6162POPC   PO417424  33.793  33.015   9.153
 6162POPC   GL117425  33.782  32.976   8.853
 6162POPC   GL217426  33.947  33.047   8.853
 6162POPC   C1A17427  33.766  33.006   8.553
 6162POPC   D2A17428  33.783  33.046   8.253
 6162POPC   C3A17429  33.813  33.010   7.953
 6162POPC   C4A17430  33.770  33.072   7.653
 6162POPC   C1B17431  34.055  33.202   8.553
 6162POPC   C2B17432  33.992  33.149   8.253
 6162POPC   C3B17433  34.051  33.160   7.953
 6162POPC   C4B17434  34.035  33.171   7.653
 6163POPC   NC317435  16.745  20.645   9.453
 6163POPC   PO417436  16.705  20.587   9.153
 6163POPC   GL117437  16.741  20.660   8.853
 6163POPC   GL217438  16.820  20.508   8.853
 6163POPC   C1A17439  16.691  20.566   8.553
 6163POPC   D2A17440  16.710  20.620   8.253
 6163POPC   C3A17441  16.705  20.632   7.953
 6163POPC   C4A17442  16.751  20.609   7.653
 6163POPC   C1B17443  16.908  20.368   8.553
 6163POPC   C2B17444  16.859  20.372   8.253
 6163POPC   C3B17445  16.854  20.434   7.953
 6163POPC   C4B17446  16.834  20.451   7.653
 6164POPC   NC317447   8.975  11.322   9.453
 6164POPC   PO417448   8.946  11.270   9.153
 6164POPC   GL117449   9.006  11.260   8.853
 6164POPC   GL217450   9.101  11.414   8.853
 6164POPC   C1A17451   8.996  11.344   8.553
 6164POPC   D2A17452   8.997  11.280   8.253
 6164POPC   C3A17453   8.952  11.253   7.953
 6164POPC   C4A17454   8.990  11.250   7.653
 6164POPC   C1B17455   9.149  11.454   8.553
 6164POPC   C2B17456   9.146  11.470   8.253
 6164POPC   C3B17457   9.132  11.426   7.953
 6164POPC   C4B17458   9.167  11.500   7.653
 6165POPC   NC317459   6.598  15.976   9.453
 6165POPC   PO417460   6.672  15.926   9.153
 6165POPC   GL117461   6.628  15.979   8.853
 6165POPC   GL217462   6.517  16.008   8.853
 6165POPC   C1A17463   6.656  15.964   8.553
 6165POPC   D2A17464   6.685  15.935   8.253
 6165POPC   C3A17465   6.656  15.971   7.953
 6165POPC   C4A17466   6.676  16.000   7.653
 6165POPC   C1B17467   6.431  15.976   8.553
 6165POPC   C2B17468   6.351  15.999   8.253
 6165POPC   C3B17469   6.425  15.991   7.953
 6165POPC   C4B17470   6.378  15.949   7.653
 6166POPC   NC317471  27.643  19.040   9.453
 6166POPC   PO417472  27.629  19.026   9.153
 6166POPC   GL117473  27.641  19.043   8.853
 6166POPC   GL217474  27.670  19.122   8.853
 6166POPC   C1A17475  27.631  19.023   8.553
 6166POPC   D2A17476  27.641  19.026   8.253
 6166POPC   C3A17477  27.634  19.019   7.953
 6166POPC   C4A17478  27.567  19.072   7.653
 6166POPC   C1B17479  27.751  19.227   8.553
 6166POPC   C2B17480  27.712  19.264   8.253
 6166POPC   C3B17481  27.753  19.242   7.953
 6166POPC   C4B17482  27.766  19.287   7.653
 6167POPC   NC317483   0.408  37.662   9.453
 6167POPC   PO417484   0.437  37.700   9.153
 6167POPC   GL117485   0.410  37.635   8.853
 6167POPC   GL217486   0.473  37.795   8.853
 6167POPC   C1A17487   0.421  37.702   8.553
 6167POPC   D2A17488   0.485  37.715   8.253
 6167POPC   C3A17489   0.481  37.650   7.953
 6167POPC   C4A17490   0.464  37.674   7.653
 6167POPC   C1B17491   0.516  37.920   8.553
 6167POPC   C2B17492   0.520  37.954   8.253
 6167POPC   C3B17493   0.554  37.933   7.953
 6167POPC   C4B17494   0.532  37.865   7.653
 6168POPC   NC317495  24.458  21.350   9.453
 6168POPC   PO417496  24.459  21.430   9.153
 6168POPC   GL117497  24.477  21.367   8.853
 6168POPC   GL217498  24.409  21.462   8.853
 6168POPC   C1A17499  24.530  21.398   8.553
 6168POPC   D2A17500  24.453  21.368   8.253
 6168POPC   C3A17501  24.524  21.432   7.953
 6168POPC   C4A17502  24.503  21.404   7.653
 6168POPC   C1B17503  24.300  21.512   8.553
 6168POPC   C2B17504  24.308  21.490   8.253
 6168POPC   C3B17505  24.307  21.521   7.953
 6168POPC   C4B17506  24.243  21.511   7.653
 6169POPC   NC317507  19.046  15.195   9.453
 6169POPC   PO417508  19.074  15.202   9.153
 6169POPC   GL117509  19.014  15.152   8.853
 6169POPC   GL217510  19.227  15.187   8.853
 6169POPC   C1A17511  19.105  15.140   8.553
 6169POPC   D2A17512  19.083  15.183   8.253
 6169POPC   C3A17513  19.100  15.179   7.953
 6169POPC   C4A17514  19.103  15.147   7.653
 6169POPC   C1B17515  19.341  15.238   8.553
 6169POPC   C2B17516  19.322  15.184   8.253
 6169POPC   C3B17517  19.340  15.269   7.953
 6169POPC   C4B17518  19.280  15.229   7.653
 6170POPC   NC317519  36.098   8.951   9.453
 6170POPC   PO417520  36.092   9.012   9.153
 6170POPC   GL117521  36.176   8.929   8.853
 6170POPC   GL217522  36.044   8.902   8.853
 6170POPC   C1A17523  36.121   9.004   8.553
 6170POPC   D2A17524  36.083   8.973   8.253
 6170POPC   C3A17525  36.147   9.009   7.953
 6170POPC   C4A17526  36.130   8.975   7.653
 6170POPC   C1B17527  35.969   8.772   8.553
 6170POPC   C2B17528  36.019   8.718   8.253
 6170POPC   C3B17529  36.043   8.804   7.953
 6170POPC   C4B17530  36.029   8.719   7.653
 6171POPC   NC317531  26.076  41.542   9.453
 6171POPC   PO417532  25.999  41.598   9.153
 6171POPC   GL117533  26.084  41.556   8.853
 6171POPC   GL217534  26.145  41.680   8.853
 6171POPC   C1A17535  26.090  41.519   8.553
 6171POPC   D2A17536  26.058  41.600   8.253
 6171POPC   C3A17537  26.005  41.576   7.953
 6171POPC   C4A17538  26.014  41.513   7.653
 6171POPC   C1B17539  26.225  41.735   8.553
 6171POPC   C2B17540  26.149  41.709   8.253
 6171POPC   C3B17541  26.208  41.764   7.953
 6171POPC   C4B17542  26.227  41.721   7.653
 6172POPC   NC317543   1.165  36.868   9.453
 6172POPC   PO417544   1.205  36.924   9.153
 6172POPC   GL117545   1.182  36.940   8.853
 6172POPC   GL217546   1.220  36.747   8.853
 6172POPC   C1A17547   1.249  36.921   8.553
 6172POPC   D2A17548   1.240  36.873   8.253
 6172POPC   C3A17549   1.175  36.902   7.953
 6172POPC   C4A17550   1.234  36.924   7.653
 6172POPC   C1B17551   1.239  36.663   8.553
 6172POPC   C2B17552   1.257  36.604   8.253
 6172POPC   C3B17553   1.261  36.699   7.953
 6172POPC   C4B17554   1.268  36.659   7.653
 6173POPC   NC317555  33.829  15.926   9.453
 6173POPC   PO417556  33.812  15.984   9.153
 6173POPC   GL117557  33.815  15.951   8.853
 6173POPC   GL217558  33.697  15.901   8.853
 6173POPC   C1A17559  33.752  15.941   8.553
 6173POPC   D2A17560  33.841  15.925   8.253
 6173POPC   C3A17561  33.771  16.003   7.953
 6173POPC   C4A17562  33.844  15.924   7.653
 6173POPC   C1B17563  33.626  15.724   8.553
 6173POPC   C2B17564  33.611  15.817   8.253
 6173POPC   C3B17565  33.594  15.816   7.953
 6173POPC   C4B17566  33.656  15.774   7.653
 6174POPC   NC317567   1.976  32.994   9.453
 6174POPC   PO417568   1.992  32.975   9.153
 6174POPC   GL117569   2.007  32.978   8.853
 6174POPC   GL217570   2.085  32.934   8.853
 6174POPC   C1A17571   1.957  33.068   8.553
 6174POPC   D2A17572   1.947  33.021   8.253
 6174POPC   C3A17573   1.970  33.051   7.953
 6174POPC   C4A17574   2.009  33.072   7.653
 6174POPC   C1B17575   2.147  32.810   8.553
 6174POPC   C2B17576   2.080  32.829   8.253
 6174POPC   C3B17577   2.156  32.808   7.953
 6174POPC   C4B17578   2.085  32.831   7.653
 6175POPC   NC317579  44.636  37.663   9.453
 6175POPC   PO417580  44.668  37.718   9.153
 6175POPC   GL117581  44.624  37.724   8.853
 6175POPC   GL217582  44.687  37.755   8.853
 6175POPC   C1A17583  44.617  37.630   8.553
 6175POPC   D2A17584  44.703  37.682   8.253
 6175POPC   C3A17585  44.643  37.709   7.953
 6175POPC   C4A17586  44.625  37.700   7.653
 6175POPC   C1B17587  44.634  37.950   8.553
 6175POPC   C2B17588  44.577  37.928   8.253
 6175POPC   C3B17589  44.600  37.890   7.953
 6175POPC   C4B17590  44.637  37.918   7.653
 6176POPC   NC317591  25.289   8.162   9.453
 6176POPC   PO417592  25.267   8.171   9.153
 6176POPC   GL117593  25.239   8.176   8.853
 6176POPC   GL217594  25.354   8.221   8.853
 6176POPC   C1A17595  25.266   8.160   8.553
 6176POPC   D2A17596  25.251   8.164   8.253
 6176POPC   C3A17597  25.249   8.155   7.953
 6176POPC   C4A17598  25.276   8.223   7.653
 6176POPC   C1B17599  25.520   8.265   8.553
 6176POPC   C2B17600  25.482   8.250   8.253
 6176POPC   C3B17601  25.506   8.201   7.953
 6176POPC   C4B17602  25.520   8.208   7.653
 6177POPC   NC317603  23.713  19.073   9.453
 6177POPC   PO417604  23.700  19.065   9.153
 6177POPC   GL117605  23.748  19.082   8.853
 6177POPC   GL217606  23.632  19.081   8.853
 6177POPC   C1A17607  23.740  19.018   8.553
 6177POPC   D2A17608  23.693  19.086   8.253
 6177POPC   C3A17609  23.732  19.057   7.953
 6177POPC   C4A17610  23.740  19.108   7.653
 6177POPC   C1B17611  23.469  19.126   8.553
 6177POPC   C2B17612  23.425  19.083   8.253
 6177POPC   C3B17613  23.466  19.068   7.953
 6177POPC   C4B17614  23.443  19.081   7.653
 6178POPC   NC317615   0.411  20.603   9.453
 6178POPC   PO417616   0.410  20.613   9.153
 6178POPC   GL117617   0.481  20.590   8.853
 6178POPC   GL217618   0.579  20.518   8.853
 6178POPC   C1A17619   0.484  20.610   8.553
 6178POPC   D2A17620   0.391  20.628   8.253
 6178POPC   C3A17621   0.475  20.607   7.953
 6178POPC   C4A17622   0.417  20.577   7.653
 6178POPC   C1B17623   0.595  20.450   8.553
 6178POPC   C2B17624   0.603  20.501   8.253
 6178POPC   C3B17625   0.678  20.429   7.953
 6178POPC   C4B17626   0.650  20.500   7.653
 6179POPC   NC317627  43.853  41.537   9.453
 6179POPC   PO417628  43.878  41.590   9.153
 6179POPC   GL117629  43.846  41.581   8.853
 6179POPC   GL217630  43.784  41.586   8.853
 6179POPC   C1A17631  43.881  41.533   8.553
 6179POPC   D2A17632  43.849  41.564   8.253
 6179POPC   C3A17633  43.856  41.539   7.953
 6179POPC   C4A17634  43.854  41.596   7.653
 6179POPC   C1B17635  43.682  41.558   8.553
 6179POPC   C2B17636  43.658  41.581   8.253
 6179POPC   C3B17637  43.665  41.590   7.953
 6179POPC   C4B17638  43.596  41.560   7.653
 6180POPC   NC317639  43.154   5.853   9.453
 6180POPC   PO417640  43.137   5.908   9.153
 6180POPC   GL117641  43.139   5.916   8.853
 6180POPC   GL217642  42.998   5.801   8.853
 6180POPC   C1A17643  43.123   5.888   8.553
 6180POPC   D2A17644  43.138   5.851   8.253
 6180POPC   C3A17645  43.109   5.870   7.953
 6180POPC   C4A17646  43.064   5.844   7.653
 6180POPC   C1B17647  42.930   5.764   8.553
 6180POPC   C2B17648  42.949   5.682   8.253
 6180POPC   C3B17649  42.856   5.715   7.953
 6180POPC   C4B17650  42.950   5.751   7.653
 6181POPC   NC317651  17.478  22.136   9.453
 6181POPC   PO417652  17.468  22.164   9.153
 6181POPC   GL117653  17.527  22.192   8.853
 6181POPC   GL217654  17.373  22.153   8.853
 6181POPC   C1A17655  17.535  22.152   8.553
 6181POPC   D2A17656  17.523  22.124   8.253
 6181POPC   C3A17657  17.528  22.179   7.953
 6181POPC   C4A17658  17.484  22.146   7.653
 6181POPC   C1B17659  17.231  22.233   8.553
 6181POPC   C2B17660  17.242  22.254   8.253
 6181POPC   C3B17661  17.256  22.203   7.953
 6181POPC   C4B17662  17.254  22.223   7.653
 6182POPC   NC317663  43.919  20.576   9.453
 6182POPC   PO417664  43.919  20.619   9.153
 6182POPC   GL117665  43.873  20.570   8.853
 6182POPC   GL217666  43.973  20.467   8.853
 6182POPC   C1A17667  43.853  20.646   8.553
 6182POPC   D2A17668  43.866  20.581   8.253
 6182POPC   C3A17669  43.925  20.574   7.953
 6182POPC   C4A17670  43.907  20.596   7.653
 6182POPC   C1B17671  44.002  20.379   8.553
 6182POPC   C2B17672  44.050  20.443   8.253
 6182POPC   C3B17673  44.062  20.387   7.953
 6182POPC   C4B17674  44.073  20.422   7.653
 6183POPC   NC317675  19.026  12.061   9.453
 6183POPC   PO417676  19.048  12.094   9.153
 6183POPC   GL117677  19.024  12.116   8.853
 6183POPC   GL217678  19.129  11.955   8.853
 6183POPC   C1A17679  19.088  12.083   8.553
 6183POPC   D2A17680  19.056  12.083   8.253
 6183POPC   C3A17681  19.071  12.105   7.953
 6183POPC   C4A17682  19.041  12.069   7.653
 6183POPC   C1B17683  19.219  11.885   8.553
 6183POPC   C2B17684  19.201  11.889   8.253
 6183POPC   C3B17685  19.238  11.877   7.953
 6183POPC   C4B17686  19.186  11.887   7.653
 6184POPC   NC317687  33.818   7.456   9.453
 6184POPC   PO417688  33.810   7.378   9.153
 6184POPC   GL117689  33.751   7.379   8.853
 6184POPC   GL217690  33.876   7.430   8.853
 6184POPC   C1A17691  33.785   7.372   8.553
 6184POPC   D2A17692  33.822   7.443   8.253
 6184POPC   C3A17693  33.776   7.437   7.953
 6184POPC   C4A17694  33.824   7.411   7.653
 6184POPC   C1B17695  34.063   7.438   8.553
 6184POPC   C2B17696  34.070   7.453   8.253
 6184POPC   C3B17697  34.050   7.480   7.953
 6184POPC   C4B17698  34.091   7.507   7.653
 6185POPC   NC317699  36.108  13.637   9.453
 6185POPC   PO417700  36.079  13.592   9.153
 6185POPC   GL117701  36.119  13.624   8.853
 6185POPC   GL217702  36.175  13.547   8.853
 6185POPC   C1A17703  36.166  13.616   8.553
 6185POPC   D2A17704  36.115  13.604   8.253
 6185POPC   C3A17705  36.112  13.641   7.953
 6185POPC   C4A17706  36.126  13.662   7.653
 6185POPC   C1B17707  36.157  13.340   8.553
 6185POPC   C2B17708  36.176  13.350   8.253
 6185POPC   C3B17709  36.147  13.360   7.953
 6185POPC   C4B17710  36.142  13.357   7.653
 6186POPC   NC317711  44.666  39.248   9.453
 6186POPC   PO417712  44.659  39.249   9.153
 6186POPC   GL117713  44.704  39.195   8.853
 6186POPC   GL217714  44.527  39.245   8.853
 6186POPC   C1A17715  44.615  39.200   8.553
 6186POPC   D2A17716  44.670  39.271   8.253
 6186POPC   C3A17717  44.704  39.263   7.953
 6186POPC   C4A17718  44.626  39.244   7.653
 6186POPC   C1B17719  44.457  39.274   8.553
 6186POPC   C2B17720  44.458  39.285   8.253
 6186POPC   C3B17721  44.422  39.260   7.953
 6186POPC   C4B17722  44.391  39.289   7.653
 6187POPC   NC317723  37.682  10.480   9.453
 6187POPC   PO417724  37.662  10.573   9.153
 6187POPC   GL117725  37.646  10.539   8.853
 6187POPC   GL217726  37.647  10.624   8.853
 6187POPC   C1A17727  37.700  10.557   8.553
 6187POPC   D2A17728  37.664  10.543   8.253
 6187POPC   C3A17729  37.700  10.488   7.953
 6187POPC   C4A17730  37.667  10.553   7.653
 6187POPC   C1B17731  37.540  10.713   8.553
 6187POPC   C2B17732  37.564  10.747   8.253
 6187POPC   C3B17733  37.602  10.729   7.953
 6187POPC   C4B17734  37.537  10.710   7.653
 6188POPC   NC317735   5.087  30.727   9.453
 6188POPC   PO417736   5.130  30.727   9.153
 6188POPC   GL117737   5.056  30.722   8.853
 6188POPC   GL217738   5.204  30.701   8.853
 6188POPC   C1A17739   5.056  30.680   8.553
 6188POPC   D2A17740   5.050  30.671   8.253
 6188POPC   C3A17741   5.090  30.691   7.953
 6188POPC   C4A17742   5.100  30.730   7.653
 6188POPC   C1B17743   5.390  30.697   8.553
 6188POPC   C2B17744   5.365  30.762   8.253
 6188POPC   C3B17745   5.312  30.716   7.953
 6188POPC   C4B17746   5.293  30.757   7.653
 6189POPC   NC317747  31.448   2.734   9.453
 6189POPC   PO417748  31.485   2.792   9.153
 6189POPC   GL117749  31.446   2.806   8.853
 6189POPC   GL217750  31.509   2.666   8.853
 6189POPC   C1A17751  31.436   2.781   8.553
 6189POPC   D2A17752  31.479   2.776   8.253
 6189POPC   C3A17753  31.489   2.814   7.953
 6189POPC   C4A17754  31.450   2.803   7.653
 6189POPC   C1B17755  31.517   2.500   8.553
 6189POPC   C2B17756  31.547   2.519   8.253
 6189POPC   C3B17757  31.508   2.532   7.953
 6189POPC   C4B17758  31.577   2.490   7.653
 6190POPC   NC317759   5.859   1.169   9.453
 6190POPC   PO417760   5.877   1.247   9.153
 6190POPC   GL117761   5.893   1.229   8.853
 6190POPC   GL217762   6.004   1.339   8.853
 6190POPC   C1A17763   5.832   1.174   8.553
 6190POPC   D2A17764   5.905   1.203   8.253
 6190POPC   C3A17765   5.911   1.223   7.953
 6190POPC   C4A17766   5.885   1.226   7.653
 6190POPC   C1B17767   6.015   1.419   8.553
 6190POPC   C2B17768   6.096   1.361   8.253
 6190POPC   C3B17769   6.004   1.407   7.953
 6190POPC   C4B17770   6.023   1.420   7.653
 6191POPC   NC317771  13.588   2.039   9.453
 6191POPC   PO417772  13.645   1.967   9.153
 6191POPC   GL117773  13.632   2.005   8.853
 6191POPC   GL217774  13.687   2.025   8.853
 6191POPC   C1A17775  13.656   1.958   8.553
 6191POPC   D2A17776  13.646   2.010   8.253
 6191POPC   C3A17777  13.664   2.017   7.953
 6191POPC   C4A17778  13.626   1.968   7.653
 6191POPC   C1B17779  13.808   2.194   8.553
 6191POPC   C2B17780  13.808   2.117   8.253
 6191POPC   C3B17781  13.825   2.160   7.953
 6191POPC   C4B17782  13.828   2.186   7.653
 6192POPC   NC317783  31.515  30.696   9.453
 6192POPC   PO417784  31.471  30.727   9.153
 6192POPC   GL117785  31.474  30.683   8.853
 6192POPC   GL217786  31.573  30.799   8.853
 6192POPC   C1A17787  31.471  30.728   8.553
 6192POPC   D2A17788  31.510  30.685   8.253
 6192POPC   C3A17789  31.482  30.727   7.953
 6192POPC   C4A17790  31.447  30.742   7.653
 6192POPC   C1B17791  31.651  30.871   8.553
 6192POPC   C2B17792  31.702  30.812   8.253
 6192POPC   C3B17793  31.675  30.782   7.953
 6192POPC   C4B17794  31.735  30.840   7.653
 6193POPC   NC317795  41.548  23.676   9.453
 6193POPC   PO417796  41.568  23.762   9.153
 6193POPC   GL117797  41.570  23.707   8.853
 6193POPC   GL217798  41.609  23.810   8.853
 6193POPC   C1A17799  41.583  23.667   8.553
 6193POPC   D2A17800  41.584  23.711   8.253
 6193POPC   C3A17801  41.516  23.750   7.953
 6193POPC   C4A17802  41.510  23.687   7.653
 6193POPC   C1B17803  41.668  23.996   8.553
 6193POPC   C2B17804  41.614  23.918   8.253
 6193POPC   C3B17805  41.643  23.906   7.953
 6193POPC   C4B17806  41.671  23.993   7.653
 6194POPC   NC317807  14.375  33.061   9.453
 6194POPC   PO417808  14.433  32.994   9.153
 6194POPC   GL117809  14.391  33.049   8.853
 6194POPC   GL217810  14.310  32.995   8.853
 6194POPC   C1A17811  14.448  33.015   8.553
 6194POPC   D2A17812  14.416  33.000   8.253
 6194POPC   C3A17813  14.434  32.986   7.953
 6194POPC   C4A17814  14.425  33.016   7.653
 6194POPC   C1B17815  14.157  32.888   8.553
 6194POPC   C2B17816  14.160  32.937   8.253
 6194POPC   C3B17817  14.235  32.920   7.953
 6194POPC   C4B17818  14.189  32.929   7.653
 6195POPC   NC317819   5.913  11.260   9.453
 6195POPC   PO417820   5.875  11.263   9.153
 6195POPC   GL117821   5.894  11.312   8.853
 6195POPC   GL217822   5.950  11.249   8.853
 6195POPC   C1A17823   5.851  11.269   8.553
 6195POPC   D2A17824   5.856  11.251   8.253
 6195POPC   C3A17825   5.830  11.274   7.953
 6195POPC   C4A17826   5.827  11.320   7.653
 6195POPC   C1B17827   6.063  11.217   8.553
 6195POPC   C2B17828   6.132  11.256   8.253
 6195POPC   C3B17829   6.095  11.261   7.953
 6195POPC   C4B17830   6.136  11.201   7.653
 6196POPC   NC317831  33.791  36.119   9.453
 6196POPC   PO417832  33.763  36.147   9.153
 6196POPC   GL117833  33.828  36.177   8.853
 6196POPC   GL217834  33.952  36.220   8.853
 6196POPC   C1A17835  33.817  36.165   8.553
 6196POPC   D2A17836  33.823  36.171   8.253
 6196POPC   C3A17837  33.845  36.080   7.953
 6196POPC   C4A17838  33.783  36.129   7.653
 6196POPC   C1B17839  34.000  36.256   8.553
 6196POPC   C2B17840  34.006  36.197   8.253
 6196POPC   C3B17841  34.026  36.197   7.953
 6196POPC   C4B17842  34.017  36.226   7.653
 6197POPC   NC317843  22.966  23.751   9.453
 6197POPC   PO417844  22.979  23.694   9.153
 6197POPC   GL117845  22.938  23.747   8.853
 6197POPC   GL217846  22.802  23.670   8.853
 6197POPC   C1A17847  22.975  23.671   8.553
 6197POPC   D2A17848  22.903  23.727   8.253
 6197POPC   C3A17849  22.916  23.759   7.953
 6197POPC   C4A17850  22.941  23.703   7.653
 6197POPC   C1B17851  22.726  23.628   8.553
 6197POPC   C2B17852  22.673  23.572   8.253
 6197POPC   C3B17853  22.745  23.623   7.953
 6197POPC   C4B17854  22.698  23.544   7.653
 6198POPC   NC317855   1.217  28.372   9.453
 6198POPC   PO417856   1.254  28.365   9.153
 6198POPC   GL117857   1.258  28.360   8.853
 6198POPC   GL217858   1.063  28.339   8.853
 6198POPC   C1A17859   1.189  28.365   8.553
 6198POPC   D2A17860   1.224  28.341   8.253
 6198POPC   C3A17861   1.235  28.342   7.953
 6198POPC   C4A17862   1.182  28.371   7.653
 6198POPC   C1B17863   0.965  28.294   8.553
 6198POPC   C2B17864   0.962  28.307   8.253
 6198POPC   C3B17865   0.944  28.257   7.953
 6198POPC   C4B17866   0.946  28.332   7.653
 6199POPC   NC317867   4.315  43.929   9.453
 6199POPC   PO417868   4.362  43.919   9.153
 6199POPC   GL117869   4.356  43.899   8.853
 6199POPC   GL217870   4.401  43.863   8.853
 6199POPC   C1A17871   4.279  43.871   8.553
 6199POPC   D2A17872   4.271  43.921   8.253
 6199POPC   C3A17873   4.349  43.890   7.953
 6199POPC   C4A17874   4.320  43.919   7.653
 6199POPC   C1B17875   4.546  43.884   8.553
 6199POPC   C2B17876   4.601  43.819   8.253
 6199POPC   C3B17877   4.580  43.807   7.953
 6199POPC   C4B17878   4.561  43.804   7.653
 6200POPC   NC317879   2.803   9.011   9.453
 6200POPC   PO417880   2.721   9.021   9.153
 6200POPC   GL117881   2.798   9.006   8.853
 6200POPC   GL217882   2.827   8.877   8.853
 6200POPC   C1A17883   2.726   9.010   8.553
 6200POPC   D2A17884   2.780   8.959   8.253
 6200POPC   C3A17885   2.729   9.004   7.953
 6200POPC   C4A17886   2.814   8.955   7.653
 6200POPC   C1B17887   2.913   8.819   8.553
 6200POPC   C2B17888   2.941   8.795   8.253
 6200POPC   C3B17889   2.903   8.818   7.953
 6200POPC   C4B17890   2.971   8.822   7.653
 6201POPC   NC317891  32.270  35.353   9.453
 6201POPC   PO417892  32.202  35.389   9.153
 6201POPC   GL117893  32.253  35.360   8.853
 6201POPC   GL217894  32.137  35.440   8.853
 6201POPC   C1A17895  32.267  35.311   8.553
 6201POPC   D2A17896  32.217  35.314   8.253
 6201POPC   C3A17897  32.222  35.367   7.953
 6201POPC   C4A17898  32.232  35.333   7.653
 6201POPC   C1B17899  32.058  35.519   8.553
 6201POPC   C2B17900  32.070  35.568   8.253
 6201POPC   C3B17901  32.114  35.492   7.953
 6201POPC   C4B17902  32.087  35.501   7.653
 6202POPC   NC317903  32.994  21.390   9.453
 6202POPC   PO417904  32.993  21.383   9.153
 6202POPC   GL117905  33.069  21.388   8.853
 6202POPC   GL217906  32.884  21.444   8.853
 6202POPC   C1A17907  33.024  21.387   8.553
 6202POPC   D2A17908  33.049  21.359   8.253
 6202POPC   C3A17909  33.071  21.395   7.953
 6202POPC   C4A17910  33.068  21.402   7.653
 6202POPC   C1B17911  32.777  21.516   8.553
 6202POPC   C2B17912  32.864  21.490   8.253
 6202POPC   C3B17913  32.856  21.540   7.953
 6202POPC   C4B17914  32.778  21.508   7.653
 6203POPC   NC317915   5.831  32.237   9.453
 6203POPC   PO417916   5.853  32.219   9.153
 6203POPC   GL117917   5.881  32.221   8.853
 6203POPC   GL217918   5.838  32.154   8.853
 6203POPC   C1A17919   5.862  32.270   8.553
 6203POPC   D2A17920   5.830  32.216   8.253
 6203POPC   C3A17921   5.865  32.232   7.953
 6203POPC   C4A17922   5.854  32.207   7.653
 6203POPC   C1B17923   5.704  32.077   8.553
 6203POPC   C2B17924   5.768  31.992   8.253
 6203POPC   C3B17925   5.754  32.034   7.953
 6203POPC   C4B17926   5.747  32.029   7.653
 6204POPC   NC317927  37.688   2.731   9.453
 6204POPC   PO417928  37.714   2.722   9.153
 6204POPC   GL117929  37.678   2.745   8.853
 6204POPC   GL217930  37.514   2.772   8.853
 6204POPC   C1A17931  37.676   2.728   8.553
 6204POPC   D2A17932  37.691   2.808   8.253
 6204POPC   C3A17933  37.641   2.741   7.953
 6204POPC   C4A17934  37.648   2.810   7.653
 6204POPC   C1B17935  37.426   2.773   8.553
 6204POPC   C2B17936  37.452   2.774   8.253
 6204POPC   C3B17937  37.388   2.762   7.953
 6204POPC   C4B17938  37.391   2.722   7.653
 6205POPC   NC317939   6.692  22.951   9.453
 6205POPC   PO417940   6.674  22.970   9.153
 6205POPC   GL117941   6.603  22.952   8.853
 6205POPC   GL217942   6.572  22.885   8.853
 6205POPC   C1A17943   6.622  22.950   8.553
 6205POPC   D2A17944   6.627  22.906   8.253
 6205POPC   C3A17945   6.648  22.898   7.953
 6205POPC   C4A17946   6.674  22.933   7.653
 6205POPC   C1B17947   6.451  22.843   8.553
 6205POPC   C2B17948   6.392  22.809   8.253
 6205POPC   C3B17949   6.430  22.802   7.953
 6205POPC   C4B17950   6.445  22.810   7.653
 6206POPC   NC317951  44.704  25.281   9.453
 6206POPC   PO417952  44.700  25.225   9.153
 6206POPC   GL117953  44.653  25.225   8.853
 6206POPC   GL217954  44.584  25.170   8.853
 6206POPC   C1A17955  44.647  25.297   8.553
 6206POPC   D2A17956  44.624  25.288   8.253
 6206POPC   C3A17957  44.645  25.258   7.953
 6206POPC   C4A17958  44.655  25.292   7.653
 6206POPC   C1B17959  44.478  25.166   8.553
 6206POPC   C2B17960  44.428  25.136   8.253
 6206POPC   C3B17961  44.433  25.204   7.953
 6206POPC   C4B17962  44.408  25.123   7.653
 6207POPC   NC317963  12.810   9.763   9.453
 6207POPC   PO417964  12.879   9.711   9.153
 6207POPC   GL117965  12.852   9.716   8.853
 6207POPC   GL217966  12.924   9.603   8.853
 6207POPC   C1A17967  12.851   9.753   8.553
 6207POPC   D2A17968  12.879   9.768   8.253
 6207POPC   C3A17969  12.858   9.790   7.953
 6207POPC   C4A17970  12.810   9.699   7.653
 6207POPC   C1B17971  12.960   9.481   8.553
 6207POPC   C2B17972  12.922   9.532   8.253
 6207POPC   C3B17973  12.932   9.473   7.953
 6207POPC   C4B17974  12.938   9.477   7.653
 6208POPC   NC317975  22.160  14.357   9.453
 6208POPC   PO417976  22.207  14.395   9.153
 6208POPC   GL117977  22.145  14.433   8.853
 6208POPC   GL217978  22.074  14.469   8.853
 6208POPC   C1A17979  22.142  14.376   8.553
 6208POPC   D2A17980  22.175  14.398   8.253
 6208POPC   C3A17981  22.191  14.421   7.953
 6208POPC   C4A17982  22.171  14.364   7.653
 6208POPC   C1B17983  21.934  14.584   8.553
 6208POPC   C2B17984  21.967  14.523   8.253
 6208POPC   C3B17985  21.924  14.578   7.953
 6208POPC   C4B17986  21.955  14.539   7.653
 6209POPC   NC317987   2.019  17.544   9.453
 6209POPC   PO417988   1.980  17.464   9.153
 6209POPC   GL117989   1.986  17.472   8.853
 6209POPC   GL217990   2.107  17.507   8.853
 6209POPC   C1A17991   1.945  17.551   8.553
 6209POPC   D2A17992   2.026  17.521   8.253
 6209POPC   C3A17993   1.979  17.531   7.953
 6209POPC   C4A17994   1.997  17.544   7.653
 6209POPC   C1B17995   2.239  17.448   8.553
 6209POPC   C2B17996   2.202  17.451   8.253
 6209POPC   C3B17997   2.276  17.410   7.953
 6209POPC   C4B17998   2.276  17.437   7.653
 6210POPC   NC317999  15.166  19.059   9.453
 6210POPC   PO418000  15.138  19.037   9.153
 6210POPC   GL118001  15.156  19.087   8.853
 6210POPC   GL218002  15.125  18.938   8.853
 6210POPC   C1A18003  15.139  19.106   8.553
 6210POPC   D2A18004  15.190  19.048   8.253
 6210POPC   C3A18005  15.223  19.047   7.953
 6210POPC   C4A18006  15.206  19.042   7.653
 6210POPC   C1B18007  15.030  18.846   8.553
 6210POPC   C2B18008  15.085  18.883   8.253
 6210POPC   C3B18009  15.014  18.897   7.953
 6210POPC   C4B18010  14.991  18.878   7.653
 6211POPC   NC318011  11.328  24.505   9.453
 6211POPC   PO418012  11.270  24.508   9.153
 6211POPC   GL118013  11.336  24.440   8.853
 6211POPC   GL218014  11.155  24.546   8.853
 6211POPC   C1A18015  11.329  24.516   8.553
 6211POPC   D2A18016  11.332  24.490   8.253
 6211POPC   C3A18017  11.338  24.447   7.953
 6211POPC   C4A18018  11.293  24.477   7.653
 6211POPC   C1B18019  11.089  24.542   8.553
 6211POPC   C2B18020  11.023  24.554   8.253
 6211POPC   C3B18021  11.047  24.503   7.953
 6211POPC   C4B18022  11.096  24.564   7.653
 6212POPC   NC318023  41.594   6.637   9.453
 6212POPC   PO418024  41.595   6.654   9.153
 6212POPC   GL118025  41.595   6.692   8.853
 6212POPC   GL218026  41.426   6.710   8.853
 6212POPC   C1A18027  41.565   6.688   8.553
 6212POPC   D2A18028  41.558   6.657   8.253
 6212POPC   C3A18029  41.522   6.600   7.953
 6212POPC   C4A18030  41.545   6.691   7.653
 6212POPC   C1B18031  41.316   6.786   8.553
 6212POPC   C2B18032  41.373   6.791   8.253
 6212POPC   C3B18033  41.358   6.709   7.953
 6212POPC   C4B18034  41.317   6.752   7.653
 6213POPC   NC318035   8.196  22.156   9.453
 6213POPC   PO418036   8.160  22.131   9.153
 6213POPC   GL118037   8.244  22.144   8.853
 6213POPC   GL218038   8.283  22.231   8.853
 6213POPC   C1A18039   8.224  22.126   8.553
 6213POPC   D2A18040   8.214  22.193   8.253
 6213POPC   C3A18041   8.189  22.210   7.953
 6213POPC   C4A18042   8.237  22.209   7.653
 6213POPC   C1B18043   8.274  22.409   8.553
 6213POPC   C2B18044   8.298  22.348   8.253
 6213POPC   C3B18045   8.262  22.431   7.953
 6213POPC   C4B18046   8.338  22.420   7.653
 6214POPC   NC318047  36.141  36.899   9.453
 6214POPC   PO418048  36.161  36.907   9.153
 6214POPC   GL118049  36.146  36.923   8.853
 6214POPC   GL218050  36.136  36.741   8.853
 6214POPC   C1A18051  36.173  36.948   8.553
 6214POPC   D2A18052  36.177  36.858   8.253
 6214POPC   C3A18053  36.140  36.866   7.953
 6214POPC   C4A18054  36.151  36.907   7.653
 6214POPC   C1B18055  36.203  36.679   8.553
 6214POPC   C2B18056  36.155  36.676   8.253
 6214POPC   C3B18057  36.172  36.682   7.953
 6214POPC   C4B18058  36.224  36.677   7.653
 6215POPC   NC318059  37.658   4.358   9.453
 6215POPC   PO418060  37.721   4.325   9.153
 6215POPC   GL118061  37.707   4.336   8.853
 6215POPC   GL218062  37.659   4.405   8.853
 6215POPC   C1A18063  37.631   4.287   8.553
 6215POPC   D2A18064  37.712   4.351   8.253
 6215POPC   C3A18065  37.692   4.354   7.953
 6215POPC   C4A18066  37.655   4.353   7.653
 6215POPC   C1B18067  37.596   4.543   8.553
 6215POPC   C2B18068  37.581   4.561   8.253
 6215POPC   C3B18069  37.570   4.560   7.953
 6215POPC   C4B18070  37.517   4.490   7.653
 6216POPC   NC318071  24.504   1.249   9.453
 6216POPC   PO418072  24.461   1.246   9.153
 6216POPC   GL118073  24.472   1.185   8.853
 6216POPC   GL218074  24.418   1.134   8.853
 6216POPC   C1A18075  24.519   1.238   8.553
 6216POPC   D2A18076  24.444   1.226   8.253
 6216POPC   C3A18077  24.517   1.243   7.953
 6216POPC   C4A18078  24.457   1.228   7.653
 6216POPC   C1B18079  24.460   0.922   8.553
 6216POPC   C2B18080  24.481   0.946   8.253
 6216POPC   C3B18081  24.405   0.942   7.953
 6216POPC   C4B18082  24.466   0.985   7.653
 6217POPC   NC318083  27.567  43.870   9.453
 6217POPC   PO418084  27.616  43.856   9.153
 6217POPC   GL118085  27.632  43.890   8.853
 6217POPC   GL218086  27.652  43.741   8.853
 6217POPC   C1A18087  27.601  43.876   8.553
 6217POPC   D2A18088  27.570  43.854   8.253
 6217POPC   C3A18089  27.629  43.894   7.953
 6217POPC   C4A18090  27.642  43.904   7.653
 6217POPC   C1B18091  27.694  43.645   8.553
 6217POPC   C2B18092  27.677  43.649   8.253
 6217POPC   C3B18093  27.731  43.675   7.953
 6217POPC   C4B18094  27.745  43.705   7.653
 6218POPC   NC318095  43.927  36.149   9.453
 6218POPC   PO418096  43.929  36.135   9.153
 6218POPC   GL118097  43.866  36.093   8.853
 6218POPC   GL218098  43.960  36.240   8.853
 6218POPC   C1A18099  43.914  36.081   8.553
 6218POPC   D2A18100  43.932  36.105   8.253
 6218POPC   C3A18101  43.850  36.096   7.953
 6218POPC   C4A18102  43.855  36.178   7.653
 6218POPC   C1B18103  43.966  36.419   8.553
 6218POPC   C2B18104  43.950  36.404   8.253
 6218POPC   C3B18105  43.907  36.354   7.953
 6218POPC   C4B18106  43.937  36.415   7.653
 6219POPC   NC318107  34.535  20.581   9.453
 6219POPC   PO418108  34.534  20.572   9.153
 6219POPC   GL118109  34.625  20.643   8.853
 6219POPC   GL218110  34.737  20.545   8.853
 6219POPC   C1A18111  34.618  20.594   8.553
 6219POPC   D2A18112  34.625  20.596   8.253
 6219POPC   C3A18113  34.554  20.600   7.953
 6219POPC   C4A18114  34.531  20.564   7.653
 6219POPC   C1B18115  34.822  20.580   8.553
 6219POPC   C2B18116  34.840  20.579   8.253
 6219POPC   C3B18117  34.825  20.537   7.953
 6219POPC   C4B18118  34.811  20.530   7.653
 6220POPC   NC318119  37.682  25.271   9.453
 6220POPC   PO418120  37.667  25.310   9.153
 6220POPC   GL118121  37.652  25.225   8.853
 6220POPC   GL218122  37.716  25.414   8.853
 6220POPC   C1A18123  37.640  25.234   8.553
 6220POPC   D2A18124  37.670  25.239   8.253
 6220POPC   C3A18125  37.661  25.301   7.953
 6220POPC   C4A18126  37.674  25.301   7.653
 6220POPC   C1B18127  37.795  25.497   8.553
 6220POPC   C2B18128  37.827  25.423   8.253
 6220POPC   C3B18129  37.810  25.448   7.953
 6220POPC   C4B18130  37.842  25.480   7.653
 6221POPC   NC318131   9.701  36.937   9.453
 6221POPC   PO418132   9.749  36.905   9.153
 6221POPC   GL118133   9.769  36.886   8.853
 6221POPC   GL218134   9.650  36.871   8.853
 6221POPC   C1A18135   9.749  36.887   8.553
 6221POPC   D2A18136   9.729  36.917   8.253
 6221POPC   C3A18137   9.781  36.863   7.953
 6221POPC   C4A18138   9.798  36.859   7.653
 6221POPC   C1B18139   9.484  36.832   8.553
 6221POPC   C2B18140   9.574  36.833   8.253
 6221POPC   C3B18141   9.534  36.794   7.953
 6221POPC   C4B18142   9.557  36.840   7.653
 6222POPC   NC318143  42.354   3.534   9.453
 6222POPC   PO418144  42.379   3.577   9.153
 6222POPC   GL118145  42.315   3.543   8.853
 6222POPC   GL218146  42.429   3.481   8.853
 6222POPC   C1A18147  42.327   3.590   8.553
 6222POPC   D2A18148  42.340   3.559   8.253
 6222POPC   C3A18149  42.381   3.500   7.953
 6222POPC   C4A18150  42.306   3.540   7.653
 6222POPC   C1B18151  42.618   3.521   8.553
 6222POPC   C2B18152  42.557   3.559   8.253
 6222POPC   C3B18153  42.556   3.538   7.953
 6222POPC   C4B18154  42.598   3.491   7.653
 6223POPC   NC318155  21.371  43.872   9.453
 6223POPC   PO418156  21.395  43.929   9.153
 6223POPC   GL118157  21.419  43.878   8.853
 6223POPC   GL218158  21.312  43.939   8.853
 6223POPC   C1A18159  21.360  43.914   8.553
 6223POPC   D2A18160  21.364  43.849   8.253
 6223POPC   C3A18161  21.428  43.883   7.953
 6223POPC   C4A18162  21.365  43.841   7.653
 6223POPC   C1B18163  21.207  44.027   8.553
 6223POPC   C2B18164  21.169  44.068   8.253
 6223POPC   C3B18165  21.156  44.084   7.953
 6223POPC   C4B18166  21.170  44.029   7.653
 6224POPC   NC318167  21.364   1.188   9.453
 6224POPC   PO418168  21.350   1.193   9.153
 6224POPC   GL118169  21.400   1.168   8.853
 6224POPC   GL218170  21.527   1.115   8.853
 6224POPC   C1A18171  21.383   1.214   8.553
 6224POPC   D2A18172  21.350   1.261   8.253
 6224POPC   C3A18173  21.426   1.248   7.953
 6224POPC   C4A18174  21.415   1.218   7.653
 6224POPC   C1B18175  21.566   1.059   8.553
 6224POPC   C2B18176  21.593   1.043   8.253
 6224POPC   C3B18177  21.615   1.049   7.953
 6224POPC   C4B18178  21.586   1.070   7.653
 6225POPC   NC318179  25.996  37.708   9.453
 6225POPC   PO418180  26.082  37.633   9.153
 6225POPC   GL118181  25.993  37.641   8.853
 6225POPC   GL218182  26.140  37.626   8.853
 6225POPC   C1A18183  26.030  37.638   8.553
 6225POPC   D2A18184  26.085  37.644   8.253
 6225POPC   C3A18185  26.022  37.690   7.953
 6225POPC   C4A18186  26.007  37.711   7.653
 6225POPC   C1B18187  26.212  37.573   8.553
 6225POPC   C2B18188  26.223  37.586   8.253
 6225POPC   C3B18189  26.291  37.567   7.953
 6225POPC   C4B18190  26.299  37.578   7.653
 6226POPC   NC318191  34.617  39.239   9.453
 6226POPC   PO418192  34.575  39.190   9.153
 6226POPC   GL118193  34.579  39.217   8.853
 6226POPC   GL218194  34.516  39.334   8.853
 6226POPC   C1A18195  34.607  39.215   8.553
 6226POPC   D2A18196  34.563  39.250   8.253
 6226POPC   C3A18197  34.624  39.259   7.953
 6226POPC   C4A18198  34.592  39.229   7.653
 6226POPC   C1B18199  34.389  39.372   8.553
 6226POPC   C2B18200  34.351  39.372   8.253
 6226POPC   C3B18201  34.353  39.439   7.953
 6226POPC   C4B18202  34.394  39.440   7.653
 6227POPC   NC318203  40.775  15.227   9.453
 6227POPC   PO418204  40.751  15.165   9.153
 6227POPC   GL118205  40.802  15.225   8.853
 6227POPC   GL218206  40.873  15.297   8.853
 6227POPC   C1A18207  40.798  15.217   8.553
 6227POPC   D2A18208  40.830  15.150   8.253
 6227POPC   C3A18209  40.824  15.192   7.953
 6227POPC   C4A18210  40.810  15.185   7.653
 6227POPC   C1B18211  40.860  15.385   8.553
 6227POPC   C2B18212  40.844  15.376   8.253
 6227POPC   C3B18213  40.854  15.413   7.953
 6227POPC   C4B18214  40.832  15.404   7.653
 6228POPC   NC318215  26.802  15.924   9.453
 6228POPC   PO418216  26.818  16.003   9.153
 6228POPC   GL118217  26.814  15.976   8.853
 6228POPC   GL218218  26.815  15.830   8.853
 6228POPC   C1A18219  26.769  15.924   8.553
 6228POPC   D2A18220  26.845  15.988   8.253
 6228POPC   C3A18221  26.784  15.988   7.953
 6228POPC   C4A18222  26.855  15.942   7.653
 6228POPC   C1B18223  26.871  15.678   8.553
 6228POPC   C2B18224  26.880  15.705   8.253
 6228POPC   C3B18225  26.922  15.731   7.953
 6228POPC   C4B18226  26.892  15.716   7.653
 6229POPC   NC318227  33.766  42.358   9.453
 6229POPC   PO418228  33.844  42.304   9.153
 6229POPC   GL118229  33.839  42.368   8.853
 6229POPC   GL218230  33.820  42.201   8.853
 6229POPC   C1A18231  33.807  42.323   8.553
 6229POPC   D2A18232  33.800  42.371   8.253
 6229POPC   C3A18233  33.769  42.351   7.953
 6229POPC   C4A18234  33.751  42.357   7.653
 6229POPC   C1B18235  33.904  42.134   8.553
 6229POPC   C2B18236  33.907  42.133   8.253
 6229POPC   C3B18237  33.832  42.085   7.953
 6229POPC   C4B18238  33.907  42.080   7.653
 6230POPC   NC318239  32.274  19.827   9.453
 6230POPC   PO418240  32.279  19.793   9.153
 6230POPC   GL118241  32.222  19.802   8.853
 6230POPC   GL218242  32.340  19.743   8.853
 6230POPC   C1A18243  32.251  19.835   8.553
 6230POPC   D2A18244  32.284  19.795   8.253
 6230POPC   C3A18245  32.258  19.839   7.953
 6230POPC   C4A18246  32.286  19.872   7.653
 6230POPC   C1B18247  32.428  19.749   8.553
 6230POPC   C2B18248  32.435  19.693   8.253
 6230POPC   C3B18249  32.464  19.697   7.953
 6230POPC   C4B18250  32.472  19.755   7.653
 6231POPC   NC318251  36.127  12.049   9.453
 6231POPC   PO418252  36.093  12.055   9.153
 6231POPC   GL118253  36.118  12.118   8.853
 6231POPC   GL218254  35.966  12.135   8.853
 6231POPC   C1A18255  36.106  12.124   8.553
 6231POPC   D2A18256  36.136  12.048   8.253
 6231POPC   C3A18257  36.098  12.097   7.953
 6231POPC   C4A18258  36.170  12.058   7.653
 6231POPC   C1B18259  35.832  12.073   8.553
 6231POPC   C2B18260  35.916  12.120   8.253
 6231POPC   C3B18261  35.883  12.078   7.953
 6231POPC   C4B18262  35.915  12.144   7.653
 6232POPC   NC318263   4.362  19.813   9.453
 6232POPC   PO418264   4.270  19.862   9.153
 6232POPC   GL118265   4.297  19.830   8.853
 6232POPC   GL218266   4.417  19.741   8.853
 6232POPC   C1A18267   4.356  19.811   8.553
 6232POPC   D2A18268   4.348  19.860   8.253
 6232POPC   C3A18269   4.301  19.838   7.953
 6232POPC   C4A18270   4.280  19.830   7.653
 6232POPC   C1B18271   4.441  19.570   8.553
 6232POPC   C2B18272   4.473  19.638   8.253
 6232POPC   C3B18273   4.413  19.562   7.953
 6232POPC   C4B18274   4.470  19.615   7.653
 6233POPC   NC318275  24.489  32.236   9.453
 6233POPC   PO418276  24.481  32.247   9.153
 6233POPC   GL118277  24.455  32.283   8.853
 6233POPC   GL218278  24.377  32.274   8.853
 6233POPC   C1A18279  24.519  32.212   8.553
 6233POPC   D2A18280  24.486  32.255   8.253
 6233POPC   C3A18281  24.471  32.288   7.953
 6233POPC   C4A18282  24.496  32.207   7.653
 6233POPC   C1B18283  24.236  32.418   8.553
 6233POPC   C2B18284  24.302  32.411   8.253
 6233POPC   C3B18285  24.272  32.372   7.953
 6233POPC   C4B18286  24.304  32.422   7.653
 6234POPC   NC318287   2.010  14.410   9.453
 6234POPC   PO418288   2.023  14.376   9.153
 6234POPC   GL118289   1.995  14.398   8.853
 6234POPC   GL218290   1.925  14.480   8.853
 6234POPC   C1A18291   2.001  14.439   8.553
 6234POPC   D2A18292   2.016  14.395   8.253
 6234POPC   C3A18293   2.016  14.419   7.953
 6234POPC   C4A18294   1.976  14.440   7.653
 6234POPC   C1B18295   1.809  14.538   8.553
 6234POPC   C2B18296   1.767  14.538   8.253
 6234POPC   C3B18297   1.795  14.506   7.953
 6234POPC   C4B18298   1.773  14.459   7.653
 6235POPC   NC318299  31.425  37.679   9.453
 6235POPC   PO418300  31.472  37.634   9.153
 6235POPC   GL118301  31.438  37.707   8.853
 6235POPC   GL218302  31.468  37.793   8.853
 6235POPC   C1A18303  31.491  37.693   8.553
 6235POPC   D2A18304  31.460  37.710   8.253
 6235POPC   C3A18305  31.428  37.632   7.953
 6235POPC   C4A18306  31.467  37.663   7.653
 6235POPC   C1B18307  31.327  37.901   8.553
 6235POPC   C2B18308  31.412  37.882   8.253
 6235POPC   C3B18309  31.418  37.948   7.953
 6235POPC   C4B18310  31.420  37.927   7.653
 6236POPC   NC318311  39.261  10.554   9.453
 6236POPC   PO418312  39.233  10.543   9.153
 6236POPC   GL118313  39.247  10.542   8.853
 6236POPC   GL218314  39.312  10.406   8.853
 6236POPC   C1A18315  39.191  10.558   8.553
 6236POPC   D2A18316  39.233  10.505   8.253
 6236POPC   C3A18317  39.258  10.562   7.953
 6236POPC   C4A18318  39.257  10.535   7.653
 6236POPC   C1B18319  39.291  10.284   8.553
 6236POPC   C2B18320  39.247  10.300   8.253
 6236POPC   C3B18321  39.317  10.314   7.953
 6236POPC   C4B18322  39.271  10.260   7.653
 6237POPC   NC318323  29.161  39.991   9.453
 6237POPC   PO418324  29.135  39.994   9.153
 6237POPC   GL118325  29.184  40.000   8.853
 6237POPC   GL218326  29.122  39.930   8.853
 6237POPC   C1A18327  29.148  40.030   8.553
 6237POPC   D2A18328  29.160  40.036   8.253
 6237POPC   C3A18329  29.127  40.008   7.953
 6237POPC   C4A18330  29.166  40.026   7.653
 6237POPC   C1B18331  29.243  39.794   8.553
 6237POPC   C2B18332  29.154  39.750   8.253
 6237POPC   C3B18333  29.236  39.794   7.953
 6237POPC   C4B18334  29.248  39.793   7.653
 6238POPC   NC318335  18.279  41.592   9.453
 6238POPC   PO418336  18.275  41.567   9.153
 6238POPC   GL118337  18.320  41.591   8.853
 6238POPC   GL218338  18.243  41.686   8.853
 6238POPC   C1A18339  18.274  41.563   8.553
 6238POPC   D2A18340  18.333  41.526   8.253
 6238POPC   C3A18341  18.280  41.517   7.953
 6238POPC   C4A18342  18.264  41.606   7.653
 6238POPC   C1B18343  18.127  41.741   8.553
 6238POPC   C2B18344  18.120  41.740   8.253
 6238POPC   C3B18345  18.084  41.764   7.953
 6238POPC   C4B18346  18.123  41.765   7.653
 6239POPC   NC318347   7.469  20.610   9.453
 6239POPC   PO418348   7.406  20.577   9.153
 6239POPC   GL118349   7.443  20.635   8.853
 6239POPC   GL218350   7.329  20.477   8.853
 6239POPC   C1A18351   7.427  20.564   8.553
 6239POPC   D2A18352   7.384  20.604   8.253
 6239POPC   C3A18353   7.388  20.590   7.953
 6239POPC   C4A18354   7.410  20.604   7.653
 6239POPC   C1B18355   7.313  20.350   8.553
 6239POPC   C2B18356   7.346  20.430   8.253
 6239POPC   C3B18357   7.259  20.388   7.953
 6239POPC   C4B18358   7.311  20.437   7.653
 6240POPC   NC318359  16.733  24.507   9.453
 6240POPC   PO418360  16.731  24.485   9.153
 6240POPC   GL118361  16.746  24.512   8.853
 6240POPC   GL218362  16.662  24.400   8.853
 6240POPC   C1A18363  16.759  24.503   8.553
 6240POPC   D2A18364  16.686  24.441   8.253
 6240POPC   C3A18365  16.702  24.451   7.953
 6240POPC   C4A18366  16.732  24.508   7.653
 6240POPC   C1B18367  16.633  24.254   8.553
 6240POPC   C2B18368  16.667  24.300   8.253
 6240POPC   C3B18369  16.669  24.258   7.953
 6240POPC   C4B18370  16.652  24.243   7.653
 6241POPC   NC318371  27.609  26.866   9.453
 6241POPC   PO418372  27.547  26.824   9.153
 6241POPC   GL118373  27.554  26.794   8.853
 6241POPC   GL218374  27.516  26.699   8.853
 6241POPC   C1A18375  27.621  26.813   8.553
 6241POPC   D2A18376  27.568  26.856   8.253
 6241POPC   C3A18377  27.563  26.810   7.953
 6241POPC   C4A18378  27.625  26.787   7.653
 6241POPC   C1B18379  27.379  26.639   8.553
 6241POPC   C2B18380  27.407  26.670   8.253
 6241POPC   C3B18381  27.402  26.650   7.953
 6241POPC   C4B18382  27.442  26.655   7.653
 6242POPC   NC318383  38.479  33.036   9.453
 6242POPC   PO418384  38.483  32.997   9.153
 6242POPC   GL118385  38.462  33.010   8.853
 6242POPC   GL218386  38.414  33.144   8.853
 6242POPC   C1A18387  38.445  33.011   8.553
 6242POPC   D2A18388  38.423  33.003   8.253
 6242POPC   C3A18389  38.441  32.988   7.953
 6242POPC   C4A18390  38.453  33.035   7.653
 6242POPC   C1B18391  38.378  33.298   8.553
 6242POPC   C2B18392  38.342  33.227   8.253
 6242POPC   C3B18393  38.384  33.299   7.953
 6242POPC   C4B18394  38.334  33.218   7.653
 6243POPC   NC318395   1.252  18.250   9.453
 6243POPC   PO418396   1.237  18.287   9.153
 6243POPC   GL118397   1.260  18.272   8.853
 6243POPC   GL218398   1.333  18.318   8.853
 6243POPC   C1A18399   1.179  18.247   8.553
 6243POPC   D2A18400   1.165  18.279   8.253
 6243POPC   C3A18401   1.245  18.308   7.953
 6243POPC   C4A18402   1.164  18.282   7.653
 6243POPC   C1B18403   1.417  18.378   8.553
 6243POPC   C2B18404   1.405  18.362   8.253
 6243POPC   C3B18405   1.501  18.373   7.953
 6243POPC   C4B18406   1.472  18.313   7.653
 6244POPC   NC318407  17.509  33.060   9.453
 6244POPC   PO418408  17.484  33.039   9.153
 6244POPC   GL118409  17.512  33.058   8.853
 6244POPC   GL218410  17.422  32.934   8.853
 6244POPC   C1A18411  17.540  33.062   8.553
 6244POPC   D2A18412  17.458  32.999   8.253
 6244POPC   C3A18413  17.508  33.071   7.953
 6244POPC   C4A18414  17.515  33.073   7.653
 6244POPC   C1B18415  17.334  32.839   8.553
 6244POPC   C2B18416  17.361  32.809   8.253
 6244POPC   C3B18417  17.296  32.858   7.953
 6244POPC   C4B18418  17.312  32.851   7.653
 6245POPC   NC318419  21.425  12.068   9.453
 6245POPC   PO418420  21.398  12.036   9.153
 6245POPC   GL118421  21.414  12.072   8.853
 6245POPC   GL218422  21.337  12.236   8.853
 6245POPC   C1A18423  21.360  12.047   8.553
 6245POPC   D2A18424  21.375  12.026   8.253
 6245POPC   C3A18425  21.340  12.052   7.953
 6245POPC   C4A18426  21.351  12.121   7.653
 6245POPC   C1B18427  21.371  12.356   8.553
 6245POPC   C2B18428  21.325  12.283   8.253
 6245POPC   C3B18429  21.328  12.356   7.953
 6245POPC   C4B18430  21.390  12.315   7.653
 6246POPC   NC318431   5.904  36.092   9.453
 6246POPC   PO418432   5.892  36.177   9.153
 6246POPC   GL118433   5.903  36.171   8.853
 6246POPC   GL218434   5.938  35.983   8.853
 6246POPC   C1A18435   5.897  36.089   8.553
 6246POPC   D2A18436   5.872  36.083   8.253
 6246POPC   C3A18437   5.909  36.108   7.953
 6246POPC   C4A18438   5.869  36.163   7.653
 6246POPC   C1B18439   6.006  35.955   8.553
 6246POPC   C2B18440   6.005  35.885   8.253
 6246POPC   C3B18441   5.970  35.911   7.953
 6246POPC   C4B18442   6.004  35.926   7.653
 6247POPC   NC318443   5.047  43.093   9.453
 6247POPC   PO418444   5.046  43.123   9.153
 6247POPC   GL118445   5.126  43.123   8.853
 6247POPC   GL218446   5.171  43.063   8.853
 6247POPC   C1A18447   5.086  43.069   8.553
 6247POPC   D2A18448   5.085  43.106   8.253
 6247POPC   C3A18449   5.113  43.153   7.953
 6247POPC   C4A18450   5.131  43.131   7.653
 6247POPC   C1B18451   5.320  43.122   8.553
 6247POPC   C2B18452   5.313  43.140   8.253
 6247POPC   C3B18453   5.299  43.114   7.953
 6247POPC   C4B18454   5.302  43.144   7.653
 6248POPC   NC318455  15.938  44.662   9.453
 6248POPC   PO418456  15.958  44.625   9.153
 6248POPC   GL118457  15.913  44.647   8.853
 6248POPC   GL218458  16.032  44.718   8.853
 6248POPC   C1A18459  15.914  44.634   8.553
 6248POPC   D2A18460  15.959  44.621   8.253
 6248POPC   C3A18461  15.988  44.683   7.953
 6248POPC   C4A18462  16.002  44.620   7.653
 6248POPC   C1B18463  16.133  44.781   8.553
 6248POPC   C2B18464  16.166  44.776   8.253
 6248POPC   C3B18465  16.205  44.840   7.953
 6248POPC   C4B18466  16.109  44.770   7.653
 6249POPC   NC318467  12.074  11.285   9.453
 6249POPC   PO418468  12.091  11.298   9.153
 6249POPC   GL118469  12.089  11.340   8.853
 6249POPC   GL218470  12.185  11.160   8.853
 6249POPC   C1A18471  12.083  11.339   8.553
 6249POPC   D2A18472  12.092  11.321   8.253
 6249POPC   C3A18473  12.102  11.263   7.953
 6249POPC   C4A18474  12.068  11.288   7.653
 6249POPC   C1B18475  12.229  11.132   8.553
 6249POPC   C2B18476  12.258  11.126   8.253
 6249POPC   C3B18477  12.249  11.141   7.953
 6249POPC   C4B18478  12.223  11.123   7.653
 6250POPC   NC318479   8.172   9.728   9.453
 6250POPC   PO418480   8.244   9.772   9.153
 6250POPC   GL118481   8.174   9.782   8.853
 6250POPC   GL218482   8.044   9.654   8.853
 6250POPC   C1A18483   8.202   9.751   8.553
 6250POPC   D2A18484   8.159   9.726   8.253
 6250POPC   C3A18485   8.172   9.769   7.953
 6250POPC   C4A18486   8.147   9.713   7.653
 6250POPC   C1B18487   7.940   9.652   8.553
 6250POPC   C2B18488   8.002   9.633   8.253
 6250POPC   C3B18489   8.010   9.631   7.953
 6250POPC   C4B18490   7.966   9.656   7.653
 6251POPC   NC318491  40.806  43.103   9.453
 6251POPC   PO418492  40.743  43.098   9.153
 6251POPC   GL118493  40.772  43.103   8.853
 6251POPC   GL218494  40.931  43.202   8.853
 6251POPC   C1A18495  40.828  43.129   8.553
 6251POPC   D2A18496  40.769  43.066   8.253
 6251POPC   C3A18497  40.770  43.155   7.953
 6251POPC   C4A18498  40.742  43.073   7.653
 6251POPC   C1B18499  40.955  43.313   8.553
 6251POPC   C2B18500  40.930  43.254   8.253
 6251POPC   C3B18501  40.949  43.312   7.953
 6251POPC   C4B18502  40.939  43.224   7.653
 6252POPC   NC318503   1.184   8.989   9.453
 6252POPC   PO418504   1.204   8.975   9.153
 6252POPC   GL118505   1.226   9.022   8.853
 6252POPC   GL218506   1.133   8.939   8.853
 6252POPC   C1A18507   1.168   8.979   8.553
 6252POPC   D2A18508   1.250   8.944   8.253
 6252POPC   C3A18509   1.194   8.946   7.953
 6252POPC   C4A18510   1.211   9.019   7.653
 6252POPC   C1B18511   0.986   8.877   8.553
 6252POPC   C2B18512   0.941   8.918   8.253
 6252POPC   C3B18513   0.993   8.907   7.953
 6252POPC   C4B18514   0.942   8.865   7.653
 6253POPC   NC318515  22.919  18.240   9.453
 6253POPC   PO418516  22.891  18.267   9.153
 6253POPC   GL118517  22.930  18.265   8.853
 6253POPC   GL218518  22.789  18.301   8.853
 6253POPC   C1A18519  22.957  18.273   8.553
 6253POPC   D2A18520  22.909  18.317   8.253
 6253POPC   C3A18521  22.910  18.311   7.953
 6253POPC   C4A18522  22.947  18.306   7.653
 6253POPC   C1B18523  22.676  18.235   8.553
 6253POPC   C2B18524  22.706  18.217   8.253
 6253POPC   C3B18525  22.686  18.277   7.953
 6253POPC   C4B18526  22.657  18.270   7.653
 6254POPC   NC318527  42.306  42.340   9.453
 6254POPC   PO418528  42.339  42.311   9.153
 6254POPC   GL118529  42.294  42.330   8.853
 6254POPC   GL218530  42.437  42.253   8.853
 6254POPC   C1A18531  42.378  42.345   8.553
 6254POPC   D2A18532  42.376  42.333   8.253
 6254POPC   C3A18533  42.358  42.293   7.953
 6254POPC   C4A18534  42.331  42.295   7.653
 6254POPC   C1B18535  42.492  42.178   8.553
 6254POPC   C2B18536  42.489  42.114   8.253
 6254POPC   C3B18537  42.480  42.186   7.953
 6254POPC   C4B18538  42.539  42.141   7.653
 6255POPC   NC318539  44.618   4.294   9.453
 6255POPC   PO418540  44.640   4.330   9.153
 6255POPC   GL118541  44.707   4.325   8.853
 6255POPC   GL218542  44.588   4.424   8.853
 6255POPC   C1A18543  44.664   4.363   8.553
 6255POPC   D2A18544  44.643   4.275   8.253
 6255POPC   C3A18545  44.642   4.338   7.953
 6255POPC   C4A18546  44.626   4.277   7.653
 6255POPC   C1B18547  44.423   4.484   8.553
 6255POPC   C2B18548  44.422   4.484   8.253
 6255POPC   C3B18549  44.455   4.459   7.953
 6255POPC   C4B18550  44.439   4.477   7.653
 6256POPC   NC318551  27.557   9.699   9.453
 6256POPC   PO418552  27.600   9.751   9.153
 6256POPC   GL118553  27.626   9.743   8.853
 6256POPC   GL218554  27.725   9.775   8.853
 6256POPC   C1A18555  27.626   9.763   8.553
 6256POPC   D2A18556  27.546   9.762   8.253
 6256POPC   C3A18557  27.554   9.790   7.953
 6256POPC   C4A18558  27.588   9.781   7.653
 6256POPC   C1B18559  27.867   9.817   8.553
 6256POPC   C2B18560  27.791   9.789   8.253
 6256POPC   C3B18561  27.853   9.790   7.953
 6256POPC   C4B18562  27.846   9.863   7.653
 6257POPC   NC318563  32.296  22.987   9.453
 6257POPC   PO418564  32.237  22.936   9.153
 6257POPC   GL118565  32.217  22.936   8.853
 6257POPC   GL218566  32.293  23.069   8.853
 6257POPC   C1A18567  32.248  22.918   8.553
 6257POPC   D2A18568  32.217  22.987   8.253
 6257POPC   C3A18569  32.267  22.957   7.953
 6257POPC   C4A18570  32.219  22.911   7.653
 6257POPC   C1B18571  32.341  23.163   8.553
 6257POPC   C2B18572  32.359  23.140   8.253
 6257POPC   C3B18573  32.406  23.171   7.953
 6257POPC   C4B18574  32.387  23.165   7.653
 6258POPC   NC318575  11.346  28.378   9.453
 6258POPC   PO418576  11.323  28.377   9.153
 6258POPC   GL118577  11.299  28.414   8.853
 6258POPC   GL218578  11.401  28.299   8.853
 6258POPC   C1A18579  11.318  28.352   8.553
 6258POPC   D2A18580  11.306  28.326   8.253
 6258POPC   C3A18581  11.300  28.359   7.953
 6258POPC   C4A18582  11.305  28.347   7.653
 6258POPC   C1B18583  11.454  28.172   8.553
 6258POPC   C2B18584  11.392  28.168   8.253
 6258POPC   C3B18585  11.404  28.168   7.953
 6258POPC   C4B18586  11.375  28.125   7.653
 6259POPC   NC318587  11.265  23.681   9.453
 6259POPC   PO418588  11.287  23.730   9.153
 6259POPC   GL118589  11.290  23.677   8.853
 6259POPC   GL218590  11.425  23.794   8.853
 6259POPC   C1A18591  11.347  23.714   8.553
 6259POPC   D2A18592  11.301  23.721   8.253
 6259POPC   C3A18593  11.330  23.715   7.953
 6259POPC   C4A18594  11.302  23.682   7.653
 6259POPC   C1B18595  11.517  23.882   8.553
 6259POPC   C2B18596  11.514  23.839   8.253
 6259POPC   C3B18597  11.446  23.839   7.953
 6259POPC   C4B18598  11.487  23.871   7.653
 6260POPC   NC318599  43.122  19.030   9.453
 6260POPC   PO418600  43.111  19.038   9.153
 6260POPC   GL118601  43.116  19.099   8.853
 6260POPC   GL218602  43.030  19.131   8.853
 6260POPC   C1A18603  43.153  19.032   8.553
 6260POPC   D2A18604  43.090  19.093   8.253
 6260POPC   C3A18605  43.148  19.038   7.953
 6260POPC   C4A18606  43.143  19.041   7.653
 6260POPC   C1B18607  42.867  19.202   8.553
 6260POPC   C2B18608  42.926  19.134   8.253
 6260POPC   C3B18609  42.928  19.186   7.953
 6260POPC   C4B18610  42.867  19.110   7.653
 6261POPC   NC318611  32.252   5.914   9.453
 6261POPC   PO418612  32.275   5.863   9.153
 6261POPC   GL118613  32.226   5.915   8.853
 6261POPC   GL218614  32.090   5.890   8.853
 6261POPC   C1A18615  32.217   5.855   8.553
 6261POPC   D2A18616  32.279   5.898   8.253
 6261POPC   C3A18617  32.214   5.888   7.953
 6261POPC   C4A18618  32.263   5.867   7.653
 6261POPC   C1B18619  32.005   5.881   8.553
 6261POPC   C2B18620  32.026   5.857   8.253
 6261POPC   C3B18621  31.961   5.860   7.953
 6261POPC   C4B18622  31.992   5.883   7.653
 6262POPC   NC318623  41.554  15.981   9.453
 6262POPC   PO418624  41.510  15.915   9.153
 6262POPC   GL118625  41.557  15.985   8.853
 6262POPC   GL218626  41.652  16.009   8.853
 6262POPC   C1A18627  41.558  15.972   8.553
 6262POPC   D2A18628  41.553  15.965   8.253
 6262POPC   C3A18629  41.592  15.963   7.953
 6262POPC   C4A18630  41.600  15.935   7.653
 6262POPC   C1B18631  41.685  16.118   8.553
 6262POPC   C2B18632  41.686  16.136   8.253
 6262POPC   C3B18633  41.723  16.098   7.953
 6262POPC   C4B18634  41.686  16.112   7.653
 6263POPC   NC318635  16.706   5.874   9.453
 6263POPC   PO418636  16.763   5.837   9.153
 6263POPC   GL118637  16.770   5.826   8.853
 6263POPC   GL218638  16.658   5.750   8.853
 6263POPC   C1A18639  16.706   5.913   8.553
 6263POPC   D2A18640  16.749   5.864   8.253
 6263POPC   C3A18641  16.758   5.859   7.953
 6263POPC   C4A18642  16.734   5.844   7.653
 6263POPC   C1B18643  16.609   5.611   8.553
 6263POPC   C2B18644  16.646   5.626   8.253
 6263POPC   C3B18645  16.672   5.622   7.953
 6263POPC   C4B18646  16.631   5.619   7.653
 6264POPC   NC318647  21.409  15.931   9.453
 6264POPC   PO418648  21.341  15.943   9.153
 6264POPC   GL118649  21.424  15.958   8.853
 6264POPC   GL218650  21.285  15.954   8.853
 6264POPC   C1A18651  21.370  15.923   8.553
 6264POPC   D2A18652  21.394  15.971   8.253
 6264POPC   C3A18653  21.426  16.005   7.953
 6264POPC   C4A18654  21.361  15.985   7.653
 6264POPC   C1B18655  21.107  15.976   8.553
 6264POPC   C2B18656  21.111  15.922   8.253
 6264POPC   C3B18657  21.115  15.916   7.953
 6264POPC   C4B18658  21.130  15.906   7.653
 6265POPC   NC318659   0.466   0.477   9.453
 6265POPC   PO418660   0.401   0.398   9.153
 6265POPC   GL118661   0.484   0.484   8.853
 6265POPC   GL218662   0.402   0.342   8.853
 6265POPC   C1A18663   0.426   0.419   8.553
 6265POPC   D2A18664   0.402   0.400   8.253
 6265POPC   C3A18665   0.415   0.452   7.953
 6265POPC   C4A18666   0.418   0.482   7.653
 6265POPC   C1B18667   0.335   0.239   8.553
 6265POPC   C2B18668   0.339   0.160   8.253
 6265POPC   C3B18669   0.375   0.180   7.953
 6265POPC   C4B18670   0.322   0.222   7.653
 6266POPC   NC318671  35.399  30.708   9.453
 6266POPC   PO418672  35.386  30.710   9.153
 6266POPC   GL118673  35.334  30.742   8.853
 6266POPC   GL218674  35.430  30.597   8.853
 6266POPC   C1A18675  35.351  30.730   8.553
 6266POPC   D2A18676  35.332  30.692   8.253
 6266POPC   C3A18677  35.335  30.685   7.953
 6266POPC   C4A18678  35.398  30.720   7.653
 6266POPC   C1B18679  35.567  30.584   8.553
 6266POPC   C2B18680  35.572  30.580   8.253
 6266POPC   C3B18681  35.541  30.558   7.953
 6266POPC   C4B18682  35.545  30.587   7.653
 6267POPC   NC318683   9.010  25.224   9.453
 6267POPC   PO418684   8.929  25.256   9.153
 6267POPC   GL118685   8.943  25.281   8.853
 6267POPC   GL218686   9.094  25.220   8.853
 6267POPC   C1A18687   8.993  25.303   8.553
 6267POPC   D2A18688   8.943  25.303   8.253
 6267POPC   C3A18689   8.940  25.243   7.953
 6267POPC   C4A18690   8.989  25.279   7.653
 6267POPC   C1B18691   9.216  25.256   8.553
 6267POPC   C2B18692   9.239  25.252   8.253
 6267POPC   C3B18693   9.237  25.203   7.953
 6267POPC   C4B18694   9.265  25.253   7.653
 6268POPC   NC318695  21.344  36.891   9.453
 6268POPC   PO418696  21.414  36.864   9.153
 6268POPC   GL118697  21.369  36.916   8.853
 6268POPC   GL218698  21.422  36.791   8.853
 6268POPC   C1A18699  21.387  36.863   8.553
 6268POPC   D2A18700  21.415  36.879   8.253
 6268POPC   C3A18701  21.436  36.931   7.953
 6268POPC   C4A18702  21.383  36.946   7.653
 6268POPC   C1B18703  21.425  36.658   8.553
 6268POPC   C2B18704  21.330  36.676   8.253
 6268POPC   C3B18705  21.369  36.661   7.953
 6268POPC   C4B18706  21.364  36.650   7.653
 6269POPC   NC318707  36.131   5.890   9.453
 6269POPC   PO418708  36.144   5.841   9.153
 6269POPC   GL118709  36.120   5.826   8.853
 6269POPC   GL218710  36.042   5.783   8.853
 6269POPC   C1A18711  36.165   5.882   8.553
 6269POPC   D2A18712  36.083   5.900   8.253
 6269POPC   C3A18713  36.144   5.918   7.953
 6269POPC   C4A18714  36.143   5.855   7.653
 6269POPC   C1B18715  35.951   5.689   8.553
 6269POPC   C2B18716  35.941   5.690   8.253
 6269POPC   C3B18717  35.926   5.739   7.953
 6269POPC   C4B18718  35.994   5.733   7.653
 6270POPC   NC318719  33.768  28.339   9.453
 6270POPC   PO418720  33.818  28.393   9.153
 6270POPC   GL118721  33.825  28.415   8.853
 6270POPC   GL218722  33.738  28.494   8.853
 6270POPC   C1A18723  33.808  28.412   8.553
 6270POPC   D2A18724  33.849  28.328   8.253
 6270POPC   C3A18725  33.772  28.359   7.953
 6270POPC   C4A18726  33.807  28.379   7.653
 6270POPC   C1B18727  33.641  28.554   8.553
 6270POPC   C2B18728  33.682  28.605   8.253
 6270POPC   C3B18729  33.713  28.633   7.953
 6270POPC   C4B18730  33.681  28.564   7.653
 6271POPC   NC318731  15.978   2.814   9.453
 6271POPC   PO418732  15.967   2.728   9.153
 6271POPC   GL118733  15.996   2.758   8.853
 6271POPC   GL218734  15.912   2.883   8.853
 6271POPC   C1A18735  15.955   2.734   8.553
 6271POPC   D2A18736  15.980   2.723   8.253
 6271POPC   C3A18737  15.964   2.775   7.953
 6271POPC   C4A18738  15.910   2.729   7.653
 6271POPC   C1B18739  15.924   3.002   8.553
 6271POPC   C2B18740  15.933   2.966   8.253
 6271POPC   C3B18741  15.985   3.032   7.953
 6271POPC   C4B18742  15.922   2.975   7.653
 6272POPC   NC318743  23.729  37.719   9.453
 6272POPC   PO418744  23.728  37.692   9.153
 6272POPC   GL118745  23.670  37.644   8.853
 6272POPC   GL218746  23.553  37.661   8.853
 6272POPC   C1A18747  23.696  37.648   8.553
 6272POPC   D2A18748  23.664  37.643   8.253
 6272POPC   C3A18749  23.729  37.674   7.953
 6272POPC   C4A18750  23.702  37.631   7.653
 6272POPC   C1B18751  23.456  37.732   8.553
 6272POPC   C2B18752  23.426  37.677   8.253
 6272POPC   C3B18753  23.484  37.658   7.953
 6272POPC   C4B18754  23.441  37.647   7.653
 6273POPC   NC318755  40.014  27.625   9.453
 6273POPC   PO418756  40.017  27.625   9.153
 6273POPC   GL118757  39.999  27.613   8.853
 6273POPC   GL218758  40.040  27.707   8.853
 6273POPC   C1A18759  39.988  27.574   8.553
 6273POPC   D2A18760  40.025  27.605   8.253
 6273POPC   C3A18761  39.964  27.607   7.953
 6273POPC   C4A18762  39.958  27.582   7.653
 6273POPC   C1B18763  40.101  27.776   8.553
 6273POPC   C2B18764  40.139  27.768   8.253
 6273POPC   C3B18765  40.187  27.775   7.953
 6273POPC   C4B18766  40.113  27.830   7.653
 6274POPC   NC318767  40.006  28.370   9.453
 6274POPC   PO418768  40.044  28.364   9.153
 6274POPC   GL118769  40.053  28.394   8.853
 6274POPC   GL218770  40.131  28.273   8.853
 6274POPC   C1A18771  40.006  28.326   8.553
 6274POPC   D2A18772  40.044  28.354   8.253
 6274POPC   C3A18773  39.996  28.413   7.953
 6274POPC   C4A18774  39.961  28.331   7.653
 6274POPC   C1B18775  40.181  28.186   8.553
 6274POPC   C2B18776  40.254  28.177   8.253
 6274POPC   C3B18777  40.173  28.249   7.953
 6274POPC   C4B18778  40.186  28.205   7.653
 6275POPC   NC318779  43.860  26.073   9.453
 6275POPC   PO418780  43.918  26.015   9.153
 6275POPC   GL118781  43.868  26.006   8.853
 6275POPC   GL218782  43.998  26.095   8.853
 6275POPC   C1A18783  43.866  26.018   8.553
 6275POPC   D2A18784  43.913  26.008   8.253
 6275POPC   C3A18785  43.907  26.043   7.953
 6275POPC   C4A18786  43.904  26.014   7.653
 6275POPC   C1B18787  44.041  26.163   8.553
 6275POPC   C2B18788  44.098  26.225   8.253
 6275POPC   C3B18789  44.075  26.212   7.953
 6275POPC   C4B18790  44.134  26.171   7.653
 6276POPC   NC318791  12.813   8.949   9.453
 6276POPC   PO418792  12.812   8.997   9.153
 6276POPC   GL118793  12.889   8.997   8.853
 6276POPC   GL218794  12.962   9.063   8.853
 6276POPC   C1A18795  12.843   8.954   8.553
 6276POPC   D2A18796  12.858   8.948   8.253
 6276POPC   C3A18797  12.884   8.996   7.953
 6276POPC   C4A18798  12.813   9.020   7.653
 6276POPC   C1B18799  13.075   9.070   8.553
 6276POPC   C2B18800  13.068   9.103   8.253
 6276POPC   C3B18801  13.076   9.163   7.953
 6276POPC   C4B18802  13.027   9.139   7.653
 6277POPC   NC318803   2.753   5.081   9.453
 6277POPC   PO418804   2.740   5.060   9.153
 6277POPC   GL118805   2.802   5.130   8.853
 6277POPC   GL218806   2.788   5.023   8.853
 6277POPC   C1A18807   2.798   5.046   8.553
 6277POPC   D2A18808   2.721   5.069   8.253
 6277POPC   C3A18809   2.757   5.094   7.953
 6277POPC   C4A18810   2.772   5.046   7.653
 6277POPC   C1B18811   2.868   4.841   8.553
 6277POPC   C2B18812   2.873   4.921   8.253
 6277POPC   C3B18813   2.925   4.831   7.953
 6277POPC   C4B18814   2.887   4.860   7.653
 6278POPC   NC318815  32.227  30.651   9.453
 6278POPC   PO418816  32.258  30.705   9.153
 6278POPC   GL118817  32.298  30.701   8.853
 6278POPC   GL218818  32.200  30.548   8.853
 6278POPC   C1A18819  32.243  30.693   8.553
 6278POPC   D2A18820  32.252  30.685   8.253
 6278POPC   C3A18821  32.228  30.702   7.953
 6278POPC   C4A18822  32.240  30.668   7.653
 6278POPC   C1B18823  32.108  30.497   8.553
 6278POPC   C2B18824  32.085  30.539   8.253
 6278POPC   C3B18825  32.150  30.463   7.953
 6278POPC   C4B18826  32.058  30.512   7.653
 6279POPC   NC318827  12.036  29.175   9.453
 6279POPC   PO418828  12.047  29.121   9.153
 6279POPC   GL118829  12.043  29.154   8.853
 6279POPC   GL218830  12.171  29.150   8.853
 6279POPC   C1A18831  12.061  29.166   8.553
 6279POPC   D2A18832  12.037  29.179   8.253
 6279POPC   C3A18833  12.109  29.105   7.953
 6279POPC   C4A18834  12.084  29.190   7.653
 6279POPC   C1B18835  12.315  29.112   8.553
 6279POPC   C2B18836  12.308  29.040   8.253
 6279POPC   C3B18837  12.341  29.097   7.953
 6279POPC   C4B18838  12.289  29.052   7.653
 6280POPC   NC318839  38.431  36.100   9.453
 6280POPC   PO418840  38.466  36.110   9.153
 6280POPC   GL118841  38.406  36.081   8.853
 6280POPC   GL218842  38.536  36.057   8.853
 6280POPC   C1A18843  38.446  36.080   8.553
 6280POPC   D2A18844  38.493  36.148   8.253
 6280POPC   C3A18845  38.466  36.149   7.953
 6280POPC   C4A18846  38.449  36.171   7.653
 6280POPC   C1B18847  38.671  35.982   8.553
 6280POPC   C2B18848  38.650  36.035   8.253
 6280POPC   C3B18849  38.702  36.077   7.953
 6280POPC   C4B18850  38.674  36.018   7.653
 6281POPC   NC318851  36.894   7.383   9.453
 6281POPC   PO418852  36.887   7.418   9.153
 6281POPC   GL118853  36.913   7.381   8.853
 6281POPC   GL218854  36.818   7.515   8.853
 6281POPC   C1A18855  36.936   7.385   8.553
 6281POPC   D2A18856  36.894   7.377   8.253
 6281POPC   C3A18857  36.914   7.395   7.953
 6281POPC   C4A18858  36.865   7.415   7.653
 6281POPC   C1B18859  36.763   7.676   8.553
 6281POPC   C2B18860  36.793   7.594   8.253
 6281POPC   C3B18861  36.784   7.599   7.953
 6281POPC   C4B18862  36.730   7.623   7.653
 6282POPC   NC318863  30.720  28.370   9.453
 6282POPC   PO418864  30.681  28.336   9.153
 6282POPC   GL118865  30.665  28.323   8.853
 6282POPC   GL218866  30.595  28.363   8.853
 6282POPC   C1A18867  30.659  28.327   8.553
 6282POPC   D2A18868  30.720  28.332   8.253
 6282POPC   C3A18869  30.687  28.407   7.953
 6282POPC   C4A18870  30.651  28.325   7.653
 6282POPC   C1B18871  30.473  28.268   8.553
 6282POPC   C2B18872  30.421  28.353   8.253
 6282POPC   C3B18873  30.428  28.320   7.953
 6282POPC   C4B18874  30.472  28.285   7.653
 6283POPC   NC318875   2.812   4.331   9.453
 6283POPC   PO418876   2.794   4.348   9.153
 6283POPC   GL118877   2.782   4.309   8.853
 6283POPC   GL218878   2.732   4.202   8.853
 6283POPC   C1A18879   2.806   4.364   8.553
 6283POPC   D2A18880   2.813   4.282   8.253
 6283POPC   C3A18881   2.793   4.352   7.953
 6283POPC   C4A18882   2.811   4.283   7.653
 6283POPC   C1B18883   2.624   4.081   8.553
 6283POPC   C2B18884   2.678   4.089   8.253
 6283POPC   C3B18885   2.657   4.110   7.953
 6283POPC   C4B18886   2.654   4.101   7.653
 6284POPC   NC318887  21.426  34.531   9.453
 6284POPC   PO418888  21.338  34.568   9.153
 6284POPC   GL118889  21.344  34.591   8.853
 6284POPC   GL218890  21.368  34.651   8.853
 6284POPC   C1A18891  21.390  34.541   8.553
 6284POPC   D2A18892  21.361  34.574   8.253
 6284POPC   C3A18893  21.354  34.620   7.953
 6284POPC   C4A18894  21.361  34.531   7.653
 6284POPC   C1B18895  21.292  34.824   8.553
 6284POPC   C2B18896  21.323  34.778   8.253
 6284POPC   C3B18897  21.369  34.814   7.953
 6284POPC   C4B18898  21.375  34.833   7.653
 6285POPC   NC318899   4.320  14.362   9.453
 6285POPC   PO418900   4.314  14.399   9.153
 6285POPC   GL118901   4.356  14.442   8.853
 6285POPC   GL218902   4.160  14.356   8.853
 6285POPC   C1A18903   4.312  14.414   8.553
 6285POPC   D2A18904   4.311  14.452   8.253
 6285POPC   C3A18905   4.295  14.442   7.953
 6285POPC   C4A18906   4.269  14.375   7.653
 6285POPC   C1B18907   4.039  14.325   8.553
 6285POPC   C2B18908   4.104  14.297   8.253
 6285POPC   C3B18909   4.097  14.301   7.953
 6285POPC   C4B18910   4.077  14.351   7.653
 6286POPC   NC318911  39.200   2.723   9.453
 6286POPC   PO418912  39.186   2.737   9.153
 6286POPC   GL118913  39.281   2.720   8.853
 6286POPC   GL218914  39.222   2.650   8.853
 6286POPC   C1A18915  39.220   2.726   8.553
 6286POPC   D2A18916  39.243   2.773   8.253
 6286POPC   C3A18917  39.273   2.783   7.953
 6286POPC   C4A18918  39.198   2.813   7.653
 6286POPC   C1B18919  39.237   2.515   8.553
 6286POPC   C2B18920  39.284   2.546   8.253
 6286POPC   C3B18921  39.285   2.514   7.953
 6286POPC   C4B18922  39.261   2.481   7.653
 6287POPC   NC318923  15.977  30.665   9.453
 6287POPC   PO418924  15.997  30.705   9.153
 6287POPC   GL118925  15.955  30.715   8.853
 6287POPC   GL218926  16.101  30.767   8.853
 6287POPC   C1A18927  15.982  30.657   8.553
 6287POPC   D2A18928  15.966  30.682   8.253
 6287POPC   C3A18929  15.992  30.680   7.953
 6287POPC   C4A18930  15.992  30.725   7.653
 6287POPC   C1B18931  16.179  30.863   8.553
 6287POPC   C2B18932  16.115  30.817   8.253
 6287POPC   C3B18933  16.141  30.802   7.953
 6287POPC   C4B18934  16.138  30.871   7.653
 6288POPC   NC318935  36.090  17.547   9.453
 6288POPC   PO418936  36.093  17.491   9.153
 6288POPC   GL118937  36.171  17.462   8.853
 6288POPC   GL218938  36.245  17.554   8.853
 6288POPC   C1A18939  36.139  17.519   8.553
 6288POPC   D2A18940  36.129  17.466   8.253
 6288POPC   C3A18941  36.138  17.474   7.953
 6288POPC   C4A18942  36.134  17.523   7.653
 6288POPC   C1B18943  36.394  17.649   8.553
 6288POPC   C2B18944  36.295  17.631   8.253
 6288POPC   C3B18945  36.381  17.639   7.953
 6288POPC   C4B18946  36.328  17.593   7.653
 6289POPC   NC318947   3.586   8.163   9.453
 6289POPC   PO418948   3.531   8.199   9.153
 6289POPC   GL118949   3.568   8.173   8.853
 6289POPC   GL218950   3.419   8.252   8.853
 6289POPC   C1A18951   3.560   8.211   8.553
 6289POPC   D2A18952   3.573   8.214   8.253
 6289POPC   C3A18953   3.552   8.240   7.953
 6289POPC   C4A18954   3.507   8.241   7.653
 6289POPC   C1B18955   3.263   8.206   8.553
 6289POPC   C2B18956   3.250   8.261   8.253
 6289POPC   C3B18957   3.327   8.211   7.953
 6289POPC   C4B18958   3.280   8.237   7.653
 6290POPC   NC318959  28.349  19.057   9.453
 6290POPC   PO418960  28.340  19.104   9.153
 6290POPC   GL118961  28.326  19.010   8.853
 6290POPC   GL218962  28.291  19.153   8.853
 6290POPC   C1A18963  28.398  19.091   8.553
 6290POPC   D2A18964  28.350  19.031   8.253
 6290POPC   C3A18965  28.416  19.067   7.953
 6290POPC   C4A18966  28.320  19.048   7.653
 6290POPC   C1B18967  28.263  19.299   8.553
 6290POPC   C2B18968  28.262  19.241   8.253
 6290POPC   C3B18969  28.196  19.305   7.953
 6290POPC   C4B18970  28.268  19.221   7.653
 6291POPC   NC318971   7.444   5.844   9.453
 6291POPC   PO418972   7.452   5.885   9.153
 6291POPC   GL118973   7.469   5.850   8.853
 6291POPC   GL218974   7.399   5.703   8.853
 6291POPC   C1A18975   7.376   5.821   8.553
 6291POPC   D2A18976   7.424   5.845   8.253
 6291POPC   C3A18977   7.396   5.857   7.953
 6291POPC   C4A18978   7.434   5.835   7.653
 6291POPC   C1B18979   7.328   5.658   8.553
 6291POPC   C2B18980   7.333   5.656   8.253
 6291POPC   C3B18981   7.327   5.673   7.953
 6291POPC   C4B18982   7.332   5.676   7.653
 6292POPC   NC318983   8.244   0.407   9.453
 6292POPC   PO418984   8.152   0.431   9.153
 6292POPC   GL118985   8.231   0.471   8.853
 6292POPC   GL218986   8.084   0.412   8.853
 6292POPC   C1A18987   8.229   0.395   8.553
 6292POPC   D2A18988   8.229   0.435   8.253
 6292POPC   C3A18989   8.220   0.438   7.953
 6292POPC   C4A18990   8.158   0.445   7.653
 6292POPC   C1B18991   7.931   0.469   8.553
 6292POPC   C2B18992   7.972   0.469   8.253
 6292POPC   C3B18993   7.951   0.466   7.953
 6292POPC   C4B18994   7.911   0.470   7.653
 6293POPC   NC318995  35.376   5.887   9.453
 6293POPC   PO418996  35.377   5.831   9.153
 6293POPC   GL118997  35.307   5.850   8.853
 6293POPC   GL218998  35.524   5.824   8.853
 6293POPC   C1A18999  35.374   5.826   8.553
 6293POPC   D2A19000  35.334   5.913   8.253
 6293POPC   C3A19001  35.397   5.916   7.953
 6293POPC   C4A19002  35.357   5.833   7.653
 6293POPC   C1B19003  35.553   5.811   8.553
 6293POPC   C2B19004  35.629   5.808   8.253
 6293POPC   C3B19005  35.593   5.852   7.953
 6293POPC   C4B19006  35.602   5.817   7.653
 6294POPC   NC319007  22.923  28.414   9.453
 6294POPC   PO419008  22.939  28.399   9.153
 6294POPC   GL119009  22.922  28.386   8.853
 6294POPC   GL219010  22.827  28.385   8.853
 6294POPC   C1A19011  22.967  28.359   8.553
 6294POPC   D2A19012  22.890  28.336   8.253
 6294POPC   C3A19013  22.985  28.325   7.953
 6294POPC   C4A19014  22.959  28.359   7.653
 6294POPC   C1B19015  22.709  28.295   8.553
 6294POPC   C2B19016  22.723  28.377   8.253
 6294POPC   C3B19017  22.694  28.319   7.953
 6294POPC   C4B19018  22.733  28.377   7.653
 6295POPC   NC319019  18.242  24.483   9.453
 6295POPC   PO419020  18.277  24.511   9.153
 6295POPC   GL119021  18.299  24.518   8.853
 6295POPC   GL219022  18.361  24.375   8.853
 6295POPC   C1A19023  18.324  24.537   8.553
 6295POPC   D2A19024  18.291  24.494   8.253
 6295POPC   C3A19025  18.243  24.447   7.953
 6295POPC   C4A19026  18.257  24.458   7.653
 6295POPC   C1B19027  18.458  24.274   8.553
 6295POPC   C2B19028  18.392  24.332   8.253
 6295POPC   C3B19029  18.473  24.296   7.953
 6295POPC   C4B19030  18.404  24.329   7.653
 6296POPC   NC319031   8.949  14.358   9.453
 6296POPC   PO419032   8.958  14.416   9.153
 6296POPC   GL119033   8.924  14.408   8.853
 6296POPC   GL219034   8.807  14.457   8.853
 6296POPC   C1A19035   9.021  14.445   8.553
 6296POPC   D2A19036   8.928  14.393   8.253
 6296POPC   C3A19037   8.953  14.433   7.953
 6296POPC   C4A19038   8.977  14.445   7.653
 6296POPC   C1B19039   8.711  14.445   8.553
 6296POPC   C2B19040   8.770  14.466   8.253
 6296POPC   C3B19041   8.736  14.431   7.953
 6296POPC   C4B19042   8.732  14.463   7.653
 6297POPC   NC319043  34.542   8.242   9.453
 6297POPC   PO419044  34.571   8.230   9.153
 6297POPC   GL119045  34.589   8.240   8.853
 6297POPC   GL219046  34.606   8.108   8.853
 6297POPC   C1A19047  34.551   8.245   8.553
 6297POPC   D2A19048  34.615   8.180   8.253
 6297POPC   C3A19049  34.538   8.159   7.953
 6297POPC   C4A19050  34.530   8.184   7.653
 6297POPC   C1B19051  34.644   7.974   8.553
 6297POPC   C2B19052  34.708   8.007   8.253
 6297POPC   C3B19053  34.689   7.939   7.953
 6297POPC   C4B19054  34.637   7.994   7.653
 6298POPC   NC319055  19.020  22.891   9.453
 6298POPC   PO419056  19.037  22.936   9.153
 6298POPC   GL119057  19.030  22.975   8.853
 6298POPC   GL219058  19.188  22.970   8.853
 6298POPC   C1A19059  19.024  22.913   8.553
 6298POPC   D2A19060  19.044  22.899   8.253
 6298POPC   C3A19061  19.019  22.907   7.953
 6298POPC   C4A19062  19.077  22.945   7.653
 6298POPC   C1B19063  19.292  22.898   8.553
 6298POPC   C2B19064  19.289  22.969   8.253
 6298POPC   C3B19065  19.322  22.928   7.953
 6298POPC   C4B19066  19.277  22.928   7.653
 6299POPC   NC319067  18.293  33.045   9.453
 6299POPC   PO419068  18.288  33.019   9.153
 6299POPC   GL119069  18.302  33.074   8.853
 6299POPC   GL219070  18.343  32.916   8.853
 6299POPC   C1A19071  18.251  33.045   8.553
 6299POPC   D2A19072  18.280  33.038   8.253
 6299POPC   C3A19073  18.312  33.067   7.953
 6299POPC   C4A19074  18.313  33.029   7.653
 6299POPC   C1B19075  18.439  32.879   8.553
 6299POPC   C2B19076  18.435  32.907   8.253
 6299POPC   C3B19077  18.481  32.912   7.953
 6299POPC   C4B19078  18.523  32.821   7.653
 6300POPC   NC319079  34.573  43.107   9.453
 6300POPC   PO419080  34.600  43.114   9.153
 6300POPC   GL119081  34.533  43.062   8.853
 6300POPC   GL219082  34.487  43.224   8.853
 6300POPC   C1A19083  34.533  43.147   8.553
 6300POPC   D2A19084  34.563  43.154   8.253
 6300POPC   C3A19085  34.555  43.125   7.953
 6300POPC   C4A19086  34.565  43.112   7.653
 6300POPC   C1B19087  34.345  43.289   8.553
 6300POPC   C2B19088  34.344  43.313   8.253
 6300POPC   C3B19089  34.354  43.296   7.953
 6300POPC   C4B19090  34.410  43.292   7.653
 6301POPC   NC319091  44.658  43.881   9.453
 6301POPC   PO419092  44.688  43.895   9.153
 6301POPC   GL119093  44.706  43.899   8.853
 6301POPC   GL219094  44.750  43.943   8.853
 6301POPC   C1A19095  44.684  43.915   8.553
 6301POPC   D2A19096  44.691  43.871   8.253
 6301POPC   C3A19097  44.687  43.843   7.953
 6301POPC   C4A19098  44.662  43.914   7.653
 6301POPC   C1B19099  44.885  43.995   8.553
 6301POPC   C2B19100  44.846  44.038   8.253
 6301POPC   C3B19101  44.839  44.033   7.953
 6301POPC   C4B19102  44.879  44.047   7.653
 6302POPC   NC319103  43.089  34.541   9.453
 6302POPC   PO419104  43.126  34.544   9.153
 6302POPC   GL119105  43.071  34.615   8.853
 6302POPC   GL219106  43.043  34.687   8.853
 6302POPC   C1A19107  43.092  34.586   8.553
 6302POPC   D2A19108  43.063  34.604   8.253
 6302POPC   C3A19109  43.097  34.614   7.953
 6302POPC   C4A19110  43.148  34.537   7.653
 6302POPC   C1B19111  42.994  34.793   8.553
 6302POPC   C2B19112  43.040  34.803   8.253
 6302POPC   C3B19113  43.055  34.794   7.953
 6302POPC   C4B19114  43.056  34.837   7.653
 6303POPC   NC319115  43.908  16.697   9.453
 6303POPC   PO419116  43.924  16.734   9.153
 6303POPC   GL119117  43.869  16.682   8.853
 6303POPC   GL219118  43.832  16.631   8.853
 6303POPC   C1A19119  43.907  16.698   8.553
 6303POPC   D2A19120  43.849  16.699   8.253
 6303POPC   C3A19121  43.933  16.752   7.953
 6303POPC   C4A19122  43.840  16.737   7.653
 6303POPC   C1B19123  43.739  16.545   8.553
 6303POPC   C2B19124  43.742  16.520   8.253
 6303POPC   C3B19125  43.689  16.521   7.953
 6303POPC   C4B19126  43.725  16.551   7.653
 6304POPC   NC319127  13.592   8.235   9.453
 6304POPC   PO419128  13.644   8.177   9.153
 6304POPC   GL119129  13.608   8.170   8.853
 6304POPC   GL219130  13.477   8.198   8.853
 6304POPC   C1A19131  13.601   8.158   8.553
 6304POPC   D2A19132  13.675   8.216   8.253
 6304POPC   C3A19133  13.592   8.216   7.953
 6304POPC   C4A19134  13.662   8.153   7.653
 6304POPC   C1B19135  13.416   8.205   8.553
 6304POPC   C2B19136  13.383   8.162   8.253
 6304POPC   C3B19137  13.384   8.139   7.953
 6304POPC   C4B19138  13.372   8.181   7.653
 6305POPC   NC319139  22.935   1.166   9.453
 6305POPC   PO419140  22.918   1.200   9.153
 6305POPC   GL119141  22.928   1.228   8.853
 6305POPC   GL219142  22.833   1.128   8.853
 6305POPC   C1A19143  22.908   1.169   8.553
 6305POPC   D2A19144  22.896   1.165   8.253
 6305POPC   C3A19145  22.960   1.173   7.953
 6305POPC   C4A19146  22.890   1.194   7.653
 6305POPC   C1B19147  22.727   1.028   8.553
 6305POPC   C2B19148  22.715   1.005   8.253
 6305POPC   C3B19149  22.782   1.008   7.953
 6305POPC   C4B19150  22.766   1.021   7.653
 6306POPC   NC319151   1.257  19.798   9.453
 6306POPC   PO419152   1.184  19.834   9.153
 6306POPC   GL119153   1.235  19.851   8.853
 6306POPC   GL219154   1.124  19.708   8.853
 6306POPC   C1A19155   1.200  19.870   8.553
 6306POPC   D2A19156   1.248  19.805   8.253
 6306POPC   C3A19157   1.164  19.875   7.953
 6306POPC   C4A19158   1.196  19.855   7.653
 6306POPC   C1B19159   1.115  19.589   8.553
 6306POPC   C2B19160   1.173  19.580   8.253
 6306POPC   C3B19161   1.085  19.591   7.953
 6306POPC   C4B19162   1.151  19.633   7.653
 6307POPC   NC319163  20.589  38.443   9.453
 6307POPC   PO419164  20.580  38.468   9.153
 6307POPC   GL119165  20.619  38.424   8.853
 6307POPC   GL219166  20.722  38.534   8.853
 6307POPC   C1A19167  20.658  38.493   8.553
 6307POPC   D2A19168  20.567  38.412   8.253
 6307POPC   C3A19169  20.624  38.478   7.953
 6307POPC   C4A19170  20.627  38.494   7.653
 6307POPC   C1B19171  20.796  38.627   8.553
 6307POPC   C2B19172  20.818  38.594   8.253
 6307POPC   C3B19173  20.788  38.622   7.953
 6307POPC   C4B19174  20.832  38.609   7.653
 6308POPC   NC319175   8.947  19.012   9.453
 6308POPC   PO419176   9.000  19.027   9.153
 6308POPC   GL119177   8.991  19.036   8.853
 6308POPC   GL219178   8.997  18.895   8.853
 6308POPC   C1A19179   8.995  19.088   8.553
 6308POPC   D2A19180   9.001  19.099   8.253
 6308POPC   C3A19181   8.967  19.015   7.953
 6308POPC   C4A19182   9.016  19.062   7.653
 6308POPC   C1B19183   9.077  18.781   8.553
 6308POPC   C2B19184   9.070  18.855   8.253
 6308POPC   C3B19185   8.996  18.775   7.953
 6308POPC   C4B19186   9.020  18.791   7.653
 6309POPC   NC319187  44.615  23.763   9.453
 6309POPC   PO419188  44.687  23.677   9.153
 6309POPC   GL119189  44.659  23.714   8.853
 6309POPC   GL219190  44.714  23.582   8.853
 6309POPC   C1A19191  44.702  23.741   8.553
 6309POPC   D2A19192  44.693  23.734   8.253
 6309POPC   C3A19193  44.680  23.734   7.953
 6309POPC   C4A19194  44.683  23.758   7.653
 6309POPC   C1B19195  44.688  23.475   8.553
 6309POPC   C2B19196  44.702  23.434   8.253
 6309POPC   C3B19197  44.659  23.428   7.953
 6309POPC   C4B19198  44.692  23.497   7.653
 6310POPC   NC319199  17.535  12.048   9.453
 6310POPC   PO419200  17.489  12.048   9.153
 6310POPC   GL119201  17.476  12.041   8.853
 6310POPC   GL219202  17.618  12.054   8.853
 6310POPC   C1A19203  17.525  12.040   8.553
 6310POPC   D2A19204  17.461  12.112   8.253
 6310POPC   C3A19205  17.524  12.120   7.953
 6310POPC   C4A19206  17.517  12.111   7.653
 6310POPC   C1B19207  17.745  12.128   8.553
 6310POPC   C2B19208  17.775  12.095   8.253
 6310POPC   C3B19209  17.804  12.137   7.953
 6310POPC   C4B19210  17.765  12.069   7.653
 6311POPC   NC319211  23.722  20.600   9.453
 6311POPC   PO419212  23.682  20.624   9.153
 6311POPC   GL119213  23.761  20.650   8.853
 6311POPC   GL219214  23.741  20.696   8.853
 6311POPC   C1A19215  23.752  20.577   8.553
 6311POPC   D2A19216  23.711  20.635   8.253
 6311POPC   C3A19217  23.684  20.630   7.953
 6311POPC   C4A19218  23.760  20.649   7.653
 6311POPC   C1B19219  23.704  20.829   8.553
 6311POPC   C2B19220  23.700  20.869   8.253
 6311POPC   C3B19221  23.721  20.830   7.953
 6311POPC   C4B19222  23.719  20.877   7.653
 6312POPC   NC319223  22.977  36.909   9.453
 6312POPC   PO419224  22.915  36.869   9.153
 6312POPC   GL119225  22.915  36.911   8.853
 6312POPC   GL219226  23.016  36.890   8.853
 6312POPC   C1A19227  22.896  36.879   8.553
 6312POPC   D2A19228  22.953  36.886   8.253
 6312POPC   C3A19229  22.893  36.891   7.953
 6312POPC   C4A19230  22.932  36.916   7.653
 6312POPC   C1B19231  23.163  36.914   8.553
 6312POPC   C2B19232  23.172  36.887   8.253
 6312POPC   C3B19233  23.195  36.838   7.953
 6312POPC   C4B19234  23.235  36.859   7.653
 6313POPC   NC319235   5.101  18.250   9.453
 6313POPC   PO419236   5.122  18.325   9.153
 6313POPC   GL119237   5.100  18.257   8.853
 6313POPC   GL219238   4.994  18.274   8.853
 6313POPC   C1A19239   5.094  18.252   8.553
 6313POPC   D2A19240   5.050  18.278   8.253
 6313POPC   C3A19241   5.127  18.330   7.953
 6313POPC   C4A19242   5.095  18.322   7.653
 6313POPC   C1B19243   4.794  18.282   8.553
 6313POPC   C2B19244   4.884  18.269   8.253
 6313POPC   C3B19245   4.839  18.308   7.953
 6313POPC   C4B19246   4.830  18.255   7.653
 6314POPC   NC319247  37.687   3.522   9.453
 6314POPC   PO419248  37.729   3.505   9.153
 6314POPC   GL119249  37.718   3.498   8.853
 6314POPC   GL219250  37.675   3.694   8.853
 6314POPC   C1A19251  37.686   3.561   8.553
 6314POPC   D2A19252  37.653   3.532   8.253
 6314POPC   C3A19253  37.679   3.560   7.953
 6314POPC   C4A19254  37.724   3.501   7.653
 6314POPC   C1B19255  37.668   3.792   8.553
 6314POPC   C2B19256  37.673   3.776   8.253
 6314POPC   C3B19257  37.641   3.787   7.953
 6314POPC   C4B19258  37.680   3.800   7.653
 6315POPC   NC319259   1.168   3.494   9.453
 6315POPC   PO419260   1.252   3.526   9.153
 6315POPC   GL119261   1.245   3.503   8.853
 6315POPC   GL219262   1.201   3.401   8.853
 6315POPC   C1A19263   1.240   3.518   8.553
 6315POPC   D2A19264   1.202   3.588   8.253
 6315POPC   C3A19265   1.185   3.505   7.953
 6315POPC   C4A19266   1.214   3.497   7.653
 6315POPC   C1B19267   1.219   3.252   8.553
 6315POPC   C2B19268   1.234   3.297   8.253
 6315POPC   C3B19269   1.202   3.309   7.953
 6315POPC   C4B19270   1.245   3.256   7.653
 6316POPC   NC319271  21.383  40.013   9.453
 6316POPC   PO419272  21.388  39.994   9.153
 6316POPC   GL119273  21.340  40.040   8.853
 6316POPC   GL219274  21.260  39.915   8.853
 6316POPC   C1A19275  21.378  39.994   8.553
 6316POPC   D2A19276  21.431  39.961   8.253
 6316POPC   C3A19277  21.403  39.980   7.953
 6316POPC   C4A19278  21.410  39.991   7.653
 6316POPC   C1B19279  21.171  39.904   8.553
 6316POPC   C2B19280  21.135  39.873   8.253
 6316POPC   C3B19281  21.214  39.859   7.953
 6316POPC   C4B19282  21.168  39.865   7.653
 6317POPC   NC319283  12.031  12.806   9.453
 6317POPC   PO419284  12.039  12.894   9.153
 6317POPC   GL119285  12.054  12.867   8.853
 6317POPC   GL219286  12.194  12.902   8.853
 6317POPC   C1A19287  12.070  12.835   8.553
 6317POPC   D2A19288  12.104  12.826   8.253
 6317POPC   C3A19289  12.055  12.871   7.953
 6317POPC   C4A19290  12.072  12.886   7.653
 6317POPC   C1B19291  12.331  12.942   8.553
 6317POPC   C2B19292  12.359  12.977   8.253
 6317POPC   C3B19293  12.334  12.901   7.953
 6317POPC   C4B19294  12.333  12.935   7.653
 6318POPC   NC319295  22.933  29.949   9.453
 6318POPC   PO419296  22.900  29.969   9.153
 6318POPC   GL119297  22.969  29.910   8.853
 6318POPC   GL219298  23.052  29.967   8.853
 6318POPC   C1A19299  22.987  29.874   8.553
 6318POPC   D2A19300  22.894  29.877   8.253
 6318POPC   C3A19301  22.921  29.969   7.953
 6318POPC   C4A19302  22.904  29.905   7.653
 6318POPC   C1B19303  23.145  30.141   8.553
 6318POPC   C2B19304  23.057  30.100   8.253
 6318POPC   C3B19305  23.071  30.125   7.953
 6318POPC   C4B19306  23.116  30.151   7.653
 6319POPC   NC319307  31.476  17.505   9.453
 6319POPC   PO419308  31.519  17.465   9.153
 6319POPC   GL119309  31.446  17.489   8.853
 6319POPC   GL219310  31.492  17.673   8.853
 6319POPC   C1A19311  31.503  17.459   8.553
 6319POPC   D2A19312  31.519  17.501   8.253
 6319POPC   C3A19313  31.497  17.476   7.953
 6319POPC   C4A19314  31.463  17.529   7.653
 6319POPC   C1B19315  31.475  17.723   8.553
 6319POPC   C2B19316  31.458  17.747   8.253
 6319POPC   C3B19317  31.392  17.733   7.953
 6319POPC   C4B19318  31.456  17.739   7.653
 6320POPC   NC319319  13.654  32.298   9.453
 6320POPC   PO419320  13.581  32.260   9.153
 6320POPC   GL119321  13.653  32.226   8.853
 6320POPC   GL219322  13.718  32.328   8.853
 6320POPC   C1A19323  13.668  32.202   8.553
 6320POPC   D2A19324  13.614  32.275   8.253
 6320POPC   C3A19325  13.583  32.202   7.953
 6320POPC   C4A19326  13.653  32.231   7.653
 6320POPC   C1B19327  13.710  32.477   8.553
 6320POPC   C2B19328  13.769  32.482   8.253
 6320POPC   C3B19329  13.776  32.477   7.953
 6320POPC   C4B19330  13.726  32.504   7.653
 6321POPC   NC319331  18.279  16.780   9.453
 6321POPC   PO419332  18.245  16.733   9.153
 6321POPC   GL119333  18.276  16.771   8.853
 6321POPC   GL219334  18.309  16.839   8.853
 6321POPC   C1A19335  18.256  16.692   8.553
 6321POPC   D2A19336  18.288  16.780   8.253
 6321POPC   C3A19337  18.249  16.732   7.953
 6321POPC   C4A19338  18.240  16.759   7.653
 6321POPC   C1B19339  18.397  16.945   8.553
 6321POPC   C2B19340  18.374  16.938   8.253
 6321POPC   C3B19341  18.353  16.996   7.953
 6321POPC   C4B19342  18.447  16.949   7.653
 6322POPC   NC319343  34.590  43.928   9.453
 6322POPC   PO419344  34.620  43.911   9.153
 6322POPC   GL119345  34.573  43.931   8.853
 6322POPC   GL219346  34.573  44.006   8.853
 6322POPC   C1A19347  34.594  43.911   8.553
 6322POPC   D2A19348  34.526  43.914   8.253
 6322POPC   C3A19349  34.606  43.874   7.953
 6322POPC   C4A19350  34.625  43.866   7.653
 6322POPC   C1B19351  34.531  44.168   8.553
 6322POPC   C2B19352  34.487  44.143   8.253
 6322POPC   C3B19353  34.511  44.151   7.953
 6322POPC   C4B19354  34.527  44.148   7.653
 6323POPC   NC319355  42.371  18.270   9.453
 6323POPC   PO419356  42.285  18.302   9.153
 6323POPC   GL119357  42.302  18.314   8.853
 6323POPC   GL219358  42.264  18.342   8.853
 6323POPC   C1A19359  42.368  18.285   8.553
 6323POPC   D2A19360  42.308  18.257   8.253
 6323POPC   C3A19361  42.322  18.294   7.953
 6323POPC   C4A19362  42.330  18.251   7.653
 6323POPC   C1B19363  42.156  18.517   8.553
 6323POPC   C2B19364  42.188  18.522   8.253
 6323POPC   C3B19365  42.176  18.435   7.953
 6323POPC   C4B19366  42.152  18.435   7.653
 6324POPC   NC319367  25.298  37.644   9.453
 6324POPC   PO419368  25.289  37.688   9.153
 6324POPC   GL119369  25.280  37.680   8.853
 6324POPC   GL219370  25.201  37.771   8.853
 6324POPC   C1A19371  25.295  37.642   8.553
 6324POPC   D2A19372  25.270  37.707   8.253
 6324POPC   C3A19373  25.239  37.633   7.953
 6324POPC   C4A19374  25.242  37.698   7.653
 6324POPC   C1B19375  25.061  37.854   8.553
 6324POPC   C2B19376  25.089  37.823   8.253
 6324POPC   C3B19377  25.091  37.857   7.953
 6324POPC   C4B19378  25.083  37.873   7.653
 6325POPC   NC319379  39.263  14.451   9.453
 6325POPC   PO419380  39.270  14.387   9.153
 6325POPC   GL119381  39.191  14.364   8.853
 6325POPC   GL219382  39.212  14.531   8.853
 6325POPC   C1A19383  39.256  14.380   8.553
 6325POPC   D2A19384  39.278  14.430   8.253
 6325POPC   C3A19385  39.200  14.397   7.953
 6325POPC   C4A19386  39.218  14.427   7.653
 6325POPC   C1B19387  39.089  14.583   8.553
 6325POPC   C2B19388  39.098  14.586   8.253
 6325POPC   C3B19389  39.113  14.598   7.953
 6325POPC   C4B19390  39.095  14.624   7.653
 6326POPC   NC319391   5.069  19.821   9.453
 6326POPC   PO419392   5.107  19.837   9.153
 6326POPC   GL119393   5.092  19.818   8.853
 6326POPC   GL219394   5.172  19.715   8.853
 6326POPC   C1A19395   5.058  19.861   8.553
 6326POPC   D2A19396   5.059  19.789   8.253
 6326POPC   C3A19397   5.137  19.863   7.953
 6326POPC   C4A19398   5.089  19.812   7.653
 6326POPC   C1B19399   5.271  19.696   8.553
 6326POPC   C2B19400   5.322  19.639   8.253
 6326POPC   C3B19401   5.291  19.699   7.953
 6326POPC   C4B19402   5.285  19.718   7.653
 6327POPC   NC319403  20.603  33.805   9.453
 6327POPC   PO419404  20.640  33.767   9.153
 6327POPC   GL119405  20.646  33.774   8.853
 6327POPC   GL219406  20.686  33.683   8.853
 6327POPC   C1A19407  20.622  33.817   8.553
 6327POPC   D2A19408  20.630  33.791   8.253
 6327POPC   C3A19409  20.648  33.807   7.953
 6327POPC   C4A19410  20.619  33.833   7.653
 6327POPC   C1B19411  20.758  33.568   8.553
 6327POPC   C2B19412  20.783  33.595   8.253
 6327POPC   C3B19413  20.708  33.590   7.953
 6327POPC   C4B19414  20.800  33.587   7.653
 6328POPC   NC319415   4.358  39.258   9.453
 6328POPC   PO419416   4.295  39.201   9.153
 6328POPC   GL119417   4.339  39.243   8.853
 6328POPC   GL219418   4.250  39.108   8.853
 6328POPC   C1A19419   4.330  39.277   8.553
 6328POPC   D2A19420   4.319  39.238   8.253
 6328POPC   C3A19421   4.364  39.265   7.953
 6328POPC   C4A19422   4.342  39.224   7.653
 6328POPC   C1B19423   4.203  39.032   8.553
 6328POPC   C2B19424   4.139  39.012   8.253
 6328POPC   C3B19425   4.229  39.053   7.953
 6328POPC   C4B19426   4.209  39.035   7.653
 6329POPC   NC319427  15.204  22.917   9.453
 6329POPC   PO419428  15.177  22.926   9.153
 6329POPC   GL119429  15.228  22.986   8.853
 6329POPC   GL219430  15.117  22.897   8.853
 6329POPC   C1A19431  15.213  22.902   8.553
 6329POPC   D2A19432  15.212  22.897   8.253
 6329POPC   C3A19433  15.229  22.910   7.953
 6329POPC   C4A19434  15.170  22.931   7.653
 6329POPC   C1B19435  15.030  22.770   8.553
 6329POPC   C2B19436  14.964  22.808   8.253
 6329POPC   C3B19437  14.979  22.801   7.953
 6329POPC   C4B19438  14.942  22.748   7.653
 6330POPC   NC319439   9.737  28.385   9.453
 6330POPC   PO419440   9.705  28.418   9.153
 6330POPC   GL119441   9.768  28.335   8.853
 6330POPC   GL219442   9.794  28.500   8.853
 6330POPC   C1A19443   9.798  28.415   8.553
 6330POPC   D2A19444   9.721  28.410   8.253
 6330POPC   C3A19445   9.749  28.378   7.953
 6330POPC   C4A19446   9.749  28.390   7.653
 6330POPC   C1B19447   9.778  28.585   8.553
 6330POPC   C2B19448   9.808  28.645   8.253
 6330POPC   C3B19449   9.813  28.570   7.953
 6330POPC   C4B19450   9.826  28.650   7.653
 6331POPC   NC319451   8.164  36.937   9.453
 6331POPC   PO419452   8.198  36.871   9.153
 6331POPC   GL119453   8.161  36.938   8.853
 6331POPC   GL219454   8.118  36.965   8.853
 6331POPC   C1A19455   8.213  36.892   8.553
 6331POPC   D2A19456   8.242  36.917   8.253
 6331POPC   C3A19457   8.200  36.894   7.953
 6331POPC   C4A19458   8.231  36.882   7.653
 6331POPC   C1B19459   8.051  37.075   8.553
 6331POPC   C2B19460   8.104  37.144   8.253
 6331POPC   C3B19461   8.123  37.078   7.953
 6331POPC   C4B19462   8.070  37.167   7.653
 6332POPC   NC319463  32.210  42.356   9.453
 6332POPC   PO419464  32.211  42.372   9.153
 6332POPC   GL119465  32.277  42.325   8.853
 6332POPC   GL219466  32.256  42.172   8.853
 6332POPC   C1A19467  32.275  42.293   8.553
 6332POPC   D2A19468  32.277  42.297   8.253
 6332POPC   C3A19469  32.225  42.352   7.953
 6332POPC   C4A19470  32.251  42.357   7.653
 6332POPC   C1B19471  32.299  42.102   8.553
 6332POPC   C2B19472  32.292  42.057   8.253
 6332POPC   C3B19473  32.342  42.127   7.953
 6332POPC   C4B19474  32.269  42.056   7.653
 6333POPC   NC319475  19.050  44.667   9.453
 6333POPC   PO419476  19.022  44.700   9.153
 6333POPC   GL119477  19.096  44.704   8.853
 6333POPC   GL219478  19.018  44.561   8.853
 6333POPC   C1A19479  19.048  44.631   8.553
 6333POPC   D2A19480  19.107  44.617   8.253
 6333POPC   C3A19481  19.009  44.666   7.953
 6333POPC   C4A19482  19.105  44.682   7.653
 6333POPC   C1B19483  18.883  44.435   8.553
 6333POPC   C2B19484  18.899  44.492   8.253
 6333POPC   C3B19485  18.891  44.435   7.953
 6333POPC   C4B19486  18.895  44.483   7.653
 6334POPC   NC319487  36.946  31.522   9.453
 6334POPC   PO419488  36.869  31.426   9.153
 6334POPC   GL119489  36.884  31.439   8.853
 6334POPC   GL219490  36.863  31.563   8.853
 6334POPC   C1A19491  36.923  31.430   8.553
 6334POPC   D2A19492  36.871  31.507   8.253
 6334POPC   C3A19493  36.923  31.427   7.953
 6334POPC   C4A19494  36.916  31.427   7.653
 6334POPC   C1B19495  36.877  31.733   8.553
 6334POPC   C2B19496  36.842  31.681   8.253
 6334POPC   C3B19497  36.887  31.748   7.953
 6334POPC   C4B19498  36.848  31.704   7.653
 6335POPC   NC319499  22.161  33.807   9.453
 6335POPC   PO419500  22.195  33.782   9.153
 6335POPC   GL119501  22.164  33.780   8.853
 6335POPC   GL219502  22.248  33.686   8.853
 6335POPC   C1A19503  22.120  33.836   8.553
 6335POPC   D2A19504  22.180  33.823   8.253
 6335POPC   C3A19505  22.170  33.777   7.953
 6335POPC   C4A19506  22.163  33.780   7.653
 6335POPC   C1B19507  22.280  33.557   8.553
 6335POPC   C2B19508  22.362  33.582   8.253
 6335POPC   C3B19509  22.268  33.580   7.953
 6335POPC   C4B19510  22.327  33.583   7.653
 6336POPC   NC319511   6.684  26.864   9.453
 6336POPC   PO419512   6.602  26.830   9.153
 6336POPC   GL119513   6.597  26.771   8.853
 6336POPC   GL219514   6.750  26.820   8.853
 6336POPC   C1A19515   6.620  26.809   8.553
 6336POPC   D2A19516   6.619  26.813   8.253
 6336POPC   C3A19517   6.657  26.810   7.953
 6336POPC   C4A19518   6.604  26.818   7.653
 6336POPC   C1B19519   6.858  26.735   8.553
 6336POPC   C2B19520   6.905  26.732   8.253
 6336POPC   C3B19521   6.885  26.710   7.953
 6336POPC   C4B19522   6.918  26.760   7.653
 6337POPC   NC319523  23.671   2.721   9.453
 6337POPC   PO419524  23.694   2.748   9.153
 6337POPC   GL119525  23.729   2.811   8.853
 6337POPC   GL219526  23.637   2.858   8.853
 6337POPC   C1A19527  23.744   2.761   8.553
 6337POPC   D2A19528  23.673   2.766   8.253
 6337POPC   C3A19529  23.697   2.727   7.953
 6337POPC   C4A19530  23.672   2.759   7.653
 6337POPC   C1B19531  23.452   2.856   8.553
 6337POPC   C2B19532  23.510   2.887   8.253
 6337POPC   C3B19533  23.525   2.833   7.953
 6337POPC   C4B19534  23.521   2.822   7.653
 6338POPC   NC319535  19.100  25.256   9.453
 6338POPC   PO419536  19.075  25.276   9.153
 6338POPC   GL119537  19.056  25.261   8.853
 6338POPC   GL219538  19.026  25.132   8.853
 6338POPC   C1A19539  19.011  25.226   8.553
 6338POPC   D2A19540  19.035  25.259   8.253
 6338POPC   C3A19541  19.075  25.221   7.953
 6338POPC   C4A19542  19.054  25.218   7.653
 6338POPC   C1B19543  18.936  25.090   8.553
 6338POPC   C2B19544  18.878  25.101   8.253
 6338POPC   C3B19545  18.924  25.095   7.953
 6338POPC   C4B19546  18.959  25.041   7.653
 6339POPC   NC319547  17.525   8.159   9.453
 6339POPC   PO419548  17.528   8.157   9.153
 6339POPC   GL119549  17.495   8.164   8.853
 6339POPC   GL219550  17.655   8.287   8.853
 6339POPC   C1A19551  17.476   8.211   8.553
 6339POPC   D2A19552  17.536   8.241   8.253
 6339POPC   C3A19553  17.473   8.158   7.953
 6339POPC   C4A19554  17.531   8.217   7.653
 6339POPC   C1B19555  17.716   8.334   8.553
 6339POPC   C2B19556  17.747   8.324   8.253
 6339POPC   C3B19557  17.664   8.391   7.953
 6339POPC   C4B19558  17.708   8.331   7.653
 6340POPC   NC319559  11.338   7.380   9.453
 6340POPC   PO419560  11.330   7.392   9.153
 6340POPC   GL119561  11.270   7.393   8.853
 6340POPC   GL219562  11.199   7.486   8.853
 6340POPC   C1A19563  11.315   7.427   8.553
 6340POPC   D2A19564  11.288   7.410   8.253
 6340POPC   C3A19565  11.310   7.436   7.953
 6340POPC   C4A19566  11.318   7.408   7.653
 6340POPC   C1B19567  11.129   7.536   8.553
 6340POPC   C2B19568  11.111   7.544   8.253
 6340POPC   C3B19569  11.078   7.535   7.953
 6340POPC   C4B19570  11.076   7.553   7.653
 6341POPC   NC319571  16.752  16.739   9.453
 6341POPC   PO419572  16.701  16.744   9.153
 6341POPC   GL119573  16.774  16.735   8.853
 6341POPC   GL219574  16.821  16.647   8.853
 6341POPC   C1A19575  16.770  16.761   8.553
 6341POPC   D2A19576  16.753  16.777   8.253
 6341POPC   C3A19577  16.710  16.758   7.953
 6341POPC   C4A19578  16.736  16.768   7.653
 6341POPC   C1B19579  16.975  16.684   8.553
 6341POPC   C2B19580  16.994  16.654   8.253
 6341POPC   C3B19581  16.976  16.698   7.953
 6341POPC   C4B19582  17.004  16.643   7.653
 6342POPC   NC319583   2.788  40.055   9.453
 6342POPC   PO419584   2.729  39.995   9.153
 6342POPC   GL119585   2.756  39.995   8.853
 6342POPC   GL219586   2.732  40.142   8.853
 6342POPC   C1A19587   2.730  39.999   8.553
 6342POPC   D2A19588   2.744  39.968   8.253
 6342POPC   C3A19589   2.757  40.016   7.953
 6342POPC   C4A19590   2.768  40.010   7.653
 6342POPC   C1B19591   2.680  40.237   8.553
 6342POPC   C2B19592   2.629  40.199   8.253
 6342POPC   C3B19593   2.638  40.197   7.953
 6342POPC   C4B19594   2.665  40.260   7.653
 6343POPC   NC319595  33.071  26.006   9.453
 6343POPC   PO419596  33.021  25.993   9.153
 6343POPC   GL119597  32.990  26.023   8.853
 6343POPC   GL219598  33.060  26.140   8.853
 6343POPC   C1A19599  33.033  26.043   8.553
 6343POPC   D2A19600  32.997  26.030   8.253
 6343POPC   C3A19601  33.036  26.024   7.953
 6343POPC   C4A19602  33.001  26.091   7.653
 6343POPC   C1B19603  33.028  26.244   8.553
 6343POPC   C2B19604  33.012  26.327   8.253
 6343POPC   C3B19605  32.998  26.305   7.953
 6343POPC   C4B19606  33.045  26.318   7.653
 6344POPC   NC319607  34.570  36.119   9.453
 6344POPC   PO419608  34.526  36.103   9.153
 6344POPC   GL119609  34.586  36.147   8.853
 6344POPC   GL219610  34.516  36.267   8.853
 6344POPC   C1A19611  34.560  36.131   8.553
 6344POPC   D2A19612  34.599  36.131   8.253
 6344POPC   C3A19613  34.601  36.114   7.953
 6344POPC   C4A19614  34.548  36.104   7.653
 6344POPC   C1B19615  34.552  36.407   8.553
 6344POPC   C2B19616  34.595  36.377   8.253
 6344POPC   C3B19617  34.605  36.402   7.953
 6344POPC   C4B19618  34.594  36.405   7.653
 6345POPC   NC319619  14.430  15.130   9.453
 6345POPC   PO419620  14.400  15.168   9.153
 6345POPC   GL119621  14.423  15.187   8.853
 6345POPC   GL219622  14.497  15.059   8.853
 6345POPC   C1A19623  14.425  15.133   8.553
 6345POPC   D2A19624  14.397  15.198   8.253
 6345POPC   C3A19625  14.409  15.209   7.953
 6345POPC   C4A19626  14.355  15.172   7.653
 6345POPC   C1B19627  14.534  14.938   8.553
 6345POPC   C2B19628  14.548  14.960   8.253
 6345POPC   C3B19629  14.512  14.931   7.953
 6345POPC   C4B19630  14.579  14.960   7.653
 6346POPC   NC319631  43.093   5.086   9.453
 6346POPC   PO419632  43.084   5.123   9.153
 6346POPC   GL119633  43.105   5.138   8.853
 6346POPC   GL219634  42.979   5.063   8.853
 6346POPC   C1A19635  43.108   5.055   8.553
 6346POPC   D2A19636  43.104   5.045   8.253
 6346POPC   C3A19637  43.109   5.100   7.953
 6346POPC   C4A19638  43.076   5.127   7.653
 6346POPC   C1B19639  42.917   4.994   8.553
 6346POPC   C2B19640  42.876   5.033   8.253
 6346POPC   C3B19641  42.875   5.036   7.953
 6346POPC   C4B19642  42.911   4.976   7.653
 6347POPC   NC319643   1.229   4.319   9.453
 6347POPC   PO419644   1.180   4.295   9.153
 6347POPC   GL119645   1.224   4.367   8.853
 6347POPC   GL219646   1.251   4.187   8.853
 6347POPC   C1A19647   1.199   4.308   8.553
 6347POPC   D2A19648   1.234   4.331   8.253
 6347POPC   C3A19649   1.260   4.292   7.953
 6347POPC   C4A19650   1.222   4.366   7.653
 6347POPC   C1B19651   1.321   4.050   8.553
 6347POPC   C2B19652   1.319   4.076   8.253
 6347POPC   C3B19653   1.295   4.130   7.953
 6347POPC   C4B19654   1.283   4.072   7.653
 6348POPC   NC319655  12.036  24.471   9.453
 6348POPC   PO419656  12.061  24.484   9.153
 6348POPC   GL119657  12.069  24.530   8.853
 6348POPC   GL219658  12.103  24.599   8.853
 6348POPC   C1A19659  12.033  24.465   8.553
 6348POPC   D2A19660  12.120  24.531   8.253
 6348POPC   C3A19661  12.121  24.486   7.953
 6348POPC   C4A19662  12.102  24.532   7.653
 6348POPC   C1B19663  12.150  24.690   8.553
 6348POPC   C2B19664  12.146  24.710   8.253
 6348POPC   C3B19665  12.225  24.677   7.953
 6348POPC   C4B19666  12.208  24.669   7.653
 6349POPC   NC319667  42.325   5.085   9.453
 6349POPC   PO419668  42.311   5.074   9.153
 6349POPC   GL119669  42.359   5.117   8.853
 6349POPC   GL219670  42.239   5.202   8.853
 6349POPC   C1A19671  42.345   5.091   8.553
 6349POPC   D2A19672  42.301   5.139   8.253
 6349POPC   C3A19673  42.354   5.065   7.953
 6349POPC   C4A19674  42.296   5.072   7.653
 6349POPC   C1B19675  42.246   5.314   8.553
 6349POPC   C2B19676  42.174   5.287   8.253
 6349POPC   C3B19677  42.256   5.294   7.953
 6349POPC   C4B19678  42.213   5.284   7.653
 6350POPC   NC319679  38.422  22.925   9.453
 6350POPC   PO419680  38.421  22.925   9.153
 6350POPC   GL119681  38.425  22.963   8.853
 6350POPC   GL219682  38.510  23.107   8.853
 6350POPC   C1A19683  38.463  22.893   8.553
 6350POPC   D2A19684  38.491  22.959   8.253
 6350POPC   C3A19685  38.495  22.945   7.953
 6350POPC   C4A19686  38.420  22.981   7.653
 6350POPC   C1B19687  38.506  23.190   8.553
 6350POPC   C2B19688  38.467  23.199   8.253
 6350POPC   C3B19689  38.486  23.172   7.953
 6350POPC   C4B19690  38.494  23.237   7.653
 6351POPC   NC319691  13.663  22.138   9.453
 6351POPC   PO419692  13.606  22.119   9.153
 6351POPC   GL119693  13.674  22.135   8.853
 6351POPC   GL219694  13.589  22.306   8.853
 6351POPC   C1A19695  13.632  22.180   8.553
 6351POPC   D2A19696  13.596  22.144   8.253
 6351POPC   C3A19697  13.593  22.153   7.953
 6351POPC   C4A19698  13.661  22.154   7.653
 6351POPC   C1B19699  13.495  22.347   8.553
 6351POPC   C2B19700  13.466  22.405   8.253
 6351POPC   C3B19701  13.473  22.427   7.953
 6351POPC   C4B19702  13.543  22.423   7.653
 6352POPC   NC319703  43.908  39.191   9.453
 6352POPC   PO419704  43.837  39.213   9.153
 6352POPC   GL119705  43.896  39.204   8.853
 6352POPC   GL219706  43.773  39.275   8.853
 6352POPC   C1A19707  43.924  39.236   8.553
 6352POPC   D2A19708  43.896  39.229   8.253
 6352POPC   C3A19709  43.841  39.257   7.953
 6352POPC   C4A19710  43.881  39.236   7.653
 6352POPC   C1B19711  43.631  39.360   8.553
 6352POPC   C2B19712  43.625  39.370   8.253
 6352POPC   C3B19713  43.645  39.406   7.953
 6352POPC   C4B19714  43.649  39.394   7.653
 6353POPC   NC319715  17.502  19.082   9.453
 6353POPC   PO419716  17.543  19.010   9.153
 6353POPC   GL119717  17.535  19.036   8.853
 6353POPC   GL219718  17.525  19.186   8.853
 6353POPC   C1A19719  17.529  19.080   8.553
 6353POPC   D2A19720  17.470  19.028   8.253
 6353POPC   C3A19721  17.529  19.011   7.953
 6353POPC   C4A19722  17.532  19.056   7.653
 6353POPC   C1B19723  17.493  19.267   8.553
 6353POPC   C2B19724  17.479  19.330   8.253
 6353POPC   C3B19725  17.465  19.300   7.953
 6353POPC   C4B19726  17.442  19.326   7.653
 6354POPC   NC319727   4.282  44.635   9.453
 6354POPC   PO419728   4.293  44.660   9.153
 6354POPC   GL119729   4.316  44.640   8.853
 6354POPC   GL219730   4.454  44.709   8.853
 6354POPC   C1A19731   4.274  44.614   8.553
 6354POPC   D2A19732   4.287  44.664   8.253
 6354POPC   C3A19733   4.287  44.702   7.953
 6354POPC   C4A19734   4.314  44.706   7.653
 6354POPC   C1B19735   4.563  44.759   8.553
 6354POPC   C2B19736   4.563  44.748   8.253
 6354POPC   C3B19737   4.529  44.815   7.953
 6354POPC   C4B19738   4.507  44.846   7.653
 6355POPC   NC319739  15.188  15.171   9.453
 6355POPC   PO419740  15.197  15.211   9.153
 6355POPC   GL119741  15.141  15.154   8.853
 6355POPC   GL219742  15.151  15.306   8.853
 6355POPC   C1A19743  15.211  15.223   8.553
 6355POPC   D2A19744  15.157  15.166   8.253
 6355POPC   C3A19745  15.137  15.190   7.953
 6355POPC   C4A19746  15.134  15.154   7.653
 6355POPC   C1B19747  15.218  15.450   8.553
 6355POPC   C2B19748  15.166  15.475   8.253
 6355POPC   C3B19749  15.188  15.383   7.953
 6355POPC   C4B19750  15.190  15.422   7.653
 6356POPC   NC319751  33.041  17.532   9.453
 6356POPC   PO419752  33.054  17.523   9.153
 6356POPC   GL119753  32.990  17.543   8.853
 6356POPC   GL219754  32.930  17.570   8.853
 6356POPC   C1A19755  33.069  17.536   8.553
 6356POPC   D2A19756  33.026  17.505   8.253
 6356POPC   C3A19757  33.046  17.466   7.953
 6356POPC   C4A19758  33.057  17.461   7.653
 6356POPC   C1B19759  32.767  17.590   8.553
 6356POPC   C2B19760  32.815  17.582   8.253
 6356POPC   C3B19761  32.774  17.550   7.953
 6356POPC   C4B19762  32.817  17.573   7.653
 6357POPC   NC319763  22.138  22.125   9.453
 6357POPC   PO419764  22.189  22.208   9.153
 6357POPC   GL119765  22.201  22.204   8.853
 6357POPC   GL219766  22.045  22.214   8.853
 6357POPC   C1A19767  22.126  22.172   8.553
 6357POPC   D2A19768  22.183  22.140   8.253
 6357POPC   C3A19769  22.130  22.137   7.953
 6357POPC   C4A19770  22.155  22.184   7.653
 6357POPC   C1B19771  21.963  22.266   8.553
 6357POPC   C2B19772  21.991  22.342   8.253
 6357POPC   C3B19773  21.934  22.317   7.953
 6357POPC   C4B19774  21.909  22.258   7.653
 6358POPC   NC319775  23.700  16.728   9.453
 6358POPC   PO419776  23.750  16.691   9.153
 6358POPC   GL119777  23.728  16.729   8.853
 6358POPC   GL219778  23.806  16.753   8.853
 6358POPC   C1A19779  23.712  16.707   8.553
 6358POPC   D2A19780  23.760  16.777   8.253
 6358POPC   C3A19781  23.719  16.697   7.953
 6358POPC   C4A19782  23.725  16.748   7.653
 6358POPC   C1B19783  23.990  16.738   8.553
 6358POPC   C2B19784  23.938  16.670   8.253
 6358POPC   C3B19785  23.965  16.665   7.953
 6358POPC   C4B19786  23.953  16.740   7.653
 6359POPC   NC319787   8.185  16.754   9.453
 6359POPC   PO419788   8.162  16.729   9.153
 6359POPC   GL119789   8.197  16.730   8.853
 6359POPC   GL219790   8.342  16.755   8.853
 6359POPC   C1A19791   8.198  16.698   8.553
 6359POPC   D2A19792   8.164  16.692   8.253
 6359POPC   C3A19793   8.177  16.781   7.953
 6359POPC   C4A19794   8.175  16.748   7.653
 6359POPC   C1B19795   8.476  16.716   8.553
 6359POPC   C2B19796   8.417  16.698   8.253
 6359POPC   C3B19797   8.421  16.749   7.953
 6359POPC   C4B19798   8.405  16.690   7.653
 6360POPC   NC319799  35.306  32.275   9.453
 6360POPC   PO419800  35.392  32.220   9.153
 6360POPC   GL119801  35.322  32.208   8.853
 6360POPC   GL219802  35.384  32.316   8.853
 6360POPC   C1A19803  35.389  32.285   8.553
 6360POPC   D2A19804  35.350  32.204   8.253
 6360POPC   C3A19805  35.320  32.223   7.953
 6360POPC   C4A19806  35.358  32.203   7.653
 6360POPC   C1B19807  35.516  32.485   8.553
 6360POPC   C2B19808  35.467  32.401   8.253
 6360POPC   C3B19809  35.535  32.439   7.953
 6360POPC   C4B19810  35.525  32.410   7.653
 6361POPC   NC319811  21.353  26.818   9.453
 6361POPC   PO419812  21.410  26.862   9.153
 6361POPC   GL119813  21.354  26.858   8.853
 6361POPC   GL219814  21.555  26.778   8.853
 6361POPC   C1A19815  21.354  26.862   8.553
 6361POPC   D2A19816  21.422  26.855   8.253
 6361POPC   C3A19817  21.411  26.849   7.953
 6361POPC   C4A19818  21.426  26.850   7.653
 6361POPC   C1B19819  21.649  26.810   8.553
 6361POPC   C2B19820  21.588  26.783   8.253
 6361POPC   C3B19821  21.669  26.753   7.953
 6361POPC   C4B19822  21.610  26.772   7.653
 6362POPC   NC319823  19.045  26.786   9.453
 6362POPC   PO419824  19.103  26.846   9.153
 6362POPC   GL119825  19.088  26.778   8.853
 6362POPC   GL219826  18.923  26.787   8.853
 6362POPC   C1A19827  19.088  26.854   8.553
 6362POPC   D2A19828  19.077  26.779   8.253
 6362POPC   C3A19829  19.080  26.804   7.953
 6362POPC   C4A19830  19.098  26.779   7.653
 6362POPC   C1B19831  18.846  26.815   8.553
 6362POPC   C2B19832  18.840  26.770   8.253
 6362POPC   C3B19833  18.763  26.731   7.953
 6362POPC   C4B19834  18.804  26.749   7.653
 6363POPC   NC319835   1.972  41.583   9.453
 6363POPC   PO419836   1.947  41.511   9.153
 6363POPC   GL119837   2.030  41.511   8.853
 6363POPC   GL219838   2.072  41.517   8.853
 6363POPC   C1A19839   1.947  41.541   8.553
 6363POPC   D2A19840   2.005  41.598   8.253
 6363POPC   C3A19841   1.940  41.510   7.953
 6363POPC   C4A19842   1.981  41.548   7.653
 6363POPC   C1B19843   2.222  41.364   8.553
 6363POPC   C2B19844   2.199  41.381   8.253
 6363POPC   C3B19845   2.192  41.343   7.953
 6363POPC   C4B19846   2.202  41.423   7.653
 6364POPC   NC319847   5.900  38.438   9.453
 6364POPC   PO419848   5.876  38.495   9.153
 6364POPC   GL119849   5.904  38.456   8.853
 6364POPC   GL219850   5.744  38.537   8.853
 6364POPC   C1A19851   5.842  38.414   8.553
 6364POPC   D2A19852   5.848  38.446   8.253
 6364POPC   C3A19853   5.908  38.446   7.953
 6364POPC   C4A19854   5.862  38.408   7.653
 6364POPC   C1B19855   5.708  38.640   8.553
 6364POPC   C2B19856   5.685  38.589   8.253
 6364POPC   C3B19857   5.694  38.601   7.953
 6364POPC   C4B19858   5.688  38.589   7.653
 6365POPC   NC319859   7.461  43.908   9.453
 6365POPC   PO419860   7.401  43.895   9.153
 6365POPC   GL119861   7.434  43.860   8.853
 6365POPC   GL219862   7.379  43.741   8.853
 6365POPC   C1A19863   7.376  43.870   8.553
 6365POPC   D2A19864   7.404  43.882   8.253
 6365POPC   C3A19865   7.373  43.894   7.953
 6365POPC   C4A19866   7.403  43.876   7.653
 6365POPC   C1B19867   7.322  43.701   8.553
 6365POPC   C2B19868   7.269  43.686   8.253
 6365POPC   C3B19869   7.241  43.695   7.953
 6365POPC   C4B19870   7.268  43.705   7.653
 6366POPC   NC319871  12.826  27.636   9.453
 6366POPC   PO419872  12.820  27.560   9.153
 6366POPC   GL119873  12.831  27.636   8.853
 6366POPC   GL219874  12.868  27.720   8.853
 6366POPC   C1A19875  12.896  27.580   8.553
 6366POPC   D2A19876  12.870  27.572   8.253
 6366POPC   C3A19877  12.827  27.571   7.953
 6366POPC   C4A19878  12.892  27.607   7.653
 6366POPC   C1B19879  12.875  27.884   8.553
 6366POPC   C2B19880  12.878  27.805   8.253
 6366POPC   C3B19881  12.866  27.806   7.953
 6366POPC   C4B19882  12.894  27.792   7.653
 6367POPC   NC319883   5.829  42.372   9.453
 6367POPC   PO419884   5.895  42.287   9.153
 6367POPC   GL119885   5.864  42.305   8.853
 6367POPC   GL219886   5.927  42.437   8.853
 6367POPC   C1A19887   5.916  42.294   8.553
 6367POPC   D2A19888   5.842  42.365   8.253
 6367POPC   C3A19889   5.866  42.357   7.953
 6367POPC   C4A19890   5.892  42.290   7.653
 6367POPC   C1B19891   5.876  42.630   8.553
 6367POPC   C2B19892   5.923  42.612   8.253
 6367POPC   C3B19893   5.862  42.552   7.953
 6367POPC   C4B19894   5.934  42.550   7.653
 6368POPC   NC319895  14.430   6.663   9.453
 6368POPC   PO419896  14.446   6.622   9.153
 6368POPC   GL119897  14.385   6.628   8.853
 6368POPC   GL219898  14.379   6.725   8.853
 6368POPC   C1A19899  14.383   6.620   8.553
 6368POPC   D2A19900  14.426   6.634   8.253
 6368POPC   C3A19901  14.392   6.683   7.953
 6368POPC   C4A19902  14.428   6.667   7.653
 6368POPC   C1B19903  14.468   6.868   8.553
 6368POPC   C2B19904  14.423   6.878   8.253
 6368POPC   C3B19905  14.418   6.899   7.953
 6368POPC   C4B19906  14.405   6.845   7.653
 6369POPC   NC319907  42.310  30.649   9.453
 6369POPC   PO419908  42.322  30.689   9.153
 6369POPC   GL119909  42.347  30.650   8.853
 6369POPC   GL219910  42.251  30.663   8.853
 6369POPC   C1A19911  42.353  30.671   8.553
 6369POPC   D2A19912  42.298  30.725   8.253
 6369POPC   C3A19913  42.349  30.726   7.953
 6369POPC   C4A19914  42.359  30.741   7.653
 6369POPC   C1B19915  42.191  30.523   8.553
 6369POPC   C2B19916  42.126  30.489   8.253
 6369POPC   C3B19917  42.161  30.536   7.953
 6369POPC   C4B19918  42.135  30.524   7.653
 6370POPC   NC319919   2.013  21.433   9.453
 6370POPC   PO419920   2.003  21.428   9.153
 6370POPC   GL119921   1.985  21.415   8.853
 6370POPC   GL219922   1.895  21.467   8.853
 6370POPC   C1A19923   1.997  21.371   8.553
 6370POPC   D2A19924   1.997  21.402   8.253
 6370POPC   C3A19925   1.956  21.362   7.953
 6370POPC   C4A19926   2.026  21.435   7.653
 6370POPC   C1B19927   1.773  21.473   8.553
 6370POPC   C2B19928   1.779  21.459   8.253
 6370POPC   C3B19929   1.770  21.466   7.953
 6370POPC   C4B19930   1.763  21.496   7.653
 6371POPC   NC319931  25.314  38.497   9.453
 6371POPC   PO419932  25.303  38.499   9.153
 6371POPC   GL119933  25.312  38.503   8.853
 6371POPC   GL219934  25.247  38.628   8.853
 6371POPC   C1A19935  25.238  38.441   8.553
 6371POPC   D2A19936  25.305  38.455   8.253
 6371POPC   C3A19937  25.269  38.416   7.953
 6371POPC   C4A19938  25.228  38.447   7.653
 6371POPC   C1B19939  25.243  38.739   8.553
 6371POPC   C2B19940  25.233  38.723   8.253
 6371POPC   C3B19941  25.314  38.717   7.953
 6371POPC   C4B19942  25.297  38.746   7.653
 6372POPC   NC319943  15.939   1.243   9.453
 6372POPC   PO419944  15.985   1.261   9.153
 6372POPC   GL119945  15.986   1.249   8.853
 6372POPC   GL219946  15.982   1.355   8.853
 6372POPC   C1A19947  15.918   1.168   8.553
 6372POPC   D2A19948  15.923   1.244   8.253
 6372POPC   C3A19949  15.906   1.171   7.953
 6372POPC   C4A19950  15.933   1.260   7.653
 6372POPC   C1B19951  16.023   1.440   8.553
 6372POPC   C2B19952  16.033   1.492   8.253
 6372POPC   C3B19953  16.069   1.495   7.953
 6372POPC   C4B19954  16.030   1.446   7.653
 6373POPC   NC319955  19.791  18.309   9.453
 6373POPC   PO419956  19.823  18.243   9.153
 6373POPC   GL119957  19.819  18.287   8.853
 6373POPC   GL219958  19.782  18.160   8.853
 6373POPC   C1A19959  19.809  18.248   8.553
 6373POPC   D2A19960  19.826  18.315   8.253
 6373POPC   C3A19961  19.832  18.255   7.953
 6373POPC   C4A19962  19.786  18.269   7.653
 6373POPC   C1B19963  19.671  18.089   8.553
 6373POPC   C2B19964  19.642  18.131   8.253
 6373POPC   C3B19965  19.644  18.085   7.953
 6373POPC   C4B19966  19.686  18.118   7.653
 6374POPC   NC319967  32.289  17.523   9.453
 6374POPC   PO419968  32.255  17.534   9.153
 6374POPC   GL119969  32.264  17.473   8.853
 6374POPC   GL219970  32.355  17.454   8.853
 6374POPC   C1A19971  32.287  17.486   8.553
 6374POPC   D2A19972  32.274  17.520   8.253
 6374POPC   C3A19973  32.231  17.543   7.953
 6374POPC   C4A19974  32.211  17.491   7.653
 6374POPC   C1B19975  32.476  17.413   8.553
 6374POPC   C2B19976  32.452  17.410   8.253
 6374POPC   C3B19977  32.488  17.444   7.953
 6374POPC   C4B19978  32.456  17.487   7.653
 6375POPC   NC319979  39.258  16.718   9.453
 6375POPC   PO419980  39.233  16.764   9.153
 6375POPC   GL119981  39.222  16.753   8.853
 6375POPC   GL219982  39.149  16.749   8.853
 6375POPC   C1A19983  39.264  16.746   8.553
 6375POPC   D2A19984  39.265  16.729   8.253
 6375POPC   C3A19985  39.236  16.718   7.953
 6375POPC   C4A19986  39.197  16.738   7.653
 6375POPC   C1B19987  39.035  16.792   8.553
 6375POPC   C2B19988  38.999  16.847   8.253
 6375POPC   C3B19989  38.984  16.793   7.953
 6375POPC   C4B19990  38.980  16.816   7.653
 6376POPC   NC319991  39.212  22.211   9.453
 6376POPC   PO419992  39.259  22.178   9.153
 6376POPC   GL119993  39.204  22.128   8.853
 6376POPC   GL219994  39.122  22.073   8.853
 6376POPC   C1A19995  39.205  22.115   8.553
 6376POPC   D2A19996  39.276  22.171   8.253
 6376POPC   C3A19997  39.211  22.172   7.953
 6376POPC   C4A19998  39.232  22.178   7.653
 6376POPC   C1B19999  38.960  22.088   8.553
 6376POPC   C2B20000  39.012  22.051   8.253
 6376POPC   C3B20001  38.988  22.037   7.953
 6376POPC   C4B20002  38.961  22.045   7.653
 6377POPC   NC320003  22.984  26.861   9.453
 6377POPC   PO420004  22.951  26.781   9.153
 6377POPC   GL120005  22.916  26.780   8.853
 6377POPC   GL220006  22.882  26.928   8.853
 6377POPC   C1A20007  22.952  26.831   8.553
 6377POPC   D2A20008  22.928  26.821   8.253
 6377POPC   C3A20009  22.890  26.771   7.953
 6377POPC   C4A20010  22.987  26.830   7.653
 6377POPC   C1B20011  22.837  27.022   8.553
 6377POPC   C2B20012  22.818  27.001   8.253
 6377POPC   C3B20013  22.869  27.060   7.953
 6377POPC   C4B20014  22.848  27.010   7.653
 6378POPC   NC320015   8.164  13.616   9.453
 6378POPC   PO420016   8.202  13.589   9.153
 6378POPC   GL120017   8.213  13.615   8.853
 6378POPC   GL220018   8.267  13.570   8.853
 6378POPC   C1A20019   8.152  13.624   8.553
 6378POPC   D2A20020   8.242  13.660   8.253
 6378POPC   C3A20021   8.192  13.594   7.953
 6378POPC   C4A20022   8.178  13.591   7.653
 6378POPC   C1B20023   8.346  13.502   8.553
 6378POPC   C2B20024   8.373  13.508   8.253
 6378POPC   C3B20025   8.362  13.489   7.953
 6378POPC   C4B20026   8.422  13.467   7.653
 6379POPC   NC320027  21.362  41.569   9.453
 6379POPC   PO420028  21.413  41.584   9.153
 6379POPC   GL120029  21.398  41.597   8.853
 6379POPC   GL220030  21.332  41.487   8.853
 6379POPC   C1A20031  21.379  41.519   8.553
 6379POPC   D2A20032  21.413  41.565   8.253
 6379POPC   C3A20033  21.412  41.579   7.953
 6379POPC   C4A20034  21.372  41.557   7.653
 6379POPC   C1B20035  21.234  41.409   8.553
 6379POPC   C2B20036  21.242  41.410   8.253
 6379POPC   C3B20037  21.267  41.333   7.953
 6379POPC   C4B20038  21.234  41.350   7.653
 6380POPC   NC320039  44.624  22.142   9.453
 6380POPC   PO420040  44.655  22.147   9.153
 6380POPC   GL120041  44.691  22.195   8.853
 6380POPC   GL220042  44.728  22.263   8.853
 6380POPC   C1A20043  44.674  22.127   8.553
 6380POPC   D2A20044  44.696  22.150   8.253
 6380POPC   C3A20045  44.692  22.205   7.953
 6380POPC   C4A20046  44.639  22.158   7.653
 6380POPC   C1B20047  44.874  22.343   8.553
 6380POPC   C2B20048  44.835  22.356   8.253
 6380POPC   C3B20049  44.832  22.319   7.953
 6380POPC   C4B20050  44.865  22.371   7.653
 6381POPC   NC320051   1.959   3.578   9.453
 6381POPC   PO420052   2.018   3.586   9.153
 6381POPC   GL120053   2.030   3.495   8.853
 6381POPC   GL220054   1.934   3.416   8.853
 6381POPC   C1A20055   1.973   3.527   8.553
 6381POPC   D2A20056   2.012   3.520   8.253
 6381POPC   C3A20057   1.947   3.528   7.953
 6381POPC   C4A20058   1.977   3.498   7.653
 6381POPC   C1B20059   1.900   3.296   8.553
 6381POPC   C2B20060   1.927   3.324   8.253
 6381POPC   C3B20061   1.927   3.307   7.953
 6381POPC   C4B20062   1.929   3.324   7.653
 6382POPC   NC320063  22.204  17.480   9.453
 6382POPC   PO420064  22.207  17.519   9.153
 6382POPC   GL120065  22.113  17.508   8.853
 6382POPC   GL220066  22.068  17.634   8.853
 6382POPC   C1A20067  22.135  17.492   8.553
 6382POPC   D2A20068  22.172  17.525   8.253
 6382POPC   C3A20069  22.137  17.546   7.953
 6382POPC   C4A20070  22.205  17.519   7.653
 6382POPC   C1B20071  22.040  17.674   8.553
 6382POPC   C2B20072  22.022  17.764   8.253
 6382POPC   C3B20073  22.057  17.770   7.953
 6382POPC   C4B20074  22.076  17.682   7.653
 6383POPC   NC320075  39.267  13.618   9.453
 6383POPC   PO420076  39.263  13.605   9.153
 6383POPC   GL120077  39.218  13.609   8.853
 6383POPC   GL220078  39.391  13.677   8.853
 6383POPC   C1A20079  39.189  13.651   8.553
 6383POPC   D2A20080  39.237  13.669   8.253
 6383POPC   C3A20081  39.207  13.673   7.953
 6383POPC   C4A20082  39.239  13.594   7.653
 6383POPC   C1B20083  39.516  13.595   8.553
 6383POPC   C2B20084  39.504  13.617   8.253
 6383POPC   C3B20085  39.450  13.599   7.953
 6383POPC   C4B20086  39.454  13.684   7.653
 6384POPC   NC320087  16.712  31.465   9.453
 6384POPC   PO420088  16.734  31.469   9.153
 6384POPC   GL120089  16.761  31.497   8.853
 6384POPC   GL220090  16.672  31.353   8.853
 6384POPC   C1A20091  16.754  31.487   8.553
 6384POPC   D2A20092  16.748  31.522   8.253
 6384POPC   C3A20093  16.746  31.425   7.953
 6384POPC   C4A20094  16.704  31.428   7.653
 6384POPC   C1B20095  16.678  31.241   8.553
 6384POPC   C2B20096  16.640  31.179   8.253
 6384POPC   C3B20097  16.652  31.239   7.953
 6384POPC   C4B20098  16.718  31.246   7.653
 6385POPC   NC320099   2.814   2.751   9.453
 6385POPC   PO420100   2.716   2.743   9.153
 6385POPC   GL120101   2.805   2.772   8.853
 6385POPC   GL220102   2.887   2.810   8.853
 6385POPC   C1A20103   2.792   2.808   8.553
 6385POPC   D2A20104   2.736   2.724   8.253
 6385POPC   C3A20105   2.729   2.783   7.953
 6385POPC   C4A20106   2.724   2.732   7.653
 6385POPC   C1B20107   2.994   2.914   8.553
 6385POPC   C2B20108   2.965   2.923   8.253
 6385POPC   C3B20109   3.019   2.920   7.953
 6385POPC   C4B20110   3.027   2.835   7.653
 6386POPC   NC320111  28.348  42.311   9.453
 6386POPC   PO420112  28.416  42.352   9.153
 6386POPC   GL120113  28.362  42.364   8.853
 6386POPC   GL220114  28.469  42.201   8.853
 6386POPC   C1A20115  28.334  42.305   8.553
 6386POPC   D2A20116  28.409  42.295   8.253
 6386POPC   C3A20117  28.344  42.356   7.953
 6386POPC   C4A20118  28.363  42.358   7.653
 6386POPC   C1B20119  28.524  42.119   8.553
 6386POPC   C2B20120  28.503  42.132   8.253
 6386POPC   C3B20121  28.560  42.201   7.953
 6386POPC   C4B20122  28.542  42.151   7.653
 6387POPC   NC320123  35.364   5.092   9.453
 6387POPC   PO420124  35.394   5.048   9.153
 6387POPC   GL120125  35.377   5.098   8.853
 6387POPC   GL220126  35.336   5.189   8.853
 6387POPC   C1A20127  35.352   5.126   8.553
 6387POPC   D2A20128  35.391   5.087   8.253
 6387POPC   C3A20129  35.338   5.083   7.953
 6387POPC   C4A20130  35.382   5.096   7.653
 6387POPC   C1B20131  35.283   5.279   8.553
 6387POPC   C2B20132  35.205   5.285   8.253
 6387POPC   C3B20133  35.219   5.343   7.953
 6387POPC   C4B20134  35.208   5.332   7.653
 6388POPC   NC320135   5.095  23.689   9.453
 6388POPC   PO420136   5.093  23.701   9.153
 6388POPC   GL120137   5.065  23.739   8.853
 6388POPC   GL220138   5.047  23.667   8.853
 6388POPC   C1A20139   5.048  23.754   8.553
 6388POPC   D2A20140   5.140  23.682   8.253
 6388POPC   C3A20141   5.096  23.722   7.953
 6388POPC   C4A20142   5.046  23.701   7.653
 6388POPC   C1B20143   4.902  23.516   8.553
 6388POPC   C2B20144   4.863  23.555   8.253
 6388POPC   C3B20145   4.910  23.564   7.953
 6388POPC   C4B20146   4.892  23.512   7.653
 6389POPC   NC320147  22.921  42.380   9.453
 6389POPC   PO420148  22.921  42.290   9.153
 6389POPC   GL120149  22.901  42.350   8.853
 6389POPC   GL220150  23.068  42.267   8.853
 6389POPC   C1A20151  22.965  42.380   8.553
 6389POPC   D2A20152  22.979  42.364   8.253
 6389POPC   C3A20153  22.969  42.384   7.953
 6389POPC   C4A20154  22.980  42.384   7.653
 6389POPC   C1B20155  23.165  42.220   8.553
 6389POPC   C2B20156  23.125  42.147   8.253
 6389POPC   C3B20157  23.111  42.225   7.953
 6389POPC   C4B20158  23.141  42.201   7.653
 6390POPC   NC320159  10.554  25.248   9.453
 6390POPC   PO420160  10.497  25.227   9.153
 6390POPC   GL120161  10.484  25.270   8.853
 6390POPC   GL220162  10.538  25.352   8.853
 6390POPC   C1A20163  10.554  25.277   8.553
 6390POPC   D2A20164  10.506  25.228   8.253
 6390POPC   C3A20165  10.567  25.273   7.953
 6390POPC   C4A20166  10.495  25.252   7.653
 6390POPC   C1B20167  10.425  25.545   8.553
 6390POPC   C2B20168  10.460  25.505   8.253
 6390POPC   C3B20169  10.445  25.530   7.953
 6390POPC   C4B20170  10.467  25.493   7.653
 6391POPC   NC320171  29.919  28.361   9.453
 6391POPC   PO420172  29.877  28.336   9.153
 6391POPC   GL120173  29.898  28.329   8.853
 6391POPC   GL220174  29.845  28.264   8.853
 6391POPC   C1A20175  29.918  28.393   8.553
 6391POPC   D2A20176  29.924  28.343   8.253
 6391POPC   C3A20177  29.942  28.360   7.953
 6391POPC   C4A20178  29.934  28.372   7.653
 6391POPC   C1B20179  29.718  28.196   8.553
 6391POPC   C2B20180  29.715  28.199   8.253
 6391POPC   C3B20181  29.744  28.220   7.953
 6391POPC   C4B20182  29.758  28.223   7.653
 6392POPC   NC320183   4.313  12.853   9.453
 6392POPC   PO420184   4.273  12.893   9.153
 6392POPC   GL120185   4.306  12.802   8.853
 6392POPC   GL220186   4.405  12.851   8.853
 6392POPC   C1A20187   4.355  12.897   8.553
 6392POPC   D2A20188   4.331  12.825   8.253
 6392POPC   C3A20189   4.344  12.836   7.953
 6392POPC   C4A20190   4.319  12.862   7.653
 6392POPC   C1B20191   4.586  12.923   8.553
 6392POPC   C2B20192   4.587  12.877   8.253
 6392POPC   C3B20193   4.612  12.917   7.953
 6392POPC   C4B20194   4.516  12.886   7.653
 6393POPC   NC320195   8.939  39.206   9.453
 6393POPC   PO420196   8.989  39.251   9.153
 6393POPC   GL120197   8.935  39.261   8.853
 6393POPC   GL220198   9.110  39.345   8.853
 6393POPC   C1A20199   8.994  39.250   8.553
 6393POPC   D2A20200   9.013  39.202   8.253
 6393POPC   C3A20201   9.008  39.259   7.953
 6393POPC   C4A20202   8.923  39.264   7.653
 6393POPC   C1B20203   9.139  39.337   8.553
 6393POPC   C2B20204   9.169  39.377   8.253
 6393POPC   C3B20205   9.202  39.403   7.953
 6393POPC   C4B20206   9.200  39.330   7.653
 6394POPC   NC320207  30.743  33.001   9.453
 6394POPC   PO420208  30.726  32.999   9.153
 6394POPC   GL120209  30.741  32.995   8.853
 6394POPC   GL220210  30.586  33.086   8.853
 6394POPC   C1A20211  30.730  33.065   8.553
 6394POPC   D2A20212  30.676  33.051   8.253
 6394POPC   C3A20213  30.727  32.976   7.953
 6394POPC   C4A20214  30.691  32.998   7.653
 6394POPC   C1B20215  30.534  33.243   8.553
 6394POPC   C2B20216  30.606  33.286   8.253
 6394POPC   C3B20217  30.615  33.261   7.953
 6394POPC   C4B20218  30.605  33.224   7.653
 6395POPC   NC320219  37.697  24.535   9.453
 6395POPC   PO420220  37.694  24.528   9.153
 6395POPC   GL120221  37.652  24.475   8.853
 6395POPC   GL220222  37.797  24.363   8.853
 6395POPC   C1A20223  37.726  24.457   8.553
 6395POPC   D2A20224  37.727  24.522   8.253
 6395POPC   C3A20225  37.701  24.527   7.953
 6395POPC   C4A20226  37.728  24.497   7.653
 6395POPC   C1B20227  37.866  24.358   8.553
 6395POPC   C2B20228  37.824  24.338   8.253
 6395POPC   C3B20229  37.856  24.348   7.953
 6395POPC   C4B20230  37.813  24.281   7.653
 6396POPC   NC320231  40.009   9.729   9.453
 6396POPC   PO420232  40.000   9.705   9.153
 6396POPC   GL120233  40.021   9.742   8.853
 6396POPC   GL220234  40.159   9.749   8.853
 6396POPC   C1A20235  40.020   9.716   8.553
 6396POPC   D2A20236  40.019   9.735   8.253
 6396POPC   C3A20237  40.042   9.735   7.953
 6396POPC   C4A20238  40.034   9.747   7.653
 6396POPC   C1B20239  40.255   9.663   8.553
 6396POPC   C2B20240  40.239   9.668   8.253
 6396POPC   C3B20241  40.219   9.662   7.953
 6396POPC   C4B20242  40.236   9.711   7.653
 6397POPC   NC320243  31.497  31.484   9.453
 6397POPC   PO420244  31.517  31.510   9.153
 6397POPC   GL120245  31.449  31.451   8.853
 6397POPC   GL220246  31.596  31.475   8.853
 6397POPC   C1A20247  31.460  31.488   8.553
 6397POPC   D2A20248  31.507  31.441   8.253
 6397POPC   C3A20249  31.522  31.517   7.953
 6397POPC   C4A20250  31.478  31.516   7.653
 6397POPC   C1B20251  31.737  31.517   8.553
 6397POPC   C2B20252  31.745  31.522   8.253
 6397POPC   C3B20253  31.672  31.520   7.953
 6397POPC   C4B20254  31.740  31.532   7.653
 6398POPC   NC320255  19.855  13.666   9.453
 6398POPC   PO420256  19.816  13.608   9.153
 6398POPC   GL120257  19.884  13.647   8.853
 6398POPC   GL220258  19.757  13.607   8.853
 6398POPC   C1A20259  19.837  13.597   8.553
 6398POPC   D2A20260  19.863  13.588   8.253
 6398POPC   C3A20261  19.810  13.674   7.953
 6398POPC   C4A20262  19.842  13.600   7.653
 6398POPC   C1B20263  19.650  13.491   8.553
 6398POPC   C2B20264  19.627  13.495   8.253
 6398POPC   C3B20265  19.644  13.491   7.953
 6398POPC   C4B20266  19.564  13.477   7.653
 6399POPC   NC320267   8.946  38.482   9.453
 6399POPC   PO420268   8.963  38.425   9.153
 6399POPC   GL120269   9.007  38.447   8.853
 6399POPC   GL220270   9.116  38.405   8.853
 6399POPC   C1A20271   8.953  38.486   8.553
 6399POPC   D2A20272   9.021  38.405   8.253
 6399POPC   C3A20273   8.992  38.491   7.953
 6399POPC   C4A20274   9.015  38.440   7.653
 6399POPC   C1B20275   9.212  38.268   8.553
 6399POPC   C2B20276   9.137  38.250   8.253
 6399POPC   C3B20277   9.127  38.316   7.953
 6399POPC   C4B20278   9.208  38.328   7.653
 6400POPC   NC320279   1.240  39.961   9.453
 6400POPC   PO420280   1.209  39.970   9.153
 6400POPC   GL120281   1.209  40.023   8.853
 6400POPC   GL220282   1.219  40.158   8.853
 6400POPC   C1A20283   1.232  40.031   8.553
 6400POPC   D2A20284   1.178  40.014   8.253
 6400POPC   C3A20285   1.188  40.043   7.953
 6400POPC   C4A20286   1.229  39.993   7.653
 6400POPC   C1B20287   1.257  40.201   8.553
 6400POPC   C2B20288   1.280  40.243   8.253
 6400POPC   C3B20289   1.299  40.226   7.953
 6400POPC   C4B20290   1.253  40.283   7.653
 6401POPC   NC320291   0.463  40.797   9.453
 6401POPC   PO420292   0.457  40.818   9.153
 6401POPC   GL120293   0.439  40.823   8.853
 6401POPC   GL220294   0.376  40.693   8.853
 6401POPC   C1A20295   0.467  40.795   8.553
 6401POPC   D2A20296   0.434  40.787   8.253
 6401POPC   C3A20297   0.472  40.754   7.953
 6401POPC   C4A20298   0.427  40.805   7.653
 6401POPC   C1B20299   0.261  40.556   8.553
 6401POPC   C2B20300   0.317  40.546   8.253
 6401POPC   C3B20301   0.316  40.579   7.953
 6401POPC   C4B20302   0.314  40.586   7.653
 6402POPC   NC320303  12.818  33.834   9.453
 6402POPC   PO420304  12.838  33.826   9.153
 6402POPC   GL120305  12.806  33.791   8.853
 6402POPC   GL220306  12.926  33.790   8.853
 6402POPC   C1A20307  12.888  33.804   8.553
 6402POPC   D2A20308  12.889  33.837   8.253
 6402POPC   C3A20309  12.844  33.820   7.953
 6402POPC   C4A20310  12.804  33.841   7.653
 6402POPC   C1B20311  13.079  33.730   8.553
 6402POPC   C2B20312  13.093  33.691   8.253
 6402POPC   C3B20313  13.118  33.693   7.953
 6402POPC   C4B20314  13.046  33.707   7.653
 6403POPC   NC320315  22.935  31.497   9.453
 6403POPC   PO420316  22.959  31.439   9.153
 6403POPC   GL120317  22.949  31.503   8.853
 6403POPC   GL220318  23.004  31.578   8.853
 6403POPC   C1A20319  22.913  31.491   8.553
 6403POPC   D2A20320  22.918  31.498   8.253
 6403POPC   C3A20321  22.919  31.441   7.953
 6403POPC   C4A20322  22.950  31.515   7.653
 6403POPC   C1B20323  23.002  31.722   8.553
 6403POPC   C2B20324  23.077  31.704   8.253
 6403POPC   C3B20325  23.065  31.745   7.953
 6403POPC   C4B20326  23.027  31.669   7.653
 6404POPC   NC320327   4.276  20.635   9.453
 6404POPC   PO420328   4.294  20.621   9.153
 6404POPC   GL120329   4.313  20.580   8.853
 6404POPC   GL220330   4.446  20.622   8.853
 6404POPC   C1A20331   4.288  20.654   8.553
 6404POPC   D2A20332   4.324  20.631   8.253
 6404POPC   C3A20333   4.348  20.632   7.953
 6404POPC   C4A20334   4.359  20.594   7.653
 6404POPC   C1B20335   4.539  20.571   8.553
 6404POPC   C2B20336   4.578  20.534   8.253
 6404POPC   C3B20337   4.519  20.552   7.953
 6404POPC   C4B20338   4.558  20.549   7.653
 6405POPC   NC320339  22.209  25.239   9.453
 6405POPC   PO420340  22.142  25.256   9.153
 6405POPC   GL120341  22.143  25.247   8.853
 6405POPC   GL220342  22.296  25.274   8.853
 6405POPC   C1A20343  22.137  25.307   8.553
 6405POPC   D2A20344  22.154  25.282   8.253
 6405POPC   C3A20345  22.188  25.282   7.953
 6405POPC   C4A20346  22.212  25.315   7.653
 6405POPC   C1B20347  22.386  25.238   8.553
 6405POPC   C2B20348  22.455  25.166   8.253
 6405POPC   C3B20349  22.410  25.163   7.953
 6405POPC   C4B20350  22.397  25.205   7.653
 6406POPC   NC320351  12.045   5.132   9.453
 6406POPC   PO420352  12.043   5.049   9.153
 6406POPC   GL120353  12.072   5.070   8.853
 6406POPC   GL220354  12.163   5.086   8.853
 6406POPC   C1A20355  12.043   5.051   8.553
 6406POPC   D2A20356  12.042   5.109   8.253
 6406POPC   C3A20357  12.073   5.114   7.953
 6406POPC   C4A20358  12.102   5.105   7.653
 6406POPC   C1B20359  12.273   5.016   8.553
 6406POPC   C2B20360  12.344   4.970   8.253
 6406POPC   C3B20361  12.337   5.014   7.953
 6406POPC   C4B20362  12.272   4.996   7.653
 6407POPC   NC320363  17.514  26.074   9.453
 6407POPC   PO420364  17.468  26.053   9.153
 6407POPC   GL120365  17.510  26.068   8.853
 6407POPC   GL220366  17.597  25.932   8.853
 6407POPC   C1A20367  17.547  26.008   8.553
 6407POPC   D2A20368  17.550  26.050   8.253
 6407POPC   C3A20369  17.478  25.999   7.953
 6407POPC   C4A20370  17.476  26.082   7.653
 6407POPC   C1B20371  17.646  25.828   8.553
 6407POPC   C2B20372  17.584  25.837   8.253
 6407POPC   C3B20373  17.674  25.834   7.953
 6407POPC   C4B20374  17.602  25.832   7.653
 6408POPC   NC320375  37.660  13.655   9.453
 6408POPC   PO420376  37.637  13.628   9.153
 6408POPC   GL120377  37.727  13.616   8.853
 6408POPC   GL220378  37.590  13.532   8.853
 6408POPC   C1A20379  37.639  13.609   8.553
 6408POPC   D2A20380  37.720  13.595   8.253
 6408POPC   C3A20381  37.712  13.598   7.953
 6408POPC   C4A20382  37.654  13.652   7.653
 6408POPC   C1B20383  37.459  13.433   8.553
 6408POPC   C2B20384  37.529  13.416   8.253
 6408POPC   C3B20385  37.448  13.421   7.953
 6408POPC   C4B20386  37.524  13.475   7.653
 6409POPC   NC320387   7.461   1.205   9.453
 6409POPC   PO420388   7.459   1.256   9.153
 6409POPC   GL120389   7.452   1.189   8.853
 6409POPC   GL220390   7.298   1.094   8.853
 6409POPC   C1A20391   7.457   1.236   8.553
 6409POPC   D2A20392   7.413   1.173   8.253
 6409POPC   C3A20393   7.457   1.223   7.953
 6409POPC   C4A20394   7.387   1.211   7.653
 6409POPC   C1B20395   7.295   0.984   8.553
 6409POPC   C2B20396   7.263   1.040   8.253
 6409POPC   C3B20397   7.242   1.041   7.953
 6409POPC   C4B20398   7.234   1.003   7.653
 6410POPC   NC320399   1.169  39.276   9.453
 6410POPC   PO420400   1.213  39.230   9.153
 6410POPC   GL120401   1.207  39.256   8.853
 6410POPC   GL220402   1.132  39.140   8.853
 6410POPC   C1A20403   1.249  39.200   8.553
 6410POPC   D2A20404   1.178  39.242   8.253
 6410POPC   C3A20405   1.215  39.249   7.953
 6410POPC   C4A20406   1.263  39.212   7.653
 6410POPC   C1B20407   0.935  39.107   8.553
 6410POPC   C2B20408   0.962  39.184   8.253
 6410POPC   C3B20409   0.931  39.112   7.953
 6410POPC   C4B20410   0.966  39.194   7.653
 6411POPC   NC320411  19.060   1.958   9.453
 6411POPC   PO420412  19.033   2.023   9.153
 6411POPC   GL120413  19.031   2.037   8.853
 6411POPC   GL220414  19.101   2.100   8.853
 6411POPC   C1A20415  19.065   1.941   8.553
 6411POPC   D2A20416  19.107   1.943   8.253
 6411POPC   C3A20417  19.094   2.024   7.953
 6411POPC   C4A20418  19.104   1.964   7.653
 6411POPC   C1B20419  19.111   2.252   8.553
 6411POPC   C2B20420  19.171   2.237   8.253
 6411POPC   C3B20421  19.180   2.182   7.953
 6411POPC   C4B20422  19.195   2.181   7.653
 6412POPC   NC320423   9.717  27.592   9.453
 6412POPC   PO420424   9.775  27.621   9.153
 6412POPC   GL120425   9.774  27.634   8.853
 6412POPC   GL220426   9.791  27.515   8.853
 6412POPC   C1A20427   9.765  27.548   8.553
 6412POPC   D2A20428   9.797  27.634   8.253
 6412POPC   C3A20429   9.700  27.586   7.953
 6412POPC   C4A20430   9.726  27.609   7.653
 6412POPC   C1B20431   9.806  27.337   8.553
 6412POPC   C2B20432   9.831  27.317   8.253
 6412POPC   C3B20433   9.820  27.385   7.953
 6412POPC   C4B20434   9.809  27.396   7.653
 6413POPC   NC320435  14.397   5.053   9.453
 6413POPC   PO420436  14.448   5.129   9.153
 6413POPC   GL120437  14.388   5.060   8.853
 6413POPC   GL220438  14.501   4.997   8.853
 6413POPC   C1A20439  14.424   5.077   8.553
 6413POPC   D2A20440  14.437   5.104   8.253
 6413POPC   C3A20441  14.399   5.085   7.953
 6413POPC   C4A20442  14.409   5.077   7.653
 6413POPC   C1B20443  14.531   4.834   8.553
 6413POPC   C2B20444  14.494   4.889   8.253
 6413POPC   C3B20445  14.537   4.831   7.953
 6413POPC   C4B20446  14.504   4.923   7.653
 6414POPC   NC320447  33.008   2.796   9.453
 6414POPC   PO420448  33.018   2.804   9.153
 6414POPC   GL120449  33.064   2.750   8.853
 6414POPC   GL220450  33.136   2.787   8.853
 6414POPC   C1A20451  32.985   2.759   8.553
 6414POPC   D2A20452  33.052   2.723   8.253
 6414POPC   C3A20453  33.041   2.801   7.953
 6414POPC   C4A20454  33.055   2.746   7.653
 6414POPC   C1B20455  33.306   2.757   8.553
 6414POPC   C2B20456  33.233   2.775   8.253
 6414POPC   C3B20457  33.306   2.805   7.953
 6414POPC   C4B20458  33.260   2.814   7.653
 6415POPC   NC320459   4.360  33.000   9.453
 6415POPC   PO420460   4.322  33.051   9.153
 6415POPC   GL120461   4.301  32.975   8.853
 6415POPC   GL220462   4.451  33.117   8.853
 6415POPC   C1A20463   4.325  33.006   8.553
 6415POPC   D2A20464   4.344  33.039   8.253
 6415POPC   C3A20465   4.305  32.977   7.953
 6415POPC   C4A20466   4.355  33.008   7.653
 6415POPC   C1B20467   4.516  33.221   8.553
 6415POPC   C2B20468   4.460  33.232   8.253
 6415POPC   C3B20469   4.525  33.188   7.953
 6415POPC   C4B20470   4.444  33.250   7.653
 6416POPC   NC320471  22.189  19.080   9.453
 6416POPC   PO420472  22.187  19.081   9.153
 6416POPC   GL120473  22.152  19.030   8.853
 6416POPC   GL220474  22.223  18.975   8.853
 6416POPC   C1A20475  22.148  19.058   8.553
 6416POPC   D2A20476  22.114  19.105   8.253
 6416POPC   C3A20477  22.161  19.030   7.953
 6416POPC   C4A20478  22.202  19.022   7.653
 6416POPC   C1B20479  22.289  18.831   8.553
 6416POPC   C2B20480  22.294  18.930   8.253
 6416POPC   C3B20481  22.296  18.915   7.953
 6416POPC   C4B20482  22.375  18.862   7.653
 6417POPC   NC320483  19.872  33.009   9.453
 6417POPC   PO420484  19.840  32.976   9.153
 6417POPC   GL120485  19.808  33.028   8.853
 6417POPC   GL220486  19.925  33.099   8.853
 6417POPC   C1A20487  19.829  33.038   8.553
 6417POPC   D2A20488  19.839  33.040   8.253
 6417POPC   C3A20489  19.841  32.988   7.953
 6417POPC   C4A20490  19.840  33.011   7.653
 6417POPC   C1B20491  19.902  33.228   8.553
 6417POPC   C2B20492  19.982  33.282   8.253
 6417POPC   C3B20493  19.977  33.266   7.953
 6417POPC   C4B20494  19.973  33.283   7.653
 6418POPC   NC320495  10.525   1.960   9.453
 6418POPC   PO420496  10.481   1.977   9.153
 6418POPC   GL120497  10.495   2.002   8.853
 6418POPC   GL220498  10.403   2.045   8.853
 6418POPC   C1A20499  10.527   1.974   8.553
 6418POPC   D2A20500  10.533   1.979   8.253
 6418POPC   C3A20501  10.566   2.007   7.953
 6418POPC   C4A20502  10.533   2.020   7.653
 6418POPC   C1B20503  10.317   2.077   8.553
 6418POPC   C2B20504  10.275   2.054   8.253
 6418POPC   C3B20505  10.283   2.069   7.953
 6418POPC   C4B20506  10.313   2.076   7.653
 6419POPC   NC320507  41.509  12.121   9.453
 6419POPC   PO420508  41.572  12.038   9.153
 6419POPC   GL120509  41.527  12.074   8.853
 6419POPC   GL220510  41.625  12.156   8.853
 6419POPC   C1A20511  41.569  12.065   8.553
 6419POPC   D2A20512  41.594  12.049   8.253
 6419POPC   C3A20513  41.566  12.075   7.953
 6419POPC   C4A20514  41.510  12.034   7.653
 6419POPC   C1B20515  41.627  12.333   8.553
 6419POPC   C2B20516  41.699  12.293   8.253
 6419POPC   C3B20517  41.615  12.305   7.953
 6419POPC   C4B20518  41.646  12.293   7.653
 6420POPC   NC320519  28.378  39.199   9.453
 6420POPC   PO420520  28.365  39.265   9.153
 6420POPC   GL120521  28.372  39.231   8.853
 6420POPC   GL220522  28.321  39.113   8.853
 6420POPC   C1A20523  28.380  39.240   8.553
 6420POPC   D2A20524  28.398  39.195   8.253
 6420POPC   C3A20525  28.415  39.276   7.953
 6420POPC   C4A20526  28.381  39.226   7.653
 6420POPC   C1B20527  28.171  39.050   8.553
 6420POPC   C2B20528  28.186  39.122   8.253
 6420POPC   C3B20529  28.142  39.030   7.953
 6420POPC   C4B20530  28.139  39.091   7.653
 6421POPC   NC320531  33.793  16.762   9.453
 6421POPC   PO420532  33.822  16.741   9.153
 6421POPC   GL120533  33.810  16.720   8.853
 6421POPC   GL220534  33.876  16.885   8.853
 6421POPC   C1A20535  33.811  16.765   8.553
 6421POPC   D2A20536  33.785  16.763   8.253
 6421POPC   C3A20537  33.849  16.719   7.953
 6421POPC   C4A20538  33.815  16.768   7.653
 6421POPC   C1B20539  33.860  16.934   8.553
 6421POPC   C2B20540  33.813  16.995   8.253
 6421POPC   C3B20541  33.828  16.976   7.953
 6421POPC   C4B20542  33.853  17.016   7.653
 6422POPC   NC320543   0.396   9.752   9.453
 6422POPC   PO420544   0.395   9.757   9.153
 6422POPC   GL120545   0.476   9.751   8.853
 6422POPC   GL220546   0.558   9.643   8.853
 6422POPC   C1A20547   0.447   9.777   8.553
 6422POPC   D2A20548   0.488   9.743   8.253
 6422POPC   C3A20549   0.408   9.762   7.953
 6422POPC   C4A20550   0.430   9.768   7.653
 6422POPC   C1B20551   0.626   9.596   8.553
 6422POPC   C2B20552   0.601   9.575   8.253
 6422POPC   C3B20553   0.661   9.595   7.953
 6422POPC   C4B20554   0.594   9.553   7.653
 6423POPC   NC320555   6.673  11.265   9.453
 6423POPC   PO420556   6.650  11.263   9.153
 6423POPC   GL120557   6.679  11.284   8.853
 6423POPC   GL220558   6.626  11.218   8.853
 6423POPC   C1A20559   6.686  11.262   8.553
 6423POPC   D2A20560   6.600  11.340   8.253
 6423POPC   C3A20561   6.672  11.347   7.953
 6423POPC   C4A20562   6.597  11.296   7.653
 6423POPC   C1B20563   6.575  11.043   8.553
 6423POPC   C2B20564   6.544  11.052   8.253
 6423POPC   C3B20565   6.506  11.121   7.953
 6423POPC   C4B20566   6.502  11.115   7.653
 6424POPC   NC320567   2.803  38.436   9.453
 6424POPC   PO420568   2.808  38.480   9.153
 6424POPC   GL120569   2.789  38.494   8.853
 6424POPC   GL220570   2.912  38.353   8.853
 6424POPC   C1A20571   2.787  38.417   8.553
 6424POPC   D2A20572   2.815  38.465   8.253
 6424POPC   C3A20573   2.749  38.412   7.953
 6424POPC   C4A20574   2.770  38.465   7.653
 6424POPC   C1B20575   2.928  38.322   8.553
 6424POPC   C2B20576   2.929  38.334   8.253
 6424POPC   C3B20577   3.000  38.261   7.953
 6424POPC   C4B20578   2.918  38.328   7.653
 6425POPC   NC320579  43.084  12.026   9.453
 6425POPC   PO420580  43.085  12.118   9.153
 6425POPC   GL120581  43.067  12.110   8.853
 6425POPC   GL220582  43.227  12.007   8.853
 6425POPC   C1A20583  43.112  12.071   8.553
 6425POPC   D2A20584  43.111  12.037   8.253
 6425POPC   C3A20585  43.123  12.074   7.953
 6425POPC   C4A20586  43.137  12.068   7.653
 6425POPC   C1B20587  43.332  11.958   8.553
 6425POPC   C2B20588  43.283  11.971   8.253
 6425POPC   C3B20589  43.366  11.996   7.953
 6425POPC   C4B20590  43.378  11.907   7.653
 6426POPC   NC320591  16.757  18.234   9.453
 6426POPC   PO420592  16.767  18.320   9.153
 6426POPC   GL120593  16.739  18.257   8.853
 6426POPC   GL220594  16.745  18.133   8.853
 6426POPC   C1A20595  16.718  18.259   8.553
 6426POPC   D2A20596  16.742  18.238   8.253
 6426POPC   C3A20597  16.712  18.330   7.953
 6426POPC   C4A20598  16.774  18.251   7.653
 6426POPC   C1B20599  16.679  17.988   8.553
 6426POPC   C2B20600  16.705  18.078   8.253
 6426POPC   C3B20601  16.682  18.017   7.953
 6426POPC   C4B20602  16.662  18.048   7.653
 6427POPC   NC320603  21.396  15.176   9.453
 6427POPC   PO420604  21.364  15.179   9.153
 6427POPC   GL120605  21.413  15.172   8.853
 6427POPC   GL220606  21.490  15.235   8.853
 6427POPC   C1A20607  21.349  15.134   8.553
 6427POPC   D2A20608  21.364  15.174   8.253
 6427POPC   C3A20609  21.354  15.142   7.953
 6427POPC   C4A20610  21.382  15.176   7.653
 6427POPC   C1B20611  21.550  15.308   8.553
 6427POPC   C2B20612  21.620  15.285   8.253
 6427POPC   C3B20613  21.618  15.349   7.953
 6427POPC   C4B20614  21.603  15.325   7.653
 6428POPC   NC320615  29.890  38.429   9.453
 6428POPC   PO420616  29.920  38.487   9.153
 6428POPC   GL120617  29.950  38.472   8.853
 6428POPC   GL220618  29.977  38.392   8.853
 6428POPC   C1A20619  29.872  38.465   8.553
 6428POPC   D2A20620  29.961  38.469   8.253
 6428POPC   C3A20621  29.960  38.409   7.953
 6428POPC   C4A20622  29.939  38.448   7.653
 6428POPC   C1B20623  30.140  38.307   8.553
 6428POPC   C2B20624  30.140  38.242   8.253
 6428POPC   C3B20625  30.126  38.259   7.953
 6428POPC   C4B20626  30.118  38.230   7.653
 6429POPC   NC320627  25.241  41.604   9.453
 6429POPC   PO420628  25.216  41.550   9.153
 6429POPC   GL120629  25.228  41.542   8.853
 6429POPC   GL220630  25.341  41.434   8.853
 6429POPC   C1A20631  25.271  41.584   8.553
 6429POPC   D2A20632  25.300  41.604   8.253
 6429POPC   C3A20633  25.256  41.527   7.953
 6429POPC   C4A20634  25.313  41.608   7.653
 6429POPC   C1B20635  25.465  41.337   8.553
 6429POPC   C2B20636  25.423  41.338   8.253
 6429POPC   C3B20637  25.476  41.352   7.953
 6429POPC   C4B20638  25.409  41.376   7.653
 6430POPC   NC320639  19.855  36.097   9.453
 6430POPC   PO420640  19.792  36.119   9.153
 6430POPC   GL120641  19.833  36.144   8.853
 6430POPC   GL220642  19.917  36.277   8.853
 6430POPC   C1A20643  19.861  36.176   8.553
 6430POPC   D2A20644  19.812  36.114   8.253
 6430POPC   C3A20645  19.882  36.079   7.953
 6430POPC   C4A20646  19.816  36.099   7.653
 6430POPC   C1B20647  19.933  36.379   8.553
 6430POPC   C2B20648  19.989  36.361   8.253
 6430POPC   C3B20649  19.961  36.340   7.953
 6430POPC   C4B20650  19.945  36.302   7.653
 6431POPC   NC320651  34.533  12.067   9.453
 6431POPC   PO420652  34.614  12.109   9.153
 6431POPC   GL120653  34.613  12.054   8.853
 6431POPC   GL220654  34.567  11.907   8.853
 6431POPC   C1A20655  34.625  12.076   8.553
 6431POPC   D2A20656  34.588  12.114   8.253
 6431POPC   C3A20657  34.541  12.097   7.953
 6431POPC   C4A20658  34.528  12.058   7.653
 6431POPC   C1B20659  34.610  11.871   8.553
 6431POPC   C2B20660  34.608  11.803   8.253
 6431POPC   C3B20661  34.659  11.793   7.953
 6431POPC   C4B20662  34.670  11.866   7.653
 6432POPC   NC320663  39.206  18.251   9.453
 6432POPC   PO420664  39.240  18.293   9.153
 6432POPC   GL120665  39.246  18.311   8.853
 6432POPC   GL220666  39.365  18.255   8.853
 6432POPC   C1A20667  39.272  18.239   8.553
 6432POPC   D2A20668  39.243  18.279   8.253
 6432POPC   C3A20669  39.233  18.322   7.953
 6432POPC   C4A20670  39.196  18.320   7.653
 6432POPC   C1B20671  39.472  18.174   8.553
 6432POPC   C2B20672  39.469  18.233   8.253
 6432POPC   C3B20673  39.511  18.206   7.953
 6432POPC   C4B20674  39.459  18.206   7.653
 6433POPC   NC320675  10.480   6.675   9.453
 6433POPC   PO420676  10.535   6.637   9.153
 6433POPC   GL120677  10.560   6.684   8.853
 6433POPC   GL220678  10.586   6.495   8.853
 6433POPC   C1A20679  10.544   6.597   8.553
 6433POPC   D2A20680  10.542   6.672   8.253
 6433POPC   C3A20681  10.482   6.641   7.953
 6433POPC   C4A20682  10.475   6.666   7.653
 6433POPC   C1B20683  10.633   6.467   8.553
 6433POPC   C2B20684  10.641   6.428   8.253
 6433POPC   C3B20685  10.619   6.427   7.953
 6433POPC   C4B20686  10.628   6.424   7.653
 6434POPC   NC320687   8.954  16.702   9.453
 6434POPC   PO420688   8.980  16.745   9.153
 6434POPC   GL120689   8.961  16.706   8.853
 6434POPC   GL220690   8.966  16.586   8.853
 6434POPC   C1A20691   8.925  16.771   8.553
 6434POPC   D2A20692   8.939  16.758   8.253
 6434POPC   C3A20693   8.983  16.745   7.953
 6434POPC   C4A20694   8.950  16.722   7.653
 6434POPC   C1B20695   8.961  16.531   8.553
 6434POPC   C2B20696   8.990  16.523   8.253
 6434POPC   C3B20697   8.967  16.471   7.953
 6434POPC   C4B20698   9.000  16.490   7.653
 6435POPC   NC320699  27.603  37.716   9.453
 6435POPC   PO420700  27.624  37.661   9.153
 6435POPC   GL120701  27.559  37.642   8.853
 6435POPC   GL220702  27.481  37.701   8.853
 6435POPC   C1A20703  27.641  37.648   8.553
 6435POPC   D2A20704  27.625  37.667   8.253
 6435POPC   C3A20705  27.561  37.680   7.953
 6435POPC   C4A20706  27.600  37.709   7.653
 6435POPC   C1B20707  27.339  37.817   8.553
 6435POPC   C2B20708  27.371  37.835   8.253
 6435POPC   C3B20709  27.326  37.749   7.953
 6435POPC   C4B20710  27.379  37.788   7.653
 6436POPC   NC320711  41.529  22.189   9.453
 6436POPC   PO420712  41.571  22.139   9.153
 6436POPC   GL120713  41.598  22.184   8.853
 6436POPC   GL220714  41.480  22.059   8.853
 6436POPC   C1A20715  41.560  22.184   8.553
 6436POPC   D2A20716  41.549  22.192   8.253
 6436POPC   C3A20717  41.596  22.153   7.953
 6436POPC   C4A20718  41.579  22.121   7.653
 6436POPC   C1B20719  41.382  22.043   8.553
 6436POPC   C2B20720  41.370  21.981   8.253
 6436POPC   C3B20721  41.351  22.064   7.953
 6436POPC   C4B20722  41.338  22.056   7.653
 6437POPC   NC320723  40.758   7.462   9.453
 6437POPC   PO420724  40.830   7.397   9.153
 6437POPC   GL120725  40.736   7.420   8.853
 6437POPC   GL220726  40.722   7.562   8.853
 6437POPC   C1A20727  40.759   7.464   8.553
 6437POPC   D2A20728  40.740   7.467   8.253
 6437POPC   C3A20729  40.821   7.451   7.953
 6437POPC   C4A20730  40.781   7.399   7.653
 6437POPC   C1B20731  40.789   7.697   8.553
 6437POPC   C2B20732  40.762   7.666   8.253
 6437POPC   C3B20733  40.739   7.711   7.953
 6437POPC   C4B20734  40.710   7.696   7.653
 6438POPC   NC320735  12.852  28.383   9.453
 6438POPC   PO420736  12.845  28.393   9.153
 6438POPC   GL120737  12.891  28.361   8.853
 6438POPC   GL220738  12.965  28.428   8.853
 6438POPC   C1A20739  12.806  28.354   8.553
 6438POPC   D2A20740  12.891  28.409   8.253
 6438POPC   C3A20741  12.812  28.327   7.953
 6438POPC   C4A20742  12.826  28.328   7.653
 6438POPC   C1B20743  13.089  28.417   8.553
 6438POPC   C2B20744  13.129  28.493   8.253
 6438POPC   C3B20745  13.087  28.412   7.953
 6438POPC   C4B20746  13.102  28.477   7.653
 6439POPC   NC320747  36.886   6.607   9.453
 6439POPC   PO420748  36.874   6.605   9.153
 6439POPC   GL120749  36.874   6.632   8.853
 6439POPC   GL220750  36.803   6.717   8.853
 6439POPC   C1A20751  36.877   6.647   8.553
 6439POPC   D2A20752  36.855   6.691   8.253
 6439POPC   C3A20753  36.884   6.643   7.953
 6439POPC   C4A20754  36.920   6.678   7.653
 6439POPC   C1B20755  36.677   6.759   8.553
 6439POPC   C2B20756  36.696   6.800   8.253
 6439POPC   C3B20757  36.699   6.742   7.953
 6439POPC   C4B20758  36.733   6.754   7.653
 6440POPC   NC320759  27.600  40.755   9.453
 6440POPC   PO420760  27.635  40.794   9.153
 6440POPC   GL120761  27.585  40.830   8.853
 6440POPC   GL220762  27.531  40.902   8.853
 6440POPC   C1A20763  27.562  40.806   8.553
 6440POPC   D2A20764  27.592  40.809   8.253
 6440POPC   C3A20765  27.563  40.761   7.953
 6440POPC   C4A20766  27.582  40.753   7.653
 6440POPC   C1B20767  27.481  40.966   8.553
 6440POPC   C2B20768  27.472  40.982   8.253
 6440POPC   C3B20769  27.484  41.016   7.953
 6440POPC   C4B20770  27.450  41.047   7.653
 6441POPC   NC320771  33.016  38.408   9.453
 6441POPC   PO420772  33.045  38.460   9.153
 6441POPC   GL120773  33.040  38.461   8.853
 6441POPC   GL220774  33.106  38.615   8.853
 6441POPC   C1A20775  33.020  38.503   8.553
 6441POPC   D2A20776  32.996  38.446   8.253
 6441POPC   C3A20777  33.024  38.479   7.953
 6441POPC   C4A20778  33.060  38.429   7.653
 6441POPC   C1B20779  33.134  38.656   8.553
 6441POPC   C2B20780  33.083  38.670   8.253
 6441POPC   C3B20781  33.110  38.695   7.953
 6441POPC   C4B20782  33.089  38.731   7.653
 6442POPC   NC320783  43.838  37.702   9.453
 6442POPC   PO420784  43.901  37.654   9.153
 6442POPC   GL120785  43.893  37.688   8.853
 6442POPC   GL220786  43.764  37.596   8.853
 6442POPC   C1A20787  43.880  37.656   8.553
 6442POPC   D2A20788  43.860  37.706   8.253
 6442POPC   C3A20789  43.879  37.642   7.953
 6442POPC   C4A20790  43.927  37.674   7.653
 6442POPC   C1B20791  43.699  37.591   8.553
 6442POPC   C2B20792  43.697  37.519   8.253
 6442POPC   C3B20793  43.697  37.534   7.953
 6442POPC   C4B20794  43.664  37.602   7.653
 6443POPC   NC320795  25.224  21.422   9.453
 6443POPC   PO420796  25.292  21.396   9.153
 6443POPC   GL120797  25.243  21.380   8.853
 6443POPC   GL220798  25.394  21.404   8.853
 6443POPC   C1A20799  25.232  21.431   8.553
 6443POPC   D2A20800  25.289  21.356   8.253
 6443POPC   C3A20801  25.233  21.365   7.953
 6443POPC   C4A20802  25.289  21.366   7.653
 6443POPC   C1B20803  25.552  21.310   8.553
 6443POPC   C2B20804  25.546  21.351   8.253
 6443POPC   C3B20805  25.511  21.366   7.953
 6443POPC   C4B20806  25.539  21.327   7.653
 6444POPC   NC320807   7.391  26.082   9.453
 6444POPC   PO420808   7.415  26.040   9.153
 6444POPC   GL120809   7.401  26.006   8.853
 6444POPC   GL220810   7.498  25.978   8.853
 6444POPC   C1A20811   7.383  26.076   8.553
 6444POPC   D2A20812   7.453  26.039   8.253
 6444POPC   C3A20813   7.391  26.057   7.953
 6444POPC   C4A20814   7.413  26.080   7.653
 6444POPC   C1B20815   7.551  25.895   8.553
 6444POPC   C2B20816   7.604  25.879   8.253
 6444POPC   C3B20817   7.547  25.913   7.953
 6444POPC   C4B20818   7.614  25.882   7.653
 6445POPC   NC320819  43.107  23.728   9.453
 6445POPC   PO420820  43.084  23.751   9.153
 6445POPC   GL120821  43.158  23.726   8.853
 6445POPC   GL220822  43.169  23.563   8.853
 6445POPC   C1A20823  43.132  23.725   8.553
 6445POPC   D2A20824  43.092  23.748   8.253
 6445POPC   C3A20825  43.102  23.737   7.953
 6445POPC   C4A20826  43.061  23.720   7.653
 6445POPC   C1B20827  43.206  23.453   8.553
 6445POPC   C2B20828  43.187  23.529   8.253
 6445POPC   C3B20829  43.210  23.467   7.953
 6445POPC   C4B20830  43.220  23.483   7.653
 6446POPC   NC320831   8.183  24.512   9.453
 6446POPC   PO420832   8.224  24.512   9.153
 6446POPC   GL120833   8.149  24.507   8.853
 6446POPC   GL220834   8.205  24.426   8.853
 6446POPC   C1A20835   8.245  24.493   8.553
 6446POPC   D2A20836   8.179  24.486   8.253
 6446POPC   C3A20837   8.197  24.510   7.953
 6446POPC   C4A20838   8.169  24.517   7.653
 6446POPC   C1B20839   8.335  24.294   8.553
 6446POPC   C2B20840   8.333  24.298   8.253
 6446POPC   C3B20841   8.350  24.310   7.953
 6446POPC   C4B20842   8.349  24.305   7.653
 6447POPC   NC320843  33.070  44.644   9.453
 6447POPC   PO420844  33.039  44.707   9.153
 6447POPC   GL120845  33.005  44.628   8.853
 6447POPC   GL220846  32.926  44.692   8.853
 6447POPC   C1A20847  33.009  44.705   8.553
 6447POPC   D2A20848  33.055  44.617   8.253
 6447POPC   C3A20849  33.068  44.677   7.953
 6447POPC   C4A20850  32.986  44.700   7.653
 6447POPC   C1B20851  32.795  44.687   8.553
 6447POPC   C2B20852  32.761  44.714   8.253
 6447POPC   C3B20853  32.805  44.644   7.953
 6447POPC   C4B20854  32.751  44.645   7.653
 6448POPC   NC320855   2.773   7.431   9.453
 6448POPC   PO420856   2.770   7.420   9.153
 6448POPC   GL120857   2.783   7.375   8.853
 6448POPC   GL220858   2.644   7.349   8.853
 6448POPC   C1A20859   2.731   7.451   8.553
 6448POPC   D2A20860   2.771   7.427   8.253
 6448POPC   C3A20861   2.799   7.418   7.953
 6448POPC   C4A20862   2.733   7.447   7.653
 6448POPC   C1B20863   2.544   7.315   8.553
 6448POPC   C2B20864   2.572   7.286   8.253
 6448POPC   C3B20865   2.487   7.350   7.953
 6448POPC   C4B20866   2.506   7.278   7.653
 6449POPC   NC320867  34.572  15.965   9.453
 6449POPC   PO420868  34.536  15.941   9.153
 6449POPC   GL120869  34.528  15.989   8.853
 6449POPC   GL220870  34.506  15.859   8.853
 6449POPC   C1A20871  34.587  15.976   8.553
 6449POPC   D2A20872  34.543  15.988   8.253
 6449POPC   C3A20873  34.553  15.996   7.953
 6449POPC   C4A20874  34.586  15.957   7.653
 6449POPC   C1B20875  34.418  15.728   8.553
 6449POPC   C2B20876  34.389  15.728   8.253
 6449POPC   C3B20877  34.419  15.782   7.953
 6449POPC   C4B20878  34.428  15.710   7.653
 6450POPC   NC320879  23.685  38.442   9.453
 6450POPC   PO420880  23.748  38.429   9.153
 6450POPC   GL120881  23.734  38.499   8.853
 6450POPC   GL220882  23.723  38.529   8.853
 6450POPC   C1A20883  23.764  38.420   8.553
 6450POPC   D2A20884  23.731  38.478   8.253
 6450POPC   C3A20885  23.681  38.448   7.953
 6450POPC   C4A20886  23.742  38.447   7.653
 6450POPC   C1B20887  23.870  38.703   8.553
 6450POPC   C2B20888  23.842  38.700   8.253
 6450POPC   C3B20889  23.851  38.688   7.953
 6450POPC   C4B20890  23.866  38.674   7.653
 6451POPC   NC320891   6.649   8.159   9.453
 6451POPC   PO420892   6.605   8.207   9.153
 6451POPC   GL120893   6.678   8.151   8.853
 6451POPC   GL220894   6.630   8.352   8.853
 6451POPC   C1A20895   6.615   8.235   8.553
 6451POPC   D2A20896   6.679   8.209   8.253
 6451POPC   C3A20897   6.618   8.194   7.953
 6451POPC   C4A20898   6.675   8.219   7.653
 6451POPC   C1B20899   6.573   8.406   8.553
 6451POPC   C2B20900   6.610   8.406   8.253
 6451POPC   C3B20901   6.563   8.448   7.953
 6451POPC   C4B20902   6.604   8.460   7.653
 6452POPC   NC320903  21.364  40.770   9.453
 6452POPC   PO420904  21.404  40.793   9.153
 6452POPC   GL120905  21.387  40.782   8.853
 6452POPC   GL220906  21.427  40.703   8.853
 6452POPC   C1A20907  21.389  40.796   8.553
 6452POPC   D2A20908  21.418  40.768   8.253
 6452POPC   C3A20909  21.413  40.815   7.953
 6452POPC   C4A20910  21.413  40.750   7.653
 6452POPC   C1B20911  21.551  40.599   8.553
 6452POPC   C2B20912  21.546  40.577   8.253
 6452POPC   C3B20913  21.510  40.608   7.953
 6452POPC   C4B20914  21.597  40.644   7.653
 6453POPC   NC320915   3.579  19.083   9.453
 6453POPC   PO420916   3.564  19.105   9.153
 6453POPC   GL120917   3.579  19.066   8.853
 6453POPC   GL220918   3.394  19.079   8.853
 6453POPC   C1A20919   3.507  19.075   8.553
 6453POPC   D2A20920   3.516  19.078   8.253
 6453POPC   C3A20921   3.509  19.097   7.953
 6453POPC   C4A20922   3.555  19.045   7.653
 6453POPC   C1B20923   3.280  19.182   8.553
 6453POPC   C2B20924   3.289  19.133   8.253
 6453POPC   C3B20925   3.298  19.221   7.953
 6453POPC   C4B20926   3.358  19.212   7.653
 6454POPC   NC320927  16.752  42.299   9.453
 6454POPC   PO420928  16.717  42.322   9.153
 6454POPC   GL120929  16.700  42.338   8.853
 6454POPC   GL220930  16.620  42.485   8.853
 6454POPC   C1A20931  16.749  42.337   8.553
 6454POPC   D2A20932  16.772  42.295   8.253
 6454POPC   C3A20933  16.760  42.307   7.953
 6454POPC   C4A20934  16.769  42.291   7.653
 6454POPC   C1B20935  16.571  42.528   8.553
 6454POPC   C2B20936  16.582  42.539   8.253
 6454POPC   C3B20937  16.578  42.529   7.953
 6454POPC   C4B20938  16.558  42.550   7.653
 6455POPC   NC320939   1.215  30.702   9.453
 6455POPC   PO420940   1.248  30.658   9.153
 6455POPC   GL120941   1.256  30.689   8.853
 6455POPC   GL220942   1.080  30.775   8.853
 6455POPC   C1A20943   1.190  30.720   8.553
 6455POPC   D2A20944   1.198  30.709   8.253
 6455POPC   C3A20945   1.250  30.725   7.953
 6455POPC   C4A20946   1.221  30.666   7.653
 6455POPC   C1B20947   1.013  30.790   8.553
 6455POPC   C2B20948   0.991  30.774   8.253
 6455POPC   C3B20949   0.972  30.845   7.953
 6455POPC   C4B20950   1.006  30.819   7.653
 6456POPC   NC320951  22.196  28.349   9.453
 6456POPC   PO420952  22.181  28.407   9.153
 6456POPC   GL120953  22.184  28.412   8.853
 6456POPC   GL220954  22.080  28.311   8.853
 6456POPC   C1A20955  22.154  28.403   8.553
 6456POPC   D2A20956  22.188  28.407   8.253
 6456POPC   C3A20957  22.148  28.359   7.953
 6456POPC   C4A20958  22.128  28.353   7.653
 6456POPC   C1B20959  22.017  28.209   8.553
 6456POPC   C2B20960  22.045  28.188   8.253
 6456POPC   C3B20961  22.001  28.157   7.953
 6456POPC   C4B20962  21.986  28.179   7.653
 6457POPC   NC320963   1.994  43.902   9.453
 6457POPC   PO420964   1.999  43.903   9.153
 6457POPC   GL120965   1.982  43.920   8.853
 6457POPC   GL220966   2.078  43.826   8.853
 6457POPC   C1A20967   1.941  43.875   8.553
 6457POPC   D2A20968   2.026  43.857   8.253
 6457POPC   C3A20969   1.990  43.878   7.953
 6457POPC   C4A20970   2.018  43.912   7.653
 6457POPC   C1B20971   2.269  43.766   8.553
 6457POPC   C2B20972   2.261  43.825   8.253
 6457POPC   C3B20973   2.226  43.797   7.953
 6457POPC   C4B20974   2.236  43.746   7.653
 6458POPC   NC320975  43.096  22.115   9.453
 6458POPC   PO420976  43.074  22.153   9.153
 6458POPC   GL120977  43.077  22.212   8.853
 6458POPC   GL220978  43.170  22.082   8.853
 6458POPC   C1A20979  43.146  22.139   8.553
 6458POPC   D2A20980  43.126  22.210   8.253
 6458POPC   C3A20981  43.132  22.208   7.953
 6458POPC   C4A20982  43.073  22.186   7.653
 6458POPC   C1B20983  43.145  21.914   8.553
 6458POPC   C2B20984  43.166  21.951   8.253
 6458POPC   C3B20985  43.120  21.965   7.953
 6458POPC   C4B20986  43.147  21.872   7.653
 6459POPC   NC320987  33.034  34.563   9.453
 6459POPC   PO420988  33.041  34.578   9.153
 6459POPC   GL120989  33.024  34.582   8.853
 6459POPC   GL220990  32.941  34.516   8.853
 6459POPC   C1A20991  33.068  34.549   8.553
 6459POPC   D2A20992  33.062  34.534   8.253
 6459POPC   C3A20993  33.004  34.530   7.953
 6459POPC   C4A20994  33.049  34.526   7.653
 6459POPC   C1B20995  32.825  34.452   8.553
 6459POPC   C2B20996  32.827  34.462   8.253
 6459POPC   C3B20997  32.782  34.478   7.953
 6459POPC   C4B20998  32.808  34.437   7.653
 6460POPC   NC320999  15.955   3.512   9.453
 6460POPC   PO421000  15.956   3.506   9.153
 6460POPC   GL121001  15.987   3.541   8.853
 6460POPC   GL221002  15.968   3.434   8.853
 6460POPC   C1A21003  15.981   3.582   8.553
 6460POPC   D2A21004  15.937   3.563   8.253
 6460POPC   C3A21005  15.993   3.546   7.953
 6460POPC   C4A21006  15.964   3.531   7.653
 6460POPC   C1B21007  15.943   3.256   8.553
 6460POPC   C2B21008  15.973   3.273   8.253
 6460POPC   C3B21009  15.954   3.280   7.953
 6460POPC   C4B21010  15.909   3.276   7.653
 6461POPC   NC321011  26.784  41.513   9.453
 6461POPC   PO421012  26.832  41.601   9.153
 6461POPC   GL121013  26.794  41.530   8.853
 6461POPC   GL221014  26.727  41.624   8.853
 6461POPC   C1A21015  26.824  41.542   8.553
 6461POPC   D2A21016  26.867  41.596   8.253
 6461POPC   C3A21017  26.767  41.575   7.953
 6461POPC   C4A21018  26.812  41.513   7.653
 6461POPC   C1B21019  26.671  41.761   8.553
 6461POPC   C2B21020  26.702  41.805   8.253
 6461POPC   C3B21021  26.727  41.811   7.953
 6461POPC   C4B21022  26.741  41.743   7.653
 6462POPC   NC321023  34.529   9.737   9.453
 6462POPC   PO421024  34.551   9.704   9.153
 6462POPC   GL121025  34.602   9.737   8.853
 6462POPC   GL221026  34.663   9.872   8.853
 6462POPC   C1A21027  34.591   9.713   8.553
 6462POPC   D2A21028  34.612   9.751   8.253
 6462POPC   C3A21029  34.566   9.717   7.953
 6462POPC   C4A21030  34.567   9.795   7.653
 6462POPC   C1B21031  34.718  10.012   8.553
 6462POPC   C2B21032  34.650  10.023   8.253
 6462POPC   C3B21033  34.646  10.000   7.953
 6462POPC   C4B21034  34.669   9.983   7.653
 6463POPC   NC321035  20.599   4.310   9.453
 6463POPC   PO421036  20.629   4.304   9.153
 6463POPC   GL121037  20.570   4.269   8.853
 6463POPC   GL221038  20.598   4.238   8.853
 6463POPC   C1A21039  20.627   4.366   8.553
 6463POPC   D2A21040  20.650   4.363   8.253
 6463POPC   C3A21041  20.632   4.295   7.953
 6463POPC   C4A21042  20.560   4.320   7.653
 6463POPC   C1B21043  20.702   4.093   8.553
 6463POPC   C2B21044  20.679   4.062   8.253
 6463POPC   C3B21045  20.660   4.093   7.953
 6463POPC   C4B21046  20.655   4.030   7.653
 6464POPC   NC321047  44.628  29.958   9.453
 6464POPC   PO421048  44.643  29.923   9.153
 6464POPC   GL121049  44.613  29.891   8.853
 6464POPC   GL221050  44.675  29.801   8.853
 6464POPC   C1A21051  44.648  29.951   8.553
 6464POPC   D2A21052  44.688  29.948   8.253
 6464POPC   C3A21053  44.681  29.950   7.953
 6464POPC   C4A21054  44.678  29.960   7.653
 6464POPC   C1B21055  44.672  29.651   8.553
 6464POPC   C2B21056  44.666  29.640   8.253
 6464POPC   C3B21057  44.665  29.706   7.953
 6464POPC   C4B21058  44.635  29.652   7.653
 6465POPC   NC321059   1.989  37.686   9.453
 6465POPC   PO421060   2.007  37.677   9.153
 6465POPC   GL121061   2.010  37.726   8.853
 6465POPC   GL221062   1.947  37.802   8.853
 6465POPC   C1A21063   1.993  37.716   8.553
 6465POPC   D2A21064   2.034  37.667   8.253
 6465POPC   C3A21065   1.972  37.636   7.953
 6465POPC   C4A21066   2.021  37.676   7.653
 6465POPC   C1B21067   1.849  37.933   8.553
 6465POPC   C2B21068   1.927  37.868   8.253
 6465POPC   C3B21069   1.882  37.874   7.953
 6465POPC   C4B21070   1.891  37.909   7.653
 6466POPC   NC321071   1.213  26.035   9.453
 6466POPC   PO421072   1.193  26.012   9.153
 6466POPC   GL121073   1.190  26.038   8.853
 6466POPC   GL221074   1.244  25.933   8.853
 6466POPC   C1A21075   1.196  26.056   8.553
 6466POPC   D2A21076   1.197  26.089   8.253
 6466POPC   C3A21077   1.204  26.025   7.953
 6466POPC   C4A21078   1.207  26.001   7.653
 6466POPC   C1B21079   1.357  25.830   8.553
 6466POPC   C2B21080   1.346  25.844   8.253
 6466POPC   C3B21081   1.334  25.784   7.953
 6466POPC   C4B21082   1.302  25.780   7.653
 6467POPC   NC321083  33.829  21.374   9.453
 6467POPC   PO421084  33.831  21.346   9.153
 6467POPC   GL121085  33.771  21.427   8.853
 6467POPC   GL221086  33.874  21.318   8.853
 6467POPC   C1A21087  33.841  21.375   8.553
 6467POPC   D2A21088  33.830  21.408   8.253
 6467POPC   C3A21089  33.775  21.412   7.953
 6467POPC   C4A21090  33.828  21.400   7.653
 6467POPC   C1B21091  33.983  21.226   8.553
 6467POPC   C2B21092  33.958  21.277   8.253
 6467POPC   C3B21093  33.998  21.260   7.953
 6467POPC   C4B21094  34.004  21.206   7.653
 6468POPC   NC321095  39.256  17.465   9.453
 6468POPC   PO421096  39.205  17.556   9.153
 6468POPC   GL121097  39.258  17.506   8.853
 6468POPC   GL221098  39.216  17.595   8.853
 6468POPC   C1A21099  39.279  17.542   8.553
 6468POPC   D2A21100  39.237  17.551   8.253
 6468POPC   C3A21101  39.249  17.500   7.953
 6468POPC   C4A21102  39.254  17.460   7.653
 6468POPC   C1B21103  39.199  17.775   8.553
 6468POPC   C2B21104  39.126  17.773   8.253
 6468POPC   C3B21105  39.198  17.734   7.953
 6468POPC   C4B21106  39.165  17.761   7.653
 6469POPC   NC321107   7.428  28.323   9.453
 6469POPC   PO421108   7.409  28.350   9.153
 6469POPC   GL121109   7.399  28.344   8.853
 6469POPC   GL221110   7.544  28.407   8.853
 6469POPC   C1A21111   7.452  28.341   8.553
 6469POPC   D2A21112   7.446  28.416   8.253
 6469POPC   C3A21113   7.411  28.387   7.953
 6469POPC   C4A21114   7.452  28.361   7.653
 6469POPC   C1B21115   7.707  28.470   8.553
 6469POPC   C2B21116   7.619  28.409   8.253
 6469POPC   C3B21117   7.712  28.428   7.953
 6469POPC   C4B21118   7.655  28.394   7.653
 6470POPC   NC321119   7.381  27.596   9.453
 6470POPC   PO421120   7.440  27.634   9.153
 6470POPC   GL121121   7.465  27.583   8.853
 6470POPC   GL221122   7.531  27.636   8.853
 6470POPC   C1A21123   7.459  27.552   8.553
 6470POPC   D2A21124   7.383  27.633   8.253
 6470POPC   C3A21125   7.468  27.629   7.953
 6470POPC   C4A21126   7.451  27.639   7.653
 6470POPC   C1B21127   7.664  27.703   8.553
 6470POPC   C2B21128   7.611  27.713   8.253
 6470POPC   C3B21129   7.680  27.661   7.953
 6470POPC   C4B21130   7.663  27.682   7.653
 6471POPC   NC321131  36.138   3.528   9.453
 6471POPC   PO421132  36.160   3.584   9.153
 6471POPC   GL121133  36.156   3.574   8.853
 6471POPC   GL221134  36.036   3.631   8.853
 6471POPC   C1A21135  36.176   3.582   8.553
 6471POPC   D2A21136  36.124   3.534   8.253
 6471POPC   C3A21137  36.174   3.536   7.953
 6471POPC   C4A21138  36.117   3.527   7.653
 6471POPC   C1B21139  35.924   3.727   8.553
 6471POPC   C2B21140  35.907   3.722   8.253
 6471POPC   C3B21141  35.898   3.640   7.953
 6471POPC   C4B21142  35.944   3.669   7.653
 6472POPC   NC321143  35.326  43.072   9.453
 6472POPC   PO421144  35.334  43.061   9.153
 6472POPC   GL121145  35.356  43.094   8.853
 6472POPC   GL221146  35.354  42.949   8.853
 6472POPC   C1A21147  35.384  43.108   8.553
 6472POPC   D2A21148  35.364  43.094   8.253
 6472POPC   C3A21149  35.399  43.074   7.953
 6472POPC   C4A21150  35.370  43.151   7.653
 6472POPC   C1B21151  35.434  42.842   8.553
 6472POPC   C2B21152  35.411  42.899   8.253
 6472POPC   C3B21153  35.462  42.866   7.953
 6472POPC   C4B21154  35.429  42.851   7.653
 6473POPC   NC321155   0.463  12.805   9.453
 6473POPC   PO421156   0.473  12.820   9.153
 6473POPC   GL121157   0.389  12.879   8.853
 6473POPC   GL221158   0.522  12.805   8.853
 6473POPC   C1A21159   0.407  12.901   8.553
 6473POPC   D2A21160   0.457  12.862   8.253
 6473POPC   C3A21161   0.446  12.854   7.953
 6473POPC   C4A21162   0.415  12.882   7.653
 6473POPC   C1B21163   0.704  12.842   8.553
 6473POPC   C2B21164   0.694  12.865   8.253
 6473POPC   C3B21165   0.696  12.817   7.953
 6473POPC   C4B21166   0.638  12.861   7.653
 6474POPC   NC321167  32.287  39.989   9.453
 6474POPC   PO421168  32.232  40.000   9.153
 6474POPC   GL121169  32.272  39.982   8.853
 6474POPC   GL221170  32.294  39.904   8.853
 6474POPC   C1A21171  32.207  40.025   8.553
 6474POPC   D2A21172  32.282  40.004   8.253
 6474POPC   C3A21173  32.270  39.972   7.953
 6474POPC   C4A21174  32.241  40.009   7.653
 6474POPC   C1B21175  32.411  39.812   8.553
 6474POPC   C2B21176  32.409  39.881   8.253
 6474POPC   C3B21177  32.428  39.789   7.953
 6474POPC   C4B21178  32.473  39.808   7.653
 6475POPC   NC321179  12.075  34.584   9.453
 6475POPC   PO421180  12.081  34.604   9.153
 6475POPC   GL121181  12.068  34.539   8.853
 6475POPC   GL221182  11.910  34.547   8.853
 6475POPC   C1A21183  12.070  34.533   8.553
 6475POPC   D2A21184  12.066  34.528   8.253
 6475POPC   C3A21185  12.078  34.545   7.953
 6475POPC   C4A21186  12.054  34.548   7.653
 6475POPC   C1B21187  11.880  34.550   8.553
 6475POPC   C2B21188  11.795  34.530   8.253
 6475POPC   C3B21189  11.796  34.458   7.953
 6475POPC   C4B21190  11.852  34.503   7.653
 6476POPC   NC321191   9.732  12.082   9.453
 6476POPC   PO421192   9.741  12.037   9.153
 6476POPC   GL121193   9.705  12.078   8.853
 6476POPC   GL221194   9.836  11.992   8.853
 6476POPC   C1A21195   9.746  12.113   8.553
 6476POPC   D2A21196   9.777  12.120   8.253
 6476POPC   C3A21197   9.794  12.063   7.953
 6476POPC   C4A21198   9.773  12.109   7.653
 6476POPC   C1B21199   9.878  11.923   8.553
 6476POPC   C2B21200   9.919  11.885   8.253
 6476POPC   C3B21201   9.961  11.933   7.953
 6476POPC   C4B21202   9.936  11.866   7.653
 6477POPC   NC321203  43.079   6.630   9.453
 6477POPC   PO421204  43.125   6.648   9.153
 6477POPC   GL121205  43.156   6.679   8.853
 6477POPC   GL221206  43.193   6.734   8.853
 6477POPC   C1A21207  43.093   6.687   8.553
 6477POPC   D2A21208  43.125   6.650   8.253
 6477POPC   C3A21209  43.113   6.621   7.953
 6477POPC   C4A21210  43.149   6.693   7.653
 6477POPC   C1B21211  43.182   6.917   8.553
 6477POPC   C2B21212  43.180   6.852   8.253
 6477POPC   C3B21213  43.175   6.860   7.953
 6477POPC   C4B21214  43.185   6.875   7.653
 6478POPC   NC321215  22.987  21.371   9.453
 6478POPC   PO421216  22.940  21.396   9.153
 6478POPC   GL121217  22.960  21.409   8.853
 6478POPC   GL221218  22.954  21.251   8.853
 6478POPC   C1A21219  22.907  21.422   8.553
 6478POPC   D2A21220  22.979  21.409   8.253
 6478POPC   C3A21221  22.919  21.391   7.953
 6478POPC   C4A21222  22.973  21.397   7.653
 6478POPC   C1B21223  23.054  21.193   8.553
 6478POPC   C2B21224  23.104  21.134   8.253
 6478POPC   C3B21225  23.036  21.184   7.953
 6478POPC   C4B21226  23.070  21.165   7.653
 6479POPC   NC321227  43.106  26.787   9.453
 6479POPC   PO421228  43.065  26.812   9.153
 6479POPC   GL121229  43.131  26.863   8.853
 6479POPC   GL221230  43.246  26.852   8.853
 6479POPC   C1A21231  43.070  26.797   8.553
 6479POPC   D2A21232  43.104  26.781   8.253
 6479POPC   C3A21233  43.156  26.820   7.953
 6479POPC   C4A21234  43.154  26.866   7.653
 6479POPC   C1B21235  43.409  26.848   8.553
 6479POPC   C2B21236  43.393  26.801   8.253
 6479POPC   C3B21237  43.375  26.855   7.953
 6479POPC   C4B21238  43.367  26.829   7.653
 6480POPC   NC321239  32.264  29.145   9.453
 6480POPC   PO421240  32.243  29.145   9.153
 6480POPC   GL121241  32.237  29.153   8.853
 6480POPC   GL221242  32.245  29.076   8.853
 6480POPC   C1A21243  32.218  29.124   8.553
 6480POPC   D2A21244  32.253  29.185   8.253
 6480POPC   C3A21245  32.226  29.105   7.953
 6480POPC   C4A21246  32.232  29.157   7.653
 6480POPC   C1B21247  32.175  28.944   8.553
 6480POPC   C2B21248  32.190  28.914   8.253
 6480POPC   C3B21249  32.156  28.895   7.953
 6480POPC   C4B21250  32.126  28.885   7.653
 6481POPC   NC321251   5.836  10.545   9.453
 6481POPC   PO421252   5.824  10.552   9.153
 6481POPC   GL121253   5.826  10.504   8.853
 6481POPC   GL221254   5.755  10.651   8.853
 6481POPC   C1A21255   5.866  10.529   8.553
 6481POPC   D2A21256   5.916  10.559   8.253
 6481POPC   C3A21257   5.900  10.548   7.953
 6481POPC   C4A21258   5.900  10.572   7.653
 6481POPC   C1B21259   5.697  10.739   8.553
 6481POPC   C2B21260   5.679  10.756   8.253
 6481POPC   C3B21261   5.698  10.736   7.953
 6481POPC   C4B21262   5.693  10.777   7.653
 6482POPC   NC321263  33.834  24.488   9.453
 6482POPC   PO421264  33.795  24.469   9.153
 6482POPC   GL121265  33.806  24.495   8.853
 6482POPC   GL221266  33.678  24.450   8.853
 6482POPC   C1A21267  33.785  24.491   8.553
 6482POPC   D2A21268  33.785  24.516   8.253
 6482POPC   C3A21269  33.807  24.473   7.953
 6482POPC   C4A21270  33.815  24.451   7.653
 6482POPC   C1B21271  33.598  24.445   8.553
 6482POPC   C2B21272  33.576  24.415   8.253
 6482POPC   C3B21273  33.555  24.388   7.953
 6482POPC   C4B21274  33.570  24.400   7.653
 6483POPC   NC321275  14.414   2.765   9.453
 6483POPC   PO421276  14.356   2.768   9.153
 6483POPC   GL121277  14.453   2.814   8.853
 6483POPC   GL221278  14.518   2.823   8.853
 6483POPC   C1A21279  14.439   2.740   8.553
 6483POPC   D2A21280  14.443   2.762   8.253
 6483POPC   C3A21281  14.408   2.735   7.953
 6483POPC   C4A21282  14.452   2.774   7.653
 6483POPC   C1B21283  14.656   2.872   8.553
 6483POPC   C2B21284  14.637   2.907   8.253
 6483POPC   C3B21285  14.651   2.906   7.953
 6483POPC   C4B21286  14.615   2.910   7.653
 6484POPC   NC321287  17.519   0.397   9.453
 6484POPC   PO421288  17.508   0.413   9.153
 6484POPC   GL121289  17.505   0.447   8.853
 6484POPC   GL221290  17.591   0.392   8.853
 6484POPC   C1A21291  17.535   0.424   8.553
 6484POPC   D2A21292  17.489   0.418   8.253
 6484POPC   C3A21293  17.473   0.429   7.953
 6484POPC   C4A21294  17.475   0.473   7.653
 6484POPC   C1B21295  17.719   0.327   8.553
 6484POPC   C2B21296  17.719   0.326   8.253
 6484POPC   C3B21297  17.738   0.347   7.953
 6484POPC   C4B21298  17.710   0.278   7.653
 6485POPC   NC321299   1.192   2.035   9.453
 6485POPC   PO421300   1.240   2.010   9.153
 6485POPC   GL121301   1.206   1.993   8.853
 6485POPC   GL221302   1.128   2.017   8.853
 6485POPC   C1A21303   1.200   1.959   8.553
 6485POPC   D2A21304   1.214   2.006   8.253
 6485POPC   C3A21305   1.236   1.962   7.953
 6485POPC   C4A21306   1.260   1.954   7.653
 6485POPC   C1B21307   1.012   2.069   8.553
 6485POPC   C2B21308   0.977   2.133   8.253
 6485POPC   C3B21309   0.996   2.137   7.953
 6485POPC   C4B21310   0.997   2.125   7.653
 6486POPC   NC321311  17.462  15.213   9.453
 6486POPC   PO421312  17.533  15.193   9.153
 6486POPC   GL121313  17.477  15.163   8.853
 6486POPC   GL221314  17.606  15.068   8.853
 6486POPC   C1A21315  17.474  15.170   8.553
 6486POPC   D2A21316  17.545  15.148   8.253
 6486POPC   C3A21317  17.516  15.177   7.953
 6486POPC   C4A21318  17.553  15.188   7.653
 6486POPC   C1B21319  17.645  14.959   8.553
 6486POPC   C2B21320  17.576  15.002   8.253
 6486POPC   C3B21321  17.604  14.933   7.953
 6486POPC   C4B21322  17.589  14.924   7.653
 6487POPC   NC321323  43.081  31.477   9.453
 6487POPC   PO421324  43.134  31.443   9.153
 6487POPC   GL121325  43.136  31.512   8.853
 6487POPC   GL221326  43.254  31.475   8.853
 6487POPC   C1A21327  43.127  31.436   8.553
 6487POPC   D2A21328  43.074  31.501   8.253
 6487POPC   C3A21329  43.061  31.514   7.953
 6487POPC   C4A21330  43.126  31.488   7.653
 6487POPC   C1B21331  43.331  31.375   8.553
 6487POPC   C2B21332  43.382  31.376   8.253
 6487POPC   C3B21333  43.310  31.360   7.953
 6487POPC   C4B21334  43.329  31.406   7.653
 6488POPC   NC321335  26.022  39.184   9.453
 6488POPC   PO421336  26.007  39.247   9.153
 6488POPC   GL121337  26.029  39.250   8.853
 6488POPC   GL221338  26.204  39.276   8.853
 6488POPC   C1A21339  26.014  39.263   8.553
 6488POPC   D2A21340  26.024  39.252   8.253
 6488POPC   C3A21341  26.088  39.223   7.953
 6488POPC   C4A21342  26.083  39.233   7.653
 6488POPC   C1B21343  26.261  39.305   8.553
 6488POPC   C2B21344  26.277  39.264   8.253
 6488POPC   C3B21345  26.323  39.219   7.953
 6488POPC   C4B21346  26.314  39.220   7.653
 6489POPC   NC321347   3.508  28.326   9.453
 6489POPC   PO421348   3.564  28.407   9.153
 6489POPC   GL121349   3.499  28.390   8.853
 6489POPC   GL221350   3.461  28.356   8.853
 6489POPC   C1A21351   3.576  28.333   8.553
 6489POPC   D2A21352   3.582  28.401   8.253
 6489POPC   C3A21353   3.567  28.359   7.953
 6489POPC   C4A21354   3.551  28.323   7.653
 6489POPC   C1B21355   3.300  28.219   8.553
 6489POPC   C2B21356   3.356  28.251   8.253
 6489POPC   C3B21357   3.278  28.290   7.953
 6489POPC   C4B21358   3.295  28.250   7.653
 6490POPC   NC321359   7.426   6.625   9.453
 6490POPC   PO421360   7.452   6.654   9.153
 6490POPC   GL121361   7.434   6.630   8.853
 6490POPC   GL221362   7.287   6.646   8.853
 6490POPC   C1A21363   7.413   6.608   8.553
 6490POPC   D2A21364   7.422   6.663   8.253
 6490POPC   C3A21365   7.453   6.597   7.953
 6490POPC   C4A21366   7.384   6.658   7.653
 6490POPC   C1B21367   7.210   6.737   8.553
 6490POPC   C2B21368   7.148   6.719   8.253
 6490POPC   C3B21369   7.200   6.673   7.953
 6490POPC   C4B21370   7.171   6.639   7.653
 6491POPC   NC321371  29.151  36.874   9.453
 6491POPC   PO421372  29.168  36.942   9.153
 6491POPC   GL121373  29.112  36.885   8.853
 6491POPC   GL221374  29.225  36.875   8.853
 6491POPC   C1A21375  29.131  36.903   8.553
 6491POPC   D2A21376  29.101  36.855   8.253
 6491POPC   C3A21377  29.135  36.946   7.953
 6491POPC   C4A21378  29.153  36.934   7.653
 6491POPC   C1B21379  29.356  36.903   8.553
 6491POPC   C2B21380  29.392  36.826   8.253
 6491POPC   C3B21381  29.343  36.829   7.953
 6491POPC   C4B21382  29.386  36.818   7.653
 6492POPC   NC321383  24.508  22.199   9.453
 6492POPC   PO421384  24.527  22.134   9.153
 6492POPC   GL121385  24.534  22.157   8.853
 6492POPC   GL221386  24.422  22.283   8.853
 6492POPC   C1A21387  24.445  22.130   8.553
 6492POPC   D2A21388  24.507  22.139   8.253
 6492POPC   C3A21389  24.490  22.157   7.953
 6492POPC   C4A21390  24.470  22.121   7.653
 6492POPC   C1B21391  24.353  22.365   8.553
 6492POPC   C2B21392  24.385  22.412   8.253
 6492POPC   C3B21393  24.349  22.356   7.953
 6492POPC   C4B21394  24.392  22.411   7.653
 6493POPC   NC321395  37.641   5.075   9.453
 6493POPC   PO421396  37.643   5.057   9.153
 6493POPC   GL121397  37.676   5.141   8.853
 6493POPC   GL221398  37.617   4.933   8.853
 6493POPC   C1A21399  37.643   5.068   8.553
 6493POPC   D2A21400  37.652   5.092   8.253
 6493POPC   C3A21401  37.713   5.102   7.953
 6493POPC   C4A21402  37.688   5.130   7.653
 6493POPC   C1B21403  37.592   4.896   8.553
 6493POPC   C2B21404  37.603   4.891   8.253
 6493POPC   C3B21405  37.631   4.857   7.953
 6493POPC   C4B21406  37.630   4.817   7.653
 6494POPC   NC321407  42.323   8.161   9.453
 6494POPC   PO421408  42.377   8.195   9.153
 6494POPC   GL121409  42.348   8.161   8.853
 6494POPC   GL221410  42.381   8.132   8.853
 6494POPC   C1A21411  42.352   8.179   8.553
 6494POPC   D2A21412  42.339   8.222   8.253
 6494POPC   C3A21413  42.365   8.188   7.953
 6494POPC   C4A21414  42.340   8.198   7.653
 6494POPC   C1B21415  42.449   7.977   8.553
 6494POPC   C2B21416  42.523   8.031   8.253
 6494POPC   C3B21417  42.469   7.995   7.953
 6494POPC   C4B21418  42.527   7.961   7.653
 6495POPC   NC321419  22.184  16.697   9.453
 6495POPC   PO421420  22.135  16.761   9.153
 6495POPC   GL121421  22.141  16.747   8.853
 6495POPC   GL221422  22.058  16.623   8.853
 6495POPC   C1A21423  22.189  16.724   8.553
 6495POPC   D2A21424  22.205  16.711   8.253
 6495POPC   C3A21425  22.136  16.727   7.953
 6495POPC   C4A21426  22.130  16.705   7.653
 6495POPC   C1B21427  21.998  16.473   8.553
 6495POPC   C2B21428  21.998  16.495   8.253
 6495POPC   C3B21429  22.024  16.548   7.953
 6495POPC   C4B21430  22.023  16.555   7.653
 6496POPC   NC321431  40.010  33.765   9.453
 6496POPC   PO421432  39.981  33.788   9.153
 6496POPC   GL121433  39.959  33.816   8.853
 6496POPC   GL221434  40.002  33.698   8.853
 6496POPC   C1A21435  39.998  33.815   8.553
 6496POPC   D2A21436  40.016  33.750   8.253
 6496POPC   C3A21437  39.966  33.816   7.953
 6496POPC   C4A21438  40.048  33.827   7.653
 6496POPC   C1B21439  40.030  33.584   8.553
 6496POPC   C2B21440  40.012  33.574   8.253
 6496POPC   C3B21441  39.998  33.579   7.953
 6496POPC   C4B21442  40.069  33.536   7.653
 6497POPC   NC321443   8.152   4.331   9.453
 6497POPC   PO421444   8.241   4.344   9.153
 6497POPC   GL121445   8.182   4.272   8.853
 6497POPC   GL221446   8.102   4.378   8.853
 6497POPC   C1A21447   8.242   4.292   8.553
 6497POPC   D2A21448   8.171   4.313   8.253
 6497POPC   C3A21449   8.221   4.275   7.953
 6497POPC   C4A21450   8.174   4.346   7.653
 6497POPC   C1B21451   7.947   4.349   8.553
 6497POPC   C2B21452   7.957   4.402   8.253
 6497POPC   C3B21453   7.913   4.354   7.953
 6497POPC   C4B21454   7.991   4.381   7.653
 6498POPC   NC321455  15.227  36.177   9.453
 6498POPC   PO421456  15.226  36.104   9.153
 6498POPC   GL121457  15.186  36.159   8.853
 6498POPC   GL221458  15.234  36.077   8.853
 6498POPC   C1A21459  15.138  36.123   8.553
 6498POPC   D2A21460  15.177  36.150   8.253
 6498POPC   C3A21461  15.218  36.177   7.953
 6498POPC   C4A21462  15.150  36.115   7.653
 6498POPC   C1B21463  15.315  35.977   8.553
 6498POPC   C2B21464  15.375  35.893   8.253
 6498POPC   C3B21465  15.359  35.975   7.953
 6498POPC   C4B21466  15.313  35.902   7.653
 6499POPC   NC321467  44.640  22.921   9.453
 6499POPC   PO421468  44.614  22.971   9.153
 6499POPC   GL121469  44.682  22.929   8.853
 6499POPC   GL221470  44.535  22.838   8.853
 6499POPC   C1A21471  44.615  22.984   8.553
 6499POPC   D2A21472  44.680  22.969   8.253
 6499POPC   C3A21473  44.665  22.961   7.953
 6499POPC   C4A21474  44.692  22.984   7.653
 6499POPC   C1B21475  44.464  22.738   8.553
 6499POPC   C2B21476  44.433  22.725   8.253
 6499POPC   C3B21477  44.512  22.729   7.953
 6499POPC   C4B21478  44.465  22.813   7.653
 6500POPC   NC321479   1.190  35.323   9.453
 6500POPC   PO421480   1.215  35.381   9.153
 6500POPC   GL121481   1.173  35.391   8.853
 6500POPC   GL221482   1.139  35.490   8.853
 6500POPC   C1A21483   1.214  35.383   8.553
 6500POPC   D2A21484   1.173  35.379   8.253
 6500POPC   C3A21485   1.220  35.392   7.953
 6500POPC   C4A21486   1.257  35.339   7.653
 6500POPC   C1B21487   1.104  35.606   8.553
 6500POPC   C2B21488   1.152  35.553   8.253
 6500POPC   C3B21489   1.072  35.603   7.953
 6500POPC   C4B21490   1.095  35.615   7.653
 6501POPC   NC321491  24.530  31.446   9.453
 6501POPC   PO421492  24.496  31.434   9.153
 6501POPC   GL121493  24.457  31.462   8.853
 6501POPC   GL221494  24.653  31.423   8.853
 6501POPC   C1A21495  24.497  31.426   8.553
 6501POPC   D2A21496  24.483  31.432   8.253
 6501POPC   C3A21497  24.478  31.468   7.953
 6501POPC   C4A21498  24.507  31.476   7.653
 6501POPC   C1B21499  24.735  31.359   8.553
 6501POPC   C2B21500  24.701  31.394   8.253
 6501POPC   C3B21501  24.706  31.324   7.953
 6501POPC   C4B21502  24.738  31.395   7.653
 6502POPC   NC321503  29.941  30.737   9.453
 6502POPC   PO421504  29.915  30.736   9.153
 6502POPC   GL121505  29.910  30.655   8.853
 6502POPC   GL221506  29.806  30.788   8.853
 6502POPC   C1A21507  29.895  30.738   8.553
 6502POPC   D2A21508  29.964  30.743   8.253
 6502POPC   C3A21509  29.961  30.736   7.953
 6502POPC   C4A21510  29.935  30.722   7.653
 6502POPC   C1B21511  29.735  30.805   8.553
 6502POPC   C2B21512  29.756  30.781   8.253
 6502POPC   C3B21513  29.715  30.833   7.953
 6502POPC   C4B21514  29.737  30.830   7.653
 6503POPC   NC321515   0.453   5.915   9.453
 6503POPC   PO421516   0.478   5.847   9.153
 6503POPC   GL121517   0.481   5.876   8.853
 6503POPC   GL221518   0.277   5.844   8.853
 6503POPC   C1A21519   0.418   5.903   8.553
 6503POPC   D2A21520   0.453   5.839   8.253
 6503POPC   C3A21521   0.471   5.899   7.953
 6503POPC   C4A21522   0.430   5.856   7.653
 6503POPC   C1B21523   0.199   5.784   8.553
 6503POPC   C2B21524   0.195   5.795   8.253
 6503POPC   C3B21525   0.199   5.723   7.953
 6503POPC   C4B21526   0.190   5.718   7.653
 6504POPC   NC321527   5.830   3.573   9.453
 6504POPC   PO421528   5.859   3.551   9.153
 6504POPC   GL121529   5.824   3.585   8.853
 6504POPC   GL221530   5.931   3.429   8.853
 6504POPC   C1A21531   5.841   3.506   8.553
 6504POPC   D2A21532   5.893   3.572   8.253
 6504POPC   C3A21533   5.913   3.551   7.953
 6504POPC   C4A21534   5.847   3.552   7.653
 6504POPC   C1B21535   6.056   3.328   8.553
 6504POPC   C2B21536   6.024   3.369   8.253
 6504POPC   C3B21537   6.041   3.297   7.953
 6504POPC   C4B21538   6.007   3.333   7.653
 6505POPC   NC321539  34.558  26.806   9.453
 6505POPC   PO421540  34.573  26.857   9.153
 6505POPC   GL121541  34.533  26.829   8.853
 6505POPC   GL221542  34.629  26.731   8.853
 6505POPC   C1A21543  34.570  26.797   8.553
 6505POPC   D2A21544  34.556  26.820   8.253
 6505POPC   C3A21545  34.598  26.809   7.953
 6505POPC   C4A21546  34.596  26.856   7.653
 6505POPC   C1B21547  34.733  26.602   8.553
 6505POPC   C2B21548  34.725  26.605   8.253
 6505POPC   C3B21549  34.695  26.577   7.953
 6505POPC   C4B21550  34.732  26.659   7.653
 6506POPC   NC321551  40.025  37.713   9.453
 6506POPC   PO421552  40.052  37.719   9.153
 6506POPC   GL121553  40.048  37.644   8.853
 6506POPC   GL221554  40.090  37.619   8.853
 6506POPC   C1A21555  39.998  37.710   8.553
 6506POPC   D2A21556  39.983  37.725   8.253
 6506POPC   C3A21557  40.029  37.696   7.953
 6506POPC   C4A21558  39.960  37.656   7.653
 6506POPC   C1B21559  40.235  37.586   8.553
 6506POPC   C2B21560  40.244  37.656   8.253
 6506POPC   C3B21561  40.258  37.638   7.953
 6506POPC   C4B21562  40.279  37.599   7.653
 6507POPC   NC321563   3.495  33.829   9.453
 6507POPC   PO421564   3.534  33.834   9.153
 6507POPC   GL121565   3.567  33.799   8.853
 6507POPC   GL221566   3.678  33.816   8.853
 6507POPC   C1A21567   3.505  33.770   8.553
 6507POPC   D2A21568   3.535  33.785   8.253
 6507POPC   C3A21569   3.571  33.771   7.953
 6507POPC   C4A21570   3.495  33.822   7.653
 6507POPC   C1B21571   3.833  33.783   8.553
 6507POPC   C2B21572   3.828  33.769   8.253
 6507POPC   C3B21573   3.764  33.745   7.953
 6507POPC   C4B21574   3.835  33.720   7.653
 6508POPC   NC321575  32.276  19.028   9.453
 6508POPC   PO421576  32.272  19.059   9.153
 6508POPC   GL121577  32.271  19.063   8.853
 6508POPC   GL221578  32.185  18.988   8.853
 6508POPC   C1A21579  32.212  19.095   8.553
 6508POPC   D2A21580  32.289  19.037   8.253
 6508POPC   C3A21581  32.217  19.101   7.953
 6508POPC   C4A21582  32.207  19.017   7.653
 6508POPC   C1B21583  32.051  18.924   8.553
 6508POPC   C2B21584  32.070  18.898   8.253
 6508POPC   C3B21585  32.091  18.880   7.953
 6508POPC   C4B21586  32.032  18.905   7.653
 6509POPC   NC321587  15.986  21.361   9.453
 6509POPC   PO421588  15.937  21.379   9.153
 6509POPC   GL121589  15.929  21.413   8.853
 6509POPC   GL221590  16.000  21.253   8.853
 6509POPC   C1A21591  15.917  21.387   8.553
 6509POPC   D2A21592  15.958  21.413   8.253
 6509POPC   C3A21593  15.964  21.407   7.953
 6509POPC   C4A21594  15.915  21.432   7.653
 6509POPC   C1B21595  16.117  21.230   8.553
 6509POPC   C2B21596  16.103  21.168   8.253
 6509POPC   C3B21597  16.122  21.226   7.953
 6509POPC   C4B21598  16.140  21.156   7.653
 6510POPC   NC321599  15.138  16.748   9.453
 6510POPC   PO421600  15.224  16.687   9.153
 6510POPC   GL121601  15.224  16.708   8.853
 6510POPC   GL221602  15.195  16.886   8.853
 6510POPC   C1A21603  15.205  16.736   8.553
 6510POPC   D2A21604  15.227  16.748   8.253
 6510POPC   C3A21605  15.146  16.706   7.953
 6510POPC   C4A21606  15.169  16.778   7.653
 6510POPC   C1B21607  15.237  17.003   8.553
 6510POPC   C2B21608  15.247  16.997   8.253
 6510POPC   C3B21609  15.286  16.944   7.953
 6510POPC   C4B21610  15.254  16.950   7.653
 6511POPC   NC321611   1.237  24.531   9.453
 6511POPC   PO421612   1.202  24.472   9.153
 6511POPC   GL121613   1.168  24.442   8.853
 6511POPC   GL221614   1.289  24.425   8.853
 6511POPC   C1A21615   1.224  24.486   8.553
 6511POPC   D2A21616   1.251  24.529   8.253
 6511POPC   C3A21617   1.247  24.472   7.953
 6511POPC   C4A21618   1.249  24.477   7.653
 6511POPC   C1B21619   1.366  24.352   8.553
 6511POPC   C2B21620   1.352  24.280   8.253
 6511POPC   C3B21621   1.371  24.281   7.953
 6511POPC   C4B21622   1.427  24.304   7.653
 6512POPC   NC321623  12.069  26.794   9.453
 6512POPC   PO421624  12.034  26.770   9.153
 6512POPC   GL121625  12.067  26.848   8.853
 6512POPC   GL221626  12.021  26.918   8.853
 6512POPC   C1A21627  12.061  26.857   8.553
 6512POPC   D2A21628  12.051  26.859   8.253
 6512POPC   C3A21629  12.063  26.769   7.953
 6512POPC   C4A21630  12.066  26.775   7.653
 6512POPC   C1B21631  12.002  27.014   8.553
 6512POPC   C2B21632  12.062  27.061   8.253
 6512POPC   C3B21633  11.991  27.028   7.953
 6512POPC   C4B21634  12.041  27.060   7.653
 6513POPC   NC321635  18.269  26.866   9.453
 6513POPC   PO421636  18.330  26.769   9.153
 6513POPC   GL121637  18.323  26.860   8.853
 6513POPC   GL221638  18.130  26.773   8.853
 6513POPC   C1A21639  18.264  26.774   8.553
 6513POPC   D2A21640  18.307  26.806   8.253
 6513POPC   C3A21641  18.258  26.797   7.953
 6513POPC   C4A21642  18.259  26.818   7.653
 6513POPC   C1B21643  18.100  26.697   8.553
 6513POPC   C2B21644  18.053  26.684   8.253
 6513POPC   C3B21645  18.023  26.733   7.953
 6513POPC   C4B21646  18.037  26.702   7.653
 6514POPC   NC321647   5.104  15.151   9.453
 6514POPC   PO421648   5.046  15.167   9.153
 6514POPC   GL121649   5.088  15.187   8.853
 6514POPC   GL221650   5.131  15.034   8.853
 6514POPC   C1A21651   5.126  15.179   8.553
 6514POPC   D2A21652   5.098  15.211   8.253
 6514POPC   C3A21653   5.111  15.225   7.953
 6514POPC   C4A21654   5.059  15.200   7.653
 6514POPC   C1B21655   5.117  14.889   8.553
 6514POPC   C2B21656   5.098  14.924   8.253
 6514POPC   C3B21657   5.074  14.969   7.953
 6514POPC   C4B21658   5.071  14.881   7.653
 6515POPC   NC321659  20.633  18.261   9.453
 6515POPC   PO421660  20.583  18.276   9.153
 6515POPC   GL121661  20.610  18.306   8.853
 6515POPC   GL221662  20.751  18.333   8.853
 6515POPC   C1A21663  20.582  18.259   8.553
 6515POPC   D2A21664  20.654  18.298   8.253
 6515POPC   C3A21665  20.641  18.276   7.953
 6515POPC   C4A21666  20.642  18.317   7.653
 6515POPC   C1B21667  20.816  18.436   8.553
 6515POPC   C2B21668  20.777  18.375   8.253
 6515POPC   C3B21669  20.778  18.420   7.953
 6515POPC   C4B21670  20.867  18.432   7.653
 6516POPC   NC321671   8.194  12.810   9.453
 6516POPC   PO421672   8.181  12.820   9.153
 6516POPC   GL121673   8.235  12.858   8.853
 6516POPC   GL221674   8.351  12.822   8.853
 6516POPC   C1A21675   8.221  12.845   8.553
 6516POPC   D2A21676   8.192  12.870   8.253
 6516POPC   C3A21677   8.219  12.849   7.953
 6516POPC   C4A21678   8.176  12.805   7.653
 6516POPC   C1B21679   8.493  12.796   8.553
 6516POPC   C2B21680   8.400  12.855   8.253
 6516POPC   C3B21681   8.449  12.866   7.953
 6516POPC   C4B21682   8.398  12.855   7.653
 6517POPC   NC321683  20.649   0.443   9.453
 6517POPC   PO421684  20.652   0.458   9.153
 6517POPC   GL121685  20.576   0.414   8.853
 6517POPC   GL221686  20.477   0.463   8.853
 6517POPC   C1A21687  20.577   0.448   8.553
 6517POPC   D2A21688  20.586   0.481   8.253
 6517POPC   C3A21689  20.660   0.473   7.953
 6517POPC   C4A21690  20.657   0.407   7.653
 6517POPC   C1B21691  20.443   0.597   8.553
 6517POPC   C2B21692  20.369   0.551   8.253
 6517POPC   C3B21693  20.403   0.547   7.953
 6517POPC   C4B21694  20.376   0.524   7.653
 6518POPC   NC321695  43.078  28.339   9.453
 6518POPC   PO421696  43.140  28.361   9.153
 6518POPC   GL121697  43.137  28.360   8.853
 6518POPC   GL221698  43.170  28.442   8.853
 6518POPC   C1A21699  43.133  28.333   8.553
 6518POPC   D2A21700  43.159  28.340   8.253
 6518POPC   C3A21701  43.123  28.347   7.953
 6518POPC   C4A21702  43.072  28.337   7.653
 6518POPC   C1B21703  43.290  28.608   8.553
 6518POPC   C2B21704  43.220  28.612   8.253
 6518POPC   C3B21705  43.232  28.529   7.953
 6518POPC   C4B21706  43.302  28.534   7.653
 6519POPC   NC321707  26.019  28.402   9.453
 6519POPC   PO421708  26.033  28.377   9.153
 6519POPC   GL121709  26.014  28.378   8.853
 6519POPC   GL221710  26.138  28.413   8.853
 6519POPC   C1A21711  26.030  28.375   8.553
 6519POPC   D2A21712  26.062  28.361   8.253
 6519POPC   C3A21713  25.992  28.351   7.953
 6519POPC   C4A21714  26.029  28.353   7.653
 6519POPC   C1B21715  26.239  28.512   8.553
 6519POPC   C2B21716  26.309  28.487   8.253
 6519POPC   C3B21717  26.227  28.436   7.953
 6519POPC   C4B21718  26.244  28.471   7.653
 6520POPC   NC321719  40.020  32.988   9.453
 6520POPC   PO421720  39.989  33.021   9.153
 6520POPC   GL121721  39.965  33.057   8.853
 6520POPC   GL221722  40.093  33.153   8.853
 6520POPC   C1A21723  40.027  32.975   8.553
 6520POPC   D2A21724  40.025  33.002   8.253
 6520POPC   C3A21725  40.048  33.065   7.953
 6520POPC   C4A21726  39.972  33.037   7.653
 6520POPC   C1B21727  40.124  33.205   8.553
 6520POPC   C2B21728  40.124  33.257   8.253
 6520POPC   C3B21729  40.107  33.278   7.953
 6520POPC   C4B21730  40.130  33.254   7.653
 6521POPC   NC321731  37.641  23.689   9.453
 6521POPC   PO421732  37.715  23.668   9.153
 6521POPC   GL121733  37.674  23.750   8.853
 6521POPC   GL221734  37.551  23.673   8.853
 6521POPC   C1A21735  37.650  23.681   8.553
 6521POPC   D2A21736  37.693  23.741   8.253
 6521POPC   C3A21737  37.669  23.715   7.953
 6521POPC   C4A21738  37.649  23.747   7.653
 6521POPC   C1B21739  37.427  23.668   8.553
 6521POPC   C2B21740  37.469  23.605   8.253
 6521POPC   C3B21741  37.469  23.634   7.953
 6521POPC   C4B21742  37.404  23.674   7.653
 6522POPC   NC321743  37.673  26.787   9.453
 6522POPC   PO421744  37.702  26.772   9.153
 6522POPC   GL121745  37.727  26.771   8.853
 6522POPC   GL221746  37.750  26.869   8.853
 6522POPC   C1A21747  37.668  26.861   8.553
 6522POPC   D2A21748  37.635  26.843   8.253
 6522POPC   C3A21749  37.720  26.848   7.953
 6522POPC   C4A21750  37.673  26.851   7.653
 6522POPC   C1B21751  37.827  26.966   8.553
 6522POPC   C2B21752  37.843  26.950   8.253
 6522POPC   C3B21753  37.900  27.000   7.953
 6522POPC   C4B21754  37.909  26.992   7.653
 6523POPC   NC321755  33.764  39.970   9.453
 6523POPC   PO421756  33.765  39.987   9.153
 6523POPC   GL121757  33.850  39.987   8.853
 6523POPC   GL221758  33.785  39.891   8.853
 6523POPC   C1A21759  33.842  40.007   8.553
 6523POPC   D2A21760  33.789  39.978   8.253
 6523POPC   C3A21761  33.775  39.957   7.953
 6523POPC   C4A21762  33.759  39.977   7.653
 6523POPC   C1B21763  33.757  39.744   8.553
 6523POPC   C2B21764  33.722  39.763   8.253
 6523POPC   C3B21765  33.708  39.741   7.953
 6523POPC   C4B21766  33.750  39.778   7.653
 6524POPC   NC321767  44.649   6.695   9.453
 6524POPC   PO421768  44.621   6.677   9.153
 6524POPC   GL121769  44.698   6.642   8.853
 6524POPC   GL221770  44.768   6.613   8.853
 6524POPC   C1A21771  44.642   6.612   8.553
 6524POPC   D2A21772  44.680   6.643   8.253
 6524POPC   C3A21773  44.674   6.660   7.953
 6524POPC   C4A21774  44.674   6.616   7.653
 6524POPC   C1B21775  44.824   6.536   8.553
 6524POPC   C2B21776  44.895   6.537   8.253
 6524POPC   C3B21777  44.850   6.499   7.953
 6524POPC   C4B21778  44.865   6.491   7.653
 6525POPC   NC321779  39.981  15.980   9.453
 6525POPC   PO421780  40.014  16.005   9.153
 6525POPC   GL121781  39.969  15.972   8.853
 6525POPC   GL221782  39.938  15.905   8.853
 6525POPC   C1A21783  39.979  15.971   8.553
 6525POPC   D2A21784  40.029  15.954   8.253
 6525POPC   C3A21785  40.013  15.971   7.953
 6525POPC   C4A21786  39.957  15.919   7.653
 6525POPC   C1B21787  39.880  15.817   8.553
 6525POPC   C2B21788  39.863  15.802   8.253
 6525POPC   C3B21789  39.847  15.818   7.953
 6525POPC   C4B21790  39.813  15.801   7.653
 6526POPC   NC321791  43.097  25.224   9.453
 6526POPC   PO421792  43.073  25.237   9.153
 6526POPC   GL121793  43.145  25.228   8.853
 6526POPC   GL221794  43.141  25.390   8.853
 6526POPC   C1A21795  43.151  25.264   8.553
 6526POPC   D2A21796  43.137  25.252   8.253
 6526POPC   C3A21797  43.062  25.286   7.953
 6526POPC   C4A21798  43.063  25.286   7.653
 6526POPC   C1B21799  43.049  25.503   8.553
 6526POPC   C2B21800  43.110  25.477   8.253
 6526POPC   C3B21801  43.059  25.546   7.953
 6526POPC   C4B21802  43.038  25.485   7.653
 6527POPC   NC321803  17.521   5.077   9.453
 6527POPC   PO421804  17.471   5.120   9.153
 6527POPC   GL121805  17.487   5.052   8.853
 6527POPC   GL221806  17.429   5.185   8.853
 6527POPC   C1A21807  17.548   5.130   8.553
 6527POPC   D2A21808  17.529   5.092   8.253
 6527POPC   C3A21809  17.529   5.116   7.953
 6527POPC   C4A21810  17.549   5.065   7.653
 6527POPC   C1B21811  17.321   5.252   8.553
 6527POPC   C2B21812  17.291   5.171   8.253
 6527POPC   C3B21813  17.268   5.253   7.953
 6527POPC   C4B21814  17.338   5.177   7.653
 6528POPC   NC321815   6.640   7.442   9.453
 6528POPC   PO421816   6.611   7.409   9.153
 6528POPC   GL121817   6.613   7.415   8.853
 6528POPC   GL221818   6.699   7.269   8.853
 6528POPC   C1A21819   6.628   7.383   8.553
 6528POPC   D2A21820   6.651   7.465   8.253
 6528POPC   C3A21821   6.627   7.380   7.953
 6528POPC   C4A21822   6.626   7.393   7.653
 6528POPC   C1B21823   6.782   7.201   8.553
 6528POPC   C2B21824   6.768   7.179   8.253
 6528POPC   C3B21825   6.765   7.149   7.953
 6528POPC   C4B21826   6.704   7.172   7.653
 6529POPC   NC321827  30.685  42.301   9.453
 6529POPC   PO421828  30.660  42.302   9.153
 6529POPC   GL121829  30.725  42.301   8.853
 6529POPC   GL221830  30.762  42.463   8.853
 6529POPC   C1A21831  30.739  42.366   8.553
 6529POPC   D2A21832  30.734  42.342   8.253
 6529POPC   C3A21833  30.675  42.310   7.953
 6529POPC   C4A21834  30.695  42.334   7.653
 6529POPC   C1B21835  30.835  42.513   8.553
 6529POPC   C2B21836  30.856  42.511   8.253
 6529POPC   C3B21837  30.878  42.588   7.953
 6529POPC   C4B21838  30.872  42.586   7.653
 6530POPC   NC321839  22.946  40.036   9.453
 6530POPC   PO421840  22.970  39.981   9.153
 6530POPC   GL121841  22.895  40.035   8.853
 6530POPC   GL221842  22.881  39.926   8.853
 6530POPC   C1A21843  22.906  39.963   8.553
 6530POPC   D2A21844  22.941  40.037   8.253
 6530POPC   C3A21845  22.969  40.019   7.953
 6530POPC   C4A21846  22.947  40.009   7.653
 6530POPC   C1B21847  22.900  39.747   8.553
 6530POPC   C2B21848  22.905  39.773   8.253
 6530POPC   C3B21849  22.944  39.760   7.953
 6530POPC   C4B21850  22.891  39.767   7.653
 6531POPC   NC321851   3.521  42.345   9.453
 6531POPC   PO421852   3.550  42.356   9.153
 6531POPC   GL121853   3.573  42.336   8.853
 6531POPC   GL221854   3.542  42.480   8.853
 6531POPC   C1A21855   3.533  42.297   8.553
 6531POPC   D2A21856   3.564  42.325   8.253
 6531POPC   C3A21857   3.494  42.367   7.953
 6531POPC   C4A21858   3.508  42.341   7.653
 6531POPC   C1B21859   3.581  42.617   8.553
 6531POPC   C2B21860   3.558  42.614   8.253
 6531POPC   C3B21861   3.586  42.568   7.953
 6531POPC   C4B21862   3.563  42.577   7.653
 6532POPC   NC321863  26.008  16.706   9.453
 6532POPC   PO421864  26.090  16.756   9.153
 6532POPC   GL121865  26.010  16.697   8.853
 6532POPC   GL221866  26.156  16.666   8.853
 6532POPC   C1A21867  26.064  16.758   8.553
 6532POPC   D2A21868  26.001  16.755   8.253
 6532POPC   C3A21869  26.076  16.764   7.953
 6532POPC   C4A21870  26.019  16.714   7.653
 6532POPC   C1B21871  26.237  16.609   8.553
 6532POPC   C2B21872  26.256  16.624   8.253
 6532POPC   C3B21873  26.247  16.599   7.953
 6532POPC   C4B21874  26.223  16.567   7.653
 6533POPC   NC321875   5.107  15.962   9.453
 6533POPC   PO421876   5.129  15.910   9.153
 6533POPC   GL121877   5.112  15.955   8.853
 6533POPC   GL221878   5.048  15.859   8.853
 6533POPC   C1A21879   5.090  15.948   8.553
 6533POPC   D2A21880   5.093  16.005   8.253
 6533POPC   C3A21881   5.108  15.941   7.953
 6533POPC   C4A21882   5.067  15.951   7.653
 6533POPC   C1B21883   5.026  15.687   8.553
 6533POPC   C2B21884   4.966  15.696   8.253
 6533POPC   C3B21885   5.039  15.724   7.953
 6533POPC   C4B21886   4.961  15.678   7.653
 6534POPC   NC321887   1.239  43.107   9.453
 6534POPC   PO421888   1.227  43.081   9.153
 6534POPC   GL121889   1.216  43.069   8.853
 6534POPC   GL221890   1.130  43.047   8.853
 6534POPC   C1A21891   1.217  43.158   8.553
 6534POPC   D2A21892   1.198  43.134   8.253
 6534POPC   C3A21893   1.206  43.144   7.953
 6534POPC   C4A21894   1.217  43.116   7.653
 6534POPC   C1B21895   1.005  42.964   8.553
 6534POPC   C2B21896   1.083  42.912   8.253
 6534POPC   C3B21897   1.008  42.928   7.953
 6534POPC   C4B21898   1.088  42.907   7.653
 6535POPC   NC321899  36.126  22.929   9.453
 6535POPC   PO421900  36.115  22.943   9.153
 6535POPC   GL121901  36.101  22.902   8.853
 6535POPC   GL221902  36.230  22.797   8.853
 6535POPC   C1A21903  36.162  22.928   8.553
 6535POPC   D2A21904  36.177  22.953   8.253
 6535POPC   C3A21905  36.116  22.984   7.953
 6535POPC   C4A21906  36.129  22.950   7.653
 6535POPC   C1B21907  36.266  22.714   8.553
 6535POPC   C2B21908  36.275  22.685   8.253
 6535POPC   C3B21909  36.207  22.700   7.953
 6535POPC   C4B21910  36.206  22.735   7.653
 6536POPC   NC321911   7.466  36.948   9.453
 6536POPC   PO421912   7.439  36.910   9.153
 6536POPC   GL121913   7.398  36.907   8.853
 6536POPC   GL221914   7.321  36.816   8.853
 6536POPC   C1A21915   7.424  36.859   8.553
 6536POPC   D2A21916   7.463  36.876   8.253
 6536POPC   C3A21917   7.440  36.859   7.953
 6536POPC   C4A21918   7.462  36.875   7.653
 6536POPC   C1B21919   7.233  36.774   8.553
 6536POPC   C2B21920   7.191  36.686   8.253
 6536POPC   C3B21921   7.246  36.732   7.953
 6536POPC   C4B21922   7.243  36.781   7.653
 6537POPC   NC321923  42.309   5.910   9.453
 6537POPC   PO421924  42.301   5.910   9.153
 6537POPC   GL121925  42.372   5.909   8.853
 6537POPC   GL221926  42.412   5.970   8.853
 6537POPC   C1A21927  42.287   5.871   8.553
 6537POPC   D2A21928  42.372   5.857   8.253
 6537POPC   C3A21929  42.362   5.835   7.953
 6537POPC   C4A21930  42.338   5.868   7.653
 6537POPC   C1B21931  42.577   5.961   8.553
 6537POPC   C2B21932  42.567   6.032   8.253
 6537POPC   C3B21933  42.578   5.961   7.953
 6537POPC   C4B21934  42.559   6.021   7.653
 6538POPC   NC321935   5.833  25.999   9.453
 6538POPC   PO421936   5.858  26.056   9.153
 6538POPC   GL121937   5.829  26.026   8.853
 6538POPC   GL221938   5.940  25.963   8.853
 6538POPC   C1A21939   5.886  26.022   8.553
 6538POPC   D2A21940   5.837  26.007   8.253
 6538POPC   C3A21941   5.853  26.044   7.953
 6538POPC   C4A21942   5.912  26.087   7.653
 6538POPC   C1B21943   6.089  25.925   8.553
 6538POPC   C2B21944   6.078  25.891   8.253
 6538POPC   C3B21945   6.112  25.835   7.953
 6538POPC   C4B21946   6.107  25.882   7.653
 6539POPC   NC321947   9.737   7.412   9.453
 6539POPC   PO421948   9.746   7.422   9.153
 6539POPC   GL121949   9.793   7.421   8.853
 6539POPC   GL221950   9.866   7.464   8.853
 6539POPC   C1A21951   9.761   7.437   8.553
 6539POPC   D2A21952   9.786   7.459   8.253
 6539POPC   C3A21953   9.762   7.389   7.953
 6539POPC   C4A21954   9.741   7.391   7.653
 6539POPC   C1B21955   9.959   7.457   8.553
 6539POPC   C2B21956  10.010   7.445   8.253
 6539POPC   C3B21957  10.016   7.362   7.953
 6539POPC   C4B21958  10.030   7.380   7.653
 6540POPC   NC321959  26.817  44.680   9.453
 6540POPC   PO421960  26.848  44.648   9.153
 6540POPC   GL121961  26.865  44.710   8.853
 6540POPC   GL221962  26.922  44.699   8.853
 6540POPC   C1A21963  26.845  44.668   8.553
 6540POPC   D2A21964  26.821  44.656   8.253
 6540POPC   C3A21965  26.771  44.686   7.953
 6540POPC   C4A21966  26.801  44.649   7.653
 6540POPC   C1B21967  27.062  44.720   8.553
 6540POPC   C2B21968  27.094  44.721   8.253
 6540POPC   C3B21969  27.064  44.702   7.953
 6540POPC   C4B21970  27.097  44.734   7.653
 6541POPC   NC321971  23.709  42.326   9.453
 6541POPC   PO421972  23.714  42.308   9.153
 6541POPC   GL121973  23.733  42.314   8.853
 6541POPC   GL221974  23.598  42.401   8.853
 6541POPC   C1A21975  23.711  42.334   8.553
 6541POPC   D2A21976  23.762  42.347   8.253
 6541POPC   C3A21977  23.692  42.316   7.953
 6541POPC   C4A21978  23.717  42.289   7.653
 6541POPC   C1B21979  23.444  42.381   8.553
 6541POPC   C2B21980  23.479  42.396   8.253
 6541POPC   C3B21981  23.497  42.423   7.953
 6541POPC   C4B21982  23.503  42.407   7.653
 6542POPC   NC321983  39.980  10.478   9.453
 6542POPC   PO421984  39.998  10.521   9.153
 6542POPC   GL121985  39.981  10.478   8.853
 6542POPC   GL221986  40.108  10.436   8.853
 6542POPC   C1A21987  40.030  10.511   8.553
 6542POPC   D2A21988  40.052  10.528   8.253
 6542POPC   C3A21989  40.014  10.554   7.953
 6542POPC   C4A21990  40.025  10.527   7.653
 6542POPC   C1B21991  40.209  10.431   8.553
 6542POPC   C2B21992  40.211  10.411   8.253
 6542POPC   C3B21993  40.215  10.449   7.953
 6542POPC   C4B21994  40.197  10.461   7.653
 6543POPC   NC321995   5.886  36.887   9.453
 6543POPC   PO421996   5.877  36.923   9.153
 6543POPC   GL121997   5.883  36.915   8.853
 6543POPC   GL221998   5.942  36.799   8.853
 6543POPC   C1A21999   5.828  36.943   8.553
 6543POPC   D2A22000   5.916  36.921   8.253
 6543POPC   C3A22001   5.839  36.925   7.953
 6543POPC   C4A22002   5.850  36.949   7.653
 6543POPC   C1B22003   6.125  36.766   8.553
 6543POPC   C2B22004   6.112  36.764   8.253
 6543POPC   C3B22005   6.092  36.788   7.953
 6543POPC   C4B22006   6.052  36.801   7.653
 6544POPC   NC322007  35.389  27.571   9.453
 6544POPC   PO422008  35.393  27.589   9.153
 6544POPC   GL122009  35.339  27.604   8.853
 6544POPC   GL222010  35.315  27.688   8.853
 6544POPC   C1A22011  35.362  27.580   8.553
 6544POPC   D2A22012  35.360  27.560   8.253
 6544POPC   C3A22013  35.353  27.640   7.953
 6544POPC   C4A22014  35.390  27.570   7.653
 6544POPC   C1B22015  35.289  27.843   8.553
 6544POPC   C2B22016  35.277  27.822   8.253
 6544POPC   C3B22017  35.297  27.802   7.953
 6544POPC   C4B22018  35.291  27.820   7.653
 6545POPC   NC322019  36.948  23.736   9.453
 6545POPC   PO422020  36.885  23.667   9.153
 6545POPC   GL122021  36.951  23.701   8.853
 6545POPC   GL222022  36.890  23.880   8.853
 6545POPC   C1A22023  36.920  23.724   8.553
 6545POPC   D2A22024  36.855  23.693   8.253
 6545POPC   C3A22025  36.885  23.692   7.953
 6545POPC   C4A22026  36.943  23.736   7.653
 6545POPC   C1B22027  36.918  23.967   8.553
 6545POPC   C2B22028  36.892  23.952   8.253
 6545POPC   C3B22029  36.949  23.946   7.953
 6545POPC   C4B22030  36.879  23.998   7.653
 6546POPC   NC322031  34.532  25.993   9.453
 6546POPC   PO422032  34.570  26.076   9.153
 6546POPC   GL122033  34.556  26.053   8.853
 6546POPC   GL222034  34.640  25.998   8.853
 6546POPC   C1A22035  34.549  26.090   8.553
 6546POPC   D2A22036  34.609  25.999   8.253
 6546POPC   C3A22037  34.571  26.042   7.953
 6546POPC   C4A22038  34.534  26.024   7.653
 6546POPC   C1B22039  34.712  25.872   8.553
 6546POPC   C2B22040  34.748  25.818   8.253
 6546POPC   C3B22041  34.738  25.865   7.953
 6546POPC   C4B22042  34.736  25.864   7.653
 6547POPC   NC322043   3.555  17.539   9.453
 6547POPC   PO422044   3.540  17.540   9.153
 6547POPC   GL122045   3.496  17.460   8.853
 6547POPC   GL222046   3.630  17.441   8.853
 6547POPC   C1A22047   3.509  17.474   8.553
 6547POPC   D2A22048   3.564  17.545   8.253
 6547POPC   C3A22049   3.563  17.461   7.953
 6547POPC   C4A22050   3.514  17.468   7.653
 6547POPC   C1B22051   3.684  17.273   8.553
 6547POPC   C2B22052   3.683  17.275   8.253
 6547POPC   C3B22053   3.640  17.340   7.953
 6547POPC   C4B22054   3.705  17.326   7.653
 6548POPC   NC322055  33.044  16.780   9.453
 6548POPC   PO422056  32.987  16.701   9.153
 6548POPC   GL122057  33.064  16.701   8.853
 6548POPC   GL222058  32.870  16.753   8.853
 6548POPC   C1A22059  33.002  16.746   8.553
 6548POPC   D2A22060  33.007  16.699   8.253
 6548POPC   C3A22061  33.035  16.778   7.953
 6548POPC   C4A22062  32.975  16.693   7.653
 6548POPC   C1B22063  32.801  16.679   8.553
 6548POPC   C2B22064  32.816  16.728   8.253
 6548POPC   C3B22065  32.771  16.644   7.953
 6548POPC   C4B22066  32.788  16.725   7.653
 6549POPC   NC322067  33.842  36.874   9.453
 6549POPC   PO422068  33.791  36.881   9.153
 6549POPC   GL122069  33.769  36.865   8.853
 6549POPC   GL222070  33.692  36.929   8.853
 6549POPC   C1A22071  33.845  36.899   8.553
 6549POPC   D2A22072  33.831  36.907   8.253
 6549POPC   C3A22073  33.785  36.948   7.953
 6549POPC   C4A22074  33.809  36.942   7.653
 6549POPC   C1B22075  33.585  36.855   8.553
 6549POPC   C2B22076  33.566  36.917   8.253
 6549POPC   C3B22077  33.503  36.930   7.953
 6549POPC   C4B22078  33.511  36.889   7.653
 6550POPC   NC322079  22.129  21.378   9.453
 6550POPC   PO422080  22.190  21.398   9.153
 6550POPC   GL122081  22.169  21.341   8.853
 6550POPC   GL222082  22.192  21.495   8.853
 6550POPC   C1A22083  22.187  21.385   8.553
 6550POPC   D2A22084  22.178  21.385   8.253
 6550POPC   C3A22085  22.130  21.414   7.953
 6550POPC   C4A22086  22.139  21.377   7.653
 6550POPC   C1B22087  22.124  21.674   8.553
 6550POPC   C2B22088  22.184  21.634   8.253
 6550POPC   C3B22089  22.178  21.606   7.953
 6550POPC   C4B22090  22.131  21.666   7.653
 6551POPC   NC322091  19.876  14.394   9.453
 6551POPC   PO422092  19.850  14.368   9.153
 6551POPC   GL122093  19.835  14.431   8.853
 6551POPC   GL222094  19.807  14.556   8.853
 6551POPC   C1A22095  19.874  14.441   8.553
 6551POPC   D2A22096  19.842  14.432   8.253
 6551POPC   C3A22097  19.806  14.409   7.953
 6551POPC   C4A22098  19.797  14.385   7.653
 6551POPC   C1B22099  19.857  14.604   8.553
 6551POPC   C2B22100  19.813  14.659   8.253
 6551POPC   C3B22101  19.867  14.667   7.953
 6551POPC   C4B22102  19.894  14.670   7.653
 6552POPC   NC322103  18.267  42.378   9.453
 6552POPC   PO422104  18.330  42.341   9.153
 6552POPC   GL122105  18.303  42.326   8.853
 6552POPC   GL222106  18.240  42.259   8.853
 6552POPC   C1A22107  18.288  42.327   8.553
 6552POPC   D2A22108  18.289  42.316   8.253
 6552POPC   C3A22109  18.330  42.307   7.953
 6552POPC   C4A22110  18.327  42.291   7.653
 6552POPC   C1B22111  18.195  42.100   8.553
 6552POPC   C2B22112  18.213  42.078   8.253
 6552POPC   C3B22113  18.238  42.141   7.953
 6552POPC   C4B22114  18.174  42.135   7.653
 6553POPC   NC322115   3.508  11.298   9.453
 6553POPC   PO422116   3.559  11.281   9.153
 6553POPC   GL122117   3.577  11.313   8.853
 6553POPC   GL222118   3.473  11.173   8.853
 6553POPC   C1A22119   3.520  11.340   8.553
 6553POPC   D2A22120   3.550  11.344   8.253
 6553POPC   C3A22121   3.524  11.339   7.953
 6553POPC   C4A22122   3.538  11.324   7.653
 6553POPC   C1B22123   3.393  11.131   8.553
 6553POPC   C2B22124   3.369  11.130   8.253
 6553POPC   C3B22125   3.431  11.080   7.953
 6553POPC   C4B22126   3.455  11.111   7.653
 6554POPC   NC322127  36.167   1.253   9.453
 6554POPC   PO422128  36.143   1.256   9.153
 6554POPC   GL122129  36.153   1.247   8.853
 6554POPC   GL222130  36.023   1.210   8.853
 6554POPC   C1A22131  36.095   1.176   8.553
 6554POPC   D2A22132  36.145   1.256   8.253
 6554POPC   C3A22133  36.097   1.221   7.953
 6554POPC   C4A22134  36.102   1.256   7.653
 6554POPC   C1B22135  35.895   1.141   8.553
 6554POPC   C2B22136  35.881   1.108   8.253
 6554POPC   C3B22137  35.864   1.119   7.953
 6554POPC   C4B22138  35.919   1.105   7.653
 6555POPC   NC322139   5.918   9.001   9.453
 6555POPC   PO422140   5.900   8.982   9.153
 6555POPC   GL122141   5.865   9.001   8.853
 6555POPC   GL222142   5.832   8.881   8.853
 6555POPC   C1A22143   5.912   8.925   8.553
 6555POPC   D2A22144   5.911   8.943   8.253
 6555POPC   C3A22145   5.881   9.004   7.953
 6555POPC   C4A22146   5.874   8.971   7.653
 6555POPC   C1B22147   5.698   8.803   8.553
 6555POPC   C2B22148   5.684   8.794   8.253
 6555POPC   C3B22149   5.701   8.739   7.953
 6555POPC   C4B22150   5.687   8.803   7.653
 6556POPC   NC322151  28.410  15.171   9.453
 6556POPC   PO422152  28.368  15.207   9.153
 6556POPC   GL122153  28.407  15.222   8.853
 6556POPC   GL222154  28.237  15.100   8.853
 6556POPC   C1A22155  28.375  15.131   8.553
 6556POPC   D2A22156  28.395  15.138   8.253
 6556POPC   C3A22157  28.387  15.150   7.953
 6556POPC   C4A22158  28.368  15.194   7.653
 6556POPC   C1B22159  28.165  15.087   8.553
 6556POPC   C2B22160  28.174  15.135   8.253
 6556POPC   C3B22161  28.139  15.091   7.953
 6556POPC   C4B22162  28.151  15.096   7.653
 6557POPC   NC322163  24.491  25.262   9.453
 6557POPC   PO422164  24.458  25.229   9.153
 6557POPC   GL122165  24.495  25.285   8.853
 6557POPC   GL222166  24.374  25.399   8.853
 6557POPC   C1A22167  24.475  25.257   8.553
 6557POPC   D2A22168  24.528  25.310   8.253
 6557POPC   C3A22169  24.464  25.243   7.953
 6557POPC   C4A22170  24.504  25.281   7.653
 6557POPC   C1B22171  24.347  25.437   8.553
 6557POPC   C2B22172  24.278  25.455   8.253
 6557POPC   C3B22173  24.266  25.486   7.953
 6557POPC   C4B22174  24.286  25.442   7.653
 6558POPC   NC322175   8.152  26.792   9.453
 6558POPC   PO422176   8.186  26.793   9.153
 6558POPC   GL122177   8.238  26.846   8.853
 6558POPC   GL222178   8.274  26.959   8.853
 6558POPC   C1A22179   8.177  26.768   8.553
 6558POPC   D2A22180   8.170  26.797   8.253
 6558POPC   C3A22181   8.219  26.806   7.953
 6558POPC   C4A22182   8.225  26.844   7.653
 6558POPC   C1B22183   8.292  27.017   8.553
 6558POPC   C2B22184   8.290  27.039   8.253
 6558POPC   C3B22185   8.280  27.015   7.953
 6558POPC   C4B22186   8.328  27.019   7.653
 6559POPC   NC322187   3.587   1.244   9.453
 6559POPC   PO422188   3.582   1.198   9.153
 6559POPC   GL122189   3.541   1.252   8.853
 6559POPC   GL222190   3.467   1.152   8.853
 6559POPC   C1A22191   3.494   1.188   8.553
 6559POPC   D2A22192   3.540   1.253   8.253
 6559POPC   C3A22193   3.578   1.225   7.953
 6559POPC   C4A22194   3.553   1.253   7.653
 6559POPC   C1B22195   3.248   1.206   8.553
 6559POPC   C2B22196   3.341   1.154   8.253
 6559POPC   C3B22197   3.287   1.157   7.953
 6559POPC   C4B22198   3.295   1.185   7.653
 6560POPC   NC322199  44.678   5.861   9.453
 6560POPC   PO422200  44.688   5.871   9.153
 6560POPC   GL122201  44.684   5.847   8.853
 6560POPC   GL222202  44.698   5.755   8.853
 6560POPC   C1A22203  44.698   5.834   8.553
 6560POPC   D2A22204  44.646   5.823   8.253
 6560POPC   C3A22205  44.650   5.838   7.953
 6560POPC   C4A22206  44.642   5.915   7.653
 6560POPC   C1B22207  44.776   5.675   8.553
 6560POPC   C2B22208  44.739   5.608   8.253
 6560POPC   C3B22209  44.735   5.646   7.953
 6560POPC   C4B22210  44.768   5.647   7.653
 6561POPC   NC322211  34.614  32.283   9.453
 6561POPC   PO422212  34.528  32.272   9.153
 6561POPC   GL122213  34.531  32.213   8.853
 6561POPC   GL222214  34.456  32.135   8.853
 6561POPC   C1A22215  34.559  32.269   8.553
 6561POPC   D2A22216  34.607  32.273   8.253
 6561POPC   C3A22217  34.530  32.206   7.953
 6561POPC   C4A22218  34.606  32.274   7.653
 6561POPC   C1B22219  34.380  32.056   8.553
 6561POPC   C2B22220  34.383  32.123   8.253
 6561POPC   C3B22221  34.424  32.051   7.953
 6561POPC   C4B22222  34.425  32.078   7.653
 6562POPC   NC322223   2.751  23.724   9.453
 6562POPC   PO422224   2.716  23.747   9.153
 6562POPC   GL122225   2.754  23.705   8.853
 6562POPC   GL222226   2.727  23.638   8.853
 6562POPC   C1A22227   2.751  23.748   8.553
 6562POPC   D2A22228   2.814  23.684   8.253
 6562POPC   C3A22229   2.726  23.753   7.953
 6562POPC   C4A22230   2.743  23.693   7.653
 6562POPC   C1B22231   2.800  23.507   8.553
 6562POPC   C2B22232   2.789  23.494   8.253
 6562POPC   C3B22233   2.728  23.416   7.953
 6562POPC   C4B22234   2.781  23.449   7.653
 6563POPC   NC322235  10.480  15.151   9.453
 6563POPC   PO422236  10.496  15.163   9.153
 6563POPC   GL122237  10.498  15.181   8.853
 6563POPC   GL222238  10.528  15.275   8.853
 6563POPC   C1A22239  10.561  15.130   8.553
 6563POPC   D2A22240  10.565  15.205   8.253
 6563POPC   C3A22241  10.478  15.169   7.953
 6563POPC   C4A22242  10.536  15.161   7.653
 6563POPC   C1B22243  10.500  15.395   8.553
 6563POPC   C2B22244  10.570  15.388   8.253
 6563POPC   C3B22245  10.548  15.456   7.953
 6563POPC   C4B22246  10.582  15.443   7.653
 6564POPC   NC322247   6.680  25.300   9.453
 6564POPC   PO422248   6.641  25.303   9.153
 6564POPC   GL122249   6.657  25.278   8.853
 6564POPC   GL222250   6.641  25.402   8.853
 6564POPC   C1A22251   6.602  25.235   8.553
 6564POPC   D2A22252   6.659  25.279   8.253
 6564POPC   C3A22253   6.633  25.279   7.953
 6564POPC   C4A22254   6.680  25.307   7.653
 6564POPC   C1B22255   6.683  25.546   8.553
 6564POPC   C2B22256   6.679  25.473   8.253
 6564POPC   C3B22257   6.702  25.501   7.953
 6564POPC   C4B22258   6.652  25.543   7.653
 6565POPC   NC322259   0.470  22.940   9.453
 6565POPC   PO422260   0.420  22.926   9.153
 6565POPC   GL122261   0.446  22.911   8.853
 6565POPC   GL222262   0.439  22.819   8.853
 6565POPC   C1A22263   0.469  22.988   8.553
 6565POPC   D2A22264   0.400  22.911   8.253
 6565POPC   C3A22265   0.451  22.944   7.953
 6565POPC   C4A22266   0.480  22.981   7.653
 6565POPC   C1B22267   0.467  22.690   8.553
 6565POPC   C2B22268   0.550  22.696   8.253
 6565POPC   C3B22269   0.489  22.731   7.953
 6565POPC   C4B22270   0.523  22.687   7.653
 6566POPC   NC322271  14.369  31.511   9.453
 6566POPC   PO422272  14.372  31.445   9.153
 6566POPC   GL122273  14.376  31.433   8.853
 6566POPC   GL222274  14.454  31.613   8.853
 6566POPC   C1A22275  14.427  31.453   8.553
 6566POPC   D2A22276  14.404  31.431   8.253
 6566POPC   C3A22277  14.377  31.502   7.953
 6566POPC   C4A22278  14.437  31.462   7.653
 6566POPC   C1B22279  14.450  31.738   8.553
 6566POPC   C2B22280  14.514  31.733   8.253
 6566POPC   C3B22281  14.527  31.691   7.953
 6566POPC   C4B22282  14.520  31.673   7.653
 6567POPC   NC322283  17.473  37.679   9.453
 6567POPC   PO422284  17.552  37.692   9.153
 6567POPC   GL122285  17.498  37.662   8.853
 6567POPC   GL222286  17.446  37.818   8.853
 6567POPC   C1A22287  17.543  37.682   8.553
 6567POPC   D2A22288  17.461  37.720   8.253
 6567POPC   C3A22289  17.490  37.706   7.953
 6567POPC   C4A22290  17.556  37.638   7.653
 6567POPC   C1B22291  17.330  37.838   8.553
 6567POPC   C2B22292  17.324  37.841   8.253
 6567POPC   C3B22293  17.394  37.895   7.953
 6567POPC   C4B22294  17.406  37.870   7.653
 6568POPC   NC322295  31.437  27.546   9.453
 6568POPC   PO422296  31.469  27.596   9.153
 6568POPC   GL122297  31.454  27.603   8.853
 6568POPC   GL222298  31.524  27.449   8.853
 6568POPC   C1A22299  31.432  27.643   8.553
 6568POPC   D2A22300  31.426  27.595   8.253
 6568POPC   C3A22301  31.434  27.640   7.953
 6568POPC   C4A22302  31.456  27.612   7.653
 6568POPC   C1B22303  31.523  27.356   8.553
 6568POPC   C2B22304  31.509  27.362   8.253
 6568POPC   C3B22305  31.502  27.330   7.953
 6568POPC   C4B22306  31.460  27.337   7.653
 6569POPC   NC322307   9.008  43.866   9.453
 6569POPC   PO422308   9.010  43.840   9.153
 6569POPC   GL122309   8.984  43.913   8.853
 6569POPC   GL222310   9.073  44.034   8.853
 6569POPC   C1A22311   8.995  43.886   8.553
 6569POPC   D2A22312   8.966  43.873   8.253
 6569POPC   C3A22313   8.946  43.862   7.953
 6569POPC   C4A22314   8.967  43.860   7.653
 6569POPC   C1B22315   9.090  44.100   8.553
 6569POPC   C2B22316   9.119  44.114   8.253
 6569POPC   C3B22317   9.130  44.069   7.953
 6569POPC   C4B22318   9.085  44.056   7.653
 6570POPC   NC322319  40.035  23.674   9.453
 6570POPC   PO422320  40.010  23.721   9.153
 6570POPC   GL122321  40.006  23.703   8.853
 6570POPC   GL222322  40.066  23.656   8.853
 6570POPC   C1A22323  40.048  23.753   8.553
 6570POPC   D2A22324  40.038  23.711   8.253
 6570POPC   C3A22325  39.983  23.690   7.953
 6570POPC   C4A22326  40.039  23.670   7.653
 6570POPC   C1B22327  40.180  23.605   8.553
 6570POPC   C2B22328  40.189  23.573   8.253
 6570POPC   C3B22329  40.176  23.622   7.953
 6570POPC   C4B22330  40.228  23.593   7.653
 6571POPC   NC322331  41.540  16.739   9.453
 6571POPC   PO422332  41.550  16.754   9.153
 6571POPC   GL122333  41.514  16.781   8.853
 6571POPC   GL222334  41.482  16.740   8.853
 6571POPC   C1A22335  41.583  16.749   8.553
 6571POPC   D2A22336  41.562  16.763   8.253
 6571POPC   C3A22337  41.600  16.713   7.953
 6571POPC   C4A22338  41.607  16.703   7.653
 6571POPC   C1B22339  41.265  16.662   8.553
 6571POPC   C2B22340  41.337  16.758   8.253
 6571POPC   C3B22341  41.320  16.671   7.953
 6571POPC   C4B22342  41.304  16.738   7.653
 6572POPC   NC322343   5.918   6.681   9.453
 6572POPC   PO422344   5.854   6.689   9.153
 6572POPC   GL122345   5.887   6.607   8.853
 6572POPC   GL222346   5.885   6.721   8.853
 6572POPC   C1A22347   5.909   6.617   8.553
 6572POPC   D2A22348   5.906   6.692   8.253
 6572POPC   C3A22349   5.842   6.599   7.953
 6572POPC   C4A22350   5.853   6.612   7.653
 6572POPC   C1B22351   5.915   6.929   8.553
 6572POPC   C2B22352   5.946   6.917   8.253
 6572POPC   C3B22353   5.912   6.853   7.953
 6572POPC   C4B22354   5.882   6.854   7.653
 6573POPC   NC322355   6.633  38.441   9.453
 6573POPC   PO422356   6.683  38.482   9.153
 6573POPC   GL122357   6.656  38.414   8.853
 6573POPC   GL222358   6.731  38.507   8.853
 6573POPC   C1A22359   6.619  38.416   8.553
 6573POPC   D2A22360   6.651  38.487   8.253
 6573POPC   C3A22361   6.644  38.422   7.953
 6573POPC   C4A22362   6.690  38.504   7.653
 6573POPC   C1B22363   6.844  38.552   8.553
 6573POPC   C2B22364   6.872  38.617   8.253
 6573POPC   C3B22365   6.854  38.549   7.953
 6573POPC   C4B22366   6.854  38.570   7.653
 6574POPC   NC322367  43.084  21.414   9.453
 6574POPC   PO422368  43.083  21.340   9.153
 6574POPC   GL122369  43.065  21.387   8.853
 6574POPC   GL222370  43.120  21.546   8.853
 6574POPC   C1A22371  43.085  21.361   8.553
 6574POPC   D2A22372  43.156  21.384   8.253
 6574POPC   C3A22373  43.160  21.421   7.953
 6574POPC   C4A22374  43.082  21.432   7.653
 6574POPC   C1B22375  43.150  21.619   8.553
 6574POPC   C2B22376  43.172  21.672   8.253
 6574POPC   C3B22377  43.221  21.592   7.953
 6574POPC   C4B22378  43.138  21.660   7.653
 6575POPC   NC322379  35.317   8.936   9.453
 6575POPC   PO422380  35.314   8.976   9.153
 6575POPC   GL122381  35.376   8.998   8.853
 6575POPC   GL222382  35.398   8.810   8.853
 6575POPC   C1A22383  35.341   8.937   8.553
 6575POPC   D2A22384  35.312   9.022   8.253
 6575POPC   C3A22385  35.368   8.924   7.953
 6575POPC   C4A22386  35.383   9.010   7.653
 6575POPC   C1B22387  35.409   8.760   8.553
 6575POPC   C2B22388  35.372   8.681   8.253
 6575POPC   C3B22389  35.371   8.724   7.953
 6575POPC   C4B22390  35.401   8.768   7.653
 6576POPC   NC322391   9.745  43.873   9.453
 6576POPC   PO422392   9.783  43.908   9.153
 6576POPC   GL122393   9.779  43.891   8.853
 6576POPC   GL222394   9.898  43.936   8.853
 6576POPC   C1A22395   9.793  43.862   8.553
 6576POPC   D2A22396   9.782  43.858   8.253
 6576POPC   C3A22397   9.716  43.875   7.953
 6576POPC   C4A22398   9.789  43.880   7.653
 6576POPC   C1B22399  10.019  44.004   8.553
 6576POPC   C2B22400   9.992  44.018   8.253
 6576POPC   C3B22401  10.025  43.970   7.953
 6576POPC   C4B22402   9.983  43.966   7.653
 6577POPC   NC322403  36.089  10.524   9.453
 6577POPC   PO422404  36.087  10.495   9.153
 6577POPC   GL122405  36.131  10.510   8.853
 6577POPC   GL222406  36.025  10.506   8.853
 6577POPC   C1A22407  36.090  10.494   8.553
 6577POPC   D2A22408  36.130  10.570   8.253
 6577POPC   C3A22409  36.165  10.562   7.953
 6577POPC   C4A22410  36.176  10.517   7.653
 6577POPC   C1B22411  35.921  10.506   8.553
 6577POPC   C2B22412  35.859  10.523   8.253
 6577POPC   C3B22413  35.903  10.575   7.953
 6577POPC   C4B22414  35.834  10.595   7.653
 6578POPC   NC322415  19.789  25.284   9.453
 6578POPC   PO422416  19.822  25.301   9.153
 6578POPC   GL122417  19.863  25.238   8.853
 6578POPC   GL222418  19.853  25.133   8.853
 6578POPC   C1A22419  19.846  25.254   8.553
 6578POPC   D2A22420  19.800  25.217   8.253
 6578POPC   C3A22421  19.785  25.255   7.953
 6578POPC   C4A22422  19.843  25.291   7.653
 6578POPC   C1B22423  19.976  25.044   8.553
 6578POPC   C2B22424  19.924  25.024   8.253
 6578POPC   C3B22425  19.964  25.009   7.953
 6578POPC   C4B22426  19.915  24.998   7.653
 6579POPC   NC322427  22.197  42.312   9.453
 6579POPC   PO422428  22.172  42.353   9.153
 6579POPC   GL122429  22.129  42.350   8.853
 6579POPC   GL222430  22.252  42.416   8.853
 6579POPC   C1A22431  22.207  42.319   8.553
 6579POPC   D2A22432  22.194  42.336   8.253
 6579POPC   C3A22433  22.201  42.337   7.953
 6579POPC   C4A22434  22.190  42.314   7.653
 6579POPC   C1B22435  22.429  42.385   8.553
 6579POPC   C2B22436  22.383  42.387   8.253
 6579POPC   C3B22437  22.360  42.394   7.953
 6579POPC   C4B22438  22.379  42.353   7.653
 6580POPC   NC322439  12.876   5.876   9.453
 6580POPC   PO422440  12.893   5.828   9.153
 6580POPC   GL122441  12.836   5.896   8.853
 6580POPC   GL222442  12.727   5.741   8.853
 6580POPC   C1A22443  12.841   5.825   8.553
 6580POPC   D2A22444  12.899   5.914   8.253
 6580POPC   C3A22445  12.890   5.831   7.953
 6580POPC   C4A22446  12.817   5.841   7.653
 6580POPC   C1B22447  12.706   5.705   8.553
 6580POPC   C2B22448  12.684   5.715   8.253
 6580POPC   C3B22449  12.674   5.634   7.953
 6580POPC   C4B22450  12.639   5.666   7.653
 6581POPC   NC322451  11.259  15.199   9.453
 6581POPC   PO422452  11.259  15.190   9.153
 6581POPC   GL122453  11.322  15.226   8.853
 6581POPC   GL222454  11.198  15.107   8.853
 6581POPC   C1A22455  11.331  15.190   8.553
 6581POPC   D2A22456  11.335  15.161   8.253
 6581POPC   C3A22457  11.332  15.209   7.953
 6581POPC   C4A22458  11.341  15.229   7.653
 6581POPC   C1B22459  11.116  15.122   8.553
 6581POPC   C2B22460  11.020  15.066   8.253
 6581POPC   C3B22461  11.095  15.085   7.953
 6581POPC   C4B22462  11.081  15.089   7.653
 6582POPC   NC322463   5.143  12.875   9.453
 6582POPC   PO422464   5.084  12.816   9.153
 6582POPC   GL122465   5.109  12.869   8.853
 6582POPC   GL222466   5.177  12.850   8.853
 6582POPC   C1A22467   5.091  12.866   8.553
 6582POPC   D2A22468   5.141  12.861   8.253
 6582POPC   C3A22469   5.138  12.820   7.953
 6582POPC   C4A22470   5.082  12.850   7.653
 6582POPC   C1B22471   5.372  12.810   8.553
 6582POPC   C2B22472   5.388  12.879   8.253
 6582POPC   C3B22473   5.331  12.885   7.953
 6582POPC   C4B22474   5.294  12.841   7.653
 6583POPC   NC322475  35.329  11.305   9.453
 6583POPC   PO422476  35.398  11.260   9.153
 6583POPC   GL122477  35.390  11.291   8.853
 6583POPC   GL222478  35.472  11.424   8.853
 6583POPC   C1A22479  35.330  11.263   8.553
 6583POPC   D2A22480  35.354  11.260   8.253
 6583POPC   C3A22481  35.348  11.340   7.953
 6583POPC   C4A22482  35.345  11.261   7.653
 6583POPC   C1B22483  35.523  11.436   8.553
 6583POPC   C2B22484  35.523  11.415   8.253
 6583POPC   C3B22485  35.521  11.448   7.953
 6583POPC   C4B22486  35.581  11.455   7.653
 6584POPC   NC322487  13.660  24.538   9.453
 6584POPC   PO422488  13.580  24.498   9.153
 6584POPC   GL122489  13.600  24.485   8.853
 6584POPC   GL222490  13.684  24.345   8.853
 6584POPC   C1A22491  13.614  24.481   8.553
 6584POPC   D2A22492  13.615  24.496   8.253
 6584POPC   C3A22493  13.596  24.479   7.953
 6584POPC   C4A22494  13.676  24.442   7.653
 6584POPC   C1B22495  13.767  24.243   8.553
 6584POPC   C2B22496  13.705  24.277   8.253
 6584POPC   C3B22497  13.700  24.252   7.953
 6584POPC   C4B22498  13.721  24.296   7.653
 6585POPC   NC322499  23.692  34.595   9.453
 6585POPC   PO422500  23.735  34.534   9.153
 6585POPC   GL122501  23.727  34.608   8.853
 6585POPC   GL222502  23.624  34.735   8.853
 6585POPC   C1A22503  23.676  34.560   8.553
 6585POPC   D2A22504  23.743  34.588   8.253
 6585POPC   C3A22505  23.670  34.567   7.953
 6585POPC   C4A22506  23.690  34.545   7.653
 6585POPC   C1B22507  23.600  34.810   8.553
 6585POPC   C2B22508  23.639  34.769   8.253
 6585POPC   C3B22509  23.584  34.757   7.953
 6585POPC   C4B22510  23.598  34.783   7.653
 6586POPC   NC322511   2.795  42.376   9.453
 6586POPC   PO422512   2.808  42.377   9.153
 6586POPC   GL122513   2.747  42.311   8.853
 6586POPC   GL222514   2.869  42.235   8.853
 6586POPC   C1A22515   2.744  42.384   8.553
 6586POPC   D2A22516   2.772  42.364   8.253
 6586POPC   C3A22517   2.742  42.383   7.953
 6586POPC   C4A22518   2.726  42.328   7.653
 6586POPC   C1B22519   2.857  42.074   8.553
 6586POPC   C2B22520   2.901  42.121   8.253
 6586POPC   C3B22521   2.845  42.106   7.953
 6586POPC   C4B22522   2.924  42.082   7.653
 6587POPC   NC322523  40.011  31.499   9.453
 6587POPC   PO422524  40.022  31.484   9.153
 6587POPC   GL122525  39.992  31.426   8.853
 6587POPC   GL222526  40.026  31.317   8.853
 6587POPC   C1A22527  40.052  31.502   8.553
 6587POPC   D2A22528  40.008  31.489   8.253
 6587POPC   C3A22529  39.991  31.447   7.953
 6587POPC   C4A22530  39.989  31.461   7.653
 6587POPC   C1B22531  39.966  31.202   8.553
 6587POPC   C2B22532  39.969  31.181   8.253
 6587POPC   C3B22533  39.945  31.236   7.953
 6587POPC   C4B22534  39.941  31.200   7.653
 6588POPC   NC322535  31.489  40.753   9.453
 6588POPC   PO422536  31.472  40.807   9.153
 6588POPC   GL122537  31.481  40.794   8.853
 6588POPC   GL222538  31.424  40.698   8.853
 6588POPC   C1A22539  31.435  40.736   8.553
 6588POPC   D2A22540  31.503  40.780   8.253
 6588POPC   C3A22541  31.488  40.816   7.953
 6588POPC   C4A22542  31.456  40.760   7.653
 6588POPC   C1B22543  31.347  40.533   8.553
 6588POPC   C2B22544  31.377  40.619   8.253
 6588POPC   C3B22545  31.372  40.561   7.953
 6588POPC   C4B22546  31.345  40.599   7.653
 6589POPC   NC322547  20.630  36.132   9.453
 6589POPC   PO422548  20.588  36.155   9.153
 6589POPC   GL122549  20.637  36.099   8.853
 6589POPC   GL222550  20.738  36.171   8.853
 6589POPC   C1A22551  20.642  36.112   8.553
 6589POPC   D2A22552  20.635  36.118   8.253
 6589POPC   C3A22553  20.657  36.129   7.953
 6589POPC   C4A22554  20.589  36.120   7.653
 6589POPC   C1B22555  20.814  36.210   8.553
 6589POPC   C2B22556  20.882  36.188   8.253
 6589POPC   C3B22557  20.792  36.255   7.953
 6589POPC   C4B22558  20.851  36.215   7.653
 6590POPC   NC322559  23.685  12.871   9.453
 6590POPC   PO422560  23.691  12.834   9.153
 6590POPC   GL122561  23.675  12.877   8.853
 6590POPC   GL222562  23.698  12.937   8.853
 6590POPC   C1A22563  23.715  12.830   8.553
 6590POPC   D2A22564  23.735  12.825   8.253
 6590POPC   C3A22565  23.667  12.810   7.953
 6590POPC   C4A22566  23.748  12.819   7.653
 6590POPC   C1B22567  23.625  13.032   8.553
 6590POPC   C2B22568  23.577  13.083   8.253
 6590POPC   C3B22569  23.580  13.060   7.953
 6590POPC   C4B22570  23.580  13.017   7.653
 6591POPC   NC322571  20.656  31.484   9.453
 6591POPC   PO422572  20.577  31.445   9.153
 6591POPC   GL122573  20.645  31.426   8.853
 6591POPC   GL222574  20.738  31.451   8.853
 6591POPC   C1A22575  20.605  31.467   8.553
 6591POPC   D2A22576  20.587  31.431   8.253
 6591POPC   C3A22577  20.580  31.508   7.953
 6591POPC   C4A22578  20.576  31.487   7.653
 6591POPC   C1B22579  20.847  31.394   8.553
 6591POPC   C2B22580  20.830  31.401   8.253
 6591POPC   C3B22581  20.844  31.338   7.953
 6591POPC   C4B22582  20.874  31.398   7.653
 6592POPC   NC322583  34.538  35.365   9.453
 6592POPC   PO422584  34.558  35.380   9.153
 6592POPC   GL122585  34.559  35.368   8.853
 6592POPC   GL222586  34.455  35.205   8.853
 6592POPC   C1A22587  34.555  35.387   8.553
 6592POPC   D2A22588  34.572  35.304   8.253
 6592POPC   C3A22589  34.553  35.369   7.953
 6592POPC   C4A22590  34.605  35.382   7.653
 6592POPC   C1B22591  34.384  35.143   8.553
 6592POPC   C2B22592  34.387  35.163   8.253
 6592POPC   C3B22593  34.428  35.129   7.953
 6592POPC   C4B22594  34.423  35.183   7.653
 6593POPC   NC322595  44.672  19.868   9.453
 6593POPC   PO422596  44.658  19.790   9.153
 6593POPC   GL122597  44.670  19.857   8.853
 6593POPC   GL222598  44.561  19.738   8.853
 6593POPC   C1A22599  44.701  19.858   8.553
 6593POPC   D2A22600  44.671  19.806   8.253
 6593POPC   C3A22601  44.655  19.882   7.953
 6593POPC   C4A22602  44.642  19.845   7.653
 6593POPC   C1B22603  44.589  19.603   8.553
 6593POPC   C2B22604  44.502  19.655   8.253
 6593POPC   C3B22605  44.556  19.581   7.953
 6593POPC   C4B22606  44.526  19.590   7.653
 6594POPC   NC322607  43.843  14.400   9.453
 6594POPC   PO422608  43.853  14.404   9.153
 6594POPC   GL122609  43.920  14.391   8.853
 6594POPC   GL222610  43.822  14.355   8.853
 6594POPC   C1A22611  43.861  14.450   8.553
 6594POPC   D2A22612  43.922  14.375   8.253
 6594POPC   C3A22613  43.853  14.387   7.953
 6594POPC   C4A22614  43.924  14.379   7.653
 6594POPC   C1B22615  43.709  14.193   8.553
 6594POPC   C2B22616  43.701  14.271   8.253
 6594POPC   C3B22617  43.713  14.216   7.953
 6594POPC   C4B22618  43.691  14.227   7.653
 6595POPC   NC322619  20.637  29.928   9.453
 6595POPC   PO422620  20.606  29.960   9.153
 6595POPC   GL122621  20.600  29.909   8.853
 6595POPC   GL222622  20.664  30.030   8.853
 6595POPC   C1A22623  20.623  29.961   8.553
 6595POPC   D2A22624  20.615  29.904   8.253
 6595POPC   C3A22625  20.641  29.945   7.953
 6595POPC   C4A22626  20.590  29.886   7.653
 6595POPC   C1B22627  20.680  30.182   8.553
 6595POPC   C2B22628  20.643  30.152   8.253
 6595POPC   C3B22629  20.712  30.195   7.953
 6595POPC   C4B22630  20.685  30.126   7.653
 6596POPC   NC322631   8.220  11.311   9.453
 6596POPC   PO422632   8.240  11.300   9.153
 6596POPC   GL122633   8.164  11.286   8.853
 6596POPC   GL222634   8.049  11.243   8.853
 6596POPC   C1A22635   8.177  11.255   8.553
 6596POPC   D2A22636   8.220  11.254   8.253
 6596POPC   C3A22637   8.213  11.337   7.953
 6596POPC   C4A22638   8.206  11.332   7.653
 6596POPC   C1B22639   7.981  11.160   8.553
 6596POPC   C2B22640   8.023  11.131   8.253
 6596POPC   C3B22641   7.953  11.217   7.953
 6596POPC   C4B22642   8.026  11.151   7.653
 6597POPC   NC322643  20.592  15.997   9.453
 6597POPC   PO422644  20.567  15.973   9.153
 6597POPC   GL122645  20.659  15.948   8.853
 6597POPC   GL222646  20.606  15.805   8.853
 6597POPC   C1A22647  20.566  16.001   8.553
 6597POPC   D2A22648  20.566  15.911   8.253
 6597POPC   C3A22649  20.581  15.947   7.953
 6597POPC   C4A22650  20.612  15.982   7.653
 6597POPC   C1B22651  20.689  15.720   8.553
 6597POPC   C2B22652  20.687  15.732   8.253
 6597POPC   C3B22653  20.663  15.667   7.953
 6597POPC   C4B22654  20.668  15.693   7.653
 6598POPC   NC322655  37.674  43.860   9.453
 6598POPC   PO422656  37.694  43.891   9.153
 6598POPC   GL122657  37.680  43.922   8.853
 6598POPC   GL222658  37.582  43.937   8.853
 6598POPC   C1A22659  37.645  43.873   8.553
 6598POPC   D2A22660  37.654  43.841   8.253
 6598POPC   C3A22661  37.718  43.850   7.953
 6598POPC   C4A22662  37.642  43.858   7.653
 6598POPC   C1B22663  37.415  43.943   8.553
 6598POPC   C2B22664  37.480  43.890   8.253
 6598POPC   C3B22665  37.398  43.927   7.953
 6598POPC   C4B22666  37.394  43.971   7.653
 6599POPC   NC322667  22.948   0.394   9.453
 6599POPC   PO422668  22.955   0.464   9.153
 6599POPC   GL122669  22.939   0.473   8.853
 6599POPC   GL222670  22.984   0.575   8.853
 6599POPC   C1A22671  22.909   0.438   8.553
 6599POPC   D2A22672  22.954   0.470   8.253
 6599POPC   C3A22673  22.962   0.485   7.953
 6599POPC   C4A22674  22.904   0.406   7.653
 6599POPC   C1B22675  22.992   0.691   8.553
 6599POPC   C2B22676  23.046   0.651   8.253
 6599POPC   C3B22677  23.007   0.642   7.953
 6599POPC   C4B22678  23.040   0.651   7.653
 6600POPC   NC322679  22.189  31.474   9.453
 6600POPC   PO422680  22.141  31.480   9.153
 6600POPC   GL122681  22.191  31.424   8.853
 6600POPC   GL222682  22.031  31.516   8.853
 6600POPC   C1A22683  22.150  31.522   8.553
 6600POPC   D2A22684  22.160  31.481   8.253
 6600POPC   C3A22685  22.150  31.517   7.953
 6600POPC   C4A22686  22.143  31.474   7.653
 6600POPC   C1B22687  21.932  31.520   8.553
 6600POPC   C2B22688  21.926  31.482   8.253
 6600POPC   C3B22689  21.871  31.537   7.953
 6600POPC   C4B22690  21.867  31.449   7.653
 6601POPC   NC322691  19.845   5.059   9.453
 6601POPC   PO422692  19.845   5.069   9.153
 6601POPC   GL122693  19.875   5.140   8.853
 6601POPC   GL222694  19.696   5.068   8.853
 6601POPC   C1A22695  19.803   5.047   8.553
 6601POPC   D2A22696  19.852   5.089   8.253
 6601POPC   C3A22697  19.862   5.078   7.953
 6601POPC   C4A22698  19.884   5.125   7.653
 6601POPC   C1B22699  19.578   5.100   8.553
 6601POPC   C2B22700  19.545   5.118   8.253
 6601POPC   C3B22701  19.580   5.159   7.953
 6601POPC   C4B22702  19.635   5.120   7.653
 6602POPC   NC322703  44.654  26.833   9.453
 6602POPC   PO422704  44.699  26.866   9.153
 6602POPC   GL122705  44.647  26.846   8.853
 6602POPC   GL222706  44.539  26.832   8.853
 6602POPC   C1A22707  44.675  26.826   8.553
 6602POPC   D2A22708  44.678  26.795   8.253
 6602POPC   C3A22709  44.628  26.858   7.953
 6602POPC   C4A22710  44.688  26.856   7.653
 6602POPC   C1B22711  44.444  26.845   8.553
 6602POPC   C2B22712  44.398  26.839   8.253
 6602POPC   C3B22713  44.443  26.798   7.953
 6602POPC   C4B22714  44.460  26.873   7.653
 6603POPC   NC322715  19.849  29.916   9.453
 6603POPC   PO422716  19.834  29.915   9.153
 6603POPC   GL122717  19.791  29.935   8.853
 6603POPC   GL222718  19.913  29.840   8.853
 6603POPC   C1A22719  19.795  29.917   8.553
 6603POPC   D2A22720  19.873  29.879   8.253
 6603POPC   C3A22721  19.870  29.903   7.953
 6603POPC   C4A22722  19.798  29.966   7.653
 6603POPC   C1B22723  19.995  29.688   8.553
 6603POPC   C2B22724  20.001  29.691   8.253
 6603POPC   C3B22725  19.990  29.716   7.953
 6603POPC   C4B22726  19.954  29.737   7.653
 6604POPC   NC322727   1.235  34.573   9.453
 6604POPC   PO422728   1.190  34.605   9.153
 6604POPC   GL122729   1.221  34.581   8.853
 6604POPC   GL222730   1.156  34.475   8.853
 6604POPC   C1A22731   1.225  34.587   8.553
 6604POPC   D2A22732   1.195  34.570   8.253
 6604POPC   C3A22733   1.240  34.560   7.953
 6604POPC   C4A22734   1.224  34.571   7.653
 6604POPC   C1B22735   1.041  34.459   8.553
 6604POPC   C2B22736   0.972  34.401   8.253
 6604POPC   C3B22737   1.022  34.405   7.953
 6604POPC   C4B22738   1.024  34.414   7.653
 6605POPC   NC322739  12.080  28.367   9.453
 6605POPC   PO422740  12.111  28.376   9.153
 6605POPC   GL122741  12.075  28.396   8.853
 6605POPC   GL222742  12.237  28.355   8.853
 6605POPC   C1A22743  12.045  28.369   8.553
 6605POPC   D2A22744  12.042  28.394   8.253
 6605POPC   C3A22745  12.047  28.389   7.953
 6605POPC   C4A22746  12.059  28.394   7.653
 6605POPC   C1B22747  12.345  28.288   8.553
 6605POPC   C2B22748  12.277  28.306   8.253
 6605POPC   C3B22749  12.308  28.302   7.953
 6605POPC   C4B22750  12.305  28.323   7.653
 6606POPC   NC322751  37.676   5.895   9.453
 6606POPC   PO422752  37.663   5.895   9.153
 6606POPC   GL122753  37.719   5.893   8.853
 6606POPC   GL222754  37.513   5.843   8.853
 6606POPC   C1A22755  37.638   5.834   8.553
 6606POPC   D2A22756  37.639   5.847   8.253
 6606POPC   C3A22757  37.706   5.870   7.953
 6606POPC   C4A22758  37.727   5.916   7.653
 6606POPC   C1B22759  37.473   5.887   8.553
 6606POPC   C2B22760  37.393   5.877   8.253
 6606POPC   C3B22761  37.444   5.877   7.953
 6606POPC   C4B22762  37.399   5.837   7.653
 6607POPC   NC322763   0.420   7.420   9.453
 6607POPC   PO422764   0.394   7.371   9.153
 6607POPC   GL122765   0.452   7.379   8.853
 6607POPC   GL222766   0.323   7.306   8.853
 6607POPC   C1A22767   0.421   7.438   8.553
 6607POPC   D2A22768   0.390   7.396   8.253
 6607POPC   C3A22769   0.469   7.387   7.953
 6607POPC   C4A22770   0.400   7.377   7.653
 6607POPC   C1B22771   0.234   7.220   8.553
 6607POPC   C2B22772   0.254   7.306   8.253
 6607POPC   C3B22773   0.202   7.283   7.953
 6607POPC   C4B22774   0.290   7.249   7.653
 6608POPC   NC322775   5.054  34.539   9.453
 6608POPC   PO422776   5.137  34.603   9.153
 6608POPC   GL122777   5.066  34.585   8.853
 6608POPC   GL222778   4.943  34.570   8.853
 6608POPC   C1A22779   5.080  34.621   8.553
 6608POPC   D2A22780   5.074  34.541   8.253
 6608POPC   C3A22781   5.055  34.606   7.953
 6608POPC   C4A22782   5.099  34.570   7.653
 6608POPC   C1B22783   4.882  34.581   8.553
 6608POPC   C2B22784   4.848  34.543   8.253
 6608POPC   C3B22785   4.817  34.564   7.953
 6608POPC   C4B22786   4.892  34.591   7.653
 6609POPC   NC322787  26.833  43.908   9.453
 6609POPC   PO422788  26.783  43.866   9.153
 6609POPC   GL122789  26.855  43.853   8.853
 6609POPC   GL222790  26.826  43.736   8.853
 6609POPC   C1A22791  26.825  43.882   8.553
 6609POPC   D2A22792  26.819  43.899   8.253
 6609POPC   C3A22793  26.791  43.858   7.953
 6609POPC   C4A22794  26.830  43.869   7.653
 6609POPC   C1B22795  26.791  43.625   8.553
 6609POPC   C2B22796  26.810  43.603   8.253
 6609POPC   C3B22797  26.777  43.656   7.953
 6609POPC   C4B22798  26.809  43.670   7.653
 6610POPC   NC322799   9.788  29.129   9.453
 6610POPC   PO422800   9.704  29.140   9.153
 6610POPC   GL122801   9.795  29.165   8.853
 6610POPC   GL222802   9.896  29.087   8.853
 6610POPC   C1A22803   9.713  29.195   8.553
 6610POPC   D2A22804   9.753  29.175   8.253
 6610POPC   C3A22805   9.778  29.147   7.953
 6610POPC   C4A22806   9.760  29.138   7.653
 6610POPC   C1B22807   9.958  29.118   8.553
 6610POPC   C2B22808  10.014  29.087   8.253
 6610POPC   C3B22809   9.998  29.059   7.953
 6610POPC   C4B22810  10.012  29.121   7.653
 6611POPC   NC322811  32.225  37.659   9.453
 6611POPC   PO422812  32.280  37.665   9.153
 6611POPC   GL122813  32.268  37.654   8.853
 6611POPC   GL222814  32.198  37.544   8.853
 6611POPC   C1A22815  32.216  37.698   8.553
 6611POPC   D2A22816  32.273  37.671   8.253
 6611POPC   C3A22817  32.295  37.678   7.953
 6611POPC   C4A22818  32.238  37.643   7.653
 6611POPC   C1B22819  32.192  37.402   8.553
 6611POPC   C2B22820  32.245  37.477   8.253
 6611POPC   C3B22821  32.172  37.397   7.953
 6611POPC   C4B22822  32.241  37.406   7.653
 6612POPC   NC322823   2.718  19.856   9.453
 6612POPC   PO422824   2.738  19.855   9.153
 6612POPC   GL122825   2.735  19.861   8.853
 6612POPC   GL222826   2.881  19.851   8.853
 6612POPC   C1A22827   2.719  19.804   8.553
 6612POPC   D2A22828   2.798  19.836   8.253
 6612POPC   C3A22829   2.718  19.884   7.953
 6612POPC   C4A22830   2.762  19.866   7.653
 6612POPC   C1B22831   2.968  19.892   8.553
 6612POPC   C2B22832   2.993  19.830   8.253
 6612POPC   C3B22833   3.002  19.901   7.953
 6612POPC   C4B22834   3.062  19.837   7.653
 6613POPC   NC322835  12.898  15.140   9.453
 6613POPC   PO422836  12.820  15.170   9.153
 6613POPC   GL122837  12.838  15.166   8.853
 6613POPC   GL222838  12.881  15.029   8.853
 6613POPC   C1A22839  12.889  15.211   8.553
 6613POPC   D2A22840  12.883  15.215   8.253
 6613POPC   C3A22841  12.892  15.151   7.953
 6613POPC   C4A22842  12.824  15.156   7.653
 6613POPC   C1B22843  12.917  14.907   8.553
 6613POPC   C2B22844  12.896  14.964   8.253
 6613POPC   C3B22845  12.945  14.933   7.953
 6613POPC   C4B22846  12.883  14.887   7.653
 6614POPC   NC322847  43.074  19.861   9.453
 6614POPC   PO422848  43.121  19.828   9.153
 6614POPC   GL122849  43.097  19.815   8.853
 6614POPC   GL222850  43.153  19.984   8.853
 6614POPC   C1A22851  43.064  19.884   8.553
 6614POPC   D2A22852  43.060  19.852   8.253
 6614POPC   C3A22853  43.120  19.868   7.953
 6614POPC   C4A22854  43.159  19.787   7.653
 6614POPC   C1B22855  43.069  20.049   8.553
 6614POPC   C2B22856  43.122  20.061   8.253
 6614POPC   C3B22857  43.104  20.131   7.953
 6614POPC   C4B22858  43.158  20.103   7.653
 6615POPC   NC322859  10.482   0.441   9.453
 6615POPC   PO422860  10.543   0.419   9.153
 6615POPC   GL122861  10.525   0.414   8.853
 6615POPC   GL222862  10.440   0.390   8.853
 6615POPC   C1A22863  10.521   0.445   8.553
 6615POPC   D2A22864  10.549   0.404   8.253
 6615POPC   C3A22865  10.567   0.417   7.953
 6615POPC   C4A22866  10.536   0.448   7.653
 6615POPC   C1B22867  10.361   0.228   8.553
 6615POPC   C2B22868  10.316   0.211   8.253
 6615POPC   C3B22869  10.313   0.253   7.953
 6615POPC   C4B22870  10.384   0.281   7.653
 6616POPC   NC322871   6.598   5.918   9.453
 6616POPC   PO422872   6.641   5.868   9.153
 6616POPC   GL122873   6.653   5.861   8.853
 6616POPC   GL222874   6.698   5.759   8.853
 6616POPC   C1A22875   6.649   5.853   8.553
 6616POPC   D2A22876   6.679   5.891   8.253
 6616POPC   C3A22877   6.676   5.838   7.953
 6616POPC   C4A22878   6.686   5.912   7.653
 6616POPC   C1B22879   6.858   5.694   8.553
 6616POPC   C2B22880   6.884   5.734   8.253
 6616POPC   C3B22881   6.865   5.686   7.953
 6616POPC   C4B22882   6.849   5.736   7.653
 6617POPC   NC322883  13.599   1.170   9.453
 6617POPC   PO422884  13.667   1.250   9.153
 6617POPC   GL122885  13.651   1.213   8.853
 6617POPC   GL222886  13.637   1.135   8.853
 6617POPC   C1A22887  13.588   1.194   8.553
 6617POPC   D2A22888  13.582   1.237   8.253
 6617POPC   C3A22889  13.647   1.182   7.953
 6617POPC   C4A22890  13.643   1.222   7.653
 6617POPC   C1B22891  13.724   1.001   8.553
 6617POPC   C2B22892  13.660   0.925   8.253
 6617POPC   C3B22893  13.723   0.967   7.953
 6617POPC   C4B22894  13.667   1.010   7.653
 6618POPC   NC322895  34.594  40.027   9.453
 6618POPC   PO422896  34.589  39.983   9.153
 6618POPC   GL122897  34.565  40.042   8.853
 6618POPC   GL222898  34.642  39.880   8.853
 6618POPC   C1A22899  34.537  40.008   8.553
 6618POPC   D2A22900  34.581  40.003   8.253
 6618POPC   C3A22901  34.535  39.995   7.953
 6618POPC   C4A22902  34.575  40.017   7.653
 6618POPC   C1B22903  34.681  39.752   8.553
 6618POPC   C2B22904  34.659  39.841   8.253
 6618POPC   C3B22905  34.720  39.783   7.953
 6618POPC   C4B22906  34.731  39.799   7.653
 6619POPC   NC322907  29.144  18.243   9.453
 6619POPC   PO422908  29.095  18.280   9.153
 6619POPC   GL122909  29.150  18.301   8.853
 6619POPC   GL222910  29.133  18.455   8.853
 6619POPC   C1A22911  29.137  18.283   8.553
 6619POPC   D2A22912  29.161  18.269   8.253
 6619POPC   C3A22913  29.111  18.246   7.953
 6619POPC   C4A22914  29.143  18.268   7.653
 6619POPC   C1B22915  29.124  18.485   8.553
 6619POPC   C2B22916  29.196  18.493   8.253
 6619POPC   C3B22917  29.214  18.558   7.953
 6619POPC   C4B22918  29.200  18.544   7.653
 6620POPC   NC322919   6.643  42.346   9.453
 6620POPC   PO422920   6.682  42.357   9.153
 6620POPC   GL122921   6.643  42.371   8.853
 6620POPC   GL222922   6.616  42.171   8.853
 6620POPC   C1A22923   6.622  42.307   8.553
 6620POPC   D2A22924   6.694  42.351   8.253
 6620POPC   C3A22925   6.606  42.302   7.953
 6620POPC   C4A22926   6.619  42.301   7.653
 6620POPC   C1B22927   6.606  42.139   8.553
 6620POPC   C2B22928   6.555  42.138   8.253
 6620POPC   C3B22929   6.572  42.104   7.953
 6620POPC   C4B22930   6.550  42.111   7.653
 6621POPC   NC322931  38.417  19.072   9.453
 6621POPC   PO422932  38.492  19.093   9.153
 6621POPC   GL122933  38.428  19.015   8.853
 6621POPC   GL222934  38.488  18.954   8.853
 6621POPC   C1A22935  38.490  19.075   8.553
 6621POPC   D2A22936  38.505  19.021   8.253
 6621POPC   C3A22937  38.494  19.009   7.953
 6621POPC   C4A22938  38.406  19.072   7.653
 6621POPC   C1B22939  38.495  18.782   8.553
 6621POPC   C2B22940  38.441  18.851   8.253
 6621POPC   C3B22941  38.471  18.761   7.953
 6621POPC   C4B22942  38.416  18.823   7.653
 6622POPC   NC322943  42.371   9.002   9.453
 6622POPC   PO422944  42.366   8.953   9.153
 6622POPC   GL122945  42.289   9.005   8.853
 6622POPC   GL222946  42.195   9.010   8.853
 6622POPC   C1A22947  42.317   9.000   8.553
 6622POPC   D2A22948  42.305   8.938   8.253
 6622POPC   C3A22949  42.347   8.996   7.953
 6622POPC   C4A22950  42.335   8.958   7.653
 6622POPC   C1B22951  42.067   9.037   8.553
 6622POPC   C2B22952  42.048   9.012   8.253
 6622POPC   C3B22953  42.081   9.008   7.953
 6622POPC   C4B22954  42.134   9.007   7.653
 6623POPC   NC322955   8.203  36.161   9.453
 6623POPC   PO422956   8.155  36.118   9.153
 6623POPC   GL122957   8.153  36.115   8.853
 6623POPC   GL222958   8.292  36.189   8.853
 6623POPC   C1A22959   8.172  36.169   8.553
 6623POPC   D2A22960   8.185  36.159   8.253
 6623POPC   C3A22961   8.232  36.173   7.953
 6623POPC   C4A22962   8.195  36.175   7.653
 6623POPC   C1B22963   8.329  36.303   8.553
 6623POPC   C2B22964   8.362  36.389   8.253
 6623POPC   C3B22965   8.360  36.344   7.953
 6623POPC   C4B22966   8.283  36.297   7.653
 6624POPC   NC322967  43.898  12.827   9.453
 6624POPC   PO422968  43.904  12.824   9.153
 6624POPC   GL122969  43.843  12.813   8.853
 6624POPC   GL222970  43.719  12.906   8.853
 6624POPC   C1A22971  43.883  12.824   8.553
 6624POPC   D2A22972  43.875  12.821   8.253
 6624POPC   C3A22973  43.890  12.865   7.953
 6624POPC   C4A22974  43.883  12.890   7.653
 6624POPC   C1B22975  43.614  12.853   8.553
 6624POPC   C2B22976  43.624  12.870   8.253
 6624POPC   C3B22977  43.664  12.898   7.953
 6624POPC   C4B22978  43.646  12.863   7.653
 6625POPC   NC322979  42.347  20.617   9.453
 6625POPC   PO422980  42.315  20.600   9.153
 6625POPC   GL122981  42.346  20.637   8.853
 6625POPC   GL222982  42.428  20.616   8.853
 6625POPC   C1A22983  42.384  20.659   8.553
 6625POPC   D2A22984  42.311  20.576   8.253
 6625POPC   C3A22985  42.328  20.617   7.953
 6625POPC   C4A22986  42.324  20.603   7.653
 6625POPC   C1B22987  42.571  20.558   8.553
 6625POPC   C2B22988  42.570  20.547   8.253
 6625POPC   C3B22989  42.598  20.514   7.953
 6625POPC   C4B22990  42.571  20.534   7.653
 6626POPC   NC322991   5.131  29.936   9.453
 6626POPC   PO422992   5.126  29.904   9.153
 6626POPC   GL122993   5.132  29.930   8.853
 6626POPC   GL222994   5.203  29.948   8.853
 6626POPC   C1A22995   5.102  29.940   8.553
 6626POPC   D2A22996   5.061  29.934   8.253
 6626POPC   C3A22997   5.086  29.948   7.953
 6626POPC   C4A22998   5.107  29.892   7.653
 6626POPC   C1B22999   5.296  29.962   8.553
 6626POPC   C2B23000   5.378  30.021   8.253
 6626POPC   C3B23001   5.361  30.005   7.953
 6626POPC   C4B23002   5.371  29.977   7.653
 6627POPC   NC323003  39.191  27.568   9.453
 6627POPC   PO423004  39.190  27.562   9.153
 6627POPC   GL123005  39.223  27.577   8.853
 6627POPC   GL223006  39.157  27.463   8.853
 6627POPC   C1A23007  39.238  27.549   8.553
 6627POPC   D2A23008  39.182  27.552   8.253
 6627POPC   C3A23009  39.262  27.554   7.953
 6627POPC   C4A23010  39.197  27.604   7.653
 6627POPC   C1B23011  39.080  27.429   8.553
 6627POPC   C2B23012  39.132  27.424   8.253
 6627POPC   C3B23013  39.086  27.424   7.953
 6627POPC   C4B23014  39.042  27.406   7.653
 6628POPC   NC323015   5.138  38.465   9.453
 6628POPC   PO423016   5.054  38.435   9.153
 6628POPC   GL123017   5.087  38.408   8.853
 6628POPC   GL223018   5.105  38.607   8.853
 6628POPC   C1A23019   5.116  38.483   8.553
 6628POPC   D2A23020   5.046  38.433   8.253
 6628POPC   C3A23021   5.098  38.476   7.953
 6628POPC   C4A23022   5.101  38.440   7.653
 6628POPC   C1B23023   5.086  38.664   8.553
 6628POPC   C2B23024   5.098  38.670   8.253
 6628POPC   C3B23025   5.059  38.706   7.953
 6628POPC   C4B23026   5.036  38.684   7.653
 6629POPC   NC323027   9.727  41.591   9.453
 6629POPC   PO423028   9.718  41.516   9.153
 6629POPC   GL123029   9.728  41.526   8.853
 6629POPC   GL223030   9.839  41.662   8.853
 6629POPC   C1A23031   9.706  41.546   8.553
 6629POPC   D2A23032   9.712  41.536   8.253
 6629POPC   C3A23033   9.771  41.526   7.953
 6629POPC   C4A23034   9.759  41.605   7.653
 6629POPC   C1B23035   9.930  41.747   8.553
 6629POPC   C2B23036   9.937  41.712   8.253
 6629POPC   C3B23037   9.906  41.752   7.953
 6629POPC   C4B23038   9.862  41.704   7.653
 6630POPC   NC323039   3.565  12.032   9.453
 6630POPC   PO423040   3.531  12.091   9.153
 6630POPC   GL123041   3.494  12.116   8.853
 6630POPC   GL223042   3.417  12.149   8.853
 6630POPC   C1A23043   3.585  12.086   8.553
 6630POPC   D2A23044   3.517  12.116   8.253
 6630POPC   C3A23045   3.574  12.071   7.953
 6630POPC   C4A23046   3.498  12.092   7.653
 6630POPC   C1B23047   3.388  12.297   8.553
 6630POPC   C2B23048   3.383  12.235   8.253
 6630POPC   C3B23049   3.338  12.293   7.953
 6630POPC   C4B23050   3.405  12.241   7.653
 6631POPC   NC323051  33.024  15.169   9.453
 6631POPC   PO423052  33.007  15.210   9.153
 6631POPC   GL123053  33.069  15.202   8.853
 6631POPC   GL223054  32.919  15.177   8.853
 6631POPC   C1A23055  33.051  15.147   8.553
 6631POPC   D2A23056  33.030  15.199   8.253
 6631POPC   C3A23057  33.053  15.144   7.953
 6631POPC   C4A23058  32.989  15.182   7.653
 6631POPC   C1B23059  32.772  15.240   8.553
 6631POPC   C2B23060  32.756  15.198   8.253
 6631POPC   C3B23061  32.759  15.249   7.953
 6631POPC   C4B23062  32.772  15.233   7.653
 6632POPC   NC323063  32.274   4.355   9.453
 6632POPC   PO423064  32.233   4.321   9.153
 6632POPC   GL123065  32.292   4.304   8.853
 6632POPC   GL223066  32.205   4.459   8.853
 6632POPC   C1A23067  32.248   4.306   8.553
 6632POPC   D2A23068  32.247   4.285   8.253
 6632POPC   C3A23069  32.216   4.365   7.953
 6632POPC   C4A23070  32.253   4.350   7.653
 6632POPC   C1B23071  32.108   4.589   8.553
 6632POPC   C2B23072  32.137   4.503   8.253
 6632POPC   C3B23073  32.132   4.565   7.953
 6632POPC   C4B23074  32.140   4.492   7.653
 6633POPC   NC323075   2.034  10.511   9.453
 6633POPC   PO423076   1.944  10.476   9.153
 6633POPC   GL123077   2.021  10.546   8.853
 6633POPC   GL223078   2.107  10.516   8.853
 6633POPC   C1A23079   1.976  10.482   8.553
 6633POPC   D2A23080   1.963  10.507   8.253
 6633POPC   C3A23081   1.971  10.548   7.953
 6633POPC   C4A23082   1.993  10.500   7.653
 6633POPC   C1B23083   2.230  10.633   8.553
 6633POPC   C2B23084   2.233  10.566   8.253
 6633POPC   C3B23085   2.260  10.632   7.953
 6633POPC   C4B23086   2.207  10.567   7.653
 6634POPC   NC323087  43.879  42.301   9.453
 6634POPC   PO423088  43.883  42.288   9.153
 6634POPC   GL123089  43.852  42.353   8.853
 6634POPC   GL223090  43.736  42.371   8.853
 6634POPC   C1A23091  43.881  42.374   8.553
 6634POPC   D2A23092  43.914  42.304   8.253
 6634POPC   C3A23093  43.891  42.340   7.953
 6634POPC   C4A23094  43.872  42.328   7.653
 6634POPC   C1B23095  43.624  42.324   8.553
 6634POPC   C2B23096  43.625  42.297   8.253
 6634POPC   C3B23097  43.667  42.353   7.953
 6634POPC   C4B23098  43.671  42.295   7.653
 6635POPC   NC323099   9.006  44.710   9.453
 6635POPC   PO423100   8.966  44.625   9.153
 6635POPC   GL123101   8.967  44.702   8.853
 6635POPC   GL223102   8.848  44.620   8.853
 6635POPC   C1A23103   9.004  44.681   8.553
 6635POPC   D2A23104   8.929  44.619   8.253
 6635POPC   C3A23105   8.975  44.701   7.953
 6635POPC   C4A23106   9.015  44.659   7.653
 6635POPC   C1B23107   8.780  44.475   8.553
 6635POPC   C2B23108   8.819  44.455   8.253
 6635POPC   C3B23109   8.767  44.469   7.953
 6635POPC   C4B23110   8.763  44.431   7.653
 6636POPC   NC323111  40.027  19.847   9.453
 6636POPC   PO423112  40.018  19.832   9.153
 6636POPC   GL123113  40.039  19.795   8.853
 6636POPC   GL223114  39.840  19.815   8.853
 6636POPC   C1A23115  39.981  19.831   8.553
 6636POPC   D2A23116  40.056  19.792   8.253
 6636POPC   C3A23117  39.985  19.855   7.953
 6636POPC   C4A23118  39.959  19.872   7.653
 6636POPC   C1B23119  39.771  19.865   8.553
 6636POPC   C2B23120  39.782  19.908   8.253
 6636POPC   C3B23121  39.808  19.848   7.953
 6636POPC   C4B23122  39.778  19.868   7.653
 6637POPC   NC323123  18.318  19.016   9.453
 6637POPC   PO423124  18.315  19.037   9.153
 6637POPC   GL123125  18.262  19.011   8.853
 6637POPC   GL223126  18.248  18.911   8.853
 6637POPC   C1A23127  18.281  19.094   8.553
 6637POPC   D2A23128  18.332  19.045   8.253
 6637POPC   C3A23129  18.268  19.054   7.953
 6637POPC   C4A23130  18.275  19.079   7.653
 6637POPC   C1B23131  18.218  18.857   8.553
 6637POPC   C2B23132  18.207  18.807   8.253
 6637POPC   C3B23133  18.257  18.781   7.953
 6637POPC   C4B23134  18.265  18.777   7.653
 6638POPC   NC323135  33.074   5.887   9.453
 6638POPC   PO423136  33.035   5.871   9.153
 6638POPC   GL123137  33.058   5.902   8.853
 6638POPC   GL223138  33.123   5.923   8.853
 6638POPC   C1A23139  33.011   5.852   8.553
 6638POPC   D2A23140  33.051   5.897   8.253
 6638POPC   C3A23141  32.985   5.850   7.953
 6638POPC   C4A23142  33.047   5.875   7.653
 6638POPC   C1B23143  33.183   6.048   8.553
 6638POPC   C2B23144  33.194   5.995   8.253
 6638POPC   C3B23145  33.258   5.988   7.953
 6638POPC   C4B23146  33.248   6.035   7.653
 6639POPC   NC323147  43.859  43.083   9.453
 6639POPC   PO423148  43.851  43.128   9.153
 6639POPC   GL123149  43.859  43.111   8.853
 6639POPC   GL223150  43.931  42.974   8.853
 6639POPC   C1A23151  43.860  43.158   8.553
 6639POPC   D2A23152  43.884  43.134   8.253
 6639POPC   C3A23153  43.839  43.065   7.953
 6639POPC   C4A23154  43.930  43.129   7.653
 6639POPC   C1B23155  44.057  42.982   8.553
 6639POPC   C2B23156  44.051  42.961   8.253
 6639POPC   C3B23157  44.099  42.979   7.953
 6639POPC   C4B23158  44.096  42.968   7.653
 6640POPC   NC323159  39.958   5.822   9.453
 6640POPC   PO423160  40.054   5.877   9.153
 6640POPC   GL123161  40.032   5.876   8.853
 6640POPC   GL223162  39.919   5.793   8.853
 6640POPC   C1A23163  40.019   5.879   8.553
 6640POPC   D2A23164  40.038   5.902   8.253
 6640POPC   C3A23165  40.022   5.843   7.953
 6640POPC   C4A23166  39.974   5.906   7.653
 6640POPC   C1B23167  39.895   5.713   8.553
 6640POPC   C2B23168  39.828   5.637   8.253
 6640POPC   C3B23169  39.809   5.654   7.953
 6640POPC   C4B23170  39.876   5.628   7.653
 6641POPC   NC323171  24.488  19.797   9.453
 6641POPC   PO423172  24.450  19.836   9.153
 6641POPC   GL123173  24.458  19.865   8.853
 6641POPC   GL223174  24.437  19.700   8.853
 6641POPC   C1A23175  24.457  19.879   8.553
 6641POPC   D2A23176  24.474  19.876   8.253
 6641POPC   C3A23177  24.485  19.875   7.953
 6641POPC   C4A23178  24.456  19.805   7.653
 6641POPC   C1B23179  24.348  19.580   8.553
 6641POPC   C2B23180  24.405  19.565   8.253
 6641POPC   C3B23181  24.354  19.560   7.953
 6641POPC   C4B23182  24.402  19.620   7.653
 6642POPC   NC323183  23.719  30.735   9.453
 6642POPC   PO423184  23.750  30.669   9.153
 6642POPC   GL123185  23.738  30.668   8.853
 6642POPC   GL223186  23.802  30.667   8.853
 6642POPC   C1A23187  23.667  30.648   8.553
 6642POPC   D2A23188  23.709  30.695   8.253
 6642POPC   C3A23189  23.675  30.723   7.953
 6642POPC   C4A23190  23.758  30.648   7.653
 6642POPC   C1B23191  23.956  30.721   8.553
 6642POPC   C2B23192  23.996  30.762   8.253
 6642POPC   C3B23193  23.948  30.745   7.953
 6642POPC   C4B23194  23.920  30.687   7.653
 6643POPC   NC323195  22.157  15.178   9.453
 6643POPC   PO423196  22.116  15.204   9.153
 6643POPC   GL123197  22.117  15.205   8.853
 6643POPC   GL223198  22.322  15.094   8.853
 6643POPC   C1A23199  22.196  15.150   8.553
 6643POPC   D2A23200  22.118  15.224   8.253
 6643POPC   C3A23201  22.121  15.153   7.953
 6643POPC   C4A23202  22.194  15.220   7.653
 6643POPC   C1B23203  22.337  15.082   8.553
 6643POPC   C2B23204  22.370  15.034   8.253
 6643POPC   C3B23205  22.425  15.031   7.953
 6643POPC   C4B23206  22.390  15.108   7.653
 6644POPC   NC323207   4.302  29.133   9.453
 6644POPC   PO423208   4.304  29.129   9.153
 6644POPC   GL123209   4.275  29.096   8.853
 6644POPC   GL223210   4.355  29.261   8.853
 6644POPC   C1A23211   4.365  29.161   8.553
 6644POPC   D2A23212   4.272  29.135   8.253
 6644POPC   C3A23213   4.352  29.145   7.953
 6644POPC   C4A23214   4.356  29.176   7.653
 6644POPC   C1B23215   4.313  29.351   8.553
 6644POPC   C2B23216   4.333  29.411   8.253
 6644POPC   C3B23217   4.346  29.402   7.953
 6644POPC   C4B23218   4.289  29.374   7.653
 6645POPC   NC323219  15.180  31.436   9.453
 6645POPC   PO423220  15.138  31.504   9.153
 6645POPC   GL123221  15.220  31.478   8.853
 6645POPC   GL223222  15.024  31.466   8.853
 6645POPC   C1A23223  15.198  31.511   8.553
 6645POPC   D2A23224  15.175  31.522   8.253
 6645POPC   C3A23225  15.202  31.494   7.953
 6645POPC   C4A23226  15.206  31.426   7.653
 6645POPC   C1B23227  14.944  31.330   8.553
 6645POPC   C2B23228  14.920  31.391   8.253
 6645POPC   C3B23229  14.952  31.421   7.953
 6645POPC   C4B23230  14.992  31.374   7.653
 6646POPC   NC323231  32.289  29.917   9.453
 6646POPC   PO423232  32.288  29.916   9.153
 6646POPC   GL123233  32.272  29.944   8.853
 6646POPC   GL223234  32.365  29.928   8.853
 6646POPC   C1A23235  32.230  29.872   8.553
 6646POPC   D2A23236  32.208  29.893   8.253
 6646POPC   C3A23237  32.207  29.916   7.953
 6646POPC   C4A23238  32.230  29.886   7.653
 6646POPC   C1B23239  32.525  30.000   8.553
 6646POPC   C2B23240  32.434  30.064   8.253
 6646POPC   C3B23241  32.452  29.975   7.953
 6646POPC   C4B23242  32.476  30.015   7.653
 6647POPC   NC323243  12.122  23.688   9.453
 6647POPC   PO423244  12.071  23.701   9.153
 6647POPC   GL123245  12.060  23.711   8.853
 6647POPC   GL223246  12.200  23.780   8.853
 6647POPC   C1A23247  12.038  23.699   8.553
 6647POPC   D2A23248  12.118  23.685   8.253
 6647POPC   C3A23249  12.047  23.732   7.953
 6647POPC   C4A23250  12.063  23.672   7.653
 6647POPC   C1B23251  12.261  23.847   8.553
 6647POPC   C2B23252  12.239  23.885   8.253
 6647POPC   C3B23253  12.266  23.842   7.953
 6647POPC   C4B23254  12.226  23.851   7.653
 6648POPC   NC323255   3.586  10.554   9.453
 6648POPC   PO423256   3.571  10.482   9.153
 6648POPC   GL123257   3.527  10.485   8.853
 6648POPC   GL223258   3.625  10.495   8.853
 6648POPC   C1A23259   3.591  10.495   8.553
 6648POPC   D2A23260   3.568  10.512   8.253
 6648POPC   C3A23261   3.536  10.525   7.953
 6648POPC   C4A23262   3.519  10.523   7.653
 6648POPC   C1B23263   3.781  10.431   8.553
 6648POPC   C2B23264   3.779  10.435   8.253
 6648POPC   C3B23265   3.780  10.373   7.953
 6648POPC   C4B23266   3.787  10.384   7.653
 6649POPC   NC323267  42.294  36.122   9.453
 6649POPC   PO423268  42.355  36.080   9.153
 6649POPC   GL123269  42.294  36.138   8.853
 6649POPC   GL223270  42.369  36.201   8.853
 6649POPC   C1A23271  42.380  36.146   8.553
 6649POPC   D2A23272  42.312  36.168   8.253
 6649POPC   C3A23273  42.382  36.102   7.953
 6649POPC   C4A23274  42.382  36.170   7.653
 6649POPC   C1B23275  42.423  36.404   8.553
 6649POPC   C2B23276  42.454  36.334   8.253
 6649POPC   C3B23277  42.356  36.383   7.953
 6649POPC   C4B23278  42.381  36.401   7.653
 6650POPC   NC323279  26.035   9.764   9.453
 6650POPC   PO423280  26.015   9.728   9.153
 6650POPC   GL123281  26.054   9.763   8.853
 6650POPC   GL223282  26.119   9.835   8.853
 6650POPC   C1A23283  26.063   9.786   8.553
 6650POPC   D2A23284  26.040   9.774   8.253
 6650POPC   C3A23285  26.089   9.788   7.953
 6650POPC   C4A23286  26.016   9.716   7.653
 6650POPC   C1B23287  26.247   9.913   8.553
 6650POPC   C2B23288  26.231   9.978   8.253
 6650POPC   C3B23289  26.205   9.960   7.953
 6650POPC   C4B23290  26.181   9.972   7.653
 6651POPC   NC323291  26.043  13.621   9.453
 6651POPC   PO423292  26.006  13.592   9.153
 6651POPC   GL123293  26.076  13.607   8.853
 6651POPC   GL223294  25.991  13.734   8.853
 6651POPC   C1A23295  26.081  13.675   8.553
 6651POPC   D2A23296  25.995  13.616   8.253
 6651POPC   C3A23297  26.064  13.580   7.953
 6651POPC   C4A23298  26.004  13.659   7.653
 6651POPC   C1B23299  25.987  13.917   8.553
 6651POPC   C2B23300  25.928  13.864   8.253
 6651POPC   C3B23301  25.967  13.884   7.953
 6651POPC   C4B23302  25.934  13.868   7.653
 6652POPC   NC323303  19.069   4.365   9.453
 6652POPC   PO423304  19.050   4.331   9.153
 6652POPC   GL123305  19.031   4.269   8.853
 6652POPC   GL223306  19.152   4.194   8.853
 6652POPC   C1A23307  19.063   4.302   8.553
 6652POPC   D2A23308  19.092   4.307   8.253
 6652POPC   C3A23309  19.054   4.294   7.953
 6652POPC   C4A23310  19.095   4.284   7.653
 6652POPC   C1B23311  19.162   4.063   8.553
 6652POPC   C2B23312  19.229   4.101   8.253
 6652POPC   C3B23313  19.148   4.074   7.953
 6652POPC   C4B23314  19.212   4.145   7.653
 6653POPC   NC323315  14.366   1.189   9.453
 6653POPC   PO423316  14.377   1.253   9.153
 6653POPC   GL123317  14.445   1.219   8.853
 6653POPC   GL223318  14.573   1.215   8.853
 6653POPC   C1A23319  14.402   1.244   8.553
 6653POPC   D2A23320  14.369   1.219   8.253
 6653POPC   C3A23321  14.445   1.188   7.953
 6653POPC   C4A23322  14.364   1.227   7.653
 6653POPC   C1B23323  14.681   1.233   8.553
 6653POPC   C2B23324  14.599   1.295   8.253
 6653POPC   C3B23325  14.607   1.266   7.953
 6653POPC   C4B23326  14.659   1.264   7.653
 6654POPC   NC323327  38.430   1.970   9.453
 6654POPC   PO423328  38.466   2.019   9.153
 6654POPC   GL123329  38.466   1.966   8.853
 6654POPC   GL223330  38.493   2.129   8.853
 6654POPC   C1A23331  38.417   2.032   8.553
 6654POPC   D2A23332  38.442   1.948   8.253
 6654POPC   C3A23333  38.429   2.021   7.953
 6654POPC   C4A23334  38.433   2.017   7.653
 6654POPC   C1B23335  38.576   2.191   8.553
 6654POPC   C2B23336  38.590   2.213   8.253
 6654POPC   C3B23337  38.573   2.197   7.953
 6654POPC   C4B23338  38.553   2.179   7.653
 6655POPC   NC323339  24.450  22.955   9.453
 6655POPC   PO423340  24.459  22.927   9.153
 6655POPC   GL123341  24.485  22.927   8.853
 6655POPC   GL223342  24.440  22.829   8.853
 6655POPC   C1A23343  24.525  22.960   8.553
 6655POPC   D2A23344  24.475  22.891   8.253
 6655POPC   C3A23345  24.535  22.952   7.953
 6655POPC   C4A23346  24.528  22.953   7.653
 6655POPC   C1B23347  24.297  22.753   8.553
 6655POPC   C2B23348  24.317  22.716   8.253
 6655POPC   C3B23349  24.289  22.769   7.953
 6655POPC   C4B23350  24.308  22.782   7.653
 6656POPC   NC323351  33.036  42.352   9.453
 6656POPC   PO423352  33.017  42.323   9.153
 6656POPC   GL123353  33.067  42.357   8.853
 6656POPC   GL223354  32.981  42.212   8.853
 6656POPC   C1A23355  33.010  42.315   8.553
 6656POPC   D2A23356  33.031  42.374   8.253
 6656POPC   C3A23357  33.067  42.373   7.953
 6656POPC   C4A23358  33.004  42.307   7.653
 6656POPC   C1B23359  32.934  42.144   8.553
 6656POPC   C2B23360  32.905  42.074   8.253
 6656POPC   C3B23361  32.952  42.113   7.953
 6656POPC   C4B23362  32.981  42.103   7.653
 6657POPC   NC323363   5.906  12.900   9.453
 6657POPC   PO423364   5.899  12.895   9.153
 6657POPC   GL123365   5.866  12.838   8.853
 6657POPC   GL223366   5.987  12.760   8.853
 6657POPC   C1A23367   5.872  12.847   8.553
 6657POPC   D2A23368   5.843  12.840   8.253
 6657POPC   C3A23369   5.881  12.864   7.953
 6657POPC   C4A23370   5.843  12.876   7.653
 6657POPC   C1B23371   6.076  12.691   8.553
 6657POPC   C2B23372   6.053  12.632   8.253
 6657POPC   C3B23373   6.036  12.696   7.953
 6657POPC   C4B23374   6.039  12.702   7.653
 6658POPC   NC323375  25.314  40.737   9.453
 6658POPC   PO423376  25.258  40.745   9.153
 6658POPC   GL123377  25.244  40.785   8.853
 6658POPC   GL223378  25.196  40.682   8.853
 6658POPC   C1A23379  25.285  40.743   8.553
 6658POPC   D2A23380  25.298  40.779   8.253
 6658POPC   C3A23381  25.281  40.736   7.953
 6658POPC   C4A23382  25.268  40.734   7.653
 6658POPC   C1B23383  25.152  40.540   8.553
 6658POPC   C2B23384  25.120  40.593   8.253
 6658POPC   C3B23385  25.210  40.594   7.953
 6658POPC   C4B23386  25.133  40.566   7.653
 6659POPC   NC323387  26.053  27.611   9.453
 6659POPC   PO423388  26.066  27.622   9.153
 6659POPC   GL123389  26.027  27.602   8.853
 6659POPC   GL223390  26.014  27.459   8.853
 6659POPC   C1A23391  26.060  27.557   8.553
 6659POPC   D2A23392  26.015  27.580   8.253
 6659POPC   C3A23393  26.075  27.636   7.953
 6659POPC   C4A23394  26.061  27.597   7.653
 6659POPC   C1B23395  25.960  27.343   8.553
 6659POPC   C2B23396  25.950  27.318   8.253
 6659POPC   C3B23397  26.036  27.343   7.953
 6659POPC   C4B23398  25.959  27.301   7.653
 6660POPC   NC323399  29.921  40.828   9.453
 6660POPC   PO423400  29.871  40.751   9.153
 6660POPC   GL123401  29.881  40.803   8.853
 6660POPC   GL223402  29.969  40.660   8.853
 6660POPC   C1A23403  29.933  40.777   8.553
 6660POPC   D2A23404  29.940  40.773   8.253
 6660POPC   C3A23405  29.961  40.777   7.953
 6660POPC   C4A23406  29.946  40.789   7.653
 6660POPC   C1B23407  29.915  40.515   8.553
 6660POPC   C2B23408  29.964  40.521   8.253
 6660POPC   C3B23409  29.937  40.492   7.953
 6660POPC   C4B23410  29.905  40.490   7.653
 6661POPC   NC323411  14.445  26.846   9.453
 6661POPC   PO423412  14.405  26.861   9.153
 6661POPC   GL123413  14.400  26.845   8.853
 6661POPC   GL223414  14.503  26.736   8.853
 6661POPC   C1A23415  14.446  26.860   8.553
 6661POPC   D2A23416  14.377  26.798   8.253
 6661POPC   C3A23417  14.453  26.815   7.953
 6661POPC   C4A23418  14.407  26.821   7.653
 6661POPC   C1B23419  14.517  26.614   8.553
 6661POPC   C2B23420  14.553  26.612   8.253
 6661POPC   C3B23421  14.550  26.561   7.953
 6661POPC   C4B23422  14.578  26.648   7.653
 6662POPC   NC323423  44.644  17.553   9.453
 6662POPC   PO423424  44.676  17.460   9.153
 6662POPC   GL123425  44.657  17.482   8.853
 6662POPC   GL223426  44.714  17.616   8.853
 6662POPC   C1A23427  44.641  17.554   8.553
 6662POPC   D2A23428  44.640  17.529   8.253
 6662POPC   C3A23429  44.707  17.498   7.953
 6662POPC   C4A23430  44.679  17.511   7.653
 6662POPC   C1B23431  44.738  17.789   8.553
 6662POPC   C2B23432  44.665  17.803   8.253
 6662POPC   C3B23433  44.746  17.727   7.953
 6662POPC   C4B23434  44.753  17.745   7.653
 6663POPC   NC323435  12.888  34.567   9.453
 6663POPC   PO423436  12.868  34.604   9.153
 6663POPC   GL123437  12.894  34.610   8.853
 6663POPC   GL223438  12.778  34.498   8.853
 6663POPC   C1A23439  12.852  34.588   8.553
 6663POPC   D2A23440  12.840  34.581   8.253
 6663POPC   C3A23441  12.850  34.546   7.953
 6663POPC   C4A23442  12.823  34.595   7.653
 6663POPC   C1B23443  12.752  34.303   8.553
 6663POPC   C2B23444  12.772  34.334   8.253
 6663POPC   C3B23445  12.732  34.327   7.953
 6663POPC   C4B23446  12.797  34.359   7.653
 6664POPC   NC323447   5.911  43.860   9.453
 6664POPC   PO423448   5.880  43.922   9.153
 6664POPC   GL123449   5.915  43.862   8.853
 6664POPC   GL223450   5.827  43.831   8.853
 6664POPC   C1A23451   5.868  43.887   8.553
 6664POPC   D2A23452   5.837  43.890   8.253
 6664POPC   C3A23453   5.824  43.857   7.953
 6664POPC   C4A23454   5.893  43.870   7.653
 6664POPC   C1B23455   5.737  43.718   8.553
 6664POPC   C2B23456   5.750  43.684   8.253
 6664POPC   C3B23457   5.706  43.647   7.953
 6664POPC   C4B23458   5.704  43.698   7.653
 6665POPC   NC323459  22.953  36.164   9.453
 6665POPC   PO423460  22.959  36.152   9.153
 6665POPC   GL123461  22.968  36.078   8.853
 6665POPC   GL223462  23.066  36.152   8.853
 6665POPC   C1A23463  22.929  36.141   8.553
 6665POPC   D2A23464  22.899  36.174   8.253
 6665POPC   C3A23465  22.894  36.139   7.953
 6665POPC   C4A23466  22.914  36.093   7.653
 6665POPC   C1B23467  23.191  36.273   8.553
 6665POPC   C2B23468  23.164  36.277   8.253
 6665POPC   C3B23469  23.165  36.253   7.953
 6665POPC   C4B23470  23.189  36.218   7.653
 6666POPC   NC323471  43.855  27.546   9.453
 6666POPC   PO423472  43.920  27.567   9.153
 6666POPC   GL123473  43.837  27.641   8.853
 6666POPC   GL223474  43.961  27.543   8.853
 6666POPC   C1A23475  43.920  27.613   8.553
 6666POPC   D2A23476  43.911  27.618   8.253
 6666POPC   C3A23477  43.898  27.610   7.953
 6666POPC   C4A23478  43.909  27.605   7.653
 6666POPC   C1B23479  44.067  27.437   8.553
 6666POPC   C2B23480  44.023  27.444   8.253
 6666POPC   C3B23481  44.054  27.371   7.953
 6666POPC   C4B23482  44.061  27.450   7.653
 6667POPC   NC323483  25.300  31.471   9.453
 6667POPC   PO423484  25.252  31.506   9.153
 6667POPC   GL123485  25.235  31.439   8.853
 6667POPC   GL223486  25.163  31.488   8.853
 6667POPC   C1A23487  25.294  31.450   8.553
 6667POPC   D2A23488  25.227  31.438   8.253
 6667POPC   C3A23489  25.250  31.493   7.953
 6667POPC   C4A23490  25.275  31.470   7.653
 6667POPC   C1B23491  25.041  31.488   8.553
 6667POPC   C2B23492  25.048  31.490   8.253
 6667POPC   C3B23493  24.990  31.570   7.953
 6667POPC   C4B23494  25.050  31.566   7.653
 6668POPC   NC323495   7.464  35.360   9.453
 6668POPC   PO423496   7.434  35.303   9.153
 6668POPC   GL123497   7.433  35.401   8.853
 6668POPC   GL223498   7.472  35.196   8.853
 6668POPC   C1A23499   7.456  35.394   8.553
 6668POPC   D2A23500   7.390  35.309   8.253
 6668POPC   C3A23501   7.397  35.318   7.953
 6668POPC   C4A23502   7.402  35.377   7.653
 6668POPC   C1B23503   7.448  35.106   8.553
 6668POPC   C2B23504   7.448  35.131   8.253
 6668POPC   C3B23505   7.454  35.070   7.953
 6668POPC   C4B23506   7.464  35.125   7.653
 6669POPC   NC323507  35.373  26.823   9.453
 6669POPC   PO423508  35.398  26.785   9.153
 6669POPC   GL123509  35.358  26.806   8.853
 6669POPC   GL223510  35.518  26.800   8.853
 6669POPC   C1A23511  35.335  26.788   8.553
 6669POPC   D2A23512  35.397  26.851   8.253
 6669POPC   C3A23513  35.338  26.815   7.953
 6669POPC   C4A23514  35.372  26.799   7.653
 6669POPC   C1B23515  35.586  26.723   8.553
 6669POPC   C2B23516  35.611  26.735   8.253
 6669POPC   C3B23517  35.615  26.737   7.953
 6669POPC   C4B23518  35.564  26.768   7.653
 6670POPC   NC323519  25.308  26.783   9.453
 6670POPC   PO423520  25.251  26.845   9.153
 6670POPC   GL123521  25.299  26.834   8.853
 6670POPC   GL223522  25.187  26.782   8.853
 6670POPC   C1A23523  25.278  26.844   8.553
 6670POPC   D2A23524  25.274  26.831   8.253
 6670POPC   C3A23525  25.288  26.802   7.953
 6670POPC   C4A23526  25.292  26.820   7.653
 6670POPC   C1B23527  25.090  26.719   8.553
 6670POPC   C2B23528  25.018  26.678   8.253
 6670POPC   C3B23529  25.054  26.722   7.953
 6670POPC   C4B23530  25.011  26.749   7.653
 6671POPC   NC323531   5.108  39.972   9.453
 6671POPC   PO423532   5.071  40.050   9.153
 6671POPC   GL123533   5.107  39.991   8.853
 6671POPC   GL223534   5.233  40.023   8.853
 6671POPC   C1A23535   5.070  40.035   8.553
 6671POPC   D2A23536   5.070  39.958   8.253
 6671POPC   C3A23537   5.094  40.001   7.953
 6671POPC   C4A23538   5.116  39.984   7.653
 6671POPC   C1B23539   5.327  40.138   8.553
 6671POPC   C2B23540   5.349  40.102   8.253
 6671POPC   C3B23541   5.270  40.085   7.953
 6671POPC   C4B23542   5.350  40.090   7.653
 6672POPC   NC323543   9.708   5.082   9.453
 6672POPC   PO423544   9.785   5.139   9.153
 6672POPC   GL123545   9.739   5.092   8.853
 6672POPC   GL223546   9.614   5.137   8.853
 6672POPC   C1A23547   9.755   5.111   8.553
 6672POPC   D2A23548   9.722   5.112   8.253
 6672POPC   C3A23549   9.726   5.049   7.953
 6672POPC   C4A23550   9.714   5.114   7.653
 6672POPC   C1B23551   9.553   5.196   8.553
 6672POPC   C2B23552   9.541   5.183   8.253
 6672POPC   C3B23553   9.557   5.251   7.953
 6672POPC   C4B23554   9.558   5.264   7.653
 6673POPC   NC323555   8.210  34.602   9.453
 6673POPC   PO423556   8.218  34.558   9.153
 6673POPC   GL123557   8.200  34.570   8.853
 6673POPC   GL223558   8.275  34.697   8.853
 6673POPC   C1A23559   8.178  34.600   8.553
 6673POPC   D2A23560   8.227  34.546   8.253
 6673POPC   C3A23561   8.235  34.533   7.953
 6673POPC   C4A23562   8.232  34.578   7.653
 6673POPC   C1B23563   8.353  34.803   8.553
 6673POPC   C2B23564   8.325  34.793   8.253
 6673POPC   C3B23565   8.321  34.742   7.953
 6673POPC   C4B23566   8.369  34.776   7.653
 6674POPC   NC323567   5.879  17.541   9.453
 6674POPC   PO423568   5.902  17.533   9.153
 6674POPC   GL123569   5.913  17.485   8.853
 6674POPC   GL223570   5.830  17.654   8.853
 6674POPC   C1A23571   5.854  17.507   8.553
 6674POPC   D2A23572   5.871  17.533   8.253
 6674POPC   C3A23573   5.894  17.472   7.953
 6674POPC   C4A23574   5.882  17.530   7.653
 6674POPC   C1B23575   5.761  17.714   8.553
 6674POPC   C2B23576   5.817  17.746   8.253
 6674POPC   C3B23577   5.755  17.719   7.953
 6674POPC   C4B23578   5.750  17.786   7.653
 6675POPC   NC323579  20.585  20.598   9.453
 6675POPC   PO423580  20.569  20.592   9.153
 6675POPC   GL123581  20.606  20.621   8.853
 6675POPC   GL223582  20.708  20.743   8.853
 6675POPC   C1A23583  20.601  20.644   8.553
 6675POPC   D2A23584  20.647  20.594   8.253
 6675POPC   C3A23585  20.646  20.573   7.953
 6675POPC   C4A23586  20.598  20.599   7.653
 6675POPC   C1B23587  20.758  20.817   8.553
 6675POPC   C2B23588  20.827  20.795   8.253
 6675POPC   C3B23589  20.795  20.783   7.953
 6675POPC   C4B23590  20.815  20.786   7.653
 6676POPC   NC323591  27.610  41.575   9.453
 6676POPC   PO423592  27.632  41.525   9.153
 6676POPC   GL123593  27.622  41.588   8.853
 6676POPC   GL223594  27.534  41.581   8.853
 6676POPC   C1A23595  27.579  41.550   8.553
 6676POPC   D2A23596  27.613  41.594   8.253
 6676POPC   C3A23597  27.604  41.530   7.953
 6676POPC   C4A23598  27.626  41.511   7.653
 6676POPC   C1B23599  27.384  41.689   8.553
 6676POPC   C2B23600  27.420  41.706   8.253
 6676POPC   C3B23601  27.359  41.725   7.953
 6676POPC   C4B23602  27.370  41.658   7.653
 6677POPC   NC323603   2.759  31.440   9.453
 6677POPC   PO423604   2.717  31.462   9.153
 6677POPC   GL123605   2.774  31.453   8.853
 6677POPC   GL223606   2.704  31.336   8.853
 6677POPC   C1A23607   2.725  31.432   8.553
 6677POPC   D2A23608   2.717  31.427   8.253
 6677POPC   C3A23609   2.752  31.428   7.953
 6677POPC   C4A23610   2.812  31.495   7.653
 6677POPC   C1B23611   2.649  31.211   8.553
 6677POPC   C2B23612   2.711  31.238   8.253
 6677POPC   C3B23613   2.681  31.256   7.953
 6677POPC   C4B23614   2.697  31.210   7.653
 6678POPC   NC323615  41.549  22.925   9.453
 6678POPC   PO423616  41.601  22.941   9.153
 6678POPC   GL123617  41.549  22.900   8.853
 6678POPC   GL223618  41.569  22.822   8.853
 6678POPC   C1A23619  41.567  22.944   8.553
 6678POPC   D2A23620  41.554  22.958   8.253
 6678POPC   C3A23621  41.598  22.981   7.953
 6678POPC   C4A23622  41.542  22.980   7.653
 6678POPC   C1B23623  41.652  22.719   8.553
 6678POPC   C2B23624  41.638  22.675   8.253
 6678POPC   C3B23625  41.595  22.703   7.953
 6678POPC   C4B23626  41.621  22.734   7.653
 6679POPC   NC323627   5.917  29.925   9.453
 6679POPC   PO423628   5.830  29.912   9.153
 6679POPC   GL123629   5.894  29.916   8.853
 6679POPC   GL223630   5.761  29.886   8.853
 6679POPC   C1A23631   5.882  29.914   8.553
 6679POPC   D2A23632   5.822  29.962   8.253
 6679POPC   C3A23633   5.890  29.943   7.953
 6679POPC   C4A23634   5.824  29.908   7.653
 6679POPC   C1B23635   5.590  29.866   8.553
 6679POPC   C2B23636   5.581  29.902   8.253
 6679POPC   C3B23637   5.582  29.910   7.953
 6679POPC   C4B23638   5.658  29.826   7.653
 6680POPC   NC323639   5.051  17.551   9.453
 6680POPC   PO423640   5.122  17.462   9.153
 6680POPC   GL123641   5.049  17.470   8.853
 6680POPC   GL223642   4.985  17.498   8.853
 6680POPC   C1A23643   5.065  17.486   8.553
 6680POPC   D2A23644   5.114  17.532   8.253
 6680POPC   C3A23645   5.096  17.543   7.953
 6680POPC   C4A23646   5.113  17.546   7.653
 6680POPC   C1B23647   4.859  17.398   8.553
 6680POPC   C2B23648   4.875  17.374   8.253
 6680POPC   C3B23649   4.845  17.438   7.953
 6680POPC   C4B23650   4.831  17.437   7.653
 6681POPC   NC323651  39.257  21.406   9.453
 6681POPC   PO423652  39.267  21.407   9.153
 6681POPC   GL123653  39.262  21.428   8.853
 6681POPC   GL223654  39.116  21.341   8.853
 6681POPC   C1A23655  39.187  21.401   8.553
 6681POPC   D2A23656  39.205  21.353   8.253
 6681POPC   C3A23657  39.239  21.412   7.953
 6681POPC   C4A23658  39.262  21.347   7.653
 6681POPC   C1B23659  38.979  21.313   8.553
 6681POPC   C2B23660  39.001  21.268   8.253
 6681POPC   C3B23661  38.986  21.272   7.953
 6681POPC   C4B23662  38.948  21.309   7.653
 6682POPC   NC323663  41.528  33.831   9.453
 6682POPC   PO423664  41.546  33.788   9.153
 6682POPC   GL123665  41.554  33.797   8.853
 6682POPC   GL223666  41.626  33.918   8.853
 6682POPC   C1A23667  41.509  33.832   8.553
 6682POPC   D2A23668  41.514  33.760   8.253
 6682POPC   C3A23669  41.539  33.772   7.953
 6682POPC   C4A23670  41.605  33.833   7.653
 6682POPC   C1B23671  41.664  33.981   8.553
 6682POPC   C2B23672  41.715  34.028   8.253
 6682POPC   C3B23673  41.733  34.010   7.953
 6682POPC   C4B23674  41.742  34.017   7.653
 6683POPC   NC323675   5.116   5.051   9.453
 6683POPC   PO423676   5.134   5.091   9.153
 6683POPC   GL123677   5.104   5.085   8.853
 6683POPC   GL223678   4.997   5.250   8.853
 6683POPC   C1A23679   5.133   5.137   8.553
 6683POPC   D2A23680   5.118   5.047   8.253
 6683POPC   C3A23681   5.099   5.056   7.953
 6683POPC   C4A23682   5.117   5.044   7.653
 6683POPC   C1B23683   5.006   5.323   8.553
 6683POPC   C2B23684   4.932   5.294   8.253
 6683POPC   C3B23685   4.988   5.291   7.953
 6683POPC   C4B23686   4.942   5.321   7.653
 6684POPC   NC323687  37.688  26.014   9.453
 6684POPC   PO423688  37.639  26.008   9.153
 6684POPC   GL123689  37.687  26.036   8.853
 6684POPC   GL223690  37.529  26.083   8.853
 6684POPC   C1A23691  37.700  26.001   8.553
 6684POPC   D2A23692  37.699  26.034   8.253
 6684POPC   C3A23693  37.723  26.032   7.953
 6684POPC   C4A23694  37.631  26.053   7.653
 6684POPC   C1B23695  37.467  26.152   8.553
 6684POPC   C2B23696  37.433  26.105   8.253
 6684POPC   C3B23697  37.414  26.144   7.953
 6684POPC   C4B23698  37.469  26.118   7.653
 6685POPC   NC323699  26.857  29.903   9.453
 6685POPC   PO423700  26.792  29.940   9.153
 6685POPC   GL123701  26.780  29.963   8.853
 6685POPC   GL223702  26.658  29.960   8.853
 6685POPC   C1A23703  26.817  29.902   8.553
 6685POPC   D2A23704  26.774  29.960   8.253
 6685POPC   C3A23705  26.770  29.915   7.953
 6685POPC   C4A23706  26.787  29.888   7.653
 6685POPC   C1B23707  26.598  29.989   8.553
 6685POPC   C2B23708  26.598  30.014   8.253
 6685POPC   C3B23709  26.566  30.032   7.953
 6685POPC   C4B23710  26.558  30.021   7.653
 6686POPC   NC323711  18.286  30.698   9.453
 6686POPC   PO423712  18.265  30.734   9.153
 6686POPC   GL123713  18.248  30.724   8.853
 6686POPC   GL223714  18.232  30.543   8.853
 6686POPC   C1A23715  18.287  30.742   8.553
 6686POPC   D2A23716  18.321  30.744   8.253
 6686POPC   C3A23717  18.317  30.665   7.953
 6686POPC   C4A23718  18.244  30.719   7.653
 6686POPC   C1B23719  18.271  30.415   8.553
 6686POPC   C2B23720  18.323  30.464   8.253
 6686POPC   C3B23721  18.280  30.490   7.953
 6686POPC   C4B23722  18.320  30.466   7.653
 6687POPC   NC323723  41.548  11.255   9.453
 6687POPC   PO423724  41.591  11.330   9.153
 6687POPC   GL123725  41.601  11.332   8.853
 6687POPC   GL223726  41.674  11.322   8.853
 6687POPC   C1A23727  41.588  11.325   8.553
 6687POPC   D2A23728  41.535  11.252   8.253
 6687POPC   C3A23729  41.562  11.308   7.953
 6687POPC   C4A23730  41.608  11.293   7.653
 6687POPC   C1B23731  41.751  11.432   8.553
 6687POPC   C2B23732  41.827  11.392   8.253
 6687POPC   C3B23733  41.751  11.355   7.953
 6687POPC   C4B23734  41.783  11.416   7.653
 6688POPC   NC323735  38.487   7.420   9.453
 6688POPC   PO423736  38.500   7.447   9.153
 6688POPC   GL123737  38.454   7.460   8.853
 6688POPC   GL223738  38.356   7.418   8.853
 6688POPC   C1A23739  38.453   7.395   8.553
 6688POPC   D2A23740  38.445   7.457   8.253
 6688POPC   C3A23741  38.495   7.423   7.953
 6688POPC   C4A23742  38.445   7.445   7.653
 6688POPC   C1B23743  38.272   7.288   8.553
 6688POPC   C2B23744  38.243   7.330   8.253
 6688POPC   C3B23745  38.274   7.288   7.953
 6688POPC   C4B23746  38.232   7.283   7.653
 6689POPC   NC323747   2.762  29.966   9.453
 6689POPC   PO423748   2.775  29.944   9.153
 6689POPC   GL123749   2.718  29.949   8.853
 6689POPC   GL223750   2.735  29.768   8.853
 6689POPC   C1A23751   2.797  29.895   8.553
 6689POPC   D2A23752   2.803  29.879   8.253
 6689POPC   C3A23753   2.766  29.968   7.953
 6689POPC   C4A23754   2.746  29.946   7.653
 6689POPC   C1B23755   2.790  29.716   8.553
 6689POPC   C2B23756   2.768  29.708   8.253
 6689POPC   C3B23757   2.796  29.678   7.953
 6689POPC   C4B23758   2.751  29.690   7.653
 6690POPC   NC323759  23.737   4.350   9.453
 6690POPC   PO423760  23.761   4.281   9.153
 6690POPC   GL123761  23.733   4.314   8.853
 6690POPC   GL223762  23.837   4.381   8.853
 6690POPC   C1A23763  23.707   4.281   8.553
 6690POPC   D2A23764  23.728   4.328   8.253
 6690POPC   C3A23765  23.694   4.279   7.953
 6690POPC   C4A23766  23.675   4.301   7.653
 6690POPC   C1B23767  23.984   4.392   8.553
 6690POPC   C2B23768  23.953   4.384   8.253
 6690POPC   C3B23769  23.898   4.398   7.953
 6690POPC   C4B23770  23.982   4.364   7.653
 6691POPC   NC323771  36.110  32.258   9.453
 6691POPC   PO423772  36.093  32.284   9.153
 6691POPC   GL123773  36.110  32.276   8.853
 6691POPC   GL223774  36.072  32.404   8.853
 6691POPC   C1A23775  36.124  32.219   8.553
 6691POPC   D2A23776  36.144  32.228   8.253
 6691POPC   C3A23777  36.095  32.259   7.953
 6691POPC   C4A23778  36.111  32.228   7.653
 6691POPC   C1B23779  36.043  32.443   8.553
 6691POPC   C2B23780  36.089  32.451   8.253
 6691POPC   C3B23781  36.096  32.508   7.953
 6691POPC   C4B23782  36.003  32.525   7.653
 6692POPC   NC323783  19.833  24.493   9.453
 6692POPC   PO423784  19.855  24.460   9.153
 6692POPC   GL123785  19.878  24.521   8.853
 6692POPC   GL223786  19.841  24.413   8.853
 6692POPC   C1A23787  19.859  24.536   8.553
 6692POPC   D2A23788  19.836  24.538   8.253
 6692POPC   C3A23789  19.881  24.456   7.953
 6692POPC   C4A23790  19.803  24.522   7.653
 6692POPC   C1B23791  19.799  24.264   8.553
 6692POPC   C2B23792  19.726  24.259   8.253
 6692POPC   C3B23793  19.723  24.247   7.953
 6692POPC   C4B23794  19.777  24.216   7.653
 6693POPC   NC323795   8.194   5.070   9.453
 6693POPC   PO423796   8.153   5.078   9.153
 6693POPC   GL123797   8.214   5.138   8.853
 6693POPC   GL223798   8.157   4.959   8.853
 6693POPC   C1A23799   8.219   5.107   8.553
 6693POPC   D2A23800   8.218   5.083   8.253
 6693POPC   C3A23801   8.233   5.134   7.953
 6693POPC   C4A23802   8.222   5.048   7.653
 6693POPC   C1B23803   8.181   4.884   8.553
 6693POPC   C2B23804   8.193   4.839   8.253
 6693POPC   C3B23805   8.144   4.886   7.953
 6693POPC   C4B23806   8.113   4.887   7.653
 6694POPC   NC323807  43.063   1.981   9.453
 6694POPC   PO423808  43.071   1.979   9.153
 6694POPC   GL123809  43.114   1.980   8.853
 6694POPC   GL223810  43.240   1.889   8.853
 6694POPC   C1A23811  43.144   1.991   8.553
 6694POPC   D2A23812  43.093   2.006   8.253
 6694POPC   C3A23813  43.082   1.960   7.953
 6694POPC   C4A23814  43.109   2.005   7.653
 6694POPC   C1B23815  43.343   1.841   8.553
 6694POPC   C2B23816  43.337   1.890   8.253
 6694POPC   C3B23817  43.300   1.851   7.953
 6694POPC   C4B23818  43.317   1.840   7.653
 6695POPC   NC323819  15.949  37.690   9.453
 6695POPC   PO423820  15.983  37.718   9.153
 6695POPC   GL123821  15.925  37.638   8.853
 6695POPC   GL223822  15.864  37.687   8.853
 6695POPC   C1A23823  15.946  37.729   8.553
 6695POPC   D2A23824  15.906  37.670   8.253
 6695POPC   C3A23825  15.928  37.633   7.953
 6695POPC   C4A23826  15.984  37.662   7.653
 6695POPC   C1B23827  15.717  37.689   8.553
 6695POPC   C2B23828  15.662  37.681   8.253
 6695POPC   C3B23829  15.704  37.627   7.953
 6695POPC   C4B23830  15.686  37.691   7.653
 6696POPC   NC323831  29.100  28.373   9.453
 6696POPC   PO423832  29.101  28.374   9.153
 6696POPC   GL123833  29.143  28.410   8.853
 6696POPC   GL223834  29.153  28.209   8.853
 6696POPC   C1A23835  29.140  28.415   8.553
 6696POPC   D2A23836  29.143  28.346   8.253
 6696POPC   C3A23837  29.176  28.389   7.953
 6696POPC   C4A23838  29.161  28.324   7.653
 6696POPC   C1B23839  29.145  28.147   8.553
 6696POPC   C2B23840  29.203  28.162   8.253
 6696POPC   C3B23841  29.210  28.160   7.953
 6696POPC   C4B23842  29.190  28.108   7.653
 6697POPC   NC323843  26.072  43.851   9.453
 6697POPC   PO423844  25.996  43.876   9.153
 6697POPC   GL123845  26.012  43.895   8.853
 6697POPC   GL223846  26.064  43.764   8.853
 6697POPC   C1A23847  26.031  43.927   8.553
 6697POPC   D2A23848  25.993  43.896   8.253
 6697POPC   C3A23849  26.036  43.846   7.953
 6697POPC   C4A23850  26.005  43.909   7.653
 6697POPC   C1B23851  26.139  43.641   8.553
 6697POPC   C2B23852  26.068  43.663   8.253
 6697POPC   C3B23853  26.072  43.644   7.953
 6697POPC   C4B23854  26.148  43.621   7.653
 6698POPC   NC323855  19.831  17.532   9.453
 6698POPC   PO423856  19.866  17.501   9.153
 6698POPC   GL123857  19.855  17.493   8.853
 6698POPC   GL223858  19.828  17.664   8.853
 6698POPC   C1A23859  19.836  17.460   8.553
 6698POPC   D2A23860  19.791  17.527   8.253
 6698POPC   C3A23861  19.836  17.532   7.953
 6698POPC   C4A23862  19.839  17.493   7.653
 6698POPC   C1B23863  19.841  17.708   8.553
 6698POPC   C2B23864  19.788  17.773   8.253
 6698POPC   C3B23865  19.769  17.712   7.953
 6698POPC   C4B23866  19.790  17.790   7.653
 6699POPC   NC323867  38.478   0.410   9.453
 6699POPC   PO423868  38.497   0.455   9.153
 6699POPC   GL123869  38.467   0.430   8.853
 6699POPC   GL223870  38.534   0.429   8.853
 6699POPC   C1A23871  38.409   0.420   8.553
 6699POPC   D2A23872  38.435   0.449   8.253
 6699POPC   C3A23873  38.416   0.424   7.953
 6699POPC   C4A23874  38.432   0.397   7.653
 6699POPC   C1B23875  38.701   0.352   8.553
 6699POPC   C2B23876  38.707   0.367   8.253
 6699POPC   C3B23877  38.645   0.331   7.953
 6699POPC   C4B23878  38.688   0.296   7.653
 6700POPC   NC323879  44.621   9.742   9.453
 6700POPC   PO423880  44.692   9.704   9.153
 6700POPC   GL123881  44.710   9.699   8.853
 6700POPC   GL223882  44.771   9.662   8.853
 6700POPC   C1A23883  44.659   9.797   8.553
 6700POPC   D2A23884  44.686   9.782   8.253
 6700POPC   C3A23885  44.702   9.763   7.953
 6700POPC   C4A23886  44.660   9.752   7.653
 6700POPC   C1B23887  44.898   9.700   8.553
 6700POPC   C2B23888  44.863   9.618   8.253
 6700POPC   C3B23889  44.872   9.701   7.953
 6700POPC   C4B23890  44.879   9.640   7.653
 6701POPC   NC323891  19.084   8.148   9.453
 6701POPC   PO423892  19.069   8.226   9.153
 6701POPC   GL123893  19.060   8.150   8.853
 6701POPC   GL223894  18.939   8.245   8.853
 6701POPC   C1A23895  19.034   8.187   8.553
 6701POPC   D2A23896  19.044   8.198   8.253
 6701POPC   C3A23897  19.010   8.222   7.953
 6701POPC   C4A23898  19.030   8.227   7.653
 6701POPC   C1B23899  18.858   8.289   8.553
 6701POPC   C2B23900  18.854   8.296   8.253
 6701POPC   C3B23901  18.845   8.348   7.953
 6701POPC   C4B23902  18.807   8.348   7.653
 6702POPC   NC323903  33.836  14.423   9.453
 6702POPC   PO423904  33.795  14.419   9.153
 6702POPC   GL123905  33.828  14.362   8.853
 6702POPC   GL223906  33.839  14.566   8.853
 6702POPC   C1A23907  33.845  14.414   8.553
 6702POPC   D2A23908  33.825  14.363   8.253
 6702POPC   C3A23909  33.824  14.372   7.953
 6702POPC   C4A23910  33.800  14.421   7.653
 6702POPC   C1B23911  33.779  14.642   8.553
 6702POPC   C2B23912  33.766  14.643   8.253
 6702POPC   C3B23913  33.784  14.625   7.953
 6702POPC   C4B23914  33.778  14.640   7.653
 6703POPC   NC323915   5.870  15.137   9.453
 6703POPC   PO423916   5.876  15.207   9.153
 6703POPC   GL123917   5.859  15.170   8.853
 6703POPC   GL223918   5.979  15.187   8.853
 6703POPC   C1A23919   5.904  15.158   8.553
 6703POPC   D2A23920   5.878  15.210   8.253
 6703POPC   C3A23921   5.917  15.156   7.953
 6703POPC   C4A23922   5.861  15.185   7.653
 6703POPC   C1B23923   6.122  15.291   8.553
 6703POPC   C2B23924   6.052  15.251   8.253
 6703POPC   C3B23925   6.088  15.243   7.953
 6703POPC   C4B23926   6.138  15.321   7.653
 6704POPC   NC323927  28.407   9.751   9.453
 6704POPC   PO423928  28.410   9.787   9.153
 6704POPC   GL123929  28.366   9.769   8.853
 6704POPC   GL223930  28.253   9.741   8.853
 6704POPC   C1A23931  28.320   9.790   8.553
 6704POPC   D2A23932  28.330   9.742   8.253
 6704POPC   C3A23933  28.321   9.746   7.953
 6704POPC   C4A23934  28.402   9.747   7.653
 6704POPC   C1B23935  28.151   9.710   8.553
 6704POPC   C2B23936  28.097   9.753   8.253
 6704POPC   C3B23937  28.080   9.701   7.953
 6704POPC   C4B23938  28.140   9.740   7.653
 6705POPC   NC323939  17.465  16.730   9.453
 6705POPC   PO423940  17.463  16.736   9.153
 6705POPC   GL123941  17.540  16.754   8.853
 6705POPC   GL223942  17.638  16.827   8.853
 6705POPC   C1A23943  17.515  16.760   8.553
 6705POPC   D2A23944  17.520  16.780   8.253
 6705POPC   C3A23945  17.489  16.730   7.953
 6705POPC   C4A23946  17.464  16.755   7.653
 6705POPC   C1B23947  17.676  16.902   8.553
 6705POPC   C2B23948  17.689  16.845   8.253
 6705POPC   C3B23949  17.763  16.878   7.953
 6705POPC   C4B23950  17.712  16.826   7.653
 6706POPC   NC323951  42.332  12.835   9.453
 6706POPC   PO423952  42.295  12.804   9.153
 6706POPC   GL123953  42.309  12.876   8.853
 6706POPC   GL223954  42.424  12.823   8.853
 6706POPC   C1A23955  42.383  12.876   8.553
 6706POPC   D2A23956  42.362  12.897   8.253
 6706POPC   C3A23957  42.382  12.877   7.953
 6706POPC   C4A23958  42.310  12.844   7.653
 6706POPC   C1B23959  42.585  12.885   8.553
 6706POPC   C2B23960  42.562  12.883   8.253
 6706POPC   C3B23961  42.601  12.910   7.953
 6706POPC   C4B23962  42.624  12.910   7.653
 6707POPC   NC323963  19.843  15.968   9.453
 6707POPC   PO423964  19.860  15.992   9.153
 6707POPC   GL123965  19.854  15.917   8.853
 6707POPC   GL223966  19.901  15.858   8.853
 6707POPC   C1A23967  19.871  15.963   8.553
 6707POPC   D2A23968  19.807  15.986   8.253
 6707POPC   C3A23969  19.869  15.965   7.953
 6707POPC   C4A23970  19.784  15.933   7.653
 6707POPC   C1B23971  19.951  15.690   8.553
 6707POPC   C2B23972  19.885  15.730   8.253
 6707POPC   C3B23973  19.886  15.761   7.953
 6707POPC   C4B23974  19.962  15.678   7.653
 6708POPC   NC323975  22.134   0.425   9.453
 6708POPC   PO423976  22.200   0.441   9.153
 6708POPC   GL123977  22.172   0.396   8.853
 6708POPC   GL223978  22.089   0.281   8.853
 6708POPC   C1A23979  22.133   0.456   8.553
 6708POPC   D2A23980  22.154   0.389   8.253
 6708POPC   C3A23981  22.128   0.442   7.953
 6708POPC   C4A23982  22.180   0.462   7.653
 6708POPC   C1B23983  22.105   0.191   8.553
 6708POPC   C2B23984  22.057   0.253   8.253
 6708POPC   C3B23985  22.036   0.177   7.953
 6708POPC   C4B23986  22.082   0.193   7.653
 6709POPC   NC323987   4.359  28.394   9.453
 6709POPC   PO423988   4.331  28.356   9.153
 6709POPC   GL123989   4.347  28.336   8.853
 6709POPC   GL223990   4.412  28.335   8.853
 6709POPC   C1A23991   4.334  28.402   8.553
 6709POPC   D2A23992   4.325  28.404   8.253
 6709POPC   C3A23993   4.311  28.361   7.953
 6709POPC   C4A23994   4.329  28.411   7.653
 6709POPC   C1B23995   4.572  28.302   8.553
 6709POPC   C2B23996   4.569  28.363   8.253
 6709POPC   C3B23997   4.594  28.339   7.953
 6709POPC   C4B23998   4.546  28.288   7.653
 6710POPC   NC323999   1.257  33.021   9.453
 6710POPC   PO424000   1.197  33.057   9.153
 6710POPC   GL124001   1.196  33.074   8.853
 6710POPC   GL224002   1.317  32.995   8.853
 6710POPC   C1A24003   1.254  32.995   8.553
 6710POPC   D2A24004   1.209  33.025   8.253
 6710POPC   C3A24005   1.189  33.046   7.953
 6710POPC   C4A24006   1.247  33.011   7.653
 6710POPC   C1B24007   1.484  32.980   8.553
 6710POPC   C2B24008   1.444  32.991   8.253
 6710POPC   C3B24009   1.434  33.026   7.953
 6710POPC   C4B24010   1.438  33.010   7.653
 6711POPC   NC324011  10.518  27.631   9.453
 6711POPC   PO424012  10.534  27.617   9.153
 6711POPC   GL124013  10.480  27.573   8.853
 6711POPC   GL224014  10.562  27.483   8.853
 6711POPC   C1A24015  10.480  27.578   8.553
 6711POPC   D2A24016  10.519  27.606   8.253
 6711POPC   C3A24017  10.504  27.587   7.953
 6711POPC   C4A24018  10.521  27.556   7.653
 6711POPC   C1B24019  10.655  27.381   8.553
 6711POPC   C2B24020  10.688  27.411   8.253
 6711POPC   C3B24021  10.738  27.442   7.953
 6711POPC   C4B24022  10.730  27.440   7.653
 6712POPC   NC324023  19.862  44.675   9.453
 6712POPC   PO424024  19.803  44.632   9.153
 6712POPC   GL124025  19.818  44.704   8.853
 6712POPC   GL224026  19.920  44.759   8.853
 6712POPC   C1A24027  19.856  44.658   8.553
 6712POPC   D2A24028  19.817  44.712   8.253
 6712POPC   C3A24029  19.853  44.639   7.953
 6712POPC   C4A24030  19.790  44.710   7.653
 6712POPC   C1B24031  19.888  44.905   8.553
 6712POPC   C2B24032  19.965  44.909   8.253
 6712POPC   C3B24033  19.899  44.899   7.953
 6712POPC   C4B24034  19.895  44.920   7.653
 6713POPC   NC324035  37.716  12.839   9.453
 6713POPC   PO424036  37.630  12.817   9.153
 6713POPC   GL124037  37.648  12.866   8.853
 6713POPC   GL224038  37.744  12.735   8.853
 6713POPC   C1A24039  37.687  12.847   8.553
 6713POPC   D2A24040  37.662  12.894   8.253
 6713POPC   C3A24041  37.661  12.849   7.953
 6713POPC   C4A24042  37.692  12.846   7.653
 6713POPC   C1B24043  37.731  12.565   8.553
 6713POPC   C2B24044  37.719  12.571   8.253
 6713POPC   C3B24045  37.779  12.620   7.953
 6713POPC   C4B24046  37.707  12.649   7.653
 6714POPC   NC324047  31.500   4.319   9.453
 6714POPC   PO424048  31.516   4.336   9.153
 6714POPC   GL124049  31.502   4.279   8.853
 6714POPC   GL224050  31.351   4.246   8.853
 6714POPC   C1A24051  31.483   4.336   8.553
 6714POPC   D2A24052  31.472   4.361   8.253
 6714POPC   C3A24053  31.502   4.290   7.953
 6714POPC   C4A24054  31.476   4.337   7.653
 6714POPC   C1B24055  31.293   4.241   8.553
 6714POPC   C2B24056  31.279   4.233   8.253
 6714POPC   C3B24057  31.200   4.255   7.953
 6714POPC   C4B24058  31.272   4.228   7.653
 6715POPC   NC324059  40.775  19.797   9.453
 6715POPC   PO424060  40.739  19.788   9.153
 6715POPC   GL124061  40.828  19.821   8.853
 6715POPC   GL224062  40.697  19.931   8.853
 6715POPC   C1A24063  40.827  19.800   8.553
 6715POPC   D2A24064  40.765  19.867   8.253
 6715POPC   C3A24065  40.826  19.788   7.953
 6715POPC   C4A24066  40.828  19.824   7.653
 6715POPC   C1B24067  40.576  19.962   8.553
 6715POPC   C2B24068  40.555  19.992   8.253
 6715POPC   C3B24069  40.601  20.000   7.953
 6715POPC   C4B24070  40.553  19.992   7.653
 6716POPC   NC324071  36.937  21.405   9.453
 6716POPC   PO424072  36.889  21.355   9.153
 6716POPC   GL124073  36.898  21.347   8.853
 6716POPC   GL224074  37.050  21.430   8.853
 6716POPC   C1A24075  36.888  21.366   8.553
 6716POPC   D2A24076  36.943  21.419   8.253
 6716POPC   C3A24077  36.933  21.368   7.953
 6716POPC   C4A24078  36.877  21.343   7.653
 6716POPC   C1B24079  37.111  21.532   8.553
 6716POPC   C2B24080  37.160  21.447   8.253
 6716POPC   C3B24081  37.182  21.454   7.953
 6716POPC   C4B24082  37.110  21.505   7.653
 6717POPC   NC324083  31.469  40.031   9.453
 6717POPC   PO424084  31.500  40.048   9.153
 6717POPC   GL124085  31.450  39.962   8.853
 6717POPC   GL224086  31.489  40.143   8.853
 6717POPC   C1A24087  31.496  40.021   8.553
 6717POPC   D2A24088  31.435  39.963   8.253
 6717POPC   C3A24089  31.437  39.969   7.953
 6717POPC   C4A24090  31.473  40.046   7.653
 6717POPC   C1B24091  31.430  40.251   8.553
 6717POPC   C2B24092  31.467  40.241   8.253
 6717POPC   C3B24093  31.491  40.229   7.953
 6717POPC   C4B24094  31.443  40.215   7.653
 6718POPC   NC324095  12.117  43.857   9.453
 6718POPC   PO424096  12.105  43.846   9.153
 6718POPC   GL124097  12.084  43.869   8.853
 6718POPC   GL224098  12.218  43.936   8.853
 6718POPC   C1A24099  12.064  43.914   8.553
 6718POPC   D2A24100  12.093  43.896   8.253
 6718POPC   C3A24101  12.071  43.903   7.953
 6718POPC   C4A24102  12.056  43.856   7.653
 6718POPC   C1B24103  12.296  43.950   8.553
 6718POPC   C2B24104  12.316  44.040   8.253
 6718POPC   C3B24105  12.338  44.024   7.953
 6718POPC   C4B24106  12.252  44.041   7.653
 6719POPC   NC324107  44.613  21.400   9.453
 6719POPC   PO424108  44.616  21.379   9.153
 6719POPC   GL124109  44.613  21.380   8.853
 6719POPC   GL224110  44.762  21.299   8.853
 6719POPC   C1A24111  44.666  21.387   8.553
 6719POPC   D2A24112  44.700  21.389   8.253
 6719POPC   C3A24113  44.619  21.381   7.953
 6719POPC   C4A24114  44.680  21.386   7.653
 6719POPC   C1B24115  44.810  21.195   8.553
 6719POPC   C2B24116  44.870  21.204   8.253
 6719POPC   C3B24117  44.795  21.241   7.953
 6719POPC   C4B24118  44.811  21.149   7.653
 6720POPC   NC324119  25.233   4.348   9.453
 6720POPC   PO424120  25.268   4.352   9.153
 6720POPC   GL124121  25.224   4.291   8.853
 6720POPC   GL224122  25.291   4.155   8.853
 6720POPC   C1A24123  25.282   4.319   8.553
 6720POPC   D2A24124  25.259   4.303   8.253
 6720POPC   C3A24125  25.267   4.284   7.953
 6720POPC   C4A24126  25.255   4.356   7.653
 6720POPC   C1B24127  25.273   4.021   8.553
 6720POPC   C2B24128  25.273   4.039   8.253
 6720POPC   C3B24129  25.261   4.082   7.953
 6720POPC   C4B24130  25.203   4.117   7.653
 6721POPC   NC324131  34.597  31.449   9.453
 6721POPC   PO424132  34.602  31.487   9.153
 6721POPC   GL124133  34.539  31.493   8.853
 6721POPC   GL224134  34.560  31.622   8.853
 6721POPC   C1A24135  34.532  31.471   8.553
 6721POPC   D2A24136  34.607  31.520   8.253
 6721POPC   C3A24137  34.537  31.427   7.953
 6721POPC   C4A24138  34.564  31.453   7.653
 6721POPC   C1B24139  34.625  31.695   8.553
 6721POPC   C2B24140  34.603  31.755   8.253
 6721POPC   C3B24141  34.639  31.715   7.953
 6721POPC   C4B24142  34.637  31.754   7.653
 6722POPC   NC324143   5.887   0.455   9.453
 6722POPC   PO424144   5.839   0.410   9.153
 6722POPC   GL124145   5.871   0.432   8.853
 6722POPC   GL224146   5.826   0.359   8.853
 6722POPC   C1A24147   5.832   0.409   8.553
 6722POPC   D2A24148   5.860   0.427   8.253
 6722POPC   C3A24149   5.909   0.468   7.953
 6722POPC   C4A24150   5.914   0.427   7.653
 6722POPC   C1B24151   5.842   0.217   8.553
 6722POPC   C2B24152   5.805   0.191   8.253
 6722POPC   C3B24153   5.781   0.178   7.953
 6722POPC   C4B24154   5.801   0.235   7.653
 6723POPC   NC324155  37.689  16.758   9.453
 6723POPC   PO424156  37.638  16.723   9.153
 6723POPC   GL124157  37.691  16.773   8.853
 6723POPC   GL224158  37.596  16.596   8.853
 6723POPC   C1A24159  37.707  16.741   8.553
 6723POPC   D2A24160  37.670  16.689   8.253
 6723POPC   C3A24161  37.694  16.715   7.953
 6723POPC   C4A24162  37.699  16.692   7.653
 6723POPC   C1B24163  37.496  16.528   8.553
 6723POPC   C2B24164  37.559  16.508   8.253
 6723POPC   C3B24165  37.547  16.548   7.953
 6723POPC   C4B24166  37.492  16.516   7.653
 6724POPC   NC324167  34.542  33.007   9.453
 6724POPC   PO424168  34.561  33.026   9.153
 6724POPC   GL124169  34.606  33.012   8.853
 6724POPC   GL224170  34.653  33.066   8.853
 6724POPC   C1A24171  34.556  32.985   8.553
 6724POPC   D2A24172  34.592  33.047   8.253
 6724POPC   C3A24173  34.547  33.033   7.953
 6724POPC   C4A24174  34.532  33.030   7.653
 6724POPC   C1B24175  34.818  33.067   8.553
 6724POPC   C2B24176  34.852  33.025   8.253
 6724POPC   C3B24177  34.830  33.061   7.953
 6724POPC   C4B24178  34.849  33.092   7.653
 6725POPC   NC324179  11.318  26.790   9.453
 6725POPC   PO424180  11.350  26.823   9.153
 6725POPC   GL124181  11.289  26.867   8.853
 6725POPC   GL224182  11.151  26.800   8.853
 6725POPC   C1A24183  11.341  26.779   8.553
 6725POPC   D2A24184  11.331  26.794   8.253
 6725POPC   C3A24185  11.299  26.844   7.953
 6725POPC   C4A24186  11.334  26.844   7.653
 6725POPC   C1B24187  11.062  26.819   8.553
 6725POPC   C2B24188  11.031  26.779   8.253
 6725POPC   C3B24189  11.101  26.812   7.953
 6725POPC   C4B24190  11.034  26.815   7.653
 6726POPC   NC324191   8.178   1.941   9.453
 6726POPC   PO424192   8.175   1.983   9.153
 6726POPC   GL124193   8.202   1.947   8.853
 6726POPC   GL224194   8.082   2.070   8.853
 6726POPC   C1A24195   8.216   1.949   8.553
 6726POPC   D2A24196   8.242   1.945   8.253
 6726POPC   C3A24197   8.163   1.983   7.953
 6726POPC   C4A24198   8.241   1.948   7.653
 6726POPC   C1B24199   8.077   2.161   8.553
 6726POPC   C2B24200   8.070   2.186   8.253
 6726POPC   C3B24201   8.070   2.251   7.953
 6726POPC   C4B24202   8.098   2.242   7.653
 6727POPC   NC324203  41.509  39.998   9.453
 6727POPC   PO424204  41.591  39.973   9.153
 6727POPC   GL124205  41.520  40.052   8.853
 6727POPC   GL224206  41.416  40.069   8.853
 6727POPC   C1A24207  41.582  40.035   8.553
 6727POPC   D2A24208  41.593  40.033   8.253
 6727POPC   C3A24209  41.585  40.016   7.953
 6727POPC   C4A24210  41.524  40.009   7.653
 6727POPC   C1B24211  41.317  40.062   8.553
 6727POPC   C2B24212  41.338  40.087   8.253
 6727POPC   C3B24213  41.317  40.012   7.953
 6727POPC   C4B24214  41.361  40.067   7.653
 6728POPC   NC324215  33.021  33.845   9.453
 6728POPC   PO424216  32.975  33.798   9.153
 6728POPC   GL124217  33.055  33.761   8.853
 6728POPC   GL224218  33.136  33.732   8.853
 6728POPC   C1A24219  33.028  33.818   8.553
 6728POPC   D2A24220  33.007  33.821   8.253
 6728POPC   C3A24221  33.019  33.780   7.953
 6728POPC   C4A24222  33.036  33.797   7.653
 6728POPC   C1B24223  33.153  33.658   8.553
 6728POPC   C2B24224  33.191  33.587   8.253
 6728POPC   C3B24225  33.171  33.644   7.953
 6728POPC   C4B24226  33.200  33.664   7.653
 6729POPC   NC324227   8.942  36.861   9.453
 6729POPC   PO424228   8.949  36.910   9.153
 6729POPC   GL124229   8.976  36.887   8.853
 6729POPC   GL224230   8.870  36.972   8.853
 6729POPC   C1A24231   8.985  36.940   8.553
 6729POPC   D2A24232   8.928  36.947   8.253
 6729POPC   C3A24233   8.957  36.860   7.953
 6729POPC   C4A24234   8.931  36.930   7.653
 6729POPC   C1B24235   8.786  36.996   8.553
 6729POPC   C2B24236   8.770  37.039   8.253
 6729POPC   C3B24237   8.769  36.978   7.953
 6729POPC   C4B24238   8.767  36.966   7.653
 6730POPC   NC324239  18.244  37.720   9.453
 6730POPC   PO424240  18.238  37.673   9.153
 6730POPC   GL124241  18.326  37.677   8.853
 6730POPC   GL224242  18.318  37.543   8.853
 6730POPC   C1A24243  18.326  37.645   8.553
 6730POPC   D2A24244  18.279  37.655   8.253
 6730POPC   C3A24245  18.263  37.673   7.953
 6730POPC   C4A24246  18.263  37.704   7.653
 6730POPC   C1B24247  18.372  37.475   8.553
 6730POPC   C2B24248  18.407  37.475   8.253
 6730POPC   C3B24249  18.346  37.419   7.953
 6730POPC   C4B24250  18.394  37.485   7.653
 6731POPC   NC324251  18.264  31.425   9.453
 6731POPC   PO424252  18.279  31.434   9.153
 6731POPC   GL124253  18.327  31.470   8.853
 6731POPC   GL224254  18.315  31.639   8.853
 6731POPC   C1A24255  18.298  31.489   8.553
 6731POPC   D2A24256  18.277  31.458   8.253
 6731POPC   C3A24257  18.320  31.428   7.953
 6731POPC   C4A24258  18.239  31.460   7.653
 6731POPC   C1B24259  18.325  31.696   8.553
 6731POPC   C2B24260  18.371  31.764   8.253
 6731POPC   C3B24261  18.357  31.767   7.953
 6731POPC   C4B24262  18.287  31.707   7.653
 6732POPC   NC324263   1.173  17.490   9.453
 6732POPC   PO424264   1.169  17.553   9.153
 6732POPC   GL124265   1.216  17.531   8.853
 6732POPC   GL224266   1.175  17.641   8.853
 6732POPC   C1A24267   1.250  17.516   8.553
 6732POPC   D2A24268   1.256  17.482   8.253
 6732POPC   C3A24269   1.246  17.523   7.953
 6732POPC   C4A24270   1.204  17.464   7.653
 6732POPC   C1B24271   1.232  17.711   8.553
 6732POPC   C2B24272   1.272  17.763   8.253
 6732POPC   C3B24273   1.215  17.752   7.953
 6732POPC   C4B24274   1.189  17.799   7.653
 6733POPC   NC324275   8.165   9.020   9.453
 6733POPC   PO424276   8.166   8.943   9.153
 6733POPC   GL124277   8.219   9.011   8.853
 6733POPC   GL224278   8.336   8.923   8.853
 6733POPC   C1A24279   8.149   8.985   8.553
 6733POPC   D2A24280   8.214   8.935   8.253
 6733POPC   C3A24281   8.219   9.022   7.953
 6733POPC   C4A24282   8.150   8.951   7.653
 6733POPC   C1B24283   8.411   8.910   8.553
 6733POPC   C2B24284   8.450   8.971   8.253
 6733POPC   C3B24285   8.479   8.939   7.953
 6733POPC   C4B24286   8.458   8.945   7.653
 6734POPC   NC324287   1.235   5.861   9.453
 6734POPC   PO424288   1.257   5.917   9.153
 6734POPC   GL124289   1.229   5.846   8.853
 6734POPC   GL224290   1.304   5.815   8.853
 6734POPC   C1A24291   1.200   5.850   8.553
 6734POPC   D2A24292   1.251   5.897   8.253
 6734POPC   C3A24293   1.213   5.888   7.953
 6734POPC   C4A24294   1.211   5.864   7.653
 6734POPC   C1B24295   1.377   5.696   8.553
 6734POPC   C2B24296   1.394   5.738   8.253
 6734POPC   C3B24297   1.388   5.687   7.953
 6734POPC   C4B24298   1.410   5.744   7.653
 6735POPC   NC324299  32.274  41.533   9.453
 6735POPC   PO424300  32.288  41.575   9.153
 6735POPC   GL124301  32.229  41.591   8.853
 6735POPC   GL224302  32.333  41.479   8.853
 6735POPC   C1A24303  32.252  41.580   8.553
 6735POPC   D2A24304  32.269  41.509   8.253
 6735POPC   C3A24305  32.245  41.557   7.953
 6735POPC   C4A24306  32.265  41.602   7.653
 6735POPC   C1B24307  32.438  41.321   8.553
 6735POPC   C2B24308  32.365  41.381   8.253
 6735POPC   C3B24309  32.405  41.400   7.953
 6735POPC   C4B24310  32.358  41.400   7.653
 6736POPC   NC324311  25.312  24.463   9.453
 6736POPC   PO424312  25.280  24.516   9.153
 6736POPC   GL124313  25.219  24.488   8.853
 6736POPC   GL224314  25.260  24.612   8.853
 6736POPC   C1A24315  25.232  24.488   8.553
 6736POPC   D2A24316  25.223  24.489   8.253
 6736POPC   C3A24317  25.304  24.510   7.953
 6736POPC   C4A24318  25.255  24.468   7.653
 6736POPC   C1B24319  25.247  24.743   8.553
 6736POPC   C2B24320  25.277  24.699   8.253
 6736POPC   C3B24321  25.224  24.695   7.953
 6736POPC   C4B24322  25.244  24.785   7.653
 6737POPC   NC324323  25.222  19.054   9.453
 6737POPC   PO424324  25.252  19.086   9.153
 6737POPC   GL124325  25.304  19.072   8.853
 6737POPC   GL224326  25.432  19.005   8.853
 6737POPC   C1A24327  25.289  19.024   8.553
 6737POPC   D2A24328  25.227  19.082   8.253
 6737POPC   C3A24329  25.288  19.024   7.953
 6737POPC   C4A24330  25.223  19.084   7.653
 6737POPC   C1B24331  25.500  18.984   8.553
 6737POPC   C2B24332  25.459  19.020   8.253
 6737POPC   C3B24333  25.473  18.936   7.953
 6737POPC   C4B24334  25.499  18.980   7.653
 6738POPC   NC324335  40.025  13.628   9.453
 6738POPC   PO424336  39.974  13.634   9.153
 6738POPC   GL124337  40.035  13.637   8.853
 6738POPC   GL224338  40.013  13.512   8.853
 6738POPC   C1A24339  40.052  13.666   8.553
 6738POPC   D2A24340  39.993  13.671   8.253
 6738POPC   C3A24341  39.961  13.594   7.953
 6738POPC   C4A24342  40.003  13.606   7.653
 6738POPC   C1B24343  39.950  13.394   8.553
 6738POPC   C2B24344  39.977  13.368   8.253
 6738POPC   C3B24345  39.913  13.350   7.953
 6738POPC   C4B24346  39.952  13.363   7.653
 6739POPC   NC324347  29.964  14.367   9.453
 6739POPC   PO424348  29.888  14.373   9.153
 6739POPC   GL124349  29.932  14.448   8.853
 6739POPC   GL224350  29.838  14.262   8.853
 6739POPC   C1A24351  29.919  14.448   8.553
 6739POPC   D2A24352  29.876  14.449   8.253
 6739POPC   C3A24353  29.940  14.363   7.953
 6739POPC   C4A24354  29.929  14.395   7.653
 6739POPC   C1B24355  29.728  14.177   8.553
 6739POPC   C2B24356  29.786  14.229   8.253
 6739POPC   C3B24357  29.769  14.185   7.953
 6739POPC   C4B24358  29.763  14.253   7.653
 6740POPC   NC324359  11.250  35.305   9.453
 6740POPC   PO424360  11.315  35.394   9.153
 6740POPC   GL124361  11.341  35.363   8.853
 6740POPC   GL224362  11.398  35.487   8.853
 6740POPC   C1A24363  11.328  35.322   8.553
 6740POPC   D2A24364  11.260  35.321   8.253
 6740POPC   C3A24365  11.276  35.326   7.953
 6740POPC   C4A24366  11.341  35.320   7.653
 6740POPC   C1B24367  11.471  35.530   8.553
 6740POPC   C2B24368  11.427  35.531   8.253
 6740POPC   C3B24369  11.465  35.529   7.953
 6740POPC   C4B24370  11.474  35.539   7.653
 6741POPC   NC324371  15.967  19.794   9.453
 6741POPC   PO424372  15.950  19.830   9.153
 6741POPC   GL124373  15.930  19.786   8.853
 6741POPC   GL224374  16.099  19.828   8.853
 6741POPC   C1A24375  15.924  19.877   8.553
 6741POPC   D2A24376  15.980  19.800   8.253
 6741POPC   C3A24377  15.980  19.842   7.953
 6741POPC   C4A24378  15.979  19.786   7.653
 6741POPC   C1B24379  16.245  19.869   8.553
 6741POPC   C2B24380  16.157  19.854   8.253
 6741POPC   C3B24381  16.240  19.823   7.953
 6741POPC   C4B24382  16.204  19.823   7.653
 6742POPC   NC324383  43.088  16.686   9.453
 6742POPC   PO424384  43.063  16.696   9.153
 6742POPC   GL124385  43.148  16.763   8.853
 6742POPC   GL224386  42.984  16.595   8.853
 6742POPC   C1A24387  43.102  16.752   8.553
 6742POPC   D2A24388  43.109  16.700   8.253
 6742POPC   C3A24389  43.065  16.707   7.953
 6742POPC   C4A24390  43.115  16.712   7.653
 6742POPC   C1B24391  42.934  16.494   8.553
 6742POPC   C2B24392  42.968  16.538   8.253
 6742POPC   C3B24393  42.949  16.576   7.953
 6742POPC   C4B24394  42.936  16.562   7.653
 6743POPC   NC324395  44.649   8.167   9.453
 6743POPC   PO424396  44.626   8.173   9.153
 6743POPC   GL124397  44.623   8.170   8.853
 6743POPC   GL224398  44.664   8.119   8.853
 6743POPC   C1A24399  44.691   8.152   8.553
 6743POPC   D2A24400  44.651   8.163   8.253
 6743POPC   C3A24401  44.656   8.234   7.953
 6743POPC   C4A24402  44.651   8.215   7.653
 6743POPC   C1B24403  44.695   7.898   8.553
 6743POPC   C2B24404  44.657   7.960   8.253
 6743POPC   C3B24405  44.676   7.932   7.953
 6743POPC   C4B24406  44.694   7.960   7.653
 6744POPC   NC324407  17.467  35.390   9.453
 6744POPC   PO424408  17.492  35.333   9.153
 6744POPC   GL124409  17.508  35.335   8.853
 6744POPC   GL224410  17.449  35.457   8.853
 6744POPC   C1A24411  17.470  35.394   8.553
 6744POPC   D2A24412  17.554  35.350   8.253
 6744POPC   C3A24413  17.461  35.351   7.953
 6744POPC   C4A24414  17.475  35.371   7.653
 6744POPC   C1B24415  17.450  35.597   8.553
 6744POPC   C2B24416  17.429  35.559   8.253
 6744POPC   C3B24417  17.428  35.612   7.953
 6744POPC   C4B24418  17.437  35.571   7.653
 6745POPC   NC324419   3.585  18.275   9.453
 6745POPC   PO424420   3.578  18.305   9.153
 6745POPC   GL124421   3.494  18.324   8.853
 6745POPC   GL224422   3.453  18.214   8.853
 6745POPC   C1A24423   3.530  18.301   8.553
 6745POPC   D2A24424   3.576  18.276   8.253
 6745POPC   C3A24425   3.546  18.275   7.953
 6745POPC   C4A24426   3.587  18.326   7.653
 6745POPC   C1B24427   3.327  18.137   8.553
 6745POPC   C2B24428   3.287  18.201   8.253
 6745POPC   C3B24429   3.358  18.161   7.953
 6745POPC   C4B24430   3.332  18.195   7.653
 6746POPC   NC324431  43.148   7.448   9.453
 6746POPC   PO424432  43.088   7.469   9.153
 6746POPC   GL124433  43.128   7.388   8.853
 6746POPC   GL224434  43.170   7.341   8.853
 6746POPC   C1A24435  43.105   7.453   8.553
 6746POPC   D2A24436  43.093   7.397   8.253
 6746POPC   C3A24437  43.081   7.441   7.953
 6746POPC   C4A24438  43.148   7.468   7.653
 6746POPC   C1B24439  43.276   7.237   8.553
 6746POPC   C2B24440  43.279   7.263   8.253
 6746POPC   C3B24441  43.273   7.247   7.953
 6746POPC   C4B24442  43.333   7.242   7.653
 6747POPC   NC324443   2.719   6.670   9.453
 6747POPC   PO424444   2.755   6.669   9.153
 6747POPC   GL124445   2.721   6.600   8.853
 6747POPC   GL224446   2.641   6.706   8.853
 6747POPC   C1A24447   2.740   6.677   8.553
 6747POPC   D2A24448   2.770   6.643   8.253
 6747POPC   C3A24449   2.788   6.596   7.953
 6747POPC   C4A24450   2.801   6.600   7.653
 6747POPC   C1B24451   2.609   6.837   8.553
 6747POPC   C2B24452   2.567   6.773   8.253
 6747POPC   C3B24453   2.619   6.844   7.953
 6747POPC   C4B24454   2.573   6.853   7.653
 6748POPC   NC324455  44.706  39.963   9.453
 6748POPC   PO424456  44.691  40.033   9.153
 6748POPC   GL124457  44.640  40.025   8.853
 6748POPC   GL224458  44.768  39.931   8.853
 6748POPC   C1A24459  44.632  40.046   8.553
 6748POPC   D2A24460  44.662  39.999   8.253
 6748POPC   C3A24461  44.691  39.972   7.953
 6748POPC   C4A24462  44.624  40.027   7.653
 6748POPC   C1B24463  44.751  39.801   8.553
 6748POPC   C2B24464  44.742  39.836   8.253
 6748POPC   C3B24465  44.758  39.767   7.953
 6748POPC   C4B24466  44.805  39.770   7.653
 6749POPC   NC324467  11.320  10.493   9.453
 6749POPC   PO424468  11.321  10.513   9.153
 6749POPC   GL124469  11.331  10.554   8.853
 6749POPC   GL224470  11.235  10.612   8.853
 6749POPC   C1A24471  11.266  10.500   8.553
 6749POPC   D2A24472  11.329  10.532   8.253
 6749POPC   C3A24473  11.287  10.556   7.953
 6749POPC   C4A24474  11.347  10.512   7.653
 6749POPC   C1B24475  11.167  10.724   8.553
 6749POPC   C2B24476  11.185  10.777   8.253
 6749POPC   C3B24477  11.203  10.696   7.953
 6749POPC   C4B24478  11.194  10.694   7.653
 6750POPC   NC324479  13.598   2.748   9.453
 6750POPC   PO424480  13.654   2.815   9.153
 6750POPC   GL124481  13.599   2.721   8.853
 6750POPC   GL224482  13.550   2.808   8.853
 6750POPC   C1A24483  13.654   2.767   8.553
 6750POPC   D2A24484  13.622   2.785   8.253
 6750POPC   C3A24485  13.614   2.783   7.953
 6750POPC   C4A24486  13.676   2.812   7.653
 6750POPC   C1B24487  13.419   2.792   8.553
 6750POPC   C2B24488  13.333   2.782   8.253
 6750POPC   C3B24489  13.409   2.800   7.953
 6750POPC   C4B24490  13.336   2.828   7.653
 6751POPC   NC324491  32.269   5.090   9.453
 6751POPC   PO424492  32.266   5.078   9.153
 6751POPC   GL124493  32.260   5.111   8.853
 6751POPC   GL224494  32.358   5.098   8.853
 6751POPC   C1A24495  32.214   5.131   8.553
 6751POPC   D2A24496  32.232   5.111   8.253
 6751POPC   C3A24497  32.225   5.065   7.953
 6751POPC   C4A24498  32.284   5.128   7.653
 6751POPC   C1B24499  32.535   5.107   8.553
 6751POPC   C2B24500  32.458   5.104   8.253
 6751POPC   C3B24501  32.450   5.112   7.953
 6751POPC   C4B24502  32.498   5.095   7.653
 6752POPC   NC324503  20.616  35.323   9.453
 6752POPC   PO424504  20.622  35.315   9.153
 6752POPC   GL124505  20.632  35.389   8.853
 6752POPC   GL224506  20.581  35.455   8.853
 6752POPC   C1A24507  20.646  35.345   8.553
 6752POPC   D2A24508  20.595  35.351   8.253
 6752POPC   C3A24509  20.645  35.346   7.953
 6752POPC   C4A24510  20.610  35.342   7.653
 6752POPC   C1B24511  20.588  35.629   8.553
 6752POPC   C2B24512  20.594  35.614   8.253
 6752POPC   C3B24513  20.675  35.552   7.953
 6752POPC   C4B24514  20.651  35.619   7.653
 6753POPC   NC324515   2.018  32.201   9.453
 6753POPC   PO424516   1.969  32.224   9.153
 6753POPC   GL124517   1.957  32.227   8.853
 6753POPC   GL224518   2.144  32.238   8.853
 6753POPC   C1A24519   1.980  32.290   8.553
 6753POPC   D2A24520   1.970  32.209   8.253
 6753POPC   C3A24521   2.017  32.259   7.953
 6753POPC   C4A24522   2.005  32.210   7.653
 6753POPC   C1B24523   2.230  32.375   8.553
 6753POPC   C2B24524   2.269  32.322   8.253
 6753POPC   C3B24525   2.242  32.312   7.953
 6753POPC   C4B24526   2.239  32.307   7.653
 6754POPC   NC324527  14.377  44.620   9.453
 6754POPC   PO424528  14.363  44.701   9.153
 6754POPC   GL124529  14.387  44.637   8.853
 6754POPC   GL224530  14.285  44.617   8.853
 6754POPC   C1A24531  14.434  44.643   8.553
 6754POPC   D2A24532  14.444  44.626   8.253
 6754POPC   C3A24533  14.420  44.692   7.953
 6754POPC   C4A24534  14.449  44.664   7.653
 6754POPC   C1B24535  14.227  44.573   8.553
 6754POPC   C2B24536  14.225  44.585   8.253
 6754POPC   C3B24537  14.216  44.506   7.953
 6754POPC   C4B24538  14.152  44.493   7.653
 6755POPC   NC324539   7.438  41.511   9.453
 6755POPC   PO424540   7.407  41.515   9.153
 6755POPC   GL124541   7.420  41.514   8.853
 6755POPC   GL224542   7.506  41.417   8.853
 6755POPC   C1A24543   7.408  41.588   8.553
 6755POPC   D2A24544   7.380  41.552   8.253
 6755POPC   C3A24545   7.439  41.513   7.953
 6755POPC   C4A24546   7.392  41.597   7.653
 6755POPC   C1B24547   7.496  41.291   8.553
 6755POPC   C2B24548   7.474  41.300   8.253
 6755POPC   C3B24549   7.546  41.352   7.953
 6755POPC   C4B24550   7.544  41.366   7.653
 6756POPC   NC324551   0.438  18.254   9.453
 6756POPC   PO424552   0.479  18.323   9.153
 6756POPC   GL124553   0.426  18.257   8.853
 6756POPC   GL224554   0.526  18.328   8.853
 6756POPC   C1A24555   0.413  18.258   8.553
 6756POPC   D2A24556   0.427  18.268   8.253
 6756POPC   C3A24557   0.410  18.304   7.953
 6756POPC   C4A24558   0.482  18.319   7.653
 6756POPC   C1B24559   0.680  18.320   8.553
 6756POPC   C2B24560   0.697  18.296   8.253
 6756POPC   C3B24561   0.707  18.391   7.953
 6756POPC   C4B24562   0.693  18.335   7.653
 6757POPC   NC324563  40.779   9.739   9.453
 6757POPC   PO424564  40.815   9.763   9.153
 6757POPC   GL124565  40.808   9.740   8.853
 6757POPC   GL224566  40.953   9.776   8.853
 6757POPC   C1A24567  40.786   9.729   8.553
 6757POPC   D2A24568  40.743   9.724   8.253
 6757POPC   C3A24569  40.771   9.776   7.953
 6757POPC   C4A24570  40.773   9.784   7.653
 6757POPC   C1B24571  40.987   9.796   8.553
 6757POPC   C2B24572  40.995   9.789   8.253
 6757POPC   C3B24573  41.078   9.803   7.953
 6757POPC   C4B24574  41.068   9.779   7.653
 6758POPC   NC324575  43.158  42.372   9.453
 6758POPC   PO424576  43.131  42.336   9.153
 6758POPC   GL124577  43.133  42.375   8.853
 6758POPC   GL224578  43.133  42.188   8.853
 6758POPC   C1A24579  43.129  42.347   8.553
 6758POPC   D2A24580  43.112  42.381   8.253
 6758POPC   C3A24581  43.155  42.375   7.953
 6758POPC   C4A24582  43.084  42.301   7.653
 6758POPC   C1B24583  43.160  42.130   8.553
 6758POPC   C2B24584  43.100  42.114   8.253
 6758POPC   C3B24585  43.144  42.038   7.953
 6758POPC   C4B24586  43.108  42.114   7.653
 6759POPC   NC324587   7.408   4.347   9.453
 6759POPC   PO424588   7.383   4.323   9.153
 6759POPC   GL124589   7.393   4.349   8.853
 6759POPC   GL224590   7.554   4.270   8.853
 6759POPC   C1A24591   7.418   4.316   8.553
 6759POPC   D2A24592   7.426   4.322   8.253
 6759POPC   C3A24593   7.403   4.288   7.953
 6759POPC   C4A24594   7.466   4.335   7.653
 6759POPC   C1B24595   7.657   4.274   8.553
 6759POPC   C2B24596   7.683   4.283   8.253
 6759POPC   C3B24597   7.629   4.309   7.953
 6759POPC   C4B24598   7.700   4.244   7.653
 6760POPC   NC324599  34.593  14.442   9.453
 6760POPC   PO424600  34.595  14.435   9.153
 6760POPC   GL124601  34.537  14.396   8.853
 6760POPC   GL224602  34.443  14.479   8.853
 6760POPC   C1A24603  34.596  14.360   8.553
 6760POPC   D2A24604  34.564  14.438   8.253
 6760POPC   C3A24605  34.618  14.420   7.953
 6760POPC   C4A24606  34.563  14.399   7.653
 6760POPC   C1B24607  34.295  14.504   8.553
 6760POPC   C2B24608  34.320  14.511   8.253
 6760POPC   C3B24609  34.372  14.498   7.953
 6760POPC   C4B24610  34.311  14.482   7.653
 6761POPC   NC324611  38.407  10.497   9.453
 6761POPC   PO424612  38.427  10.570   9.153
 6761POPC   GL124613  38.439  10.524   8.853
 6761POPC   GL224614  38.335  10.474   8.853
 6761POPC   C1A24615  38.448  10.546   8.553
 6761POPC   D2A24616  38.462  10.549   8.253
 6761POPC   C3A24617  38.462  10.493   7.953
 6761POPC   C4A24618  38.499  10.481   7.653
 6761POPC   C1B24619  38.253  10.495   8.553
 6761POPC   C2B24620  38.166  10.441   8.253
 6761POPC   C3B24621  38.246  10.414   7.953
 6761POPC   C4B24622  38.261  10.490   7.653
 6762POPC   NC324623   5.860   5.861   9.453
 6762POPC   PO424624   5.891   5.907   9.153
 6762POPC   GL124625   5.886   5.851   8.853
 6762POPC   GL224626   5.770   5.911   8.853
 6762POPC   C1A24627   5.905   5.881   8.553
 6762POPC   D2A24628   5.867   5.865   8.253
 6762POPC   C3A24629   5.825   5.867   7.953
 6762POPC   C4A24630   5.843   5.900   7.653
 6762POPC   C1B24631   5.641   5.910   8.553
 6762POPC   C2B24632   5.652   5.951   8.253
 6762POPC   C3B24633   5.622   5.947   7.953
 6762POPC   C4B24634   5.600   5.927   7.653
 6763POPC   NC324635  31.494   1.975   9.453
 6763POPC   PO424636  31.438   1.971   9.153
 6763POPC   GL124637  31.479   1.953   8.853
 6763POPC   GL224638  31.593   2.066   8.853
 6763POPC   C1A24639  31.511   1.964   8.553
 6763POPC   D2A24640  31.444   1.993   8.253
 6763POPC   C3A24641  31.440   2.022   7.953
 6763POPC   C4A24642  31.439   1.960   7.653
 6763POPC   C1B24643  31.676   2.066   8.553
 6763POPC   C2B24644  31.697   2.055   8.253
 6763POPC   C3B24645  31.691   2.097   7.953
 6763POPC   C4B24646  31.751   2.096   7.653
 6764POPC   NC324647   3.531  22.925   9.453
 6764POPC   PO424648   3.542  22.895   9.153
 6764POPC   GL124649   3.495  22.912   8.853
 6764POPC   GL224650   3.593  22.834   8.853
 6764POPC   C1A24651   3.551  22.915   8.553
 6764POPC   D2A24652   3.570  22.942   8.253
 6764POPC   C3A24653   3.493  22.924   7.953
 6764POPC   C4A24654   3.520  22.925   7.653
 6764POPC   C1B24655   3.501  22.735   8.553
 6764POPC   C2B24656   3.513  22.649   8.253
 6764POPC   C3B24657   3.563  22.724   7.953
 6764POPC   C4B24658   3.574  22.732   7.653
 6765POPC   NC324659   0.425  26.831   9.453
 6765POPC   PO424660   0.396  26.790   9.153
 6765POPC   GL124661   0.390  26.782   8.853
 6765POPC   GL224662   0.541  26.807   8.853
 6765POPC   C1A24663   0.463  26.845   8.553
 6765POPC   D2A24664   0.460  26.767   8.253
 6765POPC   C3A24665   0.391  26.847   7.953
 6765POPC   C4A24666   0.419  26.844   7.653
 6765POPC   C1B24667   0.692  26.829   8.553
 6765POPC   C2B24668   0.719  26.847   8.253
 6765POPC   C3B24669   0.684  26.801   7.953
 6765POPC   C4B24670   0.678  26.802   7.653
 6766POPC   NC324671  22.195  33.041   9.453
 6766POPC   PO424672  22.118  33.057   9.153
 6766POPC   GL124673  22.163  33.025   8.853
 6766POPC   GL224674  22.058  33.067   8.853
 6766POPC   C1A24675  22.115  33.065   8.553
 6766POPC   D2A24676  22.189  33.016   8.253
 6766POPC   C3A24677  22.139  32.986   7.953
 6766POPC   C4A24678  22.183  33.053   7.653
 6766POPC   C1B24679  22.031  33.198   8.553
 6766POPC   C2B24680  21.978  33.157   8.253
 6766POPC   C3B24681  22.010  33.229   7.953
 6766POPC   C4B24682  21.934  33.158   7.653
 6767POPC   NC324683  17.512   5.882   9.453
 6767POPC   PO424684  17.476   5.870   9.153
 6767POPC   GL124685  17.555   5.878   8.853
 6767POPC   GL224686  17.378   5.772   8.853
 6767POPC   C1A24687  17.496   5.898   8.553
 6767POPC   D2A24688  17.538   5.907   8.253
 6767POPC   C3A24689  17.531   5.871   7.953
 6767POPC   C4A24690  17.510   5.879   7.653
 6767POPC   C1B24691  17.302   5.699   8.553
 6767POPC   C2B24692  17.338   5.687   8.253
 6767POPC   C3B24693  17.301   5.698   7.953
 6767POPC   C4B24694  17.329   5.683   7.653
 6768POPC   NC324695   6.617  43.076   9.453
 6768POPC   PO424696   6.621  43.159   9.153
 6768POPC   GL124697   6.622  43.157   8.853
 6768POPC   GL224698   6.495  43.157   8.853
 6768POPC   C1A24699   6.631  43.119   8.553
 6768POPC   D2A24700   6.694  43.087   8.253
 6768POPC   C3A24701   6.682  43.141   7.953
 6768POPC   C4A24702   6.679  43.062   7.653
 6768POPC   C1B24703   6.439  43.203   8.553
 6768POPC   C2B24704   6.440  43.270   8.253
 6768POPC   C3B24705   6.466  43.248   7.953
 6768POPC   C4B24706   6.411  43.226   7.653
 6769POPC   NC324707  35.337  32.984   9.453
 6769POPC   PO424708  35.316  33.018   9.153
 6769POPC   GL124709  35.322  33.051   8.853
 6769POPC   GL224710  35.208  33.055   8.853
 6769POPC   C1A24711  35.395  33.022   8.553
 6769POPC   D2A24712  35.365  33.043   8.253
 6769POPC   C3A24713  35.317  33.017   7.953
 6769POPC   C4A24714  35.346  33.053   7.653
 6769POPC   C1B24715  35.099  33.037   8.553
 6769POPC   C2B24716  35.119  33.080   8.253
 6769POPC   C3B24717  35.096  33.041   7.953
 6769POPC   C4B24718  35.138  33.014   7.653
 6770POPC   NC324719  43.878  28.409   9.453
 6770POPC   PO424720  43.838  28.367   9.153
 6770POPC   GL124721  43.889  28.411   8.853
 6770POPC   GL224722  44.014  28.444   8.853
 6770POPC   C1A24723  43.912  28.355   8.553
 6770POPC   D2A24724  43.882  28.327   8.253
 6770POPC   C3A24725  43.861  28.345   7.953
 6770POPC   C4A24726  43.915  28.347   7.653
 6770POPC   C1B24727  44.065  28.519   8.553
 6770POPC   C2B24728  44.050  28.569   8.253
 6770POPC   C3B24729  44.077  28.535   7.953
 6770POPC   C4B24730  44.021  28.566   7.653
 6771POPC   NC324731  19.860  41.561   9.453
 6771POPC   PO424732  19.821  41.547   9.153
 6771POPC   GL124733  19.816  41.515   8.853
 6771POPC   GL224734  19.752  41.707   8.853
 6771POPC   C1A24735  19.866  41.580   8.553
 6771POPC   D2A24736  19.821  41.554   8.253
 6771POPC   C3A24737  19.799  41.535   7.953
 6771POPC   C4A24738  19.794  41.520   7.653
 6771POPC   C1B24739  19.670  41.729   8.553
 6771POPC   C2B24740  19.695  41.733   8.253
 6771POPC   C3B24741  19.726  41.807   7.953
 6771POPC   C4B24742  19.683  41.769   7.653
 6772POPC   NC324743  23.690  26.792   9.453
 6772POPC   PO424744  23.715  26.811   9.153
 6772POPC   GL124745  23.682  26.844   8.853
 6772POPC   GL224746  23.732  26.954   8.853
 6772POPC   C1A24747  23.680  26.863   8.553
 6772POPC   D2A24748  23.692  26.838   8.253
 6772POPC   C3A24749  23.726  26.857   7.953
 6772POPC   C4A24750  23.666  26.768   7.653
 6772POPC   C1B24751  23.785  27.014   8.553
 6772POPC   C2B24752  23.842  27.091   8.253
 6772POPC   C3B24753  23.832  27.074   7.953
 6772POPC   C4B24754  23.761  27.061   7.653
 6773POPC   NC324755  31.493  41.601   9.453
 6773POPC   PO424756  31.425  41.514   9.153
 6773POPC   GL124757  31.431  41.587   8.853
 6773POPC   GL224758  31.428  41.676   8.853
 6773POPC   C1A24759  31.520  41.517   8.553
 6773POPC   D2A24760  31.443  41.590   8.253
 6773POPC   C3A24761  31.442  41.562   7.953
 6773POPC   C4A24762  31.487  41.589   7.653
 6773POPC   C1B24763  31.301  41.784   8.553
 6773POPC   C2B24764  31.310  41.809   8.253
 6773POPC   C3B24765  31.292  41.787   7.953
 6773POPC   C4B24766  31.339  41.730   7.653
 6774POPC   NC324767  40.807  27.551   9.453
 6774POPC   PO424768  40.795  27.555   9.153
 6774POPC   GL124769  40.745  27.623   8.853
 6774POPC   GL224770  40.871  27.631   8.853
 6774POPC   C1A24771  40.821  27.589   8.553
 6774POPC   D2A24772  40.801  27.561   8.253
 6774POPC   C3A24773  40.808  27.618   7.953
 6774POPC   C4A24774  40.781  27.550   7.653
 6774POPC   C1B24775  40.959  27.724   8.553
 6774POPC   C2B24776  41.001  27.687   8.253
 6774POPC   C3B24777  40.962  27.702   7.953
 6774POPC   C4B24778  40.983  27.672   7.653
 6775POPC   NC324779   5.059  36.173   9.453
 6775POPC   PO424780   5.064  36.136   9.153
 6775POPC   GL124781   5.102  36.091   8.853
 6775POPC   GL224782   5.159  36.058   8.853
 6775POPC   C1A24783   5.097  36.161   8.553
 6775POPC   D2A24784   5.143  36.154   8.253
 6775POPC   C3A24785   5.086  36.127   7.953
 6775POPC   C4A24786   5.129  36.081   7.653
 6775POPC   C1B24787   5.266  35.973   8.553
 6775POPC   C2B24788   5.291  35.979   8.253
 6775POPC   C3B24789   5.275  35.919   7.953
 6775POPC   C4B24790   5.302  35.914   7.653
 6776POPC   NC324791  11.258  25.245   9.453
 6776POPC   PO424792  11.311  25.302   9.153
 6776POPC   GL124793  11.343  25.257   8.853
 6776POPC   GL224794  11.366  25.364   8.853
 6776POPC   C1A24795  11.258  25.258   8.553
 6776POPC   D2A24796  11.280  25.300   8.253
 6776POPC   C3A24797  11.343  25.306   7.953
 6776POPC   C4A24798  11.282  25.277   7.653
 6776POPC   C1B24799  11.376  25.472   8.553
 6776POPC   C2B24800  11.403  25.534   8.253
 6776POPC   C3B24801  11.403  25.521   7.953
 6776POPC   C4B24802  11.363  25.494   7.653
 6777POPC   NC324803   3.572  35.306   9.453
 6777POPC   PO424804   3.525  35.308   9.153
 6777POPC   GL124805   3.532  35.304   8.853
 6777POPC   GL224806   3.466  35.303   8.853
 6777POPC   C1A24807   3.579  35.399   8.553
 6777POPC   D2A24808   3.506  35.319   8.253
 6777POPC   C3A24809   3.574  35.312   7.953
 6777POPC   C4A24810   3.575  35.334   7.653
 6777POPC   C1B24811   3.387  35.225   8.553
 6777POPC   C2B24812   3.399  35.212   8.253
 6777POPC   C3B24813   3.377  35.161   7.953
 6777POPC   C4B24814   3.307  35.202   7.653
 6778POPC   NC324815  21.349  43.133   9.453
 6778POPC   PO424816  21.403  43.065   9.153
 6778POPC   GL124817  21.375  43.142   8.853
 6778POPC   GL224818  21.407  43.227   8.853
 6778POPC   C1A24819  21.370  43.077   8.553
 6778POPC   D2A24820  21.381  43.136   8.253
 6778POPC   C3A24821  21.352  43.121   7.953
 6778POPC   C4A24822  21.356  43.070   7.653
 6778POPC   C1B24823  21.453  43.366   8.553
 6778POPC   C2B24824  21.467  43.350   8.253
 6778POPC   C3B24825  21.480  43.309   7.953
 6778POPC   C4B24826  21.466  43.344   7.653
 6779POPC   NC324827  12.113   5.900   9.453
 6779POPC   PO424828  12.102   5.850   9.153
 6779POPC   GL124829  12.109   5.833   8.853
 6779POPC   GL224830  12.089   6.032   8.853
 6779POPC   C1A24831  12.113   5.918   8.553
 6779POPC   D2A24832  12.094   5.833   8.253
 6779POPC   C3A24833  12.111   5.876   7.953
 6779POPC   C4A24834  12.077   5.905   7.653
 6779POPC   C1B24835  12.104   6.107   8.553
 6779POPC   C2B24836  12.077   6.117   8.253
 6779POPC   C3B24837  12.032   6.122   7.953
 6779POPC   C4B24838  12.055   6.130   7.653
 6780POPC   NC324839  16.722  19.094   9.453
 6780POPC   PO424840  16.725  19.100   9.153
 6780POPC   GL124841  16.716  19.069   8.853
 6780POPC   GL224842  16.622  18.970   8.853
 6780POPC   C1A24843  16.685  19.099   8.553
 6780POPC   D2A24844  16.779  19.045   8.253
 6780POPC   C3A24845  16.706  19.034   7.953
 6780POPC   C4A24846  16.725  19.039   7.653
 6780POPC   C1B24847  16.587  18.842   8.553
 6780POPC   C2B24848  16.544  18.841   8.253
 6780POPC   C3B24849  16.548  18.893   7.953
 6780POPC   C4B24850  16.639  18.842   7.653
 6781POPC   NC324851  26.866  36.934   9.453
 6781POPC   PO424852  26.856  36.919   9.153
 6781POPC   GL124853  26.782  36.878   8.853
 6781POPC   GL224854  26.969  36.912   8.853
 6781POPC   C1A24855  26.769  36.950   8.553
 6781POPC   D2A24856  26.831  36.864   8.253
 6781POPC   C3A24857  26.830  36.943   7.953
 6781POPC   C4A24858  26.818  36.872   7.653
 6781POPC   C1B24859  27.077  36.866   8.553
 6781POPC   C2B24860  27.035  36.834   8.253
 6781POPC   C3B24861  27.043  36.841   7.953
 6781POPC   C4B24862  27.043  36.805   7.653
 6782POPC   NC324863  41.588  12.831   9.453
 6782POPC   PO424864  41.543  12.852   9.153
 6782POPC   GL124865  41.519  12.856   8.853
 6782POPC   GL224866  41.723  12.799   8.853
 6782POPC   C1A24867  41.522  12.861   8.553
 6782POPC   D2A24868  41.541  12.850   8.253
 6782POPC   C3A24869  41.522  12.823   7.953
 6782POPC   C4A24870  41.547  12.803   7.653
 6782POPC   C1B24871  41.842  12.793   8.553
 6782POPC   C2B24872  41.849  12.798   8.253
 6782POPC   C3B24873  41.812  12.844   7.953
 6782POPC   C4B24874  41.853  12.841   7.653
 6783POPC   NC324875  25.240  42.352   9.453
 6783POPC   PO424876  25.231  42.384   9.153
 6783POPC   GL124877  25.236  42.310   8.853
 6783POPC   GL224878  25.145  42.360   8.853
 6783POPC   C1A24879  25.277  42.308   8.553
 6783POPC   D2A24880  25.270  42.365   8.253
 6783POPC   C3A24881  25.244  42.342   7.953
 6783POPC   C4A24882  25.276  42.377   7.653
 6783POPC   C1B24883  25.046  42.391   8.553
 6783POPC   C2B24884  25.031  42.339   8.253
 6783POPC   C3B24885  25.055  42.423   7.953
 6783POPC   C4B24886  25.058  42.334   7.653
 6784POPC   NC324887   9.742   2.729   9.453
 6784POPC   PO424888   9.765   2.791   9.153
 6784POPC   GL124889   9.704   2.771   8.853
 6784POPC   GL224890   9.872   2.831   8.853
 6784POPC   C1A24891   9.727   2.789   8.553
 6784POPC   D2A24892   9.767   2.736   8.253
 6784POPC   C3A24893   9.749   2.768   7.953
 6784POPC   C4A24894   9.723   2.725   7.653
 6784POPC   C1B24895   9.923   2.923   8.553
 6784POPC   C2B24896   9.917   2.928   8.253
 6784POPC   C3B24897   9.962   2.920   7.953
 6784POPC   C4B24898   9.986   2.884   7.653
 6785POPC   NC324899  18.314  32.265   9.453
 6785POPC   PO424900  18.329  32.269   9.153
 6785POPC   GL124901  18.319  32.205   8.853
 6785POPC   GL224902  18.387  32.257   8.853
 6785POPC   C1A24903  18.299  32.208   8.553
 6785POPC   D2A24904  18.295  32.260   8.253
 6785POPC   C3A24905  18.270  32.270   7.953
 6785POPC   C4A24906  18.295  32.266   7.653
 6785POPC   C1B24907  18.565  32.315   8.553
 6785POPC   C2B24908  18.539  32.321   8.253
 6785POPC   C3B24909  18.473  32.303   7.953
 6785POPC   C4B24910  18.550  32.352   7.653
 6786POPC   NC324911  44.708  27.610   9.453
 6786POPC   PO424912  44.624  27.549   9.153
 6786POPC   GL124913  44.639  27.597   8.853
 6786POPC   GL224914  44.773  27.514   8.853
 6786POPC   C1A24915  44.618  27.583   8.553
 6786POPC   D2A24916  44.673  27.578   8.253
 6786POPC   C3A24917  44.661  27.578   7.953
 6786POPC   C4A24918  44.685  27.601   7.653
 6786POPC   C1B24919  44.865  27.479   8.553
 6786POPC   C2B24920  44.920  27.545   8.253
 6786POPC   C3B24921  44.929  27.514   7.953
 6786POPC   C4B24922  44.913  27.541   7.653
 6787POPC   NC324923   5.064   2.027   9.453
 6787POPC   PO424924   5.095   2.018   9.153
 6787POPC   GL124925   5.069   1.959   8.853
 6787POPC   GL224926   5.167   2.070   8.853
 6787POPC   C1A24927   5.066   2.015   8.553
 6787POPC   D2A24928   5.129   2.016   8.253
 6787POPC   C3A24929   5.068   1.965   7.953
 6787POPC   C4A24930   5.140   2.004   7.653
 6787POPC   C1B24931   5.151   2.261   8.553
 6787POPC   C2B24932   5.205   2.200   8.253
 6787POPC   C3B24933   5.219   2.255   7.953
 6787POPC   C4B24934   5.182   2.188   7.653
 6788POPC   NC324935  35.363  13.618   9.453
 6788POPC   PO424936  35.327  13.636   9.153
 6788POPC   GL124937  35.324  13.642   8.853
 6788POPC   GL224938  35.316  13.532   8.853
 6788POPC   C1A24939  35.375  13.613   8.553
 6788POPC   D2A24940  35.339  13.591   8.253
 6788POPC   C3A24941  35.308  13.642   7.953
 6788POPC   C4A24942  35.347  13.645   7.653
 6788POPC   C1B24943  35.345  13.365   8.553
 6788POPC   C2B24944  35.391  13.350   8.253
 6788POPC   C3B24945  35.352  13.403   7.953
 6788POPC   C4B24946  35.384  13.396   7.653
 6789POPC   NC324947  19.808  20.610   9.453
 6789POPC   PO424948  19.860  20.564   9.153
 6789POPC   GL124949  19.861  20.606   8.853
 6789POPC   GL224950  20.005  20.683   8.853
 6789POPC   C1A24951  19.869  20.570   8.553
 6789POPC   D2A24952  19.788  20.621   8.253
 6789POPC   C3A24953  19.803  20.637   7.953
 6789POPC   C4A24954  19.834  20.567   7.653
 6789POPC   C1B24955  20.065  20.650   8.553
 6789POPC   C2B24956  20.045  20.625   8.253
 6789POPC   C3B24957  20.084  20.702   7.953
 6789POPC   C4B24958  20.030  20.663   7.653
 6790POPC   NC324959  16.735  39.961   9.453
 6790POPC   PO424960  16.761  40.055   9.153
 6790POPC   GL124961  16.731  39.975   8.853
 6790POPC   GL224962  16.675  40.099   8.853
 6790POPC   C1A24963  16.765  39.994   8.553
 6790POPC   D2A24964  16.714  40.000   8.253
 6790POPC   C3A24965  16.772  40.039   7.953
 6790POPC   C4A24966  16.739  39.974   7.653
 6790POPC   C1B24967  16.573  40.213   8.553
 6790POPC   C2B24968  16.648  40.199   8.253
 6790POPC   C3B24969  16.577  40.196   7.953
 6790POPC   C4B24970  16.582  40.222   7.653
 6791POPC   NC324971   4.301  23.730   9.453
 6791POPC   PO424972   4.343  23.731   9.153
 6791POPC   GL124973   4.293  23.667   8.853
 6791POPC   GL224974   4.412  23.816   8.853
 6791POPC   C1A24975   4.292  23.733   8.553
 6791POPC   D2A24976   4.343  23.748   8.253
 6791POPC   C3A24977   4.365  23.725   7.953
 6791POPC   C4A24978   4.277  23.754   7.653
 6791POPC   C1B24979   4.515  23.828   8.553
 6791POPC   C2B24980   4.505  23.885   8.253
 6791POPC   C3B24981   4.488  23.893   7.953
 6791POPC   C4B24982   4.531  23.812   7.653
 6792POPC   NC324983  28.378  43.919   9.453
 6792POPC   PO424984  28.326  43.843   9.153
 6792POPC   GL124985  28.373  43.870   8.853
 6792POPC   GL224986  28.412  43.833   8.853
 6792POPC   C1A24987  28.323  43.846   8.553
 6792POPC   D2A24988  28.323  43.870   8.253
 6792POPC   C3A24989  28.323  43.845   7.953
 6792POPC   C4A24990  28.360  43.928   7.653
 6792POPC   C1B24991  28.571  43.715   8.553
 6792POPC   C2B24992  28.531  43.672   8.253
 6792POPC   C3B24993  28.507  43.716   7.953
 6792POPC   C4B24994  28.543  43.722   7.653
 6793POPC   NC324995  18.327  18.260   9.453
 6793POPC   PO424996  18.249  18.238   9.153
 6793POPC   GL124997  18.274  18.286   8.853
 6793POPC   GL224998  18.248  18.201   8.853
 6793POPC   C1A24999  18.292  18.254   8.553
 6793POPC   D2A25000  18.325  18.280   8.253
 6793POPC   C3A25001  18.291  18.290   7.953
 6793POPC   C4A25002  18.293  18.330   7.653
 6793POPC   C1B25003  18.294  18.075   8.553
 6793POPC   C2B25004  18.259  17.992   8.253
 6793POPC   C3B25005  18.338  18.076   7.953
 6793POPC   C4B25006  18.309  18.050   7.653
 6794POPC   NC325007  12.036  32.204   9.453
 6794POPC   PO425008  12.121  32.288   9.153
 6794POPC   GL125009  12.065  32.251   8.853
 6794POPC   GL225010  12.036  32.183   8.853
 6794POPC   C1A25011  12.064  32.257   8.553
 6794POPC   D2A25012  12.033  32.295   8.253
 6794POPC   C3A25013  12.055  32.259   7.953
 6794POPC   C4A25014  12.072  32.231   7.653
 6794POPC   C1B25015  11.914  31.987   8.553
 6794POPC   C2B25016  11.951  31.988   8.253
 6794POPC   C3B25017  11.925  32.038   7.953
 6794POPC   C4B25018  11.987  32.003   7.653
 6795POPC   NC325019   4.274  10.499   9.453
 6795POPC   PO425020   4.309  10.504   9.153
 6795POPC   GL125021   4.349  10.497   8.853
 6795POPC   GL225022   4.397  10.371   8.853
 6795POPC   C1A25023   4.303  10.535   8.553
 6795POPC   D2A25024   4.269  10.480   8.253
 6795POPC   C3A25025   4.318  10.513   7.953
 6795POPC   C4A25026   4.337  10.505   7.653
 6795POPC   C1B25027   4.419  10.318   8.553
 6795POPC   C2B25028   4.432  10.280   8.253
 6795POPC   C3B25029   4.416  10.322   7.953
 6795POPC   C4B25030   4.477  10.311   7.653
 6796POPC   NC325031  27.568  13.589   9.453
 6796POPC   PO425032  27.543  13.578   9.153
 6796POPC   GL125033  27.641  13.624   8.853
 6796POPC   GL225034  27.717  13.489   8.853
 6796POPC   C1A25035  27.603  13.624   8.553
 6796POPC   D2A25036  27.605  13.655   8.253
 6796POPC   C3A25037  27.548  13.642   7.953
 6796POPC   C4A25038  27.627  13.669   7.653
 6796POPC   C1B25039  27.741  13.481   8.553
 6796POPC   C2B25040  27.718  13.450   8.253
 6796POPC   C3B25041  27.727  13.402   7.953
 6796POPC   C4B25042  27.755  13.439   7.653
 6797POPC   NC325043  38.465  18.277   9.453
 6797POPC   PO425044  38.464  18.322   9.153
 6797POPC   GL125045  38.437  18.305   8.853
 6797POPC   GL225046  38.532  18.194   8.853
 6797POPC   C1A25047  38.408  18.331   8.553
 6797POPC   D2A25048  38.495  18.241   8.253
 6797POPC   C3A25049  38.460  18.287   7.953
 6797POPC   C4A25050  38.423  18.311   7.653
 6797POPC   C1B25051  38.496  18.000   8.553
 6797POPC   C2B25052  38.535  18.065   8.253
 6797POPC   C3B25053  38.530  18.038   7.953
 6797POPC   C4B25054  38.569  18.022   7.653
 6798POPC   NC325055   6.683  28.416   9.453
 6798POPC   PO425056   6.625  28.376   9.153
 6798POPC   GL125057   6.678  28.330   8.853
 6798POPC   GL225058   6.785  28.247   8.853
 6798POPC   C1A25059   6.671  28.389   8.553
 6798POPC   D2A25060   6.680  28.410   8.253
 6798POPC   C3A25061   6.657  28.325   7.953
 6798POPC   C4A25062   6.669  28.354   7.653
 6798POPC   C1B25063   6.871  28.251   8.553
 6798POPC   C2B25064   6.884  28.192   8.253
 6798POPC   C3B25065   6.838  28.229   7.953
 6798POPC   C4B25066   6.885  28.246   7.653
 6799POPC   NC325067  26.851  18.248   9.453
 6799POPC   PO425068  26.809  18.240   9.153
 6799POPC   GL125069  26.832  18.293   8.853
 6799POPC   GL225070  26.790  18.388   8.853
 6799POPC   C1A25071  26.840  18.332   8.553
 6799POPC   D2A25072  26.864  18.309   8.253
 6799POPC   C3A25073  26.782  18.264   7.953
 6799POPC   C4A25074  26.818  18.236   7.653
 6799POPC   C1B25075  26.678  18.503   8.553
 6799POPC   C2B25076  26.699  18.491   8.253
 6799POPC   C3B25077  26.666  18.442   7.953
 6799POPC   C4B25078  26.679  18.530   7.653
 6800POPC   NC325079  41.576  43.120   9.453
 6800POPC   PO425080  41.516  43.095   9.153
 6800POPC   GL125081  41.567  43.069   8.853
 6800POPC   GL225082  41.392  43.061   8.853
 6800POPC   C1A25083  41.607  43.111   8.553
 6800POPC   D2A25084  41.563  43.123   8.253
 6800POPC   C3A25085  41.582  43.064   7.953
 6800POPC   C4A25086  41.559  43.092   7.653
 6800POPC   C1B25087  41.294  43.096   8.553
 6800POPC   C2B25088  41.354  43.116   8.253
 6800POPC   C3B25089  41.348  43.112   7.953
 6800POPC   C4B25090  41.326  43.096   7.653
 6801POPC   NC325091  36.097  15.993   9.453
 6801POPC   PO425092  36.116  15.930   9.153
 6801POPC   GL125093  36.157  15.962   8.853
 6801POPC   GL225094  36.218  15.958   8.853
 6801POPC   C1A25095  36.100  15.973   8.553
 6801POPC   D2A25096  36.155  15.930   8.253
 6801POPC   C3A25097  36.087  15.958   7.953
 6801POPC   C4A25098  36.125  15.969   7.653
 6801POPC   C1B25099  36.407  15.994   8.553
 6801POPC   C2B25100  36.325  16.035   8.253
 6801POPC   C3B25101  36.414  16.048   7.953
 6801POPC   C4B25102  36.329  16.044   7.653
 6802POPC   NC325103   8.168  39.999   9.453
 6802POPC   PO425104   8.214  40.046   9.153
 6802POPC   GL125105   8.239  39.982   8.853
 6802POPC   GL225106   8.116  39.943   8.853
 6802POPC   C1A25107   8.152  40.028   8.553
 6802POPC   D2A25108   8.166  39.960   8.253
 6802POPC   C3A25109   8.183  39.965   7.953
 6802POPC   C4A25110   8.172  39.986   7.653
 6802POPC   C1B25111   8.033  39.917   8.553
 6802POPC   C2B25112   7.974  39.826   8.253
 6802POPC   C3B25113   7.956  39.895   7.953
 6802POPC   C4B25114   7.970  39.876   7.653
 6803POPC   NC325115   7.393  44.616   9.453
 6803POPC   PO425116   7.385  44.657   9.153
 6803POPC   GL125117   7.425  44.652   8.853
 6803POPC   GL225118   7.304  44.713   8.853
 6803POPC   C1A25119   7.378  44.682   8.553
 6803POPC   D2A25120   7.392  44.694   8.253
 6803POPC   C3A25121   7.435  44.710   7.953
 6803POPC   C4A25122   7.435  44.694   7.653
 6803POPC   C1B25123   7.132  44.685   8.553
 6803POPC   C2B25124   7.147  44.646   8.253
 6803POPC   C3B25125   7.153  44.715   7.953
 6803POPC   C4B25126   7.186  44.669   7.653
 6804POPC   NC325127   4.296  19.106   9.453
 6804POPC   PO425128   4.284  19.098   9.153
 6804POPC   GL125129   4.352  19.047   8.853
 6804POPC   GL225130   4.394  19.203   8.853
 6804POPC   C1A25131   4.323  19.096   8.553
 6804POPC   D2A25132   4.305  19.105   8.253
 6804POPC   C3A25133   4.312  19.063   7.953
 6804POPC   C4A25134   4.365  19.107   7.653
 6804POPC   C1B25135   4.476  19.299   8.553
 6804POPC   C2B25136   4.444  19.214   8.253
 6804POPC   C3B25137   4.500  19.250   7.953
 6804POPC   C4B25138   4.436  19.254   7.653
 6805POPC   NC325139  31.439  38.423   9.453
 6805POPC   PO425140  31.496  38.469   9.153
 6805POPC   GL125141  31.439  38.472   8.853
 6805POPC   GL225142  31.600  38.359   8.853
 6805POPC   C1A25143  31.457  38.428   8.553
 6805POPC   D2A25144  31.496  38.471   8.253
 6805POPC   C3A25145  31.519  38.486   7.953
 6805POPC   C4A25146  31.489  38.458   7.653
 6805POPC   C1B25147  31.719  38.305   8.553
 6805POPC   C2B25148  31.726  38.329   8.253
 6805POPC   C3B25149  31.706  38.366   7.953
 6805POPC   C4B25150  31.698  38.372   7.653
 6806POPC   NC325151  44.633  38.418   9.453
 6806POPC   PO425152  44.648  38.421   9.153
 6806POPC   GL125153  44.677  38.437   8.853
 6806POPC   GL225154  44.812  38.538   8.853
 6806POPC   C1A25155  44.703  38.406   8.553
 6806POPC   D2A25156  44.617  38.478   8.253
 6806POPC   C3A25157  44.706  38.426   7.953
 6806POPC   C4A25158  44.705  38.427   7.653
 6806POPC   C1B25159  44.860  38.582   8.553
 6806POPC   C2B25160  44.830  38.595   8.253
 6806POPC   C3B25161  44.885  38.596   7.953
 6806POPC   C4B25162  44.858  38.570   7.653
 6807POPC   NC325163   2.796  28.405   9.453
 6807POPC   PO425164   2.815  28.395   9.153
 6807POPC   GL125165   2.805  28.324   8.853
 6807POPC   GL225166   2.814  28.216   8.853
 6807POPC   C1A25167   2.741  28.388   8.553
 6807POPC   D2A25168   2.732  28.333   8.253
 6807POPC   C3A25169   2.806  28.360   7.953
 6807POPC   C4A25170   2.803  28.357   7.653
 6807POPC   C1B25171   2.827  28.118   8.553
 6807POPC   C2B25172   2.891  28.169   8.253
 6807POPC   C3B25173   2.840  28.130   7.953
 6807POPC   C4B25174   2.821  28.167   7.653
 6808POPC   NC325175  12.065   7.380   9.453
 6808POPC   PO425176  12.046   7.418   9.153
 6808POPC   GL125177  12.125   7.449   8.853
 6808POPC   GL225178  12.045   7.267   8.853
 6808POPC   C1A25179  12.116   7.458   8.553
 6808POPC   D2A25180  12.051   7.470   8.253
 6808POPC   C3A25181  12.040   7.415   7.953
 6808POPC   C4A25182  12.093   7.440   7.653
 6808POPC   C1B25183  12.022   7.160   8.553
 6808POPC   C2B25184  12.102   7.148   8.253
 6808POPC   C3B25185  12.114   7.181   7.953
 6808POPC   C4B25186  12.063   7.216   7.653
 6809POPC   NC325187   1.218  29.183   9.453
 6809POPC   PO425188   1.225  29.168   9.153
 6809POPC   GL125189   1.229  29.112   8.853
 6809POPC   GL225190   1.324  29.170   8.853
 6809POPC   C1A25191   1.196  29.123   8.553
 6809POPC   D2A25192   1.228  29.100   8.253
 6809POPC   C3A25193   1.221  29.116   7.953
 6809POPC   C4A25194   1.206  29.170   7.653
 6809POPC   C1B25195   1.437  29.214   8.553
 6809POPC   C2B25196   1.476  29.212   8.253
 6809POPC   C3B25197   1.464  29.269   7.953
 6809POPC   C4B25198   1.408  29.229   7.653
 6810POPC   NC325199  23.743  22.115   9.453
 6810POPC   PO425200  23.731  22.138   9.153
 6810POPC   GL125201  23.730  22.205   8.853
 6810POPC   GL225202  23.812  22.277   8.853
 6810POPC   C1A25203  23.715  22.186   8.553
 6810POPC   D2A25204  23.738  22.168   8.253
 6810POPC   C3A25205  23.761  22.143   7.953
 6810POPC   C4A25206  23.677  22.149   7.653
 6810POPC   C1B25207  23.873  22.363   8.553
 6810POPC   C2B25208  23.878  22.331   8.253
 6810POPC   C3B25209  23.830  22.333   7.953
 6810POPC   C4B25210  23.918  22.394   7.653
 6811POPC   NC325211   0.392   1.237   9.453
 6811POPC   PO425212   0.426   1.253   9.153
 6811POPC   GL125213   0.425   1.248   8.853
 6811POPC   GL225214   0.568   1.227   8.853
 6811POPC   C1A25215   0.428   1.241   8.553
 6811POPC   D2A25216   0.441   1.245   8.253
 6811POPC   C3A25217   0.478   1.181   7.953
 6811POPC   C4A25218   0.412   1.259   7.653
 6811POPC   C1B25219   0.703   1.145   8.553
 6811POPC   C2B25220   0.638   1.161   8.253
 6811POPC   C3B25221   0.635   1.148   7.953
 6811POPC   C4B25222   0.707   1.199   7.653
 6812POPC   NC325223  29.149  17.465   9.453
 6812POPC   PO425224  29.134  17.518   9.153
 6812POPC   GL125225  29.128  17.496   8.853
 6812POPC   GL225226  29.048  17.441   8.853
 6812POPC   C1A25227  29.156  17.488   8.553
 6812POPC   D2A25228  29.108  17.550   8.253
 6812POPC   C3A25229  29.114  17.511   7.953
 6812POPC   C4A25230  29.177  17.494   7.653
 6812POPC   C1B25231  28.863  17.458   8.553
 6812POPC   C2B25232  28.857  17.416   8.253
 6812POPC   C3B25233  28.943  17.456   7.953
 6812POPC   C4B25234  28.914  17.472   7.653
 6813POPC   NC325235   5.898  40.791   9.453
 6813POPC   PO425236   5.841  40.816   9.153
 6813POPC   GL125237   5.845  40.826   8.853
 6813POPC   GL225238   5.880  40.612   8.853
 6813POPC   C1A25239   5.908  40.765   8.553
 6813POPC   D2A25240   5.918  40.785   8.253
 6813POPC   C3A25241   5.875  40.800   7.953
 6813POPC   C4A25242   5.824  40.809   7.653
 6813POPC   C1B25243   5.824  40.570   8.553
 6813POPC   C2B25244   5.804  40.540   8.253
 6813POPC   C3B25245   5.847  40.500   7.953
 6813POPC   C4B25246   5.851  40.497   7.653
 6814POPC   NC325247   3.518  30.669   9.453
 6814POPC   PO425248   3.497  30.696   9.153
 6814POPC   GL125249   3.494  30.719   8.853
 6814POPC   GL225250   3.705  30.754   8.853
 6814POPC   C1A25251   3.583  30.701   8.553
 6814POPC   D2A25252   3.502  30.664   8.253
 6814POPC   C3A25253   3.563  30.736   7.953
 6814POPC   C4A25254   3.552  30.707   7.653
 6814POPC   C1B25255   3.837  30.712   8.553
 6814POPC   C2B25256   3.834  30.725   8.253
 6814POPC   C3B25257   3.810  30.703   7.953
 6814POPC   C4B25258   3.817  30.702   7.653
 6815POPC   NC325259   4.277  26.042   9.453
 6815POPC   PO425260   4.350  26.057   9.153
 6815POPC   GL125261   4.312  26.024   8.853
 6815POPC   GL225262   4.297  25.913   8.853
 6815POPC   C1A25263   4.277  26.030   8.553
 6815POPC   D2A25264   4.320  26.068   8.253
 6815POPC   C3A25265   4.328  25.994   7.953
 6815POPC   C4A25266   4.302  26.018   7.653
 6815POPC   C1B25267   4.205  25.817   8.553
 6815POPC   C2B25268   4.220  25.805   8.253
 6815POPC   C3B25269   4.267  25.751   7.953
 6815POPC   C4B25270   4.206  25.841   7.653
 6816POPC   NC325271  24.471  16.715   9.453
 6816POPC   PO425272  24.474  16.736   9.153
 6816POPC   GL125273  24.467  16.707   8.853
 6816POPC   GL225274  24.574  16.716   8.853
 6816POPC   C1A25275  24.486  16.742   8.553
 6816POPC   D2A25276  24.462  16.754   8.253
 6816POPC   C3A25277  24.510  16.727   7.953
 6816POPC   C4A25278  24.469  16.739   7.653
 6816POPC   C1B25279  24.775  16.757   8.553
 6816POPC   C2B25280  24.742  16.779   8.253
 6816POPC   C3B25281  24.769  16.786   7.953
 6816POPC   C4B25282  24.696  16.797   7.653
 6817POPC   NC325283   2.013  39.195   9.453
 6817POPC   PO425284   2.005  39.196   9.153
 6817POPC   GL125285   2.031  39.187   8.853
 6817POPC   GL225286   1.878  39.283   8.853
 6817POPC   C1A25287   1.992  39.225   8.553
 6817POPC   D2A25288   1.955  39.266   8.253
 6817POPC   C3A25289   2.013  39.255   7.953
 6817POPC   C4A25290   1.961  39.211   7.653
 6817POPC   C1B25291   1.709  39.224   8.553
 6817POPC   C2B25292   1.770  39.289   8.253
 6817POPC   C3B25293   1.780  39.271   7.953
 6817POPC   C4B25294   1.768  39.258   7.653
 6818POPC   NC325295  15.907  43.093   9.453
 6818POPC   PO425296  15.957  43.064   9.153
 6818POPC   GL125297  15.916  43.104   8.853
 6818POPC   GL225298  16.091  43.133   8.853
 6818POPC   C1A25299  15.967  43.143   8.553
 6818POPC   D2A25300  15.952  43.152   8.253
 6818POPC   C3A25301  15.961  43.144   7.953
 6818POPC   C4A25302  15.953  43.078   7.653
 6818POPC   C1B25303  16.220  43.252   8.553
 6818POPC   C2B25304  16.226  43.180   8.253
 6818POPC   C3B25305  16.133  43.201   7.953
 6818POPC   C4B25306  16.213  43.257   7.653
 6819POPC   NC325307  12.067  27.631   9.453
 6819POPC   PO425308  12.038  27.616   9.153
 6819POPC   GL125309  12.119  27.600   8.853
 6819POPC   GL225310  12.058  27.712   8.853
 6819POPC   C1A25311  12.056  27.564   8.553
 6819POPC   D2A25312  12.086  27.558   8.253
 6819POPC   C3A25313  12.027  27.633   7.953
 6819POPC   C4A25314  12.063  27.578   7.653
 6819POPC   C1B25315  12.100  27.794   8.553
 6819POPC   C2B25316  12.127  27.810   8.253
 6819POPC   C3B25317  12.072  27.793   7.953
 6819POPC   C4B25318  12.072  27.847   7.653
 6820POPC   NC325319  22.201  37.641   9.453
 6820POPC   PO425320  22.178  37.681   9.153
 6820POPC   GL125321  22.118  37.723   8.853
 6820POPC   GL225322  22.060  37.596   8.853
 6820POPC   C1A25323  22.150  37.718   8.553
 6820POPC   D2A25324  22.199  37.657   8.253
 6820POPC   C3A25325  22.167  37.653   7.953
 6820POPC   C4A25326  22.157  37.696   7.653
 6820POPC   C1B25327  21.925  37.594   8.553
 6820POPC   C2B25328  21.955  37.547   8.253
 6820POPC   C3B25329  21.897  37.563   7.953
 6820POPC   C4B25330  21.969  37.615   7.653
 6821POPC   NC325331   7.456   7.425   9.453
 6821POPC   PO425332   7.460   7.384   9.153
 6821POPC   GL125333   7.418   7.401   8.853
 6821POPC   GL225334   7.425   7.582   8.853
 6821POPC   C1A25335   7.457   7.438   8.553
 6821POPC   D2A25336   7.379   7.425   8.253
 6821POPC   C3A25337   7.387   7.439   7.953
 6821POPC   C4A25338   7.466   7.468   7.653
 6821POPC   C1B25339   7.481   7.610   8.553
 6821POPC   C2B25340   7.541   7.677   8.253
 6821POPC   C3B25341   7.543   7.651   7.953
 6821POPC   C4B25342   7.470   7.671   7.653
 6822POPC   NC325343  19.098   5.839   9.453
 6822POPC   PO425344  19.102   5.822   9.153
 6822POPC   GL125345  19.020   5.821   8.853
 6822POPC   GL225346  19.213   5.963   8.853
 6822POPC   C1A25347  19.011   5.898   8.553
 6822POPC   D2A25348  19.038   5.842   8.253
 6822POPC   C3A25349  19.077   5.896   7.953
 6822POPC   C4A25350  19.040   5.873   7.653
 6822POPC   C1B25351  19.256   5.964   8.553
 6822POPC   C2B25352  19.289   5.977   8.253
 6822POPC   C3B25353  19.284   5.977   7.953
 6822POPC   C4B25354  19.253   5.950   7.653
 6823POPC   NC325355  21.393  32.253   9.453
 6823POPC   PO425356  21.350  32.208   9.153
 6823POPC   GL125357  21.430  32.284   8.853
 6823POPC   GL225358  21.512  32.330   8.853
 6823POPC   C1A25359  21.390  32.247   8.553
 6823POPC   D2A25360  21.388  32.258   8.253
 6823POPC   C3A25361  21.417  32.286   7.953
 6823POPC   C4A25362  21.432  32.219   7.653
 6823POPC   C1B25363  21.526  32.414   8.553
 6823POPC   C2B25364  21.516  32.451   8.253
 6823POPC   C3B25365  21.530  32.405   7.953
 6823POPC   C4B25366  21.587  32.423   7.653
 6824POPC   NC325367  21.428  22.187   9.453
 6824POPC   PO425368  21.382  22.183   9.153
 6824POPC   GL125369  21.419  22.175   8.853
 6824POPC   GL225370  21.223  22.188   8.853
 6824POPC   C1A25371  21.368  22.133   8.553
 6824POPC   D2A25372  21.353  22.169   8.253
 6824POPC   C3A25373  21.395  22.191   7.953
 6824POPC   C4A25374  21.401  22.157   7.653
 6824POPC   C1B25375  21.104  22.219   8.553
 6824POPC   C2B25376  21.189  22.225   8.253
 6824POPC   C3B25377  21.141  22.229   7.953
 6824POPC   C4B25378  21.136  22.223   7.653
 6825POPC   NC325379   3.548  21.383   9.453
 6825POPC   PO425380   3.495  21.362   9.153
 6825POPC   GL125381   3.554  21.421   8.853
 6825POPC   GL225382   3.529  21.217   8.853
 6825POPC   C1A25383   3.567  21.416   8.553
 6825POPC   D2A25384   3.573  21.432   8.253
 6825POPC   C3A25385   3.582  21.355   7.953
 6825POPC   C4A25386   3.570  21.418   7.653
 6825POPC   C1B25387   3.524  21.161   8.553
 6825POPC   C2B25388   3.517  21.112   8.253
 6825POPC   C3B25389   3.597  21.136   7.953
 6825POPC   C4B25390   3.573  21.102   7.653
 6826POPC   NC325391   7.470   2.024   9.453
 6826POPC   PO425392   7.409   1.943   9.153
 6826POPC   GL125393   7.414   2.013   8.853
 6826POPC   GL225394   7.531   1.963   8.853
 6826POPC   C1A25395   7.374   1.953   8.553
 6826POPC   D2A25396   7.389   1.976   8.253
 6826POPC   C3A25397   7.439   1.995   7.953
 6826POPC   C4A25398   7.396   1.947   7.653
 6826POPC   C1B25399   7.595   1.889   8.553
 6826POPC   C2B25400   7.628   1.872   8.253
 6826POPC   C3B25401   7.649   1.875   7.953
 6826POPC   C4B25402   7.580   1.889   7.653
 6827POPC   NC325403   3.499  37.657   9.453
 6827POPC   PO425404   3.582  37.720   9.153
 6827POPC   GL125405   3.546  37.718   8.853
 6827POPC   GL225406   3.581  37.517   8.853
 6827POPC   C1A25407   3.531  37.686   8.553
 6827POPC   D2A25408   3.556  37.633   8.253
 6827POPC   C3A25409   3.552  37.710   7.953
 6827POPC   C4A25410   3.496  37.722   7.653
 6827POPC   C1B25411   3.524  37.463   8.553
 6827POPC   C2B25412   3.476  37.409   8.253
 6827POPC   C3B25413   3.535  37.400   7.953
 6827POPC   C4B25414   3.485  37.402   7.653
 6828POPC   NC325415  43.074   2.760   9.453
 6828POPC   PO425416  43.084   2.806   9.153
 6828POPC   GL125417  43.077   2.805   8.853
 6828POPC   GL225418  42.989   2.787   8.853
 6828POPC   C1A25419  43.085   2.723   8.553
 6828POPC   D2A25420  43.137   2.812   8.253
 6828POPC   C3A25421  43.123   2.785   7.953
 6828POPC   C4A25422  43.131   2.759   7.653
 6828POPC   C1B25423  42.871   2.872   8.553
 6828POPC   C2B25424  42.861   2.805   8.253
 6828POPC   C3B25425  42.881   2.814   7.953
 6828POPC   C4B25426  42.821   2.802   7.653
 6829POPC   NC325427  21.337  24.490   9.453
 6829POPC   PO425428  21.357  24.454   9.153
 6829POPC   GL125429  21.420  24.480   8.853
 6829POPC   GL225430  21.495  24.577   8.853
 6829POPC   C1A25431  21.426  24.491   8.553
 6829POPC   D2A25432  21.361  24.522   8.253
 6829POPC   C3A25433  21.337  24.505   7.953
 6829POPC   C4A25434  21.379  24.492   7.653
 6829POPC   C1B25435  21.602  24.627   8.553
 6829POPC   C2B25436  21.655  24.574   8.253
 6829POPC   C3B25437  21.580  24.555   7.953
 6829POPC   C4B25438  21.614  24.601   7.653
 6830POPC   NC325439  14.378   3.549   9.453
 6830POPC   PO425440  14.433   3.579   9.153
 6830POPC   GL125441  14.363   3.582   8.853
 6830POPC   GL225442  14.285   3.484   8.853
 6830POPC   C1A25443  14.387   3.580   8.553
 6830POPC   D2A25444  14.438   3.536   8.253
 6830POPC   C3A25445  14.383   3.497   7.953
 6830POPC   C4A25446  14.359   3.530   7.653
 6830POPC   C1B25447  14.183   3.391   8.553
 6830POPC   C2B25448  14.202   3.333   8.253
 6830POPC   C3B25449  14.262   3.413   7.953
 6830POPC   C4B25450  14.167   3.423   7.653
 6831POPC   NC325451  42.313  33.835   9.453
 6831POPC   PO425452  42.318  33.804   9.153
 6831POPC   GL125453  42.335  33.811   8.853
 6831POPC   GL225454  42.271  33.730   8.853
 6831POPC   C1A25455  42.345  33.828   8.553
 6831POPC   D2A25456  42.338  33.806   8.253
 6831POPC   C3A25457  42.298  33.813   7.953
 6831POPC   C4A25458  42.301  33.815   7.653
 6831POPC   C1B25459  42.141  33.643   8.553
 6831POPC   C2B25460  42.144  33.625   8.253
 6831POPC   C3B25461  42.142  33.650   7.953
 6831POPC   C4B25462  42.185  33.659   7.653
 6832POPC   NC325463  40.014  26.801   9.453
 6832POPC   PO425464  40.028  26.796   9.153
 6832POPC   GL125465  39.966  26.823   8.853
 6832POPC   GL225466  39.849  26.765   8.853
 6832POPC   C1A25467  39.961  26.854   8.553
 6832POPC   D2A25468  39.998  26.862   8.253
 6832POPC   C3A25469  40.030  26.811   7.953
 6832POPC   C4A25470  40.003  26.835   7.653
 6832POPC   C1B25471  39.799  26.753   8.553
 6832POPC   C2B25472  39.750  26.739   8.253
 6832POPC   C3B25473  39.743  26.798   7.953
 6832POPC   C4B25474  39.765  26.773   7.653
 6833POPC   NC325475  32.272  34.621   9.453
 6833POPC   PO425476  32.290  34.585   9.153
 6833POPC   GL125477  32.294  34.535   8.853
 6833POPC   GL225478  32.308  34.740   8.853
 6833POPC   C1A25479  32.262  34.591   8.553
 6833POPC   D2A25480  32.238  34.582   8.253
 6833POPC   C3A25481  32.294  34.527   7.953
 6833POPC   C4A25482  32.289  34.616   7.653
 6833POPC   C1B25483  32.307  34.835   8.553
 6833POPC   C2B25484  32.277  34.803   8.253
 6833POPC   C3B25485  32.296  34.782   7.953
 6833POPC   C4B25486  32.329  34.793   7.653
 6834POPC   NC325487  12.883  26.014   9.453
 6834POPC   PO425488  12.877  26.011   9.153
 6834POPC   GL125489  12.844  26.029   8.853
 6834POPC   GL225490  12.901  25.915   8.853
 6834POPC   C1A25491  12.844  26.023   8.553
 6834POPC   D2A25492  12.813  26.048   8.253
 6834POPC   C3A25493  12.885  26.075   7.953
 6834POPC   C4A25494  12.832  26.022   7.653
 6834POPC   C1B25495  12.926  25.839   8.553
 6834POPC   C2B25496  12.962  25.833   8.253
 6834POPC   C3B25497  12.896  25.770   7.953
 6834POPC   C4B25498  12.982  25.769   7.653
 6835POPC   NC325499  19.793   3.549   9.453
 6835POPC   PO425500  19.823   3.571   9.153
 6835POPC   GL125501  19.812   3.530   8.853
 6835POPC   GL225502  19.927   3.578   8.853
 6835POPC   C1A25503  19.860   3.528   8.553
 6835POPC   D2A25504  19.841   3.534   8.253
 6835POPC   C3A25505  19.800   3.562   7.953
 6835POPC   C4A25506  19.875   3.549   7.653
 6835POPC   C1B25507  20.084   3.590   8.553
 6835POPC   C2B25508  20.109   3.558   8.253
 6835POPC   C3B25509  20.068   3.565   7.953
 6835POPC   C4B25510  20.102   3.525   7.653
 6836POPC   NC325511  43.118  30.657   9.453
 6836POPC   PO425512  43.150  30.736   9.153
 6836POPC   GL125513  43.155  30.668   8.853
 6836POPC   GL225514  42.943  30.724   8.853
 6836POPC   C1A25515  43.152  30.744   8.553
 6836POPC   D2A25516  43.111  30.744   8.253
 6836POPC   C3A25517  43.068  30.711   7.953
 6836POPC   C4A25518  43.093  30.671   7.653
 6836POPC   C1B25519  42.904  30.642   8.553
 6836POPC   C2B25520  42.840  30.686   8.253
 6836POPC   C3B25521  42.881  30.627   7.953
 6836POPC   C4B25522  42.828  30.644   7.653
 6837POPC   NC325523  32.975  43.152   9.453
 6837POPC   PO425524  33.054  43.090   9.153
 6837POPC   GL125525  32.990  43.074   8.853
 6837POPC   GL225526  32.963  43.239   8.853
 6837POPC   C1A25527  33.033  43.119   8.553
 6837POPC   D2A25528  33.045  43.119   8.253
 6837POPC   C3A25529  33.061  43.080   7.953
 6837POPC   C4A25530  33.062  43.111   7.653
 6837POPC   C1B25531  32.884  43.328   8.553
 6837POPC   C2B25532  32.929  43.344   8.253
 6837POPC   C3B25533  32.916  43.318   7.953
 6837POPC   C4B25534  32.928  43.334   7.653
 6838POPC   NC325535  14.399  36.167   9.453
 6838POPC   PO425536  14.421  36.152   9.153
 6838POPC   GL125537  14.398  36.118   8.853
 6838POPC   GL225538  14.501  36.065   8.853
 6838POPC   C1A25539  14.423  36.078   8.553
 6838POPC   D2A25540  14.365  36.122   8.253
 6838POPC   C3A25541  14.438  36.108   7.953
 6838POPC   C4A25542  14.363  36.139   7.653
 6838POPC   C1B25543  14.557  35.950   8.553
 6838POPC   C2B25544  14.573  35.906   8.253
 6838POPC   C3B25545  14.603  35.983   7.953
 6838POPC   C4B25546  14.563  35.920   7.653
 6839POPC   NC325547   2.030  33.770   9.453
 6839POPC   PO425548   1.996  33.785   9.153
 6839POPC   GL125549   1.991  33.814   8.853
 6839POPC   GL225550   2.009  33.946   8.853
 6839POPC   C1A25551   2.017  33.828   8.553
 6839POPC   D2A25552   1.973  33.752   8.253
 6839POPC   C3A25553   2.028  33.823   7.953
 6839POPC   C4A25554   2.023  33.845   7.653
 6839POPC   C1B25555   2.025  34.074   8.553
 6839POPC   C2B25556   2.045  34.024   8.253
 6839POPC   C3B25557   1.992  34.016   7.953
 6839POPC   C4B25558   2.008  34.095   7.653
 6840POPC   NC325559   9.721  22.955   9.453
 6840POPC   PO425560   9.707  22.893   9.153
 6840POPC   GL125561   9.729  22.936   8.853
 6840POPC   GL225562   9.893  22.851   8.853
 6840POPC   C1A25563   9.788  22.968   8.553
 6840POPC   D2A25564   9.766  22.932   8.253
 6840POPC   C3A25565   9.761  22.913   7.953
 6840POPC   C4A25566   9.779  22.889   7.653
 6840POPC   C1B25567  10.002  22.890   8.553
 6840POPC   C2B25568   9.946  22.896   8.253
 6840POPC   C3B25569   9.976  22.830   7.953
 6840POPC   C4B25570   9.955  22.814   7.653
 6841POPC   NC325571  44.636  24.450   9.453
 6841POPC   PO425572  44.652  24.522   9.153
 6841POPC   GL125573  44.657  24.506   8.853
 6841POPC   GL225574  44.515  24.386   8.853
 6841POPC   C1A25575  44.684  24.461   8.553
 6841POPC   D2A25576  44.651  24.470   8.253
 6841POPC   C3A25577  44.633  24.497   7.953
 6841POPC   C4A25578  44.680  24.503   7.653
 6841POPC   C1B25579  44.458  24.345   8.553
 6841POPC   C2B25580  44.467  24.355   8.253
 6841POPC   C3B25581  44.470  24.406   7.953
 6841POPC   C4B25582  44.481  24.346   7.653
 6842POPC   NC325583  34.537  27.638   9.453
 6842POPC   PO425584  34.545  27.636   9.153
 6842POPC   GL125585  34.572  27.569   8.853
 6842POPC   GL225586  34.431  27.623   8.853
 6842POPC   C1A25587  34.587  27.595   8.553
 6842POPC   D2A25588  34.606  27.628   8.253
 6842POPC   C3A25589  34.587  27.562   7.953
 6842POPC   C4A25590  34.615  27.544   7.653
 6842POPC   C1B25591  34.338  27.568   8.553
 6842POPC   C2B25592  34.289  27.614   8.253
 6842POPC   C3B25593  34.299  27.594   7.953
 6842POPC   C4B25594  34.310  27.557   7.653
 6843POPC   NC325595  33.046   4.303   9.453
 6843POPC   PO425596  33.008   4.327   9.153
 6843POPC   GL125597  33.004   4.350   8.853
 6843POPC   GL225598  33.022   4.395   8.853
 6843POPC   C1A25599  33.050   4.367   8.553
 6843POPC   D2A25600  33.030   4.327   8.253
 6843POPC   C3A25601  33.064   4.268   7.953
 6843POPC   C4A25602  32.980   4.297   7.653
 6843POPC   C1B25603  33.107   4.567   8.553
 6843POPC   C2B25604  33.107   4.560   8.253
 6843POPC   C3B25605  33.062   4.601   7.953
 6843POPC   C4B25606  33.057   4.574   7.653
 6844POPC   NC325607  36.085   5.124   9.453
 6844POPC   PO425608  36.109   5.045   9.153
 6844POPC   GL125609  36.146   5.089   8.853
 6844POPC   GL225610  35.987   5.082   8.853
 6844POPC   C1A25611  36.146   5.132   8.553
 6844POPC   D2A25612  36.172   5.140   8.253
 6844POPC   C3A25613  36.123   5.110   7.953
 6844POPC   C4A25614  36.082   5.099   7.653
 6844POPC   C1B25615  35.847   5.127   8.553
 6844POPC   C2B25616  35.838   5.130   8.253
 6844POPC   C3B25617  35.916   5.080   7.953
 6844POPC   C4B25618  35.927   5.146   7.653
 6845POPC   NC325619  12.061   8.980   9.453
 6845POPC   PO425620  12.052   8.995   9.153
 6845POPC   GL125621  12.112   8.964   8.853
 6845POPC   GL225622  11.944   8.880   8.853
 6845POPC   C1A25623  12.050   8.989   8.553
 6845POPC   D2A25624  12.068   8.987   8.253
 6845POPC   C3A25625  12.064   9.019   7.953
 6845POPC   C4A25626  12.038   8.940   7.653
 6845POPC   C1B25627  11.880   8.879   8.553
 6845POPC   C2B25628  11.813   8.870   8.253
 6845POPC   C3B25629  11.868   8.873   7.953
 6845POPC   C4B25630  11.875   8.812   7.653
 6846POPC   NC325631   7.458  42.315   9.453
 6846POPC   PO425632   7.450  42.373   9.153
 6846POPC   GL125633   7.445  42.340   8.853
 6846POPC   GL225634   7.306  42.345   8.853
 6846POPC   C1A25635   7.446  42.353   8.553
 6846POPC   D2A25636   7.409  42.382   8.253
 6846POPC   C3A25637   7.421  42.354   7.953
 6846POPC   C4A25638   7.410  42.311   7.653
 6846POPC   C1B25639   7.135  42.299   8.553
 6846POPC   C2B25640   7.181  42.329   8.253
 6846POPC   C3B25641   7.174  42.297   7.953
 6846POPC   C4B25642   7.165  42.284   7.653
 6847POPC   NC325643  14.367  28.403   9.453
 6847POPC   PO425644  14.406  28.340   9.153
 6847POPC   GL125645  14.426  28.321   8.853
 6847POPC   GL225646  14.473  28.373   8.853
 6847POPC   C1A25647  14.422  28.363   8.553
 6847POPC   D2A25648  14.388  28.330   8.253
 6847POPC   C3A25649  14.446  28.417   7.953
 6847POPC   C4A25650  14.409  28.406   7.653
 6847POPC   C1B25651  14.602  28.400   8.553
 6847POPC   C2B25652  14.678  28.439   8.253
 6847POPC   C3B25653  14.620  28.471   7.953
 6847POPC   C4B25654  14.599  28.421   7.653
 6848POPC   NC325655  39.231   2.036   9.453
 6848POPC   PO425656  39.251   2.030   9.153
 6848POPC   GL125657  39.189   1.997   8.853
 6848POPC   GL225658  39.346   2.144   8.853
 6848POPC   C1A25659  39.256   1.999   8.553
 6848POPC   D2A25660  39.237   2.011   8.253
 6848POPC   C3A25661  39.185   2.009   7.953
 6848POPC   C4A25662  39.234   2.039   7.653
 6848POPC   C1B25663  39.377   2.189   8.553
 6848POPC   C2B25664  39.318   2.167   8.253
 6848POPC   C3B25665  39.414   2.251   7.953
 6848POPC   C4B25666  39.352   2.205   7.653
 6849POPC   NC325667  22.945  19.811   9.453
 6849POPC   PO425668  22.965  19.818   9.153
 6849POPC   GL125669  22.898  19.850   8.853
 6849POPC   GL225670  22.986  19.951   8.853
 6849POPC   C1A25671  22.970  19.840   8.553
 6849POPC   D2A25672  22.939  19.829   8.253
 6849POPC   C3A25673  22.979  19.830   7.953
 6849POPC   C4A25674  22.907  19.816   7.653
 6849POPC   C1B25675  23.137  20.050   8.553
 6849POPC   C2B25676  23.092  19.997   8.253
 6849POPC   C3B25677  23.104  20.045   7.953
 6849POPC   C4B25678  23.086  19.996   7.653
 6850POPC   NC325679  32.244  26.789   9.453
 6850POPC   PO425680  32.214  26.821   9.153
 6850POPC   GL125681  32.270  26.796   8.853
 6850POPC   GL225682  32.217  26.986   8.853
 6850POPC   C1A25683  32.228  26.866   8.553
 6850POPC   D2A25684  32.248  26.845   8.253
 6850POPC   C3A25685  32.216  26.824   7.953
 6850POPC   C4A25686  32.205  26.792   7.653
 6850POPC   C1B25687  32.295  27.113   8.553
 6850POPC   C2B25688  32.255  27.068   8.253
 6850POPC   C3B25689  32.247  27.116   7.953
 6850POPC   C4B25690  32.246  27.084   7.653
 6851POPC   NC325691  19.840  16.701   9.453
 6851POPC   PO425692  19.819  16.724   9.153
 6851POPC   GL125693  19.830  16.683   8.853
 6851POPC   GL225694  19.775  16.663   8.853
 6851POPC   C1A25695  19.846  16.773   8.553
 6851POPC   D2A25696  19.850  16.758   8.253
 6851POPC   C3A25697  19.809  16.773   7.953
 6851POPC   C4A25698  19.815  16.760   7.653
 6851POPC   C1B25699  19.651  16.605   8.553
 6851POPC   C2B25700  19.656  16.569   8.253
 6851POPC   C3B25701  19.653  16.536   7.953
 6851POPC   C4B25702  19.598  16.602   7.653
 6852POPC   NC325703  30.685  18.306   9.453
 6852POPC   PO425704  30.741  18.244   9.153
 6852POPC   GL125705  30.684  18.236   8.853
 6852POPC   GL225706  30.643  18.419   8.853
 6852POPC   C1A25707  30.658  18.280   8.553
 6852POPC   D2A25708  30.702  18.262   8.253
 6852POPC   C3A25709  30.692  18.291   7.953
 6852POPC   C4A25710  30.735  18.238   7.653
 6852POPC   C1B25711  30.586  18.508   8.553
 6852POPC   C2B25712  30.535  18.464   8.253
 6852POPC   C3B25713  30.625  18.466   7.953
 6852POPC   C4B25714  30.548  18.464   7.653
 6853POPC   NC325715  43.077  27.547   9.453
 6853POPC   PO425716  43.066  27.573   9.153
 6853POPC   GL125717  43.159  27.595   8.853
 6853POPC   GL225718  43.104  27.675   8.853
 6853POPC   C1A25719  43.159  27.624   8.553
 6853POPC   D2A25720  43.146  27.618   8.253
 6853POPC   C3A25721  43.085  27.626   7.953
 6853POPC   C4A25722  43.113  27.581   7.653
 6853POPC   C1B25723  43.033  27.860   8.553
 6853POPC   C2B25724  43.029  27.815   8.253
 6853POPC   C3B25725  43.028  27.792   7.953
 6853POPC   C4B25726  43.072  27.810   7.653
 6854POPC   NC325727  40.747  19.097   9.453
 6854POPC   PO425728  40.832  19.036   9.153
 6854POPC   GL125729  40.763  19.038   8.853
 6854POPC   GL225730  40.875  19.137   8.853
 6854POPC   C1A25731  40.759  19.107   8.553
 6854POPC   D2A25732  40.745  19.074   8.253
 6854POPC   C3A25733  40.752  19.013   7.953
 6854POPC   C4A25734  40.805  19.076   7.653
 6854POPC   C1B25735  40.921  19.315   8.553
 6854POPC   C2B25736  40.941  19.233   8.253
 6854POPC   C3B25737  40.881  19.273   7.953
 6854POPC   C4B25738  40.869  19.284   7.653
 6855POPC   NC325739  25.234  14.367   9.453
 6855POPC   PO425740  25.233  14.438   9.153
 6855POPC   GL125741  25.286  14.447   8.853
 6855POPC   GL225742  25.291  14.489   8.853
 6855POPC   C1A25743  25.282  14.435   8.553
 6855POPC   D2A25744  25.256  14.437   8.253
 6855POPC   C3A25745  25.310  14.446   7.953
 6855POPC   C4A25746  25.308  14.449   7.653
 6855POPC   C1B25747  25.233  14.702   8.553
 6855POPC   C2B25748  25.253  14.661   8.253
 6855POPC   C3B25749  25.304  14.685   7.953
 6855POPC   C4B25750  25.228  14.620   7.653
 6856POPC   NC325751   6.691   6.681   9.453
 6856POPC   PO425752   6.624   6.666   9.153
 6856POPC   GL125753   6.693   6.605   8.853
 6856POPC   GL225754   6.605   6.481   8.853
 6856POPC   C1A25755   6.671   6.615   8.553
 6856POPC   D2A25756   6.665   6.690   8.253
 6856POPC   C3A25757   6.612   6.690   7.953
 6856POPC   C4A25758   6.659   6.663   7.653
 6856POPC   C1B25759   6.625   6.382   8.553
 6856POPC   C2B25760   6.667   6.361   8.253
 6856POPC   C3B25761   6.652   6.417   7.953
 6856POPC   C4B25762   6.678   6.390   7.653
 6857POPC   NC325763  43.105  44.669   9.453
 6857POPC   PO425764  43.116  44.678   9.153
 6857POPC   GL125765  43.081  44.675   8.853
 6857POPC   GL225766  42.994  44.754   8.853
 6857POPC   C1A25767  43.128  44.619   8.553
 6857POPC   D2A25768  43.087  44.674   8.253
 6857POPC   C3A25769  43.068  44.689   7.953
 6857POPC   C4A25770  43.062  44.667   7.653
 6857POPC   C1B25771  42.925  44.749   8.553
 6857POPC   C2B25772  42.915  44.780   8.253
 6857POPC   C3B25773  42.862  44.819   7.953
 6857POPC   C4B25774  42.873  44.813   7.653
 6858POPC   NC325775   1.255   1.203   9.453
 6858POPC   PO425776   1.258   1.194   9.153
 6858POPC   GL125777   1.181   1.237   8.853
 6858POPC   GL225778   1.326   1.274   8.853
 6858POPC   C1A25779   1.239   1.219   8.553
 6858POPC   D2A25780   1.180   1.181   8.253
 6858POPC   C3A25781   1.191   1.206   7.953
 6858POPC   C4A25782   1.199   1.182   7.653
 6858POPC   C1B25783   1.360   1.359   8.553
 6858POPC   C2B25784   1.387   1.374   8.253
 6858POPC   C3B25785   1.373   1.366   7.953
 6858POPC   C4B25786   1.384   1.401   7.653
 6859POPC   NC325787  42.378  39.968   9.453
 6859POPC   PO425788  42.300  39.982   9.153
 6859POPC   GL125789  42.362  39.975   8.853
 6859POPC   GL225790  42.210  40.004   8.853
 6859POPC   C1A25791  42.329  40.026   8.553
 6859POPC   D2A25792  42.296  40.007   8.253
 6859POPC   C3A25793  42.384  40.033   7.953
 6859POPC   C4A25794  42.346  39.973   7.653
 6859POPC   C1B25795  42.066  40.069   8.553
 6859POPC   C2B25796  42.049  40.081   8.253
 6859POPC   C3B25797  42.119  40.013   7.953
 6859POPC   C4B25798  42.048  40.015   7.653
 6860POPC   NC325799   4.316  34.574   9.453
 6860POPC   PO425800   4.365  34.585   9.153
 6860POPC   GL125801   4.355  34.549   8.853
 6860POPC   GL225802   4.237  34.706   8.853
 6860POPC   C1A25803   4.271  34.575   8.553
 6860POPC   D2A25804   4.289  34.614   8.253
 6860POPC   C3A25805   4.354  34.560   7.953
 6860POPC   C4A25806   4.308  34.565   7.653
 6860POPC   C1B25807   4.176  34.747   8.553
 6860POPC   C2B25808   4.180  34.778   8.253
 6860POPC   C3B25809   4.137  34.753   7.953
 6860POPC   C4B25810   4.092  34.729   7.653
 6861POPC   NC325811   1.943  13.612   9.453
 6861POPC   PO425812   2.016  13.650   9.153
 6861POPC   GL125813   2.036  13.658   8.853
 6861POPC   GL225814   2.011  13.701   8.853
 6861POPC   C1A25815   1.993  13.634   8.553
 6861POPC   D2A25816   1.963  13.585   8.253
 6861POPC   C3A25817   1.944  13.594   7.953
 6861POPC   C4A25818   1.954  13.630   7.653
 6861POPC   C1B25819   2.167  13.858   8.553
 6861POPC   C2B25820   2.160  13.813   8.253
 6861POPC   C3B25821   2.157  13.846   7.953
 6861POPC   C4B25822   2.159  13.843   7.653
 6862POPC   NC325823  14.390   7.393   9.453
 6862POPC   PO425824  14.359   7.431   9.153
 6862POPC   GL125825  14.369   7.399   8.853
 6862POPC   GL225826  14.562   7.401   8.853
 6862POPC   C1A25827  14.414   7.465   8.553
 6862POPC   D2A25828  14.355   7.400   8.253
 6862POPC   C3A25829  14.412   7.406   7.953
 6862POPC   C4A25830  14.424   7.455   7.653
 6862POPC   C1B25831  14.628   7.336   8.553
 6862POPC   C2B25832  14.632   7.402   8.253
 6862POPC   C3B25833  14.674   7.415   7.953
 6862POPC   C4B25834  14.645   7.408   7.653
 6863POPC   NC325835  16.753   1.952   9.453
 6863POPC   PO425836  16.706   2.010   9.153
 6863POPC   GL125837  16.747   1.972   8.853
 6863POPC   GL225838  16.656   1.977   8.853
 6863POPC   C1A25839  16.735   1.941   8.553
 6863POPC   D2A25840  16.719   1.951   8.253
 6863POPC   C3A25841  16.719   1.961   7.953
 6863POPC   C4A25842  16.734   1.956   7.653
 6863POPC   C1B25843  16.483   1.910   8.553
 6863POPC   C2B25844  16.500   1.987   8.253
 6863POPC   C3B25845  16.482   1.980   7.953
 6863POPC   C4B25846  16.461   1.968   7.653
 6864POPC   NC325847  20.573  14.410   9.453
 6864POPC   PO425848  20.589  14.409   9.153
 6864POPC   GL125849  20.607  14.375   8.853
 6864POPC   GL225850  20.691  14.243   8.853
 6864POPC   C1A25851  20.572  14.446   8.553
 6864POPC   D2A25852  20.627  14.397   8.253
 6864POPC   C3A25853  20.571  14.369   7.953
 6864POPC   C4A25854  20.572  14.404   7.653
 6864POPC   C1B25855  20.689  14.166   8.553
 6864POPC   C2B25856  20.683  14.152   8.253
 6864POPC   C3B25857  20.685  14.211   7.953
 6864POPC   C4B25858  20.741  14.177   7.653
 6865POPC   NC325859  24.454  17.557   9.453
 6865POPC   PO425860  24.477  17.488   9.153
 6865POPC   GL125861  24.476  17.466   8.853
 6865POPC   GL225862  24.632  17.488   8.853
 6865POPC   C1A25863  24.527  17.506   8.553
 6865POPC   D2A25864  24.517  17.541   8.253
 6865POPC   C3A25865  24.518  17.488   7.953
 6865POPC   C4A25866  24.446  17.490   7.653
 6865POPC   C1B25867  24.736  17.488   8.553
 6865POPC   C2B25868  24.722  17.482   8.253
 6865POPC   C3B25869  24.692  17.549   7.953
 6865POPC   C4B25870  24.721  17.522   7.653
 6866POPC   NC325871   4.276  22.168   9.453
 6866POPC   PO425872   4.359  22.130   9.153
 6866POPC   GL125873   4.366  22.147   8.853
 6866POPC   GL225874   4.207  22.247   8.853
 6866POPC   C1A25875   4.327  22.192   8.553
 6866POPC   D2A25876   4.316  22.158   8.253
 6866POPC   C3A25877   4.272  22.128   7.953
 6866POPC   C4A25878   4.315  22.176   7.653
 6866POPC   C1B25879   4.165  22.320   8.553
 6866POPC   C2B25880   4.118  22.354   8.253
 6866POPC   C3B25881   4.128  22.381   7.953
 6866POPC   C4B25882   4.133  22.350   7.653
 6867POPC   NC325883   8.936   5.115   9.453
 6867POPC   PO425884   9.001   5.104   9.153
 6867POPC   GL125885   9.005   5.118   8.853
 6867POPC   GL225886   9.040   5.204   8.853
 6867POPC   C1A25887   8.998   5.045   8.553
 6867POPC   D2A25888   8.945   5.100   8.253
 6867POPC   C3A25889   8.983   5.125   7.953
 6867POPC   C4A25890   8.968   5.068   7.653
 6867POPC   C1B25891   9.171   5.298   8.553
 6867POPC   C2B25892   9.166   5.260   8.253
 6867POPC   C3B25893   9.089   5.239   7.953
 6867POPC   C4B25894   9.147   5.307   7.653
 6868POPC   NC325895  36.928  32.221   9.453
 6868POPC   PO425896  36.878  32.295   9.153
 6868POPC   GL125897  36.881  32.232   8.853
 6868POPC   GL225898  36.907  32.324   8.853
 6868POPC   C1A25899  36.925  32.263   8.553
 6868POPC   D2A25900  36.940  32.230   8.253
 6868POPC   C3A25901  36.894  32.224   7.953
 6868POPC   C4A25902  36.887  32.274   7.653
 6868POPC   C1B25903  36.847  32.470   8.553
 6868POPC   C2B25904  36.822  32.453   8.253
 6868POPC   C3B25905  36.822  32.492   7.953
 6868POPC   C4B25906  36.806  32.451   7.653
 6869POPC   NC325907   0.428  23.665   9.453
 6869POPC   PO425908   0.463  23.692   9.153
 6869POPC   GL125909   0.429  23.697   8.853
 6869POPC   GL225910   0.331  23.776   8.853
 6869POPC   C1A25911   0.425  23.683   8.553
 6869POPC   D2A25912   0.400  23.738   8.253
 6869POPC   C3A25913   0.407  23.751   7.953
 6869POPC   C4A25914   0.440  23.698   7.653
 6869POPC   C1B25915   0.176  23.773   8.553
 6869POPC   C2B25916   0.211  23.724   8.253
 6869POPC   C3B25917   0.161  23.767   7.953
 6869POPC   C4B25918   0.188  23.741   7.653
 6870POPC   NC325919  40.764   6.613   9.453
 6870POPC   PO425920  40.808   6.624   9.153
 6870POPC   GL125921  40.759   6.681   8.853
 6870POPC   GL225922  40.868   6.610   8.853
 6870POPC   C1A25923  40.825   6.613   8.553
 6870POPC   D2A25924  40.823   6.623   8.253
 6870POPC   C3A25925  40.813   6.694   7.953
 6870POPC   C4A25926  40.806   6.600   7.653
 6870POPC   C1B25927  41.020   6.623   8.553
 6870POPC   C2B25928  41.014   6.601   8.253
 6870POPC   C3B25929  41.020   6.586   7.953
 6870POPC   C4B25930  41.029   6.563   7.653
 6871POPC   NC325931   3.518  16.734   9.453
 6871POPC   PO425932   3.543  16.749   9.153
 6871POPC   GL125933   3.570  16.742   8.853
 6871POPC   GL225934   3.534  16.848   8.853
 6871POPC   C1A25935   3.571  16.721   8.553
 6871POPC   D2A25936   3.581  16.682   8.253
 6871POPC   C3A25937   3.564  16.726   7.953
 6871POPC   C4A25938   3.568  16.772   7.653
 6871POPC   C1B25939   3.539  16.971   8.553
 6871POPC   C2B25940   3.589  17.019   8.253
 6871POPC   C3B25941   3.566  16.997   7.953
 6871POPC   C4B25942   3.543  16.959   7.653
 6872POPC   NC325943  31.454   3.570   9.453
 6872POPC   PO425944  31.506   3.527   9.153
 6872POPC   GL125945  31.511   3.498   8.853
 6872POPC   GL225946  31.608   3.616   8.853
 6872POPC   C1A25947  31.475   3.525   8.553
 6872POPC   D2A25948  31.439   3.509   8.253
 6872POPC   C3A25949  31.482   3.539   7.953
 6872POPC   C4A25950  31.511   3.551   7.653
 6872POPC   C1B25951  31.602   3.734   8.553
 6872POPC   C2B25952  31.625   3.706   8.253
 6872POPC   C3B25953  31.612   3.718   7.953
 6872POPC   C4B25954  31.631   3.688   7.653
 6873POPC   NC325955  42.285  19.086   9.453
 6873POPC   PO425956  42.371  19.053   9.153
 6873POPC   GL125957  42.285  19.043   8.853
 6873POPC   GL225958  42.283  18.917   8.853
 6873POPC   C1A25959  42.310  19.019   8.553
 6873POPC   D2A25960  42.365  19.100   8.253
 6873POPC   C3A25961  42.343  19.058   7.953
 6873POPC   C4A25962  42.339  19.023   7.653
 6873POPC   C1B25963  42.288  18.779   8.553
 6873POPC   C2B25964  42.311  18.809   8.253
 6873POPC   C3B25965  42.230  18.855   7.953
 6873POPC   C4B25966  42.245  18.801   7.653
 6874POPC   NC325967  21.387  37.689   9.453
 6874POPC   PO425968  21.351  37.631   9.153
 6874POPC   GL125969  21.430  37.646   8.853
 6874POPC   GL225970  21.358  37.795   8.853
 6874POPC   C1A25971  21.424  37.668   8.553
 6874POPC   D2A25972  21.348  37.653   8.253
 6874POPC   C3A25973  21.432  37.684   7.953
 6874POPC   C4A25974  21.384  37.711   7.653
 6874POPC   C1B25975  21.357  37.912   8.553
 6874POPC   C2B25976  21.344  37.949   8.253
 6874POPC   C3B25977  21.349  37.942   7.953
 6874POPC   C4B25978  21.338  37.897   7.653
 6875POPC   NC325979  38.449  16.736   9.453
 6875POPC   PO425980  38.446  16.724   9.153
 6875POPC   GL125981  38.472  16.697   8.853
 6875POPC   GL225982  38.369  16.779   8.853
 6875POPC   C1A25983  38.416  16.699   8.553
 6875POPC   D2A25984  38.433  16.759   8.253
 6875POPC   C3A25985  38.445  16.725   7.953
 6875POPC   C4A25986  38.417  16.754   7.653
 6875POPC   C1B25987  38.293  16.884   8.553
 6875POPC   C2B25988  38.248  16.871   8.253
 6875POPC   C3B25989  38.317  16.893   7.953
 6875POPC   C4B25990  38.267  16.884   7.653
 6876POPC   NC325991  24.508  12.097   9.453
 6876POPC   PO425992  24.499  12.065   9.153
 6876POPC   GL125993  24.441  12.121   8.853
 6876POPC   GL225994  24.503  11.944   8.853
 6876POPC   C1A25995  24.477  12.035   8.553
 6876POPC   D2A25996  24.490  12.106   8.253
 6876POPC   C3A25997  24.514  12.102   7.953
 6876POPC   C4A25998  24.446  12.082   7.653
 6876POPC   C1B25999  24.479  11.876   8.553
 6876POPC   C2B26000  24.476  11.866   8.253
 6876POPC   C3B26001  24.488  11.819   7.953
 6876POPC   C4B26002  24.469  11.816   7.653
 6877POPC   NC326003  19.086  29.096   9.453
 6877POPC   PO426004  19.089  29.133   9.153
 6877POPC   GL126005  19.020  29.185   8.853
 6877POPC   GL226006  18.938  29.109   8.853
 6877POPC   C1A26007  19.089  29.126   8.553
 6877POPC   D2A26008  19.055  29.156   8.253
 6877POPC   C3A26009  19.035  29.145   7.953
 6877POPC   C4A26010  19.060  29.157   7.653
 6877POPC   C1B26011  18.847  29.006   8.553
 6877POPC   C2B26012  18.831  29.030   8.253
 6877POPC   C3B26013  18.887  29.007   7.953
 6877POPC   C4B26014  18.877  28.962   7.653
 6878POPC   NC326015  36.091  28.381   9.453
 6878POPC   PO426016  36.098  28.372   9.153
 6878POPC   GL126017  36.154  28.325   8.853
 6878POPC   GL226018  36.279  28.300   8.853
 6878POPC   C1A26019  36.166  28.411   8.553
 6878POPC   D2A26020  36.147  28.329   8.253
 6878POPC   C3A26021  36.138  28.383   7.953
 6878POPC   C4A26022  36.160  28.328   7.653
 6878POPC   C1B26023  36.356  28.302   8.553
 6878POPC   C2B26024  36.318  28.274   8.253
 6878POPC   C3B26025  36.348  28.278   7.953
 6878POPC   C4B26026  36.338  28.312   7.653
 6879POPC   NC326027  43.928  22.908   9.453
 6879POPC   PO426028  43.847  22.940   9.153
 6879POPC   GL126029  43.841  22.935   8.853
 6879POPC   GL226030  43.968  22.806   8.853
 6879POPC   C1A26031  43.839  22.953   8.553
 6879POPC   D2A26032  43.880  22.890   8.253
 6879POPC   C3A26033  43.856  22.911   7.953
 6879POPC   C4A26034  43.904  22.931   7.653
 6879POPC   C1B26035  43.947  22.710   8.553
 6879POPC   C2B26036  43.956  22.715   8.253
 6879POPC   C3B26037  43.967  22.708   7.953
 6879POPC   C4B26038  44.001  22.692   7.653
 6880POPC   NC326039  19.041   2.764   9.453
 6880POPC   PO426040  19.014   2.812   9.153
 6880POPC   GL126041  19.092   2.766   8.853
 6880POPC   GL226042  18.898   2.817   8.853
 6880POPC   C1A26043  19.053   2.771   8.553
 6880POPC   D2A26044  19.041   2.791   8.253
 6880POPC   C3A26045  19.100   2.783   7.953
 6880POPC   C4A26046  19.066   2.797   7.653
 6880POPC   C1B26047  18.847   2.832   8.553
 6880POPC   C2B26048  18.789   2.863   8.253
 6880POPC   C3B26049  18.805   2.867   7.953
 6880POPC   C4B26050  18.856   2.828   7.653
 6881POPC   NC326051  26.841   8.177   9.453
 6881POPC   PO426052  26.804   8.169   9.153
 6881POPC   GL126053  26.828   8.168   8.853
 6881POPC   GL226054  26.863   8.249   8.853
 6881POPC   C1A26055  26.862   8.180   8.553
 6881POPC   D2A26056  26.785   8.182   8.253
 6881POPC   C3A26057  26.818   8.149   7.953
 6881POPC   C4A26058  26.817   8.243   7.653
 6881POPC   C1B26059  27.025   8.321   8.553
 6881POPC   C2B26060  27.008   8.338   8.253
 6881POPC   C3B26061  26.994   8.365   7.953
 6881POPC   C4B26062  26.993   8.323   7.653
 6882POPC   NC326063  22.937  15.181   9.453
 6882POPC   PO426064  22.956  15.207   9.153
 6882POPC   GL126065  22.900  15.220   8.853
 6882POPC   GL226066  23.064  15.185   8.853
 6882POPC   C1A26067  22.981  15.131   8.553
 6882POPC   D2A26068  22.952  15.229   8.253
 6882POPC   C3A26069  22.950  15.171   7.953
 6882POPC   C4A26070  22.963  15.143   7.653
 6882POPC   C1B26071  23.200  15.246   8.553
 6882POPC   C2B26072  23.223  15.238   8.253
 6882POPC   C3B26073  23.157  15.239   7.953
 6882POPC   C4B26074  23.158  15.217   7.653
 6883POPC   NC326075  18.275  17.462   9.453
 6883POPC   PO426076  18.316  17.514   9.153
 6883POPC   GL126077  18.288  17.482   8.853
 6883POPC   GL226078  18.198  17.566   8.853
 6883POPC   C1A26079  18.256  17.488   8.553
 6883POPC   D2A26080  18.325  17.520   8.253
 6883POPC   C3A26081  18.254  17.521   7.953
 6883POPC   C4A26082  18.274  17.484   7.653
 6883POPC   C1B26083  18.169  17.696   8.553
 6883POPC   C2B26084  18.088  17.663   8.253
 6883POPC   C3B26085  18.163  17.691   7.953
 6883POPC   C4B26086  18.105  17.712   7.653
 6884POPC   NC326087   6.678   0.463   9.453
 6884POPC   PO426088   6.637   0.406   9.153
 6884POPC   GL126089   6.637   0.440   8.853
 6884POPC   GL226090   6.776   0.448   8.853
 6884POPC   C1A26091   6.662   0.396   8.553
 6884POPC   D2A26092   6.616   0.438   8.253
 6884POPC   C3A26093   6.621   0.417   7.953
 6884POPC   C4A26094   6.692   0.461   7.653
 6884POPC   C1B26095   6.900   0.524   8.553
 6884POPC   C2B26096   6.895   0.555   8.253
 6884POPC   C3B26097   6.883   0.515   7.953
 6884POPC   C4B26098   6.858   0.564   7.653
 6885POPC   NC326099  25.257  43.115   9.453
 6885POPC   PO426100  25.299  43.152   9.153
 6885POPC   GL126101  25.217  43.145   8.853
 6885POPC   GL226102  25.207  43.192   8.853
 6885POPC   C1A26103  25.219  43.133   8.553
 6885POPC   D2A26104  25.247  43.066   8.253
 6885POPC   C3A26105  25.290  43.139   7.953
 6885POPC   C4A26106  25.217  43.120   7.653
 6885POPC   C1B26107  25.023  43.234   8.553
 6885POPC   C2B26108  25.089  43.269   8.253
 6885POPC   C3B26109  25.059  43.259   7.953
 6885POPC   C4B26110  25.084  43.212   7.653
 6886POPC   NC326111  13.585  26.846   9.453
 6886POPC   PO426112  13.579  26.797   9.153
 6886POPC   GL126113  13.583  26.853   8.853
 6886POPC   GL226114  13.589  26.663   8.853
 6886POPC   C1A26115  13.653  26.811   8.553
 6886POPC   D2A26116  13.631  26.856   8.253
 6886POPC   C3A26117  13.633  26.783   7.953
 6886POPC   C4A26118  13.658  26.805   7.653
 6886POPC   C1B26119  13.491  26.602   8.553
 6886POPC   C2B26120  13.487  26.648   8.253
 6886POPC   C3B26121  13.496  26.633   7.953
 6886POPC   C4B26122  13.533  26.559   7.653
 6887POPC   NC326123  36.948  33.805   9.453
 6887POPC   PO426124  36.935  33.842   9.153
 6887POPC   GL126125  36.919  33.792   8.853
 6887POPC   GL226126  36.933  33.674   8.853
 6887POPC   C1A26127  36.930  33.787   8.553
 6887POPC   D2A26128  36.946  33.814   8.253
 6887POPC   C3A26129  36.904  33.783   7.953
 6887POPC   C4A26130  36.941  33.813   7.653
 6887POPC   C1B26131  36.993  33.583   8.553
 6887POPC   C2B26132  36.915  33.561   8.253
 6887POPC   C3B26133  36.966  33.541   7.953
 6887POPC   C4B26134  36.915  33.579   7.653
 6888POPC   NC326135  35.326  23.744   9.453
 6888POPC   PO426136  35.335  23.686   9.153
 6888POPC   GL126137  35.400  23.704   8.853
 6888POPC   GL226138  35.483  23.748   8.853
 6888POPC   C1A26139  35.351  23.670   8.553
 6888POPC   D2A26140  35.349  23.686   8.253
 6888POPC   C3A26141  35.343  23.762   7.953
 6888POPC   C4A26142  35.332  23.711   7.653
 6888POPC   C1B26143  35.509  23.870   8.553
 6888POPC   C2B26144  35.495  23.855   8.253
 6888POPC   C3B26145  35.523  23.838   7.953
 6888POPC   C4B26146  35.557  23.858   7.653
 6889POPC   NC326147  33.830  25.270   9.453
 6889POPC   PO426148  33.836  25.237   9.153
 6889POPC   GL126149  33.758  25.280   8.853
 6889POPC   GL226150  33.860  25.376   8.853
 6889POPC   C1A26151  33.813  25.307   8.553
 6889POPC   D2A26152  33.776  25.220   8.253
 6889POPC   C3A26153  33.774  25.304   7.953
 6889POPC   C4A26154  33.847  25.276   7.653
 6889POPC   C1B26155  34.035  25.454   8.553
 6889POPC   C2B26156  33.953  25.394   8.253
 6889POPC   C3B26157  33.950  25.467   7.953
 6889POPC   C4B26158  33.952  25.399   7.653
 6890POPC   NC326159  43.879  24.507   9.453
 6890POPC   PO426160  43.910  24.497   9.153
 6890POPC   GL126161  43.922  24.449   8.853
 6890POPC   GL226162  43.896  24.316   8.853
 6890POPC   C1A26163  43.872  24.487   8.553
 6890POPC   D2A26164  43.916  24.520   8.253
 6890POPC   C3A26165  43.933  24.512   7.953
 6890POPC   C4A26166  43.930  24.485   7.653
 6890POPC   C1B26167  43.911  24.202   8.553
 6890POPC   C2B26168  43.908  24.284   8.253
 6890POPC   C3B26169  43.862  24.237   7.953
 6890POPC   C4B26170  43.915  24.191   7.653
 6891POPC   NC326171  21.431  12.818   9.453
 6891POPC   PO426172  21.389  12.896   9.153
 6891POPC   GL126173  21.390  12.819   8.853
 6891POPC   GL226174  21.273  12.850   8.853
 6891POPC   C1A26175  21.383  12.816   8.553
 6891POPC   D2A26176  21.368  12.856   8.253
 6891POPC   C3A26177  21.336  12.880   7.953
 6891POPC   C4A26178  21.392  12.807   7.653
 6891POPC   C1B26179  21.171  12.829   8.553
 6891POPC   C2B26180  21.138  12.825   8.253
 6891POPC   C3B26181  21.162  12.844   7.953
 6891POPC   C4B26182  21.161  12.781   7.653
 6892POPC   NC326183  19.087  19.810   9.453
 6892POPC   PO426184  19.070  19.858   9.153
 6892POPC   GL126185  19.041  19.815   8.853
 6892POPC   GL226186  19.038  19.728   8.853
 6892POPC   C1A26187  19.021  19.870   8.553
 6892POPC   D2A26188  19.026  19.847   8.253
 6892POPC   C3A26189  19.046  19.830   7.953
 6892POPC   C4A26190  19.079  19.816   7.653
 6892POPC   C1B26191  18.982  19.552   8.553
 6892POPC   C2B26192  19.042  19.580   8.253
 6892POPC   C3B26193  19.074  19.585   7.953
 6892POPC   C4B26194  19.069  19.553   7.653
 6893POPC   NC326195   5.085  42.332   9.453
 6893POPC   PO426196   5.062  42.328   9.153
 6893POPC   GL126197   5.078  42.293   8.853
 6893POPC   GL226198   5.200  42.382   8.853
 6893POPC   C1A26199   5.070  42.325   8.553
 6893POPC   D2A26200   5.106  42.362   8.253
 6893POPC   C3A26201   5.098  42.379   7.953
 6893POPC   C4A26202   5.121  42.335   7.653
 6893POPC   C1B26203   5.300  42.527   8.553
 6893POPC   C2B26204   5.249  42.537   8.253
 6893POPC   C3B26205   5.276  42.485   7.953
 6893POPC   C4B26206   5.282  42.485   7.653
 6894POPC   NC326207  25.240  27.607   9.453
 6894POPC   PO426208  25.283  27.599   9.153
 6894POPC   GL126209  25.286  27.592   8.853
 6894POPC   GL226210  25.173  27.637   8.853
 6894POPC   C1A26211  25.277  27.576   8.553
 6894POPC   D2A26212  25.303  27.544   8.253
 6894POPC   C3A26213  25.306  27.546   7.953
 6894POPC   C4A26214  25.301  27.634   7.653
 6894POPC   C1B26215  25.026  27.798   8.553
 6894POPC   C2B26216  25.112  27.787   8.253
 6894POPC   C3B26217  25.116  27.788   7.953
 6894POPC   C4B26218  25.030  27.727   7.653
 6895POPC   NC326219  33.840  30.702   9.453
 6895POPC   PO426220  33.826  30.667   9.153
 6895POPC   GL126221  33.825  30.674   8.853
 6895POPC   GL226222  33.740  30.639   8.853
 6895POPC   C1A26223  33.818  30.736   8.553
 6895POPC   D2A26224  33.832  30.724   8.253
 6895POPC   C3A26225  33.757  30.734   7.953
 6895POPC   C4A26226  33.835  30.686   7.653
 6895POPC   C1B26227  33.682  30.535   8.553
 6895POPC   C2B26228  33.678  30.467   8.253
 6895POPC   C3B26229  33.667  30.512   7.953
 6895POPC   C4B26230  33.628  30.547   7.653
 6896POPC   NC326231   8.960  23.673   9.453
 6896POPC   PO426232   9.018  23.725   9.153
 6896POPC   GL126233   8.984  23.701   8.853
 6896POPC   GL226234   8.855  23.839   8.853
 6896POPC   C1A26235   8.944  23.756   8.553
 6896POPC   D2A26236   8.982  23.760   8.253
 6896POPC   C3A26237   8.961  23.705   7.953
 6896POPC   C4A26238   8.930  23.738   7.653
 6896POPC   C1B26239   8.759  23.860   8.553
 6896POPC   C2B26240   8.809  23.876   8.253
 6896POPC   C3B26241   8.801  23.872   7.953
 6896POPC   C4B26242   8.814  23.864   7.653
 6897POPC   NC326243  41.570   8.153   9.453
 6897POPC   PO426244  41.598   8.230   9.153
 6897POPC   GL126245  41.548   8.234   8.853
 6897POPC   GL226246  41.638   8.333   8.853
 6897POPC   C1A26247  41.543   8.209   8.553
 6897POPC   D2A26248  41.560   8.210   8.253
 6897POPC   C3A26249  41.609   8.213   7.953
 6897POPC   C4A26250  41.529   8.185   7.653
 6897POPC   C1B26251  41.696   8.414   8.553
 6897POPC   C2B26252  41.716   8.426   8.253
 6897POPC   C3B26253  41.713   8.436   7.953
 6897POPC   C4B26254  41.715   8.411   7.653
 6898POPC   NC326255  24.505  14.436   9.453
 6898POPC   PO426256  24.492  14.410   9.153
 6898POPC   GL126257  24.452  14.396   8.853
 6898POPC   GL226258  24.574  14.293   8.853
 6898POPC   C1A26259  24.519  14.381   8.553
 6898POPC   D2A26260  24.449  14.408   8.253
 6898POPC   C3A26261  24.507  14.428   7.953
 6898POPC   C4A26262  24.494  14.395   7.653
 6898POPC   C1B26263  24.556  14.206   8.553
 6898POPC   C2B26264  24.639  14.170   8.253
 6898POPC   C3B26265  24.630  14.185   7.953
 6898POPC   C4B26266  24.600  14.133   7.653
 6899POPC   NC326267  34.581  33.820   9.453
 6899POPC   PO426268  34.549  33.767   9.153
 6899POPC   GL126269  34.546  33.807   8.853
 6899POPC   GL226270  34.498  33.770   8.853
 6899POPC   C1A26271  34.556  33.834   8.553
 6899POPC   D2A26272  34.590  33.772   8.253
 6899POPC   C3A26273  34.574  33.832   7.953
 6899POPC   C4A26274  34.555  33.779   7.653
 6899POPC   C1B26275  34.323  33.784   8.553
 6899POPC   C2B26276  34.288  33.787   8.253
 6899POPC   C3B26277  34.356  33.803   7.953
 6899POPC   C4B26278  34.324  33.851   7.653
 6900POPC   NC326279  34.574   1.978   9.453
 6900POPC   PO426280  34.618   2.005   9.153
 6900POPC   GL126281  34.623   2.040   8.853
 6900POPC   GL226282  34.576   2.153   8.853
 6900POPC   C1A26283  34.584   1.963   8.553
 6900POPC   D2A26284  34.527   1.960   8.253
 6900POPC   C3A26285  34.609   1.991   7.953
 6900POPC   C4A26286  34.558   2.008   7.653
 6900POPC   C1B26287  34.587   2.187   8.553
 6900POPC   C2B26288  34.628   2.269   8.253
 6900POPC   C3B26289  34.603   2.234   7.953
 6900POPC   C4B26290  34.594   2.231   7.653
 6901POPC   NC326291   2.789  41.569   9.453
 6901POPC   PO426292   2.716  41.515   9.153
 6901POPC   GL126293   2.788  41.516   8.853
 6901POPC   GL226294   2.616  41.556   8.853
 6901POPC   C1A26295   2.782  41.527   8.553
 6901POPC   D2A26296   2.770  41.580   8.253
 6901POPC   C3A26297   2.805  41.578   7.953
 6901POPC   C4A26298   2.760  41.538   7.653
 6901POPC   C1B26299   2.563  41.492   8.553
 6901POPC   C2B26300   2.537  41.491   8.253
 6901POPC   C3B26301   2.555  41.458   7.953
 6901POPC   C4B26302   2.539  41.450   7.653
 6902POPC   NC326303   1.940   0.421   9.453
 6902POPC   PO426304   2.023   0.454   9.153
 6902POPC   GL126305   1.973   0.402   8.853
 6902POPC   GL226306   1.884   0.537   8.853
 6902POPC   C1A26307   2.000   0.415   8.553
 6902POPC   D2A26308   2.030   0.431   8.253
 6902POPC   C3A26309   1.960   0.446   7.953
 6902POPC   C4A26310   2.039   0.447   7.653
 6902POPC   C1B26311   1.820   0.603   8.553
 6902POPC   C2B26312   1.817   0.515   8.253
 6902POPC   C3B26313   1.752   0.602   7.953
 6902POPC   C4B26314   1.804   0.575   7.653
 6903POPC   NC326315   0.434  10.517   9.453
 6903POPC   PO426316   0.458  10.494   9.153
 6903POPC   GL126317   0.421  10.483   8.853
 6903POPC   GL226318   0.575  10.516   8.853
 6903POPC   C1A26319   0.445  10.533   8.553
 6903POPC   D2A26320   0.432  10.506   8.253
 6903POPC   C3A26321   0.418  10.554   7.953
 6903POPC   C4A26322   0.407  10.502   7.653
 6903POPC   C1B26323   0.691  10.408   8.553
 6903POPC   C2B26324   0.663  10.442   8.253
 6903POPC   C3B26325   0.663  10.406   7.953
 6903POPC   C4B26326   0.657  10.455   7.653
 6904POPC   NC326327  32.298  27.641   9.453
 6904POPC   PO426328  32.228  27.624   9.153
 6904POPC   GL126329  32.212  27.571   8.853
 6904POPC   GL226330  32.198  27.672   8.853
 6904POPC   C1A26331  32.285  27.637   8.553
 6904POPC   D2A26332  32.215  27.588   8.253
 6904POPC   C3A26333  32.237  27.576   7.953
 6904POPC   C4A26334  32.267  27.592   7.653
 6904POPC   C1B26335  32.091  27.721   8.553
 6904POPC   C2B26336  32.042  27.760   8.253
 6904POPC   C3B26337  32.026  27.716   7.953
 6904POPC   C4B26338  32.039  27.730   7.653
 6905POPC   NC326339  36.114  29.171   9.453
 6905POPC   PO426340  36.122  29.132   9.153
 6905POPC   GL126341  36.110  29.096   8.853
 6905POPC   GL226342  36.020  29.218   8.853
 6905POPC   C1A26343  36.082  29.133   8.553
 6905POPC   D2A26344  36.105  29.121   8.253
 6905POPC   C3A26345  36.097  29.107   7.953
 6905POPC   C4A26346  36.112  29.098   7.653
 6905POPC   C1B26347  35.969  29.297   8.553
 6905POPC   C2B26348  35.968  29.251   8.253
 6905POPC   C3B26349  35.970  29.268   7.953
 6905POPC   C4B26350  35.890  29.273   7.653
 6906POPC   NC326351  32.219  33.777   9.453
 6906POPC   PO426352  32.264  33.758   9.153
 6906POPC   GL126353  32.234  33.757   8.853
 6906POPC   GL226354  32.405  33.789   8.853
 6906POPC   C1A26355  32.230  33.828   8.553
 6906POPC   D2A26356  32.238  33.844   8.253
 6906POPC   C3A26357  32.239  33.848   7.953
 6906POPC   C4A26358  32.249  33.823   7.653
 6906POPC   C1B26359  32.536  33.795   8.553
 6906POPC   C2B26360  32.520  33.764   8.253
 6906POPC   C3B26361  32.519  33.812   7.953
 6906POPC   C4B26362  32.527  33.764   7.653
 6907POPC   NC326363  28.344  37.652   9.453
 6907POPC   PO426364  28.373  37.655   9.153
 6907POPC   GL126365  28.388  37.678   8.853
 6907POPC   GL226366  28.458  37.778   8.853
 6907POPC   C1A26367  28.409  37.716   8.553
 6907POPC   D2A26368  28.352  37.642   8.253
 6907POPC   C3A26369  28.344  37.699   7.953
 6907POPC   C4A26370  28.395  37.691   7.653
 6907POPC   C1B26371  28.473  37.922   8.553
 6907POPC   C2B26372  28.548  37.897   8.253
 6907POPC   C3B26373  28.461  37.853   7.953
 6907POPC   C4B26374  28.559  37.876   7.653
 6908POPC   NC326375   2.740  36.096   9.453
 6908POPC   PO426376   2.812  36.084   9.153
 6908POPC   GL126377   2.736  36.150   8.853
 6908POPC   GL226378   2.822  36.094   8.853
 6908POPC   C1A26379   2.801  36.120   8.553
 6908POPC   D2A26380   2.723  36.108   8.253
 6908POPC   C3A26381   2.725  36.164   7.953
 6908POPC   C4A26382   2.736  36.080   7.653
 6908POPC   C1B26383   3.003  35.936   8.553
 6908POPC   C2B26384   2.964  35.948   8.253
 6908POPC   C3B26385   2.969  36.015   7.953
 6908POPC   C4B26386   2.940  35.990   7.653
 6909POPC   NC326387  41.519   9.746   9.453
 6909POPC   PO426388  41.592   9.726   9.153
 6909POPC   GL126389  41.542   9.737   8.853
 6909POPC   GL226390  41.514   9.669   8.853
 6909POPC   C1A26391  41.598   9.786   8.553
 6909POPC   D2A26392  41.584   9.782   8.253
 6909POPC   C3A26393  41.517   9.728   7.953
 6909POPC   C4A26394  41.586   9.747   7.653
 6909POPC   C1B26395  41.417   9.530   8.553
 6909POPC   C2B26396  41.469   9.472   8.253
 6909POPC   C3B26397  41.420   9.489   7.953
 6909POPC   C4B26398  41.462   9.517   7.653
 6910POPC   NC326399  22.943   2.795   9.453
 6910POPC   PO426400  22.937   2.783   9.153
 6910POPC   GL126401  22.921   2.773   8.853
 6910POPC   GL226402  22.850   2.850   8.853
 6910POPC   C1A26403  22.971   2.719   8.553
 6910POPC   D2A26404  22.899   2.720   8.253
 6910POPC   C3A26405  22.957   2.751   7.953
 6910POPC   C4A26406  22.949   2.790   7.653
 6910POPC   C1B26407  22.727   2.975   8.553
 6910POPC   C2B26408  22.760   2.946   8.253
 6910POPC   C3B26409  22.799   2.968   7.953
 6910POPC   C4B26410  22.754   2.894   7.653
 6911POPC   NC326411  36.880  12.845   9.453
 6911POPC   PO426412  36.935  12.815   9.153
 6911POPC   GL126413  36.913  12.896   8.853
 6911POPC   GL226414  37.046  12.789   8.853
 6911POPC   C1A26415  36.932  12.815   8.553
 6911POPC   D2A26416  36.873  12.855   8.253
 6911POPC   C3A26417  36.878  12.892   7.953
 6911POPC   C4A26418  36.900  12.841   7.653
 6911POPC   C1B26419  37.085  12.762   8.553
 6911POPC   C2B26420  37.067  12.761   8.253
 6911POPC   C3B26421  37.110  12.727   7.953
 6911POPC   C4B26422  37.070  12.740   7.653
 6912POPC   NC326423  42.308  13.607   9.453
 6912POPC   PO426424  42.362  13.589   9.153
 6912POPC   GL126425  42.366  13.590   8.853
 6912POPC   GL226426  42.324  13.502   8.853
 6912POPC   C1A26427  42.344  13.620   8.553
 6912POPC   D2A26428  42.374  13.607   8.253
 6912POPC   C3A26429  42.289  13.660   7.953
 6912POPC   C4A26430  42.294  13.634   7.653
 6912POPC   C1B26431  42.379  13.348   8.553
 6912POPC   C2B26432  42.393  13.390   8.253
 6912POPC   C3B26433  42.362  13.392   7.953
 6912POPC   C4B26434  42.420  13.387   7.653
 6913POPC   NC326435   7.377   0.409   9.453
 6913POPC   PO426436   7.468   0.448   9.153
 6913POPC   GL126437   7.418   0.392   8.853
 6913POPC   GL226438   7.539   0.552   8.853
 6913POPC   C1A26439   7.392   0.394   8.553
 6913POPC   D2A26440   7.400   0.413   8.253
 6913POPC   C3A26441   7.425   0.450   7.953
 6913POPC   C4A26442   7.394   0.396   7.653
 6913POPC   C1B26443   7.575   0.663   8.553
 6913POPC   C2B26444   7.639   0.569   8.253
 6913POPC   C3B26445   7.591   0.634   7.953
 6913POPC   C4B26446   7.588   0.601   7.653
 6914POPC   NC326447  24.499  35.324   9.453
 6914POPC   PO426448  24.466  35.348   9.153
 6914POPC   GL126449  24.470  35.381   8.853
 6914POPC   GL226450  24.410  35.481   8.853
 6914POPC   C1A26451  24.481  35.373   8.553
 6914POPC   D2A26452  24.505  35.309   8.253
 6914POPC   C3A26453  24.459  35.400   7.953
 6914POPC   C4A26454  24.524  35.358   7.653
 6914POPC   C1B26455  24.350  35.581   8.553
 6914POPC   C2B26456  24.365  35.534   8.253
 6914POPC   C3B26457  24.352  35.559   7.953
 6914POPC   C4B26458  24.374  35.523   7.653
 6915POPC   NC326459  16.762  26.859   9.453
 6915POPC   PO426460  16.700  26.796   9.153
 6915POPC   GL126461  16.776  26.797   8.853
 6915POPC   GL226462  16.601  26.787   8.853
 6915POPC   C1A26463  16.721  26.770   8.553
 6915POPC   D2A26464  16.757  26.820   8.253
 6915POPC   C3A26465  16.745  26.817   7.953
 6915POPC   C4A26466  16.723  26.864   7.653
 6915POPC   C1B26467  16.498  26.843   8.553
 6915POPC   C2B26468  16.481  26.827   8.253
 6915POPC   C3B26469  16.531  26.786   7.953
 6915POPC   C4B26470  16.453  26.831   7.653
 6916POPC   NC326471  43.899   1.251   9.453
 6916POPC   PO426472  43.892   1.244   9.153
 6916POPC   GL126473  43.886   1.234   8.853
 6916POPC   GL226474  43.882   1.296   8.853
 6916POPC   C1A26475  43.929   1.221   8.553
 6916POPC   D2A26476  43.891   1.209   8.253
 6916POPC   C3A26477  43.882   1.231   7.953
 6916POPC   C4A26478  43.934   1.204   7.653
 6916POPC   C1B26479  43.940   1.471   8.553
 6916POPC   C2B26480  43.907   1.473   8.253
 6916POPC   C3B26481  43.871   1.475   7.953
 6916POPC   C4B26482  43.923   1.414   7.653
 6917POPC   NC326483   8.958  37.654   9.453
 6917POPC   PO426484   8.930  37.707   9.153
 6917POPC   GL126485   8.923  37.647   8.853
 6917POPC   GL226486   8.981  37.849   8.853
 6917POPC   C1A26487   8.975  37.705   8.553
 6917POPC   D2A26488   9.012  37.670   8.253
 6917POPC   C3A26489   8.957  37.721   7.953
 6917POPC   C4A26490   8.953  37.725   7.653
 6917POPC   C1B26491   8.971  37.954   8.553
 6917POPC   C2B26492   8.943  37.915   8.253
 6917POPC   C3B26493   9.031  37.912   7.953
 6917POPC   C4B26494   8.981  37.951   7.653
 6918POPC   NC326495  40.747  26.816   9.453
 6918POPC   PO426496  40.746  26.812   9.153
 6918POPC   GL126497  40.820  26.826   8.853
 6918POPC   GL226498  40.867  26.706   8.853
 6918POPC   C1A26499  40.807  26.817   8.553
 6918POPC   D2A26500  40.793  26.843   8.253
 6918POPC   C3A26501  40.785  26.861   7.953
 6918POPC   C4A26502  40.826  26.786   7.653
 6918POPC   C1B26503  41.010  26.697   8.553
 6918POPC   C2B26504  41.024  26.719   8.253
 6918POPC   C3B26505  41.025  26.655   7.953
 6918POPC   C4B26506  40.975  26.690   7.653
 6919POPC   NC326507  43.151  43.138   9.453
 6919POPC   PO426508  43.109  43.123   9.153
 6919POPC   GL126509  43.075  43.124   8.853
 6919POPC   GL226510  42.942  43.176   8.853
 6919POPC   C1A26511  43.150  43.111   8.553
 6919POPC   D2A26512  43.076  43.142   8.253
 6919POPC   C3A26513  43.121  43.092   7.953
 6919POPC   C4A26514  43.119  43.109   7.653
 6919POPC   C1B26515  42.907  43.136   8.553
 6919POPC   C2B26516  42.891  43.195   8.253
 6919POPC   C3B26517  42.872  43.130   7.953
 6919POPC   C4B26518  42.816  43.183   7.653
 6920POPC   NC326519   1.209  14.362   9.453
 6920POPC   PO426520   1.238  14.415   9.153
 6920POPC   GL126521   1.187  14.386   8.853
 6920POPC   GL226522   1.096  14.297   8.853
 6920POPC   C1A26523   1.207  14.395   8.553
 6920POPC   D2A26524   1.182  14.452   8.253
 6920POPC   C3A26525   1.245  14.401   7.953
 6920POPC   C4A26526   1.245  14.409   7.653
 6920POPC   C1B26527   1.082  14.212   8.553
 6920POPC   C2B26528   1.039  14.234   8.253
 6920POPC   C3B26529   1.036  14.258   7.953
 6920POPC   C4B26530   1.029  14.249   7.653
 6921POPC   NC326531  16.743  43.124   9.453
 6921POPC   PO426532  16.766  43.144   9.153
 6921POPC   GL126533  16.779  43.142   8.853
 6921POPC   GL226534  16.731  42.944   8.853
 6921POPC   C1A26535  16.781  43.103   8.553
 6921POPC   D2A26536  16.755  43.128   8.253
 6921POPC   C3A26537  16.777  43.137   7.953
 6921POPC   C4A26538  16.706  43.112   7.653
 6921POPC   C1B26539  16.742  42.908   8.553
 6921POPC   C2B26540  16.678  42.862   8.253
 6921POPC   C3B26541  16.727  42.847   7.953
 6921POPC   C4B26542  16.729  42.880   7.653
 6922POPC   NC326543  40.013  22.910   9.453
 6922POPC   PO426544  40.054  22.919   9.153
 6922POPC   GL126545  40.054  22.890   8.853
 6922POPC   GL226546  39.946  22.840   8.853
 6922POPC   C1A26547  39.983  22.908   8.553
 6922POPC   D2A26548  39.963  22.923   8.253
 6922POPC   C3A26549  40.005  22.952   7.953
 6922POPC   C4A26550  40.048  22.960   7.653
 6922POPC   C1B26551  39.843  22.713   8.553
 6922POPC   C2B26552  39.867  22.736   8.253
 6922POPC   C3B26553  39.834  22.764   7.953
 6922POPC   C4B26554  39.850  22.694   7.653
 6923POPC   NC326555  43.862  11.303   9.453
 6923POPC   PO426556  43.885  11.299   9.153
 6923POPC   GL126557  43.919  11.344   8.853
 6923POPC   GL226558  43.740  11.296   8.853
 6923POPC   C1A26559  43.867  11.253   8.553
 6923POPC   D2A26560  43.910  11.278   8.253
 6923POPC   C3A26561  43.850  11.348   7.953
 6923POPC   C4A26562  43.909  11.266   7.653
 6923POPC   C1B26563  43.650  11.342   8.553
 6923POPC   C2B26564  43.616  11.327   8.253
 6923POPC   C3B26565  43.624  11.371   7.953
 6923POPC   C4B26566  43.604  11.403   7.653
 6924POPC   NC326567  29.191  42.356   9.453
 6924POPC   PO426568  29.176  42.293   9.153
 6924POPC   GL126569  29.191  42.335   8.853
 6924POPC   GL226570  29.025  42.396   8.853
 6924POPC   C1A26571  29.123  42.350   8.553
 6924POPC   D2A26572  29.157  42.384   8.253
 6924POPC   C3A26573  29.142  42.340   7.953
 6924POPC   C4A26574  29.113  42.344   7.653
 6924POPC   C1B26575  28.888  42.485   8.553
 6924POPC   C2B26576  28.898  42.445   8.253
 6924POPC   C3B26577  28.899  42.399   7.953
 6924POPC   C4B26578  28.901  42.397   7.653
 6925POPC   NC326579   4.338  36.856   9.453
 6925POPC   PO426580   4.354  36.918   9.153
 6925POPC   GL126581   4.320  36.910   8.853
 6925POPC   GL226582   4.410  36.814   8.853
 6925POPC   C1A26583   4.312  36.898   8.553
 6925POPC   D2A26584   4.351  36.889   8.253
 6925POPC   C3A26585   4.278  36.944   7.953
 6925POPC   C4A26586   4.277  36.923   7.653
 6925POPC   C1B26587   4.559  36.799   8.553
 6925POPC   C2B26588   4.540  36.782   8.253
 6925POPC   C3B26589   4.499  36.771   7.953
 6925POPC   C4B26590   4.506  36.762   7.653
 6926POPC   NC326591  32.218  20.576   9.453
 6926POPC   PO426592  32.290  20.619   9.153
 6926POPC   GL126593  32.286  20.565   8.853
 6926POPC   GL226594  32.235  20.712   8.853
 6926POPC   C1A26595  32.209  20.597   8.553
 6926POPC   D2A26596  32.289  20.601   8.253
 6926POPC   C3A26597  32.298  20.657   7.953
 6926POPC   C4A26598  32.277  20.614   7.653
 6926POPC   C1B26599  32.200  20.860   8.553
 6926POPC   C2B26600  32.242  20.853   8.253
 6926POPC   C3B26601  32.224  20.839   7.953
 6926POPC   C4B26602  32.276  20.873   7.653
 6927POPC   NC326603  19.835  35.387   9.453
 6927POPC   PO426604  19.851  35.363   9.153
 6927POPC   GL126605  19.845  35.389   8.853
 6927POPC   GL226606  19.724  35.224   8.853
 6927POPC   C1A26607  19.870  35.369   8.553
 6927POPC   D2A26608  19.830  35.379   8.253
 6927POPC   C3A26609  19.804  35.398   7.953
 6927POPC   C4A26610  19.808  35.327   7.653
 6927POPC   C1B26611  19.734  35.148   8.553
 6927POPC   C2B26612  19.692  35.160   8.253
 6927POPC   C3B26613  19.702  35.132   7.953
 6927POPC   C4B26614  19.674  35.109   7.653
 6928POPC   NC326615  41.557  26.047   9.453
 6928POPC   PO426616  41.511  26.044   9.153
 6928POPC   GL126617  41.574  26.046   8.853
 6928POPC   GL226618  41.714  26.125   8.853
 6928POPC   C1A26619  41.513  26.013   8.553
 6928POPC   D2A26620  41.588  26.065   8.253
 6928POPC   C3A26621  41.607  26.003   7.953
 6928POPC   C4A26622  41.542  26.049   7.653
 6928POPC   C1B26623  41.734  26.191   8.553
 6928POPC   C2B26624  41.822  26.196   8.253
 6928POPC   C3B26625  41.763  26.171   7.953
 6928POPC   C4B26626  41.781  26.209   7.653
 6929POPC   NC326627  34.582  29.907   9.453
 6929POPC   PO426628  34.601  29.937   9.153
 6929POPC   GL126629  34.560  29.888   8.853
 6929POPC   GL226630  34.446  29.919   8.853
 6929POPC   C1A26631  34.582  29.911   8.553
 6929POPC   D2A26632  34.570  29.900   8.253
 6929POPC   C3A26633  34.563  29.932   7.953
 6929POPC   C4A26634  34.610  29.897   7.653
 6929POPC   C1B26635  34.386  29.842   8.553
 6929POPC   C2B26636  34.304  29.857   8.253
 6929POPC   C3B26637  34.292  29.834   7.953
 6929POPC   C4B26638  34.326  29.863   7.653
 6930POPC   NC326639   6.668   9.018   9.453
 6930POPC   PO426640   6.649   8.987   9.153
 6930POPC   GL126641   6.692   8.951   8.853
 6930POPC   GL226642   6.588   9.053   8.853
 6930POPC   C1A26643   6.626   8.931   8.553
 6930POPC   D2A26644   6.604   8.955   8.253
 6930POPC   C3A26645   6.614   8.970   7.953
 6930POPC   C4A26646   6.633   8.938   7.653
 6930POPC   C1B26647   6.599   9.254   8.553
 6930POPC   C2B26648   6.618   9.229   8.253
 6930POPC   C3B26649   6.657   9.187   7.953
 6930POPC   C4B26650   6.650   9.233   7.653
 6931POPC   NC326651  26.061  20.631   9.453
 6931POPC   PO426652  26.047  20.613   9.153
 6931POPC   GL126653  26.052  20.576   8.853
 6931POPC   GL226654  25.974  20.647   8.853
 6931POPC   C1A26655  26.071  20.600   8.553
 6931POPC   D2A26656  26.077  20.595   8.253
 6931POPC   C3A26657  26.067  20.656   7.953
 6931POPC   C4A26658  26.015  20.619   7.653
 6931POPC   C1B26659  25.801  20.763   8.553
 6931POPC   C2B26660  25.788  20.704   8.253
 6931POPC   C3B26661  25.825  20.735   7.953
 6931POPC   C4B26662  25.837  20.688   7.653
 6932POPC   NC326663  25.247   1.990   9.453
 6932POPC   PO426664  25.217   1.966   9.153
 6932POPC   GL126665  25.273   1.992   8.853
 6932POPC   GL226666  25.356   2.074   8.853
 6932POPC   C1A26667  25.264   2.019   8.553
 6932POPC   D2A26668  25.265   1.995   8.253
 6932POPC   C3A26669  25.273   2.004   7.953
 6932POPC   C4A26670  25.283   1.965   7.653
 6932POPC   C1B26671  25.454   2.098   8.553
 6932POPC   C2B26672  25.485   2.104   8.253
 6932POPC   C3B26673  25.462   2.143   7.953
 6932POPC   C4B26674  25.429   2.129   7.653
 6933POPC   NC326675   5.872   8.239   9.453
 6933POPC   PO426676   5.912   8.166   9.153
 6933POPC   GL126677   5.901   8.203   8.853
 6933POPC   GL226678   5.741   8.265   8.853
 6933POPC   C1A26679   5.900   8.164   8.553
 6933POPC   D2A26680   5.820   8.178   8.253
 6933POPC   C3A26681   5.892   8.178   7.953
 6933POPC   C4A26682   5.919   8.244   7.653
 6933POPC   C1B26683   5.665   8.273   8.553
 6933POPC   C2B26684   5.591   8.254   8.253
 6933POPC   C3B26685   5.614   8.295   7.953
 6933POPC   C4B26686   5.641   8.234   7.653
 6934POPC   NC326687  35.356   7.466   9.453
 6934POPC   PO426688  35.323   7.373   9.153
 6934POPC   GL126689  35.384   7.415   8.853
 6934POPC   GL226690  35.486   7.448   8.853
 6934POPC   C1A26691  35.306   7.399   8.553
 6934POPC   D2A26692  35.321   7.405   8.253
 6934POPC   C3A26693  35.341   7.382   7.953
 6934POPC   C4A26694  35.348   7.397   7.653
 6934POPC   C1B26695  35.626   7.488   8.553
 6934POPC   C2B26696  35.611   7.469   8.253
 6934POPC   C3B26697  35.650   7.423   7.953
 6934POPC   C4B26698  35.595   7.496   7.653
 6935POPC   NC326699  15.228  26.005   9.453
 6935POPC   PO426700  15.189  26.036   9.153
 6935POPC   GL126701  15.133  26.016   8.853
 6935POPC   GL226702  15.250  25.993   8.853
 6935POPC   C1A26703  15.201  26.036   8.553
 6935POPC   D2A26704  15.166  26.039   8.253
 6935POPC   C3A26705  15.143  26.003   7.953
 6935POPC   C4A26706  15.158  25.996   7.653
 6935POPC   C1B26707  15.396  25.872   8.553
 6935POPC   C2B26708  15.355  25.928   8.253
 6935POPC   C3B26709  15.388  25.849   7.953
 6935POPC   C4B26710  15.366  25.852   7.653
 6936POPC   NC326711  20.648  34.607   9.453
 6936POPC   PO426712  20.625  34.547   9.153
 6936POPC   GL126713  20.660  34.562   8.853
 6936POPC   GL226714  20.677  34.632   8.853
 6936POPC   C1A26715  20.574  34.607   8.553
 6936POPC   D2A26716  20.651  34.532   8.253
 6936POPC   C3A26717  20.577  34.576   7.953
 6936POPC   C4A26718  20.613  34.527   7.653
 6936POPC   C1B26719  20.809  34.661   8.553
 6936POPC   C2B26720  20.813  34.655   8.253
 6936POPC   C3B26721  20.816  34.718   7.953
 6936POPC   C4B26722  20.852  34.738   7.653
 6937POPC   NC326723  32.253  38.410   9.453
 6937POPC   PO426724  32.231  38.483   9.153
 6937POPC   GL126725  32.229  38.435   8.853
 6937POPC   GL226726  32.190  38.537   8.853
 6937POPC   C1A26727  32.253  38.468   8.553
 6937POPC   D2A26728  32.223  38.482   8.253
 6937POPC   C3A26729  32.208  38.442   7.953
 6937POPC   C4A26730  32.208  38.416   7.653
 6937POPC   C1B26731  32.064  38.642   8.553
 6937POPC   C2B26732  32.134  38.683   8.253
 6937POPC   C3B26733  32.095  38.595   7.953
 6937POPC   C4B26734  32.058  38.643   7.653
 6938POPC   NC326735   3.513   8.994   9.453
 6938POPC   PO426736   3.530   8.946   9.153
 6938POPC   GL126737   3.582   8.927   8.853
 6938POPC   GL226738   3.390   8.930   8.853
 6938POPC   C1A26739   3.547   8.929   8.553
 6938POPC   D2A26740   3.557   8.922   8.253
 6938POPC   C3A26741   3.566   8.993   7.953
 6938POPC   C4A26742   3.554   8.975   7.653
 6938POPC   C1B26743   3.290   8.781   8.553
 6938POPC   C2B26744   3.352   8.836   8.253
 6938POPC   C3B26745   3.304   8.840   7.953
 6938POPC   C4B26746   3.302   8.811   7.653
 6939POPC   NC326747  22.986  19.040   9.453
 6939POPC   PO426748  22.929  19.009   9.153
 6939POPC   GL126749  22.909  19.102   8.853
 6939POPC   GL226750  22.944  18.948   8.853
 6939POPC   C1A26751  22.951  19.083   8.553
 6939POPC   D2A26752  22.928  19.040   8.253
 6939POPC   C3A26753  22.920  19.091   7.953
 6939POPC   C4A26754  22.965  19.023   7.653
 6939POPC   C1B26755  22.856  18.786   8.553
 6939POPC   C2B26756  22.846  18.858   8.253
 6939POPC   C3B26757  22.889  18.829   7.953
 6939POPC   C4B26758  22.801  18.779   7.653
 6940POPC   NC326759  33.820  37.632   9.453
 6940POPC   PO426760  33.765  37.636   9.153
 6940POPC   GL126761  33.772  37.725   8.853
 6940POPC   GL226762  33.860  37.533   8.853
 6940POPC   C1A26763  33.777  37.677   8.553
 6940POPC   D2A26764  33.789  37.689   8.253
 6940POPC   C3A26765  33.847  37.727   7.953
 6940POPC   C4A26766  33.825  37.713   7.653
 6940POPC   C1B26767  33.920  37.501   8.553
 6940POPC   C2B26768  33.934  37.431   8.253
 6940POPC   C3B26769  33.953  37.404   7.953
 6940POPC   C4B26770  33.870  37.429   7.653
 6941POPC   NC326771  19.836  27.616   9.453
 6941POPC   PO426772  19.836  27.600   9.153
 6941POPC   GL126773  19.841  27.552   8.853
 6941POPC   GL226774  19.710  27.636   8.853
 6941POPC   C1A26775  19.853  27.567   8.553
 6941POPC   D2A26776  19.846  27.549   8.253
 6941POPC   C3A26777  19.869  27.573   7.953
 6941POPC   C4A26778  19.872  27.574   7.653
 6941POPC   C1B26779  19.663  27.685   8.553
 6941POPC   C2B26780  19.659  27.728   8.253
 6941POPC   C3B26781  19.642  27.771   7.953
 6941POPC   C4B26782  19.666  27.741   7.653
 6942POPC   NC326783  16.757   8.201   9.453
 6942POPC   PO426784  16.707   8.160   9.153
 6942POPC   GL126785  16.729   8.238   8.853
 6942POPC   GL226786  16.879   8.131   8.853
 6942POPC   C1A26787  16.770   8.231   8.553
 6942POPC   D2A26788  16.747   8.232   8.253
 6942POPC   C3A26789  16.776   8.154   7.953
 6942POPC   C4A26790  16.746   8.192   7.653
 6942POPC   C1B26791  16.989   8.123   8.553
 6942POPC   C2B26792  16.972   8.119   8.253
 6942POPC   C3B26793  16.954   8.173   7.953
 6942POPC   C4B26794  16.965   8.084   7.653
 6943POPC   NC326795  14.406   4.323   9.453
 6943POPC   PO426796  14.438   4.343   9.153
 6943POPC   GL126797  14.370   4.331   8.853
 6943POPC   GL226798  14.473   4.454   8.853
 6943POPC   C1A26799  14.416   4.294   8.553
 6943POPC   D2A26800  14.366   4.360   8.253
 6943POPC   C3A26801  14.401   4.343   7.953
 6943POPC   C4A26802  14.359   4.365   7.653
 6943POPC   C1B26803  14.545   4.510   8.553
 6943POPC   C2B26804  14.553   4.484   8.253
 6943POPC   C3B26805  14.561   4.481   7.953
 6943POPC   C4B26806  14.559   4.465   7.653
 6944POPC   NC326807   1.999  15.150   9.453
 6944POPC   PO426808   1.970  15.177   9.153
 6944POPC   GL126809   1.958  15.200   8.853
 6944POPC   GL226810   2.076  15.276   8.853
 6944POPC   C1A26811   1.973  15.179   8.553
 6944POPC   D2A26812   1.956  15.164   8.253
 6944POPC   C3A26813   2.000  15.171   7.953
 6944POPC   C4A26814   1.964  15.153   7.653
 6944POPC   C1B26815   2.153  15.406   8.553
 6944POPC   C2B26816   2.138  15.371   8.253
 6944POPC   C3B26817   2.146  15.437   7.953
 6944POPC   C4B26818   2.167  15.384   7.653
 6945POPC   NC326819  34.539  25.226   9.453
 6945POPC   PO426820  34.531  25.286   9.153
 6945POPC   GL126821  34.603  25.235   8.853
 6945POPC   GL226822  34.636  25.350   8.853
 6945POPC   C1A26823  34.587  25.298   8.553
 6945POPC   D2A26824  34.603  25.298   8.253
 6945POPC   C3A26825  34.586  25.283   7.953
 6945POPC   C4A26826  34.618  25.302   7.653
 6945POPC   C1B26827  34.655  25.546   8.553
 6945POPC   C2B26828  34.596  25.502   8.253
 6945POPC   C3B26829  34.661  25.556   7.953
 6945POPC   C4B26830  34.662  25.560   7.653
 6946POPC   NC326831  22.923  37.670   9.453
 6946POPC   PO426832  22.891  37.659   9.153
 6946POPC   GL126833  22.920  37.683   8.853
 6946POPC   GL226834  23.073  37.722   8.853
 6946POPC   C1A26835  22.956  37.676   8.553
 6946POPC   D2A26836  22.986  37.700   8.253
 6946POPC   C3A26837  22.961  37.656   7.953
 6946POPC   C4A26838  22.974  37.722   7.653
 6946POPC   C1B26839  23.115  37.829   8.553
 6946POPC   C2B26840  23.155  37.794   8.253
 6946POPC   C3B26841  23.199  37.768   7.953
 6946POPC   C4B26842  23.203  37.760   7.653
 6947POPC   NC326843  41.565  24.477   9.453
 6947POPC   PO426844  41.594  24.494   9.153
 6947POPC   GL126845  41.543  24.472   8.853
 6947POPC   GL226846  41.617  24.401   8.853
 6947POPC   C1A26847  41.595  24.536   8.553
 6947POPC   D2A26848  41.525  24.447   8.253
 6947POPC   C3A26849  41.601  24.477   7.953
 6947POPC   C4A26850  41.599  24.518   7.653
 6947POPC   C1B26851  41.731  24.290   8.553
 6947POPC   C2B26852  41.725  24.314   8.253
 6947POPC   C3B26853  41.709  24.325   7.953
 6947POPC   C4B26854  41.710  24.332   7.653
 6948POPC   NC326855   4.353  26.814   9.453
 6948POPC   PO426856   4.361  26.804   9.153
 6948POPC   GL126857   4.344  26.847   8.853
 6948POPC   GL226858   4.291  26.973   8.853
 6948POPC   C1A26859   4.343  26.825   8.553
 6948POPC   D2A26860   4.345  26.768   8.253
 6948POPC   C3A26861   4.315  26.772   7.953
 6948POPC   C4A26862   4.280  26.779   7.653
 6948POPC   C1B26863   4.172  26.991   8.553
 6948POPC   C2B26864   4.219  27.082   8.253
 6948POPC   C3B26865   4.212  26.991   7.953
 6948POPC   C4B26866   4.238  26.996   7.653
 6949POPC   NC326867  43.931  15.935   9.453
 6949POPC   PO426868  43.929  15.955   9.153
 6949POPC   GL126869  43.904  15.958   8.853
 6949POPC   GL226870  43.854  16.074   8.853
 6949POPC   C1A26871  43.917  15.952   8.553
 6949POPC   D2A26872  43.891  15.971   8.253
 6949POPC   C3A26873  43.889  16.000   7.953
 6949POPC   C4A26874  43.934  15.933   7.653
 6949POPC   C1B26875  43.903  16.173   8.553
 6949POPC   C2B26876  43.891  16.183   8.253
 6949POPC   C3B26877  43.933  16.235   7.953
 6949POPC   C4B26878  43.930  16.217   7.653
 6950POPC   NC326879  13.600   6.680   9.453
 6950POPC   PO426880  13.625   6.601   9.153
 6950POPC   GL126881  13.663   6.607   8.853
 6950POPC   GL226882  13.756   6.691   8.853
 6950POPC   C1A26883  13.601   6.656   8.553
 6950POPC   D2A26884  13.669   6.648   8.253
 6950POPC   C3A26885  13.625   6.604   7.953
 6950POPC   C4A26886  13.601   6.600   7.653
 6950POPC   C1B26887  13.862   6.670   8.553
 6950POPC   C2B26888  13.838   6.721   8.253
 6950POPC   C3B26889  13.896   6.739   7.953
 6950POPC   C4B26890  13.866   6.724   7.653
 6951POPC   NC326891  29.097  19.796   9.453
 6951POPC   PO426892  29.111  19.826   9.153
 6951POPC   GL126893  29.117  19.785   8.853
 6951POPC   GL226894  29.073  19.722   8.853
 6951POPC   C1A26895  29.113  19.838   8.553
 6951POPC   D2A26896  29.136  19.820   8.253
 6951POPC   C3A26897  29.140  19.804   7.953
 6951POPC   C4A26898  29.162  19.869   7.653
 6951POPC   C1B26899  28.884  19.672   8.553
 6951POPC   C2B26900  28.914  19.748   8.253
 6951POPC   C3B26901  28.887  19.693   7.953
 6951POPC   C4B26902  28.924  19.659   7.653
 6952POPC   NC326903  23.708  18.268   9.453
 6952POPC   PO426904  23.670  18.266   9.153
 6952POPC   GL126905  23.722  18.243   8.853
 6952POPC   GL226906  23.858  18.274   8.853
 6952POPC   C1A26907  23.718  18.304   8.553
 6952POPC   D2A26908  23.683  18.233   8.253
 6952POPC   C3A26909  23.681  18.332   7.953
 6952POPC   C4A26910  23.688  18.282   7.653
 6952POPC   C1B26911  23.926  18.249   8.553
 6952POPC   C2B26912  23.938  18.217   8.253
 6952POPC   C3B26913  23.950  18.212   7.953
 6952POPC   C4B26914  23.924  18.212   7.653
 6953POPC   NC326915  36.124  22.160   9.453
 6953POPC   PO426916  36.082  22.135   9.153
 6953POPC   GL126917  36.104  22.156   8.853
 6953POPC   GL226918  36.183  22.280   8.853
 6953POPC   C1A26919  36.170  22.200   8.553
 6953POPC   D2A26920  36.083  22.157   8.253
 6953POPC   C3A26921  36.167  22.156   7.953
 6953POPC   C4A26922  36.111  22.202   7.653
 6953POPC   C1B26923  36.245  22.410   8.553
 6953POPC   C2B26924  36.276  22.423   8.253
 6953POPC   C3B26925  36.228  22.365   7.953
 6953POPC   C4B26926  36.209  22.350   7.653
 6954POPC   NC326927   5.097  20.589   9.453
 6954POPC   PO426928   5.104  20.569   9.153
 6954POPC   GL126929   5.066  20.647   8.853
 6954POPC   GL226930   5.025  20.735   8.853
 6954POPC   C1A26931   5.120  20.623   8.553
 6954POPC   D2A26932   5.067  20.613   8.253
 6954POPC   C3A26933   5.100  20.630   7.953
 6954POPC   C4A26934   5.066  20.657   7.653
 6954POPC   C1B26935   4.925  20.797   8.553
 6954POPC   C2B26936   4.890  20.772   8.253
 6954POPC   C3B26937   4.853  20.727   7.953
 6954POPC   C4B26938   4.942  20.747   7.653
 6955POPC   NC326939  38.446  12.812   9.453
 6955POPC   PO426940  38.494  12.899   9.153
 6955POPC   GL126941  38.478  12.868   8.853
 6955POPC   GL226942  38.408  12.717   8.853
 6955POPC   C1A26943  38.477  12.813   8.553
 6955POPC   D2A26944  38.504  12.803   8.253
 6955POPC   C3A26945  38.494  12.864   7.953
 6955POPC   C4A26946  38.479  12.890   7.653
 6955POPC   C1B26947  38.349  12.666   8.553
 6955POPC   C2B26948  38.352  12.633   8.253
 6955POPC   C3B26949  38.400  12.638   7.953
 6955POPC   C4B26950  38.377  12.607   7.653
 6956POPC   NC326951  29.185  39.224   9.453
 6956POPC   PO426952  29.101  39.199   9.153
 6956POPC   GL126953  29.154  39.226   8.853
 6956POPC   GL226954  29.221  39.324   8.853
 6956POPC   C1A26955  29.168  39.203   8.553
 6956POPC   D2A26956  29.162  39.234   8.253
 6956POPC   C3A26957  29.160  39.252   7.953
 6956POPC   C4A26958  29.116  39.242   7.653
 6956POPC   C1B26959  29.380  39.381   8.553
 6956POPC   C2B26960  29.390  39.369   8.253
 6956POPC   C3B26961  29.293  39.347   7.953
 6956POPC   C4B26962  29.353  39.418   7.653
 6957POPC   NC326963  44.626   2.003   9.453
 6957POPC   PO426964  44.618   1.943   9.153
 6957POPC   GL126965  44.666   1.949   8.853
 6957POPC   GL226966  44.714   1.870   8.853
 6957POPC   C1A26967  44.646   1.947   8.553
 6957POPC   D2A26968  44.663   2.031   8.253
 6957POPC   C3A26969  44.679   2.035   7.953
 6957POPC   C4A26970  44.666   1.991   7.653
 6957POPC   C1B26971  44.738   1.742   8.553
 6957POPC   C2B26972  44.796   1.812   8.253
 6957POPC   C3B26973  44.773   1.740   7.953
 6957POPC   C4B26974  44.756   1.793   7.653
 6958POPC   NC326975  43.065   0.427   9.453
 6958POPC   PO426976  43.155   0.397   9.153
 6958POPC   GL126977  43.072   0.402   8.853
 6958POPC   GL226978  43.055   0.298   8.853
 6958POPC   C1A26979  43.105   0.474   8.553
 6958POPC   D2A26980  43.151   0.469   8.253
 6958POPC   C3A26981  43.100   0.462   7.953
 6958POPC   C4A26982  43.086   0.460   7.653
 6958POPC   C1B26983  43.034   0.239   8.553
 6958POPC   C2B26984  43.106   0.152   8.253
 6958POPC   C3B26985  43.085   0.218   7.953
 6958POPC   C4B26986  43.028   0.172   7.653
 6959POPC   NC326987  14.438  35.368   9.453
 6959POPC   PO426988  14.427  35.368   9.153
 6959POPC   GL126989  14.411  35.329   8.853
 6959POPC   GL226990  14.534  35.270   8.853
 6959POPC   C1A26991  14.424  35.384   8.553
 6959POPC   D2A26992  14.432  35.320   8.253
 6959POPC   C3A26993  14.363  35.325   7.953
 6959POPC   C4A26994  14.449  35.365   7.653
 6959POPC   C1B26995  14.608  35.275   8.553
 6959POPC   C2B26996  14.674  35.265   8.253
 6959POPC   C3B26997  14.612  35.290   7.953
 6959POPC   C4B26998  14.671  35.222   7.653
 6960POPC   NC326999  42.312   1.971   9.453
 6960POPC   PO427000  42.373   1.991   9.153
 6960POPC   GL127001  42.316   1.950   8.853
 6960POPC   GL227002  42.307   1.899   8.853
 6960POPC   C1A27003  42.349   1.942   8.553
 6960POPC   D2A27004  42.349   1.994   8.253
 6960POPC   C3A27005  42.359   1.976   7.953
 6960POPC   C4A27006  42.306   2.017   7.653
 6960POPC   C1B27007  42.318   1.724   8.553
 6960POPC   C2B27008  42.252   1.720   8.253
 6960POPC   C3B27009  42.301   1.760   7.953
 6960POPC   C4B27010  42.284   1.761   7.653
 6961POPC   NC327011  43.104  40.776   9.453
 6961POPC   PO427012  43.099  40.733   9.153
 6961POPC   GL127013  43.127  40.786   8.853
 6961POPC   GL227014  43.028  40.811   8.853
 6961POPC   C1A27015  43.072  40.741   8.553
 6961POPC   D2A27016  43.106  40.743   8.253
 6961POPC   C3A27017  43.123  40.816   7.953
 6961POPC   C4A27018  43.156  40.772   7.653
 6961POPC   C1B27019  42.835  40.711   8.553
 6961POPC   C2B27020  42.900  40.770   8.253
 6961POPC   C3B27021  42.859  40.741   7.953
 6961POPC   C4B27022  42.813  40.737   7.653
 6962POPC   NC327023  22.984  40.769   9.453
 6962POPC   PO427024  22.938  40.765   9.153
 6962POPC   GL127025  22.901  40.806   8.853
 6962POPC   GL227026  23.035  40.647   8.853
 6962POPC   C1A27027  22.924  40.807   8.553
 6962POPC   D2A27028  22.937  40.784   8.253
 6962POPC   C3A27029  22.964  40.818   7.953
 6962POPC   C4A27030  22.912  40.827   7.653
 6962POPC   C1B27031  23.094  40.615   8.553
 6962POPC   C2B27032  23.050  40.554   8.253
 6962POPC   C3B27033  23.123  40.574   7.953
 6962POPC   C4B27034  23.107  40.635   7.653
 6963POPC   NC327035  43.118   3.558   9.453
 6963POPC   PO427036  43.130   3.510   9.153
 6963POPC   GL127037  43.152   3.509   8.853
 6963POPC   GL227038  43.136   3.378   8.853
 6963POPC   C1A27039  43.156   3.546   8.553
 6963POPC   D2A27040  43.148   3.589   8.253
 6963POPC   C3A27041  43.067   3.493   7.953
 6963POPC   C4A27042  43.143   3.524   7.653
 6963POPC   C1B27043  43.211   3.252   8.553
 6963POPC   C2B27044  43.176   3.279   8.253
 6963POPC   C3B27045  43.149   3.251   7.953
 6963POPC   C4B27046  43.202   3.303   7.653
 6964POPC   NC327047  30.729  38.462   9.453
 6964POPC   PO427048  30.737  38.424   9.153
 6964POPC   GL127049  30.739  38.503   8.853
 6964POPC   GL227050  30.818  38.511   8.853
 6964POPC   C1A27051  30.730  38.411   8.553
 6964POPC   D2A27052  30.671  38.498   8.253
 6964POPC   C3A27053  30.664  38.414   7.953
 6964POPC   C4A27054  30.669  38.468   7.653
 6964POPC   C1B27055  30.812  38.650   8.553
 6964POPC   C2B27056  30.819  38.670   8.253
 6964POPC   C3B27057  30.850  38.633   7.953
 6964POPC   C4B27058  30.820  38.613   7.653
 6965POPC   NC327059  39.259   6.685   9.453
 6965POPC   PO427060  39.274   6.665   9.153
 6965POPC   GL127061  39.185   6.615   8.853
 6965POPC   GL227062  39.311   6.736   8.853
 6965POPC   C1A27063  39.242   6.676   8.553
 6965POPC   D2A27064  39.202   6.642   8.253
 6965POPC   C3A27065  39.259   6.642   7.953
 6965POPC   C4A27066  39.199   6.601   7.653
 6965POPC   C1B27067  39.264   6.874   8.553
 6965POPC   C2B27068  39.313   6.924   8.253
 6965POPC   C3B27069  39.283   6.871   7.953
 6965POPC   C4B27070  39.285   6.909   7.653
 6966POPC   NC327071  11.276   8.938   9.453
 6966POPC   PO427072  11.254   8.981   9.153
 6966POPC   GL127073  11.309   8.990   8.853
 6966POPC   GL227074  11.212   8.853   8.853
 6966POPC   C1A27075  11.276   8.958   8.553
 6966POPC   D2A27076  11.341   8.935   8.253
 6966POPC   C3A27077  11.253   8.960   7.953
 6966POPC   C4A27078  11.268   8.967   7.653
 6966POPC   C1B27079  11.100   8.759   8.553
 6966POPC   C2B27080  11.068   8.757   8.253
 6966POPC   C3B27081  11.091   8.766   7.953
 6966POPC   C4B27082  11.164   8.771   7.653
 6967POPC   NC327083  22.946  13.616   9.453
 6967POPC   PO427084  22.907  13.640   9.153
 6967POPC   GL127085  22.895  13.603   8.853
 6967POPC   GL227086  22.917  13.764   8.853
 6967POPC   C1A27087  22.917  13.630   8.553
 6967POPC   D2A27088  22.944  13.630   8.253
 6967POPC   C3A27089  22.962  13.585   7.953
 6967POPC   C4A27090  22.900  13.668   7.653
 6967POPC   C1B27091  22.944  13.892   8.553
 6967POPC   C2B27092  22.858  13.859   8.253
 6967POPC   C3B27093  22.925  13.901   7.953
 6967POPC   C4B27094  22.944  13.915   7.653
 6968POPC   NC327095  19.049  21.410   9.453
 6968POPC   PO427096  19.046  21.424   9.153
 6968POPC   GL127097  19.075  21.372   8.853
 6968POPC   GL227098  19.028  21.469   8.853
 6968POPC   C1A27099  19.025  21.353   8.553
 6968POPC   D2A27100  19.043  21.365   8.253
 6968POPC   C3A27101  19.036  21.404   7.953
 6968POPC   C4A27102  19.081  21.415   7.653
 6968POPC   C1B27103  18.974  21.585   8.553
 6968POPC   C2B27104  18.957  21.571   8.253
 6968POPC   C3B27105  18.912  21.585   7.953
 6968POPC   C4B27106  18.957  21.621   7.653
 6969POPC   NC327107  28.384  29.141   9.453
 6969POPC   PO427108  28.406  29.146   9.153
 6969POPC   GL127109  28.390  29.114   8.853
 6969POPC   GL227110  28.240  29.155   8.853
 6969POPC   C1A27111  28.383  29.133   8.553
 6969POPC   D2A27112  28.374  29.191   8.253
 6969POPC   C3A27113  28.339  29.146   7.953
 6969POPC   C4A27114  28.341  29.141   7.653
 6969POPC   C1B27115  28.120  29.120   8.553
 6969POPC   C2B27116  28.168  29.122   8.253
 6969POPC   C3B27117  28.101  29.075   7.953
 6969POPC   C4B27118  28.154  29.098   7.653
 6970POPC   NC327119  17.463  18.319   9.453
 6970POPC   PO427120  17.471  18.233   9.153
 6970POPC   GL127121  17.493  18.332   8.853
 6970POPC   GL227122  17.449  18.229   8.853
 6970POPC   C1A27123  17.530  18.264   8.553
 6970POPC   D2A27124  17.517  18.299   8.253
 6970POPC   C3A27125  17.510  18.314   7.953
 6970POPC   C4A27126  17.499  18.316   7.653
 6970POPC   C1B27127  17.318  18.109   8.553
 6970POPC   C2B27128  17.414  18.052   8.253
 6970POPC   C3B27129  17.397  18.039   7.953
 6970POPC   C4B27130  17.407  18.103   7.653
 6971POPC   NC327131  29.947  41.540   9.453
 6971POPC   PO427132  29.921  41.554   9.153
 6971POPC   GL127133  29.955  41.519   8.853
 6971POPC   GL227134  29.873  41.653   8.853
 6971POPC   C1A27135  29.919  41.582   8.553
 6971POPC   D2A27136  29.960  41.544   8.253
 6971POPC   C3A27137  29.900  41.603   7.953
 6971POPC   C4A27138  29.925  41.521   7.653
 6971POPC   C1B27139  29.743  41.719   8.553
 6971POPC   C2B27140  29.743  41.763   8.253
 6971POPC   C3B27141  29.778  41.733   7.953
 6971POPC   C4B27142  29.774  41.784   7.653
 6972POPC   NC327143  37.665   2.029   9.453
 6972POPC   PO427144  37.655   2.024   9.153
 6972POPC   GL127145  37.661   1.950   8.853
 6972POPC   GL227146  37.610   2.065   8.853
 6972POPC   C1A27147  37.698   2.007   8.553
 6972POPC   D2A27148  37.644   1.996   8.253
 6972POPC   C3A27149  37.682   2.024   7.953
 6972POPC   C4A27150  37.659   2.004   7.653
 6972POPC   C1B27151  37.604   2.239   8.553
 6972POPC   C2B27152  37.575   2.227   8.253
 6972POPC   C3B27153  37.616   2.241   7.953
 6972POPC   C4B27154  37.520   2.260   7.653
 6973POPC   NC327155  43.140  26.089   9.453
 6973POPC   PO427156  43.150  26.066   9.153
 6973POPC   GL127157  43.145  26.023   8.853
 6973POPC   GL227158  43.169  26.129   8.853
 6973POPC   C1A27159  43.138  26.078   8.553
 6973POPC   D2A27160  43.121  26.007   8.253
 6973POPC   C3A27161  43.069  26.003   7.953
 6973POPC   C4A27162  43.100  25.994   7.653
 6973POPC   C1B27163  43.196  26.262   8.553
 6973POPC   C2B27164  43.200  26.320   8.253
 6973POPC   C3B27165  43.200  26.239   7.953
 6973POPC   C4B27166  43.211  26.277   7.653
 6974POPC   NC327167  10.532  10.492   9.453
 6974POPC   PO427168  10.483  10.558   9.153
 6974POPC   GL127169  10.563  10.485   8.853
 6974POPC   GL227170  10.642  10.468   8.853
 6974POPC   C1A27171  10.563  10.520   8.553
 6974POPC   D2A27172  10.535  10.535   8.253
 6974POPC   C3A27173  10.563  10.544   7.953
 6974POPC   C4A27174  10.515  10.496   7.653
 6974POPC   C1B27175  10.732  10.447   8.553
 6974POPC   C2B27176  10.713  10.398   8.253
 6974POPC   C3B27177  10.702  10.449   7.953
 6974POPC   C4B27178  10.769  10.393   7.653
 6975POPC   NC327179  33.012  40.748   9.453
 6975POPC   PO427180  32.995  40.824   9.153
 6975POPC   GL127181  32.981  40.767   8.853
 6975POPC   GL227182  33.032  40.872   8.853
 6975POPC   C1A27183  32.984  40.741   8.553
 6975POPC   D2A27184  33.059  40.747   8.253
 6975POPC   C3A27185  33.034  40.749   7.953
 6975POPC   C4A27186  32.991  40.824   7.653
 6975POPC   C1B27187  33.057  41.025   8.553
 6975POPC   C2B27188  33.017  41.065   8.253
 6975POPC   C3B27189  33.060  41.062   7.953
 6975POPC   C4B27190  32.996  41.067   7.653
 6976POPC   NC327191  39.242  28.325   9.453
 6976POPC   PO427192  39.273  28.374   9.153
 6976POPC   GL127193  39.187  28.410   8.853
 6976POPC   GL227194  39.132  28.308   8.853
 6976POPC   C1A27195  39.240  28.417   8.553
 6976POPC   D2A27196  39.200  28.346   8.253
 6976POPC   C3A27197  39.265  28.328   7.953
 6976POPC   C4A27198  39.189  28.399   7.653
 6976POPC   C1B27199  39.034  28.124   8.553
 6976POPC   C2B27200  39.063  28.189   8.253
 6976POPC   C3B27201  39.043  28.198   7.953
 6976POPC   C4B27202  39.086  28.170   7.653
 6977POPC   NC327203  16.706   5.133   9.453
 6977POPC   PO427204  16.735   5.126   9.153
 6977POPC   GL127205  16.773   5.069   8.853
 6977POPC   GL227206  16.708   5.182   8.853
 6977POPC   C1A27207  16.692   5.104   8.553
 6977POPC   D2A27208  16.762   5.115   8.253
 6977POPC   C3A27209  16.722   5.091   7.953
 6977POPC   C4A27210  16.745   5.106   7.653
 6977POPC   C1B27211  16.651   5.316   8.553
 6977POPC   C2B27212  16.734   5.301   8.253
 6977POPC   C3B27213  16.723   5.311   7.953
 6977POPC   C4B27214  16.690   5.330   7.653
 6978POPC   NC327215  36.893  26.067   9.453
 6978POPC   PO427216  36.863  26.016   9.153
 6978POPC   GL127217  36.939  26.007   8.853
 6978POPC   GL227218  36.983  25.901   8.853
 6978POPC   C1A27219  36.919  26.083   8.553
 6978POPC   D2A27220  36.876  26.023   8.253
 6978POPC   C3A27221  36.868  26.000   7.953
 6978POPC   C4A27222  36.924  26.077   7.653
 6978POPC   C1B27223  37.088  25.844   8.553
 6978POPC   C2B27224  37.050  25.818   8.253
 6978POPC   C3B27225  37.004  25.791   7.953
 6978POPC   C4B27226  37.062  25.883   7.653
 6979POPC   NC327227   2.743  26.842   9.453
 6979POPC   PO427228   2.747  26.796   9.153
 6979POPC   GL127229   2.740  26.818   8.853
 6979POPC   GL227230   2.665  26.749   8.853
 6979POPC   C1A27231   2.747  26.801   8.553
 6979POPC   D2A27232   2.801  26.773   8.253
 6979POPC   C3A27233   2.779  26.824   7.953
 6979POPC   C4A27234   2.787  26.858   7.653
 6979POPC   C1B27235   2.494  26.734   8.553
 6979POPC   C2B27236   2.557  26.734   8.253
 6979POPC   C3B27237   2.548  26.745   7.953
 6979POPC   C4B27238   2.489  26.791   7.653
 6980POPC   NC327239  38.436   4.325   9.453
 6980POPC   PO427240  38.408   4.282   9.153
 6980POPC   GL127241  38.500   4.349   8.853
 6980POPC   GL227242  38.315   4.408   8.853
 6980POPC   C1A27243  38.451   4.295   8.553
 6980POPC   D2A27244  38.436   4.270   8.253
 6980POPC   C3A27245  38.410   4.317   7.953
 6980POPC   C4A27246  38.476   4.311   7.653
 6980POPC   C1B27247  38.259   4.420   8.553
 6980POPC   C2B27248  38.259   4.501   8.253
 6980POPC   C3B27249  38.286   4.465   7.953
 6980POPC   C4B27250  38.261   4.477   7.653
 6981POPC   NC327251   8.236  20.620   9.453
 6981POPC   PO427252   8.181  20.570   9.153
 6981POPC   GL127253   8.234  20.591   8.853
 6981POPC   GL227254   8.336  20.544   8.853
 6981POPC   C1A27255   8.182  20.608   8.553
 6981POPC   D2A27256   8.200  20.645   8.253
 6981POPC   C3A27257   8.176  20.654   7.953
 6981POPC   C4A27258   8.196  20.621   7.653
 6981POPC   C1B27259   8.455  20.549   8.553
 6981POPC   C2B27260   8.449  20.557   8.253
 6981POPC   C3B27261   8.471  20.600   7.953
 6981POPC   C4B27262   8.483  20.578   7.653
 6982POPC   NC327263  33.017  31.489   9.453
 6982POPC   PO427264  33.002  31.485   9.153
 6982POPC   GL127265  32.990  31.455   8.853
 6982POPC   GL227266  32.918  31.402   8.853
 6982POPC   C1A27267  32.982  31.517   8.553
 6982POPC   D2A27268  33.033  31.431   8.253
 6982POPC   C3A27269  33.012  31.428   7.953
 6982POPC   C4A27270  33.071  31.468   7.653
 6982POPC   C1B27271  32.834  31.259   8.553
 6982POPC   C2B27272  32.843  31.337   8.253
 6982POPC   C3B27273  32.867  31.293   7.953
 6982POPC   C4B27274  32.863  31.316   7.653
 6983POPC   NC327275  32.276   3.523   9.453
 6983POPC   PO427276  32.202   3.504   9.153
 6983POPC   GL127277  32.262   3.586   8.853
 6983POPC   GL227278  32.227   3.413   8.853
 6983POPC   C1A27279  32.205   3.584   8.553
 6983POPC   D2A27280  32.263   3.571   8.253
 6983POPC   C3A27281  32.250   3.554   7.953
 6983POPC   C4A27282  32.297   3.504   7.653
 6983POPC   C1B27283  32.242   3.304   8.553
 6983POPC   C2B27284  32.238   3.302   8.253
 6983POPC   C3B27285  32.176   3.314   7.953
 6983POPC   C4B27286  32.181   3.331   7.653
 6984POPC   NC327287   6.616  40.025   9.453
 6984POPC   PO427288   6.627  40.040   9.153
 6984POPC   GL127289   6.649  39.965   8.853
 6984POPC   GL227290   6.557  39.884   8.853
 6984POPC   C1A27291   6.660  40.051   8.553
 6984POPC   D2A27292   6.660  39.973   8.253
 6984POPC   C3A27293   6.672  40.045   7.953
 6984POPC   C4A27294   6.655  40.007   7.653
 6984POPC   C1B27295   6.514  39.820   8.553
 6984POPC   C2B27296   6.471  39.805   8.253
 6984POPC   C3B27297   6.453  39.759   7.953
 6984POPC   C4B27298   6.540  39.810   7.653
 6985POPC   NC327299  17.526  29.953   9.453
 6985POPC   PO427300  17.534  29.902   9.153
 6985POPC   GL127301  17.459  29.927   8.853
 6985POPC   GL227302  17.464  29.847   8.853
 6985POPC   C1A27303  17.469  29.946   8.553
 6985POPC   D2A27304  17.460  29.950   8.253
 6985POPC   C3A27305  17.475  29.898   7.953
 6985POPC   C4A27306  17.519  29.936   7.653
 6985POPC   C1B27307  17.332  29.695   8.553
 6985POPC   C2B27308  17.339  29.681   8.253
 6985POPC   C3B27309  17.347  29.737   7.953
 6985POPC   C4B27310  17.381  29.754   7.653
 6986POPC   NC327311  26.855  17.501   9.453
 6986POPC   PO427312  26.821  17.506   9.153
 6986POPC   GL127313  26.782  17.524   8.853
 6986POPC   GL227314  26.867  17.336   8.853
 6986POPC   C1A27315  26.840  17.474   8.553
 6986POPC   D2A27316  26.803  17.517   8.253
 6986POPC   C3A27317  26.774  17.497   7.953
 6986POPC   C4A27318  26.838  17.525   7.653
 6986POPC   C1B27319  26.893  17.233   8.553
 6986POPC   C2B27320  26.904  17.310   8.253
 6986POPC   C3B27321  26.859  17.305   7.953
 6986POPC   C4B27322  26.925  17.304   7.653
 6987POPC   NC327323  15.930  22.147   9.453
 6987POPC   PO427324  15.929  22.180   9.153
 6987POPC   GL127325  15.978  22.159   8.853
 6987POPC   GL227326  15.830  22.208   8.853
 6987POPC   C1A27327  15.966  22.138   8.553
 6987POPC   D2A27328  15.981  22.114   8.253
 6987POPC   C3A27329  15.967  22.127   7.953
 6987POPC   C4A27330  15.929  22.128   7.653
 6987POPC   C1B27331  15.740  22.139   8.553
 6987POPC   C2B27332  15.741  22.122   8.253
 6987POPC   C3B27333  15.684  22.211   7.953
 6987POPC   C4B27334  15.722  22.202   7.653
 6988POPC   NC327335  44.636   2.768   9.453
 6988POPC   PO427336  44.693   2.814   9.153
 6988POPC   GL127337  44.695   2.740   8.853
 6988POPC   GL227338  44.581   2.719   8.853
 6988POPC   C1A27339  44.704   2.802   8.553
 6988POPC   D2A27340  44.660   2.753   8.253
 6988POPC   C3A27341  44.658   2.762   7.953
 6988POPC   C4A27342  44.662   2.782   7.653
 6988POPC   C1B27343  44.408   2.650   8.553
 6988POPC   C2B27344  44.455   2.703   8.253
 6988POPC   C3B27345  44.447   2.684   7.953
 6988POPC   C4B27346  44.441   2.631   7.653
 6989POPC   NC327347   5.065   8.993   9.453
 6989POPC   PO427348   5.062   8.927   9.153
 6989POPC   GL127349   5.099   9.008   8.853
 6989POPC   GL227350   5.050   8.874   8.853
 6989POPC   C1A27351   5.107   8.936   8.553
 6989POPC   D2A27352   5.044   8.969   8.253
 6989POPC   C3A27353   5.135   8.931   7.953
 6989POPC   C4A27354   5.105   8.972   7.653
 6989POPC   C1B27355   4.952   8.767   8.553
 6989POPC   C2B27356   4.918   8.765   8.253
 6989POPC   C3B27357   4.945   8.806   7.953
 6989POPC   C4B27358   4.949   8.769   7.653
 6990POPC   NC327359  22.947   3.568   9.453
 6990POPC   PO427360  22.952   3.552   9.153
 6990POPC   GL127361  22.943   3.546   8.853
 6990POPC   GL227362  22.804   3.580   8.853
 6990POPC   C1A27363  22.922   3.577   8.553
 6990POPC   D2A27364  22.985   3.541   8.253
 6990POPC   C3A27365  22.919   3.525   7.953
 6990POPC   C4A27366  22.927   3.509   7.653
 6990POPC   C1B27367  22.721   3.690   8.553
 6990POPC   C2B27368  22.738   3.648   8.253
 6990POPC   C3B27369  22.681   3.645   7.953
 6990POPC   C4B27370  22.766   3.654   7.653
 6991POPC   NC327371  33.792  22.195   9.453
 6991POPC   PO427372  33.835  22.139   9.153
 6991POPC   GL127373  33.785  22.157   8.853
 6991POPC   GL227374  33.666  22.138   8.853
 6991POPC   C1A27375  33.844  22.132   8.553
 6991POPC   D2A27376  33.844  22.134   8.253
 6991POPC   C3A27377  33.767  22.201   7.953
 6991POPC   C4A27378  33.778  22.137   7.653
 6991POPC   C1B27379  33.543  22.132   8.553
 6991POPC   C2B27380  33.606  22.061   8.253
 6991POPC   C3B27381  33.596  22.110   7.953
 6991POPC   C4B27382  33.541  22.056   7.653
 6992POPC   NC327383  38.478  14.441   9.453
 6992POPC   PO427384  38.465  14.425   9.153
 6992POPC   GL127385  38.465  14.428   8.853
 6992POPC   GL227386  38.455  14.535   8.853
 6992POPC   C1A27387  38.422  14.424   8.553
 6992POPC   D2A27388  38.502  14.385   8.253
 6992POPC   C3A27389  38.461  14.408   7.953
 6992POPC   C4A27390  38.449  14.419   7.653
 6992POPC   C1B27391  38.502  14.632   8.553
 6992POPC   C2B27392  38.480  14.646   8.253
 6992POPC   C3B27393  38.465  14.697   7.953
 6992POPC   C4B27394  38.532  14.658   7.653
 6993POPC   NC327395   4.286   8.215   9.453
 6993POPC   PO427396   4.279   8.168   9.153
 6993POPC   GL127397   4.322   8.233   8.853
 6993POPC   GL227398   4.279   8.302   8.853
 6993POPC   C1A27399   4.355   8.206   8.553
 6993POPC   D2A27400   4.328   8.150   8.253
 6993POPC   C3A27401   4.354   8.192   7.953
 6993POPC   C4A27402   4.350   8.160   7.653
 6993POPC   C1B27403   4.290   8.448   8.553
 6993POPC   C2B27404   4.262   8.439   8.253
 6993POPC   C3B27405   4.268   8.414   7.953
 6993POPC   C4B27406   4.327   8.420   7.653
 6994POPC   NC327407  33.756  34.539   9.453
 6994POPC   PO427408  33.783  34.603   9.153
 6994POPC   GL127409  33.753  34.568   8.853
 6994POPC   GL227410  33.890  34.548   8.853
 6994POPC   C1A27411  33.842  34.621   8.553
 6994POPC   D2A27412  33.839  34.575   8.253
 6994POPC   C3A27413  33.804  34.576   7.953
 6994POPC   C4A27414  33.808  34.556   7.653
 6994POPC   C1B27415  34.044  34.604   8.553
 6994POPC   C2B27416  34.093  34.643   8.253
 6994POPC   C3B27417  34.007  34.636   7.953
 6994POPC   C4B27418  34.046  34.617   7.653
 6995POPC   NC327419  26.080  12.066   9.453
 6995POPC   PO427420  26.045  12.093   9.153
 6995POPC   GL127421  26.074  12.105   8.853
 6995POPC   GL227422  25.869  12.063   8.853
 6995POPC   C1A27423  26.077  12.113   8.553
 6995POPC   D2A27424  26.052  12.084   8.253
 6995POPC   C3A27425  26.072  12.054   7.953
 6995POPC   C4A27426  25.992  12.124   7.653
 6995POPC   C1B27427  25.798  12.098   8.553
 6995POPC   C2B27428  25.838  12.130   8.253
 6995POPC   C3B27429  25.833  12.125   7.953
 6995POPC   C4B27430  25.789  12.075   7.653
 6996POPC   NC327431  35.344  21.426   9.453
 6996POPC   PO427432  35.376  21.391   9.153
 6996POPC   GL127433  35.390  21.368   8.853
 6996POPC   GL227434  35.399  21.497   8.853
 6996POPC   C1A27435  35.333  21.373   8.553
 6996POPC   D2A27436  35.395  21.365   8.253
 6996POPC   C3A27437  35.382  21.427   7.953
 6996POPC   C4A27438  35.316  21.397   7.653
 6996POPC   C1B27439  35.469  21.615   8.553
 6996POPC   C2B27440  35.494  21.615   8.253
 6996POPC   C3B27441  35.440  21.555   7.953
 6996POPC   C4B27442  35.493  21.560   7.653
 6997POPC   NC327443  11.343  14.379   9.453
 6997POPC   PO427444  11.328  14.363   9.153
 6997POPC   GL127445  11.253  14.362   8.853
 6997POPC   GL227446  11.193  14.395   8.853
 6997POPC   C1A27447  11.265  14.415   8.553
 6997POPC   D2A27448  11.274  14.391   8.253
 6997POPC   C3A27449  11.329  14.420   7.953
 6997POPC   C4A27450  11.282  14.404   7.653
 6997POPC   C1B27451  11.042  14.351   8.553
 6997POPC   C2B27452  11.078  14.376   8.253
 6997POPC   C3B27453  11.043  14.342   7.953
 6997POPC   C4B27454  11.019  14.306   7.653
 6998POPC   NC327455  29.190  43.858   9.453
 6998POPC   PO427456  29.135  43.885   9.153
 6998POPC   GL127457  29.136  43.877   8.853
 6998POPC   GL227458  29.116  44.044   8.853
 6998POPC   C1A27459  29.151  43.864   8.553
 6998POPC   D2A27460  29.168  43.896   8.253
 6998POPC   C3A27461  29.127  43.911   7.953
 6998POPC   C4A27462  29.123  43.888   7.653
 6998POPC   C1B27463  29.044  44.128   8.553
 6998POPC   C2B27464  29.076  44.083   8.253
 6998POPC   C3B27465  29.024  44.084   7.953
 6998POPC   C4B27466  29.033  44.151   7.653
 6999POPC   NC327467  30.686  21.406   9.453
 6999POPC   PO427468  30.650  21.360   9.153
 6999POPC   GL127469  30.680  21.433   8.853
 6999POPC   GL227470  30.668  21.249   8.853
 6999POPC   C1A27471  30.672  21.426   8.553
 6999POPC   D2A27472  30.722  21.389   8.253
 6999POPC   C3A27473  30.668  21.391   7.953
 6999POPC   C4A27474  30.649  21.423   7.653
 6999POPC   C1B27475  30.606  21.193   8.553
 6999POPC   C2B27476  30.578  21.149   8.253
 6999POPC   C3B27477  30.638  21.171   7.953
 6999POPC   C4B27478  30.606  21.168   7.653
 7000POPC   NC327479  19.066  20.613   9.453
 7000POPC   PO427480  19.069  20.587   9.153
 7000POPC   GL127481  19.072  20.652   8.853
 7000POPC   GL227482  18.936  20.706   8.853
 7000POPC   C1A27483  19.072  20.590   8.553
 7000POPC   D2A27484  19.053  20.636   8.253
 7000POPC   C3A27485  19.085  20.613   7.953
 7000POPC   C4A27486  19.031  20.621   7.653
 7000POPC   C1B27487  18.872  20.756   8.553
 7000POPC   C2B27488  18.892  20.787   8.253
 7000POPC   C3B27489  18.809  20.762   7.953
 7000POPC   C4B27490  18.818  20.749   7.653
 7001POPC   NC327491  19.034  43.093   9.453
 7001POPC   PO427492  19.034  43.106   9.153
 7001POPC   GL127493  19.049  43.120   8.853
 7001POPC   GL227494  18.984  42.970   8.853
 7001POPC   C1A27495  19.103  43.157   8.553
 7001POPC   D2A27496  19.027  43.109   8.253
 7001POPC   C3A27497  19.040  43.099   7.953
 7001POPC   C4A27498  19.039  43.154   7.653
 7001POPC   C1B27499  19.018  42.865   8.553
 7001POPC   C2B27500  19.030  42.915   8.253
 7001POPC   C3B27501  19.054  42.846   7.953
 7001POPC   C4B27502  19.054  42.899   7.653
 7002POPC   NC327503  18.233  36.122   9.453
 7002POPC   PO427504  18.242  36.149   9.153
 7002POPC   GL127505  18.323  36.144   8.853
 7002POPC   GL227506  18.207  36.133   8.853
 7002POPC   C1A27507  18.276  36.103   8.553
 7002POPC   D2A27508  18.240  36.078   8.253
 7002POPC   C3A27509  18.235  36.099   7.953
 7002POPC   C4A27510  18.240  36.169   7.653
 7002POPC   C1B27511  18.025  35.999   8.553
 7002POPC   C2B27512  18.063  36.018   8.253
 7002POPC   C3B27513  18.095  36.041   7.953
 7002POPC   C4B27514  18.039  36.070   7.653
 7003POPC   NC327515  16.741   7.439   9.453
 7003POPC   PO427516  16.685   7.442   9.153
 7003POPC   GL127517  16.725   7.446   8.853
 7003POPC   GL227518  16.749   7.328   8.853
 7003POPC   C1A27519  16.767   7.388   8.553
 7003POPC   D2A27520  16.765   7.400   8.253
 7003POPC   C3A27521  16.748   7.439   7.953
 7003POPC   C4A27522  16.695   7.414   7.653
 7003POPC   C1B27523  16.816   7.185   8.553
 7003POPC   C2B27524  16.785   7.186   8.253
 7003POPC   C3B27525  16.840   7.150   7.953
 7003POPC   C4B27526  16.845   7.212   7.653
 7004POPC   NC327527  16.768  27.625   9.453
 7004POPC   PO427528  16.683  27.585   9.153
 7004POPC   GL127529  16.739  27.621   8.853
 7004POPC   GL227530  16.589  27.686   8.853
 7004POPC   C1A27531  16.727  27.602   8.553
 7004POPC   D2A27532  16.692  27.610   8.253
 7004POPC   C3A27533  16.696  27.561   7.953
 7004POPC   C4A27534  16.754  27.556   7.653
 7004POPC   C1B27535  16.592  27.778   8.553
 7004POPC   C2B27536  16.500  27.713   8.253
 7004POPC   C3B27537  16.553  27.714   7.953
 7004POPC   C4B27538  16.576  27.802   7.653
 7005POPC   NC327539  33.776  43.853   9.453
 7005POPC   PO427540  33.838  43.929   9.153
 7005POPC   GL127541  33.831  43.901   8.853
 7005POPC   GL227542  33.793  43.820   8.853
 7005POPC   C1A27543  33.803  43.888   8.553
 7005POPC   D2A27544  33.842  43.857   8.253
 7005POPC   C3A27545  33.750  43.881   7.953
 7005POPC   C4A27546  33.840  43.863   7.653
 7005POPC   C1B27547  33.686  43.676   8.553
 7005POPC   C2B27548  33.661  43.627   8.253
 7005POPC   C3B27549  33.741  43.710   7.953
 7005POPC   C4B27550  33.662  43.668   7.653
 7006POPC   NC327551  36.902  14.446   9.453
 7006POPC   PO427552  36.916  14.442   9.153
 7006POPC   GL127553  36.893  14.430   8.853
 7006POPC   GL227554  37.073  14.357   8.853
 7006POPC   C1A27555  36.914  14.421   8.553
 7006POPC   D2A27556  36.918  14.364   8.253
 7006POPC   C3A27557  36.873  14.402   7.953
 7006POPC   C4A27558  36.881  14.425   7.653
 7006POPC   C1B27559  37.105  14.356   8.553
 7006POPC   C2B27560  37.170  14.401   8.253
 7006POPC   C3B27561  37.107  14.374   7.953
 7006POPC   C4B27562  37.175  14.340   7.653
 7007POPC   NC327563   4.337  16.748   9.453
 7007POPC   PO427564   4.345  16.727   9.153
 7007POPC   GL127565   4.329  16.756   8.853
 7007POPC   GL227566   4.292  16.625   8.853
 7007POPC   C1A27567   4.328  16.772   8.553
 7007POPC   D2A27568   4.365  16.741   8.253
 7007POPC   C3A27569   4.363  16.761   7.953
 7007POPC   C4A27570   4.350  16.779   7.653
 7007POPC   C1B27571   4.243  16.520   8.553
 7007POPC   C2B27572   4.173  16.549   8.253
 7007POPC   C3B27573   4.235  16.551   7.953
 7007POPC   C4B27574   4.237  16.491   7.653
 7008POPC   NC327575  31.474  36.088   9.453
 7008POPC   PO427576  31.513  36.090   9.153
 7008POPC   GL127577  31.437  36.161   8.853
 7008POPC   GL227578  31.309  36.133   8.853
 7008POPC   C1A27579  31.505  36.096   8.553
 7008POPC   D2A27580  31.456  36.131   8.253
 7008POPC   C3A27581  31.448  36.097   7.953
 7008POPC   C4A27582  31.502  36.083   7.653
 7008POPC   C1B27583  31.277  36.093   8.553
 7008POPC   C2B27584  31.251  36.049   8.253
 7008POPC   C3B27585  31.247  36.106   7.953
 7008POPC   C4B27586  31.186  36.095   7.653
 7009POPC   NC327587  10.499   8.211   9.453
 7009POPC   PO427588  10.477   8.218   9.153
 7009POPC   GL127589  10.562   8.170   8.853
 7009POPC   GL227590  10.382   8.288   8.853
 7009POPC   C1A27591  10.499   8.205   8.553
 7009POPC   D2A27592  10.503   8.199   8.253
 7009POPC   C3A27593  10.512   8.184   7.953
 7009POPC   C4A27594  10.560   8.233   7.653
 7009POPC   C1B27595  10.293   8.387   8.553
 7009POPC   C2B27596  10.323   8.348   8.253
 7009POPC   C3B27597  10.347   8.407   7.953
 7009POPC   C4B27598  10.369   8.368   7.653
 7010POPC   NC327599  30.661  41.569   9.453
 7010POPC   PO427600  30.711  41.537   9.153
 7010POPC   GL127601  30.729  41.592   8.853
 7010POPC   GL227602  30.649  41.511   8.853
 7010POPC   C1A27603  30.649  41.608   8.553
 7010POPC   D2A27604  30.722  41.529   8.253
 7010POPC   C3A27605  30.737  41.575   7.953
 7010POPC   C4A27606  30.674  41.568   7.653
 7010POPC   C1B27607  30.505  41.392   8.553
 7010POPC   C2B27608  30.534  41.332   8.253
 7010POPC   C3B27609  30.508  41.419   7.953
 7010POPC   C4B27610  30.499  41.411   7.653
 7011POPC   NC327611  12.053   8.154   9.453
 7011POPC   PO427612  12.102   8.198   9.153
 7011POPC   GL127613  12.076   8.174   8.853
 7011POPC   GL227614  12.248   8.209   8.853
 7011POPC   C1A27615  12.074   8.211   8.553
 7011POPC   D2A27616  12.104   8.220   8.253
 7011POPC   C3A27617  12.115   8.172   7.953
 7011POPC   C4A27618  12.048   8.206   7.653
 7011POPC   C1B27619  12.283   8.187   8.553
 7011POPC   C2B27620  12.280   8.180   8.253
 7011POPC   C3B27621  12.302   8.168   7.953
 7011POPC   C4B27622  12.363   8.179   7.653
 7012POPC   NC327623   0.457   8.939   9.453
 7012POPC   PO427624   0.400   8.958   9.153
 7012POPC   GL127625   0.397   8.987   8.853
 7012POPC   GL227626   0.347   9.030   8.853
 7012POPC   C1A27627   0.480   8.934   8.553
 7012POPC   D2A27628   0.412   8.956   8.253
 7012POPC   C3A27629   0.401   8.929   7.953
 7012POPC   C4A27630   0.483   9.009   7.653
 7012POPC   C1B27631   0.177   9.037   8.553
 7012POPC   C2B27632   0.189   9.078   8.253
 7012POPC   C3B27633   0.154   9.052   7.953
 7012POPC   C4B27634   0.232   9.027   7.653
 7013POPC   NC327635  26.009   7.443   9.453
 7013POPC   PO427636  25.998   7.456   9.153
 7013POPC   GL127637  26.012   7.426   8.853
 7013POPC   GL227638  26.063   7.528   8.853
 7013POPC   C1A27639  26.005   7.383   8.553
 7013POPC   D2A27640  26.067   7.411   8.253
 7013POPC   C3A27641  26.034   7.468   7.953
 7013POPC   C4A27642  26.081   7.449   7.653
 7013POPC   C1B27643  26.121   7.617   8.553
 7013POPC   C2B27644  26.107   7.659   8.253
 7013POPC   C3B27645  26.124   7.662   7.953
 7013POPC   C4B27646  26.079   7.664   7.653
 7014POPC   NC327647  12.041   9.724   9.453
 7014POPC   PO427648  12.104   9.725   9.153
 7014POPC   GL127649  12.082   9.716   8.853
 7014POPC   GL227650  11.948   9.792   8.853
 7014POPC   C1A27651  12.112   9.705   8.553
 7014POPC   D2A27652  12.070   9.762   8.253
 7014POPC   C3A27653  12.049   9.735   7.953
 7014POPC   C4A27654  12.120   9.776   7.653
 7014POPC   C1B27655  11.874   9.770   8.553
 7014POPC   C2B27656  11.799   9.859   8.253
 7014POPC   C3B27657  11.808   9.778   7.953
 7014POPC   C4B27658  11.869   9.808   7.653
 7015POPC   NC327659  25.229  33.784   9.453
 7015POPC   PO427660  25.284  33.836   9.153
 7015POPC   GL127661  25.279  33.830   8.853
 7015POPC   GL227662  25.191  33.743   8.853
 7015POPC   C1A27663  25.286  33.779   8.553
 7015POPC   D2A27664  25.310  33.782   8.253
 7015POPC   C3A27665  25.244  33.802   7.953
 7015POPC   C4A27666  25.302  33.766   7.653
 7015POPC   C1B27667  25.160  33.628   8.553
 7015POPC   C2B27668  25.156  33.637   8.253
 7015POPC   C3B27669  25.101  33.605   7.953
 7015POPC   C4B27670  25.083  33.583   7.653
 7016POPC   NC327671   3.580  38.426   9.453
 7016POPC   PO427672   3.589  38.481   9.153
 7016POPC   GL127673   3.534  38.445   8.853
 7016POPC   GL227674   3.614  38.363   8.853
 7016POPC   C1A27675   3.560  38.498   8.553
 7016POPC   D2A27676   3.572  38.426   8.253
 7016POPC   C3A27677   3.535  38.446   7.953
 7016POPC   C4A27678   3.529  38.476   7.653
 7016POPC   C1B27679   3.711  38.299   8.553
 7016POPC   C2B27680   3.710  38.316   8.253
 7016POPC   C3B27681   3.736  38.262   7.953
 7016POPC   C4B27682   3.728  38.311   7.653
 7017POPC   NC327683  19.835  12.094   9.453
 7017POPC   PO427684  19.866  12.055   9.153
 7017POPC   GL127685  19.854  12.075   8.853
 7017POPC   GL227686  19.753  11.969   8.853
 7017POPC   C1A27687  19.812  12.113   8.553
 7017POPC   D2A27688  19.808  12.108   8.253
 7017POPC   C3A27689  19.879  12.125   7.953
 7017POPC   C4A27690  19.882  12.106   7.653
 7017POPC   C1B27691  19.715  11.893   8.553
 7017POPC   C2B27692  19.700  11.853   8.253
 7017POPC   C3B27693  19.698  11.931   7.953
 7017POPC   C4B27694  19.688  11.920   7.653
 7018POPC   NC327695  24.477  40.747   9.453
 7018POPC   PO427696  24.489  40.746   9.153
 7018POPC   GL127697  24.441  40.746   8.853
 7018POPC   GL227698  24.430  40.671   8.853
 7018POPC   C1A27699  24.497  40.750   8.553
 7018POPC   D2A27700  24.491  40.829   8.253
 7018POPC   C3A27701  24.496  40.751   7.953
 7018POPC   C4A27702  24.505  40.817   7.653
 7018POPC   C1B27703  24.345  40.518   8.553
 7018POPC   C2B27704  24.414  40.591   8.253
 7018POPC   C3B27705  24.431  40.507   7.953
 7018POPC   C4B27706  24.385  40.556   7.653
 7019POPC   NC327707   9.741   1.227   9.453
 7019POPC   PO427708   9.770   1.242   9.153
 7019POPC   GL127709   9.791   1.216   8.853
 7019POPC   GL227710   9.691   1.165   8.853
 7019POPC   C1A27711   9.710   1.210   8.553
 7019POPC   D2A27712   9.777   1.258   8.253
 7019POPC   C3A27713   9.795   1.170   7.953
 7019POPC   C4A27714   9.757   1.234   7.653
 7019POPC   C1B27715   9.511   1.020   8.553
 7019POPC   C2B27716   9.562   1.083   8.253
 7019POPC   C3B27717   9.531   1.064   7.953
 7019POPC   C4B27718   9.577   1.014   7.653
 7020POPC   NC327719  40.738  33.830   9.453
 7020POPC   PO427720  40.782  33.828   9.153
 7020POPC   GL127721  40.742  33.779   8.853
 7020POPC   GL227722  40.683  33.750   8.853
 7020POPC   C1A27723  40.741  33.795   8.553
 7020POPC   D2A27724  40.745  33.813   8.253
 7020POPC   C3A27725  40.767  33.756   7.953
 7020POPC   C4A27726  40.818  33.772   7.653
 7020POPC   C1B27727  40.580  33.759   8.553
 7020POPC   C2B27728  40.585  33.746   8.253
 7020POPC   C3B27729  40.491  33.761   7.953
 7020POPC   C4B27730  40.556  33.732   7.653
 7021POPC   NC327731  17.521   1.177   9.453
 7021POPC   PO427732  17.551   1.216   9.153
 7021POPC   GL127733  17.531   1.218   8.853
 7021POPC   GL227734  17.394   1.135   8.853
 7021POPC   C1A27735  17.525   1.225   8.553
 7021POPC   D2A27736  17.534   1.178   8.253
 7021POPC   C3A27737  17.547   1.238   7.953
 7021POPC   C4A27738  17.501   1.238   7.653
 7021POPC   C1B27739  17.245   1.145   8.553
 7021POPC   C2B27740  17.234   1.113   8.253
 7021POPC   C3B27741  17.223   1.193   7.953
 7021POPC   C4B27742  17.237   1.190   7.653
 7022POPC   NC327743  34.552  24.517   9.453
 7022POPC   PO427744  34.610  24.537   9.153
 7022POPC   GL127745  34.573  24.465   8.853
 7022POPC   GL227746  34.464  24.553   8.853
 7022POPC   C1A27747  34.593  24.457   8.553
 7022POPC   D2A27748  34.620  24.461   8.253
 7022POPC   C3A27749  34.599  24.521   7.953
 7022POPC   C4A27750  34.533  24.450   7.653
 7022POPC   C1B27751  34.378  24.725   8.553
 7022POPC   C2B27752  34.437  24.703   8.253
 7022POPC   C3B27753  34.412  24.648   7.953
 7022POPC   C4B27754  34.374  24.664   7.653
 7023POPC   NC327755   0.415   8.159   9.453
 7023POPC   PO427756   0.469   8.174   9.153
 7023POPC   GL127757   0.404   8.182   8.853
 7023POPC   GL227758   0.338   8.112   8.853
 7023POPC   C1A27759   0.484   8.184   8.553
 7023POPC   D2A27760   0.475   8.202   8.253
 7023POPC   C3A27761   0.440   8.177   7.953
 7023POPC   C4A27762   0.434   8.235   7.653
 7023POPC   C1B27763   0.211   8.106   8.553
 7023POPC   C2B27764   0.162   8.087   8.253
 7023POPC   C3B27765   0.180   8.150   7.953
 7023POPC   C4B27766   0.225   8.090   7.653
 7024POPC   NC327767   3.588  31.521   9.453
 7024POPC   PO427768   3.549  31.498   9.153
 7024POPC   GL127769   3.552  31.500   8.853
 7024POPC   GL227770   3.509  31.521   8.853
 7024POPC   C1A27771   3.574  31.470   8.553
 7024POPC   D2A27772   3.539  31.464   8.253
 7024POPC   C3A27773   3.562  31.481   7.953
 7024POPC   C4A27774   3.531  31.429   7.653
 7024POPC   C1B27775   3.354  31.625   8.553
 7024POPC   C2B27776   3.400  31.674   8.253
 7024POPC   C3B27777   3.383  31.672   7.953
 7024POPC   C4B27778   3.381  31.674   7.653
 7025POPC   NC327779   8.179  14.401   9.453
 7025POPC   PO427780   8.153  14.453   9.153
 7025POPC   GL127781   8.151  14.390   8.853
 7025POPC   GL227782   8.130  14.467   8.853
 7025POPC   C1A27783   8.164  14.375   8.553
 7025POPC   D2A27784   8.241  14.415   8.253
 7025POPC   C3A27785   8.224  14.443   7.953
 7025POPC   C4A27786   8.235  14.371   7.653
 7025POPC   C1B27787   8.029  14.636   8.553
 7025POPC   C2B27788   8.095  14.620   8.253
 7025POPC   C3B27789   8.096  14.593   7.953
 7025POPC   C4B27790   8.034  14.627   7.653
 7026POPC   NC327791  40.032   0.481   9.453
 7026POPC   PO427792  39.973   0.469   9.153
 7026POPC   GL127793  39.977   0.440   8.853
 7026POPC   GL227794  40.071   0.306   8.853
 7026POPC   C1A27795  40.047   0.444   8.553
 7026POPC   D2A27796  40.005   0.486   8.253
 7026POPC   C3A27797  40.031   0.448   7.953
 7026POPC   C4A27798  40.034   0.401   7.653
 7026POPC   C1B27799  40.160   0.236   8.553
 7026POPC   C2B27800  40.173   0.225   8.253
 7026POPC   C3B27801  40.221   0.265   7.953
 7026POPC   C4B27802  40.131   0.267   7.653
 7027POPC   NC327803   3.573   9.767   9.453
 7027POPC   PO427804   3.511   9.712   9.153
 7027POPC   GL127805   3.558   9.769   8.853
 7027POPC   GL227806   3.569   9.880   8.853
 7027POPC   C1A27807   3.562   9.749   8.553
 7027POPC   D2A27808   3.525   9.738   8.253
 7027POPC   C3A27809   3.561   9.706   7.953
 7027POPC   C4A27810   3.539   9.725   7.653
 7027POPC   C1B27811   3.485  10.031   8.553
 7027POPC   C2B27812   3.510   9.958   8.253
 7027POPC   C3B27813   3.564   9.983   7.953
 7027POPC   C4B27814   3.538   9.955   7.653
 7028POPC   NC327815  36.857  36.854   9.453
 7028POPC   PO427816  36.856  36.951   9.153
 7028POPC   GL127817  36.878  36.889   8.853
 7028POPC   GL227818  36.790  36.939   8.853
 7028POPC   C1A27819  36.916  36.874   8.553
 7028POPC   D2A27820  36.931  36.914   8.253
 7028POPC   C3A27821  36.895  36.902   7.953
 7028POPC   C4A27822  36.893  36.889   7.653
 7028POPC   C1B27823  36.698  36.942   8.553
 7028POPC   C2B27824  36.624  36.873   8.253
 7028POPC   C3B27825  36.640  36.883   7.953
 7028POPC   C4B27826  36.626  36.922   7.653
 7029POPC   NC327827   2.005   1.200   9.453
 7029POPC   PO427828   1.941   1.258   9.153
 7029POPC   GL127829   1.982   1.257   8.853
 7029POPC   GL227830   2.108   1.185   8.853
 7029POPC   C1A27831   1.953   1.177   8.553
 7029POPC   D2A27832   1.992   1.192   8.253
 7029POPC   C3A27833   2.027   1.223   7.953
 7029POPC   C4A27834   1.956   1.213   7.653
 7029POPC   C1B27835   2.260   1.089   8.553
 7029POPC   C2B27836   2.266   1.137   8.253
 7029POPC   C3B27837   2.208   1.115   7.953
 7029POPC   C4B27838   2.239   1.173   7.653
 7030POPC   NC327839   5.904   2.812   9.453
 7030POPC   PO427840   5.894   2.805   9.153
 7030POPC   GL127841   5.865   2.814   8.853
 7030POPC   GL227842   5.813   2.664   8.853
 7030POPC   C1A27843   5.877   2.769   8.553
 7030POPC   D2A27844   5.889   2.789   8.253
 7030POPC   C3A27845   5.840   2.764   7.953
 7030POPC   C4A27846   5.914   2.765   7.653
 7030POPC   C1B27847   5.678   2.599   8.553
 7030POPC   C2B27848   5.720   2.522   8.253
 7030POPC   C3B27849   5.676   2.594   7.953
 7030POPC   C4B27850   5.752   2.524   7.653
 7031POPC   NC327851   5.877  37.696   9.453
 7031POPC   PO427852   5.842  37.654   9.153
 7031POPC   GL127853   5.830  37.649   8.853
 7031POPC   GL227854   5.914  37.786   8.853
 7031POPC   C1A27855   5.842  37.707   8.553
 7031POPC   D2A27856   5.862  37.654   8.253
 7031POPC   C3A27857   5.833  37.725   7.953
 7031POPC   C4A27858   5.842  37.686   7.653
 7031POPC   C1B27859   5.972  37.915   8.553
 7031POPC   C2B27860   5.923  37.871   8.253
 7031POPC   C3B27861   5.932  37.875   7.953
 7031POPC   C4B27862   5.931  37.897   7.653
 7032POPC   NC327863   3.513   4.356   9.453
 7032POPC   PO427864   3.553   4.337   9.153
 7032POPC   GL127865   3.591   4.273   8.853
 7032POPC   GL227866   3.542   4.430   8.853
 7032POPC   C1A27867   3.568   4.365   8.553
 7032POPC   D2A27868   3.496   4.338   8.253
 7032POPC   C3A27869   3.525   4.365   7.953
 7032POPC   C4A27870   3.555   4.302   7.653
 7032POPC   C1B27871   3.503   4.552   8.553
 7032POPC   C2B27872   3.527   4.551   8.253
 7032POPC   C3B27873   3.518   4.587   7.953
 7032POPC   C4B27874   3.475   4.581   7.653
 7033POPC   NC327875  14.380  29.142   9.453
 7033POPC   PO427876  14.403  29.099   9.153
 7033POPC   GL127877  14.450  29.146   8.853
 7033POPC   GL227878  14.462  29.080   8.853
 7033POPC   C1A27879  14.366  29.181   8.553
 7033POPC   D2A27880  14.437  29.148   8.253
 7033POPC   C3A27881  14.380  29.153   7.953
 7033POPC   C4A27882  14.386  29.113   7.653
 7033POPC   C1B27883  14.585  28.941   8.553
 7033POPC   C2B27884  14.543  28.999   8.253
 7033POPC   C3B27885  14.615  28.967   7.953
 7033POPC   C4B27886  14.611  28.931   7.653
 7034POPC   NC327887  19.039  30.648   9.453
 7034POPC   PO427888  19.025  30.695   9.153
 7034POPC   GL127889  19.097  30.731   8.853
 7034POPC   GL227890  18.974  30.539   8.853
 7034POPC   C1A27891  19.044  30.704   8.553
 7034POPC   D2A27892  19.043  30.712   8.253
 7034POPC   C3A27893  19.054  30.649   7.953
 7034POPC   C4A27894  19.090  30.673   7.653
 7034POPC   C1B27895  18.983  30.504   8.553
 7034POPC   C2B27896  18.932  30.422   8.253
 7034POPC   C3B27897  19.000  30.450   7.953
 7034POPC   C4B27898  19.009  30.457   7.653
 7035POPC   NC327899  16.001  31.514   9.453
 7035POPC   PO427900  15.955  31.497   9.153
 7035POPC   GL127901  15.942  31.423   8.853
 7035POPC   GL227902  16.022  31.361   8.853
 7035POPC   C1A27903  15.951  31.500   8.553
 7035POPC   D2A27904  15.911  31.442   8.253
 7035POPC   C3A27905  15.944  31.468   7.953
 7035POPC   C4A27906  15.912  31.428   7.653
 7035POPC   C1B27907  16.140  31.239   8.553
 7035POPC   C2B27908  16.091  31.247   8.253
 7035POPC   C3B27909  16.065  31.234   7.953
 7035POPC   C4B27910  16.094  31.262   7.653
 7036POPC   NC327911   6.628  21.393   9.453
 7036POPC   PO427912   6.630  21.411   9.153
 7036POPC   GL127913   6.662  21.393   8.853
 7036POPC   GL227914   6.531  21.331   8.853
 7036POPC   C1A27915   6.692  21.391   8.553
 7036POPC   D2A27916   6.628  21.405   8.253
 7036POPC   C3A27917   6.621  21.342   7.953
 7036POPC   C4A27918   6.617  21.353   7.653
 7036POPC   C1B27919   6.423  21.172   8.553
 7036POPC   C2B27920   6.456  21.207   8.253
 7036POPC   C3B27921   6.466  21.169   7.953
 7036POPC   C4B27922   6.501  21.228   7.653
 7037POPC   NC327923  40.788   1.184   9.453
 7037POPC   PO427924  40.802   1.164   9.153
 7037POPC   GL127925  40.734   1.166   8.853
 7037POPC   GL227926  40.657   1.111   8.853
 7037POPC   C1A27927  40.733   1.225   8.553
 7037POPC   D2A27928  40.781   1.182   8.253
 7037POPC   C3A27929  40.807   1.255   7.953
 7037POPC   C4A27930  40.805   1.170   7.653
 7037POPC   C1B27931  40.595   1.076   8.553
 7037POPC   C2B27932  40.614   1.052   8.253
 7037POPC   C3B27933  40.566   1.059   7.953
 7037POPC   C4B27934  40.606   1.032   7.653
 7038POPC   NC327935   9.010   5.820   9.453
 7038POPC   PO427936   8.998   5.853   9.153
 7038POPC   GL127937   8.956   5.847   8.853
 7038POPC   GL227938   9.064   6.025   8.853
 7038POPC   C1A27939   8.970   5.843   8.553
 7038POPC   D2A27940   8.935   5.879   8.253
 7038POPC   C3A27941   8.937   5.869   7.953
 7038POPC   C4A27942   8.989   5.822   7.653
 7038POPC   C1B27943   9.088   6.120   8.553
 7038POPC   C2B27944   9.113   6.064   8.253
 7038POPC   C3B27945   9.092   6.094   7.953
 7038POPC   C4B27946   9.054   6.115   7.653
 7039POPC   NC327947  41.593  20.561   9.453
 7039POPC   PO427948  41.546  20.609   9.153
 7039POPC   GL127949  41.528  20.632   8.853
 7039POPC   GL227950  41.677  20.715   8.853
 7039POPC   C1A27951  41.510  20.570   8.553
 7039POPC   D2A27952  41.537  20.617   8.253
 7039POPC   C3A27953  41.514  20.632   7.953
 7039POPC   C4A27954  41.519  20.613   7.653
 7039POPC   C1B27955  41.779  20.822   8.553
 7039POPC   C2B27956  41.683  20.808   8.253
 7039POPC   C3B27957  41.729  20.828   7.953
 7039POPC   C4B27958  41.757  20.748   7.653
 7040POPC   NC327959   4.302   5.133   9.453
 7040POPC   PO427960   4.303   5.130   9.153
 7040POPC   GL127961   4.269   5.121   8.853
 7040POPC   GL227962   4.415   5.123   8.853
 7040POPC   C1A27963   4.318   5.140   8.553
 7040POPC   D2A27964   4.295   5.064   8.253
 7040POPC   C3A27965   4.329   5.067   7.953
 7040POPC   C4A27966   4.335   5.093   7.653
 7040POPC   C1B27967   4.570   5.139   8.553
 7040POPC   C2B27968   4.601   5.194   8.253
 7040POPC   C3B27969   4.547   5.164   7.953
 7040POPC   C4B27970   4.600   5.131   7.653
 7041POPC   NC327971  38.435  32.284   9.453
 7041POPC   PO427972  38.491  32.225   9.153
 7041POPC   GL127973  38.432  32.273   8.853
 7041POPC   GL227974  38.373  32.402   8.853
 7041POPC   C1A27975  38.483  32.213   8.553
 7041POPC   D2A27976  38.497  32.211   8.253
 7041POPC   C3A27977  38.430  32.247   7.953
 7041POPC   C4A27978  38.454  32.292   7.653
 7041POPC   C1B27979  38.407  32.458   8.553
 7041POPC   C2B27980  38.383  32.489   8.253
 7041POPC   C3B27981  38.397  32.467   7.953
 7041POPC   C4B27982  38.406  32.458   7.653
 7042POPC   NC327983  10.490  16.688   9.453
 7042POPC   PO427984  10.559  16.765   9.153
 7042POPC   GL127985  10.503  16.693   8.853
 7042POPC   GL227986  10.613  16.828   8.853
 7042POPC   C1A27987  10.546  16.761   8.553
 7042POPC   D2A27988  10.488  16.756   8.253
 7042POPC   C3A27989  10.520  16.709   7.953
 7042POPC   C4A27990  10.528  16.751   7.653
 7042POPC   C1B27991  10.768  16.817   8.553
 7042POPC   C2B27992  10.724  16.814   8.253
 7042POPC   C3B27993  10.781  16.889   7.953
 7042POPC   C4B27994  10.749  16.830   7.653
 7043POPC   NC327995  26.013  15.189   9.453
 7043POPC   PO427996  26.071  15.154   9.153
 7043POPC   GL127997  26.064  15.202   8.853
 7043POPC   GL227998  25.984  15.149   8.853
 7043POPC   C1A27999  25.999  15.136   8.553
 7043POPC   D2A28000  26.030  15.149   8.253
 7043POPC   C3A28001  26.028  15.226   7.953
 7043POPC   C4A28002  26.083  15.135   7.653
 7043POPC   C1B28003  25.832  14.999   8.553
 7043POPC   C2B28004  25.829  15.027   8.253
 7043POPC   C3B28005  25.882  15.047   7.953
 7043POPC   C4B28006  25.806  15.045   7.653
 7044POPC   NC328007  36.934   9.754   9.453
 7044POPC   PO428008  36.951   9.700   9.153
 7044POPC   GL128009  36.917   9.700   8.853
 7044POPC   GL228010  36.784   9.707   8.853
 7044POPC   C1A28011  36.943   9.740   8.553
 7044POPC   D2A28012  36.860   9.794   8.253
 7044POPC   C3A28013  36.920   9.732   7.953
 7044POPC   C4A28014  36.934   9.762   7.653
 7044POPC   C1B28015  36.676   9.779   8.553
 7044POPC   C2B28016  36.618   9.708   8.253
 7044POPC   C3B28017  36.617   9.775   7.953
 7044POPC   C4B28018  36.672   9.745   7.653
 7045POPC   NC328019  20.603   2.754   9.453
 7045POPC   PO428020  20.636   2.732   9.153
 7045POPC   GL128021  20.623   2.731   8.853
 7045POPC   GL228022  20.478   2.815   8.853
 7045POPC   C1A28023  20.626   2.815   8.553
 7045POPC   D2A28024  20.654   2.732   8.253
 7045POPC   C3A28025  20.603   2.793   7.953
 7045POPC   C4A28026  20.597   2.756   7.653
 7045POPC   C1B28027  20.434   2.919   8.553
 7045POPC   C2B28028  20.352   2.936   8.253
 7045POPC   C3B28029  20.363   2.928   7.953
 7045POPC   C4B28030  20.431   2.855   7.653
 7046POPC   NC328031  39.243  19.025   9.453
 7046POPC   PO428032  39.254  19.069   9.153
 7046POPC   GL128033  39.199  19.089   8.853
 7046POPC   GL228034  39.148  19.018   8.853
 7046POPC   C1A28035  39.263  19.066   8.553
 7046POPC   D2A28036  39.272  19.105   8.253
 7046POPC   C3A28037  39.214  19.050   7.953
 7046POPC   C4A28038  39.230  19.092   7.653
 7046POPC   C1B28039  38.963  18.979   8.553
 7046POPC   C2B28040  38.978  18.983   8.253
 7046POPC   C3B28041  38.967  19.051   7.953
 7046POPC   C4B28042  39.014  19.052   7.653
 7047POPC   NC328043   7.391  13.646   9.453
 7047POPC   PO428044   7.448  13.612   9.153
 7047POPC   GL128045   7.404  13.658   8.853
 7047POPC   GL228046   7.343  13.548   8.853
 7047POPC   C1A28047   7.385  13.613   8.553
 7047POPC   D2A28048   7.377  13.619   8.253
 7047POPC   C3A28049   7.399  13.627   7.953
 7047POPC   C4A28050   7.427  13.640   7.653
 7047POPC   C1B28051   7.209  13.501   8.553
 7047POPC   C2B28052   7.182  13.506   8.253
 7047POPC   C3B28053   7.231  13.570   7.953
 7047POPC   C4B28054   7.142  13.495   7.653
 7048POPC   NC328055   2.762  19.041   9.453
 7048POPC   PO428056   2.793  19.013   9.153
 7048POPC   GL128057   2.746  19.100   8.853
 7048POPC   GL228058   2.801  18.921   8.853
 7048POPC   C1A28059   2.776  19.106   8.553
 7048POPC   D2A28060   2.767  19.030   8.253
 7048POPC   C3A28061   2.743  19.098   7.953
 7048POPC   C4A28062   2.794  19.068   7.653
 7048POPC   C1B28063   2.946  18.839   8.553
 7048POPC   C2B28064   2.932  18.801   8.253
 7048POPC   C3B28065   2.903  18.878   7.953
 7048POPC   C4B28066   2.927  18.809   7.653
 7049POPC   NC328067  43.146  11.331   9.453
 7049POPC   PO428068  43.115  11.254   9.153
 7049POPC   GL128069  43.079  11.322   8.853
 7049POPC   GL228070  43.018  11.292   8.853
 7049POPC   C1A28071  43.146  11.321   8.553
 7049POPC   D2A28072  43.109  11.282   8.253
 7049POPC   C3A28073  43.137  11.271   7.953
 7049POPC   C4A28074  43.138  11.323   7.653
 7049POPC   C1B28075  42.884  11.232   8.553
 7049POPC   C2B28076  42.885  11.170   8.253
 7049POPC   C3B28077  42.873  11.222   7.953
 7049POPC   C4B28078  42.899  11.192   7.653
 7050POPC   NC328079  21.343  18.251   9.453
 7050POPC   PO428080  21.403  18.249   9.153
 7050POPC   GL128081  21.394  18.305   8.853
 7050POPC   GL228082  21.376  18.456   8.853
 7050POPC   C1A28083  21.434  18.286   8.553
 7050POPC   D2A28084  21.410  18.271   8.253
 7050POPC   C3A28085  21.358  18.323   7.953
 7050POPC   C4A28086  21.426  18.237   7.653
 7050POPC   C1B28087  21.438  18.522   8.553
 7050POPC   C2B28088  21.386  18.485   8.253
 7050POPC   C3B28089  21.426  18.560   7.953
 7050POPC   C4B28090  21.415  18.534   7.653
 7051POPC   NC328091  41.521  32.297   9.453
 7051POPC   PO428092  41.533  32.231   9.153
 7051POPC   GL128093  41.555  32.292   8.853
 7051POPC   GL228094  41.538  32.389   8.853
 7051POPC   C1A28095  41.583  32.288   8.553
 7051POPC   D2A28096  41.553  32.240   8.253
 7051POPC   C3A28097  41.566  32.263   7.953
 7051POPC   C4A28098  41.536  32.219   7.653
 7051POPC   C1B28099  41.539  32.507   8.553
 7051POPC   C2B28100  41.572  32.506   8.253
 7051POPC   C3B28101  41.527  32.493   7.953
 7051POPC   C4B28102  41.617  32.526   7.653
 7052POPC   NC328103  28.384  29.929   9.453
 7052POPC   PO428104  28.419  29.883   9.153
 7052POPC   GL128105  28.412  29.919   8.853
 7052POPC   GL228106  28.310  29.781   8.853
 7052POPC   C1A28107  28.399  29.960   8.553
 7052POPC   D2A28108  28.329  29.884   8.253
 7052POPC   C3A28109  28.387  29.907   7.953
 7052POPC   C4A28110  28.362  29.970   7.653
 7052POPC   C1B28111  28.264  29.676   8.553
 7052POPC   C2B28112  28.241  29.657   8.253
 7052POPC   C3B28113  28.256  29.678   7.953
 7052POPC   C4B28114  28.215  29.732   7.653
 7053POPC   NC328115  24.469  41.537   9.453
 7053POPC   PO428116  24.538  41.560   9.153
 7053POPC   GL128117  24.532  41.590   8.853
 7053POPC   GL228118  24.386  41.602   8.853
 7053POPC   C1A28119  24.535  41.513   8.553
 7053POPC   D2A28120  24.513  41.522   8.253
 7053POPC   C3A28121  24.442  41.604   7.953
 7053POPC   C4A28122  24.450  41.568   7.653
 7053POPC   C1B28123  24.228  41.609   8.553
 7053POPC   C2B28124  24.218  41.647   8.253
 7053POPC   C3B28125  24.260  41.676   7.953
 7053POPC   C4B28126  24.272  41.643   7.653
 7054POPC   NC328127  15.212  33.019   9.453
 7054POPC   PO428128  15.205  33.025   9.153
 7054POPC   GL128129  15.155  33.023   8.853
 7054POPC   GL228130  15.320  33.108   8.853
 7054POPC   C1A28131  15.156  33.031   8.553
 7054POPC   D2A28132  15.220  33.005   8.253
 7054POPC   C3A28133  15.147  33.059   7.953
 7054POPC   C4A28134  15.176  33.010   7.653
 7054POPC   C1B28135  15.355  33.184   8.553
 7054POPC   C2B28136  15.401  33.200   8.253
 7054POPC   C3B28137  15.396  33.210   7.953
 7054POPC   C4B28138  15.339  33.205   7.653
 7055POPC   NC328139  25.231  36.109   9.453
 7055POPC   PO428140  25.310  36.096   9.153
 7055POPC   GL128141  25.298  36.159   8.853
 7055POPC   GL228142  25.342  36.156   8.853
 7055POPC   C1A28143  25.291  36.120   8.553
 7055POPC   D2A28144  25.281  36.099   8.253
 7055POPC   C3A28145  25.231  36.090   7.953
 7055POPC   C4A28146  25.229  36.124   7.653
 7055POPC   C1B28147  25.439  36.241   8.553
 7055POPC   C2B28148  25.455  36.213   8.253
 7055POPC   C3B28149  25.497  36.261   7.953
 7055POPC   C4B28150  25.515  36.282   7.653
 7056POPC   NC328151  24.442  11.340   9.453
 7056POPC   PO428152  24.449  11.282   9.153
 7056POPC   GL128153  24.441  11.332   8.853
 7056POPC   GL228154  24.435  11.199   8.853
 7056POPC   C1A28155  24.485  11.318   8.553
 7056POPC   D2A28156  24.518  11.339   8.253
 7056POPC   C3A28157  24.496  11.276   7.953
 7056POPC   C4A28158  24.527  11.310   7.653
 7056POPC   C1B28159  24.302  11.179   8.553
 7056POPC   C2B28160  24.333  11.116   8.253
 7056POPC   C3B28161  24.348  11.128   7.953
 7056POPC   C4B28162  24.275  11.175   7.653
 7057POPC   NC328163  41.547   9.017   9.453
 7057POPC   PO428164  41.512   9.012   9.153
 7057POPC   GL128165  41.599   8.946   8.853
 7057POPC   GL228166  41.654   8.990   8.853
 7057POPC   C1A28167  41.600   8.973   8.553
 7057POPC   D2A28168  41.533   8.998   8.253
 7057POPC   C3A28169  41.539   8.991   7.953
 7057POPC   C4A28170  41.583   8.953   7.653
 7057POPC   C1B28171  41.813   9.019   8.553
 7057POPC   C2B28172  41.827   9.001   8.253
 7057POPC   C3B28173  41.767   8.966   7.953
 7057POPC   C4B28174  41.826   8.946   7.653
 7058POPC   NC328175  42.309  23.740   9.453
 7058POPC   PO428176  42.315  23.712   9.153
 7058POPC   GL128177  42.353  23.728   8.853
 7058POPC   GL228178  42.246  23.689   8.853
 7058POPC   C1A28179  42.348  23.701   8.553
 7058POPC   D2A28180  42.356  23.678   8.253
 7058POPC   C3A28181  42.349  23.673   7.953
 7058POPC   C4A28182  42.310  23.717   7.653
 7058POPC   C1B28183  42.101  23.594   8.553
 7058POPC   C2B28184  42.089  23.661   8.253
 7058POPC   C3B28185  42.138  23.615   7.953
 7058POPC   C4B28186  42.138  23.591   7.653
 7059POPC   NC328187   6.622  17.472   9.453
 7059POPC   PO428188   6.608  17.481   9.153
 7059POPC   GL128189   6.635  17.508   8.853
 7059POPC   GL228190   6.776  17.375   8.853
 7059POPC   C1A28191   6.692  17.502   8.553
 7059POPC   D2A28192   6.622  17.557   8.253
 7059POPC   C3A28193   6.602  17.534   7.953
 7059POPC   C4A28194   6.615  17.538   7.653
 7059POPC   C1B28195   6.810  17.356   8.553
 7059POPC   C2B28196   6.831  17.300   8.253
 7059POPC   C3B28197   6.823  17.379   7.953
 7059POPC   C4B28198   6.874  17.296   7.653
 7060POPC   NC328199   2.789  12.079   9.453
 7060POPC   PO428200   2.810  12.106   9.153
 7060POPC   GL128201   2.781  12.114   8.853
 7060POPC   GL228202   2.712  12.242   8.853
 7060POPC   C1A28203   2.815  12.059   8.553
 7060POPC   D2A28204   2.761  12.061   8.253
 7060POPC   C3A28205   2.812  12.124   7.953
 7060POPC   C4A28206   2.759  12.093   7.653
 7060POPC   C1B28207   2.763  12.282   8.553
 7060POPC   C2B28208   2.693  12.341   8.253
 7060POPC   C3B28209   2.687  12.315   7.953
 7060POPC   C4B28210   2.689  12.339   7.653
 7061POPC   NC328211  30.680  29.920   9.453
 7061POPC   PO428212  30.740  29.932   9.153
 7061POPC   GL128213  30.701  29.909   8.853
 7061POPC   GL228214  30.665  29.760   8.853
 7061POPC   C1A28215  30.653  29.923   8.553
 7061POPC   D2A28216  30.659  29.927   8.253
 7061POPC   C3A28217  30.667  29.888   7.953
 7061POPC   C4A28218  30.681  29.925   7.653
 7061POPC   C1B28219  30.704  29.660   8.553
 7061POPC   C2B28220  30.728  29.679   8.253
 7061POPC   C3B28221  30.766  29.693   7.953
 7061POPC   C4B28222  30.752  29.703   7.653
 7062POPC   NC328223  37.728  33.013   9.453
 7062POPC   PO428224  37.667  33.055   9.153
 7062POPC   GL128225  37.724  33.051   8.853
 7062POPC   GL228226  37.701  32.915   8.853
 7062POPC   C1A28227  37.714  33.064   8.553
 7062POPC   D2A28228  37.674  32.974   8.253
 7062POPC   C3A28229  37.708  33.014   7.953
 7062POPC   C4A28230  37.682  33.046   7.653
 7062POPC   C1B28231  37.819  32.785   8.553
 7062POPC   C2B28232  37.811  32.829   8.253
 7062POPC   C3B28233  37.754  32.798   7.953
 7062POPC   C4B28234  37.818  32.833   7.653
 7063POPC   NC328235   1.203  25.272   9.453
 7063POPC   PO428236   1.196  25.300   9.153
 7063POPC   GL128237   1.204  25.224   8.853
 7063POPC   GL228238   1.153  25.360   8.853
 7063POPC   C1A28239   1.208  25.269   8.553
 7063POPC   D2A28240   1.264  25.226   8.253
 7063POPC   C3A28241   1.168  25.307   7.953
 7063POPC   C4A28242   1.204  25.271   7.653
 7063POPC   C1B28243   1.103  25.472   8.553
 7063POPC   C2B28244   1.044  25.428   8.253
 7063POPC   C3B28245   1.024  25.446   7.953
 7063POPC   C4B28246   1.059  25.469   7.653
 7064POPC   NC328247  11.286  12.116   9.453
 7064POPC   PO428248  11.254  12.033   9.153
 7064POPC   GL128249  11.267  12.117   8.853
 7064POPC   GL228250  11.196  12.087   8.853
 7064POPC   C1A28251  11.289  12.113   8.553
 7064POPC   D2A28252  11.306  12.105   8.253
 7064POPC   C3A28253  11.271  12.083   7.953
 7064POPC   C4A28254  11.330  12.040   7.653
 7064POPC   C1B28255  11.018  12.135   8.553
 7064POPC   C2B28256  11.098  12.148   8.253
 7064POPC   C3B28257  11.096  12.185   7.953
 7064POPC   C4B28258  11.102  12.160   7.653
 7065POPC   NC328259  38.445  27.569   9.453
 7065POPC   PO428260  38.489  27.625   9.153
 7065POPC   GL128261  38.482  27.606   8.853
 7065POPC   GL228262  38.483  27.715   8.853
 7065POPC   C1A28263  38.457  27.552   8.553
 7065POPC   D2A28264  38.479  27.549   8.253
 7065POPC   C3A28265  38.476  27.550   7.953
 7065POPC   C4A28266  38.437  27.558   7.653
 7065POPC   C1B28267  38.556  27.777   8.553
 7065POPC   C2B28268  38.622  27.777   8.253
 7065POPC   C3B28269  38.543  27.782   7.953
 7065POPC   C4B28270  38.612  27.847   7.653
 7066POPC   NC328271  39.225  22.929   9.453
 7066POPC   PO428272  39.236  22.898   9.153
 7066POPC   GL128273  39.234  22.970   8.853
 7066POPC   GL228274  39.314  23.053   8.853
 7066POPC   C1A28275  39.248  22.933   8.553
 7066POPC   D2A28276  39.195  22.905   8.253
 7066POPC   C3A28277  39.188  22.909   7.953
 7066POPC   C4A28278  39.258  22.945   7.653
 7066POPC   C1B28279  39.427  23.072   8.553
 7066POPC   C2B28280  39.398  23.117   8.253
 7066POPC   C3B28281  39.424  23.126   7.953
 7066POPC   C4B28282  39.483  23.129   7.653
 7067POPC   NC328283  40.037  21.350   9.453
 7067POPC   PO428284  39.967  21.429   9.153
 7067POPC   GL128285  39.992  21.400   8.853
 7067POPC   GL228286  40.078  21.265   8.853
 7067POPC   C1A28287  39.988  21.406   8.553
 7067POPC   D2A28288  39.975  21.372   8.253
 7067POPC   C3A28289  40.020  21.434   7.953
 7067POPC   C4A28290  39.973  21.363   7.653
 7067POPC   C1B28291  40.106  21.135   8.553
 7067POPC   C2B28292  40.115  21.171   8.253
 7067POPC   C3B28293  40.088  21.151   7.953
 7067POPC   C4B28294  40.076  21.143   7.653
 7068POPC   NC328295  20.653  36.858   9.453
 7068POPC   PO428296  20.597  36.899   9.153
 7068POPC   GL128297  20.622  36.913   8.853
 7068POPC   GL228298  20.633  37.019   8.853
 7068POPC   C1A28299  20.564  36.888   8.553
 7068POPC   D2A28300  20.608  36.895   8.253
 7068POPC   C3A28301  20.622  36.879   7.953
 7068POPC   C4A28302  20.592  36.937   7.653
 7068POPC   C1B28303  20.758  37.151   8.553
 7068POPC   C2B28304  20.699  37.101   8.253
 7068POPC   C3B28305  20.716  37.166   7.953
 7068POPC   C4B28306  20.717  37.153   7.653
 7069POPC   NC328307  43.073   1.253   9.453
 7069POPC   PO428308  43.160   1.230   9.153
 7069POPC   GL128309  43.106   1.228   8.853
 7069POPC   GL228310  43.045   1.264   8.853
 7069POPC   C1A28311  43.160   1.216   8.553
 7069POPC   D2A28312  43.064   1.230   8.253
 7069POPC   C3A28313  43.143   1.195   7.953
 7069POPC   C4A28314  43.127   1.189   7.653
 7069POPC   C1B28315  42.930   1.418   8.553
 7069POPC   C2B28316  42.949   1.401   8.253
 7069POPC   C3B28317  42.884   1.341   7.953
 7069POPC   C4B28318  42.937   1.402   7.653
 7070POPC   NC328319  38.457  30.733   9.453
 7070POPC   PO428320  38.483  30.658   9.153
 7070POPC   GL128321  38.407  30.690   8.853
 7070POPC   GL228322  38.576  30.743   8.853
 7070POPC   C1A28323  38.413  30.694   8.553
 7070POPC   D2A28324  38.504  30.732   8.253
 7070POPC   C3A28325  38.447  30.741   7.953
 7070POPC   C4A28326  38.429  30.731   7.653
 7070POPC   C1B28327  38.687  30.746   8.553
 7070POPC   C2B28328  38.743  30.714   8.253
 7070POPC   C3B28329  38.684  30.709   7.953
 7070POPC   C4B28330  38.702  30.712   7.653
 7071POPC   NC328331  23.723  15.139   9.453
 7071POPC   PO428332  23.698  15.166   9.153
 7071POPC   GL128333  23.665  15.220   8.853
 7071POPC   GL228334  23.814  15.303   8.853
 7071POPC   C1A28335  23.731  15.159   8.553
 7071POPC   D2A28336  23.666  15.160   8.253
 7071POPC   C3A28337  23.711  15.209   7.953
 7071POPC   C4A28338  23.672  15.151   7.653
 7071POPC   C1B28339  23.848  15.400   8.553
 7071POPC   C2B28340  23.789  15.371   8.253
 7071POPC   C3B28341  23.838  15.416   7.953
 7071POPC   C4B28342  23.799  15.376   7.653
 7072POPC   NC328343  16.726   6.621   9.453
 7072POPC   PO428344  16.737   6.637   9.153
 7072POPC   GL128345  16.776   6.661   8.853
 7072POPC   GL228346  16.863   6.658   8.853
 7072POPC   C1A28347  16.765   6.669   8.553
 7072POPC   D2A28348  16.689   6.688   8.253
 7072POPC   C3A28349  16.708   6.604   7.953
 7072POPC   C4A28350  16.754   6.670   7.653
 7072POPC   C1B28351  16.989   6.617   8.553
 7072POPC   C2B28352  16.973   6.639   8.253
 7072POPC   C3B28353  16.937   6.612   7.953
 7072POPC   C4B28354  17.023   6.662   7.653
 7073POPC   NC328355   5.091  33.026   9.453
 7073POPC   PO428356   5.089  33.039   9.153
 7073POPC   GL128357   5.093  32.986   8.853
 7073POPC   GL228358   5.204  33.083   8.853
 7073POPC   C1A28359   5.073  33.025   8.553
 7073POPC   D2A28360   5.140  33.041   8.253
 7073POPC   C3A28361   5.104  33.068   7.953
 7073POPC   C4A28362   5.061  33.001   7.653
 7073POPC   C1B28363   5.366  33.149   8.553
 7073POPC   C2B28364   5.334  33.086   8.253
 7073POPC   C3B28365   5.330  33.095   7.953
 7073POPC   C4B28366   5.369  33.143   7.653
 7074POPC   NC328367   9.740  15.132   9.453
 7074POPC   PO428368   9.711  15.132   9.153
 7074POPC   GL128369   9.791  15.203   8.853
 7074POPC   GL228370   9.618  15.074   8.853
 7074POPC   C1A28371   9.724  15.147   8.553
 7074POPC   D2A28372   9.765  15.168   8.253
 7074POPC   C3A28373   9.751  15.183   7.953
 7074POPC   C4A28374   9.743  15.203   7.653
 7074POPC   C1B28375   9.561  14.989   8.553
 7074POPC   C2B28376   9.554  14.964   8.253
 7074POPC   C3B28377   9.592  15.042   7.953
 7074POPC   C4B28378   9.541  14.992   7.653
 7075POPC   NC328379  22.889  27.565   9.453
 7075POPC   PO428380  22.970  27.610   9.153
 7075POPC   GL128381  22.981  27.561   8.853
 7075POPC   GL228382  22.899  27.742   8.853
 7075POPC   C1A28383  22.905  27.620   8.553
 7075POPC   D2A28384  22.911  27.613   8.253
 7075POPC   C3A28385  22.904  27.609   7.953
 7075POPC   C4A28386  22.957  27.642   7.653
 7075POPC   C1B28387  22.912  27.807   8.553
 7075POPC   C2B28388  22.858  27.888   8.253
 7075POPC   C3B28389  22.854  27.811   7.953
 7075POPC   C4B28390  22.925  27.831   7.653
 7076POPC   NC328391   4.290   9.740   9.453
 7076POPC   PO428392   4.291   9.780   9.153
 7076POPC   GL128393   4.321   9.790   8.853
 7076POPC   GL228394   4.405   9.653   8.853
 7076POPC   C1A28395   4.343   9.786   8.553
 7076POPC   D2A28396   4.325   9.797   8.253
 7076POPC   C3A28397   4.284   9.786   7.953
 7076POPC   C4A28398   4.281   9.782   7.653
 7076POPC   C1B28399   4.481   9.528   8.553
 7076POPC   C2B28400   4.424   9.584   8.253
 7076POPC   C3B28401   4.466   9.511   7.953
 7076POPC   C4B28402   4.425   9.566   7.653
 7077POPC   NC328403   3.554  39.208   9.453
 7077POPC   PO428404   3.506  39.208   9.153
 7077POPC   GL128405   3.507  39.191   8.853
 7077POPC   GL228406   3.490  39.097   8.853
 7077POPC   C1A28407   3.579  39.275   8.553
 7077POPC   D2A28408   3.548  39.190   8.253
 7077POPC   C3A28409   3.509  39.184   7.953
 7077POPC   C4A28410   3.509  39.227   7.653
 7077POPC   C1B28411   3.486  38.960   8.553
 7077POPC   C2B28412   3.456  39.017   8.253
 7077POPC   C3B28413   3.493  38.978   7.953
 7077POPC   C4B28414   3.434  39.011   7.653
 7078POPC   NC328415  19.095  34.531   9.453
 7078POPC   PO428416  19.052  34.595   9.153
 7078POPC   GL128417  19.060  34.565   8.853
 7078POPC   GL228418  19.015  34.674   8.853
 7078POPC   C1A28419  19.062  34.586   8.553
 7078POPC   D2A28420  19.016  34.581   8.253
 7078POPC   C3A28421  19.092  34.582   7.953
 7078POPC   C4A28422  19.094  34.563   7.653
 7078POPC   C1B28423  18.917  34.830   8.553
 7078POPC   C2B28424  18.952  34.812   8.253
 7078POPC   C3B28425  18.974  34.786   7.953
 7078POPC   C4B28426  18.895  34.826   7.653
 7079POPC   NC328427  35.329  12.893   9.453
 7079POPC   PO428428  35.396  12.829   9.153
 7079POPC   GL128429  35.400  12.876   8.853
 7079POPC   GL228430  35.273  12.932   8.853
 7079POPC   C1A28431  35.395  12.887   8.553
 7079POPC   D2A28432  35.389  12.899   8.253
 7079POPC   C3A28433  35.332  12.896   7.953
 7079POPC   C4A28434  35.390  12.803   7.653
 7079POPC   C1B28435  35.232  13.065   8.553
 7079POPC   C2B28436  35.191  13.084   8.253
 7079POPC   C3B28437  35.211  13.062   7.953
 7079POPC   C4B28438  35.215  13.010   7.653
 7080POPC   NC328439  22.952  22.910   9.453
 7080POPC   PO428440  22.911  22.913   9.153
 7080POPC   GL128441  22.962  22.932   8.853
 7080POPC   GL228442  23.076  22.920   8.853
 7080POPC   C1A28443  22.948  22.918   8.553
 7080POPC   D2A28444  22.963  22.889   8.253
 7080POPC   C3A28445  22.929  22.946   7.953
 7080POPC   C4A28446  22.910  22.926   7.653
 7080POPC   C1B28447  23.140  22.886   8.553
 7080POPC   C2B28448  23.193  22.880   8.253
 7080POPC   C3B28449  23.186  22.912   7.953
 7080POPC   C4B28450  23.238  22.977   7.653
 7081POPC   NC328451  23.712  32.296   9.453
 7081POPC   PO428452  23.699  32.282   9.153
 7081POPC   GL128453  23.693  32.292   8.853
 7081POPC   GL228454  23.850  32.313   8.853
 7081POPC   C1A28455  23.741  32.257   8.553
 7081POPC   D2A28456  23.733  32.231   8.253
 7081POPC   C3A28457  23.756  32.224   7.953
 7081POPC   C4A28458  23.687  32.202   7.653
 7081POPC   C1B28459  23.912  32.322   8.553
 7081POPC   C2B28460  23.958  32.332   8.253
 7081POPC   C3B28461  23.965  32.322   7.953
 7081POPC   C4B28462  23.938  32.293   7.653
 7082POPC   NC328463   5.066   8.231   9.453
 7082POPC   PO428464   5.103   8.183   9.153
 7082POPC   GL128465   5.126   8.185   8.853
 7082POPC   GL228466   5.092   8.100   8.853
 7082POPC   C1A28467   5.070   8.207   8.553
 7082POPC   D2A28468   5.128   8.179   8.253
 7082POPC   C3A28469   5.115   8.191   7.953
 7082POPC   C4A28470   5.099   8.236   7.653
 7082POPC   C1B28471   5.049   7.996   8.553
 7082POPC   C2B28472   5.043   7.910   8.253
 7082POPC   C3B28473   5.024   7.990   7.953
 7082POPC   C4B28474   5.003   7.947   7.653
 7083POPC   NC328475  15.961   5.844   9.453
 7083POPC   PO428476  15.983   5.918   9.153
 7083POPC   GL128477  15.914   5.911   8.853
 7083POPC   GL228478  15.797   5.901   8.853
 7083POPC   C1A28479  15.921   5.884   8.553
 7083POPC   D2A28480  15.986   5.870   8.253
 7083POPC   C3A28481  15.944   5.884   7.953
 7083POPC   C4A28482  15.935   5.897   7.653
 7083POPC   C1B28483  15.669   5.839   8.553
 7083POPC   C2B28484  15.753   5.868   8.253
 7083POPC   C3B28485  15.664   5.886   7.953
 7083POPC   C4B28486  15.743   5.864   7.653
 7084POPC   NC328487   8.154  26.033   9.453
 7084POPC   PO428488   8.165  26.062   9.153
 7084POPC   GL128489   8.172  25.994   8.853
 7084POPC   GL228490   8.285  25.945   8.853
 7084POPC   C1A28491   8.187  25.995   8.553
 7084POPC   D2A28492   8.182  25.997   8.253
 7084POPC   C3A28493   8.169  25.993   7.953
 7084POPC   C4A28494   8.154  26.011   7.653
 7084POPC   C1B28495   8.432  25.924   8.553
 7084POPC   C2B28496   8.357  25.942   8.253
 7084POPC   C3B28497   8.373  25.864   7.953
 7084POPC   C4B28498   8.355  25.913   7.653
 7085POPC   NC328499  29.925  16.711   9.453
 7085POPC   PO428500  29.958  16.764   9.153
 7085POPC   GL128501  29.917  16.727   8.853
 7085POPC   GL228502  30.039  16.770   8.853
 7085POPC   C1A28503  29.906  16.735   8.553
 7085POPC   D2A28504  29.966  16.773   8.253
 7085POPC   C3A28505  29.928  16.715   7.953
 7085POPC   C4A28506  29.960  16.759   7.653
 7085POPC   C1B28507  30.196  16.852   8.553
 7085POPC   C2B28508  30.144  16.845   8.253
 7085POPC   C3B28509  30.170  16.837   7.953
 7085POPC   C4B28510  30.182  16.797   7.653
 7086POPC   NC328511  22.133  29.178   9.453
 7086POPC   PO428512  22.168  29.153   9.153
 7086POPC   GL128513  22.115  29.194   8.853
 7086POPC   GL228514  22.142  29.000   8.853
 7086POPC   C1A28515  22.206  29.110   8.553
 7086POPC   D2A28516  22.151  29.140   8.253
 7086POPC   C3A28517  22.128  29.113   7.953
 7086POPC   C4A28518  22.156  29.099   7.653
 7086POPC   C1B28519  22.156  28.936   8.553
 7086POPC   C2B28520  22.127  28.913   8.253
 7086POPC   C3B28521  22.192  28.858   7.953
 7086POPC   C4B28522  22.098  28.876   7.653
 7087POPC   NC328523  40.813  29.946   9.453
 7087POPC   PO428524  40.760  29.949   9.153
 7087POPC   GL128525  40.795  29.911   8.853
 7087POPC   GL228526  40.682  29.844   8.853
 7087POPC   C1A28527  40.734  29.928   8.553
 7087POPC   D2A28528  40.825  29.911   8.253
 7087POPC   C3A28529  40.781  29.911   7.953
 7087POPC   C4A28530  40.772  29.966   7.653
 7087POPC   C1B28531  40.611  29.825   8.553
 7087POPC   C2B28532  40.552  29.802   8.253
 7087POPC   C3B28533  40.576  29.820   7.953
 7087POPC   C4B28534  40.620  29.726   7.653
 7088POPC   NC328535  16.751   0.454   9.453
 7088POPC   PO428536  16.682   0.402   9.153
 7088POPC   GL128537  16.773   0.455   8.853
 7088POPC   GL228538  16.676   0.509   8.853
 7088POPC   C1A28539  16.736   0.457   8.553
 7088POPC   D2A28540  16.702   0.410   8.253
 7088POPC   C3A28541  16.751   0.449   7.953
 7088POPC   C4A28542  16.706   0.391   7.653
 7088POPC   C1B28543  16.671   0.653   8.553
 7088POPC   C2B28544  16.642   0.647   8.253
 7088POPC   C3B28545  16.680   0.665   7.953
 7088POPC   C4B28546  16.626   0.695   7.653
 7089POPC   NC328547  43.117  13.602   9.453
 7089POPC   PO428548  43.068  13.642   9.153
 7089POPC   GL128549  43.125  13.638   8.853
 7089POPC   GL228550  42.953  13.580   8.853
 7089POPC   C1A28551  43.128  13.606   8.553
 7089POPC   D2A28552  43.094  13.627   8.253
 7089POPC   C3A28553  43.147  13.582   7.953
 7089POPC   C4A28554  43.154  13.654   7.653
 7089POPC   C1B28555  42.887  13.604   8.553
 7089POPC   C2B28556  42.890  13.624   8.253
 7089POPC   C3B28557  42.882  13.620   7.953
 7089POPC   C4B28558  42.851  13.659   7.653
 7090POPC   NC328559   6.629  35.390   9.453
 7090POPC   PO428560   6.657  35.313   9.153
 7090POPC   GL128561   6.610  35.316   8.853
 7090POPC   GL228562   6.729  35.407   8.853
 7090POPC   C1A28563   6.651  35.378   8.553
 7090POPC   D2A28564   6.628  35.375   8.253
 7090POPC   C3A28565   6.664  35.317   7.953
 7090POPC   C4A28566   6.679  35.344   7.653
 7090POPC   C1B28567   6.855  35.503   8.553
 7090POPC   C2B28568   6.902  35.538   8.253
 7090POPC   C3B28569   6.837  35.471   7.953
 7090POPC   C4B28570   6.839  35.528   7.653
 7091POPC   NC328571  37.634  14.424   9.453
 7091POPC   PO428572  37.719  14.434   9.153
 7091POPC   GL128573  37.646  14.356   8.853
 7091POPC   GL228574  37.797  14.394   8.853
 7091POPC   C1A28575  37.662  14.411   8.553
 7091POPC   D2A28576  37.713  14.398   8.253
 7091POPC   C3A28577  37.693  14.431   7.953
 7091POPC   C4A28578  37.726  14.428   7.653
 7091POPC   C1B28579  37.898  14.350   8.553
 7091POPC   C2B28580  37.883  14.358   8.253
 7091POPC   C3B28581  37.912  14.413   7.953
 7091POPC   C4B28582  37.881  14.396   7.653
 7092POPC   NC328583   8.956  41.567   9.453
 7092POPC   PO428584   8.964  41.556   9.153
 7092POPC   GL128585   9.011  41.579   8.853
 7092POPC   GL228586   8.922  41.621   8.853
 7092POPC   C1A28587   8.984  41.584   8.553
 7092POPC   D2A28588   8.931  41.547   8.253
 7092POPC   C3A28589   8.932  41.531   7.953
 7092POPC   C4A28590   9.002  41.513   7.653
 7092POPC   C1B28591   8.820  41.733   8.553
 7092POPC   C2B28592   8.756  41.681   8.253
 7092POPC   C3B28593   8.823  41.738   7.953
 7092POPC   C4B28594   8.771  41.708   7.653
 7093POPC   NC328595  11.330  26.000   9.453
 7093POPC   PO428596  11.259  26.022   9.153
 7093POPC   GL128597  11.321  26.047   8.853
 7093POPC   GL228598  11.401  26.042   8.853
 7093POPC   C1A28599  11.291  26.054   8.553
 7093POPC   D2A28600  11.277  26.001   8.253
 7093POPC   C3A28601  11.328  26.047   7.953
 7093POPC   C4A28602  11.298  26.084   7.653
 7093POPC   C1B28603  11.586  26.077   8.553
 7093POPC   C2B28604  11.571  26.081   8.253
 7093POPC   C3B28605  11.531  26.087   7.953
 7093POPC   C4B28606  11.586  26.064   7.653
 7094POPC   NC328607  20.562  43.095   9.453
 7094POPC   PO428608  20.643  43.160   9.153
 7094POPC   GL128609  20.641  43.159   8.853
 7094POPC   GL228610  20.572  43.253   8.853
 7094POPC   C1A28611  20.595  43.155   8.553
 7094POPC   D2A28612  20.639  43.070   8.253
 7094POPC   C3A28613  20.616  43.108   7.953
 7094POPC   C4A28614  20.652  43.112   7.653
 7094POPC   C1B28615  20.662  43.399   8.553
 7094POPC   C2B28616  20.635  43.392   8.253
 7094POPC   C3B28617  20.577  43.333   7.953
 7094POPC   C4B28618  20.592  43.397   7.653
 7095POPC   NC328619  22.210  43.127   9.453
 7095POPC   PO428620  22.166  43.131   9.153
 7095POPC   GL128621  22.196  43.083   8.853
 7095POPC   GL228622  22.010  43.074   8.853
 7095POPC   C1A28623  22.202  43.136   8.553
 7095POPC   D2A28624  22.166  43.111   8.253
 7095POPC   C3A28625  22.127  43.069   7.953
 7095POPC   C4A28626  22.152  43.077   7.653
 7095POPC   C1B28627  21.965  43.031   8.553
 7095POPC   C2B28628  21.915  43.052   8.253
 7095POPC   C3B28629  21.975  42.996   7.953
 7095POPC   C4B28630  21.959  42.988   7.653
 7096POPC   NC328631  43.095  39.216   9.453
 7096POPC   PO428632  43.115  39.265   9.153
 7096POPC   GL128633  43.149  39.269   8.853
 7096POPC   GL228634  43.060  39.361   8.853
 7096POPC   C1A28635  43.115  39.219   8.553
 7096POPC   D2A28636  43.067  39.216   8.253
 7096POPC   C3A28637  43.159  39.189   7.953
 7096POPC   C4A28638  43.135  39.221   7.653
 7096POPC   C1B28639  42.932  39.428   8.553
 7096POPC   C2B28640  43.002  39.466   8.253
 7096POPC   C3B28641  42.995  39.399   7.953
 7096POPC   C4B28642  43.007  39.444   7.653
 7097POPC   NC328643  21.399  44.643   9.453
 7097POPC   PO428644  21.350  44.622   9.153
 7097POPC   GL128645  21.342  44.704   8.853
 7097POPC   GL228646  21.450  44.537   8.853
 7097POPC   C1A28647  21.412  44.704   8.553
 7097POPC   D2A28648  21.422  44.633   8.253
 7097POPC   C3A28649  21.433  44.644   7.953
 7097POPC   C4A28650  21.392  44.703   7.653
 7097POPC   C1B28651  21.444  44.428   8.553
 7097POPC   C2B28652  21.449  44.388   8.253
 7097POPC   C3B28653  21.412  44.367   7.953
 7097POPC   C4B28654  21.401  44.456   7.653
 7098POPC   NC328655   7.398  22.199   9.453
 7098POPC   PO428656   7.463  22.137   9.153
 7098POPC   GL128657   7.388  22.187   8.853
 7098POPC   GL228658   7.528  22.281   8.853
 7098POPC   C1A28659   7.417  22.179   8.553
 7098POPC   D2A28660   7.457  22.131   8.253
 7098POPC   C3A28661   7.380  22.188   7.953
 7098POPC   C4A28662   7.453  22.200   7.653
 7098POPC   C1B28663   7.604  22.355   8.553
 7098POPC   C2B28664   7.591  22.376   8.253
 7098POPC   C3B28665   7.588  22.346   7.953
 7098POPC   C4B28666   7.578  22.325   7.653
 7099POPC   NC328667  39.997  12.845   9.453
 7099POPC   PO428668  40.046  12.802   9.153
 7099POPC   GL128669  39.958  12.840   8.853
 7099POPC   GL228670  40.109  12.753   8.853
 7099POPC   C1A28671  40.010  12.835   8.553
 7099POPC   D2A28672  40.027  12.866   8.253
 7099POPC   C3A28673  39.962  12.886   7.953
 7099POPC   C4A28674  39.971  12.874   7.653
 7099POPC   C1B28675  40.175  12.682   8.553
 7099POPC   C2B28676  40.202  12.690   8.253
 7099POPC   C3B28677  40.171  12.682   7.953
 7099POPC   C4B28678  40.219  12.647   7.653
 7100POPC   NC328679   2.793  22.922   9.453
 7100POPC   PO428680   2.726  22.896   9.153
 7100POPC   GL128681   2.804  22.948   8.853
 7100POPC   GL228682   2.677  22.892   8.853
 7100POPC   C1A28683   2.744  22.911   8.553
 7100POPC   D2A28684   2.724  22.933   8.253
 7100POPC   C3A28685   2.741  22.914   7.953
 7100POPC   C4A28686   2.774  22.912   7.653
 7100POPC   C1B28687   2.535  22.903   8.553
 7100POPC   C2B28688   2.482  22.936   8.253
 7100POPC   C3B28689   2.494  22.942   7.953
 7100POPC   C4B28690   2.482  22.905   7.653
 7101POPC   NC328691  37.663  29.137   9.453
 7101POPC   PO428692  37.666  29.119   9.153
 7101POPC   GL128693  37.708  29.098   8.853
 7101POPC   GL228694  37.682  29.266   8.853
 7101POPC   C1A28695  37.686  29.119   8.553
 7101POPC   D2A28696  37.669  29.179   8.253
 7101POPC   C3A28697  37.700  29.184   7.953
 7101POPC   C4A28698  37.690  29.122   7.653
 7101POPC   C1B28699  37.687  29.404   8.553
 7101POPC   C2B28700  37.664  29.407   8.253
 7101POPC   C3B28701  37.640  29.412   7.953
 7101POPC   C4B28702  37.633  29.353   7.653
 7102POPC   NC328703   3.493   3.583   9.453
 7102POPC   PO428704   3.500   3.574   9.153
 7102POPC   GL128705   3.496   3.572   8.853
 7102POPC   GL228706   3.576   3.484   8.853
 7102POPC   C1A28707   3.525   3.510   8.553
 7102POPC   D2A28708   3.573   3.541   8.253
 7102POPC   C3A28709   3.582   3.540   7.953
 7102POPC   C4A28710   3.525   3.588   7.653
 7102POPC   C1B28711   3.711   3.341   8.553
 7102POPC   C2B28712   3.698   3.280   8.253
 7102POPC   C3B28713   3.700   3.332   7.953
 7102POPC   C4B28714   3.630   3.348   7.653
 7103POPC   NC328715   8.157  40.830   9.453
 7103POPC   PO428716   8.206  40.796   9.153
 7103POPC   GL128717   8.155  40.734   8.853
 7103POPC   GL228718   8.173  40.627   8.853
 7103POPC   C1A28719   8.220  40.786   8.553
 7103POPC   D2A28720   8.187  40.734   8.253
 7103POPC   C3A28721   8.227  40.753   7.953
 7103POPC   C4A28722   8.184  40.763   7.653
 7103POPC   C1B28723   8.213  40.583   8.553
 7103POPC   C2B28724   8.167  40.562   8.253
 7103POPC   C3B28725   8.125  40.581   7.953
 7103POPC   C4B28726   8.148  40.484   7.653
 7104POPC   NC328727  21.344  31.434   9.453
 7104POPC   PO428728  21.351  31.423   9.153
 7104POPC   GL128729  21.380  31.515   8.853
 7104POPC   GL228730  21.511  31.343   8.853
 7104POPC   C1A28731  21.344  31.511   8.553
 7104POPC   D2A28732  21.396  31.438   8.253
 7104POPC   C3A28733  21.435  31.439   7.953
 7104POPC   C4A28734  21.431  31.516   7.653
 7104POPC   C1B28735  21.626  31.283   8.553
 7104POPC   C2B28736  21.557  31.282   8.253
 7104POPC   C3B28737  21.602  31.275   7.953
 7104POPC   C4B28738  21.599  31.355   7.653
 7105POPC   NC328739  41.558  33.056   9.453
 7105POPC   PO428740  41.590  33.058   9.153
 7105POPC   GL128741  41.566  33.012   8.853
 7105POPC   GL228742  41.711  33.014   8.853
 7105POPC   C1A28743  41.511  33.016   8.553
 7105POPC   D2A28744  41.604  32.983   8.253
 7105POPC   C3A28745  41.522  32.977   7.953
 7105POPC   C4A28746  41.554  33.043   7.653
 7105POPC   C1B28747  41.802  32.930   8.553
 7105POPC   C2B28748  41.839  32.946   8.253
 7105POPC   C3B28749  41.799  33.000   7.953
 7105POPC   C4B28750  41.845  32.928   7.653
 7106POPC   NC328751  10.505  22.197   9.453
 7106POPC   PO428752  10.574  22.175   9.153
 7106POPC   GL128753  10.559  22.152   8.853
 7106POPC   GL228754  10.534  22.249   8.853
 7106POPC   C1A28755  10.553  22.136   8.553
 7106POPC   D2A28756  10.481  22.196   8.253
 7106POPC   C3A28757  10.487  22.158   7.953
 7106POPC   C4A28758  10.564  22.188   7.653
 7106POPC   C1B28759  10.623  22.381   8.553
 7106POPC   C2B28760  10.628  22.363   8.253
 7106POPC   C3B28761  10.619  22.377   7.953
 7106POPC   C4B28762  10.548  22.427   7.653
 7107POPC   NC328763  14.358  27.546   9.453
 7107POPC   PO428764  14.452  27.617   9.153
 7107POPC   GL128765  14.383  27.599   8.853
 7107POPC   GL228766  14.410  27.671   8.853
 7107POPC   C1A28767  14.425  27.620   8.553
 7107POPC   D2A28768  14.355  27.566   8.253
 7107POPC   C3A28769  14.417  27.579   7.953
 7107POPC   C4A28770  14.425  27.592   7.653
 7107POPC   C1B28771  14.386  27.811   8.553
 7107POPC   C2B28772  14.409  27.861   8.253
 7107POPC   C3B28773  14.450  27.807   7.953
 7107POPC   C4B28774  14.389  27.873   7.653
 7108POPC   NC328775  40.790  43.847   9.453
 7108POPC   PO428776  40.822  43.883   9.153
 7108POPC   GL128777  40.780  43.885   8.853
 7108POPC   GL228778  40.719  43.794   8.853
 7108POPC   C1A28779  40.803  43.862   8.553
 7108POPC   D2A28780  40.766  43.925   8.253
 7108POPC   C3A28781  40.828  43.936   7.953
 7108POPC   C4A28782  40.795  43.906   7.653
 7108POPC   C1B28783  40.562  43.789   8.553
 7108POPC   C2B28784  40.537  43.819   8.253
 7108POPC   C3B28785  40.572  43.772   7.953
 7108POPC   C4B28786  40.594  43.741   7.653
 7109POPC   NC328787  19.022  42.342   9.453
 7109POPC   PO428788  19.099  42.309   9.153
 7109POPC   GL128789  19.082  42.326   8.853
 7109POPC   GL228790  19.060  42.423   8.853
 7109POPC   C1A28791  19.024  42.293   8.553
 7109POPC   D2A28792  19.059  42.354   8.253
 7109POPC   C3A28793  19.104  42.355   7.953
 7109POPC   C4A28794  19.024  42.361   7.653
 7109POPC   C1B28795  18.965  42.606   8.553
 7109POPC   C2B28796  18.949  42.544   8.253
 7109POPC   C3B28797  18.998  42.602   7.953
 7109POPC   C4B28798  19.036  42.611   7.653
 7110POPC   NC328799   9.780  23.684   9.453
 7110POPC   PO428800   9.761  23.718   9.153
 7110POPC   GL128801   9.752  23.701   8.853
 7110POPC   GL228802   9.608  23.679   8.853
 7110POPC   C1A28803   9.750  23.757   8.553
 7110POPC   D2A28804   9.762  23.688   8.253
 7110POPC   C3A28805   9.796  23.712   7.953
 7110POPC   C4A28806   9.787  23.727   7.653
 7110POPC   C1B28807   9.480  23.671   8.553
 7110POPC   C2B28808   9.479  23.672   8.253
 7110POPC   C3B28809   9.542  23.631   7.953
 7110POPC   C4B28810   9.548  23.645   7.653
 7111POPC   NC328811  23.685  36.860   9.453
 7111POPC   PO428812  23.682  36.952   9.153
 7111POPC   GL128813  23.758  36.929   8.853
 7111POPC   GL228814  23.816  36.903   8.853
 7111POPC   C1A28815  23.744  36.902   8.553
 7111POPC   D2A28816  23.710  36.951   8.253
 7111POPC   C3A28817  23.733  36.950   7.953
 7111POPC   C4A28818  23.721  36.888   7.653
 7111POPC   C1B28819  24.003  36.894   8.553
 7111POPC   C2B28820  23.920  36.900   8.253
 7111POPC   C3B28821  24.011  36.881   7.953
 7111POPC   C4B28822  23.936  36.917   7.653
 7112POPC   NC328823  27.554  38.452   9.453
 7112POPC   PO428824  27.643  38.450   9.153
 7112POPC   GL128825  27.550  38.457   8.853
 7112POPC   GL228826  27.693  38.362   8.853
 7112POPC   C1A28827  27.633  38.477   8.553
 7112POPC   D2A28828  27.584  38.477   8.253
 7112POPC   C3A28829  27.591  38.459   7.953
 7112POPC   C4A28830  27.637  38.478   7.653
 7112POPC   C1B28831  27.710  38.199   8.553
 7112POPC   C2B28832  27.706  38.185   8.253
 7112POPC   C3B28833  27.750  38.270   7.953
 7112POPC   C4B28834  27.747  38.270   7.653
 7113POPC   NC328835  19.876   1.973   9.453
 7113POPC   PO428836  19.826   2.025   9.153
 7113POPC   GL128837  19.808   1.967   8.853
 7113POPC   GL228838  19.665   1.946   8.853
 7113POPC   C1A28839  19.818   1.952   8.553
 7113POPC   D2A28840  19.794   1.970   8.253
 7113POPC   C3A28841  19.862   1.963   7.953
 7113POPC   C4A28842  19.816   1.994   7.653
 7113POPC   C1B28843  19.613   1.995   8.553
 7113POPC   C2B28844  19.541   1.961   8.253
 7113POPC   C3B28845  19.602   1.935   7.953
 7113POPC   C4B28846  19.619   1.964   7.653
 7114POPC   NC328847   1.944  40.824   9.453
 7114POPC   PO428848   2.020  40.775   9.153
 7114POPC   GL128849   1.974  40.768   8.853
 7114POPC   GL228850   2.059  40.855   8.853
 7114POPC   C1A28851   2.022  40.815   8.553
 7114POPC   D2A28852   1.966  40.816   8.253
 7114POPC   C3A28853   2.024  40.750   7.953
 7114POPC   C4A28854   1.961  40.804   7.653
 7114POPC   C1B28855   2.116  41.022   8.553
 7114POPC   C2B28856   2.142  41.019   8.253
 7114POPC   C3B28857   2.090  40.965   7.953
 7114POPC   C4B28858   2.133  40.990   7.653
 7115POPC   NC328859   5.105  13.651   9.453
 7115POPC   PO428860   5.080  13.580   9.153
 7115POPC   GL128861   5.079  13.645   8.853
 7115POPC   GL228862   4.989  13.708   8.853
 7115POPC   C1A28863   5.124  13.580   8.553
 7115POPC   D2A28864   5.084  13.639   8.253
 7115POPC   C3A28865   5.066  13.608   7.953
 7115POPC   C4A28866   5.143  13.599   7.653
 7115POPC   C1B28867   4.890  13.736   8.553
 7115POPC   C2B28868   4.824  13.733   8.253
 7115POPC   C3B28869   4.819  13.708   7.953
 7115POPC   C4B28870   4.903  13.679   7.653
 7116POPC   NC328871  22.202  12.805   9.453
 7116POPC   PO428872  22.113  12.871   9.153
 7116POPC   GL128873  22.167  12.869   8.853
 7116POPC   GL228874  22.314  12.874   8.853
 7116POPC   C1A28875  22.159  12.865   8.553
 7116POPC   D2A28876  22.175  12.875   8.253
 7116POPC   C3A28877  22.134  12.806   7.953
 7116POPC   C4A28878  22.137  12.897   7.653
 7116POPC   C1B28879  22.453  12.890   8.553
 7116POPC   C2B28880  22.427  12.863   8.253
 7116POPC   C3B28881  22.422  12.820   7.953
 7116POPC   C4B28882  22.396  12.841   7.653
 7117POPC   NC328883   2.001  38.447   9.453
 7117POPC   PO428884   2.031  38.421   9.153
 7117POPC   GL128885   2.035  38.434   8.853
 7117POPC   GL228886   2.059  38.389   8.853
 7117POPC   C1A28887   1.967  38.481   8.553
 7117POPC   D2A28888   2.019  38.461   8.253
 7117POPC   C3A28889   1.983  38.454   7.953
 7117POPC   C4A28890   1.947  38.419   7.653
 7117POPC   C1B28891   2.149  38.299   8.553
 7117POPC   C2B28892   2.162  38.235   8.253
 7117POPC   C3B28893   2.109  38.247   7.953
 7117POPC   C4B28894   2.203  38.241   7.653
 7118POPC   NC328895  17.463   7.469   9.453
 7118POPC   PO428896  17.538   7.433   9.153
 7118POPC   GL128897  17.552   7.417   8.853
 7118POPC   GL228898  17.577   7.370   8.853
 7118POPC   C1A28899  17.474   7.439   8.553
 7118POPC   D2A28900  17.534   7.461   8.253
 7118POPC   C3A28901  17.480   7.438   7.953
 7118POPC   C4A28902  17.553   7.461   7.653
 7118POPC   C1B28903  17.701   7.224   8.553
 7118POPC   C2B28904  17.679   7.292   8.253
 7118POPC   C3B28905  17.746   7.282   7.953
 7118POPC   C4B28906  17.662   7.273   7.653
 7119POPC   NC328907   9.764  38.500   9.453
 7119POPC   PO428908   9.726  38.488   9.153
 7119POPC   GL128909   9.712  38.504   8.853
 7119POPC   GL228910   9.663  38.542   8.853
 7119POPC   C1A28911   9.750  38.483   8.553
 7119POPC   D2A28912   9.709  38.434   8.253
 7119POPC   C3A28913   9.788  38.487   7.953
 7119POPC   C4A28914   9.708  38.475   7.653
 7119POPC   C1B28915   9.631  38.644   8.553
 7119POPC   C2B28916   9.569  38.660   8.253
 7119POPC   C3B28917   9.547  38.636   7.953
 7119POPC   C4B28918   9.571  38.675   7.653
 7120POPC   NC328919  22.114  13.583   9.453
 7120POPC   PO428920  22.180  13.594   9.153
 7120POPC   GL128921  22.178  13.665   8.853
 7120POPC   GL228922  22.200  13.700   8.853
 7120POPC   C1A28923  22.200  13.612   8.553
 7120POPC   D2A28924  22.192  13.673   8.253
 7120POPC   C3A28925  22.152  13.662   7.953
 7120POPC   C4A28926  22.116  13.590   7.653
 7120POPC   C1B28927  22.231  13.841   8.553
 7120POPC   C2B28928  22.306  13.844   8.253
 7120POPC   C3B28929  22.248  13.843   7.953
 7120POPC   C4B28930  22.233  13.805   7.653
 7121POPC   NC328931   3.562  26.033   9.453
 7121POPC   PO428932   3.494  26.052   9.153
 7121POPC   GL128933   3.531  26.018   8.853
 7121POPC   GL228934   3.582  25.968   8.853
 7121POPC   C1A28935   3.577  26.086   8.553
 7121POPC   D2A28936   3.578  26.054   8.253
 7121POPC   C3A28937   3.503  26.010   7.953
 7121POPC   C4A28938   3.562  25.999   7.653
 7121POPC   C1B28939   3.557  25.845   8.553
 7121POPC   C2B28940   3.549  25.771   8.253
 7121POPC   C3B28941   3.594  25.800   7.953
 7121POPC   C4B28942   3.613  25.824   7.653
 7122POPC   NC328943  30.714  40.751   9.453
 7122POPC   PO428944  30.719  40.794   9.153
 7122POPC   GL128945  30.735  40.786   8.853
 7122POPC   GL228946  30.579  40.718   8.853
 7122POPC   C1A28947  30.719  40.752   8.553
 7122POPC   D2A28948  30.667  40.753   8.253
 7122POPC   C3A28949  30.744  40.761   7.953
 7122POPC   C4A28950  30.705  40.771   7.653
 7122POPC   C1B28951  30.460  40.699   8.553
 7122POPC   C2B28952  30.427  40.659   8.253
 7122POPC   C3B28953  30.422  40.639   7.953
 7122POPC   C4B28954  30.441  40.691   7.653
 7123POPC   NC328955   4.272   3.503   9.453
 7123POPC   PO428956   4.354   3.574   9.153
 7123POPC   GL128957   4.274   3.575   8.853
 7123POPC   GL228958   4.386   3.479   8.853
 7123POPC   C1A28959   4.339   3.494   8.553
 7123POPC   D2A28960   4.319   3.555   8.253
 7123POPC   C3A28961   4.320   3.528   7.953
 7123POPC   C4A28962   4.278   3.542   7.653
 7123POPC   C1B28963   4.508   3.393   8.553
 7123POPC   C2B28964   4.454   3.366   8.253
 7123POPC   C3B28965   4.440   3.307   7.953
 7123POPC   C4B28966   4.439   3.321   7.653
 7124POPC   NC328967  24.441  24.459   9.453
 7124POPC   PO428968  24.449  24.493   9.153
 7124POPC   GL128969  24.507  24.460   8.853
 7124POPC   GL228970  24.549  24.569   8.853
 7124POPC   C1A28971  24.471  24.489   8.553
 7124POPC   D2A28972  24.455  24.514   8.253
 7124POPC   C3A28973  24.519  24.442   7.953
 7124POPC   C4A28974  24.483  24.511   7.653
 7124POPC   C1B28975  24.496  24.781   8.553
 7124POPC   C2B28976  24.497  24.772   8.253
 7124POPC   C3B28977  24.564  24.777   7.953
 7124POPC   C4B28978  24.560  24.702   7.653
 7125POPC   NC328979   2.733  44.622   9.453
 7125POPC   PO428980   2.752  44.680   9.153
 7125POPC   GL128981   2.775  44.650   8.853
 7125POPC   GL228982   2.840  44.695   8.853
 7125POPC   C1A28983   2.809  44.685   8.553
 7125POPC   D2A28984   2.781  44.619   8.253
 7125POPC   C3A28985   2.787  44.654   7.953
 7125POPC   C4A28986   2.745  44.654   7.653
 7125POPC   C1B28987   3.009  44.751   8.553
 7125POPC   C2B28988   2.962  44.833   8.253
 7125POPC   C3B28989   2.998  44.816   7.953
 7125POPC   C4B28990   3.012  44.806   7.653
 7126POPC   NC328991  22.131   3.511   9.453
 7126POPC   PO428992  22.169   3.499   9.153
 7126POPC   GL128993  22.166   3.590   8.853
 7126POPC   GL228994  22.125   3.664   8.853
 7126POPC   C1A28995  22.150   3.533   8.553
 7126POPC   D2A28996  22.125   3.506   8.253
 7126POPC   C3A28997  22.198   3.511   7.953
 7126POPC   C4A28998  22.185   3.559   7.653
 7126POPC   C1B28999  22.128   3.826   8.553
 7126POPC   C2B29000  22.116   3.779   8.253
 7126POPC   C3B29001  22.052   3.819   7.953
 7126POPC   C4B29002  22.048   3.780   7.653
 7127POPC   NC329003  37.638   1.178   9.453
 7127POPC   PO429004  37.668   1.248   9.153
 7127POPC   GL129005  37.633   1.218   8.853
 7127POPC   GL229006  37.772   1.341   8.853
 7127POPC   C1A29007  37.728   1.255   8.553
 7127POPC   D2A29008  37.630   1.166   8.253
 7127POPC   C3A29009  37.639   1.244   7.953
 7127POPC   C4A29010  37.640   1.208   7.653
 7127POPC   C1B29011  37.817   1.413   8.553
 7127POPC   C2B29012  37.825   1.376   8.253
 7127POPC   C3B29013  37.842   1.418   7.953
 7127POPC   C4B29014  37.814   1.374   7.653
 7128POPC   NC329015   7.398  25.256   9.453
 7128POPC   PO429016   7.408  25.256   9.153
 7128POPC   GL129017   7.372  25.308   8.853
 7128POPC   GL229018   7.310  25.363   8.853
 7128POPC   C1A29019   7.433  25.310   8.553
 7128POPC   D2A29020   7.401  25.274   8.253
 7128POPC   C3A29021   7.395  25.299   7.953
 7128POPC   C4A29022   7.418  25.313   7.653
 7128POPC   C1B29023   7.283  25.447   8.553
 7128POPC   C2B29024   7.200  25.405   8.253
 7128POPC   C3B29025   7.197  25.488   7.953
 7128POPC   C4B29026   7.242  25.470   7.653
 7129POPC   NC329027   7.451   8.234   9.453
 7129POPC   PO429028   7.418   8.227   9.153
 7129POPC   GL129029   7.438   8.218   8.853
 7129POPC   GL229030   7.284   8.147   8.853
 7129POPC   C1A29031   7.439   8.194   8.553
 7129POPC   D2A29032   7.465   8.183   8.253
 7129POPC   C3A29033   7.459   8.219   7.953
 7129POPC   C4A29034   7.377   8.241   7.653
 7129POPC   C1B29035   7.191   8.080   8.553
 7129POPC   C2B29036   7.216   8.117   8.253
 7129POPC   C3B29037   7.158   8.077   7.953
 7129POPC   C4B29038   7.182   8.073   7.653
 7130POPC   NC329039  29.956  42.330   9.453
 7130POPC   PO429040  29.936  42.320   9.153
 7130POPC   GL129041  29.969  42.312   8.853
 7130POPC   GL229042  29.917  42.200   8.853
 7130POPC   C1A29043  29.905  42.312   8.553
 7130POPC   D2A29044  29.877  42.354   8.253
 7130POPC   C3A29045  29.902  42.379   7.953
 7130POPC   C4A29046  29.929  42.374   7.653
 7130POPC   C1B29047  29.883  42.072   8.553
 7130POPC   C2B29048  29.934  42.054   8.253
 7130POPC   C3B29049  29.938  42.087   7.953
 7130POPC   C4B29050  29.914  42.129   7.653
 7131POPC   NC329051  26.076  44.656   9.453
 7131POPC   PO429052  26.022  44.676   9.153
 7131POPC   GL129053  26.057  44.686   8.853
 7131POPC   GL229054  26.054  44.537   8.853
 7131POPC   C1A29055  26.017  44.658   8.553
 7131POPC   D2A29056  26.071  44.635   8.253
 7131POPC   C3A29057  26.050  44.678   7.953
 7131POPC   C4A29058  26.052  44.693   7.653
 7131POPC   C1B29059  26.036  44.451   8.553
 7131POPC   C2B29060  26.054  44.396   8.253
 7131POPC   C3B29061  25.978  44.380   7.953
 7131POPC   C4B29062  26.019  44.413   7.653
 7132POPC   NC329063  38.480  23.688   9.453
 7132POPC   PO429064  38.476  23.697   9.153
 7132POPC   GL129065  38.463  23.740   8.853
 7132POPC   GL229066  38.389  23.789   8.853
 7132POPC   C1A29067  38.442  23.686   8.553
 7132POPC   D2A29068  38.432  23.707   8.253
 7132POPC   C3A29069  38.469  23.705   7.953
 7132POPC   C4A29070  38.449  23.697   7.653
 7132POPC   C1B29071  38.231  23.905   8.553
 7132POPC   C2B29072  38.270  23.859   8.253
 7132POPC   C3B29073  38.276  23.883   7.953
 7132POPC   C4B29074  38.237  23.887   7.653
 7133POPC   NC329075  29.970  40.005   9.453
 7133POPC   PO429076  29.897  40.020   9.153
 7133POPC   GL129077  29.948  40.039   8.853
 7133POPC   GL229078  29.949  40.119   8.853
 7133POPC   C1A29079  29.945  40.032   8.553
 7133POPC   D2A29080  29.896  40.026   8.253
 7133POPC   C3A29081  29.874  39.962   7.953
 7133POPC   C4A29082  29.946  40.051   7.653
 7133POPC   C1B29083  30.014  40.190   8.553
 7133POPC   C2B29084  30.067  40.229   8.253
 7133POPC   C3B29085  29.990  40.221   7.953
 7133POPC   C4B29086  30.067  40.194   7.653
 7134POPC   NC329087  20.632  12.871   9.453
 7134POPC   PO429088  20.616  12.856   9.153
 7134POPC   GL129089  20.606  12.819   8.853
 7134POPC   GL229090  20.612  12.739   8.853
 7134POPC   C1A29091  20.564  12.802   8.553
 7134POPC   D2A29092  20.607  12.869   8.253
 7134POPC   C3A29093  20.597  12.823   7.953
 7134POPC   C4A29094  20.656  12.848   7.653
 7134POPC   C1B29095  20.549  12.648   8.553
 7134POPC   C2B29096  20.513  12.628   8.253
 7134POPC   C3B29097  20.547  12.569   7.953
 7134POPC   C4B29098  20.554  12.620   7.653
 7135POPC   NC329099  17.557  39.189   9.453
 7135POPC   PO429100  17.539  39.207   9.153
 7135POPC   GL129101  17.499  39.181   8.853
 7135POPC   GL229102  17.589  39.110   8.853
 7135POPC   C1A29103  17.517  39.243   8.553
 7135POPC   D2A29104  17.472  39.264   8.253
 7135POPC   C3A29105  17.464  39.259   7.953
 7135POPC   C4A29106  17.550  39.237   7.653
 7135POPC   C1B29107  17.572  38.974   8.553
 7135POPC   C2B29108  17.648  39.015   8.253
 7135POPC   C3B29109  17.600  39.050   7.953
 7135POPC   C4B29110  17.641  38.978   7.653
 7136POPC   NC329111  39.198  33.819   9.453
 7136POPC   PO429112  39.192  33.790   9.153
 7136POPC   GL129113  39.191  33.845   8.853
 7136POPC   GL229114  39.138  33.696   8.853
 7136POPC   C1A29115  39.258  33.769   8.553
 7136POPC   D2A29116  39.240  33.793   8.253
 7136POPC   C3A29117  39.187  33.845   7.953
 7136POPC   C4A29118  39.272  33.842   7.653
 7136POPC   C1B29119  39.097  33.564   8.553
 7136POPC   C2B29120  39.080  33.551   8.253
 7136POPC   C3B29121  39.144  33.590   7.953
 7136POPC   C4B29122  39.076  33.534   7.653
 7137POPC   NC329123  25.217  11.332   9.453
 7137POPC   PO429124  25.255  11.348   9.153
 7137POPC   GL129125  25.298  11.341   8.853
 7137POPC   GL229126  25.288  11.376   8.853
 7137POPC   C1A29127  25.288  11.348   8.553
 7137POPC   D2A29128  25.290  11.253   8.253
 7137POPC   C3A29129  25.267  11.335   7.953
 7137POPC   C4A29130  25.256  11.299   7.653
 7137POPC   C1B29131  25.234  11.561   8.553
 7137POPC   C2B29132  25.216  11.555   8.253
 7137POPC   C3B29133  25.220  11.580   7.953
 7137POPC   C4B29134  25.268  11.513   7.653
 7138POPC   NC329135  43.925   2.813   9.453
 7138POPC   PO429136  43.864   2.752   9.153
 7138POPC   GL129137  43.893   2.755   8.853
 7138POPC   GL229138  43.739   2.868   8.853
 7138POPC   C1A29139  43.900   2.798   8.553
 7138POPC   D2A29140  43.921   2.720   8.253
 7138POPC   C3A29141  43.858   2.779   7.953
 7138POPC   C4A29142  43.841   2.764   7.653
 7138POPC   C1B29143  43.672   2.922   8.553
 7138POPC   C2B29144  43.631   2.855   8.253
 7138POPC   C3B29145  43.709   2.894   7.953
 7138POPC   C4B29146  43.649   2.872   7.653
 7139POPC   NC329147  30.670   7.376   9.453
 7139POPC   PO429148  30.692   7.442   9.153
 7139POPC   GL129149  30.667   7.375   8.853
 7139POPC   GL229150  30.736   7.329   8.853
 7139POPC   C1A29151  30.681   7.465   8.553
 7139POPC   D2A29152  30.669   7.415   8.253
 7139POPC   C3A29153  30.720   7.420   7.953
 7139POPC   C4A29154  30.696   7.388   7.653
 7139POPC   C1B29155  30.718   7.198   8.553
 7139POPC   C2B29156  30.741   7.137   8.253
 7139POPC   C3B29157  30.739   7.220   7.953
 7139POPC   C4B29158  30.691   7.221   7.653
 7140POPC   NC329159   4.296  43.145   9.453
 7140POPC   PO429160   4.270  43.091   9.153
 7140POPC   GL129161   4.321  43.077   8.853
 7140POPC   GL229162   4.458  43.114   8.853
 7140POPC   C1A29163   4.320  43.076   8.553
 7140POPC   D2A29164   4.331  43.153   8.253
 7140POPC   C3A29165   4.315  43.112   7.953
 7140POPC   C4A29166   4.272  43.140   7.653
 7140POPC   C1B29167   4.539  43.025   8.553
 7140POPC   C2B29168   4.582  43.022   8.253
 7140POPC   C3B29169   4.611  43.070   7.953
 7140POPC   C4B29170   4.590  43.019   7.653
 7141POPC   NC329171  15.173   2.734   9.453
 7141POPC   PO429172  15.227   2.735   9.153
 7141POPC   GL129173  15.162   2.750   8.853
 7141POPC   GL229174  15.254   2.640   8.853
 7141POPC   C1A29175  15.223   2.761   8.553
 7141POPC   D2A29176  15.170   2.807   8.253
 7141POPC   C3A29177  15.180   2.807   7.953
 7141POPC   C4A29178  15.229   2.812   7.653
 7141POPC   C1B29179  15.348   2.520   8.553
 7141POPC   C2B29180  15.359   2.594   8.253
 7141POPC   C3B29181  15.302   2.583   7.953
 7141POPC   C4B29182  15.324   2.576   7.653
 7142POPC   NC329183  15.907  28.323   9.453
 7142POPC   PO429184  15.976  28.333   9.153
 7142POPC   GL129185  15.958  28.342   8.853
 7142POPC   GL229186  15.829  28.280   8.853
 7142POPC   C1A29187  15.958  28.358   8.553
 7142POPC   D2A29188  15.987  28.378   8.253
 7142POPC   C3A29189  15.970  28.394   7.953
 7142POPC   C4A29190  15.967  28.419   7.653
 7142POPC   C1B29191  15.686  28.258   8.553
 7142POPC   C2B29192  15.717  28.233   8.253
 7142POPC   C3B29193  15.756  28.220   7.953
 7142POPC   C4B29194  15.775  28.220   7.653
 7143POPC   NC329195   0.482  43.116   9.453
 7143POPC   PO429196   0.426  43.137   9.153
 7143POPC   GL129197   0.410  43.150   8.853
 7143POPC   GL229198   0.497  43.242   8.853
 7143POPC   C1A29199   0.478  43.102   8.553
 7143POPC   D2A29200   0.417  43.123   8.253
 7143POPC   C3A29201   0.431  43.108   7.953
 7143POPC   C4A29202   0.488  43.138   7.653
 7143POPC   C1B29203   0.564  43.315   8.553
 7143POPC   C2B29204   0.626  43.339   8.253
 7143POPC   C3B29205   0.554  43.295   7.953
 7143POPC   C4B29206   0.538  43.330   7.653
 7144POPC   NC329207  31.486  33.805   9.453
 7144POPC   PO429208  31.496  33.775   9.153
 7144POPC   GL129209  31.510  33.782   8.853
 7144POPC   GL229210  31.600  33.769   8.853
 7144POPC   C1A29211  31.449  33.800   8.553
 7144POPC   D2A29212  31.516  33.846   8.253
 7144POPC   C3A29213  31.460  33.816   7.953
 7144POPC   C4A29214  31.449  33.752   7.653
 7144POPC   C1B29215  31.761  33.775   8.553
 7144POPC   C2B29216  31.741  33.789   8.253
 7144POPC   C3B29217  31.684  33.803   7.953
 7144POPC   C4B29218  31.735  33.737   7.653
 7145POPC   NC329219  34.577   6.603   9.453
 7145POPC   PO429220  34.570   6.610   9.153
 7145POPC   GL129221  34.571   6.641   8.853
 7145POPC   GL229222  34.641   6.698   8.853
 7145POPC   C1A29223  34.605   6.651   8.553
 7145POPC   D2A29224  34.556   6.662   8.253
 7145POPC   C3A29225  34.597   6.665   7.953
 7145POPC   C4A29226  34.532   6.596   7.653
 7145POPC   C1B29227  34.821   6.757   8.553
 7145POPC   C2B29228  34.839   6.815   8.253
 7145POPC   C3B29229  34.823   6.736   7.953
 7145POPC   C4B29230  34.744   6.766   7.653
 7146POPC   NC329231   5.131  28.404   9.453
 7146POPC   PO429232   5.081  28.398   9.153
 7146POPC   GL129233   5.047  28.380   8.853
 7146POPC   GL229234   4.956  28.460   8.853
 7146POPC   C1A29235   5.139  28.361   8.553
 7146POPC   D2A29236   5.093  28.360   8.253
 7146POPC   C3A29237   5.090  28.335   7.953
 7146POPC   C4A29238   5.096  28.326   7.653
 7146POPC   C1B29239   4.891  28.481   8.553
 7146POPC   C2B29240   4.820  28.454   8.253
 7146POPC   C3B29241   4.831  28.431   7.953
 7146POPC   C4B29242   4.834  28.455   7.653
 7147POPC   NC329243   1.225  29.913   9.453
 7147POPC   PO429244   1.195  29.914   9.153
 7147POPC   GL129245   1.204  29.966   8.853
 7147POPC   GL229246   1.261  29.997   8.853
 7147POPC   C1A29247   1.177  29.950   8.553
 7147POPC   D2A29248   1.246  29.959   8.253
 7147POPC   C3A29249   1.193  29.934   7.953
 7147POPC   C4A29250   1.247  29.920   7.653
 7147POPC   C1B29251   1.354  30.037   8.553
 7147POPC   C2B29252   1.409  30.044   8.253
 7147POPC   C3B29253   1.417  30.099   7.953
 7147POPC   C4B29254   1.389  30.115   7.653
 7148POPC   NC329255   5.127   6.651   9.453
 7148POPC   PO429256   5.076   6.644   9.153
 7148POPC   GL129257   5.099   6.668   8.853
 7148POPC   GL229258   5.021   6.712   8.853
 7148POPC   C1A29259   5.078   6.673   8.553
 7148POPC   D2A29260   5.098   6.617   8.253
 7148POPC   C3A29261   5.107   6.654   7.953
 7148POPC   C4A29262   5.075   6.666   7.653
 7148POPC   C1B29263   4.936   6.737   8.553
 7148POPC   C2B29264   4.852   6.826   8.253
 7148POPC   C3B29265   4.901   6.745   7.953
 7148POPC   C4B29266   4.891   6.833   7.653
 7149POPC   NC329267   7.413  16.746   9.453
 7149POPC   PO429268   7.399  16.746   9.153
 7149POPC   GL129269   7.401  16.778   8.853
 7149POPC   GL229270   7.339  16.859   8.853
 7149POPC   C1A29271   7.379  16.733   8.553
 7149POPC   D2A29272   7.433  16.708   8.253
 7149POPC   C3A29273   7.374  16.759   7.953
 7149POPC   C4A29274   7.432  16.690   7.653
 7149POPC   C1B29275   7.301  16.953   8.553
 7149POPC   C2B29276   7.306  16.889   8.253
 7149POPC   C3B29277   7.253  16.954   7.953
 7149POPC   C4B29278   7.293  16.932   7.653
 7150POPC   NC329279  42.342  11.307   9.453
 7150POPC   PO429280  42.289  11.298   9.153
 7150POPC   GL129281  42.351  11.269   8.853
 7150POPC   GL229282  42.228  11.266   8.853
 7150POPC   C1A29283  42.351  11.272   8.553
 7150POPC   D2A29284  42.333  11.342   8.253
 7150POPC   C3A29285  42.316  11.290   7.953
 7150POPC   C4A29286  42.297  11.330   7.653
 7150POPC   C1B29287  42.084  11.277   8.553
 7150POPC   C2B29288  42.121  11.232   8.253
 7150POPC   C3B29289  42.108  11.209   7.953
 7150POPC   C4B29290  42.093  11.237   7.653
 7151POPC   NC329291  30.647  40.003   9.453
 7151POPC   PO429292  30.681  40.040   9.153
 7151POPC   GL129293  30.703  40.021   8.853
 7151POPC   GL229294  30.606  40.021   8.853
 7151POPC   C1A29295  30.742  40.039   8.553
 7151POPC   D2A29296  30.651  40.020   8.253
 7151POPC   C3A29297  30.667  39.989   7.953
 7151POPC   C4A29298  30.734  40.008   7.653
 7151POPC   C1B29299  30.483  40.096   8.553
 7151POPC   C2B29300  30.500  40.105   8.253
 7151POPC   C3B29301  30.481  40.126   7.953
 7151POPC   C4B29302  30.466  40.123   7.653
 7152POPC   NC329303  39.186  20.618   9.453
 7152POPC   PO429304  39.235  20.595   9.153
 7152POPC   GL129305  39.216  20.625   8.853
 7152POPC   GL229306  39.352  20.636   8.853
 7152POPC   C1A29307  39.245  20.619   8.553
 7152POPC   D2A29308  39.202  20.617   8.253
 7152POPC   C3A29309  39.215  20.652   7.953
 7152POPC   C4A29310  39.189  20.643   7.653
 7152POPC   C1B29311  39.492  20.765   8.553
 7152POPC   C2B29312  39.474  20.689   8.253
 7152POPC   C3B29313  39.460  20.691   7.953
 7152POPC   C4B29314  39.499  20.752   7.653
 7153POPC   NC329315  34.603  40.790   9.453
 7153POPC   PO429316  34.542  40.833   9.153
 7153POPC   GL129317  34.541  40.774   8.853
 7153POPC   GL229318  34.460  40.873   8.853
 7153POPC   C1A29319  34.538  40.798   8.553
 7153POPC   D2A29320  34.563  40.781   8.253
 7153POPC   C3A29321  34.610  40.745   7.953
 7153POPC   C4A29322  34.580  40.805   7.653
 7153POPC   C1B29323  34.488  41.008   8.553
 7153POPC   C2B29324  34.451  41.021   8.253
 7153POPC   C3B29325  34.488  41.009   7.953
 7153POPC   C4B29326  34.402  41.028   7.653
 7154POPC   NC329327   8.931  13.601   9.453
 7154POPC   PO429328   8.999  13.595   9.153
 7154POPC   GL129329   8.958  13.598   8.853
 7154POPC   GL229330   9.078  13.575   8.853
 7154POPC   C1A29331   8.986  13.595   8.553
 7154POPC   D2A29332   8.945  13.650   8.253
 7154POPC   C3A29333   9.022  13.669   7.953
 7154POPC   C4A29334   8.927  13.580   7.653
 7154POPC   C1B29335   9.150  13.428   8.553
 7154POPC   C2B29336   9.151  13.492   8.253
 7154POPC   C3B29337   9.196  13.455   7.953
 7154POPC   C4B29338   9.208  13.519   7.653
 7155POPC   NC329339  15.966   2.030   9.453
 7155POPC   PO429340  15.953   2.031   9.153
 7155POPC   GL129341  15.983   2.039   8.853
 7155POPC   GL229342  15.855   2.074   8.853
 7155POPC   C1A29343  15.935   1.969   8.553
 7155POPC   D2A29344  15.996   1.955   8.253
 7155POPC   C3A29345  15.917   2.006   7.953
 7155POPC   C4A29346  15.960   1.952   7.653
 7155POPC   C1B29347  15.850   2.190   8.553
 7155POPC   C2B29348  15.842   2.250   8.253
 7155POPC   C3B29349  15.850   2.195   7.953
 7155POPC   C4B29350  15.867   2.235   7.653
 7156POPC   NC329351  28.390  40.015   9.453
 7156POPC   PO429352  28.346  40.007   9.153
 7156POPC   GL129353  28.367  39.997   8.853
 7156POPC   GL229354  28.490  40.041   8.853
 7156POPC   C1A29355  28.399  40.002   8.553
 7156POPC   D2A29356  28.388  39.980   8.253
 7156POPC   C3A29357  28.384  39.988   7.953
 7156POPC   C4A29358  28.393  40.003   7.653
 7156POPC   C1B29359  28.573  40.086   8.553
 7156POPC   C2B29360  28.577  40.099   8.253
 7156POPC   C3B29361  28.557  40.160   7.953
 7156POPC   C4B29362  28.628  40.120   7.653
 7157POPC   NC329363   8.971  12.846   9.453
 7157POPC   PO429364   8.923  12.840   9.153
 7157POPC   GL129365   8.957  12.819   8.853
 7157POPC   GL229366   9.095  12.808   8.853
 7157POPC   C1A29367   9.015  12.821   8.553
 7157POPC   D2A29368   8.929  12.867   8.253
 7157POPC   C3A29369   9.021  12.838   7.953
 7157POPC   C4A29370   8.982  12.819   7.653
 7157POPC   C1B29371   9.199  12.686   8.553
 7157POPC   C2B29372   9.196  12.706   8.253
 7157POPC   C3B29373   9.178  12.648   7.953
 7157POPC   C4B29374   9.215  12.721   7.653
 7158POPC   NC329375  22.917  38.500   9.453
 7158POPC   PO429376  22.924  38.429   9.153
 7158POPC   GL129377  22.923  38.417   8.853
 7158POPC   GL229378  22.841  38.452   8.853
 7158POPC   C1A29379  22.939  38.459   8.553
 7158POPC   D2A29380  22.953  38.448   8.253
 7158POPC   C3A29381  22.944  38.439   7.953
 7158POPC   C4A29382  22.936  38.478   7.653
 7158POPC   C1B29383  22.702  38.528   8.553
 7158POPC   C2B29384  22.720  38.560   8.253
 7158POPC   C3B29385  22.646  38.520   7.953
 7158POPC   C4B29386  22.655  38.492   7.653
 7159POPC   NC329387  26.013  42.363   9.453
 7159POPC   PO429388  26.069  42.353   9.153
 7159POPC   GL129389  26.087  42.374   8.853
 7159POPC   GL229390  26.005  42.498   8.853
 7159POPC   C1A29391  26.034  42.335   8.553
 7159POPC   D2A29392  26.059  42.339   8.253
 7159POPC   C3A29393  26.003  42.383   7.953
 7159POPC   C4A29394  26.083  42.384   7.653
 7159POPC   C1B29395  25.960  42.615   8.553
 7159POPC   C2B29396  25.938  42.555   8.253
 7159POPC   C3B29397  25.914  42.605   7.953
 7159POPC   C4B29398  25.986  42.535   7.653
 7160POPC   NC329399   7.430  40.766   9.453
 7160POPC   PO429400   7.376  40.743   9.153
 7160POPC   GL129401   7.459  40.826   8.853
 7160POPC   GL229402   7.342  40.930   8.853
 7160POPC   C1A29403   7.417  40.795   8.553
 7160POPC   D2A29404   7.442  40.764   8.253
 7160POPC   C3A29405   7.418  40.752   7.953
 7160POPC   C4A29406   7.433  40.806   7.653
 7160POPC   C1B29407   7.348  41.024   8.553
 7160POPC   C2B29408   7.257  41.016   8.253
 7160POPC   C3B29409   7.331  40.961   7.953
 7160POPC   C4B29410   7.317  40.986   7.653
 7161POPC   NC329411   1.954  29.953   9.453
 7161POPC   PO429412   1.968  29.900   9.153
 7161POPC   GL129413   1.992  29.909   8.853
 7161POPC   GL229414   1.982  30.045   8.853
 7161POPC   C1A29415   1.952  29.961   8.553
 7161POPC   D2A29416   1.963  29.940   8.253
 7161POPC   C3A29417   2.025  29.970   7.953
 7161POPC   C4A29418   1.969  29.892   7.653
 7161POPC   C1B29419   1.970  30.176   8.553
 7161POPC   C2B29420   1.962  30.129   8.253
 7161POPC   C3B29421   1.909  30.187   7.953
 7161POPC   C4B29422   1.957  30.178   7.653
 7162POPC   NC329423  38.473   1.171   9.453
 7162POPC   PO429424  38.430   1.175   9.153
 7162POPC   GL129425  38.454   1.195   8.853
 7162POPC   GL229426  38.470   1.288   8.853
 7162POPC   C1A29427  38.464   1.198   8.553
 7162POPC   D2A29428  38.465   1.214   8.253
 7162POPC   C3A29429  38.487   1.175   7.953
 7162POPC   C4A29430  38.476   1.239   7.653
 7162POPC   C1B29431  38.585   1.438   8.553
 7162POPC   C2B29432  38.623   1.386   8.253
 7162POPC   C3B29433  38.594   1.384   7.953
 7162POPC   C4B29434  38.566   1.388   7.653
 7163POPC   NC329435  11.295  36.101   9.453
 7163POPC   PO429436  11.250  36.145   9.153
 7163POPC   GL129437  11.349  36.103   8.853
 7163POPC   GL229438  11.382  36.014   8.853
 7163POPC   C1A29439  11.309  36.085   8.553
 7163POPC   D2A29440  11.289  36.160   8.253
 7163POPC   C3A29441  11.343  36.170   7.953
 7163POPC   C4A29442  11.276  36.127   7.653
 7163POPC   C1B29443  11.414  35.877   8.553
 7163POPC   C2B29444  11.343  35.936   8.253
 7163POPC   C3B29445  11.437  35.856   7.953
 7163POPC   C4B29446  11.413  35.910   7.653
 7164POPC   NC329447  21.381  30.726   9.453
 7164POPC   PO429448  21.358  30.707   9.153
 7164POPC   GL129449  21.428  30.651   8.853
 7164POPC   GL229450  21.476  30.685   8.853
 7164POPC   C1A29451  21.405  30.704   8.553
 7164POPC   D2A29452  21.369  30.656   8.253
 7164POPC   C3A29453  21.396  30.692   7.953
 7164POPC   C4A29454  21.420  30.671   7.653
 7164POPC   C1B29455  21.563  30.553   8.553
 7164POPC   C2B29456  21.649  30.558   8.253
 7164POPC   C3B29457  21.564  30.586   7.953
 7164POPC   C4B29458  21.608  30.581   7.653
 7165POPC   NC329459  18.282  44.620   9.453
 7165POPC   PO429460  18.316  44.643   9.153
 7165POPC   GL129461  18.298  44.638   8.853
 7165POPC   GL229462  18.259  44.778   8.853
 7165POPC   C1A29463  18.259  44.657   8.553
 7165POPC   D2A29464  18.296  44.666   8.253
 7165POPC   C3A29465  18.249  44.709   7.953
 7165POPC   C4A29466  18.294  44.685   7.653
 7165POPC   C1B29467  18.190  44.930   8.553
 7165POPC   C2B29468  18.234  44.868   8.253
 7165POPC   C3B29469  18.192  44.941   7.953
 7165POPC   C4B29470  18.243  44.893   7.653
 7166POPC   NC329471  26.850  20.584   9.453
 7166POPC   PO429472  26.795  20.562   9.153
 7166POPC   GL129473  26.819  20.659   8.853
 7166POPC   GL229474  26.682  20.608   8.853
 7166POPC   C1A29475  26.768  20.631   8.553
 7166POPC   D2A29476  26.801  20.625   8.253
 7166POPC   C3A29477  26.835  20.657   7.953
 7166POPC   C4A29478  26.834  20.641   7.653
 7166POPC   C1B29479  26.571  20.616   8.553
 7166POPC   C2B29480  26.545  20.633   8.253
 7166POPC   C3B29481  26.606  20.591   7.953
 7166POPC   C4B29482  26.531  20.622   7.653
 7167POPC   NC329483  39.210   9.780   9.453
 7167POPC   PO429484  39.267   9.763   9.153
 7167POPC   GL129485  39.250   9.745   8.853
 7167POPC   GL229486  39.156   9.856   8.853
 7167POPC   C1A29487  39.234   9.734   8.553
 7167POPC   D2A29488  39.252   9.776   8.253
 7167POPC   C3A29489  39.280   9.711   7.953
 7167POPC   C4A29490  39.264   9.720   7.653
 7167POPC   C1B29491  39.157  10.023   8.553
 7167POPC   C2B29492  39.199   9.947   8.253
 7167POPC   C3B29493  39.187  10.023   7.953
 7167POPC   C4B29494  39.218  10.015   7.653
 7168POPC   NC329495  37.648  12.111   9.453
 7168POPC   PO429496  37.661  12.077   9.153
 7168POPC   GL129497  37.665  12.046   8.853
 7168POPC   GL229498  37.798  12.130   8.853
 7168POPC   C1A29499  37.720  12.095   8.553
 7168POPC   D2A29500  37.696  12.109   8.253
 7168POPC   C3A29501  37.718  12.062   7.953
 7168POPC   C4A29502  37.724  12.067   7.653
 7168POPC   C1B29503  37.837  12.274   8.553
 7168POPC   C2B29504  37.841  12.215   8.253
 7168POPC   C3B29505  37.839  12.224   7.953
 7168POPC   C4B29506  37.834  12.234   7.653
 7169POPC   NC329507  37.715  20.602   9.453
 7169POPC   PO429508  37.660  20.659   9.153
 7169POPC   GL129509  37.720  20.653   8.853
 7169POPC   GL229510  37.821  20.500   8.853
 7169POPC   C1A29511  37.691  20.573   8.553
 7169POPC   D2A29512  37.678  20.636   8.253
 7169POPC   C3A29513  37.637  20.571   7.953
 7169POPC   C4A29514  37.722  20.617   7.653
 7169POPC   C1B29515  37.920  20.474   8.553
 7169POPC   C2B29516  37.855  20.536   8.253
 7169POPC   C3B29517  37.904  20.453   7.953
 7169POPC   C4B29518  37.855  20.442   7.653
 7170POPC   NC329519  26.063   0.438   9.453
 7170POPC   PO429520  26.009   0.391   9.153
 7170POPC   GL129521  26.056   0.427   8.853
 7170POPC   GL229522  25.978   0.283   8.853
 7170POPC   C1A29523  26.074   0.437   8.553
 7170POPC   D2A29524  26.037   0.414   8.253
 7170POPC   C3A29525  26.039   0.394   7.953
 7170POPC   C4A29526  26.080   0.435   7.653
 7170POPC   C1B29527  25.921   0.224   8.553
 7170POPC   C2B29528  25.980   0.241   8.253
 7170POPC   C3B29529  25.902   0.175   7.953
 7170POPC   C4B29530  25.890   0.169   7.653
 7171POPC   NC329531  42.325  43.126   9.453
 7171POPC   PO429532  42.375  43.152   9.153
 7171POPC   GL129533  42.293  43.159   8.853
 7171POPC   GL229534  42.388  43.004   8.853
 7171POPC   C1A29535  42.297  43.062   8.553
 7171POPC   D2A29536  42.302  43.130   8.253
 7171POPC   C3A29537  42.306  43.127   7.953
 7171POPC   C4A29538  42.338  43.098   7.653
 7171POPC   C1B29539  42.352  42.857   8.553
 7171POPC   C2B29540  42.310  42.825   8.253
 7171POPC   C3B29541  42.335  42.835   7.953
 7171POPC   C4B29542  42.315  42.831   7.653
 7172POPC   NC329543   7.441  11.339   9.453
 7172POPC   PO429544   7.435  11.262   9.153
 7172POPC   GL129545   7.375  11.256   8.853
 7172POPC   GL229546   7.460  11.374   8.853
 7172POPC   C1A29547   7.412  11.263   8.553
 7172POPC   D2A29548   7.457  11.314   8.253
 7172POPC   C3A29549   7.464  11.277   7.953
 7172POPC   C4A29550   7.434  11.318   7.653
 7172POPC   C1B29551   7.525  11.551   8.553
 7172POPC   C2B29552   7.539  11.574   8.253
 7172POPC   C3B29553   7.538  11.558   7.953
 7172POPC   C4B29554   7.513  11.506   7.653
 7173POPC   NC329555  16.771  22.981   9.453
 7173POPC   PO429556  16.704  22.987   9.153
 7173POPC   GL129557  16.725  22.942   8.853
 7173POPC   GL229558  16.668  22.863   8.853
 7173POPC   C1A29559  16.726  22.971   8.553
 7173POPC   D2A29560  16.707  22.904   8.253
 7173POPC   C3A29561  16.684  22.931   7.953
 7173POPC   C4A29562  16.725  22.921   7.653
 7173POPC   C1B29563  16.586  22.779   8.553
 7173POPC   C2B29564  16.551  22.769   8.253
 7173POPC   C3B29565  16.577  22.768   7.953
 7173POPC   C4B29566  16.585  22.751   7.653
 7174POPC   NC329567  32.982  22.941   9.453
 7174POPC   PO429568  33.016  22.933   9.153
 7174POPC   GL129569  32.976  22.963   8.853
 7174POPC   GL229570  33.003  22.859   8.853
 7174POPC   C1A29571  33.071  22.891   8.553
 7174POPC   D2A29572  33.024  22.946   8.253
 7174POPC   C3A29573  32.993  22.958   7.953
 7174POPC   C4A29574  33.032  22.900   7.653
 7174POPC   C1B29575  32.970  22.668   8.553
 7174POPC   C2B29576  32.906  22.698   8.253
 7174POPC   C3B29577  32.941  22.708   7.953
 7174POPC   C4B29578  32.926  22.710   7.653
 7175POPC   NC329579  16.778  35.371   9.453
 7175POPC   PO429580  16.768  35.374   9.153
 7175POPC   GL129581  16.758  35.312   8.853
 7175POPC   GL229582  16.875  35.367   8.853
 7175POPC   C1A29583  16.690  35.359   8.553
 7175POPC   D2A29584  16.715  35.346   8.253
 7175POPC   C3A29585  16.731  35.321   7.953
 7175POPC   C4A29586  16.752  35.364   7.653
 7175POPC   C1B29587  16.979  35.259   8.553
 7175POPC   C2B29588  16.962  35.309   8.253
 7175POPC   C3B29589  17.005  35.338   7.953
 7175POPC   C4B29590  16.947  35.313   7.653
 7176POPC   NC329591  30.731  36.149   9.453
 7176POPC   PO429592  30.700  36.114   9.153
 7176POPC   GL129593  30.706  36.162   8.853
 7176POPC   GL229594  30.829  36.094   8.853
 7176POPC   C1A29595  30.674  36.118   8.553
 7176POPC   D2A29596  30.727  36.131   8.253
 7176POPC   C3A29597  30.729  36.165   7.953
 7176POPC   C4A29598  30.716  36.119   7.653
 7176POPC   C1B29599  30.987  36.109   8.553
 7176POPC   C2B29600  30.986  36.049   8.253
 7176POPC   C3B29601  30.900  36.131   7.953
 7176POPC   C4B29602  30.911  36.056   7.653
 7177POPC   NC329603  34.587  21.347   9.453
 7177POPC   PO429604  34.612  21.436   9.153
 7177POPC   GL129605  34.611  21.418   8.853
 7177POPC   GL229606  34.521  21.435   8.853
 7177POPC   C1A29607  34.614  21.369   8.553
 7177POPC   D2A29608  34.605  21.353   8.253
 7177POPC   C3A29609  34.544  21.364   7.953
 7177POPC   C4A29610  34.562  21.425   7.653
 7177POPC   C1B29611  34.383  21.505   8.553
 7177POPC   C2B29612  34.407  21.577   8.253
 7177POPC   C3B29613  34.389  21.573   7.953
 7177POPC   C4B29614  34.388  21.518   7.653
 7178POPC   NC329615   4.323  36.082   9.453
 7178POPC   PO429616   4.367  36.107   9.153
 7178POPC   GL129617   4.296  36.094   8.853
 7178POPC   GL229618   4.221  36.120   8.853
 7178POPC   C1A29619   4.320  36.114   8.553
 7178POPC   D2A29620   4.269  36.169   8.253
 7178POPC   C3A29621   4.349  36.160   7.953
 7178POPC   C4A29622   4.277  36.095   7.653
 7178POPC   C1B29623   4.058  36.062   8.553
 7178POPC   C2B29624   4.107  36.086   8.253
 7178POPC   C3B29625   4.076  36.079   7.953
 7178POPC   C4B29626   4.079  36.025   7.653
 7179POPC   NC329627  23.744  23.753   9.453
 7179POPC   PO429628  23.675  23.708   9.153
 7179POPC   GL129629  23.728  23.741   8.853
 7179POPC   GL229630  23.604  23.802   8.853
 7179POPC   C1A29631  23.729  23.720   8.553
 7179POPC   D2A29632  23.718  23.697   8.253
 7179POPC   C3A29633  23.699  23.726   7.953
 7179POPC   C4A29634  23.704  23.693   7.653
 7179POPC   C1B29635  23.483  23.777   8.553
 7179POPC   C2B29636  23.430  23.801   8.253
 7179POPC   C3B29637  23.516  23.773   7.953
 7179POPC   C4B29638  23.519  23.754   7.653
 7180POPC   NC329639   7.388  10.488   9.453
 7180POPC   PO429640   7.423  10.539   9.153
 7180POPC   GL129641   7.390  10.532   8.853
 7180POPC   GL229642   7.519  10.515   8.853
 7180POPC   C1A29643   7.460  10.485   8.553
 7180POPC   D2A29644   7.448  10.479   8.253
 7180POPC   C3A29645   7.424  10.533   7.953
 7180POPC   C4A29646   7.444  10.529   7.653
 7180POPC   C1B29647   7.688  10.527   8.553
 7180POPC   C2B29648   7.639  10.536   8.253
 7180POPC   C3B29649   7.708  10.585   7.953
 7180POPC   C4B29650   7.681  10.581   7.653
 7181POPC   NC329651   8.215  21.384   9.453
 7181POPC   PO429652   8.148  21.350   9.153
 7181POPC   GL129653   8.172  21.343   8.853
 7181POPC   GL229654   8.249  21.468   8.853
 7181POPC   C1A29655   8.214  21.352   8.553
 7181POPC   D2A29656   8.164  21.347   8.253
 7181POPC   C3A29657   8.175  21.413   7.953
 7181POPC   C4A29658   8.202  21.375   7.653
 7181POPC   C1B29659   8.282  21.605   8.553
 7181POPC   C2B29660   8.349  21.592   8.253
 7181POPC   C3B29661   8.286  21.627   7.953
 7181POPC   C4B29662   8.326  21.573   7.653
 7182POPC   NC329663  36.923   8.985   9.453
 7182POPC   PO429664  36.933   8.933   9.153
 7182POPC   GL129665  36.950   8.934   8.853
 7182POPC   GL229666  36.843   8.851   8.853
 7182POPC   C1A29667  36.889   8.999   8.553
 7182POPC   D2A29668  36.945   8.957   8.253
 7182POPC   C3A29669  36.889   8.962   7.953
 7182POPC   C4A29670  36.907   8.943   7.653
 7182POPC   C1B29671  36.875   8.722   8.553
 7182POPC   C2B29672  36.823   8.684   8.253
 7182POPC   C3B29673  36.808   8.732   7.953
 7182POPC   C4B29674  36.805   8.721   7.653
 7183POPC   NC329675  42.351  10.541   9.453
 7183POPC   PO429676  42.323  10.562   9.153
 7183POPC   GL129677  42.317  10.497   8.853
 7183POPC   GL229678  42.275  10.629   8.853
 7183POPC   C1A29679  42.310  10.520   8.553
 7183POPC   D2A29680  42.384  10.500   8.253
 7183POPC   C3A29681  42.299  10.524   7.953
 7183POPC   C4A29682  42.349  10.488   7.653
 7183POPC   C1B29683  42.213  10.717   8.553
 7183POPC   C2B29684  42.145  10.680   8.253
 7183POPC   C3B29685  42.232  10.684   7.953
 7183POPC   C4B29686  42.148  10.763   7.653
 7184POPC   NC329687  36.861  27.551   9.453
 7184POPC   PO429688  36.869  27.580   9.153
 7184POPC   GL129689  36.860  27.548   8.853
 7184POPC   GL229690  36.935  27.702   8.853
 7184POPC   C1A29691  36.882  27.565   8.553
 7184POPC   D2A29692  36.896  27.641   8.253
 7184POPC   C3A29693  36.914  27.598   7.953
 7184POPC   C4A29694  36.862  27.603   7.653
 7184POPC   C1B29695  36.985  27.869   8.553
 7184POPC   C2B29696  36.925  27.821   8.253
 7184POPC   C3B29697  36.985  27.878   7.953
 7184POPC   C4B29698  36.916  27.827   7.653
 7185POPC   NC329699  23.745  43.920   9.453
 7185POPC   PO429700  23.740  43.849   9.153
 7185POPC   GL129701  23.704  43.885   8.853
 7185POPC   GL229702  23.741  43.797   8.853
 7185POPC   C1A29703  23.718  43.841   8.553
 7185POPC   D2A29704  23.746  43.882   8.253
 7185POPC   C3A29705  23.709  43.863   7.953
 7185POPC   C4A29706  23.759  43.901   7.653
 7185POPC   C1B29707  23.836  43.707   8.553
 7185POPC   C2B29708  23.822  43.714   8.253
 7185POPC   C3B29709  23.837  43.711   7.953
 7185POPC   C4B29710  23.797  43.699   7.653
 7186POPC   NC329711  35.343  14.380   9.453
 7186POPC   PO429712  35.341  14.443   9.153
 7186POPC   GL129713  35.303  14.410   8.853
 7186POPC   GL229714  35.244  14.261   8.853
 7186POPC   C1A29715  35.353  14.373   8.553
 7186POPC   D2A29716  35.383  14.382   8.253
 7186POPC   C3A29717  35.328  14.360   7.953
 7186POPC   C4A29718  35.377  14.369   7.653
 7186POPC   C1B29719  35.260  14.226   8.553
 7186POPC   C2B29720  35.251  14.175   8.253
 7186POPC   C3B29721  35.279  14.136   7.953
 7186POPC   C4B29722  35.225  14.136   7.653
 7187POPC   NC329723   8.244  37.720   9.453
 7187POPC   PO429724   8.226  37.693   9.153
 7187POPC   GL129725   8.153  37.717   8.853
 7187POPC   GL229726   8.344  37.600   8.853
 7187POPC   C1A29727   8.244  37.639   8.553
 7187POPC   D2A29728   8.159  37.647   8.253
 7187POPC   C3A29729   8.202  37.677   7.953
 7187POPC   C4A29730   8.223  37.683   7.653
 7187POPC   C1B29731   8.397  37.522   8.553
 7187POPC   C2B29732   8.428  37.541   8.253
 7187POPC   C3B29733   8.429  37.560   7.953
 7187POPC   C4B29734   8.431  37.522   7.653
 7188POPC   NC329735  19.052   1.256   9.453
 7188POPC   PO429736  19.020   1.250   9.153
 7188POPC   GL129737  19.050   1.183   8.853
 7188POPC   GL229738  19.105   1.266   8.853
 7188POPC   C1A29739  19.077   1.207   8.553
 7188POPC   D2A29740  19.076   1.240   8.253
 7188POPC   C3A29741  19.015   1.243   7.953
 7188POPC   C4A29742  19.094   1.167   7.653
 7188POPC   C1B29743  19.233   1.367   8.553
 7188POPC   C2B29744  19.277   1.413   8.253
 7188POPC   C3B29745  19.291   1.367   7.953
 7188POPC   C4B29746  19.286   1.386   7.653
 7189POPC   NC329747  14.450  36.943   9.453
 7189POPC   PO429748  14.438  36.947   9.153
 7189POPC   GL129749  14.443  36.891   8.853
 7189POPC   GL229750  14.524  36.931   8.853
 7189POPC   C1A29751  14.438  36.907   8.553
 7189POPC   D2A29752  14.447  36.855   8.253
 7189POPC   C3A29753  14.433  36.899   7.953
 7189POPC   C4A29754  14.406  36.897   7.653
 7189POPC   C1B29755  14.595  36.965   8.553
 7189POPC   C2B29756  14.640  36.970   8.253
 7189POPC   C3B29757  14.598  36.986   7.953
 7189POPC   C4B29758  14.601  36.995   7.653
 7190POPC   NC329759   3.540   2.784   9.453
 7190POPC   PO429760   3.541   2.798   9.153
 7190POPC   GL129761   3.553   2.729   8.853
 7190POPC   GL229762   3.684   2.774   8.853
 7190POPC   C1A29763   3.512   2.764   8.553
 7190POPC   D2A29764   3.493   2.731   8.253
 7190POPC   C3A29765   3.519   2.815   7.953
 7190POPC   C4A29766   3.570   2.741   7.653
 7190POPC   C1B29767   3.763   2.777   8.553
 7190POPC   C2B29768   3.763   2.806   8.253
 7190POPC   C3B29769   3.786   2.842   7.953
 7190POPC   C4B29770   3.743   2.820   7.653
 7191POPC   NC329771   6.665  22.145   9.453
 7191POPC   PO429772   6.688  22.193   9.153
 7191POPC   GL129773   6.604  22.159   8.853
 7191POPC   GL229774   6.718  22.081   8.853
 7191POPC   C1A29775   6.688  22.194   8.553
 7191POPC   D2A29776   6.664  22.186   8.253
 7191POPC   C3A29777   6.640  22.126   7.953
 7191POPC   C4A29778   6.682  22.157   7.653
 7191POPC   C1B29779   6.901  21.986   8.553
 7191POPC   C2B29780   6.814  22.071   8.253
 7191POPC   C3B29781   6.825  22.032   7.953
 7191POPC   C4B29782   6.874  21.990   7.653
 7192POPC   NC329783   5.843  28.407   9.453
 7192POPC   PO429784   5.863  28.418   9.153
 7192POPC   GL129785   5.909  28.418   8.853
 7192POPC   GL229786   5.987  28.260   8.853
 7192POPC   C1A29787   5.861  28.353   8.553
 7192POPC   D2A29788   5.846  28.331   8.253
 7192POPC   C3A29789   5.892  28.364   7.953
 7192POPC   C4A29790   5.834  28.328   7.653
 7192POPC   C1B29791   6.118  28.265   8.553
 7192POPC   C2B29792   6.096  28.268   8.253
 7192POPC   C3B29793   6.047  28.222   7.953
 7192POPC   C4B29794   6.087  28.279   7.653
 7193POPC   NC329795  14.360  32.224   9.453
 7193POPC   PO429796  14.380  32.279   9.153
 7193POPC   GL129797  14.393  32.226   8.853
 7193POPC   GL229798  14.432  32.156   8.853
 7193POPC   C1A29799  14.411  32.222   8.553
 7193POPC   D2A29800  14.370  32.238   8.253
 7193POPC   C3A29801  14.443  32.268   7.953
 7193POPC   C4A29802  14.449  32.199   7.653
 7193POPC   C1B29803  14.474  31.995   8.553
 7193POPC   C2B29804  14.403  31.964   8.253
 7193POPC   C3B29805  14.472  31.969   7.953
 7193POPC   C4B29806  14.488  32.033   7.653
 7194POPC   NC329807  10.486   5.841   9.453
 7194POPC   PO429808  10.566   5.839   9.153
 7194POPC   GL129809  10.551   5.852   8.853
 7194POPC   GL229810  10.381   5.826   8.853
 7194POPC   C1A29811  10.491   5.906   8.553
 7194POPC   D2A29812  10.487   5.834   8.253
 7194POPC   C3A29813  10.528   5.879   7.953
 7194POPC   C4A29814  10.571   5.834   7.653
 7194POPC   C1B29815  10.283   5.778   8.553
 7194POPC   C2B29816  10.280   5.833   8.253
 7194POPC   C3B29817  10.313   5.780   7.953
 7194POPC   C4B29818  10.286   5.777   7.653
 7195POPC   NC329819   3.522  25.311   9.453
 7195POPC   PO429820   3.513  25.224   9.153
 7195POPC   GL129821   3.560  25.285   8.853
 7195POPC   GL229822   3.657  25.166   8.853
 7195POPC   C1A29823   3.512  25.255   8.553
 7195POPC   D2A29824   3.556  25.218   8.253
 7195POPC   C3A29825   3.586  25.299   7.953
 7195POPC   C4A29826   3.500  25.237   7.653
 7195POPC   C1B29827   3.708  25.102   8.553
 7195POPC   C2B29828   3.756  25.074   8.253
 7195POPC   C3B29829   3.726  25.119   7.953
 7195POPC   C4B29830   3.734  25.069   7.653
 7196POPC   NC329831  42.337  29.132   9.453
 7196POPC   PO429832  42.360  29.106   9.153
 7196POPC   GL129833  42.379  29.161   8.853
 7196POPC   GL229834  42.212  29.158   8.853
 7196POPC   C1A29835  42.358  29.113   8.553
 7196POPC   D2A29836  42.380  29.107   8.253
 7196POPC   C3A29837  42.323  29.159   7.953
 7196POPC   C4A29838  42.373  29.186   7.653
 7196POPC   C1B29839  42.110  29.192   8.553
 7196POPC   C2B29840  42.085  29.111   8.253
 7196POPC   C3B29841  42.090  29.150   7.953
 7196POPC   C4B29842  42.101  29.188   7.653
 7197POPC   NC329843  13.603  44.666   9.453
 7197POPC   PO429844  13.655  44.683   9.153
 7197POPC   GL129845  13.608  44.678   8.853
 7197POPC   GL229846  13.772  44.617   8.853
 7197POPC   C1A29847  13.627  44.618   8.553
 7197POPC   D2A29848  13.630  44.635   8.253
 7197POPC   C3A29849  13.587  44.666   7.953
 7197POPC   C4A29850  13.607  44.636   7.653
 7197POPC   C1B29851  13.920  44.663   8.553
 7197POPC   C2B29852  13.876  44.690   8.253
 7197POPC   C3B29853  13.883  44.664   7.953
 7197POPC   C4B29854  13.853  44.688   7.653
 7198POPC   NC329855   8.987  26.055   9.453
 7198POPC   PO429856   9.012  26.065   9.153
 7198POPC   GL129857   8.978  26.000   8.853
 7198POPC   GL229858   9.128  26.052   8.853
 7198POPC   C1A29859   8.986  26.039   8.553
 7198POPC   D2A29860   8.998  26.026   8.253
 7198POPC   C3A29861   8.958  26.015   7.953
 7198POPC   C4A29862   8.941  26.006   7.653
 7198POPC   C1B29863   9.224  26.123   8.553
 7198POPC   C2B29864   9.210  26.108   8.253
 7198POPC   C3B29865   9.234  26.115   7.953
 7198POPC   C4B29866   9.173  26.146   7.653
 7199POPC   NC329867  22.986  12.821   9.453
 7199POPC   PO429868  22.953  12.828   9.153
 7199POPC   GL129869  22.968  12.808   8.853
 7199POPC   GL229870  22.831  12.798   8.853
 7199POPC   C1A29871  22.947  12.900   8.553
 7199POPC   D2A29872  22.897  12.873   8.253
 7199POPC   C3A29873  22.970  12.886   7.953
 7199POPC   C4A29874  22.947  12.890   7.653
 7199POPC   C1B29875  22.735  12.778   8.553
 7199POPC   C2B29876  22.704  12.727   8.253
 7199POPC   C3B29877  22.726  12.752   7.953
 7199POPC   C4B29878  22.670  12.753   7.653
 7200POPC   NC329879  10.504  43.080   9.453
 7200POPC   PO429880  10.481  43.135   9.153
 7200POPC   GL129881  10.566  43.128   8.853
 7200POPC   GL229882  10.421  43.124   8.853
 7200POPC   C1A29883  10.495  43.155   8.553
 7200POPC   D2A29884  10.573  43.127   8.253
 7200POPC   C3A29885  10.503  43.079   7.953
 7200POPC   C4A29886  10.487  43.078   7.653
 7200POPC   C1B29887  10.230  43.148   8.553
 7200POPC   C2B29888  10.308  43.139   8.253
 7200POPC   C3B29889  10.321  43.197   7.953
 7200POPC   C4B29890  10.300  43.188   7.653
 7201POPC   NC329891   8.173   1.252   9.453
 7201POPC   PO429892   8.205   1.214   9.153
 7201POPC   GL129893   8.157   1.224   8.853
 7201POPC   GL229894   8.251   1.146   8.853
 7201POPC   C1A29895   8.163   1.257   8.553
 7201POPC   D2A29896   8.235   1.248   8.253
 7201POPC   C3A29897   8.177   1.211   7.953
 7201POPC   C4A29898   8.205   1.168   7.653
 7201POPC   C1B29899   8.303   0.947   8.553
 7201POPC   C2B29900   8.351   0.985   8.253
 7201POPC   C3B29901   8.294   0.991   7.953
 7201POPC   C4B29902   8.275   0.995   7.653
 7202POPC   NC329903  21.397  33.003   9.453
 7202POPC   PO429904  21.418  32.995   9.153
 7202POPC   GL129905  21.421  33.051   8.853
 7202POPC   GL229906  21.359  33.188   8.853
 7202POPC   C1A29907  21.432  33.072   8.553
 7202POPC   D2A29908  21.384  32.976   8.253
 7202POPC   C3A29909  21.367  33.018   7.953
 7202POPC   C4A29910  21.350  33.061   7.653
 7202POPC   C1B29911  21.454  33.319   8.553
 7202POPC   C2B29912  21.431  33.309   8.253
 7202POPC   C3B29913  21.398  33.249   7.953
 7202POPC   C4B29914  21.461  33.221   7.653
 7203POPC   NC329915  17.459  19.823   9.453
 7203POPC   PO429916  17.462  19.854   9.153
 7203POPC   GL129917  17.504  19.882   8.853
 7203POPC   GL229918  17.456  19.934   8.853
 7203POPC   C1A29919  17.535  19.856   8.553
 7203POPC   D2A29920  17.495  19.872   8.253
 7203POPC   C3A29921  17.525  19.811   7.953
 7203POPC   C4A29922  17.536  19.832   7.653
 7203POPC   C1B29923  17.313  20.055   8.553
 7203POPC   C2B29924  17.380  20.043   8.253
 7203POPC   C3B29925  17.329  19.993   7.953
 7203POPC   C4B29926  17.304  20.007   7.653
 7204POPC   NC329927  13.636  29.184   9.453
 7204POPC   PO429928  13.660  29.137   9.153
 7204POPC   GL129929  13.634  29.099   8.853
 7204POPC   GL229930  13.733  29.276   8.853
 7204POPC   C1A29931  13.643  29.172   8.553
 7204POPC   D2A29932  13.595  29.113   8.253
 7204POPC   C3A29933  13.605  29.148   7.953
 7204POPC   C4A29934  13.659  29.127   7.653
 7204POPC   C1B29935  13.830  29.330   8.553
 7204POPC   C2B29936  13.780  29.308   8.253
 7204POPC   C3B29937  13.761  29.348   7.953
 7204POPC   C4B29938  13.743  29.309   7.653
 7205POPC   NC329939  35.352   6.633   9.453
 7205POPC   PO429940  35.312   6.626   9.153
 7205POPC   GL129941  35.308   6.627   8.853
 7205POPC   GL229942  35.318   6.767   8.853
 7205POPC   C1A29943  35.383   6.633   8.553
 7205POPC   D2A29944  35.349   6.631   8.253
 7205POPC   C3A29945  35.307   6.626   7.953
 7205POPC   C4A29946  35.398   6.668   7.653
 7205POPC   C1B29947  35.404   6.877   8.553
 7205POPC   C2B29948  35.348   6.915   8.253
 7205POPC   C3B29949  35.396   6.869   7.953
 7205POPC   C4B29950  35.315   6.911   7.653
 7206POPC   NC329951   7.420  12.056   9.453
 7206POPC   PO429952   7.379  12.040   9.153
 7206POPC   GL129953   7.463  12.069   8.853
 7206POPC   GL229954   7.332  12.014   8.853
 7206POPC   C1A29955   7.389  12.033   8.553
 7206POPC   D2A29956   7.458  12.120   8.253
 7206POPC   C3A29957   7.381  12.112   7.953
 7206POPC   C4A29958   7.394  12.037   7.653
 7206POPC   C1B29959   7.244  11.916   8.553
 7206POPC   C2B29960   7.239  11.854   8.253
 7206POPC   C3B29961   7.253  11.883   7.953
 7206POPC   C4B29962   7.280  11.908   7.653
 7207POPC   NC329963  13.677  22.976   9.453
 7207POPC   PO429964  13.672  22.951   9.153
 7207POPC   GL129965  13.632  22.897   8.853
 7207POPC   GL229966  13.732  22.946   8.853
 7207POPC   C1A29967  13.582  22.891   8.553
 7207POPC   D2A29968  13.642  22.919   8.253
 7207POPC   C3A29969  13.586  22.896   7.953
 7207POPC   C4A29970  13.631  22.956   7.653
 7207POPC   C1B29971  13.904  22.950   8.553
 7207POPC   C2B29972  13.865  22.957   8.253
 7207POPC   C3B29973  13.895  22.905   7.953
 7207POPC   C4B29974  13.867  22.921   7.653
 7208POPC   NC329975  32.294  28.340   9.453
 7208POPC   PO429976  32.267  28.394   9.153
 7208POPC   GL129977  32.209  28.400   8.853
 7208POPC   GL229978  32.234  28.540   8.853
 7208POPC   C1A29979  32.273  28.416   8.553
 7208POPC   D2A29980  32.243  28.354   8.253
 7208POPC   C3A29981  32.227  28.327   7.953
 7208POPC   C4A29982  32.215  28.386   7.653
 7208POPC   C1B29983  32.324  28.575   8.553
 7208POPC   C2B29984  32.265  28.573   8.253
 7208POPC   C3B29985  32.270  28.577   7.953
 7208POPC   C4B29986  32.238  28.649   7.653
 7209POPC   NC329987  12.817   4.269   9.453
 7209POPC   PO429988  12.894   4.282   9.153
 7209POPC   GL129989  12.818   4.356   8.853
 7209POPC   GL229990  12.738   4.355   8.853
 7209POPC   C1A29991  12.834   4.301   8.553
 7209POPC   D2A29992  12.860   4.316   8.253
 7209POPC   C3A29993  12.880   4.348   7.953
 7209POPC   C4A29994  12.820   4.333   7.653
 7209POPC   C1B29995  12.600   4.403   8.553
 7209POPC   C2B29996  12.589   4.339   8.253
 7209POPC   C3B29997  12.566   4.345   7.953
 7209POPC   C4B29998  12.616   4.325   7.653
 7210POPC   NC329999   0.406  19.020   9.453
 7210POPC   PO430000   0.471  19.108   9.153
 7210POPC   GL130001   0.447  19.106   8.853
 7210POPC   GL230002   0.411  18.915   8.853
 7210POPC   C1A30003   0.469  19.040   8.553
 7210POPC   D2A30004   0.410  19.035   8.253
 7210POPC   C3A30005   0.432  19.061   7.953
 7210POPC   C4A30006   0.473  19.039   7.653
 7210POPC   C1B30007   0.310  18.875   8.553
 7210POPC   C2B30008   0.279  18.862   8.253
 7210POPC   C3B30009   0.286  18.822   7.953
 7210POPC   C4B30010   0.249  18.809   7.653
 7211POPC   NC330011  42.341  40.769   9.453
 7211POPC   PO430012  42.353  40.788   9.153
 7211POPC   GL130013  42.334  40.804   8.853
 7211POPC   GL230014  42.260  40.893   8.853
 7211POPC   C1A30015  42.318  40.750   8.553
 7211POPC   D2A30016  42.315  40.736   8.253
 7211POPC   C3A30017  42.356  40.812   7.953
 7211POPC   C4A30018  42.346  40.762   7.653
 7211POPC   C1B30019  42.125  40.993   8.553
 7211POPC   C2B30020  42.149  40.918   8.253
 7211POPC   C3B30021  42.109  40.973   7.953
 7211POPC   C4B30022  42.167  40.924   7.653
 7212POPC   NC330023  42.316  24.539   9.453
 7212POPC   PO430024  42.319  24.477   9.153
 7212POPC   GL130025  42.346  24.482   8.853
 7212POPC   GL230026  42.213  24.524   8.853
 7212POPC   C1A30027  42.289  24.529   8.553
 7212POPC   D2A30028  42.376  24.524   8.253
 7212POPC   C3A30029  42.332  24.539   7.953
 7212POPC   C4A30030  42.305  24.503   7.653
 7212POPC   C1B30031  42.099  24.646   8.553
 7212POPC   C2B30032  42.160  24.669   8.253
 7212POPC   C3B30033  42.169  24.641   7.953
 7212POPC   C4B30034  42.165  24.691   7.653
 7213POPC   NC330035  29.121  37.671   9.453
 7213POPC   PO430036  29.173  37.667   9.153
 7213POPC   GL130037  29.176  37.705   8.853
 7213POPC   GL230038  29.105  37.814   8.853
 7213POPC   C1A30039  29.191  37.676   8.553
 7213POPC   D2A30040  29.144  37.638   8.253
 7213POPC   C3A30041  29.179  37.719   7.953
 7213POPC   C4A30042  29.156  37.707   7.653
 7213POPC   C1B30043  29.010  37.923   8.553
 7213POPC   C2B30044  29.029  37.868   8.253
 7213POPC   C3B30045  29.027  37.900   7.953
 7213POPC   C4B30046  29.023  37.932   7.653
 7214POPC   NC330047  20.641  11.275   9.453
 7214POPC   PO430048  20.570  11.330   9.153
 7214POPC   GL130049  20.600  11.298   8.853
 7214POPC   GL230050  20.541  11.178   8.853
 7214POPC   C1A30051  20.636  11.325   8.553
 7214POPC   D2A30052  20.582  11.261   8.253
 7214POPC   C3A30053  20.611  11.298   7.953
 7214POPC   C4A30054  20.653  11.272   7.653
 7214POPC   C1B30055  20.426  11.146   8.553
 7214POPC   C2B30056  20.425  11.078   8.253
 7214POPC   C3B30057  20.440  11.133   7.953
 7214POPC   C4B30058  20.418  11.096   7.653
 7215POPC   NC330059   2.776  33.775   9.453
 7215POPC   PO430060   2.770  33.832   9.153
 7215POPC   GL130061   2.752  33.791   8.853
 7215POPC   GL230062   2.798  33.714   8.853
 7215POPC   C1A30063   2.722  33.804   8.553
 7215POPC   D2A30064   2.747  33.756   8.253
 7215POPC   C3A30065   2.760  33.783   7.953
 7215POPC   C4A30066   2.721  33.802   7.653
 7215POPC   C1B30067   2.843  33.595   8.553
 7215POPC   C2B30068   2.870  33.583   8.253
 7215POPC   C3B30069   2.847  33.628   7.953
 7215POPC   C4B30070   2.877  33.607   7.653
 7216POPC   NC330071  10.560  34.617   9.453
 7216POPC   PO430072  10.552  34.578   9.153
 7216POPC   GL130073  10.537  34.594   8.853
 7216POPC   GL230074  10.424  34.565   8.853
 7216POPC   C1A30075  10.490  34.538   8.553
 7216POPC   D2A30076  10.564  34.578   8.253
 7216POPC   C3A30077  10.515  34.587   7.953
 7216POPC   C4A30078  10.547  34.625   7.653
 7216POPC   C1B30079  10.250  34.514   8.553
 7216POPC   C2B30080  10.250  34.455   8.253
 7216POPC   C3B30081  10.292  34.499   7.953
 7216POPC   C4B30082  10.266  34.494   7.653
 7217POPC   NC330083   9.715   4.340   9.453
 7217POPC   PO430084   9.723   4.300   9.153
 7217POPC   GL130085   9.722   4.280   8.853
 7217POPC   GL230086   9.766   4.435   8.853
 7217POPC   C1A30087   9.707   4.272   8.553
 7217POPC   D2A30088   9.717   4.291   8.253
 7217POPC   C3A30089   9.739   4.284   7.953
 7217POPC   C4A30090   9.701   4.296   7.653
 7217POPC   C1B30091   9.688   4.611   8.553
 7217POPC   C2B30092   9.671   4.559   8.253
 7217POPC   C3B30093   9.673   4.563   7.953
 7217POPC   C4B30094   9.716   4.581   7.653
 7218POPC   NC330095  20.564  24.454   9.453
 7218POPC   PO430096  20.656  24.495   9.153
 7218POPC   GL130097  20.592  24.458   8.853
 7218POPC   GL230098  20.553  24.643   8.853
 7218POPC   C1A30099  20.602  24.454   8.553
 7218POPC   D2A30100  20.636  24.474   8.253
 7218POPC   C3A30101  20.568  24.466   7.953
 7218POPC   C4A30102  20.626  24.524   7.653
 7218POPC   C1B30103  20.507  24.733   8.553
 7218POPC   C2B30104  20.571  24.743   8.253
 7218POPC   C3B30105  20.565  24.711   7.953
 7218POPC   C4B30106  20.561  24.684   7.653
 7219POPC   NC330107  41.557  14.374   9.453
 7219POPC   PO430108  41.592  14.440   9.153
 7219POPC   GL130109  41.599  14.365   8.853
 7219POPC   GL230110  41.431  14.375   8.853
 7219POPC   C1A30111  41.550  14.415   8.553
 7219POPC   D2A30112  41.566  14.384   8.253
 7219POPC   C3A30113  41.566  14.434   7.953
 7219POPC   C4A30114  41.604  14.398   7.653
 7219POPC   C1B30115  41.390  14.243   8.553
 7219POPC   C2B30116  41.348  14.242   8.253
 7219POPC   C3B30117  41.371  14.237   7.953
 7219POPC   C4B30118  41.354  14.313   7.653
 7220POPC   NC330119   1.942  12.817   9.453
 7220POPC   PO430120   1.962  12.888   9.153
 7220POPC   GL130121   2.014  12.892   8.853
 7220POPC   GL230122   1.864  12.894   8.853
 7220POPC   C1A30123   2.036  12.828   8.553
 7220POPC   D2A30124   2.014  12.804   8.253
 7220POPC   C3A30125   2.035  12.889   7.953
 7220POPC   C4A30126   1.950  12.883   7.653
 7220POPC   C1B30127   1.743  12.888   8.553
 7220POPC   C2B30128   1.768  12.871   8.253
 7220POPC   C3B30129   1.714  12.931   7.953
 7220POPC   C4B30130   1.780  12.856   7.653
 7221POPC   NC330131  29.122   6.658   9.453
 7221POPC   PO430132  29.140   6.647   9.153
 7221POPC   GL130133  29.123   6.614   8.853
 7221POPC   GL230134  29.032   6.751   8.853
 7221POPC   C1A30135  29.154   6.638   8.553
 7221POPC   D2A30136  29.103   6.681   8.253
 7221POPC   C3A30137  29.144   6.671   7.953
 7221POPC   C4A30138  29.129   6.686   7.653
 7221POPC   C1B30139  28.939   6.779   8.553
 7221POPC   C2B30140  28.946   6.818   8.253
 7221POPC   C3B30141  28.881   6.767   7.953
 7221POPC   C4B30142  28.916   6.795   7.653
 7222POPC   NC330143  18.269   1.195   9.453
 7222POPC   PO430144  18.322   1.168   9.153
 7222POPC   GL130145  18.247   1.218   8.853
 7222POPC   GL230146  18.255   1.096   8.853
 7222POPC   C1A30147  18.311   1.207   8.553
 7222POPC   D2A30148  18.273   1.214   8.253
 7222POPC   C3A30149  18.301   1.200   7.953
 7222POPC   C4A30150  18.260   1.204   7.653
 7222POPC   C1B30151  18.368   0.957   8.553
 7222POPC   C2B30152  18.326   0.978   8.253
 7222POPC   C3B30153  18.278   0.979   7.953
 7222POPC   C4B30154  18.364   1.015   7.653
 7223POPC   NC330155  22.965  16.738   9.453
 7223POPC   PO430156  22.936  16.697   9.153
 7223POPC   GL130157  22.918  16.696   8.853
 7223POPC   GL230158  23.020  16.852   8.853
 7223POPC   C1A30159  22.975  16.701   8.553
 7223POPC   D2A30160  22.909  16.691   8.253
 7223POPC   C3A30161  22.937  16.698   7.953
 7223POPC   C4A30162  22.936  16.728   7.653
 7223POPC   C1B30163  23.078  16.933   8.553
 7223POPC   C2B30164  23.022  16.978   8.253
 7223POPC   C3B30165  23.046  16.957   7.953
 7223POPC   C4B30166  23.011  16.979   7.653
 7224POPC   NC330167  36.866  19.083   9.453
 7224POPC   PO430168  36.945  19.013   9.153
 7224POPC   GL130169  36.891  19.039   8.853
 7224POPC   GL230170  37.066  19.034   8.853
 7224POPC   C1A30171  36.906  19.026   8.553
 7224POPC   D2A30172  36.938  19.090   8.253
 7224POPC   C3A30173  36.875  19.085   7.953
 7224POPC   C4A30174  36.881  19.036   7.653
 7224POPC   C1B30175  37.097  18.964   8.553
 7224POPC   C2B30176  37.095  18.912   8.253
 7224POPC   C3B30177  37.174  18.918   7.953
 7224POPC   C4B30178  37.165  18.973   7.653
 7225POPC   NC330179   1.247  13.581   9.453
 7225POPC   PO430180   1.201  13.618   9.153
 7225POPC   GL130181   1.180  13.663   8.853
 7225POPC   GL230182   1.379  13.674   8.853
 7225POPC   C1A30183   1.238  13.625   8.553
 7225POPC   D2A30184   1.230  13.585   8.253
 7225POPC   C3A30185   1.164  13.672   7.953
 7225POPC   C4A30186   1.165  13.661   7.653
 7225POPC   C1B30187   1.410  13.740   8.553
 7225POPC   C2B30188   1.465  13.731   8.253
 7225POPC   C3B30189   1.496  13.668   7.953
 7225POPC   C4B30190   1.446  13.688   7.653
 7226POPC   NC330191  21.414   0.422   9.453
 7226POPC   PO430192  21.428   0.486   9.153
 7226POPC   GL130193  21.379   0.458   8.853
 7226POPC   GL230194  21.266   0.333   8.853
 7226POPC   C1A30195  21.337   0.416   8.553
 7226POPC   D2A30196  21.394   0.488   8.253
 7226POPC   C3A30197  21.417   0.488   7.953
 7226POPC   C4A30198  21.401   0.398   7.653
 7226POPC   C1B30199  21.227   0.286   8.553
 7226POPC   C2B30200  21.160   0.294   8.253
 7226POPC   C3B30201  21.178   0.249   7.953
 7226POPC   C4B30202  21.196   0.311   7.653
 7227POPC   NC330203   2.763  15.934   9.453
 7227POPC   PO430204   2.731  15.918   9.153
 7227POPC   GL130205   2.772  15.984   8.853
 7227POPC   GL230206   2.785  15.862   8.853
 7227POPC   C1A30207   2.756  15.969   8.553
 7227POPC   D2A30208   2.753  15.928   8.253
 7227POPC   C3A30209   2.760  15.938   7.953
 7227POPC   C4A30210   2.765  15.982   7.653
 7227POPC   C1B30211   2.865  15.668   8.553
 7227POPC   C2B30212   2.840  15.734   8.253
 7227POPC   C3B30213   2.826  15.698   7.953
 7227POPC   C4B30214   2.804  15.755   7.653
 7228POPC   NC330215   5.915  29.154   9.453
 7228POPC   PO430216   5.904  29.147   9.153
 7228POPC   GL130217   5.847  29.154   8.853
 7228POPC   GL230218   5.948  29.135   8.853
 7228POPC   C1A30219   5.857  29.191   8.553
 7228POPC   D2A30220   5.837  29.110   8.253
 7228POPC   C3A30221   5.914  29.119   7.953
 7228POPC   C4A30222   5.883  29.163   7.653
 7228POPC   C1B30223   6.122  29.128   8.553
 7228POPC   C2B30224   6.156  29.106   8.253
 7228POPC   C3B30225   6.145  29.114   7.953
 7228POPC   C4B30226   6.067  29.115   7.653
 7229POPC   NC330227  36.110   9.754   9.453
 7229POPC   PO430228  36.162   9.780   9.153
 7229POPC   GL130229  36.165   9.723   8.853
 7229POPC   GL230230  36.043   9.810   8.853
 7229POPC   C1A30231  36.123   9.767   8.553
 7229POPC   D2A30232  36.103   9.707   8.253
 7229POPC   C3A30233  36.162   9.790   7.953
 7229POPC   C4A30234  36.090   9.725   7.653
 7229POPC   C1B30235  35.939   9.918   8.553
 7229POPC   C2B30236  35.877   9.896   8.253
 7229POPC   C3B30237  35.891   9.872   7.953
 7229POPC   C4B30238  35.967   9.924   7.653
 7230POPC   NC330239  42.293  26.025   9.453
 7230POPC   PO430240  42.306  26.063   9.153
 7230POPC   GL130241  42.364  26.028   8.853
 7230POPC   GL230242  42.275  26.162   8.853
 7230POPC   C1A30243  42.331  26.024   8.553
 7230POPC   D2A30244  42.337  26.085   8.253
 7230POPC   C3A30245  42.329  26.042   7.953
 7230POPC   C4A30246  42.335  26.089   7.653
 7230POPC   C1B30247  42.303  26.253   8.553
 7230POPC   C2B30248  42.305  26.272   8.253
 7230POPC   C3B30249  42.244  26.232   7.953
 7230POPC   C4B30250  42.293  26.246   7.653
 7231POPC   NC330251   7.458  39.276   9.453
 7231POPC   PO430252   7.461  39.232   9.153
 7231POPC   GL130253   7.406  39.193   8.853
 7231POPC   GL230254   7.509  39.367   8.853
 7231POPC   C1A30255   7.416  39.206   8.553
 7231POPC   D2A30256   7.460  39.222   8.253
 7231POPC   C3A30257   7.393  39.182   7.953
 7231POPC   C4A30258   7.447  39.253   7.653
 7231POPC   C1B30259   7.576  39.441   8.553
 7231POPC   C2B30260   7.571  39.469   8.253
 7231POPC   C3B30261   7.558  39.450   7.953
 7231POPC   C4B30262   7.549  39.484   7.653
 7232POPC   NC330263  36.915   8.212   9.453
 7232POPC   PO430264  36.895   8.190   9.153
 7232POPC   GL130265  36.906   8.216   8.853
 7232POPC   GL230266  36.811   8.193   8.853
 7232POPC   C1A30267  36.937   8.231   8.553
 7232POPC   D2A30268  36.871   8.222   8.253
 7232POPC   C3A30269  36.930   8.240   7.953
 7232POPC   C4A30270  36.887   8.198   7.653
 7232POPC   C1B30271  36.692   8.241   8.553
 7232POPC   C2B30272  36.645   8.193   8.253
 7232POPC   C3B30273  36.680   8.245   7.953
 7232POPC   C4B30274  36.678   8.267   7.653
 7233POPC   NC330275  33.058  32.241   9.453
 7233POPC   PO430276  33.051  32.212   9.153
 7233POPC   GL130277  33.016  32.297   8.853
 7233POPC   GL230278  33.050  32.174   8.853
 7233POPC   C1A30279  33.016  32.201   8.553
 7233POPC   D2A30280  33.009  32.216   8.253
 7233POPC   C3A30281  33.047  32.212   7.953
 7233POPC   C4A30282  33.056  32.215   7.653
 7233POPC   C1B30283  33.043  31.994   8.553
 7233POPC   C2B30284  33.105  31.991   8.253
 7233POPC   C3B30285  33.039  32.012   7.953
 7233POPC   C4B30286  33.046  32.009   7.653
 7234POPC   NC330287   6.682   5.106   9.453
 7234POPC   PO430288   6.669   5.104   9.153
 7234POPC   GL130289   6.688   5.125   8.853
 7234POPC   GL230290   6.687   5.201   8.853
 7234POPC   C1A30291   6.642   5.062   8.553
 7234POPC   D2A30292   6.607   5.107   8.253
 7234POPC   C3A30293   6.606   5.077   7.953
 7234POPC   C4A30294   6.663   5.045   7.653
 7234POPC   C1B30295   6.616   5.313   8.553
 7234POPC   C2B30296   6.691   5.382   8.253
 7234POPC   C3B30297   6.615   5.337   7.953
 7234POPC   C4B30298   6.666   5.348   7.653
 7235POPC   NC330299   4.293  30.736   9.453
 7235POPC   PO430300   4.337  30.714   9.153
 7235POPC   GL130301   4.268  30.735   8.853
 7235POPC   GL230302   4.295  30.527   8.853
 7235POPC   C1A30303   4.277  30.729   8.553
 7235POPC   D2A30304   4.357  30.660   8.253
 7235POPC   C3A30305   4.329  30.729   7.953
 7235POPC   C4A30306   4.360  30.658   7.653
 7235POPC   C1B30307   4.267  30.436   8.553
 7235POPC   C2B30308   4.298  30.422   8.253
 7235POPC   C3B30309   4.281  30.454   7.953
 7235POPC   C4B30310   4.301  30.496   7.653
 7236POPC   NC330311  25.244  30.744   9.453
 7236POPC   PO430312  25.239  30.743   9.153
 7236POPC   GL130313  25.280  30.729   8.853
 7236POPC   GL230314  25.207  30.816   8.853
 7236POPC   C1A30315  25.297  30.685   8.553
 7236POPC   D2A30316  25.239  30.665   8.253
 7236POPC   C3A30317  25.261  30.741   7.953
 7236POPC   C4A30318  25.264  30.653   7.653
 7236POPC   C1B30319  25.093  30.864   8.553
 7236POPC   C2B30320  25.130  30.902   8.253
 7236POPC   C3B30321  25.094  30.837   7.953
 7236POPC   C4B30322  25.046  30.823   7.653
 7237POPC   NC330323  42.327  33.029   9.453
 7237POPC   PO430324  42.359  33.037   9.153
 7237POPC   GL130325  42.324  33.012   8.853
 7237POPC   GL230326  42.393  32.881   8.853
 7237POPC   C1A30327  42.302  33.056   8.553
 7237POPC   D2A30328  42.324  33.043   8.253
 7237POPC   C3A30329  42.329  33.013   7.953
 7237POPC   C4A30330  42.333  33.037   7.653
 7237POPC   C1B30331  42.496  32.787   8.553
 7237POPC   C2B30332  42.498  32.844   8.253
 7237POPC   C3B30333  42.524  32.817   7.953
 7237POPC   C4B30334  42.528  32.852   7.653
 7238POPC   NC330335  36.863  24.469   9.453
 7238POPC   PO430336  36.909  24.448   9.153
 7238POPC   GL130337  36.926  24.521   8.853
 7238POPC   GL230338  36.999  24.418   8.853
 7238POPC   C1A30339  36.946  24.473   8.553
 7238POPC   D2A30340  36.880  24.454   8.253
 7238POPC   C3A30341  36.941  24.530   7.953
 7238POPC   C4A30342  36.935  24.540   7.653
 7238POPC   C1B30343  37.110  24.432   8.553
 7238POPC   C2B30344  37.121  24.442   8.253
 7238POPC   C3B30345  37.101  24.369   7.953
 7238POPC   C4B30346  37.085  24.393   7.653
 7239POPC   NC330347  35.386  15.134   9.453
 7239POPC   PO430348  35.363  15.192   9.153
 7239POPC   GL130349  35.382  15.199   8.853
 7239POPC   GL230350  35.465  15.172   8.853
 7239POPC   C1A30351  35.377  15.210   8.553
 7239POPC   D2A30352  35.343  15.170   8.253
 7239POPC   C3A30353  35.388  15.157   7.953
 7239POPC   C4A30354  35.303  15.196   7.653
 7239POPC   C1B30355  35.619  15.122   8.553
 7239POPC   C2B30356  35.584  15.140   8.253
 7239POPC   C3B30357  35.593  15.153   7.953
 7239POPC   C4B30358  35.554  15.123   7.653
 7240POPC   NC330359  27.595  43.100   9.453
 7240POPC   PO430360  27.605  43.071   9.153
 7240POPC   GL130361  27.622  43.087   8.853
 7240POPC   GL230362  27.618  43.247   8.853
 7240POPC   C1A30363  27.639  43.106   8.553
 7240POPC   D2A30364  27.601  43.086   8.253
 7240POPC   C3A30365  27.586  43.082   7.953
 7240POPC   C4A30366  27.612  43.137   7.653
 7240POPC   C1B30367  27.643  43.333   8.553
 7240POPC   C2B30368  27.633  43.397   8.253
 7240POPC   C3B30369  27.614  43.317   7.953
 7240POPC   C4B30370  27.657  43.373   7.653
 7241POPC   NC330371  12.073  29.968   9.453
 7241POPC   PO430372  12.109  29.882   9.153
 7241POPC   GL130373  12.107  29.968   8.853
 7241POPC   GL230374  11.995  29.838   8.853
 7241POPC   C1A30375  12.099  29.967   8.553
 7241POPC   D2A30376  12.102  29.894   8.253
 7241POPC   C3A30377  12.074  29.920   7.953
 7241POPC   C4A30378  12.057  29.917   7.653
 7241POPC   C1B30379  11.851  29.876   8.553
 7241POPC   C2B30380  11.806  29.871   8.253
 7241POPC   C3B30381  11.855  29.815   7.953
 7241POPC   C4B30382  11.822  29.893   7.653
 7242POPC   NC330383  23.697  33.823   9.453
 7242POPC   PO430384  23.722  33.754   9.153
 7242POPC   GL130385  23.746  33.838   8.853
 7242POPC   GL230386  23.567  33.770   8.853
 7242POPC   C1A30387  23.704  33.780   8.553
 7242POPC   D2A30388  23.731  33.797   8.253
 7242POPC   C3A30389  23.709  33.767   7.953
 7242POPC   C4A30390  23.682  33.753   7.653
 7242POPC   C1B30391  23.441  33.764   8.553
 7242POPC   C2B30392  23.481  33.764   8.253
 7242POPC   C3B30393  23.507  33.771   7.953
 7242POPC   C4B30394  23.440  33.752   7.653
 7243POPC   NC330395  20.627  17.481   9.453
 7243POPC   PO430396  20.586  17.535   9.153
 7243POPC   GL130397  20.565  17.505   8.853
 7243POPC   GL230398  20.688  17.515   8.853
 7243POPC   C1A30399  20.633  17.528   8.553
 7243POPC   D2A30400  20.591  17.546   8.253
 7243POPC   C3A30401  20.623  17.528   7.953
 7243POPC   C4A30402  20.587  17.504   7.653
 7243POPC   C1B30403  20.841  17.458   8.553
 7243POPC   C2B30404  20.854  17.485   8.253
 7243POPC   C3B30405  20.866  17.454   7.953
 7243POPC   C4B30406  20.812  17.479   7.653
 7244POPC   NC330407   4.277  41.576   9.453
 7244POPC   PO430408   4.276  41.588   9.153
 7244POPC   GL130409   4.358  41.576   8.853
 7244POPC   GL230410   4.424  41.710   8.853
 7244POPC   C1A30411   4.282  41.594   8.553
 7244POPC   D2A30412   4.308  41.568   8.253
 7244POPC   C3A30413   4.338  41.557   7.953
 7244POPC   C4A30414   4.304  41.577   7.653
 7244POPC   C1B30415   4.433  41.815   8.553
 7244POPC   C2B30416   4.460  41.766   8.253
 7244POPC   C3B30417   4.474  41.769   7.953
 7244POPC   C4B30418   4.453  41.813   7.653
 7245POPC   NC330419  22.211  34.538   9.453
 7245POPC   PO430420  22.195  34.595   9.153
 7245POPC   GL130421  22.170  34.571   8.853
 7245POPC   GL230422  22.254  34.576   8.853
 7245POPC   C1A30423  22.194  34.585   8.553
 7245POPC   D2A30424  22.201  34.526   8.253
 7245POPC   C3A30425  22.206  34.576   7.953
 7245POPC   C4A30426  22.124  34.600   7.653
 7245POPC   C1B30427  22.400  34.669   8.553
 7245POPC   C2B30428  22.357  34.644   8.253
 7245POPC   C3B30429  22.371  34.708   7.953
 7245POPC   C4B30430  22.370  34.705   7.653
 7246POPC   NC330431  23.715  31.473   9.453
 7246POPC   PO430432  23.689  31.436   9.153
 7246POPC   GL130433  23.715  31.473   8.853
 7246POPC   GL230434  23.661  31.591   8.853
 7246POPC   C1A30435  23.675  31.510   8.553
 7246POPC   D2A30436  23.701  31.453   8.253
 7246POPC   C3A30437  23.725  31.468   7.953
 7246POPC   C4A30438  23.688  31.481   7.653
 7246POPC   C1B30439  23.567  31.687   8.553
 7246POPC   C2B30440  23.557  31.625   8.253
 7246POPC   C3B30441  23.592  31.674   7.953
 7246POPC   C4B30442  23.595  31.666   7.653
 7247POPC   NC330443  40.804   5.833   9.453
 7247POPC   PO430444  40.816   5.824   9.153
 7247POPC   GL130445  40.733   5.851   8.853
 7247POPC   GL230446  40.884   5.812   8.853
 7247POPC   C1A30447  40.819   5.827   8.553
 7247POPC   D2A30448  40.757   5.883   8.253
 7247POPC   C3A30449  40.733   5.836   7.953
 7247POPC   C4A30450  40.813   5.880   7.653
 7247POPC   C1B30451  40.964   5.713   8.553
 7247POPC   C2B30452  40.959   5.730   8.253
 7247POPC   C3B30453  40.953   5.747   7.953
 7247POPC   C4B30454  40.990   5.757   7.653
 7248POPC   NC330455  37.714  31.460   9.453
 7248POPC   PO430456  37.668  31.436   9.153
 7248POPC   GL130457  37.660  31.464   8.853
 7248POPC   GL230458  37.783  31.577   8.853
 7248POPC   C1A30459  37.708  31.472   8.553
 7248POPC   D2A30460  37.696  31.426   8.253
 7248POPC   C3A30461  37.656  31.449   7.953
 7248POPC   C4A30462  37.637  31.505   7.653
 7248POPC   C1B30463  37.832  31.629   8.553
 7248POPC   C2B30464  37.857  31.647   8.253
 7248POPC   C3B30465  37.817  31.631   7.953
 7248POPC   C4B30466  37.849  31.663   7.653
 7249POPC   NC330467  24.534  15.917   9.453
 7249POPC   PO430468  24.473  15.943   9.153
 7249POPC   GL130469  24.465  15.922   8.853
 7249POPC   GL230470  24.561  16.033   8.853
 7249POPC   C1A30471  24.453  15.942   8.553
 7249POPC   D2A30472  24.504  15.951   8.253
 7249POPC   C3A30473  24.449  15.978   7.953
 7249POPC   C4A30474  24.445  15.986   7.653
 7249POPC   C1B30475  24.643  16.181   8.553
 7249POPC   C2B30476  24.613  16.182   8.253
 7249POPC   C3B30477  24.593  16.165   7.953
 7249POPC   C4B30478  24.640  16.190   7.653
 7250POPC   NC330479  11.345  44.696   9.453
 7250POPC   PO430480  11.333  44.614   9.153
 7250POPC   GL130481  11.265  44.688   8.853
 7250POPC   GL230482  11.377  44.495   8.853
 7250POPC   C1A30483  11.322  44.676   8.553
 7250POPC   D2A30484  11.323  44.664   8.253
 7250POPC   C3A30485  11.319  44.691   7.953
 7250POPC   C4A30486  11.312  44.687   7.653
 7250POPC   C1B30487  11.365  44.469   8.553
 7250POPC   C2B30488  11.323  44.436   8.253
 7250POPC   C3B30489  11.358  44.432   7.953
 7250POPC   C4B30490  11.381  44.377   7.653
 7251POPC   NC330491   1.994  26.081   9.453
 7251POPC   PO430492   1.995  26.046   9.153
 7251POPC   GL130493   2.038  26.030   8.853
 7251POPC   GL230494   1.833  26.034   8.853
 7251POPC   C1A30495   1.997  25.993   8.553
 7251POPC   D2A30496   1.942  26.000   8.253
 7251POPC   C3A30497   2.031  26.084   7.953
 7251POPC   C4A30498   2.027  26.091   7.653
 7251POPC   C1B30499   1.779  26.108   8.553
 7251POPC   C2B30500   1.791  26.083   8.253
 7251POPC   C3B30501   1.791  26.108   7.953
 7251POPC   C4B30502   1.759  26.069   7.653
 7252POPC   NC330503   1.223  19.036   9.453
 7252POPC   PO430504   1.171  19.052   9.153
 7252POPC   GL130505   1.194  19.107   8.853
 7252POPC   GL230506   1.257  18.913   8.853
 7252POPC   C1A30507   1.175  19.026   8.553
 7252POPC   D2A30508   1.185  19.106   8.253
 7252POPC   C3A30509   1.182  19.010   7.953
 7252POPC   C4A30510   1.182  19.081   7.653
 7252POPC   C1B30511   1.280  18.830   8.553
 7252POPC   C2B30512   1.296  18.871   8.253
 7252POPC   C3B30513   1.351  18.809   7.953
 7252POPC   C4B30514   1.358  18.861   7.653
 7253POPC   NC330515  39.975  36.922   9.453
 7253POPC   PO430516  40.003  36.937   9.153
 7253POPC   GL130517  40.000  36.928   8.853
 7253POPC   GL230518  40.025  37.049   8.853
 7253POPC   C1A30519  40.005  36.862   8.553
 7253POPC   D2A30520  40.010  36.931   8.253
 7253POPC   C3A30521  40.009  36.878   7.953
 7253POPC   C4A30522  39.962  36.928   7.653
 7253POPC   C1B30523  39.969  37.185   8.553
 7253POPC   C2B30524  40.003  37.114   8.253
 7253POPC   C3B30525  39.959  37.176   7.953
 7253POPC   C4B30526  39.983  37.166   7.653
 7254POPC   NC330527   4.275  21.386   9.453
 7254POPC   PO430528   4.346  21.422   9.153
 7254POPC   GL130529   4.341  21.434   8.853
 7254POPC   GL230530   4.471  21.353   8.853
 7254POPC   C1A30531   4.284  21.384   8.553
 7254POPC   D2A30532   4.306  21.387   8.253
 7254POPC   C3A30533   4.288  21.344   7.953
 7254POPC   C4A30534   4.342  21.434   7.653
 7254POPC   C1B30535   4.615  21.381   8.553
 7254POPC   C2B30536   4.593  21.371   8.253
 7254POPC   C3B30537   4.575  21.437   7.953
 7254POPC   C4B30538   4.554  21.401   7.653
 7255POPC   NC330539  28.378  17.504   9.453
 7255POPC   PO430540  28.377  17.538   9.153
 7255POPC   GL130541  28.343  17.463   8.853
 7255POPC   GL230542  28.253  17.493   8.853
 7255POPC   C1A30543  28.324  17.473   8.553
 7255POPC   D2A30544  28.335  17.486   8.253
 7255POPC   C3A30545  28.334  17.464   7.953
 7255POPC   C4A30546  28.358  17.528   7.653
 7255POPC   C1B30547  28.079  17.421   8.553
 7255POPC   C2B30548  28.155  17.484   8.253
 7255POPC   C3B30549  28.127  17.450   7.953
 7255POPC   C4B30550  28.083  17.453   7.653
 7256POPC   NC330551  14.413  22.130   9.453
 7256POPC   PO430552  14.394  22.152   9.153
 7256POPC   GL130553  14.374  22.115   8.853
 7256POPC   GL230554  14.519  22.134   8.853
 7256POPC   C1A30555  14.387  22.159   8.553
 7256POPC   D2A30556  14.425  22.165   8.253
 7256POPC   C3A30557  14.368  22.185   7.953
 7256POPC   C4A30558  14.452  22.173   7.653
 7256POPC   C1B30559  14.700  22.207   8.553
 7256POPC   C2B30560  14.615  22.142   8.253
 7256POPC   C3B30561  14.606  22.161   7.953
 7256POPC   C4B30562  14.629  22.180   7.653
 7257POPC   NC330563  29.147  30.680   9.453
 7257POPC   PO430564  29.099  30.653   9.153
 7257POPC   GL130565  29.116  30.654   8.853
 7257POPC   GL230566  29.173  30.589   8.853
 7257POPC   C1A30567  29.161  30.706   8.553
 7257POPC   D2A30568  29.124  30.717   8.253
 7257POPC   C3A30569  29.177  30.657   7.953
 7257POPC   C4A30570  29.127  30.685   7.653
 7257POPC   C1B30571  29.094  30.480   8.553
 7257POPC   C2B30572  29.104  30.428   8.253
 7257POPC   C3B30573  29.089  30.463   7.953
 7257POPC   C4B30574  29.108  30.492   7.653
 7258POPC   NC330575  36.102  16.701   9.453
 7258POPC   PO430576  36.104  16.692   9.153
 7258POPC   GL130577  36.088  16.773   8.853
 7258POPC   GL230578  36.240  16.597   8.853
 7258POPC   C1A30579  36.078  16.758   8.553
 7258POPC   D2A30580  36.086  16.731   8.253
 7258POPC   C3A30581  36.140  16.753   7.953
 7258POPC   C4A30582  36.128  16.741   7.653
 7258POPC   C1B30583  36.347  16.512   8.553
 7258POPC   C2B30584  36.307  16.544   8.253
 7258POPC   C3B30585  36.357  16.591   7.953
 7258POPC   C4B30586  36.335  16.602   7.653
 7259POPC   NC330587  36.178  23.683   9.453
 7259POPC   PO430588  36.173  23.710   9.153
 7259POPC   GL130589  36.152  23.711   8.853
 7259POPC   GL230590  35.978  23.614   8.853
 7259POPC   C1A30591  36.129  23.701   8.553
 7259POPC   D2A30592  36.163  23.698   8.253
 7259POPC   C3A30593  36.129  23.667   7.953
 7259POPC   C4A30594  36.140  23.763   7.653
 7259POPC   C1B30595  35.886  23.541   8.553
 7259POPC   C2B30596  35.928  23.552   8.253
 7259POPC   C3B30597  35.918  23.628   7.953
 7259POPC   C4B30598  35.922  23.536   7.653
 7260POPC   NC330599  43.080  33.789   9.453
 7260POPC   PO430600  43.130  33.837   9.153
 7260POPC   GL130601  43.101  33.761   8.853
 7260POPC   GL230602  43.153  33.690   8.853
 7260POPC   C1A30603  43.134  33.784   8.553
 7260POPC   D2A30604  43.082  33.757   8.253
 7260POPC   C3A30605  43.156  33.826   7.953
 7260POPC   C4A30606  43.119  33.844   7.653
 7260POPC   C1B30607  43.129  33.520   8.553
 7260POPC   C2B30608  43.163  33.591   8.253
 7260POPC   C3B30609  43.166  33.589   7.953
 7260POPC   C4B30610  43.113  33.513   7.653
 7261POPC   NC330611   0.437   6.659   9.453
 7261POPC   PO430612   0.474   6.647   9.153
 7261POPC   GL130613   0.414   6.654   8.853
 7261POPC   GL230614   0.294   6.615   8.853
 7261POPC   C1A30615   0.481   6.634   8.553
 7261POPC   D2A30616   0.423   6.644   8.253
 7261POPC   C3A30617   0.473   6.608   7.953
 7261POPC   C4A30618   0.425   6.624   7.653
 7261POPC   C1B30619   0.201   6.601   8.553
 7261POPC   C2B30620   0.196   6.622   8.253
 7261POPC   C3B30621   0.213   6.583   7.953
 7261POPC   C4B30622   0.177   6.618   7.653
 7262POPC   NC330623  29.913  15.143   9.453
 7262POPC   PO430624  29.876  15.133   9.153
 7262POPC   GL130625  29.875  15.156   8.853
 7262POPC   GL230626  29.938  15.315   8.853
 7262POPC   C1A30627  29.912  15.186   8.553
 7262POPC   D2A30628  29.878  15.212   8.253
 7262POPC   C3A30629  29.909  15.151   7.953
 7262POPC   C4A30630  29.896  15.203   7.653
 7262POPC   C1B30631  29.979  15.396   8.553
 7262POPC   C2B30632  29.945  15.407   8.253
 7262POPC   C3B30633  30.004  15.402   7.953
 7262POPC   C4B30634  29.971  15.398   7.653
 7263POPC   NC330635   5.110  19.065   9.453
 7263POPC   PO430636   5.083  19.097   9.153
 7263POPC   GL130637   5.069  19.042   8.853
 7263POPC   GL230638   4.921  18.997   8.853
 7263POPC   C1A30639   5.141  19.052   8.553
 7263POPC   D2A30640   5.049  19.101   8.253
 7263POPC   C3A30641   5.094  19.057   7.953
 7263POPC   C4A30642   5.129  19.038   7.653
 7263POPC   C1B30643   4.873  19.049   8.553
 7263POPC   C2B30644   4.866  19.044   8.253
 7263POPC   C3B30645   4.877  19.032   7.953
 7263POPC   C4B30646   4.852  19.054   7.653
 7264POPC   NC330647  42.290  16.706   9.453
 7264POPC   PO430648  42.365  16.717   9.153
 7264POPC   GL130649  42.379  16.777   8.853
 7264POPC   GL230650  42.242  16.804   8.853
 7264POPC   C1A30651  42.363  16.692   8.553
 7264POPC   D2A30652  42.337  16.703   8.253
 7264POPC   C3A30653  42.327  16.740   7.953
 7264POPC   C4A30654  42.303  16.759   7.653
 7264POPC   C1B30655  42.212  16.922   8.553
 7264POPC   C2B30656  42.212  16.902   8.253
 7264POPC   C3B30657  42.177  16.921   7.953
 7264POPC   C4B30658  42.188  16.957   7.653
 7265POPC   NC330659   8.205  19.838   9.453
 7265POPC   PO430660   8.173  19.824   9.153
 7265POPC   GL130661   8.171  19.875   8.853
 7265POPC   GL230662   8.248  19.722   8.853
 7265POPC   C1A30663   8.179  19.851   8.553
 7265POPC   D2A30664   8.212  19.823   8.253
 7265POPC   C3A30665   8.194  19.830   7.953
 7265POPC   C4A30666   8.174  19.792   7.653
 7265POPC   C1B30667   8.290  19.604   8.553
 7265POPC   C2B30668   8.325  19.605   8.253
 7265POPC   C3B30669   8.328  19.559   7.953
 7265POPC   C4B30670   8.242  19.635   7.653
 7266POPC   NC330671  33.819  29.122   9.453
 7266POPC   PO430672  33.835  29.156   9.153
 7266POPC   GL130673  33.779  29.137   8.853
 7266POPC   GL230674  33.765  29.273   8.853
 7266POPC   C1A30675  33.810  29.121   8.553
 7266POPC   D2A30676  33.825  29.138   8.253
 7266POPC   C3A30677  33.778  29.193   7.953
 7266POPC   C4A30678  33.752  29.102   7.653
 7266POPC   C1B30679  33.834  29.368   8.553
 7266POPC   C2B30680  33.791  29.427   8.253
 7266POPC   C3B30681  33.810  29.345   7.953
 7266POPC   C4B30682  33.808  29.409   7.653
 7267POPC   NC330683  37.724   7.386   9.453
 7267POPC   PO430684  37.652   7.462   9.153
 7267POPC   GL130685  37.665   7.423   8.853
 7267POPC   GL230686  37.821   7.363   8.853
 7267POPC   C1A30687  37.641   7.409   8.553
 7267POPC   D2A30688  37.727   7.383   8.253
 7267POPC   C3A30689  37.721   7.408   7.953
 7267POPC   C4A30690  37.712   7.430   7.653
 7267POPC   C1B30691  37.910   7.367   8.553
 7267POPC   C2B30692  37.891   7.418   8.253
 7267POPC   C3B30693  37.943   7.422   7.953
 7267POPC   C4B30694  37.978   7.403   7.653
 7268POPC   NC330695   8.192   5.882   9.453
 7268POPC   PO430696   8.234   5.874   9.153
 7268POPC   GL130697   8.222   5.908   8.853
 7268POPC   GL230698   8.120   5.894   8.853
 7268POPC   C1A30699   8.158   5.826   8.553
 7268POPC   D2A30700   8.204   5.841   8.253
 7268POPC   C3A30701   8.160   5.873   7.953
 7268POPC   C4A30702   8.184   5.856   7.653
 7268POPC   C1B30703   7.938   5.968   8.553
 7268POPC   C2B30704   7.949   5.962   8.253
 7268POPC   C3B30705   8.008   5.974   7.953
 7268POPC   C4B30706   7.990   5.923   7.653
 7269POPC   NC330707   3.556  15.192   9.453
 7269POPC   PO430708   3.523  15.223   9.153
 7269POPC   GL130709   3.512  15.168   8.853
 7269POPC   GL230710   3.554  15.038   8.853
 7269POPC   C1A30711   3.585  15.145   8.553
 7269POPC   D2A30712   3.556  15.168   8.253
 7269POPC   C3A30713   3.549  15.147   7.953
 7269POPC   C4A30714   3.502  15.185   7.653
 7269POPC   C1B30715   3.637  14.960   8.553
 7269POPC   C2B30716   3.604  14.946   8.253
 7269POPC   C3B30717   3.614  14.970   7.953
 7269POPC   C4B30718   3.663  14.933   7.653
 7270POPC   NC330719  19.803  23.678   9.453
 7270POPC   PO430720  19.823  23.714   9.153
 7270POPC   GL130721  19.788  23.737   8.853
 7270POPC   GL230722  19.921  23.826   8.853
 7270POPC   C1A30723  19.819  23.686   8.553
 7270POPC   D2A30724  19.823  23.729   8.253
 7270POPC   C3A30725  19.882  23.760   7.953
 7270POPC   C4A30726  19.834  23.713   7.653
 7270POPC   C1B30727  20.017  23.905   8.553
 7270POPC   C2B30728  19.945  23.941   8.253
 7270POPC   C3B30729  19.970  23.909   7.953
 7270POPC   C4B30730  19.975  23.910   7.653
 7271POPC   NC330731   4.318   0.482   9.453
 7271POPC   PO430732   4.306   0.435   9.153
 7271POPC   GL130733   4.367   0.391   8.853
 7271POPC   GL230734   4.212   0.346   8.853
 7271POPC   C1A30735   4.347   0.434   8.553
 7271POPC   D2A30736   4.342   0.453   8.253
 7271POPC   C3A30737   4.292   0.419   7.953
 7271POPC   C4A30738   4.338   0.399   7.653
 7271POPC   C1B30739   4.085   0.275   8.553
 7271POPC   C2B30740   4.086   0.334   8.253
 7271POPC   C3B30741   4.061   0.331   7.953
 7271POPC   C4B30742   4.061   0.316   7.653
 7272POPC   NC330743  32.231   8.180   9.453
 7272POPC   PO430744  32.207   8.172   9.153
 7272POPC   GL130745  32.212   8.230   8.853
 7272POPC   GL230746  32.159   8.261   8.853
 7272POPC   C1A30747  32.272   8.207   8.553
 7272POPC   D2A30748  32.248   8.213   8.253
 7272POPC   C3A30749  32.290   8.198   7.953
 7272POPC   C4A30750  32.263   8.156   7.653
 7272POPC   C1B30751  32.077   8.370   8.553
 7272POPC   C2B30752  32.162   8.368   8.253
 7272POPC   C3B30753  32.144   8.454   7.953
 7272POPC   C4B30754  32.168   8.427   7.653
 7273POPC   NC330755  36.891  25.238   9.453
 7273POPC   PO430756  36.891  25.275   9.153
 7273POPC   GL130757  36.928  25.282   8.853
 7273POPC   GL230758  37.010  25.244   8.853
 7273POPC   C1A30759  36.929  25.217   8.553
 7273POPC   D2A30760  36.915  25.220   8.253
 7273POPC   C3A30761  36.951  25.269   7.953
 7273POPC   C4A30762  36.894  25.227   7.653
 7273POPC   C1B30763  37.201  25.331   8.553
 7273POPC   C2B30764  37.127  25.311   8.253
 7273POPC   C3B30765  37.122  25.257   7.953
 7273POPC   C4B30766  37.177  25.313   7.653
 7274POPC   NC330767  43.122  18.333   9.453
 7274POPC   PO430768  43.145  18.301   9.153
 7274POPC   GL130769  43.121  18.255   8.853
 7274POPC   GL230770  43.165  18.405   8.853
 7274POPC   C1A30771  43.108  18.251   8.553
 7274POPC   D2A30772  43.112  18.271   8.253
 7274POPC   C3A30773  43.119  18.234   7.953
 7274POPC   C4A30774  43.114  18.278   7.653
 7274POPC   C1B30775  43.171  18.483   8.553
 7274POPC   C2B30776  43.173  18.482   8.253
 7274POPC   C3B30777  43.091  18.516   7.953
 7274POPC   C4B30778  43.135  18.507   7.653
 7275POPC   NC330779  33.004   7.425   9.453
 7275POPC   PO430780  33.039   7.469   9.153
 7275POPC   GL130781  33.069   7.380   8.853
 7275POPC   GL230782  32.938   7.576   8.853
 7275POPC   C1A30783  33.030   7.469   8.553
 7275POPC   D2A30784  33.069   7.413   8.253
 7275POPC   C3A30785  33.034   7.403   7.953
 7275POPC   C4A30786  32.982   7.397   7.653
 7275POPC   C1B30787  32.951   7.659   8.553
 7275POPC   C2B30788  32.927   7.649   8.253
 7275POPC   C3B30789  32.959   7.695   7.953
 7275POPC   C4B30790  32.925   7.681   7.653
 7276POPC   NC330791  15.197  24.464   9.453
 7276POPC   PO430792  15.142  24.535   9.153
 7276POPC   GL130793  15.180  24.497   8.853
 7276POPC   GL230794  15.110  24.607   8.853
 7276POPC   C1A30795  15.204  24.527   8.553
 7276POPC   D2A30796  15.224  24.537   8.253
 7276POPC   C3A30797  15.183  24.508   7.953
 7276POPC   C4A30798  15.193  24.445   7.653
 7276POPC   C1B30799  15.057  24.741   8.553
 7276POPC   C2B30800  15.085  24.730   8.253
 7276POPC   C3B30801  15.047  24.698   7.953
 7276POPC   C4B30802  15.082  24.664   7.653
 7277POPC   NC330803  15.928  26.802   9.453
 7277POPC   PO430804  16.001  26.836   9.153
 7277POPC   GL130805  15.950  26.823   8.853
 7277POPC   GL230806  16.110  26.798   8.853
 7277POPC   C1A30807  15.926  26.864   8.553
 7277POPC   D2A30808  15.993  26.811   8.253
 7277POPC   C3A30809  15.962  26.848   7.953
 7277POPC   C4A30810  15.945  26.774   7.653
 7277POPC   C1B30811  16.182  26.833   8.553
 7277POPC   C2B30812  16.191  26.873   8.253
 7277POPC   C3B30813  16.236  26.833   7.953
 7277POPC   C4B30814  16.244  26.824   7.653
 7278POPC   NC330815  10.558  44.681   9.453
 7278POPC   PO430816  10.501  44.655   9.153
 7278POPC   GL130817  10.527  44.675   8.853
 7278POPC   GL230818  10.477  44.703   8.853
 7278POPC   C1A30819  10.552  44.679   8.553
 7278POPC   D2A30820  10.521  44.615   8.253
 7278POPC   C3A30821  10.531  44.646   7.953
 7278POPC   C4A30822  10.563  44.682   7.653
 7278POPC   C1B30823  10.302  44.891   8.553
 7278POPC   C2B30824  10.308  44.853   8.253
 7278POPC   C3B30825  10.330  44.888   7.953
 7278POPC   C4B30826  10.323  44.805   7.653
 7279POPC   NC330827   7.451  24.507   9.453
 7279POPC   PO430828   7.391  24.465   9.153
 7279POPC   GL130829   7.391  24.520   8.853
 7279POPC   GL230830   7.501  24.563   8.853
 7279POPC   C1A30831   7.439  24.520   8.553
 7279POPC   D2A30832   7.375  24.506   8.253
 7279POPC   C3A30833   7.399  24.531   7.953
 7279POPC   C4A30834   7.373  24.482   7.653
 7279POPC   C1B30835   7.515  24.777   8.553
 7279POPC   C2B30836   7.485  24.750   8.253
 7279POPC   C3B30837   7.479  24.709   7.953
 7279POPC   C4B30838   7.456  24.772   7.653
 7280POPC   NC330839  39.269  23.688   9.453
 7280POPC   PO430840  39.237  23.684   9.153
 7280POPC   GL130841  39.198  23.730   8.853
 7280POPC   GL230842  39.163  23.828   8.853
 7280POPC   C1A30843  39.252  23.714   8.553
 7280POPC   D2A30844  39.202  23.759   8.253
 7280POPC   C3A30845  39.211  23.730   7.953
 7280POPC   C4A30846  39.206  23.729   7.653
 7280POPC   C1B30847  39.159  23.915   8.553
 7280POPC   C2B30848  39.156  23.919   8.253
 7280POPC   C3B30849  39.168  23.931   7.953
 7280POPC   C4B30850  39.093  23.951   7.653
 7281POPC   NC330851  26.037  14.442   9.453
 7281POPC   PO430852  26.045  14.365   9.153
 7281POPC   GL130853  26.006  14.376   8.853
 7281POPC   GL230854  25.938  14.427   8.853
 7281POPC   C1A30855  26.061  14.360   8.553
 7281POPC   D2A30856  26.072  14.432   8.253
 7281POPC   C3A30857  25.993  14.399   7.953
 7281POPC   C4A30858  25.994  14.356   7.653
 7281POPC   C1B30859  25.802  14.539   8.553
 7281POPC   C2B30860  25.804  14.558   8.253
 7281POPC   C3B30861  25.834  14.568   7.953
 7281POPC   C4B30862  25.856  14.515   7.653
 7282POPC   NC330863  36.891  12.103   9.453
 7282POPC   PO430864  36.873  12.088   9.153
 7282POPC   GL130865  36.874  12.093   8.853
 7282POPC   GL230866  37.004  12.043   8.853
 7282POPC   C1A30867  36.862  12.051   8.553
 7282POPC   D2A30868  36.885  12.112   8.253
 7282POPC   C3A30869  36.950  12.110   7.953
 7282POPC   C4A30870  36.905  12.038   7.653
 7282POPC   C1B30871  37.132  12.040   8.553
 7282POPC   C2B30872  37.116  11.992   8.253
 7282POPC   C3B30873  37.108  12.057   7.953
 7282POPC   C4B30874  37.189  12.037   7.653
 7283POPC   NC330875  42.380  28.389   9.453
 7283POPC   PO430876  42.351  28.416   9.153
 7283POPC   GL130877  42.305  28.378   8.853
 7283POPC   GL230878  42.284  28.497   8.853
 7283POPC   C1A30879  42.327  28.411   8.553
 7283POPC   D2A30880  42.332  28.321   8.253
 7283POPC   C3A30881  42.296  28.365   7.953
 7283POPC   C4A30882  42.296  28.329   7.653
 7283POPC   C1B30883  42.197  28.599   8.553
 7283POPC   C2B30884  42.216  28.567   8.253
 7283POPC   C3B30885  42.243  28.609   7.953
 7283POPC   C4B30886  42.214  28.630   7.653
 7284POPC   NC330887  44.632  12.866   9.453
 7284POPC   PO430888  44.657  12.893   9.153
 7284POPC   GL130889  44.645  12.862   8.853
 7284POPC   GL230890  44.621  12.696   8.853
 7284POPC   C1A30891  44.624  12.871   8.553
 7284POPC   D2A30892  44.670  12.821   8.253
 7284POPC   C3A30893  44.679  12.843   7.953
 7284POPC   C4A30894  44.616  12.884   7.653
 7284POPC   C1B30895  44.647  12.625   8.553
 7284POPC   C2B30896  44.563  12.567   8.253
 7284POPC   C3B30897  44.657  12.607   7.953
 7284POPC   C4B30898  44.612  12.651   7.653
 7285POPC   NC330899  43.114  15.175   9.453
 7285POPC   PO430900  43.124  15.194   9.153
 7285POPC   GL130901  43.118  15.139   8.853
 7285POPC   GL230902  43.203  15.061   8.853
 7285POPC   C1A30903  43.097  15.147   8.553
 7285POPC   D2A30904  43.076  15.186   8.253
 7285POPC   C3A30905  43.092  15.185   7.953
 7285POPC   C4A30906  43.110  15.179   7.653
 7285POPC   C1B30907  43.308  15.035   8.553
 7285POPC   C2B30908  43.278  15.022   8.253
 7285POPC   C3B30909  43.326  14.966   7.953
 7285POPC   C4B30910  43.245  14.961   7.653
 7286POPC   NC330911   8.179  38.418   9.453
 7286POPC   PO430912   8.237  38.430   9.153
 7286POPC   GL130913   8.221  38.431   8.853
 7286POPC   GL230914   8.065  38.488   8.853
 7286POPC   C1A30915   8.243  38.456   8.553
 7286POPC   D2A30916   8.171  38.501   8.253
 7286POPC   C3A30917   8.211  38.466   7.953
 7286POPC   C4A30918   8.202  38.483   7.653
 7286POPC   C1B30919   7.948  38.537   8.553
 7286POPC   C2B30920   7.959  38.564   8.253
 7286POPC   C3B30921   7.995  38.632   7.953
 7286POPC   C4B30922   7.999  38.537   7.653
 7287POPC   NC330923  13.630   5.130   9.453
 7287POPC   PO430924  13.579   5.053   9.153
 7287POPC   GL130925  13.616   5.051   8.853
 7287POPC   GL230926  13.774   5.102   8.853
 7287POPC   C1A30927  13.586   5.130   8.553
 7287POPC   D2A30928  13.615   5.122   8.253
 7287POPC   C3A30929  13.633   5.097   7.953
 7287POPC   C4A30930  13.657   5.142   7.653
 7287POPC   C1B30931  13.856   5.228   8.553
 7287POPC   C2B30932  13.820   5.179   8.253
 7287POPC   C3B30933  13.853   5.222   7.953
 7287POPC   C4B30934  13.868   5.179   7.653
 7288POPC   NC330935  29.871  18.233   9.453
 7288POPC   PO430936  29.906  18.296   9.153
 7288POPC   GL130937  29.969  18.320   8.853
 7288POPC   GL230938  29.940  18.426   8.853
 7288POPC   C1A30939  29.952  18.254   8.553
 7288POPC   D2A30940  29.920  18.320   8.253
 7288POPC   C3A30941  29.951  18.256   7.953
 7288POPC   C4A30942  29.943  18.286   7.653
 7288POPC   C1B30943  30.072  18.519   8.553
 7288POPC   C2B30944  30.060  18.488   8.253
 7288POPC   C3B30945  30.076  18.532   7.953
 7288POPC   C4B30946  30.029  18.514   7.653
 7289POPC   NC330947  33.784  15.156   9.453
 7289POPC   PO430948  33.799  15.176   9.153
 7289POPC   GL130949  33.824  15.224   8.853
 7289POPC   GL230950  33.690  15.101   8.853
 7289POPC   C1A30951  33.783  15.150   8.553
 7289POPC   D2A30952  33.813  15.198   8.253
 7289POPC   C3A30953  33.815  15.226   7.953
 7289POPC   C4A30954  33.832  15.179   7.653
 7289POPC   C1B30955  33.660  15.001   8.553
 7289POPC   C2B30956  33.616  15.059   8.253
 7289POPC   C3B30957  33.620  15.065   7.953
 7289POPC   C4B30958  33.613  15.000   7.653
 7290POPC   NC330959  40.809   1.955   9.453
 7290POPC   PO430960  40.734   1.960   9.153
 7290POPC   GL130961  40.759   1.943   8.853
 7290POPC   GL230962  40.784   1.883   8.853
 7290POPC   C1A30963  40.801   1.970   8.553
 7290POPC   D2A30964  40.794   1.953   8.253
 7290POPC   C3A30965  40.754   2.013   7.953
 7290POPC   C4A30966  40.753   1.974   7.653
 7290POPC   C1B30967  40.763   1.768   8.553
 7290POPC   C2B30968  40.694   1.786   8.253
 7290POPC   C3B30969  40.731   1.781   7.953
 7290POPC   C4B30970  40.744   1.750   7.653
 7291POPC   NC330971  17.552  26.853   9.453
 7291POPC   PO430972  17.481  26.778   9.153
 7291POPC   GL130973  17.554  26.833   8.853
 7291POPC   GL230974  17.660  26.826   8.853
 7291POPC   C1A30975  17.506  26.815   8.553
 7291POPC   D2A30976  17.514  26.785   8.253
 7291POPC   C3A30977  17.520  26.783   7.953
 7291POPC   C4A30978  17.502  26.867   7.653
 7291POPC   C1B30979  17.698  26.845   8.553
 7291POPC   C2B30980  17.744  26.856   8.253
 7291POPC   C3B30981  17.699  26.900   7.953
 7291POPC   C4B30982  17.779  26.929   7.653
 7292POPC   NC330983  19.848  37.661   9.453
 7292POPC   PO430984  19.794  37.693   9.153
 7292POPC   GL130985  19.803  37.665   8.853
 7292POPC   GL230986  19.929  37.660   8.853
 7292POPC   C1A30987  19.814  37.648   8.553
 7292POPC   D2A30988  19.802  37.703   8.253
 7292POPC   C3A30989  19.884  37.707   7.953
 7292POPC   C4A30990  19.822  37.688   7.653
 7292POPC   C1B30991  20.086  37.637   8.553
 7292POPC   C2B30992  20.058  37.709   8.253
 7292POPC   C3B30993  20.046  37.705   7.953
 7292POPC   C4B30994  20.113  37.709   7.653
 7293POPC   NC330995  34.547  37.722   9.453
 7293POPC   PO430996  34.548  37.667   9.153
 7293POPC   GL130997  34.600  37.632   8.853
 7293POPC   GL230998  34.616  37.611   8.853
 7293POPC   C1A30999  34.625  37.661   8.553
 7293POPC   D2A31000  34.535  37.706   8.253
 7293POPC   C3A31001  34.564  37.635   7.953
 7293POPC   C4A31002  34.600  37.695   7.653
 7293POPC   C1B31003  34.677  37.439   8.553
 7293POPC   C2B31004  34.763  37.454   8.253
 7293POPC   C3B31005  34.757  37.479   7.953
 7293POPC   C4B31006  34.718  37.490   7.653
 7294POPC   NC331007  18.233  27.546   9.453
 7294POPC   PO431008  18.260  27.595   9.153
 7294POPC   GL131009  18.273  27.631   8.853
 7294POPC   GL231010  18.379  27.689   8.853
 7294POPC   C1A31011  18.268  27.604   8.553
 7294POPC   D2A31012  18.333  27.574   8.253
 7294POPC   C3A31013  18.234  27.600   7.953
 7294POPC   C4A31014  18.238  27.595   7.653
 7294POPC   C1B31015  18.469  27.804   8.553
 7294POPC   C2B31016  18.470  27.768   8.253
 7294POPC   C3B31017  18.454  27.782   7.953
 7294POPC   C4B31018  18.481  27.768   7.653
 7295POPC   NC331019   3.525  29.907   9.453
 7295POPC   PO431020   3.530  29.920   9.153
 7295POPC   GL131021   3.537  29.946   8.853
 7295POPC   GL231022   3.551  29.780   8.853
 7295POPC   C1A31023   3.584  29.965   8.553
 7295POPC   D2A31024   3.504  29.893   8.253
 7295POPC   C3A31025   3.512  29.910   7.953
 7295POPC   C4A31026   3.504  29.884   7.653
 7295POPC   C1B31027   3.641  29.709   8.553
 7295POPC   C2B31028   3.563  29.699   8.253
 7295POPC   C3B31029   3.583  29.658   7.953
 7295POPC   C4B31030   3.568  29.702   7.653
 7296POPC   NC331031   8.242   3.509   9.453
 7296POPC   PO431032   8.157   3.516   9.153
 7296POPC   GL131033   8.223   3.581   8.853
 7296POPC   GL231034   8.273   3.441   8.853
 7296POPC   C1A31035   8.171   3.522   8.553
 7296POPC   D2A31036   8.185   3.505   8.253
 7296POPC   C3A31037   8.246   3.502   7.953
 7296POPC   C4A31038   8.192   3.532   7.653
 7296POPC   C1B31039   8.307   3.360   8.553
 7296POPC   C2B31040   8.276   3.279   8.253
 7296POPC   C3B31041   8.338   3.336   7.953
 7296POPC   C4B31042   8.298   3.281   7.653
 7297POPC   NC331043  33.776   1.969   9.453
 7297POPC   PO431044  33.839   1.966   9.153
 7297POPC   GL131045  33.789   1.942   8.853
 7297POPC   GL231046  33.930   2.042   8.853
 7297POPC   C1A31047  33.848   1.979   8.553
 7297POPC   D2A31048  33.831   1.996   8.253
 7297POPC   C3A31049  33.820   1.998   7.953
 7297POPC   C4A31050  33.824   1.998   7.653
 7297POPC   C1B31051  34.005   2.099   8.553
 7297POPC   C2B31052  33.979   2.158   8.253
 7297POPC   C3B31053  34.033   2.110   7.953
 7297POPC   C4B31054  33.969   2.086   7.653
 7298POPC   NC331055   3.558  14.443   9.453
 7298POPC   PO431056   3.544  14.365   9.153
 7298POPC   GL131057   3.550  14.401   8.853
 7298POPC   GL231058   3.481  14.472   8.853
 7298POPC   C1A31059   3.499  14.357   8.553
 7298POPC   D2A31060   3.528  14.411   8.253
 7298POPC   C3A31061   3.577  14.386   7.953
 7298POPC   C4A31062   3.542  14.420   7.653
 7298POPC   C1B31063   3.311  14.556   8.553
 7298POPC   C2B31064   3.363  14.547   8.253
 7298POPC   C3B31065   3.352  14.527   7.953
 7298POPC   C4B31066   3.358  14.569   7.653
 7299POPC   NC331067  44.704  11.300   9.453
 7299POPC   PO431068  44.661  11.297   9.153
 7299POPC   GL131069  44.678  11.316   8.853
 7299POPC   GL231070  44.505  11.319   8.853
 7299POPC   C1A31071  44.653  11.317   8.553
 7299POPC   D2A31072  44.670  11.285   8.253
 7299POPC   C3A31073  44.673  11.271   7.953
 7299POPC   C4A31074  44.696  11.303   7.653
 7299POPC   C1B31075  44.432  11.397   8.553
 7299POPC   C2B31076  44.393  11.413   8.253
 7299POPC   C3B31077  44.486  11.378   7.953
 7299POPC   C4B31078  44.464  11.423   7.653
 7300POPC   NC331079  27.562  28.351   9.453
 7300POPC   PO431080  27.556  28.335   9.153
 7300POPC   GL131081  27.638  28.374   8.853
 7300POPC   GL231082  27.488  28.277   8.853
 7300POPC   C1A31083  27.626  28.410   8.553
 7300POPC   D2A31084  27.617  28.371   8.253
 7300POPC   C3A31085  27.563  28.385   7.953
 7300POPC   C4A31086  27.624  28.367   7.653
 7300POPC   C1B31087  27.380  28.312   8.553
 7300POPC   C2B31088  27.333  28.241   8.253
 7300POPC   C3B31089  27.409  28.324   7.953
 7300POPC   C4B31090  27.314  28.318   7.653
 7301POPC   NC331091  37.729   6.691   9.453
 7301POPC   PO431092  37.700   6.605   9.153
 7301POPC   GL131093  37.634   6.640   8.853
 7301POPC   GL231094  37.680   6.771   8.853
 7301POPC   C1A31095  37.656   6.630   8.553
 7301POPC   D2A31096  37.671   6.668   8.253
 7301POPC   C3A31097  37.724   6.598   7.953
 7301POPC   C4A31098  37.667   6.668   7.653
 7301POPC   C1B31099  37.815   6.866   8.553
 7301POPC   C2B31100  37.750   6.878   8.253
 7301POPC   C3B31101  37.773   6.845   7.953
 7301POPC   C4B31102  37.789   6.901   7.653
 7302POPC   NC331103  12.869  43.933   9.453
 7302POPC   PO431104  12.884  43.878   9.153
 7302POPC   GL131105  12.888  43.879   8.853
 7302POPC   GL231106  12.713  43.897   8.853
 7302POPC   C1A31107  12.803  43.900   8.553
 7302POPC   D2A31108  12.840  43.914   8.253
 7302POPC   C3A31109  12.852  43.843   7.953
 7302POPC   C4A31110  12.814  43.853   7.653
 7302POPC   C1B31111  12.563  43.944   8.553
 7302POPC   C2B31112  12.614  43.974   8.253
 7302POPC   C3B31113  12.633  43.935   7.953
 7302POPC   C4B31114  12.574  43.947   7.653
 7303POPC   NC331115  22.905  15.907   9.453
 7303POPC   PO431116  22.987  15.933   9.153
 7303POPC   GL131117  22.954  15.942   8.853
 7303POPC   GL231118  22.932  16.089   8.853
 7303POPC   C1A31119  22.970  15.998   8.553
 7303POPC   D2A31120  22.963  15.955   8.253
 7303POPC   C3A31121  22.981  15.977   7.953
 7303POPC   C4A31122  22.909  15.923   7.653
 7303POPC   C1B31123  22.915  16.238   8.553
 7303POPC   C2B31124  22.941  16.195   8.253
 7303POPC   C3B31125  22.895  16.159   7.953
 7303POPC   C4B31126  22.921  16.182   7.653
 7304POPC   NC331127   1.966  20.599   9.453
 7304POPC   PO431128   2.014  20.646   9.153
 7304POPC   GL131129   1.955  20.653   8.853
 7304POPC   GL231130   1.861  20.540   8.853
 7304POPC   C1A31131   2.010  20.623   8.553
 7304POPC   D2A31132   1.988  20.630   8.253
 7304POPC   C3A31133   2.026  20.563   7.953
 7304POPC   C4A31134   2.024  20.632   7.653
 7304POPC   C1B31135   1.820  20.462   8.553
 7304POPC   C2B31136   1.745  20.502   8.253
 7304POPC   C3B31137   1.800  20.427   7.953
 7304POPC   C4B31138   1.826  20.433   7.653
 7305POPC   NC331139  23.672  40.737   9.453
 7305POPC   PO431140  23.709  40.819   9.153
 7305POPC   GL131141  23.697  40.744   8.853
 7305POPC   GL231142  23.640  40.688   8.853
 7305POPC   C1A31143  23.716  40.741   8.553
 7305POPC   D2A31144  23.686  40.780   8.253
 7305POPC   C3A31145  23.724  40.801   7.953
 7305POPC   C4A31146  23.700  40.817   7.653
 7305POPC   C1B31147  23.591  40.562   8.553
 7305POPC   C2B31148  23.598  40.548   8.253
 7305POPC   C3B31149  23.549  40.571   7.953
 7305POPC   C4B31150  23.551  40.515   7.653
 7306POPC   NC331151  13.615  33.044   9.453
 7306POPC   PO431152  13.587  32.998   9.153
 7306POPC   GL131153  13.595  33.054   8.853
 7306POPC   GL231154  13.552  33.101   8.853
 7306POPC   C1A31155  13.623  33.018   8.553
 7306POPC   D2A31156  13.665  33.004   8.253
 7306POPC   C3A31157  13.642  33.012   7.953
 7306POPC   C4A31158  13.614  33.031   7.653
 7306POPC   C1B31159  13.404  33.212   8.553
 7306POPC   C2B31160  13.400  33.204   8.253
 7306POPC   C3B31161  13.414  33.174   7.953
 7306POPC   C4B31162  13.406  33.116   7.653
 7307POPC   NC331163  16.775  29.139   9.453
 7307POPC   PO431164  16.746  29.100   9.153
 7307POPC   GL131165  16.706  29.150   8.853
 7307POPC   GL231166  16.753  29.267   8.853
 7307POPC   C1A31167  16.757  29.160   8.553
 7307POPC   D2A31168  16.762  29.167   8.253
 7307POPC   C3A31169  16.744  29.112   7.953
 7307POPC   C4A31170  16.755  29.118   7.653
 7307POPC   C1B31171  16.781  29.356   8.553
 7307POPC   C2B31172  16.713  29.426   8.253
 7307POPC   C3B31173  16.707  29.374   7.953
 7307POPC   C4B31174  16.714  29.348   7.653
 7308POPC   NC331175  36.875   3.589   9.453
 7308POPC   PO431176  36.874   3.549   9.153
 7308POPC   GL131177  36.854   3.571   8.853
 7308POPC   GL231178  36.932   3.443   8.853
 7308POPC   C1A31179  36.898   3.536   8.553
 7308POPC   D2A31180  36.901   3.569   8.253
 7308POPC   C3A31181  36.909   3.560   7.953
 7308POPC   C4A31182  36.893   3.575   7.653
 7308POPC   C1B31183  36.953   3.272   8.553
 7308POPC   C2B31184  36.968   3.320   8.253
 7308POPC   C3B31185  36.929   3.262   7.953
 7308POPC   C4B31186  36.901   3.309   7.653
 7309POPC   NC331187  15.143   8.153   9.453
 7309POPC   PO431188  15.218   8.235   9.153
 7309POPC   GL131189  15.228   8.187   8.853
 7309POPC   GL231190  15.190   8.298   8.853
 7309POPC   C1A31191  15.227   8.220   8.553
 7309POPC   D2A31192  15.210   8.246   8.253
 7309POPC   C3A31193  15.179   8.197   7.953
 7309POPC   C4A31194  15.137   8.186   7.653
 7309POPC   C1B31195  15.204   8.431   8.553
 7309POPC   C2B31196  15.281   8.489   8.253
 7309POPC   C3B31197  15.285   8.441   7.953
 7309POPC   C4B31198  15.272   8.421   7.653
 7310POPC   NC331199  11.328  13.658   9.453
 7310POPC   PO431200  11.263  13.597   9.153
 7310POPC   GL131201  11.296  13.667   8.853
 7310POPC   GL231202  11.409  13.644   8.853
 7310POPC   C1A31203  11.311  13.602   8.553
 7310POPC   D2A31204  11.274  13.617   8.253
 7310POPC   C3A31205  11.253  13.642   7.953
 7310POPC   C4A31206  11.269  13.619   7.653
 7310POPC   C1B31207  11.529  13.788   8.553
 7310POPC   C2B31208  11.548  13.705   8.253
 7310POPC   C3B31209  11.534  13.716   7.953
 7310POPC   C4B31210  11.494  13.708   7.653
 7311POPC   NC331211  18.256  43.931   9.453
 7311POPC   PO431212  18.294  43.854   9.153
 7311POPC   GL131213  18.331  43.854   8.853
 7311POPC   GL231214  18.336  43.830   8.853
 7311POPC   C1A31215  18.328  43.860   8.553
 7311POPC   D2A31216  18.295  43.840   8.253
 7311POPC   C3A31217  18.330  43.869   7.953
 7311POPC   C4A31218  18.251  43.930   7.653
 7311POPC   C1B31219  18.492  43.682   8.553
 7311POPC   C2B31220  18.472  43.766   8.253
 7311POPC   C3B31221  18.472  43.680   7.953
 7311POPC   C4B31222  18.496  43.672   7.653
 7312POPC   NC331223   1.986   2.762   9.453
 7312POPC   PO431224   1.984   2.806   9.153
 7312POPC   GL131225   2.025   2.802   8.853
 7312POPC   GL231226   1.908   2.845   8.853
 7312POPC   C1A31227   1.997   2.744   8.553
 7312POPC   D2A31228   2.031   2.738   8.253
 7312POPC   C3A31229   1.983   2.766   7.953
 7312POPC   C4A31230   1.969   2.730   7.653
 7312POPC   C1B31231   1.871   3.006   8.553
 7312POPC   C2B31232   1.896   2.972   8.253
 7312POPC   C3B31233   1.839   3.009   7.953
 7312POPC   C4B31234   1.887   2.956   7.653
 7313POPC   NC331235   3.493  44.638   9.453
 7313POPC   PO431236   3.579  44.635   9.153
 7313POPC   GL131237   3.537  44.699   8.853
 7313POPC   GL231238   3.566  44.783   8.853
 7313POPC   C1A31239   3.548  44.682   8.553
 7313POPC   D2A31240   3.524  44.636   8.253
 7313POPC   C3A31241   3.551  44.623   7.953
 7313POPC   C4A31242   3.564  44.664   7.653
 7313POPC   C1B31243   3.695  44.867   8.553
 7313POPC   C2B31244   3.637  44.895   8.253
 7313POPC   C3B31245   3.672  44.880   7.953
 7313POPC   C4B31246   3.612  44.892   7.653
 7314POPC   NC331247   6.597   2.766   9.453
 7314POPC   PO431248   6.595   2.740   9.153
 7314POPC   GL131249   6.656   2.725   8.853
 7314POPC   GL231250   6.515   2.807   8.853
 7314POPC   C1A31251   6.688   2.726   8.553
 7314POPC   D2A31252   6.626   2.788   8.253
 7314POPC   C3A31253   6.614   2.746   7.953
 7314POPC   C4A31254   6.693   2.810   7.653
 7314POPC   C1B31255   6.427   2.942   8.553
 7314POPC   C2B31256   6.471   2.917   8.253
 7314POPC   C3B31257   6.395   2.871   7.953
 7314POPC   C4B31258   6.393   2.866   7.653
 7315POPC   NC331259  35.398   1.248   9.453
 7315POPC   PO431260  35.399   1.164   9.153
 7315POPC   GL131261  35.309   1.177   8.853
 7315POPC   GL231262  35.440   1.156   8.853
 7315POPC   C1A31263  35.365   1.208   8.553
 7315POPC   D2A31264  35.328   1.165   8.253
 7315POPC   C3A31265  35.391   1.253   7.953
 7315POPC   C4A31266  35.343   1.180   7.653
 7315POPC   C1B31267  35.457   1.001   8.553
 7315POPC   C2B31268  35.465   1.005   8.253
 7315POPC   C3B31269  35.464   1.017   7.953
 7315POPC   C4B31270  35.477   0.996   7.653
 7316POPC   NC331271  36.092  29.961   9.453
 7316POPC   PO431272  36.095  29.900   9.153
 7316POPC   GL131273  36.130  29.899   8.853
 7316POPC   GL231274  36.129  29.786   8.853
 7316POPC   C1A31275  36.135  29.922   8.553
 7316POPC   D2A31276  36.117  29.967   8.253
 7316POPC   C3A31277  36.115  29.927   7.953
 7316POPC   C4A31278  36.137  29.932   7.653
 7316POPC   C1B31279  36.097  29.703   8.553
 7316POPC   C2B31280  36.112  29.657   8.253
 7316POPC   C3B31281  36.126  29.663   7.953
 7316POPC   C4B31282  36.141  29.696   7.653
 7317POPC   NC331283  12.830  44.635   9.453
 7317POPC   PO431284  12.886  44.687   9.153
 7317POPC   GL131285  12.844  44.653   8.853
 7317POPC   GL231286  12.862  44.831   8.853
 7317POPC   C1A31287  12.836  44.624   8.553
 7317POPC   D2A31288  12.865  44.696   8.253
 7317POPC   C3A31289  12.899  44.674   7.953
 7317POPC   C4A31290  12.863  44.668   7.653
 7317POPC   C1B31291  12.776  44.863   8.553
 7317POPC   C2B31292  12.760  44.890   8.253
 7317POPC   C3B31293  12.814  44.938   7.953
 7317POPC   C4B31294  12.763  44.855   7.653
 7318POPC   NC331295  11.330  36.918   9.453
 7318POPC   PO431296  11.307  36.883   9.153
 7318POPC   GL131297  11.316  36.946   8.853
 7318POPC   GL231298  11.240  36.989   8.853
 7318POPC   C1A31299  11.313  36.912   8.553
 7318POPC   D2A31300  11.340  36.875   8.253
 7318POPC   C3A31301  11.294  36.946   7.953
 7318POPC   C4A31302  11.332  36.907   7.653
 7318POPC   C1B31303  11.187  37.140   8.553
 7318POPC   C2B31304  11.143  37.116   8.253
 7318POPC   C3B31305  11.198  37.116   7.953
 7318POPC   C4B31306  11.149  37.083   7.653
 7319POPC   NC331307  25.220  12.062   9.453
 7319POPC   PO431308  25.292  12.114   9.153
 7319POPC   GL131309  25.231  12.056   8.853
 7319POPC   GL231310  25.234  11.911   8.853
 7319POPC   C1A31311  25.286  12.102   8.553
 7319POPC   D2A31312  25.233  12.089   8.253
 7319POPC   C3A31313  25.297  12.108   7.953
 7319POPC   C4A31314  25.290  12.092   7.653
 7319POPC   C1B31315  25.284  11.779   8.553
 7319POPC   C2B31316  25.277  11.800   8.253
 7319POPC   C3B31317  25.284  11.791   7.953
 7319POPC   C4B31318  25.293  11.791   7.653
 7320POPC   NC331319  44.692  33.018   9.453
 7320POPC   PO431320  44.679  33.063   9.153
 7320POPC   GL131321  44.706  33.002   8.853
 7320POPC   GL231322  44.529  32.975   8.853
 7320POPC   C1A31323  44.700  32.983   8.553
 7320POPC   D2A31324  44.689  33.015   8.253
 7320POPC   C3A31325  44.619  32.996   7.953
 7320POPC   C4A31326  44.633  33.044   7.653
 7320POPC   C1B31327  44.479  32.916   8.553
 7320POPC   C2B31328  44.449  32.940   8.253
 7320POPC   C3B31329  44.477  32.961   7.953
 7320POPC   C4B31330  44.443  32.958   7.653
 7321POPC   NC331331  44.690  14.449   9.453
 7321POPC   PO431332  44.623  14.413   9.153
 7321POPC   GL131333  44.614  14.419   8.853
 7321POPC   GL231334  44.575  14.420   8.853
 7321POPC   C1A31335  44.634  14.360   8.553
 7321POPC   D2A31336  44.710  14.369   8.253
 7321POPC   C3A31337  44.675  14.450   7.953
 7321POPC   C4A31338  44.679  14.444   7.653
 7321POPC   C1B31339  44.486  14.531   8.553
 7321POPC   C2B31340  44.482  14.521   8.253
 7321POPC   C3B31341  44.449  14.507   7.953
 7321POPC   C4B31342  44.397  14.500   7.653
 7322POPC   NC331343  35.370  17.524   9.453
 7322POPC   PO431344  35.327  17.511   9.153
 7322POPC   GL131345  35.316  17.556   8.853
 7322POPC   GL231346  35.316  17.398   8.853
 7322POPC   C1A31347  35.345  17.483   8.553
 7322POPC   D2A31348  35.315  17.469   8.253
 7322POPC   C3A31349  35.343  17.537   7.953
 7322POPC   C4A31350  35.393  17.481   7.653
 7322POPC   C1B31351  35.174  17.308   8.553
 7322POPC   C2B31352  35.258  17.265   8.253
 7322POPC   C3B31353  35.241  17.316   7.953
 7322POPC   C4B31354  35.191  17.272   7.653
 7323POPC   NC331355   5.116   3.583   9.453
 7323POPC   PO431356   5.045   3.520   9.153
 7323POPC   GL131357   5.123   3.579   8.853
 7323POPC   GL231358   5.125   3.396   8.853
 7323POPC   C1A31359   5.129   3.575   8.553
 7323POPC   D2A31360   5.099   3.583   8.253
 7323POPC   C3A31361   5.070   3.542   7.953
 7323POPC   C4A31362   5.091   3.520   7.653
 7323POPC   C1B31363   5.094   3.259   8.553
 7323POPC   C2B31364   5.070   3.332   8.253
 7323POPC   C3B31365   5.120   3.276   7.953
 7323POPC   C4B31366   5.043   3.322   7.653
 7324POPC   NC331367  24.512  20.629   9.453
 7324POPC   PO431368  24.453  20.656   9.153
 7324POPC   GL131369  24.521  20.657   8.853
 7324POPC   GL231370  24.326  20.647   8.853
 7324POPC   C1A31371  24.442  20.568   8.553
 7324POPC   D2A31372  24.445  20.572   8.253
 7324POPC   C3A31373  24.509  20.568   7.953
 7324POPC   C4A31374  24.499  20.624   7.653
 7324POPC   C1B31375  24.228  20.651   8.553
 7324POPC   C2B31376  24.214  20.650   8.253
 7324POPC   C3B31377  24.203  20.645   7.953
 7324POPC   C4B31378  24.211  20.637   7.653
 7325POPC   NC331379  26.772  15.218   9.453
 7325POPC   PO431380  26.778  15.140   9.153
 7325POPC   GL131381  26.866  15.219   8.853
 7325POPC   GL231382  26.885  15.101   8.853
 7325POPC   C1A31383  26.829  15.154   8.553
 7325POPC   D2A31384  26.852  15.200   8.253
 7325POPC   C3A31385  26.830  15.185   7.953
 7325POPC   C4A31386  26.772  15.141   7.653
 7325POPC   C1B31387  26.859  14.978   8.553
 7325POPC   C2B31388  26.832  14.895   8.253
 7325POPC   C3B31389  26.893  14.932   7.953
 7325POPC   C4B31390  26.906  14.927   7.653
 7326POPC   NC331391   6.675  12.886   9.453
 7326POPC   PO431392   6.685  12.813   9.153
 7326POPC   GL131393   6.640  12.825   8.853
 7326POPC   GL231394   6.758  12.924   8.853
 7326POPC   C1A31395   6.615  12.864   8.553
 7326POPC   D2A31396   6.671  12.856   8.253
 7326POPC   C3A31397   6.641  12.875   7.953
 7326POPC   C4A31398   6.676  12.835   7.653
 7326POPC   C1B31399   6.840  12.948   8.553
 7326POPC   C2B31400   6.840  12.955   8.253
 7326POPC   C3B31401   6.866  13.013   7.953
 7326POPC   C4B31402   6.850  12.955   7.653
 7327POPC   NC331403  37.635  33.838   9.453
 7327POPC   PO431404  37.682  33.832   9.153
 7327POPC   GL131405  37.715  33.827   8.853
 7327POPC   GL231406  37.632  33.641   8.853
 7327POPC   C1A31407  37.696  33.841   8.553
 7327POPC   D2A31408  37.652  33.848   8.253
 7327POPC   C3A31409  37.703  33.806   7.953
 7327POPC   C4A31410  37.648  33.815   7.653
 7327POPC   C1B31411  37.635  33.555   8.553
 7327POPC   C2B31412  37.648  33.564   8.253
 7327POPC   C3B31413  37.669  33.540   7.953
 7327POPC   C4B31414  37.638  33.531   7.653
 7328POPC   NC331415  40.040  29.958   9.453
 7328POPC   PO431416  40.049  29.920   9.153
 7328POPC   GL131417  39.986  29.925   8.853
 7328POPC   GL231418  39.959  29.854   8.853
 7328POPC   C1A31419  40.000  29.881   8.553
 7328POPC   D2A31420  39.990  29.962   8.253
 7328POPC   C3A31421  39.980  29.897   7.953
 7328POPC   C4A31422  40.052  29.957   7.653
 7328POPC   C1B31423  39.899  29.701   8.553
 7328POPC   C2B31424  39.915  29.659   8.253
 7328POPC   C3B31425  39.907  29.654   7.953
 7328POPC   C4B31426  39.897  29.659   7.653
 7329POPC   NC331427  40.793   0.454   9.453
 7329POPC   PO431428  40.800   0.450   9.153
 7329POPC   GL131429  40.750   0.405   8.853
 7329POPC   GL231430  40.868   0.545   8.853
 7329POPC   C1A31431  40.826   0.447   8.553
 7329POPC   D2A31432  40.794   0.444   8.253
 7329POPC   C3A31433  40.822   0.425   7.953
 7329POPC   C4A31434  40.747   0.397   7.653
 7329POPC   C1B31435  40.910   0.687   8.553
 7329POPC   C2B31436  40.853   0.643   8.253
 7329POPC   C3B31437  40.903   0.620   7.953
 7329POPC   C4B31438  40.928   0.677   7.653
 7330POPC   NC331439  21.376  16.702   9.453
 7330POPC   PO431440  21.352  16.771   9.153
 7330POPC   GL131441  21.411  16.764   8.853
 7330POPC   GL231442  21.414  16.847   8.853
 7330POPC   C1A31443  21.341  16.728   8.553
 7330POPC   D2A31444  21.381  16.713   8.253
 7330POPC   C3A31445  21.375  16.688   7.953
 7330POPC   C4A31446  21.381  16.776   7.653
 7330POPC   C1B31447  21.350  16.967   8.553
 7330POPC   C2B31448  21.379  16.962   8.253
 7330POPC   C3B31449  21.338  16.946   7.953
 7330POPC   C4B31450  21.404  17.028   7.653
 7331POPC   NC331451  25.272   0.396   9.453
 7331POPC   PO431452  25.268   0.466   9.153
 7331POPC   GL131453  25.276   0.466   8.853
 7331POPC   GL231454  25.334   0.517   8.853
 7331POPC   C1A31455  25.275   0.398   8.553
 7331POPC   D2A31456  25.228   0.411   8.253
 7331POPC   C3A31457  25.221   0.480   7.953
 7331POPC   C4A31458  25.294   0.439   7.653
 7331POPC   C1B31459  25.461   0.551   8.553
 7331POPC   C2B31460  25.480   0.577   8.253
 7331POPC   C3B31461  25.535   0.544   7.953
 7331POPC   C4B31462  25.469   0.532   7.653
 7332POPC   NC331463  15.181  43.863   9.453
 7332POPC   PO431464  15.208  43.876   9.153
 7332POPC   GL131465  15.209  43.844   8.853
 7332POPC   GL231466  15.149  43.798   8.853
 7332POPC   C1A31467  15.196  43.883   8.553
 7332POPC   D2A31468  15.206  43.916   8.253
 7332POPC   C3A31469  15.227  43.918   7.953
 7332POPC   C4A31470  15.172  43.904   7.653
 7332POPC   C1B31471  15.183  43.681   8.553
 7332POPC   C2B31472  15.198  43.670   8.253
 7332POPC   C3B31473  15.144  43.598   7.953
 7332POPC   C4B31474  15.144  43.682   7.653
 7333POPC   NC331475  29.140   0.472   9.453
 7333POPC   PO431476  29.166   0.442   9.153
 7333POPC   GL131477  29.135   0.407   8.853
 7333POPC   GL231478  29.075   0.531   8.853
 7333POPC   C1A31479  29.148   0.450   8.553
 7333POPC   D2A31480  29.188   0.430   8.253
 7333POPC   C3A31481  29.175   0.453   7.953
 7333POPC   C4A31482  29.147   0.469   7.653
 7333POPC   C1B31483  29.001   0.657   8.553
 7333POPC   C2B31484  29.020   0.662   8.253
 7333POPC   C3B31485  28.935   0.628   7.953
 7333POPC   C4B31486  28.982   0.646   7.653
 7334POPC   NC331487  19.064  33.812   9.453
 7334POPC   PO431488  19.049  33.769   9.153
 7334POPC   GL131489  19.108  33.767   8.853
 7334POPC   GL231490  19.034  33.637   8.853
 7334POPC   C1A31491  19.076  33.838   8.553
 7334POPC   D2A31492  19.088  33.791   8.253
 7334POPC   C3A31493  19.098  33.762   7.953
 7334POPC   C4A31494  19.036  33.812   7.653
 7334POPC   C1B31495  18.941  33.564   8.553
 7334POPC   C2B31496  18.972  33.596   8.253
 7334POPC   C3B31497  18.931  33.558   7.953
 7334POPC   C4B31498  19.003  33.535   7.653
 7335POPC   NC331499   3.574  40.802   9.453
 7335POPC   PO431500   3.556  40.819   9.153
 7335POPC   GL131501   3.533  40.775   8.853
 7335POPC   GL231502   3.660  40.833   8.853
 7335POPC   C1A31503   3.587  40.773   8.553
 7335POPC   D2A31504   3.560  40.826   8.253
 7335POPC   C3A31505   3.576  40.774   7.953
 7335POPC   C4A31506   3.551  40.832   7.653
 7335POPC   C1B31507   3.776  40.836   8.553
 7335POPC   C2B31508   3.798  40.766   8.253
 7335POPC   C3B31509   3.840  40.761   7.953
 7335POPC   C4B31510   3.773  40.829   7.653
 7336POPC   NC331511  19.044  32.289   9.453
 7336POPC   PO431512  19.100  32.223   9.153
 7336POPC   GL131513  19.102  32.274   8.853
 7336POPC   GL231514  19.021  32.360   8.853
 7336POPC   C1A31515  19.012  32.274   8.553
 7336POPC   D2A31516  19.061  32.258   8.253
 7336POPC   C3A31517  19.013  32.234   7.953
 7336POPC   C4A31518  19.027  32.201   7.653
 7336POPC   C1B31519  19.042  32.529   8.553
 7336POPC   C2B31520  19.083  32.509   8.253
 7336POPC   C3B31521  19.042  32.513   7.953
 7336POPC   C4B31522  19.068  32.492   7.653
 7337POPC   NC331523  43.898  39.992   9.453
 7337POPC   PO431524  43.921  40.010   9.153
 7337POPC   GL131525  43.875  39.996   8.853
 7337POPC   GL231526  43.726  40.024   8.853
 7337POPC   C1A31527  43.900  39.979   8.553
 7337POPC   D2A31528  43.927  39.970   8.253
 7337POPC   C3A31529  43.892  39.962   7.953
 7337POPC   C4A31530  43.857  39.999   7.653
 7337POPC   C1B31531  43.608  39.925   8.553
 7337POPC   C2B31532  43.634  39.919   8.253
 7337POPC   C3B31533  43.616  39.987   7.953
 7337POPC   C4B31534  43.690  39.956   7.653
 7338POPC   NC331535  35.344  24.493   9.453
 7338POPC   PO431536  35.369  24.524   9.153
 7338POPC   GL131537  35.319  24.501   8.853
 7338POPC   GL231538  35.435  24.496   8.853
 7338POPC   C1A31539  35.329  24.469   8.553
 7338POPC   D2A31540  35.338  24.479   8.253
 7338POPC   C3A31541  35.391  24.447   7.953
 7338POPC   C4A31542  35.321  24.522   7.653
 7338POPC   C1B31543  35.603  24.596   8.553
 7338POPC   C2B31544  35.548  24.508   8.253
 7338POPC   C3B31545  35.571  24.560   7.953
 7338POPC   C4B31546  35.579  24.523   7.653
 7339POPC   NC331547   0.468  28.350   9.453
 7339POPC   PO431548   0.444  28.405   9.153
 7339POPC   GL131549   0.442  28.360   8.853
 7339POPC   GL231550   0.338  28.218   8.853
 7339POPC   C1A31551   0.454  28.386   8.553
 7339POPC   D2A31552   0.408  28.336   8.253
 7339POPC   C3A31553   0.400  28.324   7.953
 7339POPC   C4A31554   0.416  28.381   7.653
 7339POPC   C1B31555   0.317  28.137   8.553
 7339POPC   C2B31556   0.285  28.112   8.253
 7339POPC   C3B31557   0.353  28.146   7.953
 7339POPC   C4B31558   0.309  28.118   7.653
 7340POPC   NC331559  41.552  21.435   9.453
 7340POPC   PO431560  41.593  21.339   9.153
 7340POPC   GL131561  41.527  21.419   8.853
 7340POPC   GL231562  41.598  21.504   8.853
 7340POPC   C1A31563  41.532  21.425   8.553
 7340POPC   D2A31564  41.518  21.382   8.253
 7340POPC   C3A31565  41.539  21.419   7.953
 7340POPC   C4A31566  41.557  21.372   7.653
 7340POPC   C1B31567  41.626  21.597   8.553
 7340POPC   C2B31568  41.630  21.676   8.253
 7340POPC   C3B31569  41.635  21.644   7.953
 7340POPC   C4B31570  41.603  21.678   7.653
 7341POPC   NC331571  13.641  23.690   9.453
 7341POPC   PO431572  13.650  23.688   9.153
 7341POPC   GL131573  13.585  23.736   8.853
 7341POPC   GL231574  13.467  23.744   8.853
 7341POPC   C1A31575  13.580  23.693   8.553
 7341POPC   D2A31576  13.644  23.696   8.253
 7341POPC   C3A31577  13.674  23.697   7.953
 7341POPC   C4A31578  13.628  23.679   7.653
 7341POPC   C1B31579  13.338  23.741   8.553
 7341POPC   C2B31580  13.348  23.703   8.253
 7341POPC   C3B31581  13.398  23.735   7.953
 7341POPC   C4B31582  13.420  23.712   7.653
 7342POPC   NC331583  22.889  44.681   9.453
 7342POPC   PO431584  22.928  44.683   9.153
 7342POPC   GL131585  22.896  44.625   8.853
 7342POPC   GL231586  23.082  44.716   8.853
 7342POPC   C1A31587  22.912  44.636   8.553
 7342POPC   D2A31588  22.951  44.661   8.253
 7342POPC   C3A31589  22.925  44.671   7.953
 7342POPC   C4A31590  22.956  44.627   7.653
 7342POPC   C1B31591  23.108  44.781   8.553
 7342POPC   C2B31592  23.121  44.863   8.253
 7342POPC   C3B31593  23.104  44.828   7.953
 7342POPC   C4B31594  23.108  44.787   7.653
 7343POPC   NC331595  13.645   3.589   9.453
 7343POPC   PO431596  13.623   3.560   9.153
 7343POPC   GL131597  13.677   3.565   8.853
 7343POPC   GL231598  13.718   3.440   8.853
 7343POPC   C1A31599  13.644   3.577   8.553
 7343POPC   D2A31600  13.641   3.574   8.253
 7343POPC   C3A31601  13.602   3.496   7.953
 7343POPC   C4A31602  13.597   3.536   7.653
 7343POPC   C1B31603  13.818   3.391   8.553
 7343POPC   C2B31604  13.816   3.425   8.253
 7343POPC   C3B31605  13.881   3.448   7.953
 7343POPC   C4B31606  13.828   3.392   7.653
 7344POPC   NC331607   4.356   7.410   9.453
 7344POPC   PO431608   4.340   7.448   9.153
 7344POPC   GL131609   4.308   7.457   8.853
 7344POPC   GL231610   4.217   7.580   8.853
 7344POPC   C1A31611   4.321   7.392   8.553
 7344POPC   D2A31612   4.356   7.422   8.253
 7344POPC   C3A31613   4.365   7.440   7.953
 7344POPC   C4A31614   4.310   7.441   7.653
 7344POPC   C1B31615   4.206   7.647   8.553
 7344POPC   C2B31616   4.255   7.663   8.253
 7344POPC   C3B31617   4.198   7.677   7.953
 7344POPC   C4B31618   4.200   7.646   7.653
 7345POPC   NC331619  19.826  39.971   9.453
 7345POPC   PO431620  19.836  40.013   9.153
 7345POPC   GL131621  19.850  39.964   8.853
 7345POPC   GL231622  19.821  39.914   8.853
 7345POPC   C1A31623  19.859  40.035   8.553
 7345POPC   D2A31624  19.787  39.981   8.253
 7345POPC   C3A31625  19.788  40.045   7.953
 7345POPC   C4A31626  19.785  40.027   7.653
 7345POPC   C1B31627  19.830  39.721   8.553
 7345POPC   C2B31628  19.835  39.768   8.253
 7345POPC   C3B31629  19.852  39.739   7.953
 7345POPC   C4B31630  19.854  39.762   7.653
 7346POPC   NC331631   4.312   2.031   9.453
 7346POPC   PO431632   4.367   2.018   9.153
 7346POPC   GL131633   4.338   2.003   8.853
 7346POPC   GL231634   4.388   2.123   8.853
 7346POPC   C1A31635   4.342   1.984   8.553
 7346POPC   D2A31636   4.278   1.958   8.253
 7346POPC   C3A31637   4.269   1.956   7.953
 7346POPC   C4A31638   4.345   2.026   7.653
 7346POPC   C1B31639   4.416   2.226   8.553
 7346POPC   C2B31640   4.357   2.279   8.253
 7346POPC   C3B31641   4.342   2.255   7.953
 7346POPC   C4B31642   4.377   2.237   7.653
 7347POPC   NC331643  25.253  16.737   9.453
 7347POPC   PO431644  25.314  16.690   9.153
 7347POPC   GL131645  25.255  16.757   8.853
 7347POPC   GL231646  25.191  16.822   8.853
 7347POPC   C1A31647  25.315  16.747   8.553
 7347POPC   D2A31648  25.277  16.763   8.253
 7347POPC   C3A31649  25.305  16.685   7.953
 7347POPC   C4A31650  25.259  16.743   7.653
 7347POPC   C1B31651  25.200  16.985   8.553
 7347POPC   C2B31652  25.130  16.922   8.253
 7347POPC   C3B31653  25.118  16.919   7.953
 7347POPC   C4B31654  25.192  16.927   7.653
 7348POPC   NC331655  23.729   1.250   9.453
 7348POPC   PO431656  23.687   1.232   9.153
 7348POPC   GL131657  23.675   1.196   8.853
 7348POPC   GL231658  23.619   1.263   8.853
 7348POPC   C1A31659  23.743   1.202   8.553
 7348POPC   D2A31660  23.674   1.171   8.253
 7348POPC   C3A31661  23.763   1.207   7.953
 7348POPC   C4A31662  23.669   1.209   7.653
 7348POPC   C1B31663  23.542   1.387   8.553
 7348POPC   C2B31664  23.504   1.373   8.253
 7348POPC   C3B31665  23.580   1.413   7.953
 7348POPC   C4B31666  23.526   1.370   7.653
 7349POPC   NC331667  14.429  43.878   9.453
 7349POPC   PO431668  14.431  43.918   9.153
 7349POPC   GL131669  14.403  43.859   8.853
 7349POPC   GL231670  14.359  43.962   8.853
 7349POPC   C1A31671  14.400  43.892   8.553
 7349POPC   D2A31672  14.407  43.841   8.253
 7349POPC   C3A31673  14.391  43.843   7.953
 7349POPC   C4A31674  14.408  43.866   7.653
 7349POPC   C1B31675  14.386  44.148   8.553
 7349POPC   C2B31676  14.368  44.153   8.253
 7349POPC   C3B31677  14.370  44.083   7.953
 7349POPC   C4B31678  14.340  44.122   7.653
 7350POPC   NC331679  15.988  23.743   9.453
 7350POPC   PO431680  15.969  23.668   9.153
 7350POPC   GL131681  15.931  23.726   8.853
 7350POPC   GL231682  15.861  23.763   8.853
 7350POPC   C1A31683  15.906  23.668   8.553
 7350POPC   D2A31684  15.973  23.720   8.253
 7350POPC   C3A31685  15.973  23.693   7.953
 7350POPC   C4A31686  15.958  23.689   7.653
 7350POPC   C1B31687  15.751  23.710   8.553
 7350POPC   C2B31688  15.742  23.770   8.253
 7350POPC   C3B31689  15.693  23.747   7.953
 7350POPC   C4B31690  15.659  23.735   7.653
 7351POPC   NC331691  37.728  29.917   9.453
 7351POPC   PO431692  37.631  29.894   9.153
 7351POPC   GL131693  37.641  29.882   8.853
 7351POPC   GL231694  37.753  29.820   8.853
 7351POPC   C1A31695  37.648  29.952   8.553
 7351POPC   D2A31696  37.633  29.924   8.253
 7351POPC   C3A31697  37.654  29.961   7.953
 7351POPC   C4A31698  37.652  29.898   7.653
 7351POPC   C1B31699  37.792  29.695   8.553
 7351POPC   C2B31700  37.782  29.642   8.253
 7351POPC   C3B31701  37.739  29.656   7.953
 7351POPC   C4B31702  37.748  29.703   7.653
 7352POPC   NC331703  22.916  41.522   9.453
 7352POPC   PO431704  22.890  41.562   9.153
 7352POPC   GL131705  22.904  41.564   8.853
 7352POPC   GL231706  22.982  41.472   8.853
 7352POPC   C1A31707  22.898  41.551   8.553
 7352POPC   D2A31708  22.975  41.541   8.253
 7352POPC   C3A31709  22.926  41.588   7.953
 7352POPC   C4A31710  22.967  41.560   7.653
 7352POPC   C1B31711  22.975  41.342   8.553
 7352POPC   C2B31712  22.955  41.295   8.253
 7352POPC   C3B31713  22.980  41.326   7.953
 7352POPC   C4B31714  22.989  41.354   7.653
 7353POPC   NC331715  33.755  39.190   9.453
 7353POPC   PO431716  33.762  39.228   9.153
 7353POPC   GL131717  33.775  39.250   8.853
 7353POPC   GL231718  33.741  39.340   8.853
 7353POPC   C1A31719  33.828  39.191   8.553
 7353POPC   D2A31720  33.836  39.239   8.253
 7353POPC   C3A31721  33.763  39.211   7.953
 7353POPC   C4A31722  33.827  39.192   7.653
 7353POPC   C1B31723  33.713  39.466   8.553
 7353POPC   C2B31724  33.624  39.464   8.253
 7353POPC   C3B31725  33.689  39.463   7.953
 7353POPC   C4B31726  33.634  39.458   7.653
 7354POPC   NC331727  33.043  18.255   9.453
 7354POPC   PO431728  33.009  18.247   9.153
 7354POPC   GL131729  32.984  18.309   8.853
 7354POPC   GL231730  32.863  18.224   8.853
 7354POPC   C1A31731  33.022  18.295   8.553
 7354POPC   D2A31732  33.045  18.324   8.253
 7354POPC   C3A31733  33.061  18.259   7.953
 7354POPC   C4A31734  33.022  18.233   7.653
 7354POPC   C1B31735  32.784  18.176   8.553
 7354POPC   C2B31736  32.796  18.188   8.253
 7354POPC   C3B31737  32.807  18.216   7.953
 7354POPC   C4B31738  32.741  18.207   7.653
 7355POPC   NC331739  40.001  29.153   9.453
 7355POPC   PO431740  40.022  29.136   9.153
 7355POPC   GL131741  40.054  29.170   8.853
 7355POPC   GL231742  39.963  29.012   8.853
 7355POPC   C1A31743  40.016  29.185   8.553
 7355POPC   D2A31744  40.043  29.187   8.253
 7355POPC   C3A31745  40.018  29.098   7.953
 7355POPC   C4A31746  39.960  29.130   7.653
 7355POPC   C1B31747  39.841  28.968   8.553
 7355POPC   C2B31748  39.824  28.923   8.253
 7355POPC   C3B31749  39.888  28.986   7.953
 7355POPC   C4B31750  39.800  28.993   7.653
 7356POPC   NC331751  20.584  23.758   9.453
 7356POPC   PO431752  20.561  23.680   9.153
 7356POPC   GL131753  20.591  23.682   8.853
 7356POPC   GL231754  20.768  23.792   8.853
 7356POPC   C1A31755  20.588  23.665   8.553
 7356POPC   D2A31756  20.623  23.692   8.253
 7356POPC   C3A31757  20.617  23.689   7.953
 7356POPC   C4A31758  20.623  23.739   7.653
 7356POPC   C1B31759  20.843  23.763   8.553
 7356POPC   C2B31760  20.858  23.793   8.253
 7356POPC   C3B31761  20.893  23.785   7.953
 7356POPC   C4B31762  20.842  23.815   7.653
 7357POPC   NC331763  17.528  40.829   9.453
 7357POPC   PO431764  17.518  40.781   9.153
 7357POPC   GL131765  17.516  40.802   8.853
 7357POPC   GL231766  17.566  40.707   8.853
 7357POPC   C1A31767  17.513  40.745   8.553
 7357POPC   D2A31768  17.490  40.828   8.253
 7357POPC   C3A31769  17.482  40.821   7.953
 7357POPC   C4A31770  17.480  40.797   7.653
 7357POPC   C1B31771  17.662  40.622   8.553
 7357POPC   C2B31772  17.638  40.566   8.253
 7357POPC   C3B31773  17.663  40.539   7.953
 7357POPC   C4B31774  17.629  40.575   7.653
 7358POPC   NC331775  39.230   1.229   9.453
 7358POPC   PO431776  39.249   1.177   9.153
 7358POPC   GL131777  39.209   1.177   8.853
 7358POPC   GL231778  39.300   1.318   8.853
 7358POPC   C1A31779  39.256   1.195   8.553
 7358POPC   D2A31780  39.250   1.195   8.253
 7358POPC   C3A31781  39.254   1.207   7.953
 7358POPC   C4A31782  39.195   1.248   7.653
 7358POPC   C1B31783  39.345   1.461   8.553
 7358POPC   C2B31784  39.366   1.462   8.253
 7358POPC   C3B31785  39.361   1.465   7.953
 7358POPC   C4B31786  39.378   1.406   7.653
 7359POPC   NC331787   1.954  44.700   9.453
 7359POPC   PO431788   1.946  44.705   9.153
 7359POPC   GL131789   1.985  44.683   8.853
 7359POPC   GL231790   2.161  44.674   8.853
 7359POPC   C1A31791   2.037  44.656   8.553
 7359POPC   D2A31792   1.988  44.671   8.253
 7359POPC   C3A31793   1.962  44.630   7.953
 7359POPC   C4A31794   2.022  44.614   7.653
 7359POPC   C1B31795   2.263  44.633   8.553
 7359POPC   C2B31796   2.241  44.658   8.253
 7359POPC   C3B31797   2.239  44.699   7.953
 7359POPC   C4B31798   2.215  44.641   7.653
 7360POPC   NC331799   5.116  14.365   9.453
 7360POPC   PO431800   5.068  14.386   9.153
 7360POPC   GL131801   5.136  14.438   8.853
 7360POPC   GL231802   5.170  14.282   8.853
 7360POPC   C1A31803   5.062  14.384   8.553
 7360POPC   D2A31804   5.131  14.397   8.253
 7360POPC   C3A31805   5.047  14.365   7.953
 7360POPC   C4A31806   5.132  14.378   7.653
 7360POPC   C1B31807   5.282  14.287   8.553
 7360POPC   C2B31808   5.332  14.294   8.253
 7360POPC   C3B31809   5.291  14.295   7.953
 7360POPC   C4B31810   5.339  14.250   7.653
 7361POPC   NC331811  12.034  15.174   9.453
 7361POPC   PO431812  12.053  15.221   9.153
 7361POPC   GL131813  12.064  15.134   8.853
 7361POPC   GL231814  12.076  15.070   8.853
 7361POPC   C1A31815  12.093  15.163   8.553
 7361POPC   D2A31816  12.090  15.219   8.253
 7361POPC   C3A31817  12.106  15.144   7.953
 7361POPC   C4A31818  12.027  15.225   7.653
 7361POPC   C1B31819  12.097  14.933   8.553
 7361POPC   C2B31820  12.049  14.921   8.253
 7361POPC   C3B31821  12.098  14.937   7.953
 7361POPC   C4B31822  12.096  14.969   7.653
 7362POPC   NC331823  26.778  37.637   9.453
 7362POPC   PO431824  26.768  37.728   9.153
 7362POPC   GL131825  26.786  37.636   8.853
 7362POPC   GL231826  26.712  37.668   8.853
 7362POPC   C1A31827  26.795  37.657   8.553
 7362POPC   D2A31828  26.803  37.638   8.253
 7362POPC   C3A31829  26.849  37.665   7.953
 7362POPC   C4A31830  26.846  37.696   7.653
 7362POPC   C1B31831  26.579  37.596   8.553
 7362POPC   C2B31832  26.564  37.579   8.253
 7362POPC   C3B31833  26.596  37.658   7.953
 7362POPC   C4B31834  26.603  37.633   7.653
 7363POPC   NC331835  22.967  32.984   9.453
 7363POPC   PO431836  22.903  33.042   9.153
 7363POPC   GL131837  22.919  33.038   8.853
 7363POPC   GL231838  23.067  33.068   8.853
 7363POPC   C1A31839  22.951  32.987   8.553
 7363POPC   D2A31840  22.897  33.029   8.253
 7363POPC   C3A31841  22.889  33.041   7.953
 7363POPC   C4A31842  22.924  33.020   7.653
 7363POPC   C1B31843  23.201  33.073   8.553
 7363POPC   C2B31844  23.196  33.120   8.253
 7363POPC   C3B31845  23.210  33.053   7.953
 7363POPC   C4B31846  23.142  33.062   7.653
 7364POPC   NC331847  33.004  19.108   9.453
 7364POPC   PO431848  32.987  19.039   9.153
 7364POPC   GL131849  33.067  19.097   8.853
 7364POPC   GL231850  32.887  19.095   8.853
 7364POPC   C1A31851  33.021  19.045   8.553
 7364POPC   D2A31852  33.058  19.018   8.253
 7364POPC   C3A31853  33.049  19.091   7.953
 7364POPC   C4A31854  33.070  19.038   7.653
 7364POPC   C1B31855  32.753  19.140   8.553
 7364POPC   C2B31856  32.811  19.140   8.253
 7364POPC   C3B31857  32.762  19.149   7.953
 7364POPC   C4B31858  32.826  19.117   7.653
 7365POPC   NC331859   7.386  39.991   9.453
 7365POPC   PO431860   7.428  40.015   9.153
 7365POPC   GL131861   7.387  40.045   8.853
 7365POPC   GL231862   7.396  40.125   8.853
 7365POPC   C1A31863   7.459  39.989   8.553
 7365POPC   D2A31864   7.418  40.013   8.253
 7365POPC   C3A31865   7.408  39.984   7.953
 7365POPC   C4A31866   7.403  39.979   7.653
 7365POPC   C1B31867   7.429  40.265   8.553
 7365POPC   C2B31868   7.463  40.288   8.253
 7365POPC   C3B31869   7.484  40.264   7.953
 7365POPC   C4B31870   7.468  40.289   7.653
 7366POPC   NC331871   8.962   4.326   9.453
 7366POPC   PO431872   8.968   4.326   9.153
 7366POPC   GL131873   8.940   4.363   8.853
 7366POPC   GL231874   9.126   4.365   8.853
 7366POPC   C1A31875   8.993   4.349   8.553
 7366POPC   D2A31876   8.950   4.316   8.253
 7366POPC   C3A31877   8.945   4.325   7.953
 7366POPC   C4A31878   8.943   4.297   7.653
 7366POPC   C1B31879   9.190   4.302   8.553
 7366POPC   C2B31880   9.178   4.329   8.253
 7366POPC   C3B31881   9.201   4.347   7.953
 7366POPC   C4B31882   9.236   4.377   7.653
 7367POPC   NC331883   8.925   3.536   9.453
 7367POPC   PO431884   9.005   3.589   9.153
 7367POPC   GL131885   9.010   3.536   8.853
 7367POPC   GL231886   8.970   3.636   8.853
 7367POPC   C1A31887   8.971   3.509   8.553
 7367POPC   D2A31888   8.923   3.556   8.253
 7367POPC   C3A31889   8.969   3.574   7.953
 7367POPC   C4A31890   8.999   3.566   7.653
 7367POPC   C1B31891   9.038   3.779   8.553
 7367POPC   C2B31892   9.001   3.800   8.253
 7367POPC   C3B31893   8.989   3.835   7.953
 7367POPC   C4B31894   8.989   3.754   7.653
 7368POPC   NC331895  40.771   8.979   9.453
 7368POPC   PO431896  40.811   8.989   9.153
 7368POPC   GL131897  40.777   8.994   8.853
 7368POPC   GL231898  40.776   9.113   8.853
 7368POPC   C1A31899  40.751   8.979   8.553
 7368POPC   D2A31900  40.735   8.949   8.253
 7368POPC   C3A31901  40.807   8.961   7.953
 7368POPC   C4A31902  40.796   8.966   7.653
 7368POPC   C1B31903  40.818   9.199   8.553
 7368POPC   C2B31904  40.845   9.201   8.253
 7368POPC   C3B31905  40.787   9.261   7.953
 7368POPC   C4B31906  40.827   9.260   7.653
 7369POPC   NC331907  18.267   5.070   9.453
 7369POPC   PO431908  18.248   5.053   9.153
 7369POPC   GL131909  18.274   5.073   8.853
 7369POPC   GL231910  18.190   5.073   8.853
 7369POPC   C1A31911  18.320   5.076   8.553
 7369POPC   D2A31912  18.295   5.052   8.253
 7369POPC   C3A31913  18.260   5.092   7.953
 7369POPC   C4A31914  18.247   5.050   7.653
 7369POPC   C1B31915  18.030   5.114   8.553
 7369POPC   C2B31916  18.055   5.061   8.253
 7369POPC   C3B31917  18.068   5.067   7.953
 7369POPC   C4B31918  18.050   5.068   7.653
 7370POPC   NC331919  19.035  31.465   9.453
 7370POPC   PO431920  19.104  31.498   9.153
 7370POPC   GL131921  19.018  31.467   8.853
 7370POPC   GL231922  19.172  31.564   8.853
 7370POPC   C1A31923  19.049  31.492   8.553
 7370POPC   D2A31924  19.044  31.505   8.253
 7370POPC   C3A31925  19.012  31.470   7.953
 7370POPC   C4A31926  19.054  31.491   7.653
 7370POPC   C1B31927  19.252  31.649   8.553
 7370POPC   C2B31928  19.221  31.635   8.253
 7370POPC   C3B31929  19.254  31.611   7.953
 7370POPC   C4B31930  19.238  31.593   7.653
 7371POPC   NC331931  36.918  19.809   9.453
 7371POPC   PO431932  36.904  19.838   9.153
 7371POPC   GL131933  36.879  19.811   8.853
 7371POPC   GL231934  36.922  19.741   8.853
 7371POPC   C1A31935  36.898  19.800   8.553
 7371POPC   D2A31936  36.918  19.853   8.253
 7371POPC   C3A31937  36.881  19.820   7.953
 7371POPC   C4A31938  36.916  19.866   7.653
 7371POPC   C1B31939  37.068  19.612   8.553
 7371POPC   C2B31940  37.003  19.644   8.253
 7371POPC   C3B31941  37.007  19.659   7.953
 7371POPC   C4B31942  37.045  19.603   7.653
 7372POPC   NC331943  30.704   6.671   9.453
 7372POPC   PO431944  30.743   6.633   9.153
 7372POPC   GL131945  30.659   6.609   8.853
 7372POPC   GL231946  30.585   6.521   8.853
 7372POPC   C1A31947  30.737   6.676   8.553
 7372POPC   D2A31948  30.726   6.611   8.253
 7372POPC   C3A31949  30.689   6.650   7.953
 7372POPC   C4A31950  30.683   6.650   7.653
 7372POPC   C1B31951  30.493   6.447   8.553
 7372POPC   C2B31952  30.573   6.459   8.253
 7372POPC   C3B31953  30.525   6.413   7.953
 7372POPC   C4B31954  30.506   6.477   7.653
 7373POPC   NC331955  18.290  43.098   9.453
 7373POPC   PO431956  18.257  43.064   9.153
 7373POPC   GL131957  18.236  43.124   8.853
 7373POPC   GL231958  18.330  43.223   8.853
 7373POPC   C1A31959  18.279  43.107   8.553
 7373POPC   D2A31960  18.309  43.072   8.253
 7373POPC   C3A31961  18.321  43.108   7.953
 7373POPC   C4A31962  18.282  43.093   7.653
 7373POPC   C1B31963  18.444  43.258   8.553
 7373POPC   C2B31964  18.495  43.347   8.253
 7373POPC   C3B31965  18.471  43.303   7.953
 7373POPC   C4B31966  18.468  43.343   7.653
 7374POPC   NC331967  36.116  35.318   9.453
 7374POPC   PO431968  36.153  35.342   9.153
 7374POPC   GL131969  36.161  35.303   8.853
 7374POPC   GL231970  36.113  35.431   8.853
 7374POPC   C1A31971  36.146  35.319   8.553
 7374POPC   D2A31972  36.163  35.402   8.253
 7374POPC   C3A31973  36.089  35.348   7.953
 7374POPC   C4A31974  36.091  35.388   7.653
 7374POPC   C1B31975  36.091  35.584   8.553
 7374POPC   C2B31976  36.076  35.605   8.253
 7374POPC   C3B31977  36.073  35.553   7.953
 7374POPC   C4B31978  36.076  35.608   7.653
 7375POPC   NC331979  36.881   1.241   9.453
 7375POPC   PO431980  36.944   1.259   9.153
 7375POPC   GL131981  36.860   1.257   8.853
 7375POPC   GL231982  36.831   1.195   8.853
 7375POPC   C1A31983  36.925   1.252   8.553
 7375POPC   D2A31984  36.940   1.204   8.253
 7375POPC   C3A31985  36.949   1.212   7.953
 7375POPC   C4A31986  36.884   1.262   7.653
 7375POPC   C1B31987  36.699   1.178   8.553
 7375POPC   C2B31988  36.649   1.190   8.253
 7375POPC   C3B31989  36.637   1.201   7.953
 7375POPC   C4B31990  36.663   1.170   7.653
 7376POPC   NC331991   1.223   0.437   9.453
 7376POPC   PO431992   1.226   0.476   9.153
 7376POPC   GL131993   1.197   0.465   8.853
 7376POPC   GL231994   1.124   0.585   8.853
 7376POPC   C1A31995   1.175   0.448   8.553
 7376POPC   D2A31996   1.259   0.411   8.253
 7376POPC   C3A31997   1.179   0.445   7.953
 7376POPC   C4A31998   1.259   0.465   7.653
 7376POPC   C1B31999   1.024   0.692   8.553
 7376POPC   C2B32000   1.068   0.596   8.253
 7376POPC   C3B32001   1.094   0.678   7.953
 7376POPC   C4B32002   1.064   0.683   7.653
 7377POPC   NC332003  37.655   0.481   9.453
 7377POPC   PO432004  37.691   0.477   9.153
 7377POPC   GL132005  37.692   0.480   8.853
 7377POPC   GL232006  37.682   0.584   8.853
 7377POPC   C1A32007  37.660   0.457   8.553
 7377POPC   D2A32008  37.651   0.464   8.253
 7377POPC   C3A32009  37.710   0.399   7.953
 7377POPC   C4A32010  37.701   0.441   7.653
 7377POPC   C1B32011  37.588   0.680   8.553
 7377POPC   C2B32012  37.616   0.665   8.253
 7377POPC   C3B32013  37.630   0.639   7.953
 7377POPC   C4B32014  37.613   0.685   7.653
 7378POPC   NC332015  19.804  36.870   9.453
 7378POPC   PO432016  19.826  36.933   9.153
 7378POPC   GL132017  19.796  36.880   8.853
 7378POPC   GL232018  19.927  36.804   8.853
 7378POPC   C1A32019  19.827  36.862   8.553
 7378POPC   D2A32020  19.797  36.946   8.253
 7378POPC   C3A32021  19.875  36.888   7.953
 7378POPC   C4A32022  19.872  36.950   7.653
 7378POPC   C1B32023  20.022  36.732   8.553
 7378POPC   C2B32024  20.042  36.703   8.253
 7378POPC   C3B32025  20.048  36.732   7.953
 7378POPC   C4B32026  20.007  36.723   7.653
 7379POPC   NC332027  12.858  42.344   9.453
 7379POPC   PO432028  12.806  42.375   9.153
 7379POPC   GL132029  12.896  42.293   8.853
 7379POPC   GL232030  12.764  42.383   8.853
 7379POPC   C1A32031  12.823  42.366   8.553
 7379POPC   D2A32032  12.821  42.347   8.253
 7379POPC   C3A32033  12.817  42.358   7.953
 7379POPC   C4A32034  12.843  42.305   7.653
 7379POPC   C1B32035  12.613  42.422   8.553
 7379POPC   C2B32036  12.644  42.406   8.253
 7379POPC   C3B32037  12.601  42.426   7.953
 7379POPC   C4B32038  12.640  42.395   7.653
 7380POPC   NC332039  17.521  34.562   9.453
 7380POPC   PO432040  17.481  34.559   9.153
 7380POPC   GL132041  17.513  34.529   8.853
 7380POPC   GL232042  17.614  34.661   8.853
 7380POPC   C1A32043  17.527  34.574   8.553
 7380POPC   D2A32044  17.549  34.608   8.253
 7380POPC   C3A32045  17.534  34.623   7.953
 7380POPC   C4A32046  17.522  34.592   7.653
 7380POPC   C1B32047  17.718  34.761   8.553
 7380POPC   C2B32048  17.728  34.774   8.253
 7380POPC   C3B32049  17.647  34.742   7.953
 7380POPC   C4B32050  17.739  34.751   7.653
 7381POPC   NC332051  43.062   4.366   9.453
 7381POPC   PO432052  43.079   4.305   9.153
 7381POPC   GL132053  43.127   4.270   8.853
 7381POPC   GL232054  42.941   4.294   8.853
 7381POPC   C1A32055  43.125   4.279   8.553
 7381POPC   D2A32056  43.081   4.360   8.253
 7381POPC   C3A32057  43.073   4.337   7.953
 7381POPC   C4A32058  43.076   4.326   7.653
 7381POPC   C1B32059  42.860   4.404   8.553
 7381POPC   C2B32060  42.853   4.365   8.253
 7381POPC   C3B32061  42.898   4.350   7.953
 7381POPC   C4B32062  42.879   4.396   7.653
 7382POPC   NC332063   3.500  26.810   9.453
 7382POPC   PO432064   3.571  26.813   9.153
 7382POPC   GL132065   3.511  26.799   8.853
 7382POPC   GL232066   3.406  26.848   8.853
 7382POPC   C1A32067   3.537  26.800   8.553
 7382POPC   D2A32068   3.494  26.791   8.253
 7382POPC   C3A32069   3.505  26.841   7.953
 7382POPC   C4A32070   3.560  26.828   7.653
 7382POPC   C1B32071   3.370  26.963   8.553
 7382POPC   C2B32072   3.367  26.963   8.253
 7382POPC   C3B32073   3.354  26.960   7.953
 7382POPC   C4B32074   3.323  26.920   7.653
 7383POPC   NC332075   2.754  21.424   9.453
 7383POPC   PO432076   2.813  21.364   9.153
 7383POPC   GL132077   2.751  21.397   8.853
 7383POPC   GL232078   2.922  21.400   8.853
 7383POPC   C1A32079   2.785  21.394   8.553
 7383POPC   D2A32080   2.772  21.369   8.253
 7383POPC   C3A32081   2.733  21.384   7.953
 7383POPC   C4A32082   2.735  21.430   7.653
 7383POPC   C1B32083   3.009  21.461   8.553
 7383POPC   C2B32084   3.001  21.531   8.253
 7383POPC   C3B32085   2.979  21.543   7.953
 7383POPC   C4B32086   2.962  21.537   7.653
 7384POPC   NC332087  10.505  24.471   9.453
 7384POPC   PO432088  10.478  24.527   9.153
 7384POPC   GL132089  10.486  24.452   8.853
 7384POPC   GL232090  10.356  24.441   8.853
 7384POPC   C1A32091  10.513  24.491   8.553
 7384POPC   D2A32092  10.517  24.500   8.253
 7384POPC   C3A32093  10.574  24.459   7.953
 7384POPC   C4A32094  10.481  24.492   7.653
 7384POPC   C1B32095  10.237  24.463   8.553
 7384POPC   C2B32096  10.261  24.500   8.253
 7384POPC   C3B32097  10.305  24.481   7.953
 7384POPC   C4B32098  10.236  24.414   7.653
 7385POPC   NC332099  17.486  17.542   9.453
 7385POPC   PO432100  17.524  17.498   9.153
 7385POPC   GL132101  17.536  17.516   8.853
 7385POPC   GL232102  17.504  17.407   8.853
 7385POPC   C1A32103  17.537  17.544   8.553
 7385POPC   D2A32104  17.487  17.515   8.253
 7385POPC   C3A32105  17.498  17.458   7.953
 7385POPC   C4A32106  17.545  17.490   7.653
 7385POPC   C1B32107  17.529  17.292   8.553
 7385POPC   C2B32108  17.465  17.212   8.253
 7385POPC   C3B32109  17.480  17.255   7.953
 7385POPC   C4B32110  17.491  17.276   7.653
 7386POPC   NC332111  43.865  21.354   9.453
 7386POPC   PO432112  43.894  21.394   9.153
 7386POPC   GL132113  43.863  21.392   8.853
 7386POPC   GL232114  44.026  21.414   8.853
 7386POPC   C1A32115  43.896  21.339   8.553
 7386POPC   D2A32116  43.865  21.425   8.253
 7386POPC   C3A32117  43.869  21.375   7.953
 7386POPC   C4A32118  43.874  21.363   7.653
 7386POPC   C1B32119  44.092  21.410   8.553
 7386POPC   C2B32120  44.174  21.421   8.253
 7386POPC   C3B32121  44.138  21.441   7.953
 7386POPC   C4B32122  44.177  21.401   7.653
 7387POPC   NC332123   1.984   5.122   9.453
 7387POPC   PO432124   2.039   5.080   9.153
 7387POPC   GL132125   2.023   5.094   8.853
 7387POPC   GL232126   2.028   4.953   8.853
 7387POPC   C1A32127   2.019   5.078   8.553
 7387POPC   D2A32128   1.943   5.096   8.253
 7387POPC   C3A32129   1.958   5.096   7.953
 7387POPC   C4A32130   1.997   5.072   7.653
 7387POPC   C1B32131   2.123   4.901   8.553
 7387POPC   C2B32132   2.134   4.905   8.253
 7387POPC   C3B32133   2.124   4.883   7.953
 7387POPC   C4B32134   2.175   4.867   7.653
 7388POPC   NC332135  24.454  39.996   9.453
 7388POPC   PO432136  24.513  40.035   9.153
 7388POPC   GL132137  24.507  40.028   8.853
 7388POPC   GL232138  24.454  40.147   8.853
 7388POPC   C1A32139  24.483  40.026   8.553
 7388POPC   D2A32140  24.534  40.045   8.253
 7388POPC   C3A32141  24.516  40.037   7.953
 7388POPC   C4A32142  24.455  39.962   7.653
 7388POPC   C1B32143  24.402  40.250   8.553
 7388POPC   C2B32144  24.420  40.251   8.253
 7388POPC   C3B32145  24.453  40.244   7.953
 7388POPC   C4B32146  24.432  40.282   7.653
 7389POPC   NC332147  14.365  23.707   9.453
 7389POPC   PO432148  14.445  23.692   9.153
 7389POPC   GL132149  14.382  23.717   8.853
 7389POPC   GL232150  14.567  23.785   8.853
 7389POPC   C1A32151  14.427  23.744   8.553
 7389POPC   D2A32152  14.386  23.756   8.253
 7389POPC   C3A32153  14.429  23.728   7.953
 7389POPC   C4A32154  14.389  23.755   7.653
 7389POPC   C1B32155  14.586  23.805   8.553
 7389POPC   C2B32156  14.656  23.801   8.253
 7389POPC   C3B32157  14.594  23.805   7.953
 7389POPC   C4B32158  14.649  23.806   7.653
 7390POPC   NC332159   5.120  44.622   9.453
 7390POPC   PO432160   5.088  44.635   9.153
 7390POPC   GL132161   5.078  44.685   8.853
 7390POPC   GL232162   5.124  44.748   8.853
 7390POPC   C1A32163   5.141  44.638   8.553
 7390POPC   D2A32164   5.126  44.652   8.253
 7390POPC   C3A32165   5.133  44.659   7.953
 7390POPC   C4A32166   5.073  44.691   7.653
 7390POPC   C1B32167   5.212  44.929   8.553
 7390POPC   C2B32168   5.237  44.903   8.253
 7390POPC   C3B32169   5.158  44.908   7.953
 7390POPC   C4B32170   5.210  44.890   7.653
 7391POPC   NC332171  43.108   8.963   9.453
 7391POPC   PO432172  43.111   8.925   9.153
 7391POPC   GL132173  43.074   8.962   8.853
 7391POPC   GL232174  42.937   8.912   8.853
 7391POPC   C1A32175  43.075   8.929   8.553
 7391POPC   D2A32176  43.142   8.951   8.253
 7391POPC   C3A32177  43.070   9.006   7.953
 7391POPC   C4A32178  43.080   8.930   7.653
 7391POPC   C1B32179  42.863   8.943   8.553
 7391POPC   C2B32180  42.909   8.951   8.253
 7391POPC   C3B32181  42.845   8.912   7.953
 7391POPC   C4B32182  42.881   8.927   7.653
 7392POPC   NC332183  10.475  28.321   9.453
 7392POPC   PO432184  10.526  28.388   9.153
 7392POPC   GL132185  10.571  28.358   8.853
 7392POPC   GL232186  10.420  28.276   8.853
 7392POPC   C1A32187  10.486  28.343   8.553
 7392POPC   D2A32188  10.562  28.331   8.253
 7392POPC   C3A32189  10.570  28.408   7.953
 7392POPC   C4A32190  10.477  28.358   7.653
 7392POPC   C1B32191  10.401  28.212   8.553
 7392POPC   C2B32192  10.421  28.140   8.253
 7392POPC   C3B32193  10.391  28.129   7.953
 7392POPC   C4B32194  10.354  28.172   7.653
 7393POPC   NC332195   8.968   9.790   9.453
 7393POPC   PO432196   8.977   9.723   9.153
 7393POPC   GL132197   8.931   9.746   8.853
 7393POPC   GL232198   8.805   9.831   8.853
 7393POPC   C1A32199   8.947   9.764   8.553
 7393POPC   D2A32200   8.941   9.719   8.253
 7393POPC   C3A32201   8.966   9.754   7.953
 7393POPC   C4A32202   8.942   9.774   7.653
 7393POPC   C1B32203   8.769   9.856   8.553
 7393POPC   C2B32204   8.713   9.808   8.253
 7393POPC   C3B32205   8.739   9.846   7.953
 7393POPC   C4B32206   8.780   9.864   7.653
 7394POPC   NC332207  19.075  24.473   9.453
 7394POPC   PO432208  19.065  24.481   9.153
 7394POPC   GL132209  19.076  24.528   8.853
 7394POPC   GL232210  19.176  24.587   8.853
 7394POPC   C1A32211  19.047  24.522   8.553
 7394POPC   D2A32212  19.034  24.456   8.253
 7394POPC   C3A32213  19.108  24.531   7.953
 7394POPC   C4A32214  19.018  24.495   7.653
 7394POPC   C1B32215  19.285  24.663   8.553
 7394POPC   C2B32216  19.276  24.685   8.253
 7394POPC   C3B32217  19.246  24.599   7.953
 7394POPC   C4B32218  19.234  24.617   7.653
 7395POPC   NC332219  29.151  20.600   9.453
 7395POPC   PO432220  29.160  20.650   9.153
 7395POPC   GL132221  29.121  20.608   8.853
 7395POPC   GL232222  29.194  20.682   8.853
 7395POPC   C1A32223  29.193  20.567   8.553
 7395POPC   D2A32224  29.105  20.657   8.253
 7395POPC   C3A32225  29.138  20.569   7.953
 7395POPC   C4A32226  29.095  20.645   7.653
 7395POPC   C1B32227  29.193  20.893   8.553
 7395POPC   C2B32228  29.159  20.821   8.253
 7395POPC   C3B32229  29.195  20.832   7.953
 7395POPC   C4B32230  29.163  20.900   7.653
 7396POPC   NC332231  31.481  29.966   9.453
 7396POPC   PO432232  31.442  29.933   9.153
 7396POPC   GL132233  31.507  29.937   8.853
 7396POPC   GL232234  31.372  29.866   8.853
 7396POPC   C1A32235  31.516  29.964   8.553
 7396POPC   D2A32236  31.490  29.881   8.253
 7396POPC   C3A32237  31.489  29.953   7.953
 7396POPC   C4A32238  31.458  29.890   7.653
 7396POPC   C1B32239  31.278  29.810   8.553
 7396POPC   C2B32240  31.273  29.875   8.253
 7396POPC   C3B32241  31.242  29.902   7.953
 7396POPC   C4B32242  31.214  29.863   7.653
 7397POPC   NC332243  31.513  19.107   9.453
 7397POPC   PO432244  31.498  19.012   9.153
 7397POPC   GL132245  31.508  19.061   8.853
 7397POPC   GL232246  31.463  18.893   8.853
 7397POPC   C1A32247  31.517  19.067   8.553
 7397POPC   D2A32248  31.435  19.070   8.253
 7397POPC   C3A32249  31.461  19.094   7.953
 7397POPC   C4A32250  31.504  19.093   7.653
 7397POPC   C1B32251  31.407  18.833   8.553
 7397POPC   C2B32252  31.359  18.841   8.253
 7397POPC   C3B32253  31.419  18.797   7.953
 7397POPC   C4B32254  31.385  18.820   7.653
 7398POPC   NC332255  44.635  40.757   9.453
 7398POPC   PO432256  44.709  40.785   9.153
 7398POPC   GL132257  44.642  40.735   8.853
 7398POPC   GL232258  44.501  40.820   8.853
 7398POPC   C1A32259  44.696  40.751   8.553
 7398POPC   D2A32260  44.659  40.819   8.253
 7398POPC   C3A32261  44.631  40.766   7.953
 7398POPC   C4A32262  44.710  40.764   7.653
 7398POPC   C1B32263  44.454  40.869   8.553
 7398POPC   C2B32264  44.449  40.803   8.253
 7398POPC   C3B32265  44.467  40.787   7.953
 7398POPC   C4B32266  44.403  40.870   7.653
 7399POPC   NC332267   5.861  41.564   9.453
 7399POPC   PO432268   5.886  41.510   9.153
 7399POPC   GL132269   5.905  41.565   8.853
 7399POPC   GL232270   5.763  41.649   8.853
 7399POPC   C1A32271   5.837  41.585   8.553
 7399POPC   D2A32272   5.869  41.525   8.253
 7399POPC   C3A32273   5.910  41.540   7.953
 7399POPC   C4A32274   5.848  41.515   7.653
 7399POPC   C1B32275   5.750  41.746   8.553
 7399POPC   C2B32276   5.756  41.731   8.253
 7399POPC   C3B32277   5.720  41.775   7.953
 7399POPC   C4B32278   5.772  41.804   7.653
 7400POPC   NC332279  22.922   5.094   9.453
 7400POPC   PO432280  22.933   5.103   9.153
 7400POPC   GL132281  22.973   5.122   8.853
 7400POPC   GL232282  22.908   5.175   8.853
 7400POPC   C1A32283  22.895   5.120   8.553
 7400POPC   D2A32284  22.899   5.142   8.253
 7400POPC   C3A32285  22.907   5.078   7.953
 7400POPC   C4A32286  22.975   5.142   7.653
 7400POPC   C1B32287  22.934   5.350   8.553
 7400POPC   C2B32288  22.849   5.330   8.253
 7400POPC   C3B32289  22.939   5.374   7.953
 7400POPC   C4B32290  22.879   5.359   7.653
 7401POPC   NC332291  39.210   3.545   9.453
 7401POPC   PO432292  39.257   3.577   9.153
 7401POPC   GL132293  39.191   3.540   8.853
 7401POPC   GL232294  39.194   3.377   8.853
 7401POPC   C1A32295  39.220   3.529   8.553
 7401POPC   D2A32296  39.223   3.501   8.253
 7401POPC   C3A32297  39.231   3.565   7.953
 7401POPC   C4A32298  39.265   3.544   7.653
 7401POPC   C1B32299  39.137   3.266   8.553
 7401POPC   C2B32300  39.126   3.293   8.253
 7401POPC   C3B32301  39.114   3.281   7.953
 7401POPC   C4B32302  39.138   3.283   7.653
 7402POPC   NC332303   5.840   4.297   9.453
 7402POPC   PO432304   5.863   4.361   9.153
 7402POPC   GL132305   5.900   4.290   8.853
 7402POPC   GL232306   5.759   4.325   8.853
 7402POPC   C1A32307   5.898   4.337   8.553
 7402POPC   D2A32308   5.832   4.322   8.253
 7402POPC   C3A32309   5.881   4.297   7.953
 7402POPC   C4A32310   5.857   4.339   7.653
 7402POPC   C1B32311   5.663   4.284   8.553
 7402POPC   C2B32312   5.660   4.283   8.253
 7402POPC   C3B32313   5.579   4.305   7.953
 7402POPC   C4B32314   5.657   4.302   7.653
 7403POPC   NC332315   4.335  18.281   9.453
 7403POPC   PO432316   4.337  18.313   9.153
 7403POPC   GL132317   4.333  18.267   8.853
 7403POPC   GL232318   4.400  18.189   8.853
 7403POPC   C1A32319   4.305  18.276   8.553
 7403POPC   D2A32320   4.330  18.245   8.253
 7403POPC   C3A32321   4.319  18.293   7.953
 7403POPC   C4A32322   4.296  18.305   7.653
 7403POPC   C1B32323   4.448  18.026   8.553
 7403POPC   C2B32324   4.419  18.083   8.253
 7403POPC   C3B32325   4.399  18.084   7.953
 7403POPC   C4B32326   4.363  18.067   7.653
 7404POPC   NC332327  36.942   2.815   9.453
 7404POPC   PO432328  36.951   2.807   9.153
 7404POPC   GL132329  36.917   2.788   8.853
 7404POPC   GL232330  36.822   2.749   8.853
 7404POPC   C1A32331  36.933   2.722   8.553
 7404POPC   D2A32332  36.882   2.741   8.253
 7404POPC   C3A32333  36.860   2.736   7.953
 7404POPC   C4A32334  36.906   2.769   7.653
 7404POPC   C1B32335  36.680   2.779   8.553
 7404POPC   C2B32336  36.615   2.798   8.253
 7404POPC   C3B32337  36.705   2.840   7.953
 7404POPC   C4B32338  36.697   2.787   7.653
 7405POPC   NC332339  12.858  26.849   9.453
 7405POPC   PO432340  12.847  26.821   9.153
 7405POPC   GL132341  12.895  26.843   8.853
 7405POPC   GL232342  12.956  26.873   8.853
 7405POPC   C1A32343  12.819  26.811   8.553
 7405POPC   D2A32344  12.832  26.866   8.253
 7405POPC   C3A32345  12.862  26.845   7.953
 7405POPC   C4A32346  12.839  26.824   7.653
 7405POPC   C1B32347  13.042  26.966   8.553
 7405POPC   C2B32348  13.027  26.949   8.253
 7405POPC   C3B32349  13.062  26.919   7.953
 7405POPC   C4B32350  13.109  26.931   7.653
 7406POPC   NC332351  15.192  30.691   9.453
 7406POPC   PO432352  15.210  30.655   9.153
 7406POPC   GL132353  15.189  30.692   8.853
 7406POPC   GL232354  15.101  30.630   8.853
 7406POPC   C1A32355  15.193  30.738   8.553
 7406POPC   D2A32356  15.167  30.705   8.253
 7406POPC   C3A32357  15.135  30.664   7.953
 7406POPC   C4A32358  15.202  30.692   7.653
 7406POPC   C1B32359  14.941  30.655   8.553
 7406POPC   C2B32360  14.975  30.667   8.253
 7406POPC   C3B32361  14.972  30.641   7.953
 7406POPC   C4B32362  14.927  30.624   7.653
 7407POPC   NC332363  27.629  15.195   9.453
 7407POPC   PO432364  27.635  15.131   9.153
 7407POPC   GL132365  27.557  15.156   8.853
 7407POPC   GL232366  27.672  15.119   8.853
 7407POPC   C1A32367  27.635  15.151   8.553
 7407POPC   D2A32368  27.567  15.142   8.253
 7407POPC   C3A32369  27.599  15.183   7.953
 7407POPC   C4A32370  27.590  15.183   7.653
 7407POPC   C1B32371  27.726  14.998   8.553
 7407POPC   C2B32372  27.815  14.983   8.253
 7407POPC   C3B32373  27.793  14.993   7.953
 7407POPC   C4B32374  27.809  14.952   7.653
 7408POPC   NC332375   5.130  33.758   9.453
 7408POPC   PO432376   5.142  33.807   9.153
 7408POPC   GL132377   5.085  33.814   8.853
 7408POPC   GL232378   5.235  33.736   8.853
 7408POPC   C1A32379   5.135  33.754   8.553
 7408POPC   D2A32380   5.115  33.780   8.253
 7408POPC   C3A32381   5.049  33.765   7.953
 7408POPC   C4A32382   5.052  33.822   7.653
 7408POPC   C1B32383   5.355  33.764   8.553
 7408POPC   C2B32384   5.328  33.716   8.253
 7408POPC   C3B32385   5.332  33.684   7.953
 7408POPC   C4B32386   5.292  33.682   7.653
 7409POPC   NC332387  30.676  16.686   9.453
 7409POPC   PO432388  30.665  16.747   9.153
 7409POPC   GL132389  30.704  16.744   8.853
 7409POPC   GL232390  30.684  16.603   8.853
 7409POPC   C1A32391  30.724  16.705   8.553
 7409POPC   D2A32392  30.732  16.714   8.253
 7409POPC   C3A32393  30.723  16.752   7.953
 7409POPC   C4A32394  30.727  16.732   7.653
 7409POPC   C1B32395  30.720  16.503   8.553
 7409POPC   C2B32396  30.712  16.445   8.253
 7409POPC   C3B32397  30.718  16.537   7.953
 7409POPC   C4B32398  30.783  16.526   7.653
 7410POPC   NC332399  29.147  43.090   9.453
 7410POPC   PO432400  29.140  43.124   9.153
 7410POPC   GL132401  29.175  43.133   8.853
 7410POPC   GL232402  29.160  43.028   8.853
 7410POPC   C1A32403  29.191  43.108   8.553
 7410POPC   D2A32404  29.098  43.065   8.253
 7410POPC   C3A32405  29.102  43.077   7.953
 7410POPC   C4A32406  29.120  43.105   7.653
 7410POPC   C1B32407  29.251  42.917   8.553
 7410POPC   C2B32408  29.195  42.852   8.253
 7410POPC   C3B32409  29.252  42.910   7.953
 7410POPC   C4B32410  29.215  42.895   7.653
 7411POPC   NC332411  36.145   7.386   9.453
 7411POPC   PO432412  36.149   7.470   9.153
 7411POPC   GL132413  36.092   7.409   8.853
 7411POPC   GL232414  36.047   7.393   8.853
 7411POPC   C1A32415  36.157   7.391   8.553
 7411POPC   D2A32416  36.127   7.463   8.253
 7411POPC   C3A32417  36.170   7.386   7.953
 7411POPC   C4A32418  36.089   7.458   7.653
 7411POPC   C1B32419  35.857   7.423   8.553
 7411POPC   C2B32420  35.911   7.456   8.253
 7411POPC   C3B32421  35.916   7.385   7.953
 7411POPC   C4B32422  35.870   7.380   7.653
 7412POPC   NC332423  43.848   8.979   9.453
 7412POPC   PO432424  43.928   8.957   9.153
 7412POPC   GL132425  43.931   9.012   8.853
 7412POPC   GL232426  43.923   9.120   8.853
 7412POPC   C1A32427  43.845   8.980   8.553
 7412POPC   D2A32428  43.904   8.936   8.253
 7412POPC   C3A32429  43.893   8.942   7.953
 7412POPC   C4A32430  43.849   9.001   7.653
 7412POPC   C1B32431  43.901   9.270   8.553
 7412POPC   C2B32432  43.933   9.225   8.253
 7412POPC   C3B32433  43.952   9.262   7.953
 7412POPC   C4B32434  43.898   9.188   7.653
 7413POPC   NC332435  39.222  19.879   9.453
 7413POPC   PO432436  39.251  19.853   9.153
 7413POPC   GL132437  39.250  19.802   8.853
 7413POPC   GL232438  39.199  19.752   8.853
 7413POPC   C1A32439  39.252  19.824   8.553
 7413POPC   D2A32440  39.234  19.858   8.253
 7413POPC   C3A32441  39.205  19.857   7.953
 7413POPC   C4A32442  39.262  19.807   7.653
 7413POPC   C1B32443  39.234  19.606   8.553
 7413POPC   C2B32444  39.236  19.542   8.253
 7413POPC   C3B32445  39.250  19.586   7.953
 7413POPC   C4B32446  39.172  19.628   7.653
 7414POPC   NC332447  20.633  37.645   9.453
 7414POPC   PO432448  20.579  37.698   9.153
 7414POPC   GL132449  20.613  37.683   8.853
 7414POPC   GL232450  20.492  37.683   8.853
 7414POPC   C1A32451  20.602  37.677   8.553
 7414POPC   D2A32452  20.562  37.669   8.253
 7414POPC   C3A32453  20.579  37.637   7.953
 7414POPC   C4A32454  20.592  37.686   7.653
 7414POPC   C1B32455  20.391  37.664   8.553
 7414POPC   C2B32456  20.329  37.596   8.253
 7414POPC   C3B32457  20.413  37.650   7.953
 7414POPC   C4B32458  20.402  37.649   7.653
 7415POPC   NC332459  15.918  20.656   9.453
 7415POPC   PO432460  15.923  20.631   9.153
 7415POPC   GL132461  15.928  20.568   8.853
 7415POPC   GL232462  15.864  20.639   8.853
 7415POPC   C1A32463  15.934  20.625   8.553
 7415POPC   D2A32464  15.989  20.580   8.253
 7415POPC   C3A32465  15.943  20.605   7.953
 7415POPC   C4A32466  15.985  20.611   7.653
 7415POPC   C1B32467  15.662  20.628   8.553
 7415POPC   C2B32468  15.670  20.621   8.253
 7415POPC   C3B32469  15.707  20.614   7.953
 7415POPC   C4B32470  15.728  20.620   7.653
 7416POPC   NC332471  14.417   5.884   9.453
 7416POPC   PO432472  14.395   5.897   9.153
 7416POPC   GL132473  14.389   5.844   8.853
 7416POPC   GL232474  14.324   5.920   8.853
 7416POPC   C1A32475  14.415   5.890   8.553
 7416POPC   D2A32476  14.427   5.854   8.253
 7416POPC   C3A32477  14.402   5.830   7.953
 7416POPC   C4A32478  14.373   5.904   7.653
 7416POPC   C1B32479  14.187   5.933   8.553
 7416POPC   C2B32480  14.130   5.877   8.253
 7416POPC   C3B32481  14.146   5.932   7.953
 7416POPC   C4B32482  14.146   5.872   7.653
 7417POPC   NC332483  15.209   0.426   9.453
 7417POPC   PO432484  15.226   0.422   9.153
 7417POPC   GL132485  15.221   0.472   8.853
 7417POPC   GL232486  15.247   0.604   8.853
 7417POPC   C1A32487  15.181   0.411   8.553
 7417POPC   D2A32488  15.140   0.440   8.253
 7417POPC   C3A32489  15.202   0.439   7.953
 7417POPC   C4A32490  15.161   0.455   7.653
 7417POPC   C1B32491  15.226   0.697   8.553
 7417POPC   C2B32492  15.247   0.711   8.253
 7417POPC   C3B32493  15.256   0.697   7.953
 7417POPC   C4B32494  15.229   0.646   7.653
 7418POPC   NC332495  40.779  24.481   9.453
 7418POPC   PO432496  40.823  24.457   9.153
 7418POPC   GL132497  40.783  24.493   8.853
 7418POPC   GL232498  40.834  24.553   8.853
 7418POPC   C1A32499  40.768  24.538   8.553
 7418POPC   D2A32500  40.775  24.527   8.253
 7418POPC   C3A32501  40.830  24.528   7.953
 7418POPC   C4A32502  40.758  24.512   7.653
 7418POPC   C1B32503  40.960  24.723   8.553
 7418POPC   C2B32504  40.971  24.679   8.253
 7418POPC   C3B32505  40.969  24.745   7.953
 7418POPC   C4B32506  40.972  24.714   7.653
 7419POPC   NC332507  22.145  43.841   9.453
 7419POPC   PO432508  22.139  43.885   9.153
 7419POPC   GL132509  22.143  43.929   8.853
 7419POPC   GL232510  22.206  43.731   8.853
 7419POPC   C1A32511  22.114  43.902   8.553
 7419POPC   D2A32512  22.208  43.904   8.253
 7419POPC   C3A32513  22.176  43.856   7.953
 7419POPC   C4A32514  22.148  43.887   7.653
 7419POPC   C1B32515  22.197  43.680   8.553
 7419POPC   C2B32516  22.256  43.654   8.253
 7419POPC   C3B32517  22.178  43.623   7.953
 7419POPC   C4B32518  22.252  43.676   7.653
 7420POPC   NC332519  29.876  29.923   9.453
 7420POPC   PO432520  29.955  29.890   9.153
 7420POPC   GL132521  29.969  29.909   8.853
 7420POPC   GL232522  30.034  29.830   8.853
 7420POPC   C1A32523  29.873  29.954   8.553
 7420POPC   D2A32524  29.906  29.963   8.253
 7420POPC   C3A32525  29.912  29.932   7.953
 7420POPC   C4A32526  29.897  29.874   7.653
 7420POPC   C1B32527  30.071  29.727   8.553
 7420POPC   C2B32528  30.085  29.700   8.253
 7420POPC   C3B32529  30.022  29.759   7.953
 7420POPC   C4B32530  30.019  29.674   7.653
 7421POPC   NC332531  19.050  39.993   9.453
 7421POPC   PO432532  19.101  39.970   9.153
 7421POPC   GL132533  19.073  40.053   8.853
 7421POPC   GL232534  19.135  39.957   8.853
 7421POPC   C1A32535  19.015  40.046   8.553
 7421POPC   D2A32536  19.075  39.962   8.253
 7421POPC   C3A32537  19.045  40.046   7.953
 7421POPC   C4A32538  19.105  40.005   7.653
 7421POPC   C1B32539  19.350  39.976   8.553
 7421POPC   C2B32540  19.343  39.985   8.253
 7421POPC   C3B32541  19.349  40.021   7.953
 7421POPC   C4B32542  19.266  39.979   7.653
 7422POPC   NC332543  15.950  24.463   9.453
 7422POPC   PO432544  16.004  24.454   9.153
 7422POPC   GL132545  15.923  24.538   8.853
 7422POPC   GL232546  15.847  24.541   8.853
 7422POPC   C1A32547  15.976  24.524   8.553
 7422POPC   D2A32548  15.949  24.528   8.253
 7422POPC   C3A32549  15.930  24.532   7.953
 7422POPC   C4A32550  15.957  24.477   7.653
 7422POPC   C1B32551  15.749  24.618   8.553
 7422POPC   C2B32552  15.769  24.632   8.253
 7422POPC   C3B32553  15.721  24.649   7.953
 7422POPC   C4B32554  15.732  24.586   7.653
 7423POPC   NC332555  28.334  15.980   9.453
 7423POPC   PO432556  28.345  16.001   9.153
 7423POPC   GL132557  28.359  15.980   8.853
 7423POPC   GL232558  28.519  16.028   8.853
 7423POPC   C1A32559  28.333  15.992   8.553
 7423POPC   D2A32560  28.356  15.986   8.253
 7423POPC   C3A32561  28.346  15.950   7.953
 7423POPC   C4A32562  28.342  15.988   7.653
 7423POPC   C1B32563  28.600  16.055   8.553
 7423POPC   C2B32564  28.636  15.989   8.253
 7423POPC   C3B32565  28.648  15.976   7.953
 7423POPC   C4B32566  28.587  16.007   7.653
 7424POPC   NC332567  24.467  43.906   9.453
 7424POPC   PO432568  24.502  43.861   9.153
 7424POPC   GL132569  24.446  43.871   8.853
 7424POPC   GL232570  24.648  43.835   8.853
 7424POPC   C1A32571  24.507  43.880   8.553
 7424POPC   D2A32572  24.513  43.934   8.253
 7424POPC   C3A32573  24.479  43.840   7.953
 7424POPC   C4A32574  24.472  43.917   7.653
 7424POPC   C1B32575  24.777  43.823   8.553
 7424POPC   C2B32576  24.720  43.828   8.253
 7424POPC   C3B32577  24.764  43.862   7.953
 7424POPC   C4B32578  24.775  43.846   7.653
 7425POPC   NC332579   2.034  34.623   9.453
 7425POPC   PO432580   1.964  34.601   9.153
 7425POPC   GL132581   2.009  34.578   8.853
 7425POPC   GL232582   1.988  34.697   8.853
 7425POPC   C1A32583   1.990  34.610   8.553
 7425POPC   D2A32584   1.962  34.557   8.253
 7425POPC   C3A32585   1.988  34.562   7.953
 7425POPC   C4A32586   1.951  34.562   7.653
 7425POPC   C1B32587   1.845  34.771   8.553
 7425POPC   C2B32588   1.890  34.841   8.253
 7425POPC   C3B32589   1.855  34.795   7.953
 7425POPC   C4B32590   1.865  34.817   7.653
 7426POPC   NC332591  34.609  38.489   9.453
 7426POPC   PO432592  34.547  38.499   9.153
 7426POPC   GL132593  34.615  38.429   8.853
 7426POPC   GL232594  34.494  38.505   8.853
 7426POPC   C1A32595  34.560  38.483   8.553
 7426POPC   D2A32596  34.526  38.426   8.253
 7426POPC   C3A32597  34.598  38.471   7.953
 7426POPC   C4A32598  34.601  38.478   7.653
 7426POPC   C1B32599  34.320  38.512   8.553
 7426POPC   C2B32600  34.320  38.503   8.253
 7426POPC   C3B32601  34.332  38.540   7.953
 7426POPC   C4B32602  34.322  38.534   7.653
 7427POPC   NC332603   3.582  27.611   9.453
 7427POPC   PO432604   3.516  27.584   9.153
 7427POPC   GL132605   3.513  27.558   8.853
 7427POPC   GL232606   3.463  27.661   8.853
 7427POPC   C1A32607   3.566  27.643   8.553
 7427POPC   D2A32608   3.573  27.565   8.253
 7427POPC   C3A32609   3.522  27.639   7.953
 7427POPC   C4A32610   3.582  27.610   7.653
 7427POPC   C1B32611   3.438  27.795   8.553
 7427POPC   C2B32612   3.393  27.775   8.253
 7427POPC   C3B32613   3.440  27.860   7.953
 7427POPC   C4B32614   3.401  27.794   7.653
 7428POPC   NC332615   5.121  11.315   9.453
 7428POPC   PO432616   5.132  11.335   9.153
 7428POPC   GL132617   5.087  11.325   8.853
 7428POPC   GL232618   5.025  11.435   8.853
 7428POPC   C1A32619   5.128  11.330   8.553
 7428POPC   D2A32620   5.083  11.285   8.253
 7428POPC   C3A32621   5.083  11.292   7.953
 7428POPC   C4A32622   5.131  11.293   7.653
 7428POPC   C1B32623   4.984  11.516   8.553
 7428POPC   C2B32624   4.972  11.520   8.253
 7428POPC   C3B32625   5.009  11.536   7.953
 7428POPC   C4B32626   4.996  11.539   7.653
 7429POPC   NC332627   6.608  44.629   9.453
 7429POPC   PO432628   6.623  44.708   9.153
 7429POPC   GL132629   6.677  44.690   8.853
 7429POPC   GL232630   6.791  44.601   8.853
 7429POPC   C1A32631   6.674  44.617   8.553
 7429POPC   D2A32632   6.662  44.627   8.253
 7429POPC   C3A32633   6.640  44.701   7.953
 7429POPC   C4A32634   6.646  44.665   7.653
 7429POPC   C1B32635   6.882  44.545   8.553
 7429POPC   C2B32636   6.815  44.476   8.253
 7429POPC   C3B32637   6.823  44.546   7.953
 7429POPC   C4B32638   6.867  44.553   7.653
 7430POPC   NC332639  12.082  35.398   9.453
 7430POPC   PO432640  12.102  35.383   9.153
 7430POPC   GL132641  12.056  35.389   8.853
 7430POPC   GL232642  12.200  35.401   8.853
 7430POPC   C1A32643  12.087  35.328   8.553
 7430POPC   D2A32644  12.034  35.315   8.253
 7430POPC   C3A32645  12.077  35.393   7.953
 7430POPC   C4A32646  12.096  35.352   7.653
 7430POPC   C1B32647  12.294  35.450   8.553
 7430POPC   C2B32648  12.319  35.462   8.253
 7430POPC   C3B32649  12.277  35.468   7.953
 7430POPC   C4B32650  12.314  35.500   7.653
 7431POPC   NC332651  43.895  29.927   9.453
 7431POPC   PO432652  43.857  29.925   9.153
 7431POPC   GL132653  43.923  29.893   8.853
 7431POPC   GL232654  43.876  30.028   8.853
 7431POPC   C1A32655  43.909  29.967   8.553
 7431POPC   D2A32656  43.873  29.922   8.253
 7431POPC   C3A32657  43.930  29.965   7.953
 7431POPC   C4A32658  43.846  29.936   7.653
 7431POPC   C1B32659  43.956  30.136   8.553
 7431POPC   C2B32660  43.995  30.113   8.253
 7431POPC   C3B32661  43.972  30.157   7.953
 7431POPC   C4B32662  43.953  30.146   7.653
 7432POPC   NC332663  26.018  26.780   9.453
 7432POPC   PO432664  26.029  26.832   9.153
 7432POPC   GL132665  26.071  26.817   8.853
 7432POPC   GL232666  25.928  26.829   8.853
 7432POPC   C1A32667  26.048  26.842   8.553
 7432POPC   D2A32668  26.030  26.800   8.253
 7432POPC   C3A32669  26.054  26.812   7.953
 7432POPC   C4A32670  26.078  26.784   7.653
 7432POPC   C1B32671  25.840  26.870   8.553
 7432POPC   C2B32672  25.813  26.836   8.253
 7432POPC   C3B32673  25.782  26.894   7.953
 7432POPC   C4B32674  25.786  26.897   7.653
 7433POPC   NC332675  43.121  40.009   9.453
 7433POPC   PO432676  43.135  39.966   9.153
 7433POPC   GL132677  43.104  40.027   8.853
 7433POPC   GL232678  43.036  39.974   8.853
 7433POPC   C1A32679  43.120  39.989   8.553
 7433POPC   D2A32680  43.155  40.037   8.253
 7433POPC   C3A32681  43.116  39.993   7.953
 7433POPC   C4A32682  43.094  39.998   7.653
 7433POPC   C1B32683  42.958  39.849   8.553
 7433POPC   C2B32684  42.947  39.841   8.253
 7433POPC   C3B32685  42.943  39.872   7.953
 7433POPC   C4B32686  42.927  39.839   7.653
 7434POPC   NC332687  42.289  22.148   9.453
 7434POPC   PO432688  42.342  22.117   9.153
 7434POPC   GL132689  42.335  22.203   8.853
 7434POPC   GL232690  42.470  22.094   8.853
 7434POPC   C1A32691  42.357  22.165   8.553
 7434POPC   D2A32692  42.371  22.153   8.253
 7434POPC   C3A32693  42.294  22.127   7.953
 7434POPC   C4A32694  42.316  22.212   7.653
 7434POPC   C1B32695  42.508  22.010   8.553
 7434POPC   C2B32696  42.564  22.030   8.253
 7434POPC   C3B32697  42.592  22.063   7.953
 7434POPC   C4B32698  42.506  22.002   7.653
 7435POPC   NC332699  15.131  22.177   9.453
 7435POPC   PO432700  15.222  22.113   9.153
 7435POPC   GL132701  15.174  22.176   8.853
 7435POPC   GL232702  15.156  22.261   8.853
 7435POPC   C1A32703  15.144  22.195   8.553
 7435POPC   D2A32704  15.176  22.146   8.253
 7435POPC   C3A32705  15.181  22.152   7.953
 7435POPC   C4A32706  15.226  22.112   7.653
 7435POPC   C1B32707  15.218  22.433   8.553
 7435POPC   C2B32708  15.251  22.369   8.253
 7435POPC   C3B32709  15.177  22.432   7.953
 7435POPC   C4B32710  15.230  22.381   7.653
 7436POPC   NC332711  17.541  36.155   9.453
 7436POPC   PO432712  17.472  36.131   9.153
 7436POPC   GL132713  17.458  36.107   8.853
 7436POPC   GL232714  17.464  36.276   8.853
 7436POPC   C1A32715  17.517  36.162   8.553
 7436POPC   D2A32716  17.514  36.100   8.253
 7436POPC   C3A32717  17.459  36.105   7.953
 7436POPC   C4A32718  17.491  36.161   7.653
 7436POPC   C1B32719  17.357  36.346   8.553
 7436POPC   C2B32720  17.400  36.306   8.253
 7436POPC   C3B32721  17.405  36.364   7.953
 7436POPC   C4B32722  17.434  36.384   7.653
 7437POPC   NC332723  23.716  39.994   9.453
 7437POPC   PO432724  23.728  39.973   9.153
 7437POPC   GL132725  23.724  40.032   8.853
 7437POPC   GL232726  23.659  39.869   8.853
 7437POPC   C1A32727  23.760  40.044   8.553
 7437POPC   D2A32728  23.753  39.977   8.253
 7437POPC   C3A32729  23.733  40.004   7.953
 7437POPC   C4A32730  23.758  40.035   7.653
 7437POPC   C1B32731  23.573  39.833   8.553
 7437POPC   C2B32732  23.574  39.876   8.253
 7437POPC   C3B32733  23.530  39.844   7.953
 7437POPC   C4B32734  23.582  39.823   7.653
 7438POPC   NC332735  18.275   7.447   9.453
 7438POPC   PO432736  18.267   7.387   9.153
 7438POPC   GL132737  18.314   7.386   8.853
 7438POPC   GL232738  18.309   7.299   8.853
 7438POPC   C1A32739  18.236   7.462   8.553
 7438POPC   D2A32740  18.307   7.416   8.253
 7438POPC   C3A32741  18.234   7.376   7.953
 7438POPC   C4A32742  18.237   7.428   7.653
 7438POPC   C1B32743  18.295   7.180   8.553
 7438POPC   C2B32744  18.249   7.218   8.253
 7438POPC   C3B32745  18.267   7.210   7.953
 7438POPC   C4B32746  18.260   7.205   7.653
 7439POPC   NC332747  39.981  42.295   9.453
 7439POPC   PO432748  40.041  42.346   9.153
 7439POPC   GL132749  39.983  42.376   8.853
 7439POPC   GL232750  40.109  42.323   8.853
 7439POPC   C1A32751  40.035  42.340   8.553
 7439POPC   D2A32752  40.052  42.312   8.253
 7439POPC   C3A32753  40.027  42.338   7.953
 7439POPC   C4A32754  40.020  42.381   7.653
 7439POPC   C1B32755  40.284  42.241   8.553
 7439POPC   C2B32756  40.277  42.284   8.253
 7439POPC   C3B32757  40.199  42.242   7.953
 7439POPC   C4B32758  40.294  42.282   7.653
 7440POPC   NC332759   6.686  14.420   9.453
 7440POPC   PO432760   6.675  14.447   9.153
 7440POPC   GL132761   6.618  14.365   8.853
 7440POPC   GL232762   6.780  14.405   8.853
 7440POPC   C1A32763   6.620  14.405   8.553
 7440POPC   D2A32764   6.595  14.416   8.253
 7440POPC   C3A32765   6.641  14.416   7.953
 7440POPC   C4A32766   6.675  14.437   7.653
 7440POPC   C1B32767   6.908  14.479   8.553
 7440POPC   C2B32768   6.897  14.519   8.253
 7440POPC   C3B32769   6.870  14.502   7.953
 7440POPC   C4B32770   6.863  14.490   7.653
 7441POPC   NC332771  13.672   0.486   9.453
 7441POPC   PO432772  13.610   0.390   9.153
 7441POPC   GL132773  13.597   0.421   8.853
 7441POPC   GL232774  13.708   0.498   8.853
 7441POPC   C1A32775  13.638   0.410   8.553
 7441POPC   D2A32776  13.592   0.423   8.253
 7441POPC   C3A32777  13.583   0.423   7.953
 7441POPC   C4A32778  13.637   0.408   7.653
 7441POPC   C1B32779  13.892   0.516   8.553
 7441POPC   C2B32780  13.872   0.531   8.253
 7441POPC   C3B32781  13.826   0.523   7.953
 7441POPC   C4B32782  13.852   0.534   7.653
 7442POPC   NC332783   6.691   4.355   9.453
 7442POPC   PO432784   6.663   4.317   9.153
 7442POPC   GL132785   6.598   4.364   8.853
 7442POPC   GL232786   6.805   4.381   8.853
 7442POPC   C1A32787   6.651   4.269   8.553
 7442POPC   D2A32788   6.630   4.327   8.253
 7442POPC   C3A32789   6.655   4.334   7.953
 7442POPC   C4A32790   6.640   4.342   7.653
 7442POPC   C1B32791   6.841   4.397   8.553
 7442POPC   C2B32792   6.883   4.452   8.253
 7442POPC   C3B32793   6.916   4.439   7.953
 7442POPC   C4B32794   6.881   4.400   7.653
 7443POPC   NC332795  43.889  19.865   9.453
 7443POPC   PO432796  43.925  19.826   9.153
 7443POPC   GL132797  43.869  19.869   8.853
 7443POPC   GL232798  43.893  19.717   8.853
 7443POPC   C1A32799  43.896  19.868   8.553
 7443POPC   D2A32800  43.929  19.878   8.253
 7443POPC   C3A32801  43.854  19.810   7.953
 7443POPC   C4A32802  43.932  19.866   7.653
 7443POPC   C1B32803  43.906  19.600   8.553
 7443POPC   C2B32804  43.916  19.624   8.253
 7443POPC   C3B32805  43.958  19.591   7.953
 7443POPC   C4B32806  43.947  19.624   7.653
 7444POPC   NC332807  26.800   8.963   9.453
 7444POPC   PO432808  26.804   9.008   9.153
 7444POPC   GL132809  26.867   8.985   8.853
 7444POPC   GL232810  26.754   9.008   8.853
 7444POPC   C1A32811  26.820   9.002   8.553
 7444POPC   D2A32812  26.833   8.968   8.253
 7444POPC   C3A32813  26.819   8.928   7.953
 7444POPC   C4A32814  26.823   8.968   7.653
 7444POPC   C1B32815  26.657   9.143   8.553
 7444POPC   C2B32816  26.644   9.185   8.253
 7444POPC   C3B32817  26.635   9.116   7.953
 7444POPC   C4B32818  26.673   9.160   7.653
 7445POPC   NC332819  10.555   3.551   9.453
 7445POPC   PO432820  10.552   3.526   9.153
 7445POPC   GL132821  10.564   3.541   8.853
 7445POPC   GL232822  10.381   3.515   8.853
 7445POPC   C1A32823  10.492   3.496   8.553
 7445POPC   D2A32824  10.506   3.535   8.253
 7445POPC   C3A32825  10.546   3.573   7.953
 7445POPC   C4A32826  10.551   3.528   7.653
 7445POPC   C1B32827  10.315   3.516   8.553
 7445POPC   C2B32828  10.286   3.495   8.253
 7445POPC   C3B32829  10.319   3.466   7.953
 7445POPC   C4B32830  10.302   3.464   7.653
 7446POPC   NC332831  33.048  19.841   9.453
 7446POPC   PO432832  33.054  19.800   9.153
 7446POPC   GL132833  33.061  19.879   8.853
 7446POPC   GL232834  32.954  19.744   8.853
 7446POPC   C1A32835  32.998  19.863   8.553
 7446POPC   D2A32836  33.073  19.786   8.253
 7446POPC   C3A32837  33.039  19.818   7.953
 7446POPC   C4A32838  32.978  19.800   7.653
 7446POPC   C1B32839  32.840  19.751   8.553
 7446POPC   C2B32840  32.762  19.691   8.253
 7446POPC   C3B32841  32.782  19.670   7.953
 7446POPC   C4B32842  32.794  19.695   7.653
 7447POPC   NC332843   5.872  22.910   9.453
 7447POPC   PO432844   5.820  22.905   9.153
 7447POPC   GL132845   5.889  22.897   8.853
 7447POPC   GL232846   5.924  22.839   8.853
 7447POPC   C1A32847   5.897  22.946   8.553
 7447POPC   D2A32848   5.823  22.918   8.253
 7447POPC   C3A32849   5.885  22.978   7.953
 7447POPC   C4A32850   5.874  22.931   7.653
 7447POPC   C1B32851   6.035  22.763   8.553
 7447POPC   C2B32852   6.014  22.705   8.253
 7447POPC   C3B32853   6.020  22.763   7.953
 7447POPC   C4B32854   6.083  22.733   7.653
 7448POPC   NC332855  30.648  20.587   9.453
 7448POPC   PO432856  30.662  20.590   9.153
 7448POPC   GL132857  30.735  20.646   8.853
 7448POPC   GL232858  30.681  20.756   8.853
 7448POPC   C1A32859  30.653  20.588   8.553
 7448POPC   D2A32860  30.670  20.637   8.253
 7448POPC   C3A32861  30.741  20.566   7.953
 7448POPC   C4A32862  30.703  20.657   7.653
 7448POPC   C1B32863  30.614  20.885   8.553
 7448POPC   C2B32864  30.559  20.865   8.253
 7448POPC   C3B32865  30.559  20.865   7.953
 7448POPC   C4B32866  30.572  20.814   7.653
 7449POPC   NC332867   5.913   7.432   9.453
 7449POPC   PO432868   5.903   7.398   9.153
 7449POPC   GL132869   5.848   7.377   8.853
 7449POPC   GL232870   5.764   7.355   8.853
 7449POPC   C1A32871   5.881   7.409   8.553
 7449POPC   D2A32872   5.915   7.415   8.253
 7449POPC   C3A32873   5.849   7.457   7.953
 7449POPC   C4A32874   5.869   7.412   7.653
 7449POPC   C1B32875   5.706   7.178   8.553
 7449POPC   C2B32876   5.793   7.160   8.253
 7449POPC   C3B32877   5.761   7.187   7.953
 7449POPC   C4B32878   5.729   7.216   7.653
 7450POPC   NC332879  21.350  27.612   9.453
 7450POPC   PO432880  21.362  27.591   9.153
 7450POPC   GL132881  21.382  27.596   8.853
 7450POPC   GL232882  21.425  27.487   8.853
 7450POPC   C1A32883  21.354  27.621   8.553
 7450POPC   D2A32884  21.410  27.641   8.253
 7450POPC   C3A32885  21.392  27.618   7.953
 7450POPC   C4A32886  21.351  27.603   7.653
 7450POPC   C1B32887  21.568  27.365   8.553
 7450POPC   C2B32888  21.502  27.362   8.253
 7450POPC   C3B32889  21.574  27.342   7.953
 7450POPC   C4B32890  21.556  27.377   7.653
 7451POPC   NC332891  12.064  26.047   9.453
 7451POPC   PO432892  12.112  26.001   9.153
 7451POPC   GL132893  12.111  26.030   8.853
 7451POPC   GL232894  11.932  26.012   8.853
 7451POPC   C1A32895  12.030  26.042   8.553
 7451POPC   D2A32896  12.043  26.021   8.253
 7451POPC   C3A32897  12.067  26.053   7.953
 7451POPC   C4A32898  12.027  25.993   7.653
 7451POPC   C1B32899  11.881  26.014   8.553
 7451POPC   C2B32900  11.833  25.952   8.253
 7451POPC   C3B32901  11.841  25.999   7.953
 7451POPC   C4B32902  11.827  26.004   7.653
 7452POPC   NC332903  33.763  23.698   9.453
 7452POPC   PO432904  33.780  23.737   9.153
 7452POPC   GL132905  33.796  23.694   8.853
 7452POPC   GL232906  33.816  23.855   8.853
 7452POPC   C1A32907  33.796  23.709   8.553
 7452POPC   D2A32908  33.818  23.707   8.253
 7452POPC   C3A32909  33.755  23.751   7.953
 7452POPC   C4A32910  33.756  23.760   7.653
 7452POPC   C1B32911  33.730  23.983   8.553
 7452POPC   C2B32912  33.740  23.956   8.253
 7452POPC   C3B32913  33.719  23.942   7.953
 7452POPC   C4B32914  33.737  23.979   7.653
 7453POPC   NC332915   6.676  29.146   9.453
 7453POPC   PO432916   6.646  29.176   9.153
 7453POPC   GL132917   6.675  29.147   8.853
 7453POPC   GL232918   6.752  29.067   8.853
 7453POPC   C1A32919   6.645  29.135   8.553
 7453POPC   D2A32920   6.678  29.114   8.253
 7453POPC   C3A32921   6.692  29.095   7.953
 7453POPC   C4A32922   6.595  29.192   7.653
 7453POPC   C1B32923   6.813  28.985   8.553
 7453POPC   C2B32924   6.842  28.988   8.253
 7453POPC   C3B32925   6.749  28.964   7.953
 7453POPC   C4B32926   6.814  28.983   7.653
 7454POPC   NC332927  35.389  40.831   9.453
 7454POPC   PO432928  35.391  40.787   9.153
 7454POPC   GL132929  35.335  40.795   8.853
 7454POPC   GL232930  35.259  40.815   8.853
 7454POPC   C1A32931  35.354  40.738   8.553
 7454POPC   D2A32932  35.373  40.763   8.253
 7454POPC   C3A32933  35.360  40.741   7.953
 7454POPC   C4A32934  35.355  40.754   7.653
 7454POPC   C1B32935  35.177  40.918   8.553
 7454POPC   C2B32936  35.163  40.899   8.253
 7454POPC   C3B32937  35.187  40.962   7.953
 7454POPC   C4B32938  35.157  40.908   7.653
 7455POPC   NC332939  10.500  26.796   9.453
 7455POPC   PO432940  10.502  26.773   9.153
 7455POPC   GL132941  10.485  26.846   8.853
 7455POPC   GL232942  10.573  26.685   8.853
 7455POPC   C1A32943  10.567  26.846   8.553
 7455POPC   D2A32944  10.478  26.769   8.253
 7455POPC   C3A32945  10.537  26.795   7.953
 7455POPC   C4A32946  10.516  26.811   7.653
 7455POPC   C1B32947  10.628  26.606   8.553
 7455POPC   C2B32948  10.648  26.603   8.253
 7455POPC   C3B32949  10.656  26.630   7.953
 7455POPC   C4B32950  10.595  26.612   7.653
 7456POPC   NC332951  10.514   5.116   9.453
 7456POPC   PO432952  10.546   5.132   9.153
 7456POPC   GL132953  10.555   5.126   8.853
 7456POPC   GL232954  10.365   5.051   8.853
 7456POPC   C1A32955  10.474   5.096   8.553
 7456POPC   D2A32956  10.490   5.109   8.253
 7456POPC   C3A32957  10.553   5.099   7.953
 7456POPC   C4A32958  10.529   5.092   7.653
 7456POPC   C1B32959  10.320   5.055   8.553
 7456POPC   C2B32960  10.313   5.079   8.253
 7456POPC   C3B32961  10.274   5.076   7.953
 7456POPC   C4B32962  10.242   5.067   7.653
 7457POPC   NC332963  36.870  15.226   9.453
 7457POPC   PO432964  36.881  15.151   9.153
 7457POPC   GL132965  36.940  15.178   8.853
 7457POPC   GL232966  37.013  15.211   8.853
 7457POPC   C1A32967  36.877  15.142   8.553
 7457POPC   D2A32968  36.886  15.194   8.253
 7457POPC   C3A32969  36.854  15.143   7.953
 7457POPC   C4A32970  36.896  15.145   7.653
 7457POPC   C1B32971  37.186  15.248   8.553
 7457POPC   C2B32972  37.119  15.223   8.253
 7457POPC   C3B32973  37.137  15.190   7.953
 7457POPC   C4B32974  37.175  15.270   7.653
 7458POPC   NC332975  15.206  43.105   9.453
 7458POPC   PO432976  15.223  43.105   9.153
 7458POPC   GL132977  15.196  43.076   8.853
 7458POPC   GL232978  15.338  43.032   8.853
 7458POPC   C1A32979  15.185  43.109   8.553
 7458POPC   D2A32980  15.191  43.142   8.253
 7458POPC   C3A32981  15.146  43.076   7.953
 7458POPC   C4A32982  15.172  43.121   7.653
 7458POPC   C1B32983  15.463  42.983   8.553
 7458POPC   C2B32984  15.462  43.049   8.253
 7458POPC   C3B32985  15.449  43.008   7.953
 7458POPC   C4B32986  15.461  42.979   7.653
 7459POPC   NC332987  39.189   5.116   9.453
 7459POPC   PO432988  39.207   5.046   9.153
 7459POPC   GL132989  39.218   5.119   8.853
 7459POPC   GL232990  39.131   5.032   8.853
 7459POPC   C1A32991  39.233   5.090   8.553
 7459POPC   D2A32992  39.185   5.119   8.253
 7459POPC   C3A32993  39.191   5.061   7.953
 7459POPC   C4A32994  39.240   5.132   7.653
 7459POPC   C1B32995  39.029   5.023   8.553
 7459POPC   C2B32996  39.055   4.955   8.253
 7459POPC   C3B32997  39.008   4.964   7.953
 7459POPC   C4B32998  39.005   4.994   7.653
 7460POPC   NC332999  36.113  19.033   9.453
 7460POPC   PO433000  36.145  19.049   9.153
 7460POPC   GL133001  36.164  19.018   8.853
 7460POPC   GL233002  36.043  19.065   8.853
 7460POPC   C1A33003  36.100  19.085   8.553
 7460POPC   D2A33004  36.174  19.098   8.253
 7460POPC   C3A33005  36.101  19.096   7.953
 7460POPC   C4A33006  36.167  19.015   7.653
 7460POPC   C1B33007  35.886  19.005   8.553
 7460POPC   C2B33008  35.879  18.994   8.253
 7460POPC   C3B33009  35.898  19.049   7.953
 7460POPC   C4B33010  35.863  19.039   7.653
 7461POPC   NC333011   8.993   2.789   9.453
 7461POPC   PO433012   8.957   2.751   9.153
 7461POPC   GL133013   8.958   2.766   8.853
 7461POPC   GL233014   8.903   2.775   8.853
 7461POPC   C1A33015   8.987   2.799   8.553
 7461POPC   D2A33016   8.946   2.758   8.253
 7461POPC   C3A33017   8.961   2.788   7.953
 7461POPC   C4A33018   8.948   2.790   7.653
 7461POPC   C1B33019   8.708   2.901   8.553
 7461POPC   C2B33020   8.770   2.918   8.253
 7461POPC   C3B33021   8.724   2.848   7.953
 7461POPC   C4B33022   8.777   2.890   7.653
 7462POPC   NC333023  22.151  32.253   9.453
 7462POPC   PO433024  22.123  32.240   9.153
 7462POPC   GL133025  22.181  32.261   8.853
 7462POPC   GL233026  22.183  32.095   8.853
 7462POPC   C1A33027  22.159  32.209   8.553
 7462POPC   D2A33028  22.163  32.280   8.253
 7462POPC   C3A33029  22.195  32.248   7.953
 7462POPC   C4A33030  22.189  32.269   7.653
 7462POPC   C1B33031  22.145  31.996   8.553
 7462POPC   C2B33032  22.142  31.978   8.253
 7462POPC   C3B33033  22.170  32.003   7.953
 7462POPC   C4B33034  22.128  32.006   7.653
 7463POPC   NC333035  20.620  30.739   9.453
 7463POPC   PO433036  20.563  30.741   9.153
 7463POPC   GL133037  20.643  30.700   8.853
 7463POPC   GL233038  20.743  30.683   8.853
 7463POPC   C1A33039  20.645  30.746   8.553
 7463POPC   D2A33040  20.598  30.731   8.253
 7463POPC   C3A33041  20.619  30.669   7.953
 7463POPC   C4A33042  20.624  30.653   7.653
 7463POPC   C1B33043  20.873  30.710   8.553
 7463POPC   C2B33044  20.908  30.676   8.253
 7463POPC   C3B33045  20.883  30.682   7.953
 7463POPC   C4B33046  20.857  30.745   7.653
 7464POPC   NC333047   9.787  29.936   9.453
 7464POPC   PO433048   9.747  29.901   9.153
 7464POPC   GL133049   9.787  29.912   8.853
 7464POPC   GL233050   9.648  29.952   8.853
 7464POPC   C1A33051   9.776  29.969   8.553
 7464POPC   D2A33052   9.714  29.948   8.253
 7464POPC   C3A33053   9.793  29.885   7.953
 7464POPC   C4A33054   9.752  29.901   7.653
 7464POPC   C1B33055   9.530  30.125   8.553
 7464POPC   C2B33056   9.555  30.126   8.253
 7464POPC   C3B33057   9.546  30.092   7.953
 7464POPC   C4B33058   9.600  30.051   7.653
 7465POPC   NC333059  43.070   9.781   9.453
 7465POPC   PO433060  43.148   9.735   9.153
 7465POPC   GL133061  43.152   9.757   8.853
 7465POPC   GL233062  43.146   9.607   8.853
 7465POPC   C1A33063  43.154   9.709   8.553
 7465POPC   D2A33064  43.081   9.710   8.253
 7465POPC   C3A33065  43.117   9.709   7.953
 7465POPC   C4A33066  43.077   9.791   7.653
 7465POPC   C1B33067  43.280   9.568   8.553
 7465POPC   C2B33068  43.228   9.594   8.253
 7465POPC   C3B33069  43.243   9.555   7.953
 7465POPC   C4B33070  43.292   9.505   7.653
 7466POPC   NC333071  23.703  28.400   9.453
 7466POPC   PO433072  23.711  28.387   9.153
 7466POPC   GL133073  23.667  28.359   8.853
 7466POPC   GL233074  23.551  28.377   8.853
 7466POPC   C1A33075  23.676  28.324   8.553
 7466POPC   D2A33076  23.682  28.372   8.253
 7466POPC   C3A33077  23.734  28.327   7.953
 7466POPC   C4A33078  23.756  28.409   7.653
 7466POPC   C1B33079  23.460  28.330   8.553
 7466POPC   C2B33080  23.429  28.262   8.253
 7466POPC   C3B33081  23.443  28.333   7.953
 7466POPC   C4B33082  23.481  28.315   7.653
 7467POPC   NC333083  34.577  44.634   9.453
 7467POPC   PO433084  34.586  44.613   9.153
 7467POPC   GL133085  34.612  44.652   8.853
 7467POPC   GL233086  34.529  44.754   8.853
 7467POPC   C1A33087  34.594  44.633   8.553
 7467POPC   D2A33088  34.542  44.687   8.253
 7467POPC   C3A33089  34.530  44.705   7.953
 7467POPC   C4A33090  34.605  44.649   7.653
 7467POPC   C1B33091  34.499  44.878   8.553
 7467POPC   C2B33092  34.549  44.881   8.253
 7467POPC   C3B33093  34.499  44.943   7.953
 7467POPC   C4B33094  34.512  44.870   7.653
 7468POPC   NC333095  44.645  42.361   9.453
 7468POPC   PO433096  44.634  42.300   9.153
 7468POPC   GL133097  44.703  42.362   8.853
 7468POPC   GL233098  44.701  42.425   8.853
 7468POPC   C1A33099  44.620  42.312   8.553
 7468POPC   D2A33100  44.612  42.342   8.253
 7468POPC   C3A33101  44.663  42.289   7.953
 7468POPC   C4A33102  44.656  42.285   7.653
 7468POPC   C1B33103  44.836  42.505   8.553
 7468POPC   C2B33104  44.767  42.554   8.253
 7468POPC   C3B33105  44.743  42.510   7.953
 7468POPC   C4B33106  44.769  42.537   7.653
 7469POPC   NC333107  22.126  27.579   9.453
 7469POPC   PO433108  22.138  27.575   9.153
 7469POPC   GL133109  22.186  27.547   8.853
 7469POPC   GL233110  22.021  27.536   8.853
 7469POPC   C1A33111  22.173  27.555   8.553
 7469POPC   D2A33112  22.195  27.599   8.253
 7469POPC   C3A33113  22.175  27.601   7.953
 7469POPC   C4A33114  22.174  27.594   7.653
 7469POPC   C1B33115  21.951  27.589   8.553
 7469POPC   C2B33116  21.917  27.572   8.253
 7469POPC   C3B33117  21.942  27.538   7.953
 7469POPC   C4B33118  21.954  27.540   7.653
 7470POPC   NC333119  33.066  37.726   9.453
 7470POPC   PO433120  33.042  37.647   9.153
 7470POPC   GL133121  33.002  37.656   8.853
 7470POPC   GL233122  33.194  37.684   8.853
 7470POPC   C1A33123  33.074  37.716   8.553
 7470POPC   D2A33124  33.019  37.693   8.253
 7470POPC   C3A33125  33.069  37.685   7.953
 7470POPC   C4A33126  32.993  37.664   7.653
 7470POPC   C1B33127  33.246  37.712   8.553
 7470POPC   C2B33128  33.228  37.670   8.253
 7470POPC   C3B33129  33.300  37.689   7.953
 7470POPC   C4B33130  33.310  37.717   7.653
 7471POPC   NC333131  20.610  19.053   9.453
 7471POPC   PO433132  20.639  19.071   9.153
 7471POPC   GL133133  20.660  19.088   8.853
 7471POPC   GL233134  20.692  19.171   8.853
 7471POPC   C1A33135  20.650  19.060   8.553
 7471POPC   D2A33136  20.605  19.045   8.253
 7471POPC   C3A33137  20.657  19.106   7.953
 7471POPC   C4A33138  20.642  19.075   7.653
 7471POPC   C1B33139  20.702  19.300   8.553
 7471POPC   C2B33140  20.723  19.290   8.253
 7471POPC   C3B33141  20.668  19.279   7.953
 7471POPC   C4B33142  20.730  19.296   7.653
 7472POPC   NC333143  39.263  11.261   9.453
 7472POPC   PO433144  39.210  11.338   9.153
 7472POPC   GL133145  39.243  11.288   8.853
 7472POPC   GL233146  39.121  11.232   8.853
 7472POPC   C1A33147  39.280  11.285   8.553
 7472POPC   D2A33148  39.183  11.292   8.253
 7472POPC   C3A33149  39.258  11.286   7.953
 7472POPC   C4A33150  39.225  11.323   7.653
 7472POPC   C1B33151  38.939  11.234   8.553
 7472POPC   C2B33152  39.017  11.251   8.253
 7472POPC   C3B33153  39.036  11.214   7.953
 7472POPC   C4B33154  39.013  11.222   7.653
 7473POPC   NC333155  32.228  26.035   9.453
 7473POPC   PO433156  32.281  26.085   9.153
 7473POPC   GL133157  32.266  26.079   8.853
 7473POPC   GL233158  32.116  25.970   8.853
 7473POPC   C1A33159  32.272  26.039   8.553
 7473POPC   D2A33160  32.263  26.024   8.253
 7473POPC   C3A33161  32.226  25.999   7.953
 7473POPC   C4A33162  32.292  26.054   7.653
 7473POPC   C1B33163  32.032  25.929   8.553
 7473POPC   C2B33164  31.994  25.903   8.253
 7473POPC   C3B33165  32.083  25.900   7.953
 7473POPC   C4B33166  32.035  25.936   7.653
 7474POPC   NC333167  29.959  37.633   9.453
 7474POPC   PO433168  29.910  37.705   9.153
 7474POPC   GL133169  29.896  37.650   8.853
 7474POPC   GL233170  29.890  37.814   8.853
 7474POPC   C1A33171  29.935  37.712   8.553
 7474POPC   D2A33172  29.963  37.688   8.253
 7474POPC   C3A33173  29.924  37.723   7.953
 7474POPC   C4A33174  29.939  37.663   7.653
 7474POPC   C1B33175  29.978  37.946   8.553
 7474POPC   C2B33176  29.950  37.951   8.253
 7474POPC   C3B33177  29.965  37.949   7.953
 7474POPC   C4B33178  29.936  37.944   7.653
 7475POPC   NC333179  20.562  15.138   9.453
 7475POPC   PO433180  20.659  15.191   9.153
 7475POPC   GL133181  20.593  15.155   8.853
 7475POPC   GL233182  20.736  15.245   8.853
 7475POPC   C1A33183  20.598  15.160   8.553
 7475POPC   D2A33184  20.657  15.144   8.253
 7475POPC   C3A33185  20.581  15.146   7.953
 7475POPC   C4A33186  20.617  15.183   7.653
 7475POPC   C1B33187  20.874  15.237   8.553
 7475POPC   C2B33188  20.865  15.171   8.253
 7475POPC   C3B33189  20.815  15.239   7.953
 7475POPC   C4B33190  20.838  15.220   7.653
 7476POPC   NC333191   5.895  40.020   9.453
 7476POPC   PO433192   5.824  40.049   9.153
 7476POPC   GL133193   5.820  39.962   8.853
 7476POPC   GL233194   5.922  39.905   8.853
 7476POPC   C1A33195   5.906  40.043   8.553
 7476POPC   D2A33196   5.831  40.033   8.253
 7476POPC   C3A33197   5.888  40.034   7.953
 7476POPC   C4A33198   5.880  39.993   7.653
 7476POPC   C1B33199   5.892  39.758   8.553
 7476POPC   C2B33200   5.917  39.793   8.253
 7476POPC   C3B33201   5.926  39.783   7.953
 7476POPC   C4B33202   5.878  39.740   7.653
 7477POPC   NC333203  34.602  28.378   9.453
 7477POPC   PO433204  34.616  28.405   9.153
 7477POPC   GL133205  34.611  28.380   8.853
 7477POPC   GL233206  34.715  28.288   8.853
 7477POPC   C1A33207  34.562  28.390   8.553
 7477POPC   D2A33208  34.556  28.364   8.253
 7477POPC   C3A33209  34.579  28.359   7.953
 7477POPC   C4A33210  34.578  28.348   7.653
 7477POPC   C1B33211  34.759  28.259   8.553
 7477POPC   C2B33212  34.817  28.240   8.253
 7477POPC   C3B33213  34.846  28.240   7.953
 7477POPC   C4B33214  34.787  28.235   7.653
 7478POPC   NC333215   5.068  32.282   9.453
 7478POPC   PO433216   5.066  32.222   9.153
 7478POPC   GL133217   5.051  32.240   8.853
 7478POPC   GL233218   4.946  32.352   8.853
 7478POPC   C1A33219   5.108  32.259   8.553
 7478POPC   D2A33220   5.137  32.214   8.253
 7478POPC   C3A33221   5.046  32.274   7.953
 7478POPC   C4A33222   5.056  32.249   7.653
 7478POPC   C1B33223   4.894  32.417   8.553
 7478POPC   C2B33224   4.871  32.385   8.253
 7478POPC   C3B33225   4.871  32.382   7.953
 7478POPC   C4B33226   4.913  32.438   7.653
 7479POPC   NC333227   6.690  15.220   9.453
 7479POPC   PO433228   6.632  15.198   9.153
 7479POPC   GL133229   6.668  15.185   8.853
 7479POPC   GL233230   6.502  15.147   8.853
 7479POPC   C1A33231   6.642  15.136   8.553
 7479POPC   D2A33232   6.677  15.185   8.253
 7479POPC   C3A33233   6.668  15.153   7.953
 7479POPC   C4A33234   6.637  15.185   7.653
 7479POPC   C1B33235   6.431  15.218   8.553
 7479POPC   C2B33236   6.356  15.170   8.253
 7479POPC   C3B33237   6.406  15.184   7.953
 7479POPC   C4B33238   6.357  15.180   7.653
 7480POPC   NC333239  22.126   2.758   9.453
 7480POPC   PO433240  22.176   2.802   9.153
 7480POPC   GL133241  22.126   2.759   8.853
 7480POPC   GL233242  22.227   2.846   8.853
 7480POPC   C1A33243  22.190   2.765   8.553
 7480POPC   D2A33244  22.146   2.752   8.253
 7480POPC   C3A33245  22.164   2.801   7.953
 7480POPC   C4A33246  22.210   2.806   7.653
 7480POPC   C1B33247  22.302   2.892   8.553
 7480POPC   C2B33248  22.366   2.960   8.253
 7480POPC   C3B33249  22.333   2.886   7.953
 7480POPC   C4B33250  22.328   2.914   7.653
 7481POPC   NC333251  19.017  17.509   9.453
 7481POPC   PO433252  19.018  17.556   9.153
 7481POPC   GL133253  19.035  17.536   8.853
 7481POPC   GL233254  18.966  17.638   8.853
 7481POPC   C1A33255  19.027  17.466   8.553
 7481POPC   D2A33256  19.082  17.476   8.253
 7481POPC   C3A33257  19.041  17.466   7.953
 7481POPC   C4A33258  19.020  17.552   7.653
 7481POPC   C1B33259  18.975  17.697   8.553
 7481POPC   C2B33260  18.893  17.762   8.253
 7481POPC   C3B33261  18.944  17.742   7.953
 7481POPC   C4B33262  18.973  17.740   7.653
 7482POPC   NC333263  23.707   5.130   9.453
 7482POPC   PO433264  23.671   5.102   9.153
 7482POPC   GL133265  23.734   5.059   8.853
 7482POPC   GL233266  23.840   5.028   8.853
 7482POPC   C1A33267  23.698   5.060   8.553
 7482POPC   D2A33268  23.696   5.134   8.253
 7482POPC   C3A33269  23.740   5.062   7.953
 7482POPC   C4A33270  23.752   5.140   7.653
 7482POPC   C1B33271  23.940   5.064   8.553
 7482POPC   C2B33272  23.920   5.080   8.253
 7482POPC   C3B33273  23.989   5.043   7.953
 7482POPC   C4B33274  23.919   5.106   7.653
 7483POPC   NC333275  28.378  16.756   9.453
 7483POPC   PO433276  28.397  16.720   9.153
 7483POPC   GL133277  28.373  16.725   8.853
 7483POPC   GL233278  28.313  16.827   8.853
 7483POPC   C1A33279  28.351  16.774   8.553
 7483POPC   D2A33280  28.348  16.686   8.253
 7483POPC   C3A33281  28.332  16.731   7.953
 7483POPC   C4A33282  28.365  16.765   7.653
 7483POPC   C1B33283  28.266  16.942   8.553
 7483POPC   C2B33284  28.243  16.993   8.253
 7483POPC   C3B33285  28.258  16.961   7.953
 7483POPC   C4B33286  28.247  16.987   7.653
 7484POPC   NC333287  33.768  26.036   9.453
 7484POPC   PO433288  33.793  26.069   9.153
 7484POPC   GL133289  33.843  26.056   8.853
 7484POPC   GL233290  33.709  26.130   8.853
 7484POPC   C1A33291  33.832  25.992   8.553
 7484POPC   D2A33292  33.769  26.075   8.253
 7484POPC   C3A33293  33.759  26.084   7.953
 7484POPC   C4A33294  33.807  26.089   7.653
 7484POPC   C1B33295  33.557  26.160   8.553
 7484POPC   C2B33296  33.532  26.079   8.253
 7484POPC   C3B33297  33.559  26.093   7.953
 7484POPC   C4B33298  33.571  26.127   7.653
 7485POPC   NC333299  33.815   1.234   9.453
 7485POPC   PO433300  33.754   1.242   9.153
 7485POPC   GL133301  33.779   1.197   8.853
 7485POPC   GL233302  33.957   1.208   8.853
 7485POPC   C1A33303  33.758   1.231   8.553
 7485POPC   D2A33304  33.760   1.187   8.253
 7485POPC   C3A33305  33.836   1.217   7.953
 7485POPC   C4A33306  33.765   1.228   7.653
 7485POPC   C1B33307  34.090   1.221   8.553
 7485POPC   C2B33308  34.074   1.202   8.253
 7485POPC   C3B33309  34.003   1.250   7.953
 7485POPC   C4B33310  34.040   1.252   7.653
 7486POPC   NC333311  30.722  19.030   9.453
 7486POPC   PO433312  30.666  19.059   9.153
 7486POPC   GL133313  30.706  19.106   8.853
 7486POPC   GL233314  30.695  18.936   8.853
 7486POPC   C1A33315  30.739  19.100   8.553
 7486POPC   D2A33316  30.722  19.098   8.253
 7486POPC   C3A33317  30.648  19.015   7.953
 7486POPC   C4A33318  30.738  19.066   7.653
 7486POPC   C1B33319  30.660  18.829   8.553
 7486POPC   C2B33320  30.628  18.856   8.253
 7486POPC   C3B33321  30.626  18.802   7.953
 7486POPC   C4B33322  30.689  18.801   7.653
 7487POPC   NC333323   2.774  36.887   9.453
 7487POPC   PO433324   2.723  36.934   9.153
 7487POPC   GL133325   2.748  36.948   8.853
 7487POPC   GL233326   2.775  37.014   8.853
 7487POPC   C1A33327   2.761  36.949   8.553
 7487POPC   D2A33328   2.770  36.889   8.253
 7487POPC   C3A33329   2.799  36.896   7.953
 7487POPC   C4A33330   2.765  36.953   7.653
 7487POPC   C1B33331   2.749  37.112   8.553
 7487POPC   C2B33332   2.753  37.166   8.253
 7487POPC   C3B33333   2.749  37.156   7.953
 7487POPC   C4B33334   2.781  37.148   7.653
 7488POPC   NC333335   9.020  39.972   9.453
 7488POPC   PO433336   8.958  40.049   9.153
 7488POPC   GL133337   8.982  40.040   8.853
 7488POPC   GL233338   8.888  39.961   8.853
 7488POPC   C1A33339   8.994  39.992   8.553
 7488POPC   D2A33340   8.956  39.978   8.253
 7488POPC   C3A33341   9.004  40.007   7.953
 7488POPC   C4A33342   9.011  40.024   7.653
 7488POPC   C1B33343   8.730  39.965   8.553
 7488POPC   C2B33344   8.744  39.946   8.253
 7488POPC   C3B33345   8.764  40.026   7.953
 7488POPC   C4B33346   8.719  39.942   7.653
 7489POPC   NC333347   7.450   2.809   9.453
 7489POPC   PO433348   7.374   2.751   9.153
 7489POPC   GL133349   7.459   2.795   8.853
 7489POPC   GL233350   7.504   2.869   8.853
 7489POPC   C1A33351   7.373   2.794   8.553
 7489POPC   D2A33352   7.424   2.789   8.253
 7489POPC   C3A33353   7.375   2.752   7.953
 7489POPC   C4A33354   7.398   2.741   7.653
 7489POPC   C1B33355   7.610   2.914   8.553
 7489POPC   C2B33356   7.642   2.920   8.253
 7489POPC   C3B33357   7.671   2.848   7.953
 7489POPC   C4B33358   7.639   2.865   7.653
 7490POPC   NC333359   8.149  12.073   9.453
 7490POPC   PO433360   8.238  12.058   9.153
 7490POPC   GL133361   8.227  12.106   8.853
 7490POPC   GL233362   8.248  11.916   8.853
 7490POPC   C1A33363   8.213  12.088   8.553
 7490POPC   D2A33364   8.206  12.119   8.253
 7490POPC   C3A33365   8.218  12.032   7.953
 7490POPC   C4A33366   8.242  12.120   7.653
 7490POPC   C1B33367   8.233  11.872   8.553
 7490POPC   C2B33368   8.229  11.813   8.253
 7490POPC   C3B33369   8.247  11.841   7.953
 7490POPC   C4B33370   8.318  11.840   7.653
 7491POPC   NC333371  13.608  33.841   9.453
 7491POPC   PO433372  13.596  33.752   9.153
 7491POPC   GL133373  13.633  33.791   8.853
 7491POPC   GL233374  13.470  33.757   8.853
 7491POPC   C1A33375  13.659  33.815   8.553
 7491POPC   D2A33376  13.659  33.795   8.253
 7491POPC   C3A33377  13.649  33.761   7.953
 7491POPC   C4A33378  13.612  33.771   7.653
 7491POPC   C1B33379  13.403  33.775   8.553
 7491POPC   C2B33380  13.368  33.712   8.253
 7491POPC   C3B33381  13.373  33.720   7.953
 7491POPC   C4B33382  13.367  33.777   7.653
 7492POPC   NC333383  29.905  26.809   9.453
 7492POPC   PO433384  29.886  26.769   9.153
 7492POPC   GL133385  29.926  26.813   8.853
 7492POPC   GL233386  29.834  26.835   8.853
 7492POPC   C1A33387  29.922  26.813   8.553
 7492POPC   D2A33388  29.920  26.861   8.253
 7492POPC   C3A33389  29.931  26.859   7.953
 7492POPC   C4A33390  29.876  26.820   7.653
 7492POPC   C1B33391  29.717  26.943   8.553
 7492POPC   C2B33392  29.655  26.887   8.253
 7492POPC   C3B33393  29.740  26.963   7.953
 7492POPC   C4B33394  29.743  26.969   7.653
 7493POPC   NC333395  20.619  39.240   9.453
 7493POPC   PO433396  20.652  39.277   9.153
 7493POPC   GL133397  20.622  39.214   8.853
 7493POPC   GL233398  20.739  39.225   8.853
 7493POPC   C1A33399  20.617  39.234   8.553
 7493POPC   D2A33400  20.611  39.198   8.253
 7493POPC   C3A33401  20.654  39.215   7.953
 7493POPC   C4A33402  20.578  39.246   7.653
 7493POPC   C1B33403  20.905  39.246   8.553
 7493POPC   C2B33404  20.824  39.188   8.253
 7493POPC   C3B33405  20.867  39.234   7.953
 7493POPC   C4B33406  20.839  39.241   7.653
 7494POPC   NC333407   2.785  30.649   9.453
 7494POPC   PO433408   2.727  30.714   9.153
 7494POPC   GL133409   2.737  30.649   8.853
 7494POPC   GL233410   2.759  30.831   8.853
 7494POPC   C1A33411   2.791  30.651   8.553
 7494POPC   D2A33412   2.739  30.696   8.253
 7494POPC   C3A33413   2.801  30.716   7.953
 7494POPC   C4A33414   2.738  30.721   7.653
 7494POPC   C1B33415   2.627  30.899   8.553
 7494POPC   C2B33416   2.625  30.948   8.253
 7494POPC   C3B33417   2.636  30.931   7.953
 7494POPC   C4B33418   2.632  30.961   7.653
 7495POPC   NC333419  42.285   0.471   9.453
 7495POPC   PO433420  42.294   0.485   9.153
 7495POPC   GL133421  42.326   0.397   8.853
 7495POPC   GL233422  42.341   0.357   8.853
 7495POPC   C1A33423  42.334   0.424   8.553
 7495POPC   D2A33424  42.381   0.399   8.253
 7495POPC   C3A33425  42.298   0.404   7.953
 7495POPC   C4A33426  42.378   0.447   7.653
 7495POPC   C1B33427  42.351   0.197   8.553
 7495POPC   C2B33428  42.369   0.203   8.253
 7495POPC   C3B33429  42.354   0.222   7.953
 7495POPC   C4B33430  42.324   0.234   7.653
 7496POPC   NC333431   9.781   0.436   9.453
 7496POPC   PO433432   9.737   0.389   9.153
 7496POPC   GL133433   9.724   0.471   8.853
 7496POPC   GL233434   9.674   0.382   8.853
 7496POPC   C1A33435   9.722   0.389   8.553
 7496POPC   D2A33436   9.727   0.484   8.253
 7496POPC   C3A33437   9.750   0.407   7.953
 7496POPC   C4A33438   9.749   0.443   7.653
 7496POPC   C1B33439   9.574   0.283   8.553
 7496POPC   C2B33440   9.508   0.314   8.253
 7496POPC   C3B33441   9.508   0.234   7.953
 7496POPC   C4B33442   9.520   0.285   7.653
 7497POPC   NC333443  42.315  34.575   9.453
 7497POPC   PO433444  42.339  34.600   9.153
 7497POPC   GL133445  42.333  34.526   8.853
 7497POPC   GL233446  42.486  34.463   8.853
 7497POPC   C1A33447  42.335  34.600   8.553
 7497POPC   D2A33448  42.330  34.601   8.253
 7497POPC   C3A33449  42.334  34.618   7.953
 7497POPC   C4A33450  42.380  34.619   7.653
 7497POPC   C1B33451  42.505  34.492   8.553
 7497POPC   C2B33452  42.578  34.493   8.253
 7497POPC   C3B33453  42.564  34.480   7.953
 7497POPC   C4B33454  42.569  34.459   7.653
 7498POPC   NC333455  33.768  35.379   9.453
 7498POPC   PO433456  33.801  35.391   9.153
 7498POPC   GL133457  33.815  35.325   8.853
 7498POPC   GL233458  33.726  35.369   8.853
 7498POPC   C1A33459  33.823  35.303   8.553
 7498POPC   D2A33460  33.800  35.387   8.253
 7498POPC   C3A33461  33.845  35.353   7.953
 7498POPC   C4A33462  33.817  35.357   7.653
 7498POPC   C1B33463  33.544  35.344   8.553
 7498POPC   C2B33464  33.586  35.290   8.253
 7498POPC   C3B33465  33.595  35.297   7.953
 7498POPC   C4B33466  33.549  35.318   7.653
 7499POPC   NC333467  28.402  43.096   9.453
 7499POPC   PO433468  28.409  43.082   9.153
 7499POPC   GL133469  28.368  43.158   8.853
 7499POPC   GL233470  28.531  43.126   8.853
 7499POPC   C1A33471  28.326  43.085   8.553
 7499POPC   D2A33472  28.355  43.066   8.253
 7499POPC   C3A33473  28.328  43.130   7.953
 7499POPC   C4A33474  28.356  43.138   7.653
 7499POPC   C1B33475  28.650  43.101   8.553
 7499POPC   C2B33476  28.631  43.146   8.253
 7499POPC   C3B33477  28.649  43.108   7.953
 7499POPC   C4B33478  28.606  43.110   7.653
 7500POPC   NC333479   6.618   3.554   9.453
 7500POPC   PO433480   6.676   3.535   9.153
 7500POPC   GL133481   6.644   3.585   8.853
 7500POPC   GL233482   6.496   3.588   8.853
 7500POPC   C1A33483   6.687   3.519   8.553
 7500POPC   D2A33484   6.658   3.584   8.253
 7500POPC   C3A33485   6.691   3.506   7.953
 7500POPC   C4A33486   6.675   3.576   7.653
 7500POPC   C1B33487   6.441   3.662   8.553
 7500POPC   C2B33488   6.363   3.644   8.253
 7500POPC   C3B33489   6.437   3.569   7.953
 7500POPC   C4B33490   6.365   3.594   7.653
 7501POPC   NC333491  36.126  33.806   9.453
 7501POPC   PO433492  36.145  33.763   9.153
 7501POPC   GL133493  36.130  33.824   8.853
 7501POPC   GL233494  36.093  33.648   8.853
 7501POPC   C1A33495  36.176  33.810   8.553
 7501POPC   D2A33496  36.127  33.814   8.253
 7501POPC   C3A33497  36.174  33.765   7.953
 7501POPC   C4A33498  36.089  33.801   7.653
 7501POPC   C1B33499  36.033  33.547   8.553
 7501POPC   C2B33500  36.024  33.565   8.253
 7501POPC   C3B33501  35.963  33.629   7.953
 7501POPC   C4B33502  35.964  33.541   7.653
 7502POPC   NC333503  22.914  22.204   9.453
 7502POPC   PO433504  22.909  22.149   9.153
 7502POPC   GL133505  22.938  22.133   8.853
 7502POPC   GL233506  22.948  22.022   8.853
 7502POPC   C1A33507  22.899  22.120   8.553
 7502POPC   D2A33508  22.924  22.142   8.253
 7502POPC   C3A33509  22.963  22.112   7.953
 7502POPC   C4A33510  22.966  22.149   7.653
 7502POPC   C1B33511  22.901  21.900   8.553
 7502POPC   C2B33512  22.849  21.898   8.253
 7502POPC   C3B33513  22.851  21.952   7.953
 7502POPC   C4B33514  22.843  21.934   7.653
 7503POPC   NC333515  39.985   2.011   9.453
 7503POPC   PO433516  39.996   1.966   9.153
 7503POPC   GL133517  39.981   1.940   8.853
 7503POPC   GL233518  39.987   1.885   8.853
 7503POPC   C1A33519  40.033   1.969   8.553
 7503POPC   D2A33520  40.041   1.954   8.253
 7503POPC   C3A33521  40.004   2.012   7.953
 7503POPC   C4A33522  40.037   1.994   7.653
 7503POPC   C1B33523  40.014   1.785   8.553
 7503POPC   C2B33524  40.003   1.748   8.253
 7503POPC   C3B33525  40.066   1.703   7.953
 7503POPC   C4B33526  40.064   1.787   7.653
 7504POPC   NC333527  40.051  12.040   9.453
 7504POPC   PO433528  40.004  12.106   9.153
 7504POPC   GL133529  40.037  12.095   8.853
 7504POPC   GL233530  39.863  12.005   8.853
 7504POPC   C1A33531  39.968  12.069   8.553
 7504POPC   D2A33532  39.993  12.082   8.253
 7504POPC   C3A33533  39.977  12.105   7.953
 7504POPC   C4A33534  39.962  12.073   7.653
 7504POPC   C1B33535  39.755  12.001   8.553
 7504POPC   C2B33536  39.791  11.958   8.253
 7504POPC   C3B33537  39.791  11.940   7.953
 7504POPC   C4B33538  39.780  11.971   7.653
 7505POPC   NC333539  26.040  40.765   9.453
 7505POPC   PO433540  26.044  40.748   9.153
 7505POPC   GL133541  26.075  40.786   8.853
 7505POPC   GL233542  26.120  40.832   8.853
 7505POPC   C1A33543  26.021  40.767   8.553
 7505POPC   D2A33544  26.034  40.751   8.253
 7505POPC   C3A33545  26.059  40.799   7.953
 7505POPC   C4A33546  26.012  40.774   7.653
 7505POPC   C1B33547  26.232  40.908   8.553
 7505POPC   C2B33548  26.252  40.988   8.253
 7505POPC   C3B33549  26.257  41.007   7.953
 7505POPC   C4B33550  26.237  40.976   7.653
 7506POPC   NC333551  30.711  29.175   9.453
 7506POPC   PO433552  30.707  29.192   9.153
 7506POPC   GL133553  30.706  29.165   8.853
 7506POPC   GL233554  30.783  29.105   8.853
 7506POPC   C1A33555  30.726  29.125   8.553
 7506POPC   D2A33556  30.744  29.108   8.253
 7506POPC   C3A33557  30.717  29.185   7.953
 7506POPC   C4A33558  30.728  29.161   7.653
 7506POPC   C1B33559  30.921  29.153   8.553
 7506POPC   C2B33560  30.944  29.191   8.253
 7506POPC   C3B33561  30.936  29.182   7.953
 7506POPC   C4B33562  30.961  29.169   7.653
 7507POPC   NC333563   1.978   9.723   9.453
 7507POPC   PO433564   2.015   9.755   9.153
 7507POPC   GL133565   2.006   9.728   8.853
 7507POPC   GL233566   1.977   9.909   8.853
 7507POPC   C1A33567   2.032   9.761   8.553
 7507POPC   D2A33568   2.013   9.732   8.253
 7507POPC   C3A33569   1.985   9.787   7.953
 7507POPC   C4A33570   2.028   9.791   7.653
 7507POPC   C1B33571   2.080   9.977   8.553
 7507POPC   C2B33572   2.031   9.971   8.253
 7507POPC   C3B33573   2.078  10.023   7.953
 7507POPC   C4B33574   2.085  10.026   7.653
 7508POPC   NC333575  43.140  24.465   9.453
 7508POPC   PO433576  43.091  24.512   9.153
 7508POPC   GL133577  43.126  24.539   8.853
 7508POPC   GL233578  43.230  24.479   8.853
 7508POPC   C1A33579  43.111  24.468   8.553
 7508POPC   D2A33580  43.078  24.532   8.253
 7508POPC   C3A33581  43.120  24.525   7.953
 7508POPC   C4A33582  43.085  24.488   7.653
 7508POPC   C1B33583  43.352  24.349   8.553
 7508POPC   C2B33584  43.377  24.400   8.253
 7508POPC   C3B33585  43.375  24.435   7.953
 7508POPC   C4B33586  43.375  24.340   7.653
 7509POPC   NC333587  40.799   4.363   9.453
 7509POPC   PO433588  40.758   4.330   9.153
 7509POPC   GL133589  40.735   4.318   8.853
 7509POPC   GL233590  40.744   4.487   8.853
 7509POPC   C1A33591  40.804   4.290   8.553
 7509POPC   D2A33592  40.776   4.278   8.253
 7509POPC   C3A33593  40.813   4.334   7.953
 7509POPC   C4A33594  40.779   4.318   7.653
 7509POPC   C1B33595  40.717   4.523   8.553
 7509POPC   C2B33596  40.735   4.526   8.253
 7509POPC   C3B33597  40.703   4.597   7.953
 7509POPC   C4B33598  40.708   4.606   7.653
 7510POPC   NC333599  29.929   6.638   9.453
 7510POPC   PO433600  29.960   6.669   9.153
 7510POPC   GL133601  29.884   6.679   8.853
 7510POPC   GL233602  29.951   6.571   8.853
 7510POPC   C1A33603  29.911   6.670   8.553
 7510POPC   D2A33604  29.955   6.625   8.253
 7510POPC   C3A33605  29.953   6.646   7.953
 7510POPC   C4A33606  29.874   6.672   7.653
 7510POPC   C1B33607  30.081   6.411   8.553
 7510POPC   C2B33608  29.989   6.465   8.253
 7510POPC   C3B33609  30.001   6.458   7.953
 7510POPC   C4B33610  29.991   6.443   7.653
 7511POPC   NC333611  26.828  36.165   9.453
 7511POPC   PO433612  26.779  36.082   9.153
 7511POPC   GL133613  26.782  36.097   8.853
 7511POPC   GL233614  26.841  36.038   8.853
 7511POPC   C1A33615  26.804  36.104   8.553
 7511POPC   D2A33616  26.813  36.116   8.253
 7511POPC   C3A33617  26.865  36.164   7.953
 7511POPC   C4A33618  26.813  36.120   7.653
 7511POPC   C1B33619  26.933  35.886   8.553
 7511POPC   C2B33620  26.920  35.949   8.253
 7511POPC   C3B33621  26.912  35.952   7.953
 7511POPC   C4B33622  26.958  35.946   7.653
 7512POPC   NC333623  39.999  16.698   9.453
 7512POPC   PO433624  40.038  16.688   9.153
 7512POPC   GL133625  39.984  16.696   8.853
 7512POPC   GL233626  40.028  16.639   8.853
 7512POPC   C1A33627  40.021  16.715   8.553
 7512POPC   D2A33628  39.978  16.736   8.253
 7512POPC   C3A33629  40.031  16.750   7.953
 7512POPC   C4A33630  40.032  16.734   7.653
 7512POPC   C1B33631  39.973  16.451   8.553
 7512POPC   C2B33632  39.976  16.437   8.253
 7512POPC   C3B33633  39.934  16.506   7.953
 7512POPC   C4B33634  40.020  16.514   7.653
 7513POPC   NC333635  12.803  32.975   9.453
 7513POPC   PO433636  12.843  33.023   9.153
 7513POPC   GL133637  12.899  33.025   8.853
 7513POPC   GL233638  12.862  33.117   8.853
 7513POPC   C1A33639  12.831  32.991   8.553
 7513POPC   D2A33640  12.825  33.070   8.253
 7513POPC   C3A33641  12.827  32.989   7.953
 7513POPC   C4A33642  12.878  33.027   7.653
 7513POPC   C1B33643  12.903  33.212   8.553
 7513POPC   C2B33644  12.961  33.307   8.253
 7513POPC   C3B33645  12.890  33.291   7.953
 7513POPC   C4B33646  12.912  33.234   7.653
 7514POPC   NC333647  27.571  19.809   9.453
 7514POPC   PO433648  27.577  19.838   9.153
 7514POPC   GL133649  27.549  19.830   8.853
 7514POPC   GL233650  27.740  19.897   8.853
 7514POPC   C1A33651  27.613  19.850   8.553
 7514POPC   D2A33652  27.617  19.867   8.253
 7514POPC   C3A33653  27.615  19.814   7.953
 7514POPC   C4A33654  27.615  19.873   7.653
 7514POPC   C1B33655  27.763  19.990   8.553
 7514POPC   C2B33656  27.842  20.015   8.253
 7514POPC   C3B33657  27.830  19.947   7.953
 7514POPC   C4B33658  27.759  19.992   7.653
 7515POPC   NC333659  22.904   2.005   9.453
 7515POPC   PO433660  22.951   1.943   9.153
 7515POPC   GL133661  22.980   2.014   8.853
 7515POPC   GL233662  22.864   2.069   8.853
 7515POPC   C1A33663  22.914   1.955   8.553
 7515POPC   D2A33664  22.956   1.941   8.253
 7515POPC   C3A33665  22.902   1.957   7.953
 7515POPC   C4A33666  22.959   2.028   7.653
 7515POPC   C1B33667  22.748   2.071   8.553
 7515POPC   C2B33668  22.732   2.103   8.253
 7515POPC   C3B33669  22.743   2.140   7.953
 7515POPC   C4B33670  22.688   2.080   7.653
 7516POPC   NC333671  29.923   0.478   9.453
 7516POPC   PO433672  29.920   0.422   9.153
 7516POPC   GL133673  29.882   0.444   8.853
 7516POPC   GL233674  29.970   0.338   8.853
 7516POPC   C1A33675  29.921   0.470   8.553
 7516POPC   D2A33676  29.930   0.433   8.253
 7516POPC   C3A33677  29.936   0.439   7.953
 7516POPC   C4A33678  29.895   0.410   7.653
 7516POPC   C1B33679  30.064   0.220   8.553
 7516POPC   C2B33680  29.995   0.175   8.253
 7516POPC   C3B33681  30.042   0.226   7.953
 7516POPC   C4B33682  30.066   0.239   7.653
 7517POPC   NC333683  32.264  33.017   9.453
 7517POPC   PO433684  32.204  32.994   9.153
 7517POPC   GL133685  32.219  33.071   8.853
 7517POPC   GL233686  32.086  33.021   8.853
 7517POPC   C1A33687  32.206  32.977   8.553
 7517POPC   D2A33688  32.283  33.003   8.253
 7517POPC   C3A33689  32.295  33.037   7.953
 7517POPC   C4A33690  32.221  33.060   7.653
 7517POPC   C1B33691  31.964  32.963   8.553
 7517POPC   C2B33692  32.011  32.988   8.253
 7517POPC   C3B33693  32.020  32.897   7.953
 7517POPC   C4B33694  32.025  32.914   7.653
 7518POPC   NC333695  43.868   4.273   9.453
 7518POPC   PO433696  43.899   4.323   9.153
 7518POPC   GL133697  43.883   4.309   8.853
 7518POPC   GL233698  43.878   4.177   8.853
 7518POPC   C1A33699  43.856   4.361   8.553
 7518POPC   D2A33700  43.866   4.280   8.253
 7518POPC   C3A33701  43.919   4.352   7.953
 7518POPC   C4A33702  43.899   4.363   7.653
 7518POPC   C1B33703  43.740   4.052   8.553
 7518POPC   C2B33704  43.811   4.111   8.253
 7518POPC   C3B33705  43.734   4.117   7.953
 7518POPC   C4B33706  43.772   4.120   7.653
 7519POPC   NC333707  40.005  30.739   9.453
 7519POPC   PO433708  40.035  30.696   9.153
 7519POPC   GL133709  39.988  30.683   8.853
 7519POPC   GL233710  39.913  30.592   8.853
 7519POPC   C1A33711  39.973  30.655   8.553
 7519POPC   D2A33712  39.986  30.718   8.253
 7519POPC   C3A33713  40.037  30.714   7.953
 7519POPC   C4A33714  39.981  30.725   7.653
 7519POPC   C1B33715  39.857  30.472   8.553
 7519POPC   C2B33716  39.870  30.484   8.253
 7519POPC   C3B33717  39.835  30.493   7.953
 7519POPC   C4B33718  39.864  30.519   7.653
 7520POPC   NC333719   8.940  15.175   9.453
 7520POPC   PO433720   8.950  15.168   9.153
 7520POPC   GL133721   9.020  15.152   8.853
 7520POPC   GL233722   8.884  15.145   8.853
 7520POPC   C1A33723   8.979  15.142   8.553
 7520POPC   D2A33724   8.934  15.214   8.253
 7520POPC   C3A33725   8.948  15.146   7.953
 7520POPC   C4A33726   8.939  15.214   7.653
 7520POPC   C1B33727   8.709  15.102   8.553
 7520POPC   C2B33728   8.779  15.105   8.253
 7520POPC   C3B33729   8.791  15.119   7.953
 7520POPC   C4B33730   8.789  15.090   7.653
 7521POPC   NC333731  42.356  29.902   9.453
 7521POPC   PO433732  42.327  29.923   9.153
 7521POPC   GL133733  42.288  29.926   8.853
 7521POPC   GL233734  42.250  29.899   8.853
 7521POPC   C1A33735  42.357  29.918   8.553
 7521POPC   D2A33736  42.285  29.951   8.253
 7521POPC   C3A33737  42.289  29.941   7.953
 7521POPC   C4A33738  42.317  29.921   7.653
 7521POPC   C1B33739  42.090  29.893   8.553
 7521POPC   C2B33740  42.081  29.907   8.253
 7521POPC   C3B33741  42.058  29.918   7.953
 7521POPC   C4B33742  42.044  29.885   7.653
 7522POPC   NC333743  37.719  11.270   9.453
 7522POPC   PO433744  37.635  11.269   9.153
 7522POPC   GL133745  37.657  11.319   8.853
 7522POPC   GL233746  37.629  11.425   8.853
 7522POPC   C1A33747  37.672  11.255   8.553
 7522POPC   D2A33748  37.701  11.270   8.253
 7522POPC   C3A33749  37.682  11.260   7.953
 7522POPC   C4A33750  37.698  11.321   7.653
 7522POPC   C1B33751  37.532  11.443   8.553
 7522POPC   C2B33752  37.517  11.528   8.253
 7522POPC   C3B33753  37.536  11.452   7.953
 7522POPC   C4B33754  37.562  11.455   7.653
 7523POPC   NC333755  43.847   8.223   9.453
 7523POPC   PO433756  43.886   8.238   9.153
 7523POPC   GL133757  43.895   8.210   8.853
 7523POPC   GL233758  43.867   8.336   8.853
 7523POPC   C1A33759  43.908   8.169   8.553
 7523POPC   D2A33760  43.912   8.216   8.253
 7523POPC   C3A33761  43.894   8.203   7.953
 7523POPC   C4A33762  43.898   8.232   7.653
 7523POPC   C1B33763  43.765   8.419   8.553
 7523POPC   C2B33764  43.793   8.410   8.253
 7523POPC   C3B33765  43.791   8.437   7.953
 7523POPC   C4B33766  43.823   8.416   7.653
 7524POPC   NC333767  41.576  43.855   9.453
 7524POPC   PO433768  41.526  43.899   9.153
 7524POPC   GL133769  41.554  43.882   8.853
 7524POPC   GL233770  41.583  43.988   8.853
 7524POPC   C1A33771  41.564  43.880   8.553
 7524POPC   D2A33772  41.517  43.935   8.253
 7524POPC   C3A33773  41.577  43.884   7.953
 7524POPC   C4A33774  41.526  43.908   7.653
 7524POPC   C1B33775  41.578  44.157   8.553
 7524POPC   C2B33776  41.580  44.169   8.253
 7524POPC   C3B33777  41.604  44.090   7.953
 7524POPC   C4B33778  41.613  44.162   7.653
 7525POPC   NC333779  28.372  12.070   9.453
 7525POPC   PO433780  28.353  12.111   9.153
 7525POPC   GL133781  28.416  12.121   8.853
 7525POPC   GL233782  28.293  12.029   8.853
 7525POPC   C1A33783  28.389  12.082   8.553
 7525POPC   D2A33784  28.396  12.102   8.253
 7525POPC   C3A33785  28.332  12.110   7.953
 7525POPC   C4A33786  28.384  12.115   7.653
 7525POPC   C1B33787  28.189  12.003   8.553
 7525POPC   C2B33788  28.145  11.955   8.253
 7525POPC   C3B33789  28.169  11.997   7.953
 7525POPC   C4B33790  28.097  12.012   7.653
 7526POPC   NC333791   2.729   9.706   9.453
 7526POPC   PO433792   2.799   9.774   9.153
 7526POPC   GL133793   2.813   9.748   8.853
 7526POPC   GL233794   2.846   9.798   8.853
 7526POPC   C1A33795   2.807   9.779   8.553
 7526POPC   D2A33796   2.717   9.705   8.253
 7526POPC   C3A33797   2.785   9.780   7.953
 7526POPC   C4A33798   2.754   9.770   7.653
 7526POPC   C1B33799   3.001   9.873   8.553
 7526POPC   C2B33800   3.009   9.856   8.253
 7526POPC   C3B33801   3.034   9.878   7.953
 7526POPC   C4B33802   2.997   9.897   7.653
 7527POPC   NC333803  44.636  16.707   9.453
 7527POPC   PO433804  44.638  16.767   9.153
 7527POPC   GL133805  44.625  16.775   8.853
 7527POPC   GL233806  44.649  16.597   8.853
 7527POPC   C1A33807  44.658  16.754   8.553
 7527POPC   D2A33808  44.624  16.765   8.253
 7527POPC   C3A33809  44.664  16.776   7.953
 7527POPC   C4A33810  44.655  16.714   7.653
 7527POPC   C1B33811  44.616  16.520   8.553
 7527POPC   C2B33812  44.533  16.529   8.253
 7527POPC   C3B33813  44.594  16.524   7.953
 7527POPC   C4B33814  44.563  16.525   7.653
 7528POPC   NC333815  40.804  23.690   9.453
 7528POPC   PO433816  40.819  23.751   9.153
 7528POPC   GL133817  40.774  23.680   8.853
 7528POPC   GL233818  40.655  23.793   8.853
 7528POPC   C1A33819  40.757  23.688   8.553
 7528POPC   D2A33820  40.746  23.719   8.253
 7528POPC   C3A33821  40.826  23.719   7.953
 7528POPC   C4A33822  40.747  23.735   7.653
 7528POPC   C1B33823  40.566  23.897   8.553
 7528POPC   C2B33824  40.624  23.875   8.253
 7528POPC   C3B33825  40.581  23.829   7.953
 7528POPC   C4B33826  40.629  23.897   7.653
 7529POPC   NC333827  44.663  10.561   9.453
 7529POPC   PO433828  44.702  10.506   9.153
 7529POPC   GL133829  44.676  10.479   8.853
 7529POPC   GL233830  44.749  10.635   8.853
 7529POPC   C1A33831  44.671  10.557   8.553
 7529POPC   D2A33832  44.692  10.487   8.253
 7529POPC   C3A33833  44.613  10.515   7.953
 7529POPC   C4A33834  44.681  10.540   7.653
 7529POPC   C1B33835  44.813  10.715   8.553
 7529POPC   C2B33836  44.810  10.678   8.253
 7529POPC   C3B33837  44.823  10.716   7.953
 7529POPC   C4B33838  44.780  10.691   7.653
 7530POPC   NC333839   2.028  36.895   9.453
 7530POPC   PO433840   1.945  36.904   9.153
 7530POPC   GL133841   2.013  36.920   8.853
 7530POPC   GL233842   1.903  36.810   8.853
 7530POPC   C1A33843   1.967  36.911   8.553
 7530POPC   D2A33844   1.987  36.932   8.253
 7530POPC   C3A33845   2.037  36.877   7.953
 7530POPC   C4A33846   1.940  36.911   7.653
 7530POPC   C1B33847   1.921  36.626   8.553
 7530POPC   C2B33848   1.866  36.690   8.253
 7530POPC   C3B33849   1.913  36.625   7.953
 7530POPC   C4B33850   1.868  36.649   7.653
 7531POPC   NC333851  22.943  25.289   9.453
 7531POPC   PO433852  22.899  25.245   9.153
 7531POPC   GL133853  22.956  25.244   8.853
 7531POPC   GL233854  23.061  25.175   8.853
 7531POPC   C1A33855  22.960  25.238   8.553
 7531POPC   D2A33856  22.938  25.229   8.253
 7531POPC   C3A33857  22.928  25.232   7.953
 7531POPC   C4A33858  22.980  25.251   7.653
 7531POPC   C1B33859  23.171  25.224   8.553
 7531POPC   C2B33860  23.154  25.133   8.253
 7531POPC   C3B33861  23.168  25.135   7.953
 7531POPC   C4B33862  23.211  25.198   7.653
 7532POPC   NC333863  15.224  29.871   9.453
 7532POPC   PO433864  15.216  29.916   9.153
 7532POPC   GL133865  15.178  29.920   8.853
 7532POPC   GL233866  15.110  29.840   8.853
 7532POPC   C1A33867  15.194  29.908   8.553
 7532POPC   D2A33868  15.139  29.902   8.253
 7532POPC   C3A33869  15.139  29.881   7.953
 7532POPC   C4A33870  15.146  29.928   7.653
 7532POPC   C1B33871  14.963  29.801   8.553
 7532POPC   C2B33872  14.913  29.816   8.253
 7532POPC   C3B33873  14.926  29.763   7.953
 7532POPC   C4B33874  14.967  29.819   7.653
 7533POPC   NC333875  37.634  17.483   9.453
 7533POPC   PO433876  37.679  17.555   9.153
 7533POPC   GL133877  37.670  17.509   8.853
 7533POPC   GL233878  37.565  17.442   8.853
 7533POPC   C1A33879  37.648  17.484   8.553
 7533POPC   D2A33880  37.723  17.501   8.253
 7533POPC   C3A33881  37.659  17.512   7.953
 7533POPC   C4A33882  37.725  17.469   7.653
 7533POPC   C1B33883  37.518  17.328   8.553
 7533POPC   C2B33884  37.457  17.414   8.253
 7533POPC   C3B33885  37.437  17.368   7.953
 7533POPC   C4B33886  37.513  17.348   7.653
 7534POPC   NC333887  31.450   0.445   9.453
 7534POPC   PO433888  31.514   0.425   9.153
 7534POPC   GL133889  31.514   0.471   8.853
 7534POPC   GL233890  31.570   0.481   8.853
 7534POPC   C1A33891  31.502   0.447   8.553
 7534POPC   D2A33892  31.498   0.402   8.253
 7534POPC   C3A33893  31.443   0.444   7.953
 7534POPC   C4A33894  31.497   0.412   7.653
 7534POPC   C1B33895  31.665   0.549   8.553
 7534POPC   C2B33896  31.643   0.528   8.253
 7534POPC   C3B33897  31.719   0.542   7.953
 7534POPC   C4B33898  31.697   0.597   7.653
 7535POPC   NC333899  44.644  13.614   9.453
 7535POPC   PO433900  44.643  13.653   9.153
 7535POPC   GL133901  44.617  13.671   8.853
 7535POPC   GL233902  44.703  13.729   8.853
 7535POPC   C1A33903  44.644  13.611   8.553
 7535POPC   D2A33904  44.675  13.635   8.253
 7535POPC   C3A33905  44.702  13.609   7.953
 7535POPC   C4A33906  44.707  13.670   7.653
 7535POPC   C1B33907  44.808  13.821   8.553
 7535POPC   C2B33908  44.710  13.867   8.253
 7535POPC   C3B33909  44.792  13.863   7.953
 7535POPC   C4B33910  44.737  13.907   7.653
 7536POPC   NC333911  28.388  28.418   9.453
 7536POPC   PO433912  28.418  28.334   9.153
 7536POPC   GL133913  28.383  28.376   8.853
 7536POPC   GL233914  28.287  28.244   8.853
 7536POPC   C1A33915  28.407  28.388   8.553
 7536POPC   D2A33916  28.396  28.358   8.253
 7536POPC   C3A33917  28.378  28.407   7.953
 7536POPC   C4A33918  28.339  28.320   7.653
 7536POPC   C1B33919  28.237  28.145   8.553
 7536POPC   C2B33920  28.174  28.212   8.253
 7536POPC   C3B33921  28.254  28.134   7.953
 7536POPC   C4B33922  28.182  28.163   7.653
 7537POPC   NC333923  39.203  34.558   9.453
 7537POPC   PO433924  39.200  34.556   9.153
 7537POPC   GL133925  39.208  34.616   8.853
 7537POPC   GL233926  39.376  34.602   8.853
 7537POPC   C1A33927  39.277  34.582   8.553
 7537POPC   D2A33928  39.223  34.598   8.253
 7537POPC   C3A33929  39.216  34.590   7.953
 7537POPC   C4A33930  39.238  34.580   7.653
 7537POPC   C1B33931  39.482  34.702   8.553
 7537POPC   C2B33932  39.428  34.712   8.253
 7537POPC   C3B33933  39.471  34.714   7.953
 7537POPC   C4B33934  39.434  34.670   7.653
 7538POPC   NC333935  30.700  17.487   9.453
 7538POPC   PO433936  30.659  17.477   9.153
 7538POPC   GL133937  30.729  17.484   8.853
 7538POPC   GL233938  30.769  17.470   8.853
 7538POPC   C1A33939  30.731  17.528   8.553
 7538POPC   D2A33940  30.692  17.499   8.253
 7538POPC   C3A33941  30.699  17.538   7.953
 7538POPC   C4A33942  30.711  17.489   7.653
 7538POPC   C1B33943  30.931  17.408   8.553
 7538POPC   C2B33944  30.914  17.455   8.253
 7538POPC   C3B33945  30.980  17.477   7.953
 7538POPC   C4B33946  30.905  17.464   7.653
 7539POPC   NC333947  40.028   4.301   9.453
 7539POPC   PO433948  40.047   4.365   9.153
 7539POPC   GL133949  40.007   4.330   8.853
 7539POPC   GL233950  39.902   4.253   8.853
 7539POPC   C1A33951  40.028   4.321   8.553
 7539POPC   D2A33952  40.037   4.361   8.253
 7539POPC   C3A33953  39.993   4.309   7.953
 7539POPC   C4A33954  40.050   4.322   7.653
 7539POPC   C1B33955  39.801   4.149   8.553
 7539POPC   C2B33956  39.805   4.147   8.253
 7539POPC   C3B33957  39.866   4.163   7.953
 7539POPC   C4B33958  39.837   4.117   7.653
 7540POPC   NC333959   1.962  30.676   9.453
 7540POPC   PO433960   2.008  30.680   9.153
 7540POPC   GL133961   1.980  30.704   8.853
 7540POPC   GL233962   1.847  30.704   8.853
 7540POPC   C1A33963   1.996  30.685   8.553
 7540POPC   D2A33964   1.977  30.667   8.253
 7540POPC   C3A33965   2.025  30.665   7.953
 7540POPC   C4A33966   2.009  30.746   7.653
 7540POPC   C1B33967   1.698  30.684   8.553
 7540POPC   C2B33968   1.727  30.741   8.253
 7540POPC   C3B33969   1.723  30.692   7.953
 7540POPC   C4B33970   1.770  30.647   7.653
 7541POPC   NC333971  21.416   4.356   9.453
 7541POPC   PO433972  21.369   4.295   9.153
 7541POPC   GL133973  21.416   4.366   8.853
 7541POPC   GL233974  21.323   4.464   8.853
 7541POPC   C1A33975  21.380   4.347   8.553
 7541POPC   D2A33976  21.381   4.319   8.253
 7541POPC   C3A33977  21.373   4.287   7.953
 7541POPC   C4A33978  21.384   4.316   7.653
 7541POPC   C1B33979  21.359   4.539   8.553
 7541POPC   C2B33980  21.273   4.554   8.253
 7541POPC   C3B33981  21.294   4.594   7.953
 7541POPC   C4B33982  21.343   4.587   7.653
 7542POPC   NC333983  15.947  32.287   9.453
 7542POPC   PO433984  15.939  32.275   9.153
 7542POPC   GL133985  15.938  32.237   8.853
 7542POPC   GL233986  16.009  32.127   8.853
 7542POPC   C1A33987  15.935  32.263   8.553
 7542POPC   D2A33988  15.971  32.279   8.253
 7542POPC   C3A33989  15.976  32.249   7.953
 7542POPC   C4A33990  15.914  32.247   7.653
 7542POPC   C1B33991  16.107  32.076   8.553
 7542POPC   C2B33992  16.098  32.086   8.253
 7542POPC   C3B33993  16.159  32.040   7.953
 7542POPC   C4B33994  16.100  32.081   7.653
 7543POPC   NC333995  13.634  29.887   9.453
 7543POPC   PO433996  13.627  29.912   9.153
 7543POPC   GL133997  13.638  29.900   8.853
 7543POPC   GL233998  13.744  30.026   8.853
 7543POPC   C1A33999  13.603  29.886   8.553
 7543POPC   D2A34000  13.596  29.958   8.253
 7543POPC   C3A34001  13.613  29.877   7.953
 7543POPC   C4A34002  13.581  29.960   7.653
 7543POPC   C1B34003  13.779  30.098   8.553
 7543POPC   C2B34004  13.783  30.095   8.253
 7543POPC   C3B34005  13.777  30.158   7.953
 7543POPC   C4B34006  13.747  30.125   7.653
 7544POPC   NC334007  14.380  26.066   9.453
 7544POPC   PO434008  14.444  26.082   9.153
 7544POPC   GL134009  14.450  25.993   8.853
 7544POPC   GL234010  14.469  25.996   8.853
 7544POPC   C1A34011  14.388  26.004   8.553
 7544POPC   D2A34012  14.397  25.995   8.253
 7544POPC   C3A34013  14.358  26.002   7.953
 7544POPC   C4A34014  14.417  26.040   7.653
 7544POPC   C1B34015  14.584  25.817   8.553
 7544POPC   C2B34016  14.538  25.880   8.253
 7544POPC   C3B34017  14.559  25.871   7.953
 7544POPC   C4B34018  14.566  25.824   7.653
 7545POPC   NC334019  30.699  43.883   9.453
 7545POPC   PO434020  30.705  43.934   9.153
 7545POPC   GL134021  30.716  43.862   8.853
 7545POPC   GL234022  30.617  43.899   8.853
 7545POPC   C1A34023  30.691  43.912   8.553
 7545POPC   D2A34024  30.660  43.886   8.253
 7545POPC   C3A34025  30.704  43.932   7.953
 7545POPC   C4A34026  30.656  43.868   7.653
 7545POPC   C1B34027  30.528  44.003   8.553
 7545POPC   C2B34028  30.470  44.054   8.253
 7545POPC   C3B34029  30.441  43.974   7.953
 7545POPC   C4B34030  30.462  43.989   7.653
 7546POPC   NC334031  19.108  35.378   9.453
 7546POPC   PO434032  19.082  35.331   9.153
 7546POPC   GL134033  19.072  35.383   8.853
 7546POPC   GL234034  19.198  35.378   8.853
 7546POPC   C1A34035  19.038  35.334   8.553
 7546POPC   D2A34036  19.016  35.321   8.253
 7546POPC   C3A34037  19.079  35.337   7.953
 7546POPC   C4A34038  19.051  35.344   7.653
 7546POPC   C1B34039  19.262  35.385   8.553
 7546POPC   C2B34040  19.322  35.419   8.253
 7546POPC   C3B34041  19.291  35.384   7.953
 7546POPC   C4B34042  19.314  35.346   7.653
 7547POPC   NC334043  23.671  32.986   9.453
 7547POPC   PO434044  23.719  32.995   9.153
 7547POPC   GL134045  23.706  33.048   8.853
 7547POPC   GL234046  23.782  32.939   8.853
 7547POPC   C1A34047  23.761  33.020   8.553
 7547POPC   D2A34048  23.741  32.991   8.253
 7547POPC   C3A34049  23.711  33.052   7.953
 7547POPC   C4A34050  23.709  32.984   7.653
 7547POPC   C1B34051  23.722  32.790   8.553
 7547POPC   C2B34052  23.720  32.754   8.253
 7547POPC   C3B34053  23.759  32.787   7.953
 7547POPC   C4B34054  23.817  32.809   7.653
 7548POPC   NC334055  19.028  33.055   9.453
 7548POPC   PO434056  19.060  33.050   9.153
 7548POPC   GL134057  19.090  33.048   8.853
 7548POPC   GL234058  19.045  33.134   8.853
 7548POPC   C1A34059  19.090  33.073   8.553
 7548POPC   D2A34060  19.060  33.056   8.253
 7548POPC   C3A34061  19.040  32.980   7.953
 7548POPC   C4A34062  19.058  33.021   7.653
 7548POPC   C1B34063  19.071  33.318   8.553
 7548POPC   C2B34064  19.131  33.237   8.253
 7548POPC   C3B34065  19.117  33.234   7.953
 7548POPC   C4B34066  19.063  33.267   7.653
 7549POPC   NC334067  36.900  26.818   9.453
 7549POPC   PO434068  36.922  26.862   9.153
 7549POPC   GL134069  36.912  26.842   8.853
 7549POPC   GL234070  36.739  26.772   8.853
 7549POPC   C1A34071  36.854  26.800   8.553
 7549POPC   D2A34072  36.907  26.778   8.253
 7549POPC   C3A34073  36.909  26.776   7.953
 7549POPC   C4A34074  36.895  26.867   7.653
 7549POPC   C1B34075  36.606  26.777   8.553
 7549POPC   C2B34076  36.680  26.830   8.253
 7549POPC   C3B34077  36.675  26.798   7.953
 7549POPC   C4B34078  36.637  26.796   7.653
 7550POPC   NC334079  17.464  15.937   9.453
 7550POPC   PO434080  17.550  15.994   9.153
 7550POPC   GL134081  17.489  15.935   8.853
 7550POPC   GL234082  17.610  15.865   8.853
 7550POPC   C1A34083  17.460  15.905   8.553
 7550POPC   D2A34084  17.552  15.921   8.253
 7550POPC   C3A34085  17.554  15.939   7.953
 7550POPC   C4A34086  17.491  15.982   7.653
 7550POPC   C1B34087  17.719  15.812   8.553
 7550POPC   C2B34088  17.725  15.742   8.253
 7550POPC   C3B34089  17.689  15.722   7.953
 7550POPC   C4B34090  17.682  15.801   7.653
 7551POPC   NC334091  10.515   8.983   9.453
 7551POPC   PO434092  10.530   8.999   9.153
 7551POPC   GL134093  10.566   8.999   8.853
 7551POPC   GL234094  10.514   9.136   8.853
 7551POPC   C1A34095  10.572   9.005   8.553
 7551POPC   D2A34096  10.546   8.932   8.253
 7551POPC   C3A34097  10.503   8.975   7.953
 7551POPC   C4A34098  10.543   8.981   7.653
 7551POPC   C1B34099  10.414   9.239   8.553
 7551POPC   C2B34100  10.419   9.207   8.253
 7551POPC   C3B34101  10.442   9.245   7.953
 7551POPC   C4B34102  10.395   9.173   7.653
 7552POPC   NC334103  38.501  44.670   9.453
 7552POPC   PO434104  38.490  44.693   9.153
 7552POPC   GL134105  38.477  44.679   8.853
 7552POPC   GL234106  38.431  44.509   8.853
 7552POPC   C1A34107  38.407  44.652   8.553
 7552POPC   D2A34108  38.462  44.648   8.253
 7552POPC   C3A34109  38.505  44.679   7.953
 7552POPC   C4A34110  38.484  44.621   7.653
 7552POPC   C1B34111  38.344  44.396   8.553
 7552POPC   C2B34112  38.402  44.428   8.253
 7552POPC   C3B34113  38.404  44.382   7.953
 7552POPC   C4B34114  38.416  44.416   7.653
 7553POPC   NC334115  36.901   1.967   9.453
 7553POPC   PO434116  36.909   2.013   9.153
 7553POPC   GL134117  36.868   1.982   8.853
 7553POPC   GL234118  36.938   1.888   8.853
 7553POPC   C1A34119  36.870   1.961   8.553
 7553POPC   D2A34120  36.874   1.963   8.253
 7553POPC   C3A34121  36.947   2.031   7.953
 7553POPC   C4A34122  36.926   1.958   7.653
 7553POPC   C1B34123  37.036   1.805   8.553
 7553POPC   C2B34124  36.975   1.752   8.253
 7553POPC   C3B34125  37.024   1.746   7.953
 7553POPC   C4B34126  36.993   1.722   7.653
 7554POPC   NC334127  12.045   1.199   9.453
 7554POPC   PO434128  12.049   1.245   9.153
 7554POPC   GL134129  12.046   1.250   8.853
 7554POPC   GL234130  12.165   1.339   8.853
 7554POPC   C1A34131  12.103   1.189   8.553
 7554POPC   D2A34132  12.028   1.252   8.253
 7554POPC   C3A34133  12.059   1.181   7.953
 7554POPC   C4A34134  12.061   1.218   7.653
 7554POPC   C1B34135  12.277   1.379   8.553
 7554POPC   C2B34136  12.287   1.449   8.253
 7554POPC   C3B34137  12.263   1.417   7.953
 7554POPC   C4B34138  12.236   1.417   7.653
 7555POPC   NC334139  34.607  19.088   9.453
 7555POPC   PO434140  34.613  19.055   9.153
 7555POPC   GL134141  34.531  19.053   8.853
 7555POPC   GL234142  34.608  18.953   8.853
 7555POPC   C1A34143  34.581  19.090   8.553
 7555POPC   D2A34144  34.589  19.037   8.253
 7555POPC   C3A34145  34.563  19.038   7.953
 7555POPC   C4A34146  34.564  19.014   7.653
 7555POPC   C1B34147  34.579  18.804   8.553
 7555POPC   C2B34148  34.589  18.805   8.253
 7555POPC   C3B34149  34.565  18.834   7.953
 7555POPC   C4B34150  34.516  18.840   7.653
 7556POPC   NC334151   9.710   8.147   9.453
 7556POPC   PO434152   9.784   8.162   9.153
 7556POPC   GL134153   9.795   8.155   8.853
 7556POPC   GL234154   9.731   8.051   8.853
 7556POPC   C1A34155   9.704   8.202   8.553
 7556POPC   D2A34156   9.750   8.151   8.253
 7556POPC   C3A34157   9.706   8.158   7.953
 7556POPC   C4A34158   9.711   8.175   7.653
 7556POPC   C1B34159   9.675   7.954   8.553
 7556POPC   C2B34160   9.665   7.923   8.253
 7556POPC   C3B34161   9.705   7.926   7.953
 7556POPC   C4B34162   9.686   7.979   7.653
 7557POPC   NC334163  18.286  20.609   9.453
 7557POPC   PO434164  18.254  20.591   9.153
 7557POPC   GL134165  18.263  20.623   8.853
 7557POPC   GL234166  18.380  20.549   8.853
 7557POPC   C1A34167  18.324  20.639   8.553
 7557POPC   D2A34168  18.306  20.595   8.253
 7557POPC   C3A34169  18.248  20.618   7.953
 7557POPC   C4A34170  18.280  20.627   7.653
 7557POPC   C1B34171  18.418  20.454   8.553
 7557POPC   C2B34172  18.399  20.378   8.253
 7557POPC   C3B34173  18.387  20.368   7.953
 7557POPC   C4B34174  18.459  20.392   7.653
 7558POPC   NC334175   6.659  19.056   9.453
 7558POPC   PO434176   6.639  19.021   9.153
 7558POPC   GL134177   6.648  19.098   8.853
 7558POPC   GL234178   6.594  19.185   8.853
 7558POPC   C1A34179   6.623  19.087   8.553
 7558POPC   D2A34180   6.675  19.087   8.253
 7558POPC   C3A34181   6.619  19.061   7.953
 7558POPC   C4A34182   6.615  19.031   7.653
 7558POPC   C1B34183   6.456  19.313   8.553
 7558POPC   C2B34184   6.478  19.312   8.253
 7558POPC   C3B34185   6.467  19.281   7.953
 7558POPC   C4B34186   6.482  19.244   7.653
 7559POPC   NC334187  33.835   5.841   9.453
 7559POPC   PO434188  33.825   5.874   9.153
 7559POPC   GL134189  33.793   5.917   8.853
 7559POPC   GL234190  33.682   5.973   8.853
 7559POPC   C1A34191  33.779   5.913   8.553
 7559POPC   D2A34192  33.767   5.883   8.253
 7559POPC   C3A34193  33.848   5.918   7.953
 7559POPC   C4A34194  33.825   5.906   7.653
 7559POPC   C1B34195  33.647   6.021   8.553
 7559POPC   C2B34196  33.615   6.062   8.253
 7559POPC   C3B34197  33.617   6.043   7.953
 7559POPC   C4B34198  33.683   6.108   7.653
 7560POPC   NC334199  36.131  14.379   9.453
 7560POPC   PO434200  36.082  14.451   9.153
 7560POPC   GL134201  36.168  14.390   8.853
 7560POPC   GL234202  35.980  14.385   8.853
 7560POPC   C1A34203  36.158  14.363   8.553
 7560POPC   D2A34204  36.081  14.398   8.253
 7560POPC   C3A34205  36.146  14.379   7.953
 7560POPC   C4A34206  36.112  14.369   7.653
 7560POPC   C1B34207  35.923  14.338   8.553
 7560POPC   C2B34208  35.926  14.356   8.253
 7560POPC   C3B34209  35.939  14.287   7.953
 7560POPC   C4B34210  35.867  14.286   7.653
 7561POPC   NC334211  10.554  35.308   9.453
 7561POPC   PO434212  10.524  35.382   9.153
 7561POPC   GL134213  10.559  35.312   8.853
 7561POPC   GL234214  10.466  35.457   8.853
 7561POPC   C1A34215  10.532  35.363   8.553
 7561POPC   D2A34216  10.489  35.337   8.253
 7561POPC   C3A34217  10.540  35.349   7.953
 7561POPC   C4A34218  10.518  35.368   7.653
 7561POPC   C1B34219  10.530  35.565   8.553
 7561POPC   C2B34220  10.544  35.612   8.253
 7561POPC   C3B34221  10.480  35.639   7.953
 7561POPC   C4B34222  10.507  35.649   7.653
 7562POPC   NC334223  35.350  35.396   9.453
 7562POPC   PO434224  35.360  35.389   9.153
 7562POPC   GL134225  35.323  35.331   8.853
 7562POPC   GL234226  35.452  35.305   8.853
 7562POPC   C1A34227  35.367  35.312   8.553
 7562POPC   D2A34228  35.329  35.347   8.253
 7562POPC   C3A34229  35.395  35.381   7.953
 7562POPC   C4A34230  35.320  35.378   7.653
 7562POPC   C1B34231  35.557  35.225   8.553
 7562POPC   C2B34232  35.556  35.185   8.253
 7562POPC   C3B34233  35.584  35.155   7.953
 7562POPC   C4B34234  35.502  35.178   7.653
 7563POPC   NC334235  19.102   5.069   9.453
 7563POPC   PO434236  19.094   5.067   9.153
 7563POPC   GL134237  19.009   5.093   8.853
 7563POPC   GL234238  19.133   5.003   8.853
 7563POPC   C1A34239  19.044   5.048   8.553
 7563POPC   D2A34240  19.036   5.082   8.253
 7563POPC   C3A34241  19.034   5.141   7.953
 7563POPC   C4A34242  19.038   5.141   7.653
 7563POPC   C1B34243  19.219   4.873   8.553
 7563POPC   C2B34244  19.261   4.910   8.253
 7563POPC   C3B34245  19.229   4.886   7.953
 7563POPC   C4B34246  19.230   4.907   7.653
 7564POPC   NC334247  28.328   8.989   9.453
 7564POPC   PO434248  28.347   8.924   9.153
 7564POPC   GL134249  28.336   8.931   8.853
 7564POPC   GL234250  28.258   8.859   8.853
 7564POPC   C1A34251  28.352   8.968   8.553
 7564POPC   D2A34252  28.410   8.989   8.253
 7564POPC   C3A34253  28.355   8.927   7.953
 7564POPC   C4A34254  28.406   8.944   7.653
 7564POPC   C1B34255  28.229   8.795   8.553
 7564POPC   C2B34256  28.132   8.843   8.253
 7564POPC   C3B34257  28.185   8.815   7.953
 7564POPC   C4B34258  28.198   8.778   7.653
 7565POPC   NC334259  27.559  42.339   9.453
 7565POPC   PO434260  27.634  42.306   9.153
 7565POPC   GL134261  27.584  42.306   8.853
 7565POPC   GL234262  27.565  42.182   8.853
 7565POPC   C1A34263  27.544  42.286   8.553
 7565POPC   D2A34264  27.545  42.383   8.253
 7565POPC   C3A34265  27.559  42.291   7.953
 7565POPC   C4A34266  27.565  42.310   7.653
 7565POPC   C1B34267  27.454  42.122   8.553
 7565POPC   C2B34268  27.412  42.153   8.253
 7565POPC   C3B34269  27.413  42.109   7.953
 7565POPC   C4B34270  27.494  42.143   7.653
 7566POPC   NC334271  43.839  31.426   9.453
 7566POPC   PO434272  43.854  31.426   9.153
 7566POPC   GL134273  43.868  31.444   8.853
 7566POPC   GL234274  43.821  31.330   8.853
 7566POPC   C1A34275  43.921  31.431   8.553
 7566POPC   D2A34276  43.889  31.477   8.253
 7566POPC   C3A34277  43.842  31.521   7.953
 7566POPC   C4A34278  43.856  31.517   7.653
 7566POPC   C1B34279  43.757  31.267   8.553
 7566POPC   C2B34280  43.760  31.236   8.253
 7566POPC   C3B34281  43.745  31.245   7.953
 7566POPC   C4B34282  43.827  31.205   7.653
 7567POPC   NC334283  25.228  28.378   9.453
 7567POPC   PO434284  25.278  28.373   9.153
 7567POPC   GL134285  25.247  28.416   8.853
 7567POPC   GL234286  25.430  28.391   8.853
 7567POPC   C1A34287  25.226  28.397   8.553
 7567POPC   D2A34288  25.264  28.396   8.253
 7567POPC   C3A34289  25.290  28.357   7.953
 7567POPC   C4A34290  25.276  28.399   7.653
 7567POPC   C1B34291  25.509  28.391   8.553
 7567POPC   C2B34292  25.556  28.332   8.253
 7567POPC   C3B34293  25.519  28.400   7.953
 7567POPC   C4B34294  25.533  28.346   7.653
 7568POPC   NC334295  39.979  34.598   9.453
 7568POPC   PO434296  39.968  34.560   9.153
 7568POPC   GL134297  39.989  34.585   8.853
 7568POPC   GL234298  39.895  34.495   8.853
 7568POPC   C1A34299  40.002  34.550   8.553
 7568POPC   D2A34300  39.965  34.614   8.253
 7568POPC   C3A34301  40.037  34.559   7.953
 7568POPC   C4A34302  40.037  34.575   7.653
 7568POPC   C1B34303  39.736  34.489   8.553
 7568POPC   C2B34304  39.772  34.506   8.253
 7568POPC   C3B34305  39.803  34.458   7.953
 7568POPC   C4B34306  39.763  34.444   7.653
 7569POPC   NC334307  40.017  25.279   9.453
 7569POPC   PO434308  40.036  25.235   9.153
 7569POPC   GL134309  39.967  25.257   8.853
 7569POPC   GL234310  40.029  25.169   8.853
 7569POPC   C1A34311  40.036  25.238   8.553
 7569POPC   D2A34312  39.986  25.234   8.253
 7569POPC   C3A34313  39.963  25.294   7.953
 7569POPC   C4A34314  40.045  25.229   7.653
 7569POPC   C1B34315  40.047  24.985   8.553
 7569POPC   C2B34316  40.002  25.056   8.253
 7569POPC   C3B34317  39.979  25.011   7.953
 7569POPC   C4B34318  40.005  24.985   7.653
 7570POPC   NC334319  21.425  26.044   9.453
 7570POPC   PO434320  21.348  25.999   9.153
 7570POPC   GL134321  21.349  26.069   8.853
 7570POPC   GL234322  21.272  26.101   8.853
 7570POPC   C1A34323  21.419  26.087   8.553
 7570POPC   D2A34324  21.375  26.007   8.253
 7570POPC   C3A34325  21.431  26.019   7.953
 7570POPC   C4A34326  21.374  25.999   7.653
 7570POPC   C1B34327  21.156  26.143   8.553
 7570POPC   C2B34328  21.126  26.092   8.253
 7570POPC   C3B34329  21.145  26.133   7.953
 7570POPC   C4B34330  21.157  26.104   7.653
 7571POPC   NC334331  21.340  22.953   9.453
 7571POPC   PO434332  21.426  22.977   9.153
 7571POPC   GL134333  21.388  22.893   8.853
 7571POPC   GL234334  21.408  23.037   8.853
 7571POPC   C1A34335  21.404  22.958   8.553
 7571POPC   D2A34336  21.430  22.969   8.253
 7571POPC   C3A34337  21.411  22.987   7.953
 7571POPC   C4A34338  21.383  22.905   7.653
 7571POPC   C1B34339  21.429  23.211   8.553
 7571POPC   C2B34340  21.468  23.193   8.253
 7571POPC   C3B34341  21.456  23.126   7.953
 7571POPC   C4B34342  21.523  23.139   7.653
 7572POPC   NC334343  15.985  34.621   9.453
 7572POPC   PO434344  15.922  34.551   9.153
 7572POPC   GL134345  15.928  34.547   8.853
 7572POPC   GL234346  15.800  34.600   8.853
 7572POPC   C1A34347  15.947  34.543   8.553
 7572POPC   D2A34348  16.002  34.551   8.253
 7572POPC   C3A34349  15.950  34.563   7.953
 7572POPC   C4A34350  15.964  34.583   7.653
 7572POPC   C1B34351  15.758  34.744   8.553
 7572POPC   C2B34352  15.700  34.724   8.253
 7572POPC   C3B34353  15.698  34.704   7.953
 7572POPC   C4B34354  15.744  34.653   7.653
 7573POPC   NC334355  23.743  43.102   9.453
 7573POPC   PO434356  23.760  43.079   9.153
 7573POPC   GL134357  23.719  43.115   8.853
 7573POPC   GL234358  23.693  43.026   8.853
 7573POPC   C1A34359  23.743  43.115   8.553
 7573POPC   D2A34360  23.712  43.132   8.253
 7573POPC   C3A34361  23.720  43.072   7.953
 7573POPC   C4A34362  23.676  43.158   7.653
 7573POPC   C1B34363  23.725  42.890   8.553
 7573POPC   C2B34364  23.733  42.843   8.253
 7573POPC   C3B34365  23.665  42.819   7.953
 7573POPC   C4B34366  23.671  42.835   7.653
 7574POPC   NC334367   5.110  10.568   9.453
 7574POPC   PO434368   5.069  10.519   9.153
 7574POPC   GL134369   5.114  10.533   8.853
 7574POPC   GL234370   5.231  10.579   8.853
 7574POPC   C1A34371   5.050  10.567   8.553
 7574POPC   D2A34372   5.085  10.505   8.253
 7574POPC   C3A34373   5.113  10.480   7.953
 7574POPC   C4A34374   5.113  10.551   7.653
 7574POPC   C1B34375   5.331  10.649   8.553
 7574POPC   C2B34376   5.276  10.652   8.253
 7574POPC   C3B34377   5.279  10.642   7.953
 7574POPC   C4B34378   5.321  10.698   7.653
 7575POPC   NC334379  24.447  36.934   9.453
 7575POPC   PO434380  24.519  36.899   9.153
 7575POPC   GL134381  24.529  36.907   8.853
 7575POPC   GL234382  24.577  36.928   8.853
 7575POPC   C1A34383  24.457  36.940   8.553
 7575POPC   D2A34384  24.492  36.869   8.253
 7575POPC   C3A34385  24.508  36.928   7.953
 7575POPC   C4A34386  24.478  36.910   7.653
 7575POPC   C1B34387  24.688  37.033   8.553
 7575POPC   C2B34388  24.678  36.980   8.253
 7575POPC   C3B34389  24.692  37.060   7.953
 7575POPC   C4B34390  24.712  37.042   7.653
 7576POPC   NC334391   5.091  24.445   9.453
 7576POPC   PO434392   5.131  24.531   9.153
 7576POPC   GL134393   5.061  24.476   8.853
 7576POPC   GL234394   5.061  24.431   8.853
 7576POPC   C1A34395   5.117  24.492   8.553
 7576POPC   D2A34396   5.130  24.524   8.253
 7576POPC   C3A34397   5.136  24.531   7.953
 7576POPC   C4A34398   5.072  24.513   7.653
 7576POPC   C1B34399   4.953  24.264   8.553
 7576POPC   C2B34400   4.895  24.334   8.253
 7576POPC   C3B34401   4.965  24.309   7.953
 7576POPC   C4B34402   4.950  24.280   7.653
 7577POPC   NC334403   3.507  40.022   9.453
 7577POPC   PO434404   3.517  39.987   9.153
 7577POPC   GL134405   3.530  40.035   8.853
 7577POPC   GL234406   3.558  40.107   8.853
 7577POPC   C1A34407   3.590  40.023   8.553
 7577POPC   D2A34408   3.586  39.975   8.253
 7577POPC   C3A34409   3.566  39.987   7.953
 7577POPC   C4A34410   3.534  40.044   7.653
 7577POPC   C1B34411   3.669  40.276   8.553
 7577POPC   C2B34412   3.710  40.251   8.253
 7577POPC   C3B34413   3.688  40.211   7.953
 7577POPC   C4B34414   3.647  40.192   7.653
 7578POPC   NC334415  40.823  30.673   9.453
 7578POPC   PO434416  40.743  30.705   9.153
 7578POPC   GL134417  40.743  30.668   8.853
 7578POPC   GL234418  40.945  30.748   8.853
 7578POPC   C1A34419  40.755  30.714   8.553
 7578POPC   D2A34420  40.783  30.660   8.253
 7578POPC   C3A34421  40.743  30.658   7.953
 7578POPC   C4A34422  40.812  30.705   7.653
 7578POPC   C1B34423  41.016  30.809   8.553
 7578POPC   C2B34424  41.010  30.767   8.253
 7578POPC   C3B34425  40.991  30.827   7.953
 7578POPC   C4B34426  41.058  30.753   7.653
 7579POPC   NC334427   0.467  29.962   9.453
 7579POPC   PO434428   0.445  29.873   9.153
 7579POPC   GL134429   0.485  29.970   8.853
 7579POPC   GL234430   0.535  29.851   8.853
 7579POPC   C1A34431   0.471  29.941   8.553
 7579POPC   D2A34432   0.433  29.874   8.253
 7579POPC   C3A34433   0.425  29.964   7.953
 7579POPC   C4A34434   0.459  29.905   7.653
 7579POPC   C1B34435   0.519  29.716   8.553
 7579POPC   C2B34436   0.580  29.682   8.253
 7579POPC   C3B34437   0.564  29.687   7.953
 7579POPC   C4B34438   0.498  29.654   7.653
 7580POPC   NC334439  12.074  43.111   9.453
 7580POPC   PO434440  12.060  43.073   9.153
 7580POPC   GL134441  12.088  43.121   8.853
 7580POPC   GL234442  12.049  43.013   8.853
 7580POPC   C1A34443  12.111  43.113   8.553
 7580POPC   D2A34444  12.068  43.098   8.253
 7580POPC   C3A34445  12.088  43.096   7.953
 7580POPC   C4A34446  12.037  43.086   7.653
 7580POPC   C1B34447  11.925  42.940   8.553
 7580POPC   C2B34448  11.891  42.889   8.253
 7580POPC   C3B34449  11.970  42.957   7.953
 7580POPC   C4B34450  11.970  42.923   7.653
 7581POPC   NC334451  43.908   5.119   9.453
 7581POPC   PO434452  43.934   5.111   9.153
 7581POPC   GL134453  43.933   5.074   8.853
 7581POPC   GL234454  43.943   5.047   8.853
 7581POPC   C1A34455  43.933   5.064   8.553
 7581POPC   D2A34456  43.885   5.092   8.253
 7581POPC   C3A34457  43.882   5.138   7.953
 7581POPC   C4A34458  43.916   5.103   7.653
 7581POPC   C1B34459  44.083   4.905   8.553
 7581POPC   C2B34460  44.005   4.923   8.253
 7581POPC   C3B34461  44.030   4.951   7.953
 7581POPC   C4B34462  44.046   4.912   7.653
 7582POPC   NC334463   6.663  41.556   9.453
 7582POPC   PO434464   6.690  41.578   9.153
 7582POPC   GL134465   6.653  41.568   8.853
 7582POPC   GL234466   6.677  41.682   8.853
 7582POPC   C1A34467   6.659  41.556   8.553
 7582POPC   D2A34468   6.646  41.577   8.253
 7582POPC   C3A34469   6.628  41.556   7.953
 7582POPC   C4A34470   6.692  41.536   7.653
 7582POPC   C1B34471   6.757  41.787   8.553
 7582POPC   C2B34472   6.769  41.782   8.253
 7582POPC   C3B34473   6.772  41.713   7.953
 7582POPC   C4B34474   6.839  41.707   7.653
 7583POPC   NC334475  34.582  13.676   9.453
 7583POPC   PO434476  34.550  13.677   9.153
 7583POPC   GL134477  34.549  13.644   8.853
 7583POPC   GL234478  34.596  13.525   8.853
 7583POPC   C1A34479  34.616  13.660   8.553
 7583POPC   D2A34480  34.578  13.612   8.253
 7583POPC   C3A34481  34.594  13.604   7.953
 7583POPC   C4A34482  34.611  13.586   7.653
 7583POPC   C1B34483  34.581  13.376   8.553
 7583POPC   C2B34484  34.571  13.426   8.253
 7583POPC   C3B34485  34.610  13.350   7.953
 7583POPC   C4B34486  34.634  13.424   7.653
 7584POPC   NC334487  44.660  12.096   9.453
 7584POPC   PO434488  44.694  12.118   9.153
 7584POPC   GL134489  44.707  12.072   8.853
 7584POPC   GL234490  44.714  12.010   8.853
 7584POPC   C1A34491  44.615  12.060   8.553
 7584POPC   D2A34492  44.656  12.072   8.253
 7584POPC   C3A34493  44.695  12.089   7.953
 7584POPC   C4A34494  44.690  12.125   7.653
 7584POPC   C1B34495  44.779  11.878   8.553
 7584POPC   C2B34496  44.785  11.900   8.253
 7584POPC   C3B34497  44.782  11.877   7.953
 7584POPC   C4B34498  44.832  11.857   7.653
 7585POPC   NC334499  22.981  30.672   9.453
 7585POPC   PO434500  22.912  30.692   9.153
 7585POPC   GL134501  22.954  30.672   8.853
 7585POPC   GL234502  22.846  30.794   8.853
 7585POPC   C1A34503  22.950  30.653   8.553
 7585POPC   D2A34504  22.913  30.656   8.253
 7585POPC   C3A34505  22.929  30.709   7.953
 7585POPC   C4A34506  22.982  30.696   7.653
 7585POPC   C1B34507  22.714  30.751   8.553
 7585POPC   C2B34508  22.664  30.825   8.253
 7585POPC   C3B34509  22.753  30.842   7.953
 7585POPC   C4B34510  22.692  30.819   7.653
 7586POPC   NC334511  26.806  13.673   9.453
 7586POPC   PO434512  26.801  13.651   9.153
 7586POPC   GL134513  26.805  13.661   8.853
 7586POPC   GL234514  26.739  13.700   8.853
 7586POPC   C1A34515  26.860  13.612   8.553
 7586POPC   D2A34516  26.798  13.605   8.253
 7586POPC   C3A34517  26.779  13.675   7.953
 7586POPC   C4A34518  26.789  13.644   7.653
 7586POPC   C1B34519  26.550  13.655   8.553
 7586POPC   C2B34520  26.591  13.673   8.253
 7586POPC   C3B34521  26.557  13.681   7.953
 7586POPC   C4B34522  26.537  13.655   7.653
 7587POPC   NC334523   7.465  38.455   9.453
 7587POPC   PO434524   7.395  38.461   9.153
 7587POPC   GL134525   7.406  38.471   8.853
 7587POPC   GL234526   7.493  38.375   8.853
 7587POPC   C1A34527   7.411  38.407   8.553
 7587POPC   D2A34528   7.462  38.466   8.253
 7587POPC   C3A34529   7.380  38.423   7.953
 7587POPC   C4A34530   7.423  38.459   7.653
 7587POPC   C1B34531   7.692  38.384   8.553
 7587POPC   C2B34532   7.637  38.348   8.253
 7587POPC   C3B34533   7.688  38.382   7.953
 7587POPC   C4B34534   7.616  38.381   7.653
 7588POPC   NC334535   1.993  25.224   9.453
 7588POPC   PO434536   1.942  25.272   9.153
 7588POPC   GL134537   1.973  25.296   8.853
 7588POPC   GL234538   2.058  25.235   8.853
 7588POPC   C1A34539   1.979  25.235   8.553
 7588POPC   D2A34540   1.958  25.286   8.253
 7588POPC   C3A34541   1.999  25.252   7.953
 7588POPC   C4A34542   1.998  25.284   7.653
 7588POPC   C1B34543   2.201  25.148   8.553
 7588POPC   C2B34544   2.252  25.160   8.253
 7588POPC   C3B34545   2.239  25.096   7.953
 7588POPC   C4B34546   2.223  25.173   7.653
 7589POPC   NC334547  39.195  12.860   9.453
 7589POPC   PO434548  39.274  12.893   9.153
 7589POPC   GL134549  39.223  12.803   8.853
 7589POPC   GL234550  39.207  12.987   8.853
 7589POPC   C1A34551  39.242  12.847   8.553
 7589POPC   D2A34552  39.229  12.887   8.253
 7589POPC   C3A34553  39.211  12.889   7.953
 7589POPC   C4A34554  39.188  12.870   7.653
 7589POPC   C1B34555  39.150  13.123   8.553
 7589POPC   C2B34556  39.180  13.091   8.253
 7589POPC   C3B34557  39.180  13.044   7.953
 7589POPC   C4B34558  39.144  13.073   7.653
 7590POPC   NC334559  31.489   5.880   9.453
 7590POPC   PO434560  31.437   5.857   9.153
 7590POPC   GL134561  31.522   5.855   8.853
 7590POPC   GL234562  31.545   5.814   8.853
 7590POPC   C1A34563  31.428   5.837   8.553
 7590POPC   D2A34564  31.510   5.819   8.253
 7590POPC   C3A34565  31.522   5.826   7.953
 7590POPC   C4A34566  31.459   5.835   7.653
 7590POPC   C1B34567  31.666   5.784   8.553
 7590POPC   C2B34568  31.725   5.750   8.253
 7590POPC   C3B34569  31.684   5.710   7.953
 7590POPC   C4B34570  31.657   5.735   7.653
 7591POPC   NC334571  28.365  40.806   9.453
 7591POPC   PO434572  28.400  40.742   9.153
 7591POPC   GL134573  28.412  40.831   8.853
 7591POPC   GL234574  28.321  40.643   8.853
 7591POPC   C1A34575  28.400  40.735   8.553
 7591POPC   D2A34576  28.339  40.771   8.253
 7591POPC   C3A34577  28.367  40.824   7.953
 7591POPC   C4A34578  28.337  40.805   7.653
 7591POPC   C1B34579  28.394  40.571   8.553
 7591POPC   C2B34580  28.390  40.500   8.253
 7591POPC   C3B34581  28.303  40.570   7.953
 7591POPC   C4B34582  28.312  40.518   7.653
 7592POPC   NC334583  31.450   6.602   9.453
 7592POPC   PO434584  31.480   6.689   9.153
 7592POPC   GL134585  31.518   6.693   8.853
 7592POPC   GL234586  31.441   6.796   8.853
 7592POPC   C1A34587  31.514   6.658   8.553
 7592POPC   D2A34588  31.482   6.675   8.253
 7592POPC   C3A34589  31.517   6.656   7.953
 7592POPC   C4A34590  31.424   6.597   7.653
 7592POPC   C1B34591  31.331   6.825   8.553
 7592POPC   C2B34592  31.371   6.829   8.253
 7592POPC   C3B34593  31.351   6.862   7.953
 7592POPC   C4B34594  31.318   6.894   7.653
 7593POPC   NC334595  19.027  37.692   9.453
 7593POPC   PO434596  19.066  37.680   9.153
 7593POPC   GL134597  19.046  37.650   8.853
 7593POPC   GL234598  19.108  37.762   8.853
 7593POPC   C1A34599  19.037  37.682   8.553
 7593POPC   D2A34600  19.057  37.674   8.253
 7593POPC   C3A34601  19.048  37.712   7.953
 7593POPC   C4A34602  19.050  37.712   7.653
 7593POPC   C1B34603  19.105  37.960   8.553
 7593POPC   C2B34604  19.023  37.889   8.253
 7593POPC   C3B34605  19.111  37.939   7.953
 7593POPC   C4B34606  19.096  37.918   7.653
 7594POPC   NC334607  29.171  12.082   9.453
 7594POPC   PO434608  29.145  12.067   9.153
 7594POPC   GL134609  29.179  12.122   8.853
 7594POPC   GL234610  29.316  12.053   8.853
 7594POPC   C1A34611  29.185  12.050   8.553
 7594POPC   D2A34612  29.135  12.038   8.253
 7594POPC   C3A34613  29.147  12.070   7.953
 7594POPC   C4A34614  29.137  12.028   7.653
 7594POPC   C1B34615  29.377  12.065   8.553
 7594POPC   C2B34616  29.409  12.013   8.253
 7594POPC   C3B34617  29.348  12.014   7.953
 7594POPC   C4B34618  29.358  11.992   7.653
 7595POPC   NC334619  43.102  12.898   9.453
 7595POPC   PO434620  43.063  12.898   9.153
 7595POPC   GL134621  43.134  12.849   8.853
 7595POPC   GL234622  43.267  12.852   8.853
 7595POPC   C1A34623  43.128  12.833   8.553
 7595POPC   D2A34624  43.091  12.859   8.253
 7595POPC   C3A34625  43.118  12.847   7.953
 7595POPC   C4A34626  43.105  12.884   7.653
 7595POPC   C1B34627  43.333  12.926   8.553
 7595POPC   C2B34628  43.319  12.862   8.253
 7595POPC   C3B34629  43.363  12.881   7.953
 7595POPC   C4B34630  43.388  12.859   7.653
 7596POPC   NC334631   0.417   3.553   9.453
 7596POPC   PO434632   0.467   3.550   9.153
 7596POPC   GL134633   0.432   3.517   8.853
 7596POPC   GL234634   0.388   3.369   8.853
 7596POPC   C1A34635   0.401   3.535   8.553
 7596POPC   D2A34636   0.456   3.555   8.253
 7596POPC   C3A34637   0.461   3.573   7.953
 7596POPC   C4A34638   0.471   3.542   7.653
 7596POPC   C1B34639   0.381   3.255   8.553
 7596POPC   C2B34640   0.469   3.328   8.253
 7596POPC   C3B34641   0.421   3.257   7.953
 7596POPC   C4B34642   0.423   3.282   7.653
 7597POPC   NC334643  41.537   5.846   9.453
 7597POPC   PO434644  41.571   5.860   9.153
 7597POPC   GL134645  41.567   5.882   8.853
 7597POPC   GL234646  41.549   5.738   8.853
 7597POPC   C1A34647  41.570   5.916   8.553
 7597POPC   D2A34648  41.603   5.900   8.253
 7597POPC   C3A34649  41.599   5.857   7.953
 7597POPC   C4A34650  41.570   5.884   7.653
 7597POPC   C1B34651  41.435   5.596   8.553
 7597POPC   C2B34652  41.476   5.644   8.253
 7597POPC   C3B34653  41.488   5.602   7.953
 7597POPC   C4B34654  41.446   5.632   7.653
 7598POPC   NC334655  31.502  19.822   9.453
 7598POPC   PO434656  31.494  19.832   9.153
 7598POPC   GL134657  31.468  19.854   8.853
 7598POPC   GL234658  31.601  19.853   8.853
 7598POPC   C1A34659  31.521  19.814   8.553
 7598POPC   D2A34660  31.484  19.841   8.253
 7598POPC   C3A34661  31.424  19.883   7.953
 7598POPC   C4A34662  31.489  19.812   7.653
 7598POPC   C1B34663  31.695  19.823   8.553
 7598POPC   C2B34664  31.707  19.805   8.253
 7598POPC   C3B34665  31.690  19.821   7.953
 7598POPC   C4B34666  31.673  19.819   7.653
 7599POPC   NC334667  41.558  26.825   9.453
 7599POPC   PO434668  41.525  26.769   9.153
 7599POPC   GL134669  41.584  26.826   8.853
 7599POPC   GL234670  41.597  26.938   8.853
 7599POPC   C1A34671  41.549  26.860   8.553
 7599POPC   D2A34672  41.555  26.859   8.253
 7599POPC   C3A34673  41.567  26.804   7.953
 7599POPC   C4A34674  41.543  26.795   7.653
 7599POPC   C1B34675  41.670  27.050   8.553
 7599POPC   C2B34676  41.687  27.044   8.253
 7599POPC   C3B34677  41.672  27.038   7.953
 7599POPC   C4B34678  41.669  27.014   7.653
 7600POPC   NC334679  17.527   8.971   9.453
 7600POPC   PO434680  17.465   8.961   9.153
 7600POPC   GL134681  17.526   8.944   8.853
 7600POPC   GL234682  17.642   8.896   8.853
 7600POPC   C1A34683  17.476   8.949   8.553
 7600POPC   D2A34684  17.483   9.005   8.253
 7600POPC   C3A34685  17.491   8.991   7.953
 7600POPC   C4A34686  17.550   9.018   7.653
 7600POPC   C1B34687  17.648   8.792   8.553
 7600POPC   C2B34688  17.705   8.769   8.253
 7600POPC   C3B34689  17.730   8.792   7.953
 7600POPC   C4B34690  17.672   8.762   7.653
 7601POPC   NC334691  22.202  26.071   9.453
 7601POPC   PO434692  22.163  26.078   9.153
 7601POPC   GL134693  22.153  26.010   8.853
 7601POPC   GL234694  22.116  25.916   8.853
 7601POPC   C1A34695  22.165  25.992   8.553
 7601POPC   D2A34696  22.205  26.021   8.253
 7601POPC   C3A34697  22.158  26.052   7.953
 7601POPC   C4A34698  22.125  25.996   7.653
 7601POPC   C1B34699  22.094  25.856   8.553
 7601POPC   C2B34700  22.049  25.757   8.253
 7601POPC   C3B34701  22.050  25.854   7.953
 7601POPC   C4B34702  22.035  25.850   7.653
 7602POPC   NC334703  35.328   4.366   9.453
 7602POPC   PO434704  35.302   4.321   9.153
 7602POPC   GL134705  35.308   4.271   8.853
 7602POPC   GL234706  35.359   4.405   8.853
 7602POPC   C1A34707  35.398   4.304   8.553
 7602POPC   D2A34708  35.391   4.315   8.253
 7602POPC   C3A34709  35.346   4.314   7.953
 7602POPC   C4A34710  35.338   4.278   7.653
 7602POPC   C1B34711  35.380   4.534   8.553
 7602POPC   C2B34712  35.384   4.533   8.253
 7602POPC   C3B34713  35.354   4.588   7.953
 7602POPC   C4B34714  35.334   4.603   7.653
 7603POPC   NC334715  10.524  23.717   9.453
 7603POPC   PO434716  10.489  23.746   9.153
 7603POPC   GL134717  10.546  23.694   8.853
 7603POPC   GL234718  10.573  23.872   8.853
 7603POPC   C1A34719  10.518  23.724   8.553
 7603POPC   D2A34720  10.509  23.740   8.253
 7603POPC   C3A34721  10.543  23.732   7.953
 7603POPC   C4A34722  10.498  23.732   7.653
 7603POPC   C1B34723  10.561  23.908   8.553
 7603POPC   C2B34724  10.582  23.951   8.253
 7603POPC   C3B34725  10.571  23.949   7.953
 7603POPC   C4B34726  10.641  23.928   7.653
 7604POPC   NC334727  19.870  42.327   9.453
 7604POPC   PO434728  19.852  42.325   9.153
 7604POPC   GL134729  19.876  42.301   8.853
 7604POPC   GL234730  19.809  42.429   8.853
 7604POPC   C1A34731  19.873  42.309   8.553
 7604POPC   D2A34732  19.835  42.288   8.253
 7604POPC   C3A34733  19.814  42.315   7.953
 7604POPC   C4A34734  19.879  42.360   7.653
 7604POPC   C1B34735  19.852  42.596   8.553
 7604POPC   C2B34736  19.904  42.616   8.253
 7604POPC   C3B34737  19.866  42.597   7.953
 7604POPC   C4B34738  19.873  42.575   7.653
 7605POPC   NC334739   2.757  37.703   9.453
 7605POPC   PO434740   2.753  37.718   9.153
 7605POPC   GL134741   2.739  37.702   8.853
 7605POPC   GL234742   2.842  37.658   8.853
 7605POPC   C1A34743   2.784  37.690   8.553
 7605POPC   D2A34744   2.773  37.712   8.253
 7605POPC   C3A34745   2.788  37.682   7.953
 7605POPC   C4A34746   2.801  37.645   7.653
 7605POPC   C1B34747   3.042  37.738   8.553
 7605POPC   C2B34748   2.988  37.681   8.253
 7605POPC   C3B34749   2.977  37.741   7.953
 7605POPC   C4B34750   3.056  37.652   7.653
 7606POPC   NC334751   1.946  22.981   9.453
 7606POPC   PO434752   2.024  22.970   9.153
 7606POPC   GL134753   2.009  22.934   8.853
 7606POPC   GL234754   2.112  22.872   8.853
 7606POPC   C1A34755   2.034  22.949   8.553
 7606POPC   D2A34756   2.030  22.946   8.253
 7606POPC   C3A34757   2.038  22.940   7.953
 7606POPC   C4A34758   1.955  22.924   7.653
 7606POPC   C1B34759   2.230  22.862   8.553
 7606POPC   C2B34760   2.278  22.909   8.253
 7606POPC   C3B34761   2.258  22.833   7.953
 7606POPC   C4B34762   2.257  22.819   7.653
 7607POPC   NC334763  17.460  23.692   9.453
 7607POPC   PO434764  17.535  23.709   9.153
 7607POPC   GL134765  17.519  23.762   8.853
 7607POPC   GL234766  17.572  23.819   8.853
 7607POPC   C1A34767  17.461  23.718   8.553
 7607POPC   D2A34768  17.494  23.678   8.253
 7607POPC   C3A34769  17.506  23.714   7.953
 7607POPC   C4A34770  17.499  23.717   7.653
 7607POPC   C1B34771  17.737  23.844   8.553
 7607POPC   C2B34772  17.719  23.894   8.253
 7607POPC   C3B34773  17.664  23.926   7.953
 7607POPC   C4B34774  17.688  23.906   7.653
 7608POPC   NC334775  39.205  15.945   9.453
 7608POPC   PO434776  39.229  15.976   9.153
 7608POPC   GL134777  39.209  15.988   8.853
 7608POPC   GL234778  39.248  15.828   8.853
 7608POPC   C1A34779  39.236  15.952   8.553
 7608POPC   D2A34780  39.222  15.925   8.253
 7608POPC   C3A34781  39.199  15.958   7.953
 7608POPC   C4A34782  39.202  15.953   7.653
 7608POPC   C1B34783  39.271  15.724   8.553
 7608POPC   C2B34784  39.281  15.753   8.253
 7608POPC   C3B34785  39.286  15.657   7.953
 7608POPC   C4B34786  39.196  15.721   7.653
 7609POPC   NC334787   9.722  22.170   9.453
 7609POPC   PO434788   9.713  22.162   9.153
 7609POPC   GL134789   9.762  22.128   8.853
 7609POPC   GL234790   9.754  22.001   8.853
 7609POPC   C1A34791   9.773  22.178   8.553
 7609POPC   D2A34792   9.708  22.140   8.253
 7609POPC   C3A34793   9.778  22.125   7.953
 7609POPC   C4A34794   9.788  22.178   7.653
 7609POPC   C1B34795   9.872  21.951   8.553
 7609POPC   C2B34796   9.831  21.944   8.253
 7609POPC   C3B34797   9.826  21.965   7.953
 7609POPC   C4B34798   9.782  21.950   7.653
 7610POPC   NC334799  27.583   8.950   9.453
 7610POPC   PO434800  27.625   8.959   9.153
 7610POPC   GL134801  27.632   8.924   8.853
 7610POPC   GL234802  27.670   9.009   8.853
 7610POPC   C1A34803  27.566   8.969   8.553
 7610POPC   D2A34804  27.571   9.016   8.253
 7610POPC   C3A34805  27.587   9.002   7.953
 7610POPC   C4A34806  27.628   8.925   7.653
 7610POPC   C1B34807  27.816   9.046   8.553
 7610POPC   C2B34808  27.838   9.046   8.253
 7610POPC   C3B34809  27.791   9.063   7.953
 7610POPC   C4B34810  27.804   9.116   7.653
 7611POPC   NC334811  21.409  21.387   9.453
 7611POPC   PO434812  21.414  21.435   9.153
 7611POPC   GL134813  21.359  21.421   8.853
 7611POPC   GL234814  21.445  21.325   8.853
 7611POPC   C1A34815  21.366  21.410   8.553
 7611POPC   D2A34816  21.400  21.354   8.253
 7611POPC   C3A34817  21.355  21.427   7.953
 7611POPC   C4A34818  21.358  21.425   7.653
 7611POPC   C1B34819  21.630  21.214   8.553
 7611POPC   C2B34820  21.642  21.288   8.253
 7611POPC   C3B34821  21.615  21.204   7.953
 7611POPC   C4B34822  21.647  21.209   7.653
 7612POPC   NC334823  43.071  41.556   9.453
 7612POPC   PO434824  43.065  41.550   9.153
 7612POPC   GL134825  43.116  41.527   8.853
 7612POPC   GL234826  43.110  41.398   8.853
 7612POPC   C1A34827  43.072  41.560   8.553
 7612POPC   D2A34828  43.139  41.539   8.253
 7612POPC   C3A34829  43.070  41.548   7.953
 7612POPC   C4A34830  43.151  41.539   7.653
 7612POPC   C1B34831  43.060  41.265   8.553
 7612POPC   C2B34832  43.092  41.291   8.253
 7612POPC   C3B34833  43.068  41.336   7.953
 7612POPC   C4B34834  43.124  41.265   7.653
 7613POPC   NC334835   2.006   1.988   9.453
 7613POPC   PO434836   2.028   2.014   9.153
 7613POPC   GL134837   1.976   2.018   8.853
 7613POPC   GL234838   1.923   1.816   8.853
 7613POPC   C1A34839   2.001   1.961   8.553
 7613POPC   D2A34840   2.016   2.037   8.253
 7613POPC   C3A34841   2.035   2.037   7.953
 7613POPC   C4A34842   2.014   1.971   7.653
 7613POPC   C1B34843   1.952   1.709   8.553
 7613POPC   C2B34844   1.935   1.770   8.253
 7613POPC   C3B34845   1.947   1.745   7.953
 7613POPC   C4B34846   1.981   1.700   7.653
 7614POPC   NC334847  40.777  12.890   9.453
 7614POPC   PO434848  40.832  12.867   9.153
 7614POPC   GL134849  40.758  12.841   8.853
 7614POPC   GL234850  40.934  12.865   8.853
 7614POPC   C1A34851  40.774  12.882   8.553
 7614POPC   D2A34852  40.800  12.864   8.253
 7614POPC   C3A34853  40.751  12.832   7.953
 7614POPC   C4A34854  40.824  12.856   7.653
 7614POPC   C1B34855  40.980  12.950   8.553
 7614POPC   C2B34856  41.026  12.973   8.253
 7614POPC   C3B34857  40.985  12.976   7.953
 7614POPC   C4B34858  41.068  12.904   7.653
 7615POPC   NC334859  41.566   1.191   9.453
 7615POPC   PO434860  41.599   1.203   9.153
 7615POPC   GL134861  41.598   1.179   8.853
 7615POPC   GL234862  41.670   1.269   8.853
 7615POPC   C1A34863  41.586   1.228   8.553
 7615POPC   D2A34864  41.518   1.248   8.253
 7615POPC   C3A34865  41.566   1.255   7.953
 7615POPC   C4A34866  41.519   1.249   7.653
 7615POPC   C1B34867  41.829   1.302   8.553
 7615POPC   C2B34868  41.838   1.274   8.253
 7615POPC   C3B34869  41.797   1.322   7.953
 7615POPC   C4B34870  41.839   1.318   7.653
 7616POPC   NC334871  15.968   5.132   9.453
 7616POPC   PO434872  15.941   5.078   9.153
 7616POPC   GL134873  15.924   5.114   8.853
 7616POPC   GL234874  15.857   4.984   8.853
 7616POPC   C1A34875  16.005   5.139   8.553
 7616POPC   D2A34876  15.968   5.056   8.253
 7616POPC   C3A34877  15.960   5.116   7.953
 7616POPC   C4A34878  15.927   5.133   7.653
 7616POPC   C1B34879  15.830   4.859   8.553
 7616POPC   C2B34880  15.817   4.870   8.253
 7616POPC   C3B34881  15.865   4.929   7.953
 7616POPC   C4B34882  15.840   4.874   7.653
 7617POPC   NC334883  42.363  26.837   9.453
 7617POPC   PO434884  42.287  26.790   9.153
 7617POPC   GL134885  42.353  26.790   8.853
 7617POPC   GL234886  42.220  26.718   8.853
 7617POPC   C1A34887  42.302  26.779   8.553
 7617POPC   D2A34888  42.384  26.827   8.253
 7617POPC   C3A34889  42.308  26.853   7.953
 7617POPC   C4A34890  42.348  26.855   7.653
 7617POPC   C1B34891  42.183  26.593   8.553
 7617POPC   C2B34892  42.129  26.603   8.253
 7617POPC   C3B34893  42.202  26.592   7.953
 7617POPC   C4B34894  42.187  26.671   7.653
 7618POPC   NC334895  36.173  43.934   9.453
 7618POPC   PO434896  36.150  43.883   9.153
 7618POPC   GL134897  36.091  43.895   8.853
 7618POPC   GL234898  36.201  43.896   8.853
 7618POPC   C1A34899  36.174  43.906   8.553
 7618POPC   D2A34900  36.109  43.855   8.253
 7618POPC   C3A34901  36.107  43.932   7.953
 7618POPC   C4A34902  36.111  43.846   7.653
 7618POPC   C1B34903  36.407  43.912   8.553
 7618POPC   C2B34904  36.379  43.945   8.253
 7618POPC   C3B34905  36.331  43.943   7.953
 7618POPC   C4B34906  36.387  43.920   7.653
 7619POPC   NC334907  38.482  26.039   9.453
 7619POPC   PO434908  38.456  26.033   9.153
 7619POPC   GL134909  38.473  26.016   8.853
 7619POPC   GL234910  38.405  26.164   8.853
 7619POPC   C1A34911  38.496  26.046   8.553
 7619POPC   D2A34912  38.429  26.066   8.253
 7619POPC   C3A34913  38.485  26.063   7.953
 7619POPC   C4A34914  38.504  25.999   7.653
 7619POPC   C1B34915  38.430  26.276   8.553
 7619POPC   C2B34916  38.384  26.335   8.253
 7619POPC   C3B34917  38.386  26.321   7.953
 7619POPC   C4B34918  38.420  26.322   7.653
 7620POPC   NC334919  26.792  11.283   9.453
 7620POPC   PO434920  26.779  11.257   9.153
 7620POPC   GL134921  26.798  11.320   8.853
 7620POPC   GL234922  26.821  11.211   8.853
 7620POPC   C1A34923  26.811  11.274   8.553
 7620POPC   D2A34924  26.813  11.333   8.253
 7620POPC   C3A34925  26.839  11.292   7.953
 7620POPC   C4A34926  26.790  11.261   7.653
 7620POPC   C1B34927  26.813  11.069   8.553
 7620POPC   C2B34928  26.868  11.092   8.253
 7620POPC   C3B34929  26.826  11.077   7.953
 7620POPC   C4B34930  26.830  11.059   7.653
 7621POPC   NC334931  19.859  43.932   9.453
 7621POPC   PO434932  19.865  43.929   9.153
 7621POPC   GL134933  19.815  43.892   8.853
 7621POPC   GL234934  19.762  43.802   8.853
 7621POPC   C1A34935  19.852  43.883   8.553
 7621POPC   D2A34936  19.828  43.902   8.253
 7621POPC   C3A34937  19.862  43.898   7.953
 7621POPC   C4A34938  19.849  43.842   7.653
 7621POPC   C1B34939  19.643  43.777   8.553
 7621POPC   C2B34940  19.669  43.778   8.253
 7621POPC   C3B34941  19.624  43.720   7.953
 7621POPC   C4B34942  19.651  43.748   7.653
 7622POPC   NC334943  36.931  13.652   9.453
 7622POPC   PO434944  36.874  13.602   9.153
 7622POPC   GL134945  36.932  13.580   8.853
 7622POPC   GL234946  36.949  13.560   8.853
 7622POPC   C1A34947  36.943  13.610   8.553
 7622POPC   D2A34948  36.863  13.642   8.253
 7622POPC   C3A34949  36.867  13.605   7.953
 7622POPC   C4A34950  36.936  13.635   7.653
 7622POPC   C1B34951  37.049  13.505   8.553
 7622POPC   C2B34952  37.104  13.475   8.253
 7622POPC   C3B34953  37.047  13.507   7.953
 7622POPC   C4B34954  37.070  13.473   7.653
 7623POPC   NC334955   8.967  15.980   9.453
 7623POPC   PO434956   9.014  15.973   9.153
 7623POPC   GL134957   8.967  15.906   8.853
 7623POPC   GL234958   8.826  15.921   8.853
 7623POPC   C1A34959   8.951  15.906   8.553
 7623POPC   D2A34960   8.993  15.956   8.253
 7623POPC   C3A34961   8.929  15.990   7.953
 7623POPC   C4A34962   9.017  15.976   7.653
 7623POPC   C1B34963   8.721  15.963   8.553
 7623POPC   C2B34964   8.720  15.995   8.253
 7623POPC   C3B34965   8.723  15.962   7.953
 7623POPC   C4B34966   8.728  16.007   7.653
 7624POPC   NC334967   2.783  29.111   9.453
 7624POPC   PO434968   2.792  29.159   9.153
 7624POPC   GL134969   2.772  29.121   8.853
 7624POPC   GL234970   2.733  29.054   8.853
 7624POPC   C1A34971   2.808  29.194   8.553
 7624POPC   D2A34972   2.753  29.146   8.253
 7624POPC   C3A34973   2.807  29.140   7.953
 7624POPC   C4A34974   2.803  29.194   7.653
 7624POPC   C1B34975   2.681  28.949   8.553
 7624POPC   C2B34976   2.714  28.906   8.253
 7624POPC   C3B34977   2.723  28.858   7.953
 7624POPC   C4B34978   2.727  28.920   7.653
 7625POPC   NC334979  39.182  36.110   9.453
 7625POPC   PO434980  39.196  36.113   9.153
 7625POPC   GL134981  39.226  36.165   8.853
 7625POPC   GL234982  39.124  36.170   8.853
 7625POPC   C1A34983  39.239  36.109   8.553
 7625POPC   D2A34984  39.275  36.176   8.253
 7625POPC   C3A34985  39.268  36.107   7.953
 7625POPC   C4A34986  39.183  36.091   7.653
 7625POPC   C1B34987  38.955  36.226   8.553
 7625POPC   C2B34988  39.035  36.180   8.253
 7625POPC   C3B34989  39.005  36.212   7.953
 7625POPC   C4B34990  38.958  36.224   7.653
 7626POPC   NC334991   5.065  25.314   9.453
 7626POPC   PO434992   5.103  25.303   9.153
 7626POPC   GL134993   5.083  25.240   8.853
 7626POPC   GL234994   4.924  25.306   8.853
 7626POPC   C1A34995   5.098  25.234   8.553
 7626POPC   D2A34996   5.090  25.247   8.253
 7626POPC   C3A34997   5.123  25.314   7.953
 7626POPC   C4A34998   5.107  25.256   7.653
 7626POPC   C1B34999   4.897  25.301   8.553
 7626POPC   C2B35000   4.871  25.335   8.253
 7626POPC   C3B35001   4.843  25.290   7.953
 7626POPC   C4B35002   4.817  25.346   7.653
 7627POPC   NC335003  17.493  43.931   9.453
 7627POPC   PO435004  17.535  43.886   9.153
 7627POPC   GL135005  17.479  43.851   8.853
 7627POPC   GL235006  17.533  43.972   8.853
 7627POPC   C1A35007  17.493  43.921   8.553
 7627POPC   D2A35008  17.508  43.911   8.253
 7627POPC   C3A35009  17.484  43.932   7.953
 7627POPC   C4A35010  17.547  43.843   7.653
 7627POPC   C1B35011  17.510  44.149   8.553
 7627POPC   C2B35012  17.494  44.115   8.253
 7627POPC   C3B35013  17.488  44.097   7.953
 7627POPC   C4B35014  17.582  44.103   7.653
 7628POPC   NC335015  26.071  39.969   9.453
 7628POPC   PO435016  26.027  39.977   9.153
 7628POPC   GL135017  26.016  40.026   8.853
 7628POPC   GL235018  26.119  39.992   8.853
 7628POPC   C1A35019  25.995  39.987   8.553
 7628POPC   D2A35020  26.063  40.050   8.253
 7628POPC   C3A35021  26.009  40.010   7.953
 7628POPC   C4A35022  26.026  40.020   7.653
 7628POPC   C1B35023  26.324  39.957   8.553
 7628POPC   C2B35024  26.242  40.003   8.253
 7628POPC   C3B35025  26.313  39.926   7.953
 7628POPC   C4B35026  26.301  39.942   7.653
 7629POPC   NC335027  26.086  43.095   9.453
 7629POPC   PO435028  26.039  43.123   9.153
 7629POPC   GL135029  26.067  43.078   8.853
 7629POPC   GL235030  26.068  42.970   8.853
 7629POPC   C1A35031  26.008  43.095   8.553
 7629POPC   D2A35032  26.010  43.141   8.253
 7629POPC   C3A35033  26.065  43.109   7.953
 7629POPC   C4A35034  26.089  43.127   7.653
 7629POPC   C1B35035  26.134  42.901   8.553
 7629POPC   C2B35036  26.087  42.866   8.253
 7629POPC   C3B35037  26.099  42.883   7.953
 7629POPC   C4B35038  26.179  42.882   7.653
 7630POPC   NC335039  13.647  30.745   9.453
 7630POPC   PO435040  13.613  30.704   9.153
 7630POPC   GL135041  13.670  30.713   8.853
 7630POPC   GL235042  13.593  30.614   8.853
 7630POPC   C1A35043  13.584  30.731   8.553
 7630POPC   D2A35044  13.643  30.665   8.253
 7630POPC   C3A35045  13.610  30.740   7.953
 7630POPC   C4A35046  13.648  30.722   7.653
 7630POPC   C1B35047  13.502  30.450   8.553
 7630POPC   C2B35048  13.552  30.464   8.253
 7630POPC   C3B35049  13.476  30.441   7.953
 7630POPC   C4B35050  13.483  30.505   7.653
 7631POPC   NC335051   1.206  40.769   9.453
 7631POPC   PO435052   1.247  40.734   9.153
 7631POPC   GL135053   1.208  40.799   8.853
 7631POPC   GL235054   1.127  40.892   8.853
 7631POPC   C1A35055   1.233  40.783   8.553
 7631POPC   D2A35056   1.221  40.826   8.253
 7631POPC   C3A35057   1.238  40.810   7.953
 7631POPC   C4A35058   1.173  40.771   7.653
 7631POPC   C1B35059   1.045  40.893   8.553
 7631POPC   C2B35060   1.042  40.894   8.253
 7631POPC   C3B35061   0.997  40.930   7.953
 7631POPC   C4B35062   1.012  40.941   7.653
 7632POPC   NC335063   4.270  24.496   9.453
 7632POPC   PO435064   4.270  24.451   9.153
 7632POPC   GL135065   4.311  24.482   8.853
 7632POPC   GL235066   4.353  24.568   8.853
 7632POPC   C1A35067   4.331  24.523   8.553
 7632POPC   D2A35068   4.288  24.513   8.253
 7632POPC   C3A35069   4.357  24.464   7.953
 7632POPC   C4A35070   4.329  24.488   7.653
 7632POPC   C1B35071   4.457  24.654   8.553
 7632POPC   C2B35072   4.500  24.656   8.253
 7632POPC   C3B35073   4.488  24.663   7.953
 7632POPC   C4B35074   4.473  24.672   7.653
 7633POPC   NC335075  11.291  43.145   9.453
 7633POPC   PO435076  11.252  43.116   9.153
 7633POPC   GL135077  11.258  43.124   8.853
 7633POPC   GL235078  11.135  43.122   8.853
 7633POPC   C1A35079  11.271  43.077   8.553
 7633POPC   D2A35080  11.320  43.061   8.253
 7633POPC   C3A35081  11.312  43.089   7.953
 7633POPC   C4A35082  11.327  43.160   7.653
 7633POPC   C1B35083  11.049  43.174   8.553
 7633POPC   C2B35084  11.053  43.159   8.253
 7633POPC   C3B35085  11.029  43.197   7.953
 7633POPC   C4B35086  11.071  43.195   7.653
 7634POPC   NC335087  44.680  44.679   9.453
 7634POPC   PO435088  44.709  44.621   9.153
 7634POPC   GL135089  44.700  44.668   8.853
 7634POPC   GL235090  44.745  44.684   8.853
 7634POPC   C1A35091  44.677  44.618   8.553
 7634POPC   D2A35092  44.614  44.711   8.253
 7634POPC   C3A35093  44.648  44.675   7.953
 7634POPC   C4A35094  44.684  44.634   7.653
 7634POPC   C1B35095  44.878  44.700   8.553
 7634POPC   C2B35096  44.867  44.757   8.253
 7634POPC   C3B35097  44.882  44.759   7.953
 7634POPC   C4B35098  44.936  44.770   7.653
 7635POPC   NC335099  23.671   0.481   9.453
 7635POPC   PO435100  23.683   0.444   9.153
 7635POPC   GL135101  23.699   0.412   8.853
 7635POPC   GL235102  23.560   0.457   8.853
 7635POPC   C1A35103  23.703   0.486   8.553
 7635POPC   D2A35104  23.692   0.474   8.253
 7635POPC   C3A35105  23.698   0.464   7.953
 7635POPC   C4A35106  23.759   0.466   7.653
 7635POPC   C1B35107  23.459   0.588   8.553
 7635POPC   C2B35108  23.509   0.590   8.253
 7635POPC   C3B35109  23.505   0.568   7.953
 7635POPC   C4B35110  23.473   0.556   7.653
 7636POPC   NC335111  18.272   8.928   9.453
 7636POPC   PO435112  18.258   8.947   9.153
 7636POPC   GL135113  18.251   8.999   8.853
 7636POPC   GL235114  18.230   9.058   8.853
 7636POPC   C1A35115  18.258   8.940   8.553
 7636POPC   D2A35116  18.314   9.002   8.253
 7636POPC   C3A35117  18.304   8.983   7.953
 7636POPC   C4A35118  18.318   8.988   7.653
 7636POPC   C1B35119  18.214   9.162   8.553
 7636POPC   C2B35120  18.209   9.216   8.253
 7636POPC   C3B35121  18.162   9.177   7.953
 7636POPC   C4B35122  18.155   9.186   7.653
 7637POPC   NC335123   2.743  10.553   9.453
 7637POPC   PO435124   2.804  10.551   9.153
 7637POPC   GL135125   2.760  10.482   8.853
 7637POPC   GL235126   2.837  10.396   8.853
 7637POPC   C1A35127   2.764  10.480   8.553
 7637POPC   D2A35128   2.806  10.505   8.253
 7637POPC   C3A35129   2.766  10.504   7.953
 7637POPC   C4A35130   2.789  10.561   7.653
 7637POPC   C1B35131   2.811  10.320   8.553
 7637POPC   C2B35132   2.767  10.267   8.253
 7637POPC   C3B35133   2.803  10.245   7.953
 7637POPC   C4B35134   2.793  10.256   7.653
 7638POPC   NC335135   1.940  42.310   9.453
 7638POPC   PO435136   1.953  42.323   9.153
 7638POPC   GL135137   1.966  42.354   8.853
 7638POPC   GL235138   1.858  42.311   8.853
 7638POPC   C1A35139   1.946  42.360   8.553
 7638POPC   D2A35140   2.036  42.312   8.253
 7638POPC   C3A35141   2.000  42.342   7.953
 7638POPC   C4A35142   2.007  42.345   7.653
 7638POPC   C1B35143   1.762  42.260   8.553
 7638POPC   C2B35144   1.739  42.197   8.253
 7638POPC   C3B35145   1.751  42.259   7.953
 7638POPC   C4B35146   1.760  42.213   7.653
 7639POPC   NC335147  41.547  30.687   9.453
 7639POPC   PO435148  41.548  30.665   9.153
 7639POPC   GL135149  41.513  30.731   8.853
 7639POPC   GL235150  41.474  30.700   8.853
 7639POPC   C1A35151  41.601  30.692   8.553
 7639POPC   D2A35152  41.518  30.701   8.253
 7639POPC   C3A35153  41.570  30.664   7.953
 7639POPC   C4A35154  41.547  30.727   7.653
 7639POPC   C1B35155  41.346  30.724   8.553
 7639POPC   C2B35156  41.341  30.696   8.253
 7639POPC   C3B35157  41.310  30.731   7.953
 7639POPC   C4B35158  41.289  30.748   7.653
 7640POPC   NC335159   6.676  10.494   9.453
 7640POPC   PO435160   6.672  10.507   9.153
 7640POPC   GL135161   6.600  10.533   8.853
 7640POPC   GL235162   6.722  10.544   8.853
 7640POPC   C1A35163   6.645  10.536   8.553
 7640POPC   D2A35164   6.627  10.502   8.253
 7640POPC   C3A35165   6.629  10.488   7.953
 7640POPC   C4A35166   6.648  10.491   7.653
 7640POPC   C1B35167   6.937  10.523   8.553
 7640POPC   C2B35168   6.853  10.564   8.253
 7640POPC   C3B35169   6.864  10.568   7.953
 7640POPC   C4B35170   6.931  10.606   7.653
 7641POPC   NC335171  15.130   1.979   9.453
 7641POPC   PO435172  15.194   1.950   9.153
 7641POPC   GL135173  15.170   1.996   8.853
 7641POPC   GL235174  15.087   2.015   8.853
 7641POPC   C1A35175  15.189   1.969   8.553
 7641POPC   D2A35176  15.167   1.972   8.253
 7641POPC   C3A35177  15.139   1.963   7.953
 7641POPC   C4A35178  15.190   2.000   7.653
 7641POPC   C1B35179  14.916   2.005   8.553
 7641POPC   C2B35180  14.961   1.945   8.253
 7641POPC   C3B35181  14.915   1.962   7.953
 7641POPC   C4B35182  14.897   1.978   7.653
 7642POPC   NC335183  42.296  15.991   9.453
 7642POPC   PO435184  42.355  15.985   9.153
 7642POPC   GL135185  42.285  15.986   8.853
 7642POPC   GL235186  42.260  15.904   8.853
 7642POPC   C1A35187  42.343  15.940   8.553
 7642POPC   D2A35188  42.346  15.967   8.253
 7642POPC   C3A35189  42.377  15.998   7.953
 7642POPC   C4A35190  42.366  15.956   7.653
 7642POPC   C1B35191  42.121  15.758   8.553
 7642POPC   C2B35192  42.159  15.792   8.253
 7642POPC   C3B35193  42.135  15.811   7.953
 7642POPC   C4B35194  42.164  15.798   7.653
 7643POPC   NC335195   2.011   8.221   9.453
 7643POPC   PO435196   1.958   8.217   9.153
 7643POPC   GL135197   1.995   8.200   8.853
 7643POPC   GL235198   2.066   8.282   8.853
 7643POPC   C1A35199   1.960   8.180   8.553
 7643POPC   D2A35200   1.945   8.213   8.253
 7643POPC   C3A35201   2.011   8.226   7.953
 7643POPC   C4A35202   2.036   8.228   7.653
 7643POPC   C1B35203   2.151   8.464   8.553
 7643POPC   C2B35204   2.077   8.385   8.253
 7643POPC   C3B35205   2.116   8.445   7.953
 7643POPC   C4B35206   2.150   8.452   7.653
 7644POPC   NC335207  22.208  24.500   9.453
 7644POPC   PO435208  22.122  24.535   9.153
 7644POPC   GL135209  22.201  24.526   8.853
 7644POPC   GL235210  22.112  24.587   8.853
 7644POPC   C1A35211  22.206  24.506   8.553
 7644POPC   D2A35212  22.183  24.531   8.253
 7644POPC   C3A35213  22.197  24.506   7.953
 7644POPC   C4A35214  22.208  24.507   7.653
 7644POPC   C1B35215  21.979  24.622   8.553
 7644POPC   C2B35216  21.988  24.624   8.253
 7644POPC   C3B35217  21.962  24.674   7.953
 7644POPC   C4B35218  22.038  24.648   7.653
 7645POPC   NC335219   0.474  40.013   9.453
 7645POPC   PO435220   0.428  40.001   9.153
 7645POPC   GL135221   0.470  40.043   8.853
 7645POPC   GL235222   0.537  39.913   8.853
 7645POPC   C1A35223   0.487  39.977   8.553
 7645POPC   D2A35224   0.463  40.019   8.253
 7645POPC   C3A35225   0.452  39.973   7.953
 7645POPC   C4A35226   0.406  40.039   7.653
 7645POPC   C1B35227   0.670  39.857   8.553
 7645POPC   C2B35228   0.664  39.788   8.253
 7645POPC   C3B35229   0.652  39.792   7.953
 7645POPC   C4B35230   0.620  39.862   7.653
 7646POPC   NC335231  19.857  38.437   9.453
 7646POPC   PO435232  19.878  38.456   9.153
 7646POPC   GL135233  19.827  38.462   8.853
 7646POPC   GL235234  19.734  38.310   8.853
 7646POPC   C1A35235  19.849  38.501   8.553
 7646POPC   D2A35236  19.865  38.420   8.253
 7646POPC   C3A35237  19.832  38.477   7.953
 7646POPC   C4A35238  19.836  38.496   7.653
 7646POPC   C1B35239  19.761  38.264   8.553
 7646POPC   C2B35240  19.725  38.243   8.253
 7646POPC   C3B35241  19.716  38.269   7.953
 7646POPC   C4B35242  19.745  38.183   7.653
 7647POPC   NC335243  39.194  33.071   9.453
 7647POPC   PO435244  39.261  33.039   9.153
 7647POPC   GL135245  39.216  32.977   8.853
 7647POPC   GL235246  39.213  32.938   8.853
 7647POPC   C1A35247  39.182  32.976   8.553
 7647POPC   D2A35248  39.183  33.025   8.253
 7647POPC   C3A35249  39.203  33.038   7.953
 7647POPC   C4A35250  39.251  33.010   7.653
 7647POPC   C1B35251  39.179  32.750   8.553
 7647POPC   C2B35252  39.214  32.810   8.253
 7647POPC   C3B35253  39.192  32.732   7.953
 7647POPC   C4B35254  39.213  32.779   7.653
 7648POPC   NC335255   7.440  23.701   9.453
 7648POPC   PO435256   7.427  23.751   9.153
 7648POPC   GL135257   7.459  23.682   8.853
 7648POPC   GL235258   7.400  23.567   8.853
 7648POPC   C1A35259   7.420  23.706   8.553
 7648POPC   D2A35260   7.463  23.717   8.253
 7648POPC   C3A35261   7.436  23.740   7.953
 7648POPC   C4A35262   7.467  23.685   7.653
 7648POPC   C1B35263   7.295  23.489   8.553
 7648POPC   C2B35264   7.365  23.485   8.253
 7648POPC   C3B35265   7.329  23.478   7.953
 7648POPC   C4B35266   7.336  23.489   7.653
 7649POPC   NC335267   3.586  41.577   9.453
 7649POPC   PO435268   3.518  41.546   9.153
 7649POPC   GL135269   3.513  41.575   8.853
 7649POPC   GL235270   3.687  41.543   8.853
 7649POPC   C1A35271   3.507  41.510   8.553
 7649POPC   D2A35272   3.583  41.601   8.253
 7649POPC   C3A35273   3.531  41.520   7.953
 7649POPC   C4A35274   3.531  41.555   7.653
 7649POPC   C1B35275   3.764  41.611   8.553
 7649POPC   C2B35276   3.793  41.544   8.253
 7649POPC   C3B35277   3.791  41.595   7.953
 7649POPC   C4B35278   3.827  41.623   7.653
 7650POPC   NC335279  22.959  24.491   9.453
 7650POPC   PO435280  22.901  24.449   9.153
 7650POPC   GL135281  22.914  24.526   8.853
 7650POPC   GL235282  22.989  24.355   8.853
 7650POPC   C1A35283  22.933  24.462   8.553
 7650POPC   D2A35284  22.925  24.446   8.253
 7650POPC   C3A35285  22.912  24.444   7.953
 7650POPC   C4A35286  22.905  24.534   7.653
 7650POPC   C1B35287  23.029  24.292   8.553
 7650POPC   C2B35288  23.002  24.249   8.253
 7650POPC   C3B35289  23.009  24.248   7.953
 7650POPC   C4B35290  22.969  24.270   7.653
 7651POPC   NC335291  12.829  23.698   9.453
 7651POPC   PO435292  12.838  23.710   9.153
 7651POPC   GL135293  12.880  23.681   8.853
 7651POPC   GL235294  12.702  23.720   8.853
 7651POPC   C1A35295  12.824  23.705   8.553
 7651POPC   D2A35296  12.902  23.703   8.253
 7651POPC   C3A35297  12.822  23.715   7.953
 7651POPC   C4A35298  12.884  23.764   7.653
 7651POPC   C1B35299  12.636  23.813   8.553
 7651POPC   C2B35300  12.618  23.838   8.253
 7651POPC   C3B35301  12.626  23.819   7.953
 7651POPC   C4B35302  12.590  23.782   7.653
 7652POPC   NC335303  44.659  41.596   9.453
 7652POPC   PO435304  44.642  41.564   9.153
 7652POPC   GL135305  44.687  41.524   8.853
 7652POPC   GL235306  44.494  41.545   8.853
 7652POPC   C1A35307  44.711  41.585   8.553
 7652POPC   D2A35308  44.636  41.563   8.253
 7652POPC   C3A35309  44.634  41.603   7.953
 7652POPC   C4A35310  44.708  41.568   7.653
 7652POPC   C1B35311  44.373  41.613   8.553
 7652POPC   C2B35312  44.408  41.538   8.253
 7652POPC   C3B35313  44.439  41.546   7.953
 7652POPC   C4B35314  44.376  41.576   7.653
 7653POPC   NC335315  24.467  19.044   9.453
 7653POPC   PO435316  24.522  19.102   9.153
 7653POPC   GL135317  24.512  19.086   8.853
 7653POPC   GL235318  24.489  18.953   8.853
 7653POPC   C1A35319  24.450  19.062   8.553
 7653POPC   D2A35320  24.505  19.024   8.253
 7653POPC   C3A35321  24.514  19.045   7.953
 7653POPC   C4A35322  24.508  19.069   7.653
 7653POPC   C1B35323  24.553  18.784   8.553
 7653POPC   C2B35324  24.547  18.843   8.253
 7653POPC   C3B35325  24.555  18.829   7.953
 7653POPC   C4B35326  24.584  18.806   7.653
 7654POPC   NC335327  19.857  22.967   9.453
 7654POPC   PO435328  19.849  22.901   9.153
 7654POPC   GL135329  19.877  22.958   8.853
 7654POPC   GL235330  19.991  22.925   8.853
 7654POPC   C1A35331  19.870  22.918   8.553
 7654POPC   D2A35332  19.787  22.945   8.253
 7654POPC   C3A35333  19.850  22.906   7.953
 7654POPC   C4A35334  19.826  22.893   7.653
 7654POPC   C1B35335  20.031  22.914   8.553
 7654POPC   C2B35336  20.053  22.900   8.253
 7654POPC   C3B35337  20.090  22.908   7.953
 7654POPC   C4B35338  20.030  22.845   7.653
 7655POPC   NC335339  43.885  26.819   9.453
 7655POPC   PO435340  43.912  26.858   9.153
 7655POPC   GL135341  43.860  26.768   8.853
 7655POPC   GL235342  43.834  26.674   8.853
 7655POPC   C1A35343  43.932  26.779   8.553
 7655POPC   D2A35344  43.906  26.806   8.253
 7655POPC   C3A35345  43.882  26.772   7.953
 7655POPC   C4A35346  43.926  26.776   7.653
 7655POPC   C1B35347  43.845  26.574   8.553
 7655POPC   C2B35348  43.783  26.580   8.253
 7655POPC   C3B35349  43.762  26.556   7.953
 7655POPC   C4B35350  43.776  26.548   7.653
 7656POPC   NC335351  16.753  23.733   9.453
 7656POPC   PO435352  16.717  23.699   9.153
 7656POPC   GL135353  16.715  23.677   8.853
 7656POPC   GL235354  16.614  23.696   8.853
 7656POPC   C1A35355  16.682  23.738   8.553
 7656POPC   D2A35356  16.684  23.719   8.253
 7656POPC   C3A35357  16.776  23.717   7.953
 7656POPC   C4A35358  16.767  23.683   7.653
 7656POPC   C1B35359  16.518  23.590   8.553
 7656POPC   C2B35360  16.515  23.606   8.253
 7656POPC   C3B35361  16.525  23.553   7.953
 7656POPC   C4B35362  16.476  23.565   7.653
 7657POPC   NC335363  32.262  31.522   9.453
 7657POPC   PO435364  32.208  31.497   9.153
 7657POPC   GL135365  32.297  31.444   8.853
 7657POPC   GL235366  32.305  31.609   8.853
 7657POPC   C1A35367  32.234  31.462   8.553
 7657POPC   D2A35368  32.288  31.450   8.253
 7657POPC   C3A35369  32.241  31.490   7.953
 7657POPC   C4A35370  32.271  31.427   7.653
 7657POPC   C1B35371  32.337  31.641   8.553
 7657POPC   C2B35372  32.398  31.650   8.253
 7657POPC   C3B35373  32.332  31.712   7.953
 7657POPC   C4B35374  32.350  31.720   7.653
 7658POPC   NC335375  26.815   7.439   9.453
 7658POPC   PO435376  26.853   7.405   9.153
 7658POPC   GL135377  26.864   7.441   8.853
 7658POPC   GL235378  26.752   7.357   8.853
 7658POPC   C1A35379  26.822   7.436   8.553
 7658POPC   D2A35380  26.816   7.415   8.253
 7658POPC   C3A35381  26.835   7.398   7.953
 7658POPC   C4A35382  26.845   7.405   7.653
 7658POPC   C1B35383  26.643   7.242   8.553
 7658POPC   C2B35384  26.665   7.233   8.253
 7658POPC   C3B35385  26.680   7.272   7.953
 7658POPC   C4B35386  26.662   7.298   7.653
 7659POPC   NC335387  29.951  15.966   9.453
 7659POPC   PO435388  29.882  15.942   9.153
 7659POPC   GL135389  29.966  15.934   8.853
 7659POPC   GL235390  30.090  15.989   8.853
 7659POPC   C1A35391  29.908  15.969   8.553
 7659POPC   D2A35392  29.885  15.945   8.253
 7659POPC   C3A35393  29.918  15.943   7.953
 7659POPC   C4A35394  29.957  15.978   7.653
 7659POPC   C1B35395  30.147  16.045   8.553
 7659POPC   C2B35396  30.162  15.995   8.253
 7659POPC   C3B35397  30.175  15.982   7.953
 7659POPC   C4B35398  30.113  16.042   7.653
 7660POPC   NC335399   1.241  22.939   9.453
 7660POPC   PO435400   1.259  22.933   9.153
 7660POPC   GL135401   1.249  22.898   8.853
 7660POPC   GL235402   1.376  23.025   8.853
 7660POPC   C1A35403   1.249  22.895   8.553
 7660POPC   D2A35404   1.240  22.925   8.253
 7660POPC   C3A35405   1.176  22.952   7.953
 7660POPC   C4A35406   1.229  22.958   7.653
 7660POPC   C1B35407   1.430  23.032   8.553
 7660POPC   C2B35408   1.418  23.082   8.253
 7660POPC   C3B35409   1.453  22.998   7.953
 7660POPC   C4B35410   1.440  23.007   7.653
 7661POPC   NC335411  15.198  28.329   9.453
 7661POPC   PO435412  15.150  28.393   9.153
 7661POPC   GL135413  15.141  28.363   8.853
 7661POPC   GL235414  15.234  28.505   8.853
 7661POPC   C1A35415  15.158  28.400   8.553
 7661POPC   D2A35416  15.226  28.323   8.253
 7661POPC   C3A35417  15.154  28.417   7.953
 7661POPC   C4A35418  15.201  28.385   7.653
 7661POPC   C1B35419  15.293  28.648   8.553
 7661POPC   C2B35420  15.265  28.567   8.253
 7661POPC   C3B35421  15.301  28.576   7.953
 7661POPC   C4B35422  15.228  28.626   7.653
 7662POPC   NC335423  33.018  25.315   9.453
 7662POPC   PO435424  33.005  25.306   9.153
 7662POPC   GL135425  33.021  25.257   8.853
 7662POPC   GL235426  33.056  25.405   8.853
 7662POPC   C1A35427  33.036  25.246   8.553
 7662POPC   D2A35428  33.011  25.278   8.253
 7662POPC   C3A35429  32.981  25.231   7.953
 7662POPC   C4A35430  33.054  25.303   7.653
 7662POPC   C1B35431  33.092  25.489   8.553
 7662POPC   C2B35432  33.101  25.503   8.253
 7662POPC   C3B35433  33.110  25.542   7.953
 7662POPC   C4B35434  33.053  25.520   7.653
 7663POPC   NC335435  43.095  22.955   9.453
 7663POPC   PO435436  43.157  22.943   9.153
 7663POPC   GL135437  43.082  22.956   8.853
 7663POPC   GL235438  42.976  22.902   8.853
 7663POPC   C1A35439  43.144  22.951   8.553
 7663POPC   D2A35440  43.133  22.899   8.253
 7663POPC   C3A35441  43.131  22.906   7.953
 7663POPC   C4A35442  43.110  22.949   7.653
 7663POPC   C1B35443  42.913  22.893   8.553
 7663POPC   C2B35444  42.887  22.904   8.253
 7663POPC   C3B35445  42.916  22.933   7.953
 7663POPC   C4B35446  42.891  22.926   7.653
 7664POPC   NC335447  22.170  38.471   9.453
 7664POPC   PO435448  22.140  38.491   9.153
 7664POPC   GL135449  22.149  38.451   8.853
 7664POPC   GL235450  22.271  38.479   8.853
 7664POPC   C1A35451  22.191  38.496   8.553
 7664POPC   D2A35452  22.159  38.458   8.253
 7664POPC   C3A35453  22.156  38.457   7.953
 7664POPC   C4A35454  22.209  38.479   7.653
 7664POPC   C1B35455  22.452  38.529   8.553
 7664POPC   C2B35456  22.437  38.465   8.253
 7664POPC   C3B35457  22.442  38.516   7.953
 7664POPC   C4B35458  22.453  38.489   7.653
 7665POPC   NC335459  20.594   5.107   9.453
 7665POPC   PO435460  20.618   5.072   9.153
 7665POPC   GL135461  20.636   5.130   8.853
 7665POPC   GL235462  20.552   5.221   8.853
 7665POPC   C1A35463  20.566   5.059   8.553
 7665POPC   D2A35464  20.623   5.087   8.253
 7665POPC   C3A35465  20.634   5.080   7.953
 7665POPC   C4A35466  20.628   5.062   7.653
 7665POPC   C1B35467  20.392   5.259   8.553
 7665POPC   C2B35468  20.382   5.217   8.253
 7665POPC   C3B35469  20.380   5.224   7.953
 7665POPC   C4B35470  20.399   5.286   7.653
 7666POPC   NC335471  38.452   8.195   9.453
 7666POPC   PO435472  38.432   8.194   9.153
 7666POPC   GL135473  38.415   8.205   8.853
 7666POPC   GL235474  38.540   8.249   8.853
 7666POPC   C1A35475  38.445   8.158   8.553
 7666POPC   D2A35476  38.406   8.192   8.253
 7666POPC   C3A35477  38.462   8.186   7.953
 7666POPC   C4A35478  38.440   8.192   7.653
 7666POPC   C1B35479  38.706   8.320   8.553
 7666POPC   C2B35480  38.694   8.276   8.253
 7666POPC   C3B35481  38.715   8.310   7.953
 7666POPC   C4B35482  38.672   8.284   7.653
 7667POPC   NC335483  16.751  22.197   9.453
 7667POPC   PO435484  16.749  22.163   9.153
 7667POPC   GL135485  16.732  22.115   8.853
 7667POPC   GL235486  16.624  22.180   8.853
 7667POPC   C1A35487  16.704  22.168   8.553
 7667POPC   D2A35488  16.750  22.188   8.253
 7667POPC   C3A35489  16.692  22.161   7.953
 7667POPC   C4A35490  16.691  22.154   7.653
 7667POPC   C1B35491  16.456  22.246   8.553
 7667POPC   C2B35492  16.490  22.253   8.253
 7667POPC   C3B35493  16.479  22.215   7.953
 7667POPC   C4B35494  16.482  22.170   7.653
 7668POPC   NC335495  22.172  26.805   9.453
 7668POPC   PO435496  22.137  26.769   9.153
 7668POPC   GL135497  22.136  26.806   8.853
 7668POPC   GL235498  22.112  26.880   8.853
 7668POPC   C1A35499  22.148  26.832   8.553
 7668POPC   D2A35500  22.183  26.777   8.253
 7668POPC   C3A35501  22.123  26.845   7.953
 7668POPC   C4A35502  22.115  26.827   7.653
 7668POPC   C1B35503  22.055  27.047   8.553
 7668POPC   C2B35504  22.005  27.037   8.253
 7668POPC   C3B35505  22.000  26.993   7.953
 7668POPC   C4B35506  22.024  27.075   7.653
 7669POPC   NC335507  36.168   0.439   9.453
 7669POPC   PO435508  36.134   0.488   9.153
 7669POPC   GL135509  36.157   0.411   8.853
 7669POPC   GL235510  36.101   0.545   8.853
 7669POPC   C1A35511  36.114   0.487   8.553
 7669POPC   D2A35512  36.146   0.420   8.253
 7669POPC   C3A35513  36.144   0.420   7.953
 7669POPC   C4A35514  36.091   0.398   7.653
 7669POPC   C1B35515  36.121   0.638   8.553
 7669POPC   C2B35516  36.133   0.737   8.253
 7669POPC   C3B35517  36.098   0.721   7.953
 7669POPC   C4B35518  36.133   0.719   7.653
 7670POPC   NC335519  35.399   0.460   9.453
 7670POPC   PO435520  35.311   0.404   9.153
 7670POPC   GL135521  35.376   0.430   8.853
 7670POPC   GL235522  35.279   0.360   8.853
 7670POPC   C1A35523  35.360   0.484   8.553
 7670POPC   D2A35524  35.361   0.403   8.253
 7670POPC   C3A35525  35.341   0.470   7.953
 7670POPC   C4A35526  35.364   0.417   7.653
 7670POPC   C1B35527  35.308   0.221   8.553
 7670POPC   C2B35528  35.242   0.188   8.253
 7670POPC   C3B35529  35.285   0.244   7.953
 7670POPC   C4B35530  35.221   0.235   7.653
 7671POPC   NC335531  31.478  23.730   9.453
 7671POPC   PO435532  31.452  23.713   9.153
 7671POPC   GL135533  31.497  23.755   8.853
 7671POPC   GL235534  31.523  23.810   8.853
 7671POPC   C1A35535  31.515  23.667   8.553
 7671POPC   D2A35536  31.494  23.738   8.253
 7671POPC   C3A35537  31.469  23.701   7.953
 7671POPC   C4A35538  31.438  23.736   7.653
 7671POPC   C1B35539  31.503  23.968   8.553
 7671POPC   C2B35540  31.535  24.001   8.253
 7671POPC   C3B35541  31.545  23.995   7.953
 7671POPC   C4B35542  31.529  23.958   7.653
 7672POPC   NC335543  22.901  33.801   9.453
 7672POPC   PO435544  22.967  33.797   9.153
 7672POPC   GL135545  22.951  33.768   8.853
 7672POPC   GL235546  23.034  33.742   8.853
 7672POPC   C1A35547  22.922  33.766   8.553
 7672POPC   D2A35548  22.944  33.757   8.253
 7672POPC   C3A35549  22.917  33.803   7.953
 7672POPC   C4A35550  22.961  33.783   7.653
 7672POPC   C1B35551  23.099  33.619   8.553
 7672POPC   C2B35552  23.059  33.611   8.253
 7672POPC   C3B35553  23.099  33.631   7.953
 7672POPC   C4B35554  23.062  33.607   7.653
 7673POPC   NC335555  20.572  16.701   9.453
 7673POPC   PO435556  20.629  16.764   9.153
 7673POPC   GL135557  20.572  16.760   8.853
 7673POPC   GL235558  20.509  16.730   8.853
 7673POPC   C1A35559  20.566  16.731   8.553
 7673POPC   D2A35560  20.580  16.707   8.253
 7673POPC   C3A35561  20.585  16.714   7.953
 7673POPC   C4A35562  20.649  16.712   7.653
 7673POPC   C1B35563  20.365  16.711   8.553
 7673POPC   C2B35564  20.321  16.710   8.253
 7673POPC   C3B35565  20.359  16.748   7.953
 7673POPC   C4B35566  20.345  16.785   7.653
 7674POPC   NC335567  19.831  34.583   9.453
 7674POPC   PO435568  19.869  34.625   9.153
 7674POPC   GL135569  19.837  34.589   8.853
 7674POPC   GL235570  19.716  34.651   8.853
 7674POPC   C1A35571  19.835  34.563   8.553
 7674POPC   D2A35572  19.812  34.571   8.253
 7674POPC   C3A35573  19.835  34.616   7.953
 7674POPC   C4A35574  19.863  34.551   7.653
 7674POPC   C1B35575  19.641  34.630   8.553
 7674POPC   C2B35576  19.557  34.595   8.253
 7674POPC   C3B35577  19.637  34.662   7.953
 7674POPC   C4B35578  19.640  34.647   7.653
 7675POPC   NC335579  24.498  26.812   9.453
 7675POPC   PO435580  24.445  26.820   9.153
 7675POPC   GL135581  24.491  26.773   8.853
 7675POPC   GL235582  24.597  26.900   8.853
 7675POPC   C1A35583  24.440  26.803   8.553
 7675POPC   D2A35584  24.493  26.832   8.253
 7675POPC   C3A35585  24.532  26.783   7.953
 7675POPC   C4A35586  24.496  26.818   7.653
 7675POPC   C1B35587  24.693  26.884   8.553
 7675POPC   C2B35588  24.682  26.952   8.253
 7675POPC   C3B35589  24.747  26.920   7.953
 7675POPC   C4B35590  24.715  26.907   7.653
 7676POPC   NC335591  39.984  32.296   9.453
 7676POPC   PO435592  40.022  32.204   9.153
 7676POPC   GL135593  40.032  32.227   8.853
 7676POPC   GL235594  40.035  32.109   8.853
 7676POPC   C1A35595  39.995  32.234   8.553
 7676POPC   D2A35596  39.962  32.275   8.253
 7676POPC   C3A35597  39.996  32.205   7.953
 7676POPC   C4A35598  40.009  32.228   7.653
 7676POPC   C1B35599  40.008  32.012   8.553
 7676POPC   C2B35600  40.062  32.050   8.253
 7676POPC   C3B35601  40.065  31.989   7.953
 7676POPC   C4B35602  40.078  31.992   7.653
 7677POPC   NC335603   0.436   4.312   9.453
 7677POPC   PO435604   0.465   4.362   9.153
 7677POPC   GL135605   0.449   4.312   8.853
 7677POPC   GL235606   0.529   4.422   8.853
 7677POPC   C1A35607   0.405   4.354   8.553
 7677POPC   D2A35608   0.406   4.269   8.253
 7677POPC   C3A35609   0.450   4.274   7.953
 7677POPC   C4A35610   0.439   4.346   7.653
 7677POPC   C1B35611   0.580   4.512   8.553
 7677POPC   C2B35612   0.593   4.479   8.253
 7677POPC   C3B35613   0.667   4.522   7.953
 7677POPC   C4B35614   0.634   4.518   7.653
 7678POPC   NC335615  22.193  20.629   9.453
 7678POPC   PO435616  22.120  20.640   9.153
 7678POPC   GL135617  22.143  20.639   8.853
 7678POPC   GL235618  22.025  20.625   8.853
 7678POPC   C1A35619  22.151  20.581   8.553
 7678POPC   D2A35620  22.117  20.579   8.253
 7678POPC   C3A35621  22.178  20.598   7.953
 7678POPC   C4A35622  22.210  20.607   7.653
 7678POPC   C1B35623  21.936  20.589   8.553
 7678POPC   C2B35624  21.929  20.645   8.253
 7678POPC   C3B35625  21.874  20.554   7.953
 7678POPC   C4B35626  21.889  20.585   7.653
 7679POPC   NC335627  33.809  19.079   9.453
 7679POPC   PO435628  33.819  19.079   9.153
 7679POPC   GL135629  33.812  19.104   8.853
 7679POPC   GL235630  33.692  18.970   8.853
 7679POPC   C1A35631  33.756  19.036   8.553
 7679POPC   D2A35632  33.763  19.107   8.253
 7679POPC   C3A35633  33.823  19.107   7.953
 7679POPC   C4A35634  33.789  19.064   7.653
 7679POPC   C1B35635  33.713  18.834   8.553
 7679POPC   C2B35636  33.681  18.848   8.253
 7679POPC   C3B35637  33.656  18.816   7.953
 7679POPC   C4B35638  33.667  18.890   7.653
 7680POPC   NC335639   4.354  13.614   9.453
 7680POPC   PO435640   4.349  13.626   9.153
 7680POPC   GL135641   4.318  13.580   8.853
 7680POPC   GL235642   4.387  13.759   8.853
 7680POPC   C1A35643   4.306  13.629   8.553
 7680POPC   D2A35644   4.295  13.675   8.253
 7680POPC   C3A35645   4.343  13.674   7.953
 7680POPC   C4A35646   4.294  13.590   7.653
 7680POPC   C1B35647   4.474  13.793   8.553
 7680POPC   C2B35648   4.468  13.793   8.253
 7680POPC   C3B35649   4.521  13.778   7.953
 7680POPC   C4B35650   4.494  13.788   7.653
 7681POPC   NC335651   5.851  15.929   9.453
 7681POPC   PO435652   5.820  15.990   9.153
 7681POPC   GL135653   5.879  15.914   8.853
 7681POPC   GL235654   5.762  15.909   8.853
 7681POPC   C1A35655   5.884  15.922   8.553
 7681POPC   D2A35656   5.844  15.976   8.253
 7681POPC   C3A35657   5.878  15.960   7.953
 7681POPC   C4A35658   5.894  15.905   7.653
 7681POPC   C1B35659   5.584  15.870   8.553
 7681POPC   C2B35660   5.598  15.929   8.253
 7681POPC   C3B35661   5.621  15.915   7.953
 7681POPC   C4B35662   5.652  15.892   7.653
 7682POPC   NC335663   2.012  31.498   9.453
 7682POPC   PO435664   2.022  31.456   9.153
 7682POPC   GL135665   1.947  31.491   8.853
 7682POPC   GL235666   2.095  31.559   8.853
 7682POPC   C1A35667   1.976  31.507   8.553
 7682POPC   D2A35668   1.971  31.451   8.253
 7682POPC   C3A35669   1.998  31.424   7.953
 7682POPC   C4A35670   1.964  31.455   7.653
 7682POPC   C1B35671   2.257  31.553   8.553
 7682POPC   C2B35672   2.258  31.516   8.253
 7682POPC   C3B35673   2.181  31.594   7.953
 7682POPC   C4B35674   2.231  31.575   7.653
 7683POPC   NC335675  27.595  39.210   9.453
 7683POPC   PO435676  27.640  39.219   9.153
 7683POPC   GL135677  27.622  39.212   8.853
 7683POPC   GL235678  27.442  39.253   8.853
 7683POPC   C1A35679  27.555  39.221   8.553
 7683POPC   D2A35680  27.608  39.213   8.253
 7683POPC   C3A35681  27.560  39.207   7.953
 7683POPC   C4A35682  27.565  39.225   7.653
 7683POPC   C1B35683  27.310  39.240   8.553
 7683POPC   C2B35684  27.333  39.266   8.253
 7683POPC   C3B35685  27.369  39.277   7.953
 7683POPC   C4B35686  27.367  39.304   7.653
 7684POPC   NC335687  26.088  36.895   9.453
 7684POPC   PO435688  26.018  36.948   9.153
 7684POPC   GL135689  26.021  36.913   8.853
 7684POPC   GL235690  26.119  36.835   8.853
 7684POPC   C1A35691  26.049  36.906   8.553
 7684POPC   D2A35692  26.061  36.918   8.253
 7684POPC   C3A35693  25.994  36.862   7.953
 7684POPC   C4A35694  26.029  36.948   7.653
 7684POPC   C1B35695  26.176  36.665   8.553
 7684POPC   C2B35696  26.202  36.745   8.253
 7684POPC   C3B35697  26.176  36.657   7.953
 7684POPC   C4B35698  26.213  36.679   7.653
 7685POPC   NC335699   6.694  16.754   9.453
 7685POPC   PO435700   6.626  16.769   9.153
 7685POPC   GL135701   6.677  16.762   8.853
 7685POPC   GL235702   6.763  16.627   8.853
 7685POPC   C1A35703   6.629  16.735   8.553
 7685POPC   D2A35704   6.628  16.689   8.253
 7685POPC   C3A35705   6.626  16.776   7.953
 7685POPC   C4A35706   6.649  16.764   7.653
 7685POPC   C1B35707   6.862  16.575   8.553
 7685POPC   C2B35708   6.789  16.579   8.253
 7685POPC   C3B35709   6.883  16.556   7.953
 7685POPC   C4B35710   6.877  16.601   7.653
 7686POPC   NC335711  27.587   8.217   9.453
 7686POPC   PO435712  27.625   8.232   9.153
 7686POPC   GL135713  27.613   8.225   8.853
 7686POPC   GL235714  27.554   8.058   8.853
 7686POPC   C1A35715  27.556   8.186   8.553
 7686POPC   D2A35716  27.607   8.238   8.253
 7686POPC   C3A35717  27.584   8.213   7.953
 7686POPC   C4A35718  27.616   8.227   7.653
 7686POPC   C1B35719  27.431   7.957   8.553
 7686POPC   C2B35720  27.446   8.013   8.253
 7686POPC   C3B35721  27.487   7.996   7.953
 7686POPC   C4B35722  27.496   7.999   7.653
 7687POPC   NC335723  19.079  15.925   9.453
 7687POPC   PO435724  19.055  15.978   9.153
 7687POPC   GL135725  19.097  15.941   8.853
 7687POPC   GL235726  18.922  15.993   8.853
 7687POPC   C1A35727  19.041  15.958   8.553
 7687POPC   D2A35728  19.077  15.937   8.253
 7687POPC   C3A35729  19.031  15.995   7.953
 7687POPC   C4A35730  19.065  15.992   7.653
 7687POPC   C1B35731  18.811  15.965   8.553
 7687POPC   C2B35732  18.810  16.013   8.253
 7687POPC   C3B35733  18.836  15.994   7.953
 7687POPC   C4B35734  18.847  15.924   7.653
 7688POPC   NC335735   5.107  12.047   9.453
 7688POPC   PO435736   5.064  12.066   9.153
 7688POPC   GL135737   5.114  12.088   8.853
 7688POPC   GL235738   5.138  12.168   8.853
 7688POPC   C1A35739   5.138  12.117   8.553
 7688POPC   D2A35740   5.053  12.085   8.253
 7688POPC   C3A35741   5.065  12.080   7.953
 7688POPC   C4A35742   5.071  12.028   7.653
 7688POPC   C1B35743   5.087  12.287   8.553
 7688POPC   C2B35744   5.091  12.347   8.253
 7688POPC   C3B35745   5.126  12.322   7.953
 7688POPC   C4B35746   5.172  12.293   7.653
 7689POPC   NC335747  43.065  10.573   9.453
 7689POPC   PO435748  43.151  10.489   9.153
 7689POPC   GL135749  43.070  10.552   8.853
 7689POPC   GL235750  43.130  10.416   8.853
 7689POPC   C1A35751  43.100  10.551   8.553
 7689POPC   D2A35752  43.081  10.572   8.253
 7689POPC   C3A35753  43.113  10.531   7.953
 7689POPC   C4A35754  43.136  10.514   7.653
 7689POPC   C1B35755  43.174  10.307   8.553
 7689POPC   C2B35756  43.184  10.270   8.253
 7689POPC   C3B35757  43.219  10.310   7.953
 7689POPC   C4B35758  43.212  10.248   7.653
 7690POPC   NC335759  31.510   5.073   9.453
 7690POPC   PO435760  31.476   5.090   9.153
 7690POPC   GL135761  31.494   5.058   8.853
 7690POPC   GL235762  31.592   5.016   8.853
 7690POPC   C1A35763  31.468   5.055   8.553
 7690POPC   D2A35764  31.447   5.048   8.253
 7690POPC   C3A35765  31.516   5.141   7.953
 7690POPC   C4A35766  31.472   5.141   7.653
 7690POPC   C1B35767  31.729   4.932   8.553
 7690POPC   C2B35768  31.718   5.011   8.253
 7690POPC   C3B35769  31.695   4.936   7.953
 7690POPC   C4B35770  31.709   5.017   7.653
 7691POPC   NC335771   5.860  12.104   9.453
 7691POPC   PO435772   5.913  12.096   9.153
 7691POPC   GL135773   5.828  12.037   8.853
 7691POPC   GL235774   5.858  11.939   8.853
 7691POPC   C1A35775   5.824  12.091   8.553
 7691POPC   D2A35776   5.914  12.085   8.253
 7691POPC   C3A35777   5.840  12.031   7.953
 7691POPC   C4A35778   5.821  12.070   7.653
 7691POPC   C1B35779   5.930  11.792   8.553
 7691POPC   C2B35780   5.892  11.844   8.253
 7691POPC   C3B35781   5.907  11.825   7.953
 7691POPC   C4B35782   5.895  11.854   7.653
 7692POPC   NC335783  31.445  18.237   9.453
 7692POPC   PO435784  31.519  18.299   9.153
 7692POPC   GL135785  31.440  18.256   8.853
 7692POPC   GL235786  31.381  18.206   8.853
 7692POPC   C1A35787  31.479  18.273   8.553
 7692POPC   D2A35788  31.498  18.244   8.253
 7692POPC   C3A35789  31.516  18.306   7.953
 7692POPC   C4A35790  31.447  18.284   7.653
 7692POPC   C1B35791  31.221  18.179   8.553
 7692POPC   C2B35792  31.259  18.220   8.253
 7692POPC   C3B35793  31.243  18.230   7.953
 7692POPC   C4B35794  31.241  18.170   7.653
 7693POPC   NC335795  17.467  30.665   9.453
 7693POPC   PO435796  17.540  30.721   9.153
 7693POPC   GL135797  17.515  30.716   8.853
 7693POPC   GL235798  17.370  30.725   8.853
 7693POPC   C1A35799  17.518  30.696   8.553
 7693POPC   D2A35800  17.476  30.700   8.253
 7693POPC   C3A35801  17.535  30.668   7.953
 7693POPC   C4A35802  17.465  30.705   7.653
 7693POPC   C1B35803  17.220  30.667   8.553
 7693POPC   C2B35804  17.274  30.695   8.253
 7693POPC   C3B35805  17.235  30.664   7.953
 7693POPC   C4B35806  17.266  30.687   7.653
 7694POPC   NC335807   2.744  12.846   9.453
 7694POPC   PO435808   2.793  12.834   9.153
 7694POPC   GL135809   2.727  12.802   8.853
 7694POPC   GL235810   2.692  12.801   8.853
 7694POPC   C1A35811   2.794  12.880   8.553
 7694POPC   D2A35812   2.755  12.898   8.253
 7694POPC   C3A35813   2.724  12.834   7.953
 7694POPC   C4A35814   2.804  12.902   7.653
 7694POPC   C1B35815   2.520  12.813   8.553
 7694POPC   C2B35816   2.521  12.774   8.253
 7694POPC   C3B35817   2.545  12.839   7.953
 7694POPC   C4B35818   2.484  12.808   7.653
 7695POPC   NC335819  20.637   1.181   9.453
 7695POPC   PO435820  20.588   1.205   9.153
 7695POPC   GL135821  20.612   1.204   8.853
 7695POPC   GL235822  20.574   1.134   8.853
 7695POPC   C1A35823  20.639   1.254   8.553
 7695POPC   D2A35824  20.653   1.253   8.253
 7695POPC   C3A35825  20.602   1.176   7.953
 7695POPC   C4A35826  20.563   1.172   7.653
 7695POPC   C1B35827  20.593   1.002   8.553
 7695POPC   C2B35828  20.574   0.968   8.253
 7695POPC   C3B35829  20.608   0.943   7.953
 7695POPC   C4B35830  20.673   0.996   7.653
 7696POPC   NC335831  25.287  18.256   9.453
 7696POPC   PO435832  25.283  18.323   9.153
 7696POPC   GL135833  25.243  18.261   8.853
 7696POPC   GL235834  25.182  18.373   8.853
 7696POPC   C1A35835  25.231  18.251   8.553
 7696POPC   D2A35836  25.275  18.241   8.253
 7696POPC   C3A35837  25.248  18.319   7.953
 7696POPC   C4A35838  25.249  18.259   7.653
 7696POPC   C1B35839  25.135  18.515   8.553
 7696POPC   C2B35840  25.172  18.482   8.253
 7696POPC   C3B35841  25.195  18.478   7.953
 7696POPC   C4B35842  25.172  18.465   7.653
 7697POPC   NC335843  16.002  36.099   9.453
 7697POPC   PO435844  15.981  36.158   9.153
 7697POPC   GL135845  15.999  36.173   8.853
 7697POPC   GL235846  15.936  36.246   8.853
 7697POPC   C1A35847  15.927  36.129   8.553
 7697POPC   D2A35848  15.931  36.147   8.253
 7697POPC   C3A35849  15.969  36.168   7.953
 7697POPC   C4A35850  15.944  36.138   7.653
 7697POPC   C1B35851  15.911  36.383   8.553
 7697POPC   C2B35852  15.830  36.375   8.253
 7697POPC   C3B35853  15.840  36.326   7.953
 7697POPC   C4B35854  15.888  36.395   7.653
 7698POPC   NC335855  33.061  35.344   9.453
 7698POPC   PO435856  32.997  35.361   9.153
 7698POPC   GL135857  32.986  35.322   8.853
 7698POPC   GL235858  32.938  35.290   8.853
 7698POPC   C1A35859  33.025  35.320   8.553
 7698POPC   D2A35860  33.061  35.344   8.253
 7698POPC   C3A35861  33.064  35.312   7.953
 7698POPC   C4A35862  33.046  35.389   7.653
 7698POPC   C1B35863  32.931  35.086   8.553
 7698POPC   C2B35864  32.862  35.095   8.253
 7698POPC   C3B35865  32.934  35.115   7.953
 7698POPC   C4B35866  32.862  35.129   7.653
 7699POPC   NC335867  19.839  31.491   9.453
 7699POPC   PO435868  19.805  31.466   9.153
 7699POPC   GL135869  19.865  31.494   8.853
 7699POPC   GL235870  19.869  31.616   8.853
 7699POPC   C1A35871  19.836  31.424   8.553
 7699POPC   D2A35872  19.873  31.426   8.253
 7699POPC   C3A35873  19.866  31.493   7.953
 7699POPC   C4A35874  19.821  31.519   7.653
 7699POPC   C1B35875  19.825  31.759   8.553
 7699POPC   C2B35876  19.868  31.735   8.253
 7699POPC   C3B35877  19.827  31.720   7.953
 7699POPC   C4B35878  19.793  31.757   7.653
 7700POPC   NC335879  34.582  11.276   9.453
 7700POPC   PO435880  34.622  11.255   9.153
 7700POPC   GL135881  34.532  11.278   8.853
 7700POPC   GL235882  34.675  11.254   8.853
 7700POPC   C1A35883  34.551  11.321   8.553
 7700POPC   D2A35884  34.603  11.322   8.253
 7700POPC   C3A35885  34.593  11.265   7.953
 7700POPC   C4A35886  34.535  11.338   7.653
 7700POPC   C1B35887  34.772  11.111   8.553
 7700POPC   C2B35888  34.763  11.147   8.253
 7700POPC   C3B35889  34.722  11.121   7.953
 7700POPC   C4B35890  34.746  11.117   7.653
 7701POPC   NC335891  28.367  44.616   9.453
 7701POPC   PO435892  28.352  44.641   9.153
 7701POPC   GL135893  28.386  44.649   8.853
 7701POPC   GL235894  28.483  44.670   8.853
 7701POPC   C1A35895  28.346  44.689   8.553
 7701POPC   D2A35896  28.393  44.663   8.253
 7701POPC   C3A35897  28.355  44.691   7.953
 7701POPC   C4A35898  28.342  44.653   7.653
 7701POPC   C1B35899  28.631  44.688   8.553
 7701POPC   C2B35900  28.594  44.754   8.253
 7701POPC   C3B35901  28.579  44.695   7.953
 7701POPC   C4B35902  28.582  44.675   7.653
 7702POPC   NC335903  38.409  17.493   9.453
 7702POPC   PO435904  38.422  17.521   9.153
 7702POPC   GL135905  38.470  17.461   8.853
 7702POPC   GL235906  38.550  17.547   8.853
 7702POPC   C1A35907  38.462  17.553   8.553
 7702POPC   D2A35908  38.455  17.534   8.253
 7702POPC   C3A35909  38.494  17.552   7.953
 7702POPC   C4A35910  38.486  17.530   7.653
 7702POPC   C1B35911  38.648  17.614   8.553
 7702POPC   C2B35912  38.683  17.593   8.253
 7702POPC   C3B35913  38.687  17.652   7.953
 7702POPC   C4B35914  38.651  17.617   7.653
 7703POPC   NC335915   0.443  22.129   9.453
 7703POPC   PO435916   0.445  22.132   9.153
 7703POPC   GL135917   0.463  22.152   8.853
 7703POPC   GL235918   0.526  22.120   8.853
 7703POPC   C1A35919   0.477  22.176   8.553
 7703POPC   D2A35920   0.476  22.135   8.253
 7703POPC   C3A35921   0.448  22.176   7.953
 7703POPC   C4A35922   0.478  22.154   7.653
 7703POPC   C1B35923   0.562  21.992   8.553
 7703POPC   C2B35924   0.565  21.957   8.253
 7703POPC   C3B35925   0.594  21.965   7.953
 7703POPC   C4B35926   0.596  22.021   7.653
 7704POPC   NC335927  12.892   6.692   9.453
 7704POPC   PO435928  12.849   6.629   9.153
 7704POPC   GL135929  12.831   6.624   8.853
 7704POPC   GL235930  12.925   6.724   8.853
 7704POPC   C1A35931  12.878   6.681   8.553
 7704POPC   D2A35932  12.883   6.620   8.253
 7704POPC   C3A35933  12.860   6.622   7.953
 7704POPC   C4A35934  12.884   6.627   7.653
 7704POPC   C1B35935  13.088   6.785   8.553
 7704POPC   C2B35936  13.019   6.788   8.253
 7704POPC   C3B35937  13.039   6.838   7.953
 7704POPC   C4B35938  13.024   6.792   7.653
 7705POPC   NC335939   5.854  43.147   9.453
 7705POPC   PO435940   5.849  43.135   9.153
 7705POPC   GL135941   5.894  43.100   8.853
 7705POPC   GL235942   5.955  43.189   8.853
 7705POPC   C1A35943   5.904  43.159   8.553
 7705POPC   D2A35944   5.852  43.142   8.253
 7705POPC   C3A35945   5.886  43.107   7.953
 7705POPC   C4A35946   5.878  43.112   7.653
 7705POPC   C1B35947   5.998  43.319   8.553
 7705POPC   C2B35948   6.059  43.346   8.253
 7705POPC   C3B35949   6.027  43.318   7.953
 7705POPC   C4B35950   6.037  43.338   7.653
 7706POPC   NC335951  33.061  40.039   9.453
 7706POPC   PO435952  33.007  40.016   9.153
 7706POPC   GL135953  32.983  40.033   8.853
 7706POPC   GL235954  33.009  40.112   8.853
 7706POPC   C1A35955  33.033  40.000   8.553
 7706POPC   D2A35956  33.036  39.990   8.253
 7706POPC   C3A35957  32.981  39.991   7.953
 7706POPC   C4A35958  32.992  40.013   7.653
 7706POPC   C1B35959  32.937  40.262   8.553
 7706POPC   C2B35960  33.022  40.297   8.253
 7706POPC   C3B35961  32.995  40.209   7.953
 7706POPC   C4B35962  33.005  40.231   7.653
 7707POPC   NC335963  23.714  29.165   9.453
 7707POPC   PO435964  23.758  29.192   9.153
 7707POPC   GL135965  23.722  29.105   8.853
 7707POPC   GL235966  23.625  29.017   8.853
 7707POPC   C1A35967  23.759  29.176   8.553
 7707POPC   D2A35968  23.741  29.167   8.253
 7707POPC   C3A35969  23.714  29.149   7.953
 7707POPC   C4A35970  23.664  29.179   7.653
 7707POPC   C1B35971  23.485  28.960   8.553
 7707POPC   C2B35972  23.575  29.007   8.253
 7707POPC   C3B35973  23.578  29.006   7.953
 7707POPC   C4B35974  23.506  29.023   7.653
 7708POPC   NC335975   4.342  35.366   9.453
 7708POPC   PO435976   4.272  35.379   9.153
 7708POPC   GL135977   4.277  35.376   8.853
 7708POPC   GL235978   4.204  35.479   8.853
 7708POPC   C1A35979   4.312  35.315   8.553
 7708POPC   D2A35980   4.282  35.353   8.253
 7708POPC   C3A35981   4.298  35.394   7.953
 7708POPC   C4A35982   4.299  35.302   7.653
 7708POPC   C1B35983   4.120  35.528   8.553
 7708POPC   C2B35984   4.153  35.580   8.253
 7708POPC   C3B35985   4.113  35.536   7.953
 7708POPC   C4B35986   4.197  35.551   7.653
 7709POPC   NC335987  34.534  17.474   9.453
 7709POPC   PO435988  34.535  17.485   9.153
 7709POPC   GL135989  34.596  17.504   8.853
 7709POPC   GL235990  34.696  17.460   8.853
 7709POPC   C1A35991  34.625  17.556   8.553
 7709POPC   D2A35992  34.576  17.509   8.253
 7709POPC   C3A35993  34.560  17.465   7.953
 7709POPC   C4A35994  34.571  17.545   7.653
 7709POPC   C1B35995  34.741  17.314   8.553
 7709POPC   C2B35996  34.765  17.299   8.253
 7709POPC   C3B35997  34.724  17.285   7.953
 7709POPC   C4B35998  34.782  17.291   7.653
 7710POPC   NC335999  26.039  10.547   9.453
 7710POPC   PO436000  26.001  10.561   9.153
 7710POPC   GL136001  25.996  10.558   8.853
 7710POPC   GL236002  25.884  10.427   8.853
 7710POPC   C1A36003  26.082  10.489   8.553
 7710POPC   D2A36004  26.084  10.495   8.253
 7710POPC   C3A36005  26.010  10.525   7.953
 7710POPC   C4A36006  26.030  10.563   7.653
 7710POPC   C1B36007  25.824  10.419   8.553
 7710POPC   C2B36008  25.792  10.462   8.253
 7710POPC   C3B36009  25.824  10.408   7.953
 7710POPC   C4B36010  25.777  10.440   7.653
 7711POPC   NC336011  37.657  28.344   9.453
 7711POPC   PO436012  37.639  28.372   9.153
 7711POPC   GL136013  37.695  28.408   8.853
 7711POPC   GL236014  37.833  28.424   8.853
 7711POPC   C1A36015  37.631  28.396   8.553
 7711POPC   D2A36016  37.663  28.349   8.253
 7711POPC   C3A36017  37.642  28.391   7.953
 7711POPC   C4A36018  37.703  28.325   7.653
 7711POPC   C1B36019  37.890  28.485   8.553
 7711POPC   C2B36020  37.896  28.484   8.253
 7711POPC   C3B36021  37.929  28.476   7.953
 7711POPC   C4B36022  37.908  28.482   7.653
 7712POPC   NC336023  36.874  30.679   9.453
 7712POPC   PO436024  36.886  30.679   9.153
 7712POPC   GL136025  36.870  30.674   8.853
 7712POPC   GL236026  36.859  30.592   8.853
 7712POPC   C1A36027  36.871  30.715   8.553
 7712POPC   D2A36028  36.936  30.709   8.253
 7712POPC   C3A36029  36.871  30.677   7.953
 7712POPC   C4A36030  36.857  30.701   7.653
 7712POPC   C1B36031  36.879  30.450   8.553
 7712POPC   C2B36032  36.883  30.443   8.253
 7712POPC   C3B36033  36.829  30.495   7.953
 7712POPC   C4B36034  36.891  30.423   7.653
 7713POPC   NC336035  23.695  11.331   9.453
 7713POPC   PO436036  23.717  11.277   9.153
 7713POPC   GL136037  23.724  11.320   8.853
 7713POPC   GL236038  23.616  11.157   8.853
 7713POPC   C1A36039  23.667  11.345   8.553
 7713POPC   D2A36040  23.673  11.254   8.253
 7713POPC   C3A36041  23.670  11.280   7.953
 7713POPC   C4A36042  23.677  11.334   7.653
 7713POPC   C1B36043  23.541  11.054   8.553
 7713POPC   C2B36044  23.539  11.065   8.253
 7713POPC   C3B36045  23.595  11.097   7.953
 7713POPC   C4B36046  23.545  11.052   7.653
 7714POPC   NC336047  33.767  40.809   9.453
 7714POPC   PO436048  33.760  40.775   9.153
 7714POPC   GL136049  33.779  40.797   8.853
 7714POPC   GL236050  33.894  40.653   8.853
 7714POPC   C1A36051  33.846  40.761   8.553
 7714POPC   D2A36052  33.803  40.757   8.253
 7714POPC   C3A36053  33.786  40.822   7.953
 7714POPC   C4A36054  33.806  40.812   7.653
 7714POPC   C1B36055  33.920  40.549   8.553
 7714POPC   C2B36056  33.905  40.513   8.253
 7714POPC   C3B36057  33.875  40.578   7.953
 7714POPC   C4B36058  33.895  40.567   7.653
 7715POPC   NC336059  33.018   1.963   9.453
 7715POPC   PO436060  33.026   2.031   9.153
 7715POPC   GL136061  33.023   1.979   8.853
 7715POPC   GL236062  33.122   2.088   8.853
 7715POPC   C1A36063  33.016   2.031   8.553
 7715POPC   D2A36064  33.029   1.999   8.253
 7715POPC   C3A36065  33.071   1.993   7.953
 7715POPC   C4A36066  33.035   1.989   7.653
 7715POPC   C1B36067  33.286   2.094   8.553
 7715POPC   C2B36068  33.228   2.085   8.253
 7715POPC   C3B36069  33.206   2.087   7.953
 7715POPC   C4B36070  33.211   2.141   7.653
 7716POPC   NC336071  33.048  29.193   9.453
 7716POPC   PO436072  33.052  29.154   9.153
 7716POPC   GL136073  33.041  29.150   8.853
 7716POPC   GL236074  33.024  29.213   8.853
 7716POPC   C1A36075  32.984  29.192   8.553
 7716POPC   D2A36076  33.024  29.124   8.253
 7716POPC   C3A36077  33.004  29.171   7.953
 7716POPC   C4A36078  32.996  29.155   7.653
 7716POPC   C1B36079  32.886  29.375   8.553
 7716POPC   C2B36080  32.921  29.370   8.253
 7716POPC   C3B36081  32.969  29.346   7.953
 7716POPC   C4B36082  32.965  29.354   7.653
 7717POPC   NC336083  19.029   9.756   9.453
 7717POPC   PO436084  19.022   9.788   9.153
 7717POPC   GL136085  19.074   9.752   8.853
 7717POPC   GL236086  18.993   9.625   8.853
 7717POPC   C1A36087  19.051   9.761   8.553
 7717POPC   D2A36088  19.043   9.711   8.253
 7717POPC   C3A36089  19.010   9.783   7.953
 7717POPC   C4A36090  19.071   9.778   7.653
 7717POPC   C1B36091  18.880   9.564   8.553
 7717POPC   C2B36092  18.827   9.557   8.253
 7717POPC   C3B36093  18.856   9.591   7.953
 7717POPC   C4B36094  18.892   9.581   7.653
 7718POPC   NC336095  25.247  19.865   9.453
 7718POPC   PO436096  25.250  19.838   9.153
 7718POPC   GL136097  25.301  19.881   8.853
 7718POPC   GL236098  25.360  19.821   8.853
 7718POPC   C1A36099  25.277  19.790   8.553
 7718POPC   D2A36100  25.243  19.851   8.253
 7718POPC   C3A36101  25.245  19.843   7.953
 7718POPC   C4A36102  25.217  19.852   7.653
 7718POPC   C1B36103  25.496  19.904   8.553
 7718POPC   C2B36104  25.497  19.874   8.253
 7718POPC   C3B36105  25.483  19.944   7.953
 7718POPC   C4B36106  25.492  19.937   7.653
 7719POPC   NC336107   0.432  26.002   9.453
 7719POPC   PO436108   0.462  25.995   9.153
 7719POPC   GL136109   0.394  26.045   8.853
 7719POPC   GL236110   0.320  26.078   8.853
 7719POPC   C1A36111   0.438  26.054   8.553
 7719POPC   D2A36112   0.437  26.052   8.253
 7719POPC   C3A36113   0.470  26.085   7.953
 7719POPC   C4A36114   0.470  25.993   7.653
 7719POPC   C1B36115   0.222  26.238   8.553
 7719POPC   C2B36116   0.258  26.149   8.253
 7719POPC   C3B36117   0.219  26.216   7.953
 7719POPC   C4B36118   0.197  26.217   7.653
 7720POPC   NC336119  11.345  11.271   9.453
 7720POPC   PO436120  11.272  11.346   9.153
 7720POPC   GL136121  11.343  11.337   8.853
 7720POPC   GL236122  11.166  11.285   8.853
 7720POPC   C1A36123  11.336  11.299   8.553
 7720POPC   D2A36124  11.307  11.252   8.253
 7720POPC   C3A36125  11.349  11.288   7.953
 7720POPC   C4A36126  11.310  11.315   7.653
 7720POPC   C1B36127  11.044  11.338   8.553
 7720POPC   C2B36128  11.036  11.336   8.253
 7720POPC   C3B36129  11.002  11.283   7.953
 7720POPC   C4B36130  11.093  11.356   7.653
 7721POPC   NC336131  38.426  29.949   9.453
 7721POPC   PO436132  38.436  29.948   9.153
 7721POPC   GL136133  38.484  29.916   8.853
 7721POPC   GL236134  38.428  29.750   8.853
 7721POPC   C1A36135  38.419  29.887   8.553
 7721POPC   D2A36136  38.406  29.878   8.253
 7721POPC   C3A36137  38.487  29.957   7.953
 7721POPC   C4A36138  38.504  29.964   7.653
 7721POPC   C1B36139  38.467  29.667   8.553
 7721POPC   C2B36140  38.415  29.689   8.253
 7721POPC   C3B36141  38.429  29.647   7.953
 7721POPC   C4B36142  38.433  29.672   7.653
 7722POPC   NC336143  42.358   7.426   9.453
 7722POPC   PO436144  42.296   7.434   9.153
 7722POPC   GL136145  42.380   7.469   8.853
 7722POPC   GL236146  42.178   7.389   8.853
 7722POPC   C1A36147  42.320   7.415   8.553
 7722POPC   D2A36148  42.314   7.441   8.253
 7722POPC   C3A36149  42.286   7.377   7.953
 7722POPC   C4A36150  42.347   7.388   7.653
 7722POPC   C1B36151  42.085   7.286   8.553
 7722POPC   C2B36152  42.088   7.334   8.253
 7722POPC   C3B36153  42.137   7.349   7.953
 7722POPC   C4B36154  42.076   7.294   7.653
 7723POPC   NC336155  32.201   6.649   9.453
 7723POPC   PO436156  32.265   6.672   9.153
 7723POPC   GL136157  32.208   6.636   8.853
 7723POPC   GL236158  32.318   6.518   8.853
 7723POPC   C1A36159  32.242   6.646   8.553
 7723POPC   D2A36160  32.272   6.692   8.253
 7723POPC   C3A36161  32.219   6.672   7.953
 7723POPC   C4A36162  32.242   6.609   7.653
 7723POPC   C1B36163  32.335   6.412   8.553
 7723POPC   C2B36164  32.318   6.379   8.253
 7723POPC   C3B36165  32.340   6.424   7.953
 7723POPC   C4B36166  32.314   6.415   7.653
 7724POPC   NC336167  20.583  26.772   9.453
 7724POPC   PO436168  20.615  26.829   9.153
 7724POPC   GL136169  20.561  26.806   8.853
 7724POPC   GL236170  20.632  26.741   8.853
 7724POPC   C1A36171  20.560  26.850   8.553
 7724POPC   D2A36172  20.610  26.801   8.253
 7724POPC   C3A36173  20.575  26.832   7.953
 7724POPC   C4A36174  20.564  26.840   7.653
 7724POPC   C1B36175  20.573  26.601   8.553
 7724POPC   C2B36176  20.579  26.551   8.253
 7724POPC   C3B36177  20.569  26.619   7.953
 7724POPC   C4B36178  20.603  26.582   7.653
 7725POPC   NC336179  36.872  33.059   9.453
 7725POPC   PO436180  36.952  32.983   9.153
 7725POPC   GL136181  36.913  32.997   8.853
 7725POPC   GL236182  36.998  33.110   8.853
 7725POPC   C1A36183  36.944  33.061   8.553
 7725POPC   D2A36184  36.927  32.975   8.253
 7725POPC   C3A36185  36.891  32.977   7.953
 7725POPC   C4A36186  36.909  33.002   7.653
 7725POPC   C1B36187  37.145  33.094   8.553
 7725POPC   C2B36188  37.158  33.085   8.253
 7725POPC   C3B36189  37.088  33.139   7.953
 7725POPC   C4B36190  37.169  33.087   7.653
 7726POPC   NC336191   0.418  31.489   9.453
 7726POPC   PO436192   0.436  31.423   9.153
 7726POPC   GL136193   0.437  31.482   8.853
 7726POPC   GL236194   0.537  31.418   8.853
 7726POPC   C1A36195   0.474  31.463   8.553
 7726POPC   D2A36196   0.412  31.425   8.253
 7726POPC   C3A36197   0.427  31.460   7.953
 7726POPC   C4A36198   0.433  31.479   7.653
 7726POPC   C1B36199   0.729  31.416   8.553
 7726POPC   C2B36200   0.702  31.402   8.253
 7726POPC   C3B36201   0.719  31.463   7.953
 7726POPC   C4B36202   0.689  31.436   7.653
 7727POPC   NC336203  35.330  22.139   9.453
 7727POPC   PO436204  35.389  22.115   9.153
 7727POPC   GL136205  35.312  22.116   8.853
 7727POPC   GL236206  35.349  22.308   8.853
 7727POPC   C1A36207  35.381  22.194   8.553
 7727POPC   D2A36208  35.380  22.211   8.253
 7727POPC   C3A36209  35.374  22.153   7.953
 7727POPC   C4A36210  35.378  22.158   7.653
 7727POPC   C1B36211  35.358  22.416   8.553
 7727POPC   C2B36212  35.317  22.370   8.253
 7727POPC   C3B36213  35.273  22.368   7.953
 7727POPC   C4B36214  35.344  22.440   7.653
 7728POPC   NC336215   9.730  16.004   9.453
 7728POPC   PO436216   9.699  15.956   9.153
 7728POPC   GL136217   9.734  15.946   8.853
 7728POPC   GL236218   9.842  15.863   8.853
 7728POPC   C1A36219   9.720  15.980   8.553
 7728POPC   D2A36220   9.747  15.974   8.253
 7728POPC   C3A36221   9.707  15.911   7.953
 7728POPC   C4A36222   9.717  15.976   7.653
 7728POPC   C1B36223   9.939  15.867   8.553
 7728POPC   C2B36224  10.005  15.825   8.253
 7728POPC   C3B36225   9.970  15.844   7.953
 7728POPC   C4B36226   9.927  15.809   7.653
 7729POPC   NC336227   6.691  12.026   9.453
 7729POPC   PO436228   6.648  12.085   9.153
 7729POPC   GL136229   6.622  12.052   8.853
 7729POPC   GL236230   6.540  12.020   8.853
 7729POPC   C1A36231   6.660  12.099   8.553
 7729POPC   D2A36232   6.599  12.044   8.253
 7729POPC   C3A36233   6.634  12.079   7.953
 7729POPC   C4A36234   6.649  12.082   7.653
 7729POPC   C1B36235   6.390  12.089   8.553
 7729POPC   C2B36236   6.393  12.034   8.253
 7729POPC   C3B36237   6.355  12.099   7.953
 7729POPC   C4B36238   6.363  12.041   7.653
 7730POPC   NC336239  38.491  35.317   9.453
 7730POPC   PO436240  38.437  35.364   9.153
 7730POPC   GL136241  38.439  35.358   8.853
 7730POPC   GL236242  38.354  35.318   8.853
 7730POPC   C1A36243  38.411  35.358   8.553
 7730POPC   D2A36244  38.426  35.350   8.253
 7730POPC   C3A36245  38.487  35.379   7.953
 7730POPC   C4A36246  38.446  35.337   7.653
 7730POPC   C1B36247  38.198  35.251   8.553
 7730POPC   C2B36248  38.221  35.256   8.253
 7730POPC   C3B36249  38.233  35.294   7.953
 7730POPC   C4B36250  38.186  35.245   7.653
 7731POPC   NC336251   9.714  13.657   9.453
 7731POPC   PO436252   9.721  13.640   9.153
 7731POPC   GL136253   9.769  13.648   8.853
 7731POPC   GL236254   9.623  13.671   8.853
 7731POPC   C1A36255   9.757  13.656   8.553
 7731POPC   D2A36256   9.704  13.605   8.253
 7731POPC   C3A36257   9.767  13.634   7.953
 7731POPC   C4A36258   9.713  13.655   7.653
 7731POPC   C1B36259   9.523  13.659   8.553
 7731POPC   C2B36260   9.449  13.596   8.253
 7731POPC   C3B36261   9.475  13.625   7.953
 7731POPC   C4B36262   9.497  13.573   7.653
 7732POPC   NC336263  40.032  35.401   9.453
 7732POPC   PO436264  40.050  35.332   9.153
 7732POPC   GL136265  39.994  35.336   8.853
 7732POPC   GL236266  40.167  35.375   8.853
 7732POPC   C1A36267  40.043  35.360   8.553
 7732POPC   D2A36268  40.052  35.318   8.253
 7732POPC   C3A36269  40.032  35.339   7.953
 7732POPC   C4A36270  39.982  35.373   7.653
 7732POPC   C1B36271  40.287  35.351   8.553
 7732POPC   C2B36272  40.234  35.307   8.253
 7732POPC   C3B36273  40.256  35.285   7.953
 7732POPC   C4B36274  40.301  35.268   7.653
 7733POPC   NC336275  19.786  30.670   9.453
 7733POPC   PO436276  19.841  30.663   9.153
 7733POPC   GL136277  19.819  30.716   8.853
 7733POPC   GL236278  19.972  30.708   8.853
 7733POPC   C1A36279  19.816  30.701   8.553
 7733POPC   D2A36280  19.879  30.662   8.253
 7733POPC   C3A36281  19.799  30.680   7.953
 7733POPC   C4A36282  19.790  30.670   7.653
 7733POPC   C1B36283  20.032  30.636   8.553
 7733POPC   C2B36284  20.105  30.658   8.253
 7733POPC   C3B36285  20.065  30.652   7.953
 7733POPC   C4B36286  20.075  30.652   7.653
 7734POPC   NC336287  17.458  44.709   9.453
 7734POPC   PO436288  17.482  44.657   9.153
 7734POPC   GL136289  17.512  44.654   8.853
 7734POPC   GL236290  17.509  44.744   8.853
 7734POPC   C1A36291  17.524  44.675   8.553
 7734POPC   D2A36292  17.512  44.638   8.253
 7734POPC   C3A36293  17.548  44.657   7.953
 7734POPC   C4A36294  17.551  44.631   7.653
 7734POPC   C1B36295  17.554  44.879   8.553
 7734POPC   C2B36296  17.538  44.952   8.253
 7734POPC   C3B36297  17.551  44.915   7.953
 7734POPC   C4B36298  17.495  44.875   7.653
 7735POPC   NC336299  18.286   8.194   9.453
 7735POPC   PO436300  18.266   8.168   9.153
 7735POPC   GL136301  18.268   8.218   8.853
 7735POPC   GL236302  18.408   8.212   8.853
 7735POPC   C1A36303  18.278   8.208   8.553
 7735POPC   D2A36304  18.278   8.175   8.253
 7735POPC   C3A36305  18.305   8.204   7.953
 7735POPC   C4A36306  18.255   8.160   7.653
 7735POPC   C1B36307  18.549   8.234   8.553
 7735POPC   C2B36308  18.493   8.183   8.253
 7735POPC   C3B36309  18.519   8.254   7.953
 7735POPC   C4B36310  18.515   8.199   7.653
 7736POPC   NC336311  28.375  19.818   9.453
 7736POPC   PO436312  28.337  19.825   9.153
 7736POPC   GL136313  28.351  19.850   8.853
 7736POPC   GL236314  28.364  19.929   8.853
 7736POPC   C1A36315  28.403  19.859   8.553
 7736POPC   D2A36316  28.402  19.820   8.253
 7736POPC   C3A36317  28.349  19.802   7.953
 7736POPC   C4A36318  28.357  19.839   7.653
 7736POPC   C1B36319  28.434  20.036   8.553
 7736POPC   C2B36320  28.407  20.087   8.253
 7736POPC   C3B36321  28.397  20.130   7.953
 7736POPC   C4B36322  28.345  20.127   7.653
 7737POPC   NC336323  31.440   1.226   9.453
 7737POPC   PO436324  31.462   1.240   9.153
 7737POPC   GL136325  31.498   1.166   8.853
 7737POPC   GL236326  31.508   1.304   8.853
 7737POPC   C1A36327  31.478   1.173   8.553
 7737POPC   D2A36328  31.504   1.226   8.253
 7737POPC   C3A36329  31.447   1.185   7.953
 7737POPC   C4A36330  31.503   1.182   7.653
 7737POPC   C1B36331  31.480   1.484   8.553
 7737POPC   C2B36332  31.475   1.438   8.253
 7737POPC   C3B36333  31.490   1.497   7.953
 7737POPC   C4B36334  31.467   1.495   7.653
 7738POPC   NC336335  18.315  29.120   9.453
 7738POPC   PO436336  18.284  29.170   9.153
 7738POPC   GL136337  18.292  29.170   8.853
 7738POPC   GL236338  18.190  29.281   8.853
 7738POPC   C1A36339  18.278  29.102   8.553
 7738POPC   D2A36340  18.331  29.176   8.253
 7738POPC   C3A36341  18.263  29.167   7.953
 7738POPC   C4A36342  18.289  29.108   7.653
 7738POPC   C1B36343  18.146  29.331   8.553
 7738POPC   C2B36344  18.097  29.339   8.253
 7738POPC   C3B36345  18.130  29.281   7.953
 7738POPC   C4B36346  18.066  29.343   7.653
 7739POPC   NC336347  32.262  21.431   9.453
 7739POPC   PO436348  32.238  21.426   9.153
 7739POPC   GL136349  32.227  21.369   8.853
 7739POPC   GL236350  32.310  21.498   8.853
 7739POPC   C1A36351  32.220  21.347   8.553
 7739POPC   D2A36352  32.246  21.415   8.253
 7739POPC   C3A36353  32.210  21.396   7.953
 7739POPC   C4A36354  32.296  21.338   7.653
 7739POPC   C1B36355  32.248  21.647   8.553
 7739POPC   C2B36356  32.239  21.633   8.253
 7739POPC   C3B36357  32.295  21.591   7.953
 7739POPC   C4B36358  32.309  21.637   7.653
 7740POPC   NC336359  36.899  15.921   9.453
 7740POPC   PO436360  36.898  15.916   9.153
 7740POPC   GL136361  36.952  15.918   8.853
 7740POPC   GL236362  36.741  15.904   8.853
 7740POPC   C1A36363  36.925  15.979   8.553
 7740POPC   D2A36364  36.873  15.929   8.253
 7740POPC   C3A36365  36.951  15.964   7.953
 7740POPC   C4A36366  36.901  15.983   7.653
 7740POPC   C1B36367  36.629  15.931   8.553
 7740POPC   C2B36368  36.691  15.917   8.253
 7740POPC   C3B36369  36.631  15.877   7.953
 7740POPC   C4B36370  36.668  15.917   7.653
 7741POPC   NC336371   2.798  27.621   9.453
 7741POPC   PO436372   2.808  27.603   9.153
 7741POPC   GL136373   2.763  27.582   8.853
 7741POPC   GL236374   2.772  27.424   8.853
 7741POPC   C1A36375   2.742  27.593   8.553
 7741POPC   D2A36376   2.742  27.550   8.253
 7741POPC   C3A36377   2.724  27.618   7.953
 7741POPC   C4A36378   2.731  27.551   7.653
 7741POPC   C1B36379   2.726  27.320   8.553
 7741POPC   C2B36380   2.697  27.378   8.253
 7741POPC   C3B36381   2.662  27.324   7.953
 7741POPC   C4B36382   2.732  27.360   7.653
 7742POPC   NC336383  21.338   2.806   9.453
 7742POPC   PO436384  21.435   2.742   9.153
 7742POPC   GL136385  21.375   2.802   8.853
 7742POPC   GL236386  21.320   2.639   8.853
 7742POPC   C1A36387  21.371   2.738   8.553
 7742POPC   D2A36388  21.367   2.770   8.253
 7742POPC   C3A36389  21.364   2.759   7.953
 7742POPC   C4A36390  21.363   2.722   7.653
 7742POPC   C1B36391  21.336   2.540   8.553
 7742POPC   C2B36392  21.307   2.512   8.253
 7742POPC   C3B36393  21.332   2.485   7.953
 7742POPC   C4B36394  21.314   2.520   7.653
 7743POPC   NC336395   0.434  14.374   9.453
 7743POPC   PO436396   0.399  14.397   9.153
 7743POPC   GL136397   0.427  14.424   8.853
 7743POPC   GL236398   0.553  14.339   8.853
 7743POPC   C1A36399   0.441  14.425   8.553
 7743POPC   D2A36400   0.427  14.452   8.253
 7743POPC   C3A36401   0.389  14.355   7.953
 7743POPC   C4A36402   0.399  14.366   7.653
 7743POPC   C1B36403   0.689  14.252   8.553
 7743POPC   C2B36404   0.632  14.339   8.253
 7743POPC   C3B36405   0.687  14.337   7.953
 7743POPC   C4B36406   0.628  14.295   7.653
 7744POPC   NC336407  22.963  34.573   9.453
 7744POPC   PO436408  22.982  34.611   9.153
 7744POPC   GL136409  22.894  34.587   8.853
 7744POPC   GL236410  22.794  34.510   8.853
 7744POPC   C1A36411  22.960  34.589   8.553
 7744POPC   D2A36412  22.927  34.606   8.253
 7744POPC   C3A36413  22.953  34.596   7.953
 7744POPC   C4A36414  22.953  34.548   7.653
 7744POPC   C1B36415  22.709  34.492   8.553
 7744POPC   C2B36416  22.667  34.492   8.253
 7744POPC   C3B36417  22.685  34.480   7.953
 7744POPC   C4B36418  22.723  34.510   7.653
 7745POPC   NC336419  34.536  23.708   9.453
 7745POPC   PO436420  34.533  23.745   9.153
 7745POPC   GL136421  34.547  23.675   8.853
 7745POPC   GL236422  34.406  23.771   8.853
 7745POPC   C1A36423  34.532  23.721   8.553
 7745POPC   D2A36424  34.595  23.673   8.253
 7745POPC   C3A36425  34.558  23.694   7.953
 7745POPC   C4A36426  34.581  23.693   7.653
 7745POPC   C1B36427  34.300  23.769   8.553
 7745POPC   C2B36428  34.311  23.749   8.253
 7745POPC   C3B36429  34.290  23.761   7.953
 7745POPC   C4B36430  34.320  23.751   7.653
 7746POPC   NC336431   0.487  16.736   9.453
 7746POPC   PO436432   0.399  16.703   9.153
 7746POPC   GL136433   0.405  16.712   8.853
 7746POPC   GL236434   0.491  16.877   8.853
 7746POPC   C1A36435   0.443  16.747   8.553
 7746POPC   D2A36436   0.422  16.780   8.253
 7746POPC   C3A36437   0.404  16.695   7.953
 7746POPC   C4A36438   0.487  16.728   7.653
 7746POPC   C1B36439   0.438  16.969   8.553
 7746POPC   C2B36440   0.459  17.011   8.253
 7746POPC   C3B36441   0.434  17.008   7.953
 7746POPC   C4B36442   0.431  16.948   7.653
 7747POPC   NC336443  33.799   5.092   9.453
 7747POPC   PO436444  33.824   5.096   9.153
 7747POPC   GL136445  33.754   5.138   8.853
 7747POPC   GL236446  33.666   5.163   8.853
 7747POPC   C1A36447  33.826   5.082   8.553
 7747POPC   D2A36448  33.840   5.117   8.253
 7747POPC   C3A36449  33.827   5.068   7.953
 7747POPC   C4A36450  33.758   5.044   7.653
 7747POPC   C1B36451  33.607   5.272   8.553
 7747POPC   C2B36452  33.570   5.241   8.253
 7747POPC   C3B36453  33.617   5.199   7.953
 7747POPC   C4B36454  33.566   5.268   7.653
 7748POPC   NC336455  19.877  15.143   9.453
 7748POPC   PO436456  19.812  15.194   9.153
 7748POPC   GL136457  19.803  15.175   8.853
 7748POPC   GL236458  19.889  15.082   8.853
 7748POPC   C1A36459  19.845  15.220   8.553
 7748POPC   D2A36460  19.860  15.197   8.253
 7748POPC   C3A36461  19.847  15.137   7.953
 7748POPC   C4A36462  19.796  15.201   7.653
 7748POPC   C1B36463  19.892  14.919   8.553
 7748POPC   C2B36464  19.953  14.964   8.253
 7748POPC   C3B36465  19.978  14.911   7.953
 7748POPC   C4B36466  19.903  14.987   7.653
 7749POPC   NC336467  35.352   3.563   9.453
 7749POPC   PO436468  35.390   3.577   9.153
 7749POPC   GL136469  35.339   3.504   8.853
 7749POPC   GL236470  35.208   3.528   8.853
 7749POPC   C1A36471  35.344   3.536   8.553
 7749POPC   D2A36472  35.347   3.529   8.253
 7749POPC   C3A36473  35.308   3.511   7.953
 7749POPC   C4A36474  35.344   3.541   7.653
 7749POPC   C1B36475  35.086   3.461   8.553
 7749POPC   C2B36476  35.117   3.449   8.253
 7749POPC   C3B36477  35.077   3.437   7.953
 7749POPC   C4B36478  35.166   3.429   7.653
 7750POPC   NC336479  40.749  14.370   9.453
 7750POPC   PO436480  40.817  14.361   9.153
 7750POPC   GL136481  40.808  14.420   8.853
 7750POPC   GL236482  40.782  14.512   8.853
 7750POPC   C1A36483  40.734  14.392   8.553
 7750POPC   D2A36484  40.814  14.427   8.253
 7750POPC   C3A36485  40.776  14.413   7.953
 7750POPC   C4A36486  40.759  14.395   7.653
 7750POPC   C1B36487  40.807  14.692   8.553
 7750POPC   C2B36488  40.833  14.673   8.253
 7750POPC   C3B36489  40.774  14.617   7.953
 7750POPC   C4B36490  40.805  14.694   7.653
 7751POPC   NC336491   5.077  36.880   9.453
 7751POPC   PO436492   5.110  36.943   9.153
 7751POPC   GL136493   5.054  36.919   8.853
 7751POPC   GL236494   5.201  36.913   8.853
 7751POPC   C1A36495   5.048  36.918   8.553
 7751POPC   D2A36496   5.140  36.938   8.253
 7751POPC   C3A36497   5.058  36.922   7.953
 7751POPC   C4A36498   5.052  36.871   7.653
 7751POPC   C1B36499   5.344  36.939   8.553
 7751POPC   C2B36500   5.300  36.929   8.253
 7751POPC   C3B36501   5.344  36.930   7.953
 7751POPC   C4B36502   5.384  36.925   7.653
 7752POPC   NC336503  17.523  33.776   9.453
 7752POPC   PO436504  17.538  33.805   9.153
 7752POPC   GL136505  17.467  33.842   8.853
 7752POPC   GL236506  17.441  33.686   8.853
 7752POPC   C1A36507  17.531  33.848   8.553
 7752POPC   D2A36508  17.495  33.834   8.253
 7752POPC   C3A36509  17.544  33.798   7.953
 7752POPC   C4A36510  17.533  33.806   7.653
 7752POPC   C1B36511  17.282  33.630   8.553
 7752POPC   C2B36512  17.254  33.660   8.253
 7752POPC   C3B36513  17.286  33.707   7.953
 7752POPC   C4B36514  17.267  33.687   7.653
 7753POPC   NC336515   4.275   4.305   9.453
 7753POPC   PO436516   4.306   4.336   9.153
 7753POPC   GL136517   4.360   4.306   8.853
 7753POPC   GL236518   4.275   4.469   8.853
 7753POPC   C1A36519   4.335   4.300   8.553
 7753POPC   D2A36520   4.335   4.367   8.253
 7753POPC   C3A36521   4.360   4.330   7.953
 7753POPC   C4A36522   4.283   4.275   7.653
 7753POPC   C1B36523   4.224   4.539   8.553
 7753POPC   C2B36524   4.273   4.518   8.253
 7753POPC   C3B36525   4.233   4.546   7.953
 7753POPC   C4B36526   4.217   4.545   7.653
 7754POPC   NC336527  29.165   5.839   9.453
 7754POPC   PO436528  29.177   5.880   9.153
 7754POPC   GL136529  29.111   5.844   8.853
 7754POPC   GL236530  29.187   6.004   8.853
 7754POPC   C1A36531  29.104   5.846   8.553
 7754POPC   D2A36532  29.136   5.883   8.253
 7754POPC   C3A36533  29.135   5.893   7.953
 7754POPC   C4A36534  29.143   5.863   7.653
 7754POPC   C1B36535  29.189   6.165   8.553
 7754POPC   C2B36536  29.178   6.095   8.253
 7754POPC   C3B36537  29.150   6.076   7.953
 7754POPC   C4B36538  29.195   6.157   7.653
 7755POPC   NC336539   5.875  26.771   9.453
 7755POPC   PO436540   5.891  26.847   9.153
 7755POPC   GL136541   5.863  26.846   8.853
 7755POPC   GL236542   5.788  26.842   8.853
 7755POPC   C1A36543   5.854  26.791   8.553
 7755POPC   D2A36544   5.842  26.846   8.253
 7755POPC   C3A36545   5.899  26.859   7.953
 7755POPC   C4A36546   5.895  26.780   7.653
 7755POPC   C1B36547   5.648  26.831   8.553
 7755POPC   C2B36548   5.571  26.784   8.253
 7755POPC   C3B36549   5.649  26.747   7.953
 7755POPC   C4B36550   5.593  26.765   7.653
 7756POPC   NC336551  39.980  18.312   9.453
 7756POPC   PO436552  40.003  18.296   9.153
 7756POPC   GL136553  40.047  18.255   8.853
 7756POPC   GL236554  40.054  18.191   8.853
 7756POPC   C1A36555  40.020  18.327   8.553
 7756POPC   D2A36556  40.018  18.250   8.253
 7756POPC   C3A36557  39.985  18.306   7.953
 7756POPC   C4A36558  39.986  18.280   7.653
 7756POPC   C1B36559  40.090  17.998   8.553
 7756POPC   C2B36560  40.084  18.020   8.253
 7756POPC   C3B36561  40.027  18.014   7.953
 7756POPC   C4B36562  40.081  18.052   7.653
 7757POPC   NC336563  44.673  20.582   9.453
 7757POPC   PO436564  44.664  20.622   9.153
 7757POPC   GL136565  44.694  20.614   8.853
 7757POPC   GL236566  44.665  20.477   8.853
 7757POPC   C1A36567  44.669  20.613   8.553
 7757POPC   D2A36568  44.639  20.639   8.253
 7757POPC   C3A36569  44.618  20.655   7.953
 7757POPC   C4A36570  44.642  20.592   7.653
 7757POPC   C1B36571  44.761  20.351   8.553
 7757POPC   C2B36572  44.790  20.347   8.253
 7757POPC   C3B36573  44.774  20.332   7.953
 7757POPC   C4B36574  44.718  20.355   7.653
 7758POPC   NC336575  22.908  17.476   9.453
 7758POPC   PO436576  22.960  17.547   9.153
 7758POPC   GL136577  22.914  17.487   8.853
 7758POPC   GL236578  22.796  17.606   8.853
 7758POPC   C1A36579  22.932  17.498   8.553
 7758POPC   D2A36580  22.981  17.460   8.253
 7758POPC   C3A36581  22.938  17.509   7.953
 7758POPC   C4A36582  22.965  17.458   7.653
 7758POPC   C1B36583  22.731  17.651   8.553
 7758POPC   C2B36584  22.695  17.629   8.253
 7758POPC   C3B36585  22.770  17.670   7.953
 7758POPC   C4B36586  22.736  17.709   7.653
 7759POPC   NC336587  21.344  17.514   9.453
 7759POPC   PO436588  21.367  17.512   9.153
 7759POPC   GL136589  21.426  17.536   8.853
 7759POPC   GL236590  21.289  17.641   8.853
 7759POPC   C1A36591  21.368  17.556   8.553
 7759POPC   D2A36592  21.421  17.530   8.253
 7759POPC   C3A36593  21.394  17.497   7.953
 7759POPC   C4A36594  21.408  17.524   7.653
 7759POPC   C1B36595  21.247  17.668   8.553
 7759POPC   C2B36596  21.211  17.695   8.253
 7759POPC   C3B36597  21.199  17.701   7.953
 7759POPC   C4B36598  21.256  17.668   7.653
 7760POPC   NC336599  33.032  22.115   9.453
 7760POPC   PO436600  33.052  22.121   9.153
 7760POPC   GL136601  33.019  22.201   8.853
 7760POPC   GL236602  33.184  22.207   8.853
 7760POPC   C1A36603  33.021  22.193   8.553
 7760POPC   D2A36604  32.979  22.184   8.253
 7760POPC   C3A36605  33.028  22.131   7.953
 7760POPC   C4A36606  32.986  22.176   7.653
 7760POPC   C1B36607  33.243  22.202   8.553
 7760POPC   C2B36608  33.251  22.199   8.253
 7760POPC   C3B36609  33.229  22.201   7.953
 7760POPC   C4B36610  33.313  22.199   7.653
 7761POPC   NC336611  13.600  43.878   9.453
 7761POPC   PO436612  13.623  43.908   9.153
 7761POPC   GL136613  13.665  43.903   8.853
 7761POPC   GL236614  13.776  43.942   8.853
 7761POPC   C1A36615  13.650  43.877   8.553
 7761POPC   D2A36616  13.675  43.858   8.253
 7761POPC   C3A36617  13.675  43.855   7.953
 7761POPC   C4A36618  13.614  43.844   7.653
 7761POPC   C1B36619  13.807  43.981   8.553
 7761POPC   C2B36620  13.887  44.048   8.253
 7761POPC   C3B36621  13.841  44.048   7.953
 7761POPC   C4B36622  13.812  43.997   7.653
 7762POPC   NC336623   8.207  18.237   9.453
 7762POPC   PO436624   8.244  18.307   9.153
 7762POPC   GL136625   8.240  18.330   8.853
 7762POPC   GL236626   8.326  18.261   8.853
 7762POPC   C1A36627   8.246  18.236   8.553
 7762POPC   D2A36628   8.241  18.233   8.253
 7762POPC   C3A36629   8.233  18.255   7.953
 7762POPC   C4A36630   8.194  18.254   7.653
 7762POPC   C1B36631   8.444  18.174   8.553
 7762POPC   C2B36632   8.369  18.140   8.253
 7762POPC   C3B36633   8.375  18.117   7.953
 7762POPC   C4B36634   8.448  18.159   7.653
 7763POPC   NC336635  10.491  11.264   9.453
 7763POPC   PO436636  10.535  11.315   9.153
 7763POPC   GL136637  10.477  11.310   8.853
 7763POPC   GL236638  10.411  11.253   8.853
 7763POPC   C1A36639  10.562  11.333   8.553
 7763POPC   D2A36640  10.493  11.349   8.253
 7763POPC   C3A36641  10.561  11.340   7.953
 7763POPC   C4A36642  10.514  11.329   7.653
 7763POPC   C1B36643  10.300  11.254   8.553
 7763POPC   C2B36644  10.266  11.253   8.253
 7763POPC   C3B36645  10.307  11.239   7.953
 7763POPC   C4B36646  10.336  11.206   7.653
 7764POPC   NC336647  34.615   5.896   9.453
 7764POPC   PO436648  34.613   5.903   9.153
 7764POPC   GL136649  34.585   5.838   8.853
 7764POPC   GL236650  34.485   5.805   8.853
 7764POPC   C1A36651  34.599   5.871   8.553
 7764POPC   D2A36652  34.570   5.829   8.253
 7764POPC   C3A36653  34.623   5.875   7.953
 7764POPC   C4A36654  34.615   5.868   7.653
 7764POPC   C1B36655  34.373   5.721   8.553
 7764POPC   C2B36656  34.381   5.743   8.253
 7764POPC   C3B36657  34.308   5.808   7.953
 7764POPC   C4B36658  34.388   5.808   7.653
 7765POPC   NC336659  33.049   5.065   9.453
 7765POPC   PO436660  33.047   5.115   9.153
 7765POPC   GL136661  33.027   5.072   8.853
 7765POPC   GL236662  32.956   5.030   8.853
 7765POPC   C1A36663  32.976   5.136   8.553
 7765POPC   D2A36664  33.061   5.135   8.253
 7765POPC   C3A36665  33.034   5.140   7.953
 7765POPC   C4A36666  33.047   5.052   7.653
 7765POPC   C1B36667  32.817   4.934   8.553
 7765POPC   C2B36668  32.883   4.910   8.253
 7765POPC   C3B36669  32.833   4.883   7.953
 7765POPC   C4B36670  32.850   4.950   7.653
 7766POPC   NC336671  43.074  32.294   9.453
 7766POPC   PO436672  43.116  32.238   9.153
 7766POPC   GL136673  43.127  32.204   8.853
 7766POPC   GL236674  43.133  32.324   8.853
 7766POPC   C1A36675  43.133  32.209   8.553
 7766POPC   D2A36676  43.104  32.294   8.253
 7766POPC   C3A36677  43.138  32.270   7.953
 7766POPC   C4A36678  43.108  32.267   7.653
 7766POPC   C1B36679  43.151  32.531   8.553
 7766POPC   C2B36680  43.097  32.457   8.253
 7766POPC   C3B36681  43.115  32.543   7.953
 7766POPC   C4B36682  43.095  32.493   7.653
 7767POPC   NC336683  37.631  15.915   9.453
 7767POPC   PO436684  37.655  15.930   9.153
 7767POPC   GL136685  37.659  15.927   8.853
 7767POPC   GL236686  37.740  16.018   8.853
 7767POPC   C1A36687  37.657  15.963   8.553
 7767POPC   D2A36688  37.709  15.923   8.253
 7767POPC   C3A36689  37.670  15.922   7.953
 7767POPC   C4A36690  37.718  15.905   7.653
 7767POPC   C1B36691  37.784  16.124   8.553
 7767POPC   C2B36692  37.851  16.188   8.253
 7767POPC   C3B36693  37.836  16.177   7.953
 7767POPC   C4B36694  37.827  16.117   7.653
 7768POPC   NC336695  15.189  25.313   9.453
 7768POPC   PO436696  15.205  25.281   9.153
 7768POPC   GL136697  15.151  25.280   8.853
 7768POPC   GL236698  15.090  25.338   8.853
 7768POPC   C1A36699  15.135  25.243   8.553
 7768POPC   D2A36700  15.164  25.261   8.253
 7768POPC   C3A36701  15.158  25.289   7.953
 7768POPC   C4A36702  15.145  25.290   7.653
 7768POPC   C1B36703  14.978  25.320   8.553
 7768POPC   C2B36704  14.935  25.355   8.253
 7768POPC   C3B36705  14.964  25.321   7.953
 7768POPC   C4B36706  14.926  25.388   7.653
 7769POPC   NC336707  33.818  17.457   9.453
 7769POPC   PO436708  33.825  17.527   9.153
 7769POPC   GL136709  33.841  17.532   8.853
 7769POPC   GL236710  33.775  17.628   8.853
 7769POPC   C1A36711  33.843  17.538   8.553
 7769POPC   D2A36712  33.827  17.532   8.253
 7769POPC   C3A36713  33.846  17.482   7.953
 7769POPC   C4A36714  33.772  17.505   7.653
 7769POPC   C1B36715  33.639  17.776   8.553
 7769POPC   C2B36716  33.668  17.707   8.253
 7769POPC   C3B36717  33.659  17.766   7.953
 7769POPC   C4B36718  33.702  17.697   7.653
 7770POPC   NC336719  18.329  22.182   9.453
 7770POPC   PO436720  18.271  22.182   9.153
 7770POPC   GL136721  18.293  22.160   8.853
 7770POPC   GL236722  18.187  22.226   8.853
 7770POPC   C1A36723  18.236  22.115   8.553
 7770POPC   D2A36724  18.298  22.149   8.253
 7770POPC   C3A36725  18.320  22.154   7.953
 7770POPC   C4A36726  18.247  22.125   7.653
 7770POPC   C1B36727  18.132  22.277   8.553
 7770POPC   C2B36728  18.057  22.289   8.253
 7770POPC   C3B36729  18.120  22.342   7.953
 7770POPC   C4B36730  18.054  22.376   7.653
 7771POPC   NC336731  33.040  29.945   9.453
 7771POPC   PO436732  33.014  29.932   9.153
 7771POPC   GL136733  33.070  29.924   8.853
 7771POPC   GL236734  33.056  29.822   8.853
 7771POPC   C1A36735  33.069  29.904   8.553
 7771POPC   D2A36736  33.066  29.931   8.253
 7771POPC   C3A36737  32.977  29.886   7.953
 7771POPC   C4A36738  33.065  29.935   7.653
 7771POPC   C1B36739  33.075  29.722   8.553
 7771POPC   C2B36740  33.060  29.713   8.253
 7771POPC   C3B36741  33.050  29.686   7.953
 7771POPC   C4B36742  33.084  29.699   7.653
 7772POPC   NC336743  31.499  35.370   9.453
 7772POPC   PO436744  31.457  35.331   9.153
 7772POPC   GL136745  31.462  35.393   8.853
 7772POPC   GL236746  31.584  35.473   8.853
 7772POPC   C1A36747  31.515  35.308   8.553
 7772POPC   D2A36748  31.444  35.378   8.253
 7772POPC   C3A36749  31.505  35.354   7.953
 7772POPC   C4A36750  31.457  35.324   7.653
 7772POPC   C1B36751  31.582  35.530   8.553
 7772POPC   C2B36752  31.637  35.552   8.253
 7772POPC   C3B36753  31.630  35.554   7.953
 7772POPC   C4B36754  31.638  35.522   7.653
 7773POPC   NC336755   0.481  29.112   9.453
 7773POPC   PO436756   0.437  29.112   9.153
 7773POPC   GL136757   0.473  29.167   8.853
 7773POPC   GL236758   0.359  29.087   8.853
 7773POPC   C1A36759   0.421  29.184   8.553
 7773POPC   D2A36760   0.450  29.135   8.253
 7773POPC   C3A36761   0.462  29.151   7.953
 7773POPC   C4A36762   0.444  29.129   7.653
 7773POPC   C1B36763   0.159  29.031   8.553
 7773POPC   C2B36764   0.222  29.123   8.253
 7773POPC   C3B36765   0.225  29.062   7.953
 7773POPC   C4B36766   0.176  29.114   7.653
 7774POPC   NC336767  13.641   5.909   9.453
 7774POPC   PO436768  13.642   5.915   9.153
 7774POPC   GL136769  13.635   5.821   8.853
 7774POPC   GL236770  13.726   5.972   8.853
 7774POPC   C1A36771  13.647   5.822   8.553
 7774POPC   D2A36772  13.599   5.883   8.253
 7774POPC   C3A36773  13.595   5.881   7.953
 7774POPC   C4A36774  13.619   5.844   7.653
 7774POPC   C1B36775  13.797   6.076   8.553
 7774POPC   C2B36776  13.790   6.039   8.253
 7774POPC   C3B36777  13.776   6.057   7.953
 7774POPC   C4B36778  13.808   6.049   7.653
 7775POPC   NC336779  34.570   2.768   9.453
 7775POPC   PO436780  34.594   2.779   9.153
 7775POPC   GL136781  34.535   2.734   8.853
 7775POPC   GL236782  34.658   2.624   8.853
 7775POPC   C1A36783  34.552   2.723   8.553
 7775POPC   D2A36784  34.573   2.781   8.253
 7775POPC   C3A36785  34.581   2.770   7.953
 7775POPC   C4A36786  34.570   2.808   7.653
 7775POPC   C1B36787  34.713   2.609   8.553
 7775POPC   C2B36788  34.724   2.521   8.253
 7775POPC   C3B36789  34.725   2.604   7.953
 7775POPC   C4B36790  34.730   2.541   7.653
 7776POPC   NC336791  13.597  12.849   9.453
 7776POPC   PO436792  13.677  12.892   9.153
 7776POPC   GL136793  13.609  12.879   8.853
 7776POPC   GL236794  13.667  12.986   8.853
 7776POPC   C1A36795  13.638  12.868   8.553
 7776POPC   D2A36796  13.599  12.843   8.253
 7776POPC   C3A36797  13.601  12.835   7.953
 7776POPC   C4A36798  13.660  12.829   7.653
 7776POPC   C1B36799  13.691  13.073   8.553
 7776POPC   C2B36800  13.679  13.075   8.253
 7776POPC   C3B36801  13.692  13.077   7.953
 7776POPC   C4B36802  13.692  13.096   7.653
 7777POPC   NC336803  40.804  35.321   9.453
 7777POPC   PO436804  40.827  35.368   9.153
 7777POPC   GL136805  40.794  35.344   8.853
 7777POPC   GL236806  40.772  35.472   8.853
 7777POPC   C1A36807  40.809  35.320   8.553
 7777POPC   D2A36808  40.817  35.304   8.253
 7777POPC   C3A36809  40.802  35.334   7.953
 7777POPC   C4A36810  40.816  35.361   7.653
 7777POPC   C1B36811  40.790  35.644   8.553
 7777POPC   C2B36812  40.818  35.607   8.253
 7777POPC   C3B36813  40.805  35.595   7.953
 7777POPC   C4B36814  40.830  35.634   7.653
 7778POPC   NC336815  16.727  44.612   9.453
 7778POPC   PO436816  16.767  44.659   9.153
 7778POPC   GL136817  16.762  44.639   8.853
 7778POPC   GL236818  16.787  44.504   8.853
 7778POPC   C1A36819  16.744  44.695   8.553
 7778POPC   D2A36820  16.734  44.688   8.253
 7778POPC   C3A36821  16.770  44.633   7.953
 7778POPC   C4A36822  16.748  44.618   7.653
 7778POPC   C1B36823  16.869  44.443   8.553
 7778POPC   C2B36824  16.801  44.422   8.253
 7778POPC   C3B36825  16.850  44.424   7.953
 7778POPC   C4B36826  16.819  44.403   7.653
 7779POPC   NC336827   9.751  42.371   9.453
 7779POPC   PO436828   9.724  42.337   9.153
 7779POPC   GL136829   9.793  42.375   8.853
 7779POPC   GL236830   9.764  42.256   8.853
 7779POPC   C1A36831   9.702  42.325   8.553
 7779POPC   D2A36832   9.756  42.300   8.253
 7779POPC   C3A36833   9.764  42.295   7.953
 7779POPC   C4A36834   9.702  42.335   7.653
 7779POPC   C1B36835   9.801  42.049   8.553
 7779POPC   C2B36836   9.831  42.143   8.253
 7779POPC   C3B36837   9.848  42.081   7.953
 7779POPC   C4B36838   9.839  42.132   7.653
 7780POPC   NC336839  26.843   6.645   9.453
 7780POPC   PO436840  26.773   6.647   9.153
 7780POPC   GL136841  26.824   6.600   8.853
 7780POPC   GL236842  26.965   6.643   8.853
 7780POPC   C1A36843  26.799   6.651   8.553
 7780POPC   D2A36844  26.856   6.615   8.253
 7780POPC   C3A36845  26.820   6.663   7.953
 7780POPC   C4A36846  26.832   6.646   7.653
 7780POPC   C1B36847  27.043   6.592   8.553
 7780POPC   C2B36848  27.038   6.572   8.253
 7780POPC   C3B36849  27.047   6.604   7.953
 7780POPC   C4B36850  27.062   6.544   7.653
 7781POPC   NC336851  19.066  16.771   9.453
 7781POPC   PO436852  19.011  16.687   9.153
 7781POPC   GL136853  19.032  16.774   8.853
 7781POPC   GL236854  19.229  16.780   8.853
 7781POPC   C1A36855  19.018  16.723   8.553
 7781POPC   D2A36856  19.080  16.752   8.253
 7781POPC   C3A36857  19.013  16.721   7.953
 7781POPC   C4A36858  19.028  16.684   7.653
 7781POPC   C1B36859  19.267  16.797   8.553
 7781POPC   C2B36860  19.293  16.771   8.253
 7781POPC   C3B36861  19.325  16.772   7.953
 7781POPC   C4B36862  19.323  16.814   7.653
 7782POPC   NC336863  43.120  29.134   9.453
 7782POPC   PO436864  43.126  29.096   9.153
 7782POPC   GL136865  43.072  29.180   8.853
 7782POPC   GL236866  43.073  29.238   8.853
 7782POPC   C1A36867  43.149  29.182   8.553
 7782POPC   D2A36868  43.091  29.127   8.253
 7782POPC   C3A36869  43.084  29.183   7.953
 7782POPC   C4A36870  43.098  29.118   7.653
 7782POPC   C1B36871  43.015  29.338   8.553
 7782POPC   C2B36872  42.962  29.325   8.253
 7782POPC   C3B36873  43.021  29.329   7.953
 7782POPC   C4B36874  43.023  29.371   7.653
 7783POPC   NC336875  20.580  26.046   9.453
 7783POPC   PO436876  20.599  26.090   9.153
 7783POPC   GL136877  20.569  26.011   8.853
 7783POPC   GL236878  20.686  26.010   8.853
 7783POPC   C1A36879  20.606  26.034   8.553
 7783POPC   D2A36880  20.595  26.072   8.253
 7783POPC   C3A36881  20.635  26.083   7.953
 7783POPC   C4A36882  20.639  26.048   7.653
 7783POPC   C1B36883  20.888  25.983   8.553
 7783POPC   C2B36884  20.861  25.992   8.253
 7783POPC   C3B36885  20.869  26.033   7.953
 7783POPC   C4B36886  20.874  26.020   7.653
 7784POPC   NC336887   8.222  23.713   9.453
 7784POPC   PO436888   8.240  23.734   9.153
 7784POPC   GL136889   8.212  23.754   8.853
 7784POPC   GL236890   8.283  23.805   8.853
 7784POPC   C1A36891   8.207  23.679   8.553
 7784POPC   D2A36892   8.205  23.679   8.253
 7784POPC   C3A36893   8.179  23.731   7.953
 7784POPC   C4A36894   8.155  23.759   7.653
 7784POPC   C1B36895   8.441  23.824   8.553
 7784POPC   C2B36896   8.407  23.851   8.253
 7784POPC   C3B36897   8.419  23.882   7.953
 7784POPC   C4B36898   8.429  23.823   7.653
 7785POPC   NC336899  43.874  22.186   9.453
 7785POPC   PO436900  43.885  22.184   9.153
 7785POPC   GL136901  43.901  22.167   8.853
 7785POPC   GL236902  43.859  22.081   8.853
 7785POPC   C1A36903  43.878  22.166   8.553
 7785POPC   D2A36904  43.843  22.208   8.253
 7785POPC   C3A36905  43.916  22.144   7.953
 7785POPC   C4A36906  43.849  22.121   7.653
 7785POPC   C1B36907  43.827  21.958   8.553
 7785POPC   C2B36908  43.810  21.929   8.253
 7785POPC   C3B36909  43.853  21.916   7.953
 7785POPC   C4B36910  43.845  21.948   7.653
 7786POPC   NC336911  38.441  33.765   9.453
 7786POPC   PO436912  38.428  33.764   9.153
 7786POPC   GL136913  38.478  33.795   8.853
 7786POPC   GL236914  38.335  33.777   8.853
 7786POPC   C1A36915  38.440  33.793   8.553
 7786POPC   D2A36916  38.501  33.823   8.253
 7786POPC   C3A36917  38.464  33.816   7.953
 7786POPC   C4A36918  38.464  33.802   7.653
 7786POPC   C1B36919  38.216  33.787   8.553
 7786POPC   C2B36920  38.167  33.716   8.253
 7786POPC   C3B36921  38.229  33.758   7.953
 7786POPC   C4B36922  38.247  33.709   7.653
 7787POPC   NC336923  31.506  43.932   9.453
 7787POPC   PO436924  31.437  43.865   9.153
 7787POPC   GL136925  31.522  43.866   8.853
 7787POPC   GL236926  31.481  43.968   8.853
 7787POPC   C1A36927  31.504  43.872   8.553
 7787POPC   D2A36928  31.486  43.932   8.253
 7787POPC   C3A36929  31.437  43.873   7.953
 7787POPC   C4A36930  31.450  43.935   7.653
 7787POPC   C1B36931  31.409  44.142   8.553
 7787POPC   C2B36932  31.433  44.134   8.253
 7787POPC   C3B36933  31.396  44.124   7.953
 7787POPC   C4B36934  31.391  44.125   7.653
 7788POPC   NC336935  31.443  36.936   9.453
 7788POPC   PO436936  31.439  36.912   9.153
 7788POPC   GL136937  31.428  36.896   8.853
 7788POPC   GL236938  31.541  36.773   8.853
 7788POPC   C1A36939  31.487  36.875   8.553
 7788POPC   D2A36940  31.496  36.930   8.253
 7788POPC   C3A36941  31.449  36.888   7.953
 7788POPC   C4A36942  31.474  36.885   7.653
 7788POPC   C1B36943  31.480  36.707   8.553
 7788POPC   C2B36944  31.499  36.630   8.253
 7788POPC   C3B36945  31.477  36.706   7.953
 7788POPC   C4B36946  31.500  36.660   7.653
 7789POPC   NC336947  39.234   4.294   9.453
 7789POPC   PO436948  39.196   4.299   9.153
 7789POPC   GL136949  39.256   4.294   8.853
 7789POPC   GL236950  39.091   4.386   8.853
 7789POPC   C1A36951  39.210   4.299   8.553
 7789POPC   D2A36952  39.187   4.309   8.253
 7789POPC   C3A36953  39.220   4.317   7.953
 7789POPC   C4A36954  39.210   4.282   7.653
 7789POPC   C1B36955  39.004   4.430   8.553
 7789POPC   C2B36956  39.034   4.437   8.253
 7789POPC   C3B36957  39.005   4.499   7.953
 7789POPC   C4B36958  38.997   4.443   7.653
 7790POPC   NC336959  19.092  36.942   9.453
 7790POPC   PO436960  19.071  36.913   9.153
 7790POPC   GL136961  19.091  36.939   8.853
 7790POPC   GL236962  18.947  37.031   8.853
 7790POPC   C1A36963  19.097  36.861   8.553
 7790POPC   D2A36964  19.067  36.865   8.253
 7790POPC   C3A36965  19.056  36.932   7.953
 7790POPC   C4A36966  19.052  36.867   7.653
 7790POPC   C1B36967  18.905  37.084   8.553
 7790POPC   C2B36968  18.930  37.081   8.253
 7790POPC   C3B36969  18.865  37.115   7.953
 7790POPC   C4B36970  18.936  37.060   7.653
 7791POPC   NC336971   1.243  23.754   9.453
 7791POPC   PO436972   1.175  23.704   9.153
 7791POPC   GL136973   1.209  23.761   8.853
 7791POPC   GL236974   1.272  23.631   8.853
 7791POPC   C1A36975   1.242  23.670   8.553
 7791POPC   D2A36976   1.243  23.677   8.253
 7791POPC   C3A36977   1.188  23.739   7.953
 7791POPC   C4A36978   1.224  23.736   7.653
 7791POPC   C1B36979   1.333  23.484   8.553
 7791POPC   C2B36980   1.300  23.456   8.253
 7791POPC   C3B36981   1.269  23.439   7.953
 7791POPC   C4B36982   1.318  23.500   7.653
 7792POPC   NC336983  38.428  15.919   9.453
 7792POPC   PO436984  38.428  15.951   9.153
 7792POPC   GL136985  38.440  15.905   8.853
 7792POPC   GL236986  38.295  16.029   8.853
 7792POPC   C1A36987  38.455  15.999   8.553
 7792POPC   D2A36988  38.491  15.996   8.253
 7792POPC   C3A36989  38.501  15.992   7.953
 7792POPC   C4A36990  38.413  15.909   7.653
 7792POPC   C1B36991  38.242  16.059   8.553
 7792POPC   C2B36992  38.189  16.057   8.253
 7792POPC   C3B36993  38.241  16.007   7.953
 7792POPC   C4B36994  38.169  16.048   7.653
 7793POPC   NC336995  39.961  15.151   9.453
 7793POPC   PO436996  39.982  15.189   9.153
 7793POPC   GL136997  39.993  15.224   8.853
 7793POPC   GL236998  39.926  15.119   8.853
 7793POPC   C1A36999  40.032  15.204   8.553
 7793POPC   D2A37000  40.018  15.156   8.253
 7793POPC   C3A37001  39.978  15.144   7.953
 7793POPC   C4A37002  40.029  15.168   7.653
 7793POPC   C1B37003  39.745  15.152   8.553
 7793POPC   C2B37004  39.752  15.146   8.253
 7793POPC   C3B37005  39.734  15.129   7.953
 7793POPC   C4B37006  39.764  15.183   7.653
 7794POPC   NC337007  36.854   4.320   9.453
 7794POPC   PO437008  36.929   4.271   9.153
 7794POPC   GL137009  36.891   4.323   8.853
 7794POPC   GL237010  36.737   4.384   8.853
 7794POPC   C1A37011  36.922   4.288   8.553
 7794POPC   D2A37012  36.926   4.289   8.253
 7794POPC   C3A37013  36.921   4.281   7.953
 7794POPC   C4A37014  36.935   4.321   7.653
 7794POPC   C1B37015  36.648   4.416   8.553
 7794POPC   C2B37016  36.631   4.367   8.253
 7794POPC   C3B37017  36.633   4.401   7.953
 7794POPC   C4B37018  36.620   4.328   7.653
 7795POPC   NC337019  41.538  36.884   9.453
 7795POPC   PO437020  41.516  36.918   9.153
 7795POPC   GL137021  41.526  36.868   8.853
 7795POPC   GL237022  41.493  36.790   8.853
 7795POPC   C1A37023  41.569  36.893   8.553
 7795POPC   D2A37024  41.584  36.873   8.253
 7795POPC   C3A37025  41.609  36.942   7.953
 7795POPC   C4A37026  41.512  36.862   7.653
 7795POPC   C1B37027  41.483  36.681   8.553
 7795POPC   C2B37028  41.464  36.646   8.253
 7795POPC   C3B37029  41.551  36.634   7.953
 7795POPC   C4B37030  41.474  36.681   7.653
 7796POPC   NC337031  40.792  15.950   9.453
 7796POPC   PO437032  40.758  15.964   9.153
 7796POPC   GL137033  40.760  15.976   8.853
 7796POPC   GL237034  40.898  15.914   8.853
 7796POPC   C1A37035  40.784  15.907   8.553
 7796POPC   D2A37036  40.818  15.960   8.253
 7796POPC   C3A37037  40.772  15.925   7.953
 7796POPC   C4A37038  40.749  15.961   7.653
 7796POPC   C1B37039  41.008  15.931   8.553
 7796POPC   C2B37040  41.051  15.960   8.253
 7796POPC   C3B37041  41.064  15.979   7.953
 7796POPC   C4B37042  41.047  15.963   7.653
 7797POPC   NC337043  27.582  26.061   9.453
 7797POPC   PO437044  27.600  26.081   9.153
 7797POPC   GL137045  27.625  25.996   8.853
 7797POPC   GL237046  27.588  25.969   8.853
 7797POPC   C1A37047  27.545  26.030   8.553
 7797POPC   D2A37048  27.612  26.021   8.253
 7797POPC   C3A37049  27.557  26.084   7.953
 7797POPC   C4A37050  27.568  25.997   7.653
 7797POPC   C1B37051  27.661  25.816   8.553
 7797POPC   C2B37052  27.633  25.787   8.253
 7797POPC   C3B37053  27.619  25.760   7.953
 7797POPC   C4B37054  27.664  25.824   7.653
 7798POPC   NC337055  20.572  29.153   9.453
 7798POPC   PO437056  20.651  29.108   9.153
 7798POPC   GL137057  20.586  29.109   8.853
 7798POPC   GL237058  20.641  29.060   8.853
 7798POPC   C1A37059  20.607  29.118   8.553
 7798POPC   D2A37060  20.658  29.167   8.253
 7798POPC   C3A37061  20.561  29.184   7.953
 7798POPC   C4A37062  20.640  29.130   7.653
 7798POPC   C1B37063  20.645  28.902   8.553
 7798POPC   C2B37064  20.726  28.871   8.253
 7798POPC   C3B37065  20.677  28.909   7.953
 7798POPC   C4B37066  20.666  28.919   7.653
 7799POPC   NC337067  40.780  32.290   9.453
 7799POPC   PO437068  40.808  32.278   9.153
 7799POPC   GL137069  40.792  32.291   8.853
 7799POPC   GL237070  40.950  32.281   8.853
 7799POPC   C1A37071  40.824  32.248   8.553
 7799POPC   D2A37072  40.830  32.263   8.253
 7799POPC   C3A37073  40.756  32.240   7.953
 7799POPC   C4A37074  40.786  32.215   7.653
 7799POPC   C1B37075  40.988  32.245   8.553
 7799POPC   C2B37076  41.076  32.219   8.253
 7799POPC   C3B37077  41.019  32.254   7.953
 7799POPC   C4B37078  41.082  32.271   7.653
 7800POPC   NC337079   3.591   5.875   9.453
 7800POPC   PO437080   3.580   5.903   9.153
 7800POPC   GL137081   3.552   5.880   8.853
 7800POPC   GL237082   3.531   5.725   8.853
 7800POPC   C1A37083   3.524   5.910   8.553
 7800POPC   D2A37084   3.549   5.832   8.253
 7800POPC   C3A37085   3.546   5.894   7.953
 7800POPC   C4A37086   3.579   5.883   7.653
 7800POPC   C1B37087   3.611   5.665   8.553
 7800POPC   C2B37088   3.564   5.622   8.253
 7800POPC   C3B37089   3.575   5.659   7.953
 7800POPC   C4B37090   3.555   5.607   7.653
 7801POPC   NC337091   5.127  21.420   9.453
 7801POPC   PO437092   5.064  21.370   9.153
 7801POPC   GL137093   5.142  21.398   8.853
 7801POPC   GL237094   4.998  21.380   8.853
 7801POPC   C1A37095   5.060  21.434   8.553
 7801POPC   D2A37096   5.130  21.432   8.253
 7801POPC   C3A37097   5.086  21.373   7.953
 7801POPC   C4A37098   5.119  21.430   7.653
 7801POPC   C1B37099   4.896  21.305   8.553
 7801POPC   C2B37100   4.827  21.254   8.253
 7801POPC   C3B37101   4.852  21.307   7.953
 7801POPC   C4B37102   4.816  21.301   7.653
 7802POPC   NC337103   1.974  19.845   9.453
 7802POPC   PO437104   1.961  19.875   9.153
 7802POPC   GL137105   1.973  19.879   8.853
 7802POPC   GL237106   2.035  19.719   8.853
 7802POPC   C1A37107   1.991  19.825   8.553
 7802POPC   D2A37108   1.992  19.856   8.253
 7802POPC   C3A37109   2.020  19.848   7.953
 7802POPC   C4A37110   2.023  19.873   7.653
 7802POPC   C1B37111   1.982  19.565   8.553
 7802POPC   C2B37112   2.030  19.551   8.253
 7802POPC   C3B37113   2.045  19.558   7.953
 7802POPC   C4B37114   1.983  19.557   7.653
 7803POPC   NC337115  17.472  40.035   9.453
 7803POPC   PO437116  17.554  40.033   9.153
 7803POPC   GL137117  17.498  40.026   8.853
 7803POPC   GL237118  17.348  40.092   8.853
 7803POPC   C1A37119  17.542  40.010   8.553
 7803POPC   D2A37120  17.480  40.013   8.253
 7803POPC   C3A37121  17.524  40.008   7.953
 7803POPC   C4A37122  17.488  39.986   7.653
 7803POPC   C1B37123  17.300  40.089   8.553
 7803POPC   C2B37124  17.263  40.041   8.253
 7803POPC   C3B37125  17.278  40.099   7.953
 7803POPC   C4B37126  17.305  40.073   7.653
 7804POPC   NC337127  19.081  26.090   9.453
 7804POPC   PO437128  19.021  26.027   9.153
 7804POPC   GL137129  19.104  26.002   8.853
 7804POPC   GL237130  19.214  26.068   8.853
 7804POPC   C1A37131  19.077  26.044   8.553
 7804POPC   D2A37132  19.071  26.052   8.253
 7804POPC   C3A37133  19.098  26.018   7.953
 7804POPC   C4A37134  19.074  26.004   7.653
 7804POPC   C1B37135  19.291  26.149   8.553
 7804POPC   C2B37136  19.337  26.105   8.253
 7804POPC   C3B37137  19.250  26.070   7.953
 7804POPC   C4B37138  19.277  26.103   7.653
 7805POPC   NC337139  10.505   2.815   9.453
 7805POPC   PO437140  10.522   2.776   9.153
 7805POPC   GL137141  10.535   2.717   8.853
 7805POPC   GL237142  10.393   2.759   8.853
 7805POPC   C1A37143  10.486   2.716   8.553
 7805POPC   D2A37144  10.568   2.724   8.253
 7805POPC   C3A37145  10.550   2.802   7.953
 7805POPC   C4A37146  10.494   2.779   7.653
 7805POPC   C1B37147  10.284   2.734   8.553
 7805POPC   C2B37148  10.284   2.762   8.253
 7805POPC   C3B37149  10.262   2.734   7.953
 7805POPC   C4B37150  10.269   2.682   7.653
 7806POPC   NC337151  41.535  37.669   9.453
 7806POPC   PO437152  41.548  37.704   9.153
 7806POPC   GL137153  41.534  37.673   8.853
 7806POPC   GL237154  41.486  37.567   8.853
 7806POPC   C1A37155  41.520  37.703   8.553
 7806POPC   D2A37156  41.527  37.710   8.253
 7806POPC   C3A37157  41.599  37.713   7.953
 7806POPC   C4A37158  41.585  37.644   7.653
 7806POPC   C1B37159  41.409  37.490   8.553
 7806POPC   C2B37160  41.428  37.483   8.253
 7806POPC   C3B37161  41.453  37.479   7.953
 7806POPC   C4B37162  41.499  37.484   7.653
 7807POPC   NC337163  22.900  29.136   9.453
 7807POPC   PO437164  22.939  29.152   9.153
 7807POPC   GL137165  22.955  29.133   8.853
 7807POPC   GL237166  22.928  29.007   8.853
 7807POPC   C1A37167  22.941  29.188   8.553
 7807POPC   D2A37168  22.889  29.182   8.253
 7807POPC   C3A37169  22.891  29.182   7.953
 7807POPC   C4A37170  22.931  29.107   7.653
 7807POPC   C1B37171  22.965  28.899   8.553
 7807POPC   C2B37172  22.958  28.895   8.253
 7807POPC   C3B37173  22.970  28.890   7.953
 7807POPC   C4B37174  22.979  28.935   7.653
 7808POPC   NC337175  32.259  36.105   9.453
 7808POPC   PO437176  32.219  36.164   9.153
 7808POPC   GL137177  32.269  36.156   8.853
 7808POPC   GL237178  32.125  36.065   8.853
 7808POPC   C1A37179  32.247  36.157   8.553
 7808POPC   D2A37180  32.289  36.172   8.253
 7808POPC   C3A37181  32.276  36.170   7.953
 7808POPC   C4A37182  32.275  36.114   7.653
 7808POPC   C1B37183  32.091  35.901   8.553
 7808POPC   C2B37184  32.057  35.888   8.253
 7808POPC   C3B37185  32.135  35.908   7.953
 7808POPC   C4B37186  32.072  35.962   7.653
 7809POPC   NC337187  40.806  26.051   9.453
 7809POPC   PO437188  40.754  26.063   9.153
 7809POPC   GL137189  40.805  26.043   8.853
 7809POPC   GL237190  40.640  26.076   8.853
 7809POPC   C1A37191  40.792  26.061   8.553
 7809POPC   D2A37192  40.777  25.997   8.253
 7809POPC   C3A37193  40.778  26.046   7.953
 7809POPC   C4A37194  40.757  26.081   7.653
 7809POPC   C1B37195  40.486  26.003   8.553
 7809POPC   C2B37196  40.580  26.101   8.253
 7809POPC   C3B37197  40.507  26.078   7.953
 7809POPC   C4B37198  40.573  26.017   7.653
 7810POPC   NC337199   8.152  27.548   9.453
 7810POPC   PO437200   8.149  27.633   9.153
 7810POPC   GL137201   8.205  27.565   8.853
 7810POPC   GL237202   8.167  27.516   8.853
 7810POPC   C1A37203   8.180  27.581   8.553
 7810POPC   D2A37204   8.189  27.576   8.253
 7810POPC   C3A37205   8.175  27.626   7.953
 7810POPC   C4A37206   8.234  27.641   7.653
 7810POPC   C1B37207   8.094  27.402   8.553
 7810POPC   C2B37208   8.019  27.352   8.253
 7810POPC   C3B37209   8.082  27.389   7.953
 7810POPC   C4B37210   8.093  27.380   7.653
 7811POPC   NC337211   2.795  11.251   9.453
 7811POPC   PO437212   2.732  11.251   9.153
 7811POPC   GL137213   2.778  11.313   8.853
 7811POPC   GL237214   2.796  11.157   8.853
 7811POPC   C1A37215   2.745  11.250   8.553
 7811POPC   D2A37216   2.769  11.296   8.253
 7811POPC   C3A37217   2.797  11.300   7.953
 7811POPC   C4A37218   2.753  11.324   7.653
 7811POPC   C1B37219   2.840  11.041   8.553
 7811POPC   C2B37220   2.757  11.056   8.253
 7811POPC   C3B37221   2.790  11.008   7.953
 7811POPC   C4B37222   2.819  11.053   7.653
 7812POPC   NC337223  21.369  29.928   9.453
 7812POPC   PO437224  21.384  29.882   9.153
 7812POPC   GL137225  21.430  29.944   8.853
 7812POPC   GL237226  21.354  29.792   8.853
 7812POPC   C1A37227  21.339  29.965   8.553
 7812POPC   D2A37228  21.385  29.968   8.253
 7812POPC   C3A37229  21.355  29.960   7.953
 7812POPC   C4A37230  21.349  29.949   7.653
 7812POPC   C1B37231  21.342  29.689   8.553
 7812POPC   C2B37232  21.320  29.716   8.253
 7812POPC   C3B37233  21.278  29.694   7.953
 7812POPC   C4B37234  21.366  29.654   7.653
 7813POPC   NC337235   8.933  43.097   9.453
 7813POPC   PO437236   8.963  43.100   9.153
 7813POPC   GL137237   9.004  43.158   8.853
 7813POPC   GL237238   9.121  43.013   8.853
 7813POPC   C1A37239   9.018  43.086   8.553
 7813POPC   D2A37240   8.964  43.113   8.253
 7813POPC   C3A37241   8.924  43.081   7.953
 7813POPC   C4A37242   8.933  43.082   7.653
 7813POPC   C1B37243   9.194  42.959   8.553
 7813POPC   C2B37244   9.203  42.956   8.253
 7813POPC   C3B37245   9.178  42.956   7.953
 7813POPC   C4B37246   9.151  42.957   7.653
 7814POPC   NC337247  30.663  23.696   9.453
 7814POPC   PO437248  30.665  23.735   9.153
 7814POPC   GL137249  30.686  23.706   8.853
 7814POPC   GL237250  30.742  23.847   8.853
 7814POPC   C1A37251  30.656  23.690   8.553
 7814POPC   D2A37252  30.720  23.693   8.253
 7814POPC   C3A37253  30.726  23.712   7.953
 7814POPC   C4A37254  30.700  23.748   7.653
 7814POPC   C1B37255  30.863  23.918   8.553
 7814POPC   C2B37256  30.905  23.926   8.253
 7814POPC   C3B37257  30.857  23.852   7.953
 7814POPC   C4B37258  30.849  23.887   7.653
 7815POPC   NC337259   2.778  24.504   9.453
 7815POPC   PO437260   2.806  24.461   9.153
 7815POPC   GL137261   2.773  24.528   8.853
 7815POPC   GL237262   2.758  24.646   8.853
 7815POPC   C1A37263   2.778  24.448   8.553
 7815POPC   D2A37264   2.792  24.516   8.253
 7815POPC   C3A37265   2.724  24.465   7.953
 7815POPC   C4A37266   2.806  24.504   7.653
 7815POPC   C1B37267   2.648  24.748   8.553
 7815POPC   C2B37268   2.719  24.746   8.253
 7815POPC   C3B37269   2.729  24.726   7.953
 7815POPC   C4B37270   2.671  24.757   7.653
 7816POPC   NC337271  29.170  16.771   9.453
 7816POPC   PO437272  29.116  16.724   9.153
 7816POPC   GL137273  29.111  16.721   8.853
 7816POPC   GL237274  29.014  16.826   8.853
 7816POPC   C1A37275  29.129  16.739   8.553
 7816POPC   D2A37276  29.154  16.755   8.253
 7816POPC   C3A37277  29.182  16.704   7.953
 7816POPC   C4A37278  29.163  16.768   7.653
 7816POPC   C1B37279  28.989  16.862   8.553
 7816POPC   C2B37280  28.975  16.859   8.253
 7816POPC   C3B37281  28.968  16.879   7.953
 7816POPC   C4B37282  28.957  16.921   7.653
 7817POPC   NC337283  15.938  43.873   9.453
 7817POPC   PO437284  15.997  43.933   9.153
 7817POPC   GL137285  15.981  43.857   8.853
 7817POPC   GL237286  16.067  43.785   8.853
 7817POPC   C1A37287  15.965  43.875   8.553
 7817POPC   D2A37288  15.964  43.840   8.253
 7817POPC   C3A37289  15.986  43.922   7.953
 7817POPC   C4A37290  15.909  43.908   7.653
 7817POPC   C1B37291  16.131  43.652   8.553
 7817POPC   C2B37292  16.160  43.678   8.253
 7817POPC   C3B37293  16.075  43.718   7.953
 7817POPC   C4B37294  16.144  43.680   7.653
 7818POPC   NC337295   1.262  32.225   9.453
 7818POPC   PO437296   1.232  32.280   9.153
 7818POPC   GL137297   1.197  32.225   8.853
 7818POPC   GL237298   1.384  32.232   8.853
 7818POPC   C1A37299   1.187  32.222   8.553
 7818POPC   D2A37300   1.214  32.244   8.253
 7818POPC   C3A37301   1.198  32.209   7.953
 7818POPC   C4A37302   1.219  32.279   7.653
 7818POPC   C1B37303   1.495  32.263   8.553
 7818POPC   C2B37304   1.489  32.212   8.253
 7818POPC   C3B37305   1.467  32.272   7.953
 7818POPC   C4B37306   1.513  32.249   7.653
 7819POPC   NC337307  43.902  19.095   9.453
 7819POPC   PO437308  43.934  19.062   9.153
 7819POPC   GL137309  43.924  19.051   8.853
 7819POPC   GL237310  43.848  18.974   8.853
 7819POPC   C1A37311  43.863  19.067   8.553
 7819POPC   D2A37312  43.882  19.102   8.253
 7819POPC   C3A37313  43.900  19.065   7.953
 7819POPC   C4A37314  43.844  19.057   7.653
 7819POPC   C1B37315  43.703  18.915   8.553
 7819POPC   C2B37316  43.707  18.889   8.253
 7819POPC   C3B37317  43.712  18.840   7.953
 7819POPC   C4B37318  43.711  18.841   7.653
 7820POPC   NC337319  19.023  27.622   9.453
 7820POPC   PO437320  19.087  27.642   9.153
 7820POPC   GL137321  19.049  27.625   8.853
 7820POPC   GL237322  19.199  27.492   8.853
 7820POPC   C1A37323  19.022  27.606   8.553
 7820POPC   D2A37324  19.011  27.627   8.253
 7820POPC   C3A37325  19.046  27.560   7.953
 7820POPC   C4A37326  19.059  27.583   7.653
 7820POPC   C1B37327  19.220  27.411   8.553
 7820POPC   C2B37328  19.240  27.394   8.253
 7820POPC   C3B37329  19.287  27.432   7.953
 7820POPC   C4B37330  19.262  27.412   7.653
 7821POPC   NC337331  20.625  33.005   9.453
 7821POPC   PO437332  20.597  33.067   9.153
 7821POPC   GL137333  20.633  33.056   8.853
 7821POPC   GL237334  20.646  32.893   8.853
 7821POPC   C1A37335  20.646  33.063   8.553
 7821POPC   D2A37336  20.624  33.058   8.253
 7821POPC   C3A37337  20.651  33.050   7.953
 7821POPC   C4A37338  20.653  33.008   7.653
 7821POPC   C1B37339  20.588  32.813   8.553
 7821POPC   C2B37340  20.581  32.808   8.253
 7821POPC   C3B37341  20.591  32.808   7.953
 7821POPC   C4B37342  20.643  32.816   7.653
 7822POPC   NC337343  17.540  31.496   9.453
 7822POPC   PO437344  17.462  31.441   9.153
 7822POPC   GL137345  17.476  31.507   8.853
 7822POPC   GL237346  17.391  31.426   8.853
 7822POPC   C1A37347  17.539  31.486   8.553
 7822POPC   D2A37348  17.518  31.425   8.253
 7822POPC   C3A37349  17.532  31.497   7.953
 7822POPC   C4A37350  17.493  31.459   7.653
 7822POPC   C1B37351  17.237  31.429   8.553
 7822POPC   C2B37352  17.216  31.432   8.253
 7822POPC   C3B37353  17.258  31.444   7.953
 7822POPC   C4B37354  17.287  31.436   7.653
 7823POPC   NC337355  26.061  29.962   9.453
 7823POPC   PO437356  26.076  29.933   9.153
 7823POPC   GL137357  26.003  29.937   8.853
 7823POPC   GL237358  26.059  29.775   8.853
 7823POPC   C1A37359  26.078  29.924   8.553
 7823POPC   D2A37360  26.064  29.924   8.253
 7823POPC   C3A37361  26.011  29.955   7.953
 7823POPC   C4A37362  26.056  29.898   7.653
 7823POPC   C1B37363  26.128  29.706   8.553
 7823POPC   C2B37364  26.139  29.735   8.253
 7823POPC   C3B37365  26.169  29.664   7.953
 7823POPC   C4B37366  26.197  29.713   7.653
 7824POPC   NC337367  34.614  41.563   9.453
 7824POPC   PO437368  34.539  41.521   9.153
 7824POPC   GL137369  34.569  41.597   8.853
 7824POPC   GL237370  34.486  41.422   8.853
 7824POPC   C1A37371  34.534  41.516   8.553
 7824POPC   D2A37372  34.533  41.529   8.253
 7824POPC   C3A37373  34.603  41.525   7.953
 7824POPC   C4A37374  34.560  41.555   7.653
 7824POPC   C1B37375  34.473  41.384   8.553
 7824POPC   C2B37376  34.434  41.318   8.253
 7824POPC   C3B37377  34.424  41.371   7.953
 7824POPC   C4B37378  34.482  41.384   7.653
 7825POPC   NC337379   2.788  39.218   9.453
 7825POPC   PO437380   2.808  39.233   9.153
 7825POPC   GL137381   2.791  39.264   8.853
 7825POPC   GL237382   2.929  39.209   8.853
 7825POPC   C1A37383   2.774  39.208   8.553
 7825POPC   D2A37384   2.783  39.183   8.253
 7825POPC   C3A37385   2.800  39.195   7.953
 7825POPC   C4A37386   2.754  39.189   7.653
 7825POPC   C1B37387   2.974  39.229   8.553
 7825POPC   C2B37388   3.010  39.192   8.253
 7825POPC   C3B37389   3.056  39.224   7.953
 7825POPC   C4B37390   3.002  39.136   7.653
 7826POPC   NC337391  17.487  41.573   9.453
 7826POPC   PO437392  17.503  41.520   9.153
 7826POPC   GL137393  17.556  41.585   8.853
 7826POPC   GL237394  17.427  41.520   8.853
 7826POPC   C1A37395  17.475  41.557   8.553
 7826POPC   D2A37396  17.504  41.521   8.253
 7826POPC   C3A37397  17.546  41.514   7.953
 7826POPC   C4A37398  17.534  41.582   7.653
 7826POPC   C1B37399  17.293  41.364   8.553
 7826POPC   C2B37400  17.268  41.372   8.253
 7826POPC   C3B37401  17.297  41.416   7.953
 7826POPC   C4B37402  17.321  41.432   7.653
 7827POPC   NC337403  43.912   2.030   9.453
 7827POPC   PO437404  43.877   2.034   9.153
 7827POPC   GL137405  43.843   1.941   8.853
 7827POPC   GL237406  43.884   1.873   8.853
 7827POPC   C1A37407  43.913   2.018   8.553
 7827POPC   D2A37408  43.841   1.980   8.253
 7827POPC   C3A37409  43.868   1.984   7.953
 7827POPC   C4A37410  43.904   1.971   7.653
 7827POPC   C1B37411  43.812   1.756   8.553
 7827POPC   C2B37412  43.768   1.737   8.253
 7827POPC   C3B37413  43.821   1.803   7.953
 7827POPC   C4B37414  43.754   1.809   7.653
 7828POPC   NC337415  12.898  29.956   9.453
 7828POPC   PO437416  12.858  29.952   9.153
 7828POPC   GL137417  12.864  29.885   8.853
 7828POPC   GL237418  12.734  29.948   8.853
 7828POPC   C1A37419  12.826  29.933   8.553
 7828POPC   D2A37420  12.833  29.965   8.253
 7828POPC   C3A37421  12.838  29.915   7.953
 7828POPC   C4A37422  12.881  29.970   7.653
 7828POPC   C1B37423  12.664  29.958   8.553
 7828POPC   C2B37424  12.621  30.015   8.253
 7828POPC   C3B37425  12.570  29.966   7.953
 7828POPC   C4B37426  12.583  30.015   7.653
 7829POPC   NC337427  37.718  36.157   9.453
 7829POPC   PO437428  37.719  36.146   9.153
 7829POPC   GL137429  37.720  36.097   8.853
 7829POPC   GL237430  37.524  36.202   8.853
 7829POPC   C1A37431  37.673  36.162   8.553
 7829POPC   D2A37432  37.663  36.162   8.253
 7829POPC   C3A37433  37.634  36.084   7.953
 7829POPC   C4A37434  37.670  36.138   7.653
 7829POPC   C1B37435  37.445  36.267   8.553
 7829POPC   C2B37436  37.454  36.241   8.253
 7829POPC   C3B37437  37.485  36.251   7.953
 7829POPC   C4B37438  37.452  36.221   7.653
 7830POPC   NC337439  41.541  36.081   9.453
 7830POPC   PO437440  41.592  36.119   9.153
 7830POPC   GL137441  41.587  36.086   8.853
 7830POPC   GL237442  41.437  36.164   8.853
 7830POPC   C1A37443  41.578  36.128   8.553
 7830POPC   D2A37444  41.575  36.149   8.253
 7830POPC   C3A37445  41.526  36.175   7.953
 7830POPC   C4A37446  41.587  36.090   7.653
 7830POPC   C1B37447  41.351  36.111   8.553
 7830POPC   C2B37448  41.280  36.169   8.253
 7830POPC   C3B37449  41.295  36.191   7.953
 7830POPC   C4B37450  41.262  36.111   7.653
 7831POPC   NC337451  39.249   0.469   9.453
 7831POPC   PO437452  39.218   0.390   9.153
 7831POPC   GL137453  39.249   0.430   8.853
 7831POPC   GL237454  39.389   0.501   8.853
 7831POPC   C1A37455  39.209   0.448   8.553
 7831POPC   D2A37456  39.188   0.443   8.253
 7831POPC   C3A37457  39.188   0.406   7.953
 7831POPC   C4A37458  39.253   0.451   7.653
 7831POPC   C1B37459  39.476   0.436   8.553
 7831POPC   C2B37460  39.427   0.452   8.253
 7831POPC   C3B37461  39.526   0.462   7.953
 7831POPC   C4B37462  39.507   0.467   7.653
 7832POPC   NC337463  41.515  19.050   9.453
 7832POPC   PO437464  41.582  19.017   9.153
 7832POPC   GL137465  41.599  19.101   8.853
 7832POPC   GL237466  41.565  19.225   8.853
 7832POPC   C1A37467  41.520  19.043   8.553
 7832POPC   D2A37468  41.545  19.032   8.253
 7832POPC   C3A37469  41.524  19.103   7.953
 7832POPC   C4A37470  41.512  19.070   7.653
 7832POPC   C1B37471  41.532  19.290   8.553
 7832POPC   C2B37472  41.540  19.332   8.253
 7832POPC   C3B37473  41.593  19.301   7.953
 7832POPC   C4B37474  41.546  19.308   7.653
 7833POPC   NC337475  43.126  15.947   9.453
 7833POPC   PO437476  43.138  15.933   9.153
 7833POPC   GL137477  43.118  15.942   8.853
 7833POPC   GL237478  43.167  15.882   8.853
 7833POPC   C1A37479  43.079  15.987   8.553
 7833POPC   D2A37480  43.131  15.941   8.253
 7833POPC   C3A37481  43.153  15.978   7.953
 7833POPC   C4A37482  43.072  15.939   7.653
 7833POPC   C1B37483  43.194  15.751   8.553
 7833POPC   C2B37484  43.191  15.729   8.253
 7833POPC   C3B37485  43.199  15.666   7.953
 7833POPC   C4B37486  43.118  15.671   7.653
 7834POPC   NC337487   4.319  15.135   9.453
 7834POPC   PO437488   4.295  15.155   9.153
 7834POPC   GL137489   4.270  15.168   8.853
 7834POPC   GL237490   4.454  15.263   8.853
 7834POPC   C1A37491   4.363  15.166   8.553
 7834POPC   D2A37492   4.340  15.176   8.253
 7834POPC   C3A37493   4.358  15.165   7.953
 7834POPC   C4A37494   4.309  15.228   7.653
 7834POPC   C1B37495   4.572  15.295   8.553
 7834POPC   C2B37496   4.577  15.267   8.253
 7834POPC   C3B37497   4.557  15.278   7.953
 7834POPC   C4B37498   4.569  15.217   7.653
 7835POPC   NC337499  16.747  36.103   9.453
 7835POPC   PO437500  16.743  36.173   9.153
 7835POPC   GL137501  16.780  36.164   8.853
 7835POPC   GL237502  16.631  36.274   8.853
 7835POPC   C1A37503  16.778  36.085   8.553
 7835POPC   D2A37504  16.763  36.112   8.253
 7835POPC   C3A37505  16.765  36.111   7.953
 7835POPC   C4A37506  16.745  36.109   7.653
 7835POPC   C1B37507  16.575  36.289   8.553
 7835POPC   C2B37508  16.539  36.300   8.253
 7835POPC   C3B37509  16.607  36.327   7.953
 7835POPC   C4B37510  16.538  36.329   7.653
 7836POPC   NC337511  43.069  20.652   9.453
 7836POPC   PO437512  43.082  20.612   9.153
 7836POPC   GL137513  43.142  20.563   8.853
 7836POPC   GL237514  43.135  20.541   8.853
 7836POPC   C1A37515  43.090  20.643   8.553
 7836POPC   D2A37516  43.146  20.631   8.253
 7836POPC   C3A37517  43.096  20.594   7.953
 7836POPC   C4A37518  43.069  20.651   7.653
 7836POPC   C1B37519  43.219  20.343   8.553
 7836POPC   C2B37520  43.222  20.345   8.253
 7836POPC   C3B37521  43.152  20.389   7.953
 7836POPC   C4B37522  43.224  20.365   7.653
 7837POPC   NC337523  17.525  24.531   9.453
 7837POPC   PO437524  17.513  24.486   9.153
 7837POPC   GL137525  17.543  24.488   8.853
 7837POPC   GL237526  17.496  24.380   8.853
 7837POPC   C1A37527  17.522  24.440   8.553
 7837POPC   D2A37528  17.544  24.524   8.253
 7837POPC   C3A37529  17.549  24.448   7.953
 7837POPC   C4A37530  17.507  24.509   7.653
 7837POPC   C1B37531  17.361  24.249   8.553
 7837POPC   C2B37532  17.420  24.230   8.253
 7837POPC   C3B37533  17.415  24.298   7.953
 7837POPC   C4B37534  17.381  24.267   7.653
 7838POPC   NC337535  30.669  43.074   9.453
 7838POPC   PO437536  30.708  43.155   9.153
 7838POPC   GL137537  30.688  43.065   8.853
 7838POPC   GL237538  30.616  43.108   8.853
 7838POPC   C1A37539  30.740  43.066   8.553
 7838POPC   D2A37540  30.711  43.138   8.253
 7838POPC   C3A37541  30.695  43.099   7.953
 7838POPC   C4A37542  30.683  43.103   7.653
 7838POPC   C1B37543  30.473  43.038   8.553
 7838POPC   C2B37544  30.465  43.125   8.253
 7838POPC   C3B37545  30.421  43.051   7.953
 7838POPC   C4B37546  30.402  43.075   7.653
 7839POPC   NC337547  12.044  14.396   9.453
 7839POPC   PO437548  12.088  14.382   9.153
 7839POPC   GL137549  12.052  14.424   8.853
 7839POPC   GL237550  11.922  14.370   8.853
 7839POPC   C1A37551  12.029  14.383   8.553
 7839POPC   D2A37552  12.066  14.374   8.253
 7839POPC   C3A37553  12.031  14.406   7.953
 7839POPC   C4A37554  12.047  14.400   7.653
 7839POPC   C1B37555  11.855  14.455   8.553
 7839POPC   C2B37556  11.783  14.453   8.253
 7839POPC   C3B37557  11.791  14.391   7.953
 7839POPC   C4B37558  11.856  14.455   7.653
 7840POPC   NC337559   5.874  21.430   9.453
 7840POPC   PO437560   5.840  21.356   9.153
 7840POPC   GL137561   5.901  21.354   8.853
 7840POPC   GL237562   5.739  21.475   8.853
 7840POPC   C1A37563   5.826  21.378   8.553
 7840POPC   D2A37564   5.914  21.436   8.253
 7840POPC   C3A37565   5.872  21.369   7.953
 7840POPC   C4A37566   5.827  21.383   7.653
 7840POPC   C1B37567   5.691  21.584   8.553
 7840POPC   C2B37568   5.718  21.564   8.253
 7840POPC   C3B37569   5.662  21.561   7.953
 7840POPC   C4B37570   5.641  21.518   7.653
 7841POPC   NC337571  43.099  35.349   9.453
 7841POPC   PO437572  43.131  35.319   9.153
 7841POPC   GL137573  43.120  35.337   8.853
 7841POPC   GL237574  42.954  35.446   8.853
 7841POPC   C1A37575  43.093  35.307   8.553
 7841POPC   D2A37576  43.087  35.361   8.253
 7841POPC   C3A37577  43.089  35.352   7.953
 7841POPC   C4A37578  43.072  35.373   7.653
 7841POPC   C1B37579  42.858  35.504   8.553
 7841POPC   C2B37580  42.837  35.442   8.253
 7841POPC   C3B37581  42.848  35.469   7.953
 7841POPC   C4B37582  42.866  35.481   7.653
 7842POPC   NC337583  39.998  17.547   9.453
 7842POPC   PO437584  39.987  17.509   9.153
 7842POPC   GL137585  39.967  17.518   8.853
 7842POPC   GL237586  40.132  17.623   8.853
 7842POPC   C1A37587  40.050  17.489   8.553
 7842POPC   D2A37588  39.981  17.466   8.253
 7842POPC   C3A37589  39.980  17.497   7.953
 7842POPC   C4A37590  39.981  17.461   7.653
 7842POPC   C1B37591  40.158  17.638   8.553
 7842POPC   C2B37592  40.157  17.720   8.253
 7842POPC   C3B37593  40.154  17.648   7.953
 7842POPC   C4B37594  40.183  17.639   7.653
 7843POPC   NC337595  26.063  12.881   9.453
 7843POPC   PO437596  26.085  12.813   9.153
 7843POPC   GL137597  26.010  12.895   8.853
 7843POPC   GL237598  26.124  12.781   8.853
 7843POPC   C1A37599  26.001  12.901   8.553
 7843POPC   D2A37600  26.043  12.858   8.253
 7843POPC   C3A37601  26.065  12.885   7.953
 7843POPC   C4A37602  26.036  12.826   7.653
 7843POPC   C1B37603  26.226  12.741   8.553
 7843POPC   C2B37604  26.215  12.781   8.253
 7843POPC   C3B37605  26.271  12.763   7.953
 7843POPC   C4B37606  26.250  12.698   7.653
 7844POPC   NC337607   9.749  14.428   9.453
 7844POPC   PO437608   9.768  14.402   9.153
 7844POPC   GL137609   9.755  14.396   8.853
 7844POPC   GL237610   9.811  14.315   8.853
 7844POPC   C1A37611   9.782  14.439   8.553
 7844POPC   D2A37612   9.759  14.396   8.253
 7844POPC   C3A37613   9.787  14.365   7.953
 7844POPC   C4A37614   9.731  14.383   7.653
 7844POPC   C1B37615   9.869  14.211   8.553
 7844POPC   C2B37616   9.896  14.170   8.253
 7844POPC   C3B37617   9.865  14.235   7.953
 7844POPC   C4B37618   9.894  14.230   7.653
 7845POPC   NC337619  19.850  11.346   9.453
 7845POPC   PO437620  19.871  11.343   9.153
 7845POPC   GL137621  19.815  11.322   8.853
 7845POPC   GL237622  19.685  11.350   8.853
 7845POPC   C1A37623  19.846  11.259   8.553
 7845POPC   D2A37624  19.849  11.315   8.253
 7845POPC   C3A37625  19.823  11.307   7.953
 7845POPC   C4A37626  19.873  11.322   7.653
 7845POPC   C1B37627  19.618  11.403   8.553
 7845POPC   C2B37628  19.594  11.396   8.253
 7845POPC   C3B37629  19.590  11.371   7.953
 7845POPC   C4B37630  19.609  11.408   7.653
 7846POPC   NC337631  19.065   3.580   9.453
 7846POPC   PO437632  19.027   3.534   9.153
 7846POPC   GL137633  19.093   3.498   8.853
 7846POPC   GL237634  18.973   3.589   8.853
 7846POPC   C1A37635  19.074   3.497   8.553
 7846POPC   D2A37636  19.020   3.544   8.253
 7846POPC   C3A37637  19.051   3.574   7.953
 7846POPC   C4A37638  19.095   3.526   7.653
 7846POPC   C1B37639  18.772   3.528   8.553
 7846POPC   C2B37640  18.799   3.544   8.253
 7846POPC   C3B37641  18.806   3.544   7.953
 7846POPC   C4B37642  18.847   3.519   7.653
 7847POPC   NC337643  28.388  14.446   9.453
 7847POPC   PO437644  28.351  14.359   9.153
 7847POPC   GL137645  28.402  14.450   8.853
 7847POPC   GL237646  28.452  14.326   8.853
 7847POPC   C1A37647  28.333  14.399   8.553
 7847POPC   D2A37648  28.417  14.410   8.253
 7847POPC   C3A37649  28.352  14.375   7.953
 7847POPC   C4A37650  28.382  14.441   7.653
 7847POPC   C1B37651  28.559  14.213   8.553
 7847POPC   C2B37652  28.512  14.223   8.253
 7847POPC   C3B37653  28.550  14.246   7.953
 7847POPC   C4B37654  28.589  14.272   7.653
 7848POPC   NC337655  29.164  40.758   9.453
 7848POPC   PO437656  29.100  40.820   9.153
 7848POPC   GL137657  29.097  40.818   8.853
 7848POPC   GL237658  29.205  40.683   8.853
 7848POPC   C1A37659  29.095  40.753   8.553
 7848POPC   D2A37660  29.106  40.824   8.253
 7848POPC   C3A37661  29.112  40.789   7.953
 7848POPC   C4A37662  29.136  40.802   7.653
 7848POPC   C1B37663  29.290  40.595   8.553
 7848POPC   C2B37664  29.309  40.587   8.253
 7848POPC   C3B37665  29.279  40.568   7.953
 7848POPC   C4B37666  29.326  40.593   7.653
 7849POPC   NC337667  30.728   8.197   9.453
 7849POPC   PO437668  30.682   8.199   9.153
 7849POPC   GL137669  30.722   8.194   8.853
 7849POPC   GL237670  30.796   8.122   8.853
 7849POPC   C1A37671  30.655   8.236   8.553
 7849POPC   D2A37672  30.686   8.189   8.253
 7849POPC   C3A37673  30.710   8.204   7.953
 7849POPC   C4A37674  30.719   8.233   7.653
 7849POPC   C1B37675  30.965   8.103   8.553
 7849POPC   C2B37676  30.937   8.157   8.253
 7849POPC   C3B37677  30.931   8.092   7.953
 7849POPC   C4B37678  30.970   8.083   7.653
 7850POPC   NC337679  32.264  44.677   9.453
 7850POPC   PO437680  32.243  44.703   9.153
 7850POPC   GL137681  32.255  44.661   8.853
 7850POPC   GL237682  32.205  44.814   8.853
 7850POPC   C1A37683  32.214  44.666   8.553
 7850POPC   D2A37684  32.283  44.698   8.253
 7850POPC   C3A37685  32.235  44.626   7.953
 7850POPC   C4A37686  32.259  44.649   7.653
 7850POPC   C1B37687  32.147  44.852   8.553
 7850POPC   C2B37688  32.143  44.906   8.253
 7850POPC   C3B37689  32.108  44.898   7.953
 7850POPC   C4B37690  32.101  44.897   7.653
 7851POPC   NC337691  43.860   3.519   9.453
 7851POPC   PO437692  43.894   3.512   9.153
 7851POPC   GL137693  43.903   3.525   8.853
 7851POPC   GL237694  43.825   3.601   8.853
 7851POPC   C1A37695  43.840   3.524   8.553
 7851POPC   D2A37696  43.902   3.506   8.253
 7851POPC   C3A37697  43.889   3.509   7.953
 7851POPC   C4A37698  43.935   3.520   7.653
 7851POPC   C1B37699  43.656   3.658   8.553
 7851POPC   C2B37700  43.712   3.645   8.253
 7851POPC   C3B37701  43.632   3.655   7.953
 7851POPC   C4B37702  43.629   3.662   7.653
 7852POPC   NC337703   8.988  36.169   9.453
 7852POPC   PO437704   8.992  36.110   9.153
 7852POPC   GL137705   8.963  36.120   8.853
 7852POPC   GL237706   8.890  36.244   8.853
 7852POPC   C1A37707   8.969  36.147   8.553
 7852POPC   D2A37708   8.940  36.096   8.253
 7852POPC   C3A37709   8.946  36.093   7.953
 7852POPC   C4A37710   8.974  36.135   7.653
 7852POPC   C1B37711   8.896  36.369   8.553
 7852POPC   C2B37712   8.858  36.316   8.253
 7852POPC   C3B37713   8.843  36.350   7.953
 7852POPC   C4B37714   8.892  36.382   7.653
 7853POPC   NC337715  37.721  22.138   9.453
 7853POPC   PO437716  37.646  22.154   9.153
 7853POPC   GL137717  37.710  22.129   8.853
 7853POPC   GL237718  37.543  22.117   8.853
 7853POPC   C1A37719  37.700  22.162   8.553
 7853POPC   D2A37720  37.656  22.195   8.253
 7853POPC   C3A37721  37.693  22.212   7.953
 7853POPC   C4A37722  37.694  22.114   7.653
 7853POPC   C1B37723  37.429  22.115   8.553
 7853POPC   C2B37724  37.405  22.094   8.253
 7853POPC   C3B37725  37.423  22.160   7.953
 7853POPC   C4B37726  37.415  22.130   7.653
 7854POPC   NC337727  44.696  35.331   9.453
 7854POPC   PO437728  44.647  35.366   9.153
 7854POPC   GL137729  44.688  35.341   8.853
 7854POPC   GL237730  44.544  35.310   8.853
 7854POPC   C1A37731  44.643  35.379   8.553
 7854POPC   D2A37732  44.672  35.390   8.253
 7854POPC   C3A37733  44.654  35.350   7.953
 7854POPC   C4A37734  44.618  35.333   7.653
 7854POPC   C1B37735  44.512  35.137   8.553
 7854POPC   C2B37736  44.456  35.171   8.253
 7854POPC   C3B37737  44.512  35.221   7.953
 7854POPC   C4B37738  44.501  35.211   7.653
 7855POPC   NC337739  37.675  34.546   9.453
 7855POPC   PO437740  37.681  34.606   9.153
 7855POPC   GL137741  37.634  34.598   8.853
 7855POPC   GL237742  37.730  34.447   8.853
 7855POPC   C1A37743  37.718  34.540   8.553
 7855POPC   D2A37744  37.681  34.617   8.253
 7855POPC   C3A37745  37.701  34.593   7.953
 7855POPC   C4A37746  37.634  34.568   7.653
 7855POPC   C1B37747  37.831  34.355   8.553
 7855POPC   C2B37748  37.768  34.351   8.253
 7855POPC   C3B37749  37.821  34.388   7.953
 7855POPC   C4B37750  37.772  34.356   7.653
 7856POPC   NC337751  23.749  21.378   9.453
 7856POPC   PO437752  23.751  21.359   9.153
 7856POPC   GL137753  23.763  21.351   8.853
 7856POPC   GL237754  23.567  21.378   8.853
 7856POPC   C1A37755  23.684  21.377   8.553
 7856POPC   D2A37756  23.670  21.421   8.253
 7856POPC   C3A37757  23.722  21.394   7.953
 7856POPC   C4A37758  23.692  21.365   7.653
 7856POPC   C1B37759  23.506  21.319   8.553
 7856POPC   C2B37760  23.449  21.398   8.253
 7856POPC   C3B37761  23.500  21.343   7.953
 7856POPC   C4B37762  23.446  21.323   7.653
 7857POPC   NC337763  26.858  10.507   9.453
 7857POPC   PO437764  26.857  10.540   9.153
 7857POPC   GL137765  26.778  10.527   8.853
 7857POPC   GL237766  26.740  10.439   8.853
 7857POPC   C1A37767  26.782  10.486   8.553
 7857POPC   D2A37768  26.829  10.560   8.253
 7857POPC   C3A37769  26.839  10.477   7.953
 7857POPC   C4A37770  26.778  10.535   7.653
 7857POPC   C1B37771  26.615  10.411   8.553
 7857POPC   C2B37772  26.577  10.430   8.253
 7857POPC   C3B37773  26.578  10.385   7.953
 7857POPC   C4B37774  26.570  10.349   7.653
 7858POPC   NC337775  25.275  17.465   9.453
 7858POPC   PO437776  25.279  17.531   9.153
 7858POPC   GL137777  25.298  17.522   8.853
 7858POPC   GL237778  25.166  17.405   8.853
 7858POPC   C1A37779  25.245  17.481   8.553
 7858POPC   D2A37780  25.249  17.504   8.253
 7858POPC   C3A37781  25.264  17.551   7.953
 7858POPC   C4A37782  25.263  17.514   7.653
 7858POPC   C1B37783  25.178  17.299   8.553
 7858POPC   C2B37784  25.125  17.253   8.253
 7858POPC   C3B37785  25.164  17.282   7.953
 7858POPC   C4B37786  25.202  17.312   7.653
 7859POPC   NC337787  21.424  25.276   9.453
 7859POPC   PO437788  21.414  25.247   9.153
 7859POPC   GL137789  21.373  25.282   8.853
 7859POPC   GL237790  21.474  25.134   8.853
 7859POPC   C1A37791  21.344  25.302   8.553
 7859POPC   D2A37792  21.402  25.269   8.253
 7859POPC   C3A37793  21.345  25.283   7.953
 7859POPC   C4A37794  21.397  25.294   7.653
 7859POPC   C1B37795  21.592  25.066   8.553
 7859POPC   C2B37796  21.545  25.079   8.253
 7859POPC   C3B37797  21.544  25.097   7.953
 7859POPC   C4B37798  21.544  25.040   7.653
 7860POPC   NC337799   3.585  36.093   9.453
 7860POPC   PO437800   3.527  36.079   9.153
 7860POPC   GL137801   3.564  36.135   8.853
 7860POPC   GL237802   3.549  35.987   8.853
 7860POPC   C1A37803   3.516  36.094   8.553
 7860POPC   D2A37804   3.559  36.145   8.253
 7860POPC   C3A37805   3.580  36.089   7.953
 7860POPC   C4A37806   3.540  36.097   7.653
 7860POPC   C1B37807   3.499  35.901   8.553
 7860POPC   C2B37808   3.484  35.849   8.253
 7860POPC   C3B37809   3.456  35.890   7.953
 7860POPC   C4B37810   3.437  35.864   7.653
 7861POPC   NC337811   6.648  18.321   9.453
 7861POPC   PO437812   6.618  18.289   9.153
 7861POPC   GL137813   6.679  18.270   8.853
 7861POPC   GL237814   6.609  18.138   8.853
 7861POPC   C1A37815   6.599  18.319   8.553
 7861POPC   D2A37816   6.615  18.278   8.253
 7861POPC   C3A37817   6.684  18.325   7.953
 7861POPC   C4A37818   6.653  18.316   7.653
 7861POPC   C1B37819   6.701  17.998   8.553
 7861POPC   C2B37820   6.701  18.010   8.253
 7861POPC   C3B37821   6.654  17.984   7.953
 7861POPC   C4B37822   6.636  17.995   7.653
 7862POPC   NC337823  33.007  39.214   9.453
 7862POPC   PO437824  33.022  39.241   9.153
 7862POPC   GL137825  33.041  39.196   8.853
 7862POPC   GL237826  32.936  39.236   8.853
 7862POPC   C1A37827  32.995  39.193   8.553
 7862POPC   D2A37828  33.030  39.278   8.253
 7862POPC   C3A37829  33.030  39.251   7.953
 7862POPC   C4A37830  33.047  39.279   7.653
 7862POPC   C1B37831  32.818  39.235   8.553
 7862POPC   C2B37832  32.748  39.156   8.253
 7862POPC   C3B37833  32.768  39.157   7.953
 7862POPC   C4B37834  32.745  39.233   7.653
 7863POPC   NC337835  40.024   7.424   9.453
 7863POPC   PO437836  40.052   7.380   9.153
 7863POPC   GL137837  40.050   7.469   8.853
 7863POPC   GL237838  39.861   7.450   8.853
 7863POPC   C1A37839  40.012   7.406   8.553
 7863POPC   D2A37840  40.046   7.413   8.253
 7863POPC   C3A37841  40.022   7.396   7.953
 7863POPC   C4A37842  39.968   7.460   7.653
 7863POPC   C1B37843  39.739   7.432   8.553
 7863POPC   C2B37844  39.745   7.382   8.253
 7863POPC   C3B37845  39.759   7.457   7.953
 7863POPC   C4B37846  39.752   7.426   7.653
 7864POPC   NC337847   0.468  33.838   9.453
 7864POPC   PO437848   0.476  33.796   9.153
 7864POPC   GL137849   0.393  33.750   8.853
 7864POPC   GL237850   0.402  33.660   8.853
 7864POPC   C1A37851   0.406  33.779   8.553
 7864POPC   D2A37852   0.473  33.806   8.253
 7864POPC   C3A37853   0.416  33.817   7.953
 7864POPC   C4A37854   0.433  33.801   7.653
 7864POPC   C1B37855   0.389  33.534   8.553
 7864POPC   C2B37856   0.342  33.511   8.253
 7864POPC   C3B37857   0.362  33.532   7.953
 7864POPC   C4B37858   0.357  33.586   7.653
 7865POPC   NC337859  40.056  24.491   9.453
 7865POPC   PO437860  40.050  24.496   9.153
 7865POPC   GL137861  40.054  24.458   8.853
 7865POPC   GL237862  39.902  24.615   8.853
 7865POPC   C1A37863  40.014  24.484   8.553
 7865POPC   D2A37864  40.007  24.473   8.253
 7865POPC   C3A37865  40.003  24.520   7.953
 7865POPC   C4A37866  40.040  24.465   7.653
 7865POPC   C1B37867  39.897  24.706   8.553
 7865POPC   C2B37868  39.826  24.657   8.253
 7865POPC   C3B37869  39.889  24.691   7.953
 7865POPC   C4B37870  39.844  24.657   7.653
 7866POPC   NC337871   4.314  17.538   9.453
 7866POPC   PO437872   4.301  17.506   9.153
 7866POPC   GL137873   4.279  17.470   8.853
 7866POPC   GL237874   4.353  17.363   8.853
 7866POPC   C1A37875   4.275  17.522   8.553
 7866POPC   D2A37876   4.295  17.504   8.253
 7866POPC   C3A37877   4.338  17.502   7.953
 7866POPC   C4A37878   4.314  17.548   7.653
 7866POPC   C1B37879   4.504  17.323   8.553
 7866POPC   C2B37880   4.508  17.305   8.253
 7866POPC   C3B37881   4.476  17.309   7.953
 7866POPC   C4B37882   4.480  17.309   7.653
 7867POPC   NC337883  38.466  25.218   9.453
 7867POPC   PO437884  38.458  25.265   9.153
 7867POPC   GL137885  38.493  25.275   8.853
 7867POPC   GL237886  38.333  25.239   8.853
 7867POPC   C1A37887  38.445  25.251   8.553
 7867POPC   D2A37888  38.436  25.300   8.253
 7867POPC   C3A37889  38.471  25.315   7.953
 7867POPC   C4A37890  38.411  25.286   7.653
 7867POPC   C1B37891  38.194  25.256   8.553
 7867POPC   C2B37892  38.231  25.262   8.253
 7867POPC   C3B37893  38.213  25.224   7.953
 7867POPC   C4B37894  38.201  25.243   7.653
 7868POPC   NC337895  32.234   8.949   9.453
 7868POPC   PO437896  32.267   8.974   9.153
 7868POPC   GL137897  32.208   8.977   8.853
 7868POPC   GL237898  32.281   9.113   8.853
 7868POPC   C1A37899  32.229   9.014   8.553
 7868POPC   D2A37900  32.240   8.994   8.253
 7868POPC   C3A37901  32.226   8.937   7.953
 7868POPC   C4A37902  32.293   9.008   7.653
 7868POPC   C1B37903  32.334   9.189   8.553
 7868POPC   C2B37904  32.345   9.166   8.253
 7868POPC   C3B37905  32.275   9.187   7.953
 7868POPC   C4B37906  32.328   9.199   7.653
 7869POPC   NC337907   8.174   7.390   9.453
 7869POPC   PO437908   8.203   7.445   9.153
 7869POPC   GL137909   8.163   7.470   8.853
 7869POPC   GL237910   8.173   7.554   8.853
 7869POPC   C1A37911   8.157   7.396   8.553
 7869POPC   D2A37912   8.246   7.427   8.253
 7869POPC   C3A37913   8.244   7.384   7.953
 7869POPC   C4A37914   8.198   7.398   7.653
 7869POPC   C1B37915   8.114   7.704   8.553
 7869POPC   C2B37916   8.108   7.651   8.253
 7869POPC   C3B37917   8.103   7.641   7.953
 7869POPC   C4B37918   8.127   7.686   7.653
 7870POPC   NC337919  41.530  27.633   9.453
 7870POPC   PO437920  41.601  27.590   9.153
 7870POPC   GL137921  41.552  27.586   8.853
 7870POPC   GL237922  41.658  27.559   8.853
 7870POPC   C1A37923  41.582  27.635   8.553
 7870POPC   D2A37924  41.542  27.622   8.253
 7870POPC   C3A37925  41.511  27.623   7.953
 7870POPC   C4A37926  41.599  27.587   7.653
 7870POPC   C1B37927  41.791  27.449   8.553
 7870POPC   C2B37928  41.707  27.461   8.253
 7870POPC   C3B37929  41.741  27.474   7.953
 7870POPC   C4B37930  41.794  27.451   7.653
 7871POPC   NC337931  36.156  34.612   9.453
 7871POPC   PO437932  36.114  34.564   9.153
 7871POPC   GL137933  36.133  34.611   8.853
 7871POPC   GL237934  36.131  34.442   8.853
 7871POPC   C1A37935  36.085  34.580   8.553
 7871POPC   D2A37936  36.134  34.592   8.253
 7871POPC   C3A37937  36.121  34.545   7.953
 7871POPC   C4A37938  36.126  34.616   7.653
 7871POPC   C1B37939  36.189  34.376   8.553
 7871POPC   C2B37940  36.169  34.347   8.253
 7871POPC   C3B37941  36.207  34.381   7.953
 7871POPC   C4B37942  36.184  34.350   7.653
 7872POPC   NC337943  22.122  39.272   9.453
 7872POPC   PO437944  22.193  39.244   9.153
 7872POPC   GL137945  22.149  39.212   8.853
 7872POPC   GL237946  22.273  39.266   8.853
 7872POPC   C1A37947  22.120  39.193   8.553
 7872POPC   D2A37948  22.151  39.200   8.253
 7872POPC   C3A37949  22.203  39.245   7.953
 7872POPC   C4A37950  22.160  39.195   7.653
 7872POPC   C1B37951  22.366  39.286   8.553
 7872POPC   C2B37952  22.391  39.300   8.253
 7872POPC   C3B37953  22.393  39.299   7.953
 7872POPC   C4B37954  22.407  39.323   7.653
 7873POPC   NC337955   5.831  20.600   9.453
 7873POPC   PO437956   5.860  20.598   9.153
 7873POPC   GL137957   5.865  20.630   8.853
 7873POPC   GL237958   5.903  20.749   8.853
 7873POPC   C1A37959   5.896  20.655   8.553
 7873POPC   D2A37960   5.856  20.607   8.253
 7873POPC   C3A37961   5.872  20.562   7.953
 7873POPC   C4A37962   5.822  20.565   7.653
 7873POPC   C1B37963   5.889  20.889   8.553
 7873POPC   C2B37964   5.975  20.864   8.253
 7873POPC   C3B37965   5.892  20.839   7.953
 7873POPC   C4B37966   5.966  20.880   7.653
 7874POPC   NC337967  26.077   8.927   9.453
 7874POPC   PO437968  26.030   8.927   9.153
 7874POPC   GL137969  26.016   8.982   8.853
 7874POPC   GL237970  25.976   8.808   8.853
 7874POPC   C1A37971  26.070   9.009   8.553
 7874POPC   D2A37972  26.045   8.998   8.253
 7874POPC   C3A37973  26.077   8.976   7.953
 7874POPC   C4A37974  26.079   9.007   7.653
 7874POPC   C1B37975  25.898   8.697   8.553
 7874POPC   C2B37976  25.934   8.732   8.253
 7874POPC   C3B37977  25.942   8.721   7.953
 7874POPC   C4B37978  25.926   8.709   7.653
 7875POPC   NC337979  33.830  29.877   9.453
 7875POPC   PO437980  33.844  29.943   9.153
 7875POPC   GL137981  33.754  29.893   8.853
 7875POPC   GL237982  33.958  29.907   8.853
 7875POPC   C1A37983  33.775  29.912   8.553
 7875POPC   D2A37984  33.806  29.929   8.253
 7875POPC   C3A37985  33.837  29.933   7.953
 7875POPC   C4A37986  33.791  29.880   7.653
 7875POPC   C1B37987  34.081  29.952   8.553
 7875POPC   C2B37988  34.091  29.960   8.253
 7875POPC   C3B37989  34.045  29.970   7.953
 7875POPC   C4B37990  34.001  29.923   7.653
 7876POPC   NC337991  23.699  41.563   9.453
 7876POPC   PO437992  23.692  41.550   9.153
 7876POPC   GL137993  23.755  41.538   8.853
 7876POPC   GL237994  23.706  41.407   8.853
 7876POPC   C1A37995  23.696  41.607   8.553
 7876POPC   D2A37996  23.745  41.536   8.253
 7876POPC   C3A37997  23.698  41.546   7.953
 7876POPC   C4A37998  23.740  41.539   7.653
 7876POPC   C1B37999  23.698  41.333   8.553
 7876POPC   C2B38000  23.661  41.268   8.253
 7876POPC   C3B38001  23.670  41.300   7.953
 7876POPC   C4B38002  23.702  41.277   7.653
 7877POPC   NC338003  12.064  10.513   9.453
 7877POPC   PO438004  12.096  10.485   9.153
 7877POPC   GL138005  12.053  10.533   8.853
 7877POPC   GL238006  11.968  10.634   8.853
 7877POPC   C1A38007  12.034  10.495   8.553
 7877POPC   D2A38008  12.100  10.570   8.253
 7877POPC   C3A38009  12.093  10.558   7.953
 7877POPC   C4A38010  12.064  10.544   7.653
 7877POPC   C1B38011  11.972  10.677   8.553
 7877POPC   C2B38012  11.877  10.704   8.253
 7877POPC   C3B38013  11.905  10.690   7.953
 7877POPC   C4B38014  11.944  10.688   7.653
 7878POPC   NC338015   3.554   7.433   9.453
 7878POPC   PO438016   3.577   7.411   9.153
 7878POPC   GL138017   3.498   7.427   8.853
 7878POPC   GL238018   3.474   7.511   8.853
 7878POPC   C1A38019   3.536   7.424   8.553
 7878POPC   D2A38020   3.557   7.412   8.253
 7878POPC   C3A38021   3.499   7.425   7.953
 7878POPC   C4A38022   3.493   7.418   7.653
 7878POPC   C1B38023   3.415   7.591   8.553
 7878POPC   C2B38024   3.331   7.563   8.253
 7878POPC   C3B38025   3.399   7.601   7.953
 7878POPC   C4B38026   3.353   7.587   7.653
 7879POPC   NC338027  32.978  36.110   9.453
 7879POPC   PO438028  33.045  36.131   9.153
 7879POPC   GL138029  33.015  36.124   8.853
 7879POPC   GL238030  32.940  36.184   8.853
 7879POPC   C1A38031  33.030  36.149   8.553
 7879POPC   D2A38032  32.985  36.093   8.253
 7879POPC   C3A38033  33.052  36.078   7.953
 7879POPC   C4A38034  33.044  36.167   7.653
 7879POPC   C1B38035  32.742  36.163   8.553
 7879POPC   C2B38036  32.815  36.140   8.253
 7879POPC   C3B38037  32.794  36.125   7.953
 7879POPC   C4B38038  32.761  36.146   7.653
 7880POPC   NC338039  26.781  39.253   9.453
 7880POPC   PO438040  26.816  39.213   9.153
 7880POPC   GL138041  26.799  39.185   8.853
 7880POPC   GL238042  26.912  39.198   8.853
 7880POPC   C1A38043  26.787  39.199   8.553
 7880POPC   D2A38044  26.795  39.228   8.253
 7880POPC   C3A38045  26.866  39.235   7.953
 7880POPC   C4A38046  26.781  39.255   7.653
 7880POPC   C1B38047  27.020  39.109   8.553
 7880POPC   C2B38048  27.016  39.087   8.253
 7880POPC   C3B38049  27.069  39.046   7.953
 7880POPC   C4B38050  27.057  39.127   7.653
 7881POPC   NC338051   3.585  13.654   9.453
 7881POPC   PO438052   3.513  13.657   9.153
 7881POPC   GL138053   3.578  13.639   8.853
 7881POPC   GL238054   3.402  13.644   8.853
 7881POPC   C1A38055   3.557  13.654   8.553
 7881POPC   D2A38056   3.527  13.607   8.253
 7881POPC   C3A38057   3.547  13.583   7.953
 7881POPC   C4A38058   3.577  13.632   7.653
 7881POPC   C1B38059   3.268  13.742   8.553
 7881POPC   C2B38060   3.276  13.707   8.253
 7881POPC   C3B38061   3.307  13.743   7.953
 7881POPC   C4B38062   3.342  13.702   7.653
 7882POPC   NC338063  26.015  11.319   9.453
 7882POPC   PO438064  26.056  11.293   9.153
 7882POPC   GL138065  26.071  11.328   8.853
 7882POPC   GL238066  26.148  11.295   8.853
 7882POPC   C1A38067  25.992  11.292   8.553
 7882POPC   D2A38068  26.052  11.341   8.253
 7882POPC   C3A38069  26.047  11.335   7.953
 7882POPC   C4A38070  26.056  11.334   7.653
 7882POPC   C1B38071  26.275  11.243   8.553
 7882POPC   C2B38072  26.237  11.271   8.253
 7882POPC   C3B38073  26.259  11.258   7.953
 7882POPC   C4B38074  26.314  11.237   7.653
 7883POPC   NC338075   7.437  43.074   9.453
 7883POPC   PO438076   7.431  43.070   9.153
 7883POPC   GL138077   7.375  43.131   8.853
 7883POPC   GL238078   7.345  43.166   8.853
 7883POPC   C1A38079   7.388  43.071   8.553
 7883POPC   D2A38080   7.387  43.101   8.253
 7883POPC   C3A38081   7.418  43.109   7.953
 7883POPC   C4A38082   7.435  43.110   7.653
 7883POPC   C1B38083   7.142  43.208   8.553
 7883POPC   C2B38084   7.138  43.140   8.253
 7883POPC   C3B38085   7.217  43.188   7.953
 7883POPC   C4B38086   7.174  43.164   7.653
 7884POPC   NC338087  15.956  19.051   9.453
 7884POPC   PO438088  15.971  19.109   9.153
 7884POPC   GL138089  15.961  19.045   8.853
 7884POPC   GL238090  16.070  19.002   8.853
 7884POPC   C1A38091  15.989  19.015   8.553
 7884POPC   D2A38092  16.005  19.063   8.253
 7884POPC   C3A38093  15.931  19.060   7.953
 7884POPC   C4A38094  15.920  19.081   7.653
 7884POPC   C1B38095  16.097  18.883   8.553
 7884POPC   C2B38096  16.078  18.906   8.253
 7884POPC   C3B38097  16.088  18.896   7.953
 7884POPC   C4B38098  16.121  18.904   7.653
 7885POPC   NC338099  33.007   0.441   9.453
 7885POPC   PO438100  32.985   0.414   9.153
 7885POPC   GL138101  33.014   0.444   8.853
 7885POPC   GL238102  33.123   0.467   8.853
 7885POPC   C1A38103  32.994   0.472   8.553
 7885POPC   D2A38104  33.040   0.449   8.253
 7885POPC   C3A38105  33.074   0.417   7.953
 7885POPC   C4A38106  33.069   0.466   7.653
 7885POPC   C1B38107  33.264   0.529   8.553
 7885POPC   C2B38108  33.248   0.505   8.253
 7885POPC   C3B38109  33.303   0.560   7.953
 7885POPC   C4B38110  33.222   0.543   7.653
 7886POPC   NC338111   1.166  41.607   9.453
 7886POPC   PO438112   1.175  41.514   9.153
 7886POPC   GL138113   1.243  41.601   8.853
 7886POPC   GL238114   1.084  41.505   8.853
 7886POPC   C1A38115   1.191  41.540   8.553
 7886POPC   D2A38116   1.223  41.551   8.253
 7886POPC   C3A38117   1.180  41.587   7.953
 7886POPC   C4A38118   1.205  41.527   7.653
 7886POPC   C1B38119   0.971  41.511   8.553
 7886POPC   C2B38120   0.919  41.564   8.253
 7886POPC   C3B38121   0.998  41.494   7.953
 7886POPC   C4B38122   0.989  41.553   7.653
 7887POPC   NC338123   5.069  40.756   9.453
 7887POPC   PO438124   5.075  40.735   9.153
 7887POPC   GL138125   5.125  40.756   8.853
 7887POPC   GL238126   5.104  40.630   8.853
 7887POPC   C1A38127   5.091  40.768   8.553
 7887POPC   D2A38128   5.049  40.745   8.253
 7887POPC   C3A38129   5.092  40.793   7.953
 7887POPC   C4A38130   5.065  40.802   7.653
 7887POPC   C1B38131   5.255  40.564   8.553
 7887POPC   C2B38132   5.242  40.538   8.253
 7887POPC   C3B38133   5.237  40.574   7.953
 7887POPC   C4B38134   5.242  40.547   7.653
 7888POPC   NC338135   5.102  41.577   9.453
 7888POPC   PO438136   5.055  41.523   9.153
 7888POPC   GL138137   5.057  41.552   8.853
 7888POPC   GL238138   4.947  41.595   8.853
 7888POPC   C1A38139   5.067  41.600   8.553
 7888POPC   D2A38140   5.083  41.562   8.253
 7888POPC   C3A38141   5.085  41.589   7.953
 7888POPC   C4A38142   5.103  41.550   7.653
 7888POPC   C1B38143   4.801  41.580   8.553
 7888POPC   C2B38144   4.833  41.596   8.253
 7888POPC   C3B38145   4.823  41.517   7.953
 7888POPC   C4B38146   4.857  41.563   7.653
 7889POPC   NC338147   2.768   3.518   9.453
 7889POPC   PO438148   2.788   3.580   9.153
 7889POPC   GL138149   2.769   3.512   8.853
 7889POPC   GL238150   2.630   3.536   8.853
 7889POPC   C1A38151   2.738   3.523   8.553
 7889POPC   D2A38152   2.764   3.553   8.253
 7889POPC   C3A38153   2.807   3.560   7.953
 7889POPC   C4A38154   2.751   3.512   7.653
 7889POPC   C1B38155   2.556   3.553   8.553
 7889POPC   C2B38156   2.541   3.576   8.253
 7889POPC   C3B38157   2.508   3.632   7.953
 7889POPC   C4B38158   2.504   3.601   7.653
 7890POPC   NC338159  27.547   0.484   9.453
 7890POPC   PO438160  27.551   0.405   9.153
 7890POPC   GL138161  27.551   0.447   8.853
 7890POPC   GL238162  27.674   0.355   8.853
 7890POPC   C1A38163  27.578   0.427   8.553
 7890POPC   D2A38164  27.639   0.475   8.253
 7890POPC   C3A38165  27.553   0.473   7.953
 7890POPC   C4A38166  27.580   0.449   7.653
 7890POPC   C1B38167  27.788   0.298   8.553
 7890POPC   C2B38168  27.812   0.250   8.253
 7890POPC   C3B38169  27.776   0.244   7.953
 7890POPC   C4B38170  27.761   0.297   7.653
 7891POPC   NC338171  38.412  36.925   9.453
 7891POPC   PO438172  38.480  36.925   9.153
 7891POPC   GL138173  38.413  36.899   8.853
 7891POPC   GL238174  38.487  37.016   8.853
 7891POPC   C1A38175  38.487  36.927   8.553
 7891POPC   D2A38176  38.421  36.934   8.253
 7891POPC   C3A38177  38.499  36.886   7.953
 7891POPC   C4A38178  38.467  36.927   7.653
 7891POPC   C1B38179  38.507  37.134   8.553
 7891POPC   C2B38180  38.494  37.163   8.253
 7891POPC   C3B38181  38.410  37.176   7.953
 7891POPC   C4B38182  38.485  37.190   7.653
 7892POPC   NC338183  23.717  36.149   9.453
 7892POPC   PO438184  23.665  36.153   9.153
 7892POPC   GL138185  23.741  36.164   8.853
 7892POPC   GL238186  23.871  36.208   8.853
 7892POPC   C1A38187  23.734  36.137   8.553
 7892POPC   D2A38188  23.669  36.114   8.253
 7892POPC   C3A38189  23.712  36.169   7.953
 7892POPC   C4A38190  23.724  36.111   7.653
 7892POPC   C1B38191  23.944  36.231   8.553
 7892POPC   C2B38192  23.937  36.243   8.253
 7892POPC   C3B38193  23.970  36.239   7.953
 7892POPC   C4B38194  23.943  36.257   7.653
 7893POPC   NC338195  42.303  37.686   9.453
 7893POPC   PO438196  42.315  37.685   9.153
 7893POPC   GL138197  42.379  37.705   8.853
 7893POPC   GL238198  42.170  37.632   8.853
 7893POPC   C1A38199  42.346  37.702   8.553
 7893POPC   D2A38200  42.354  37.710   8.253
 7893POPC   C3A38201  42.384  37.727   7.953
 7893POPC   C4A38202  42.292  37.720   7.653
 7893POPC   C1B38203  42.132  37.626   8.553
 7893POPC   C2B38204  42.129  37.637   8.253
 7893POPC   C3B38205  42.052  37.638   7.953
 7893POPC   C4B38206  42.055  37.664   7.653
 7894POPC   NC338207   4.272  22.896   9.453
 7894POPC   PO438208   4.291  22.963   9.153
 7894POPC   GL138209   4.302  22.906   8.853
 7894POPC   GL238210   4.294  22.802   8.853
 7894POPC   C1A38211   4.269  22.911   8.553
 7894POPC   D2A38212   4.279  22.906   8.253
 7894POPC   C3A38213   4.268  22.915   7.953
 7894POPC   C4A38214   4.329  22.892   7.653
 7894POPC   C1B38215   4.359  22.712   8.553
 7894POPC   C2B38216   4.286  22.718   8.253
 7894POPC   C3B38217   4.294  22.655   7.953
 7894POPC   C4B38218   4.368  22.648   7.653
 7895POPC   NC338219  39.207   5.900   9.453
 7895POPC   PO438220  39.258   5.846   9.153
 7895POPC   GL138221  39.182   5.899   8.853
 7895POPC   GL238222  39.364   5.798   8.853
 7895POPC   C1A38223  39.277   5.835   8.553
 7895POPC   D2A38224  39.243   5.832   8.253
 7895POPC   C3A38225  39.222   5.878   7.953
 7895POPC   C4A38226  39.256   5.841   7.653
 7895POPC   C1B38227  39.455   5.792   8.553
 7895POPC   C2B38228  39.463   5.848   8.253
 7895POPC   C3B38229  39.460   5.796   7.953
 7895POPC   C4B38230  39.471   5.785   7.653
 7896POPC   NC338231  33.066  27.560   9.453
 7896POPC   PO438232  33.007  27.589   9.153
 7896POPC   GL138233  33.012  27.583   8.853
 7896POPC   GL238234  33.124  27.688   8.853
 7896POPC   C1A38235  33.032  27.618   8.553
 7896POPC   D2A38236  33.059  27.643   8.253
 7896POPC   C3A38237  33.000  27.601   7.953
 7896POPC   C4A38238  33.042  27.605   7.653
 7896POPC   C1B38239  33.226  27.762   8.553
 7896POPC   C2B38240  33.237  27.746   8.253
 7896POPC   C3B38241  33.185  27.782   7.953
 7896POPC   C4B38242  33.205  27.755   7.653
 7897POPC   NC338243  36.150  27.585   9.453
 7897POPC   PO438244  36.153  27.596   9.153
 7897POPC   GL138245  36.162  27.594   8.853
 7897POPC   GL238246  36.234  27.728   8.853
 7897POPC   C1A38247  36.175  27.617   8.553
 7897POPC   D2A38248  36.099  27.589   8.253
 7897POPC   C3A38249  36.171  27.615   7.953
 7897POPC   C4A38250  36.155  27.631   7.653
 7897POPC   C1B38251  36.292  27.766   8.553
 7897POPC   C2B38252  36.331  27.765   8.253
 7897POPC   C3B38253  36.301  27.775   7.953
 7897POPC   C4B38254  36.299  27.781   7.653
 7898POPC   NC338255   7.417  22.980   9.453
 7898POPC   PO438256   7.449  22.973   9.153
 7898POPC   GL138257   7.386  22.899   8.853
 7898POPC   GL238258   7.318  22.988   8.853
 7898POPC   C1A38259   7.468  22.908   8.553
 7898POPC   D2A38260   7.404  22.898   8.253
 7898POPC   C3A38261   7.397  22.926   7.953
 7898POPC   C4A38262   7.416  22.888   7.653
 7898POPC   C1B38263   7.301  23.124   8.553
 7898POPC   C2B38264   7.286  23.169   8.253
 7898POPC   C3B38265   7.291  23.114   7.953
 7898POPC   C4B38266   7.290  23.095   7.653
 7899POPC   NC338267  40.821  20.626   9.453
 7899POPC   PO438268  40.750  20.611   9.153
 7899POPC   GL138269  40.762  20.618   8.853
 7899POPC   GL238270  40.868  20.687   8.853
 7899POPC   C1A38271  40.740  20.637   8.553
 7899POPC   D2A38272  40.770  20.646   8.253
 7899POPC   C3A38273  40.820  20.621   7.953
 7899POPC   C4A38274  40.781  20.634   7.653
 7899POPC   C1B38275  40.987  20.752   8.553
 7899POPC   C2B38276  40.989  20.758   8.253
 7899POPC   C3B38277  40.997  20.717   7.953
 7899POPC   C4B38278  40.987  20.749   7.653
 7900POPC   NC338279  32.222   0.389   9.453
 7900POPC   PO438280  32.231   0.452   9.153
 7900POPC   GL138281  32.274   0.396   8.853
 7900POPC   GL238282  32.104   0.482   8.853
 7900POPC   C1A38283  32.253   0.426   8.553
 7900POPC   D2A38284  32.204   0.388   8.253
 7900POPC   C3A38285  32.199   0.451   7.953
 7900POPC   C4A38286  32.201   0.427   7.653
 7900POPC   C1B38287  31.992   0.430   8.553
 7900POPC   C2B38288  32.043   0.487   8.253
 7900POPC   C3B38289  32.038   0.495   7.953
 7900POPC   C4B38290  31.963   0.404   7.653
 7901POPC   NC338291  44.661  34.596   9.453
 7901POPC   PO438292  44.624  34.545   9.153
 7901POPC   GL138293  44.615  34.599   8.853
 7901POPC   GL238294  44.745  34.484   8.853
 7901POPC   C1A38295  44.650  34.541   8.553
 7901POPC   D2A38296  44.649  34.536   8.253
 7901POPC   C3A38297  44.617  34.576   7.953
 7901POPC   C4A38298  44.637  34.556   7.653
 7901POPC   C1B38299  44.940  34.498   8.553
 7901POPC   C2B38300  44.924  34.518   8.253
 7901POPC   C3B38301  44.856  34.493   7.953
 7901POPC   C4B38302  44.901  34.516   7.653
 7902POPC   NC338303  40.053  26.016   9.453
 7902POPC   PO438304  40.051  26.028   9.153
 7902POPC   GL138305  39.957  26.022   8.853
 7902POPC   GL238306  39.956  25.903   8.853
 7902POPC   C1A38307  40.040  26.062   8.553
 7902POPC   D2A38308  39.976  25.994   8.253
 7902POPC   C3A38309  40.008  26.090   7.953
 7902POPC   C4A38310  40.017  26.084   7.653
 7902POPC   C1B38311  39.943  25.812   8.553
 7902POPC   C2B38312  39.884  25.774   8.253
 7902POPC   C3B38313  39.938  25.765   7.953
 7902POPC   C4B38314  39.901  25.809   7.653
 7903POPC   NC338315   8.974  19.858   9.453
 7903POPC   PO438316   8.936  19.802   9.153
 7903POPC   GL138317   9.010  19.810   8.853
 7903POPC   GL238318   8.973  19.745   8.853
 7903POPC   C1A38319   8.978  19.793   8.553
 7903POPC   D2A38320   9.015  19.870   8.253
 7903POPC   C3A38321   8.971  19.798   7.953
 7903POPC   C4A38322   9.011  19.851   7.653
 7903POPC   C1B38323   8.912  19.609   8.553
 7903POPC   C2B38324   8.899  19.642   8.253
 7903POPC   C3B38325   8.922  19.598   7.953
 7903POPC   C4B38326   8.932  19.575   7.653
 7904POPC   NC338327  38.497  34.600   9.453
 7904POPC   PO438328  38.504  34.536   9.153
 7904POPC   GL138329  38.505  34.570   8.853
 7904POPC   GL238330  38.350  34.652   8.853
 7904POPC   C1A38331  38.492  34.599   8.553
 7904POPC   D2A38332  38.452  34.614   8.253
 7904POPC   C3A38333  38.488  34.552   7.953
 7904POPC   C4A38334  38.486  34.530   7.653
 7904POPC   C1B38335  38.357  34.754   8.553
 7904POPC   C2B38336  38.344  34.804   8.253
 7904POPC   C3B38337  38.302  34.760   7.953
 7904POPC   C4B38338  38.299  34.752   7.653
 7905POPC   NC338339  33.817  44.647   9.453
 7905POPC   PO438340  33.807  44.687   9.153
 7905POPC   GL138341  33.796  44.662   8.853
 7905POPC   GL238342  33.793  44.822   8.853
 7905POPC   C1A38343  33.849  44.677   8.553
 7905POPC   D2A38344  33.784  44.631   8.253
 7905POPC   C3A38345  33.762  44.628   7.953
 7905POPC   C4A38346  33.819  44.704   7.653
 7905POPC   C1B38347  33.734  44.876   8.553
 7905POPC   C2B38348  33.741  44.918   8.253
 7905POPC   C3B38349  33.720  44.872   7.953
 7905POPC   C4B38350  33.685  44.870   7.653
 7906POPC   NC338351   3.511  15.934   5.553
 7906POPC   PO438352   3.579  15.952   5.853
 7906POPC   GL138353   3.566  15.984   6.153
 7906POPC   GL238354   3.492  16.104   6.153
 7906POPC   C1A38355   3.572  15.981   6.453
 7906POPC   D2A38356   3.516  15.918   6.753
 7906POPC   C3A38357   3.548  15.914   7.053
 7906POPC   C4A38358   3.576  15.991   7.353
 7906POPC   C1B38359   3.445  16.209   6.453
 7906POPC   C2B38360   3.439  16.161   6.753
 7906POPC   C3B38361   3.396  16.169   7.053
 7906POPC   C4B38362   3.452  16.204   7.353
 7907POPC   NC338363  40.037  22.144   5.553
 7907POPC   PO438364  39.971  22.166   5.853
 7907POPC   GL138365  39.991  22.153   6.153
 7907POPC   GL238366  40.013  22.025   6.153
 7907POPC   C1A38367  39.986  22.208   6.453
 7907POPC   D2A38368  39.971  22.197   6.753
 7907POPC   C3A38369  40.055  22.162   7.053
 7907POPC   C4A38370  39.978  22.158   7.353
 7907POPC   C1B38371  40.140  21.947   6.453
 7907POPC   C2B38372  40.128  21.915   6.753
 7907POPC   C3B38373  40.122  21.883   7.053
 7907POPC   C4B38374  40.130  21.977   7.353
 7908POPC   NC338375   9.709   2.022   5.553
 7908POPC   PO438376   9.764   2.014   5.853
 7908POPC   GL138377   9.762   1.982   6.153
 7908POPC   GL238378   9.859   2.049   6.153
 7908POPC   C1A38379   9.743   1.949   6.453
 7908POPC   D2A38380   9.774   1.959   6.753
 7908POPC   C3A38381   9.783   1.994   7.053
 7908POPC   C4A38382   9.774   1.995   7.353
 7908POPC   C1B38383   9.874   2.229   6.453
 7908POPC   C2B38384   9.895   2.214   6.753
 7908POPC   C3B38385   9.916   2.201   7.053
 7908POPC   C4B38386   9.869   2.166   7.353
 7909POPC   NC338387  43.898  29.874   5.553
 7909POPC   PO438388  43.866  29.875   5.853
 7909POPC   GL138389  43.897  29.909   6.153
 7909POPC   GL238390  43.841  29.967   6.153
 7909POPC   C1A38391  43.902  29.934   6.453
 7909POPC   D2A38392  43.897  29.896   6.753
 7909POPC   C3A38393  43.836  29.887   7.053
 7909POPC   C4A38394  43.861  29.919   7.353
 7909POPC   C1B38395  43.727  30.093   6.453
 7909POPC   C2B38396  43.699  30.072   6.753
 7909POPC   C3B38397  43.693  30.114   7.053
 7909POPC   C4B38398  43.752  30.079   7.353
 7910POPC   NC338399   9.759  29.112   5.553
 7910POPC   PO438400   9.724  29.106   5.853
 7910POPC   GL138401   9.742  29.146   6.153
 7910POPC   GL238402   9.676  29.257   6.153
 7910POPC   C1A38403   9.771  29.125   6.453
 7910POPC   D2A38404   9.706  29.101   6.753
 7910POPC   C3A38405   9.721  29.153   7.053
 7910POPC   C4A38406   9.789  29.180   7.353
 7910POPC   C1B38407   9.674  29.369   6.453
 7910POPC   C2B38408   9.653  29.373   6.753
 7910POPC   C3B38409   9.649  29.420   7.053
 7910POPC   C4B38410   9.690  29.372   7.353
 7911POPC   NC338411   5.077   5.871   5.553
 7911POPC   PO438412   5.095   5.855   5.853
 7911POPC   GL138413   5.138   5.887   6.153
 7911POPC   GL238414   5.109   5.764   6.153
 7911POPC   C1A38415   5.088   5.825   6.453
 7911POPC   D2A38416   5.126   5.836   6.753
 7911POPC   C3A38417   5.108   5.909   7.053
 7911POPC   C4A38418   5.123   5.913   7.353
 7911POPC   C1B38419   5.131   5.658   6.453
 7911POPC   C2B38420   5.160   5.670   6.753
 7911POPC   C3B38421   5.194   5.602   7.053
 7911POPC   C4B38422   5.151   5.655   7.353
 7912POPC   NC338423  37.631  29.912   5.553
 7912POPC   PO438424  37.691  29.957   5.853
 7912POPC   GL138425  37.676  29.917   6.153
 7912POPC   GL238426  37.807  29.989   6.153
 7912POPC   C1A38427  37.724  29.916   6.453
 7912POPC   D2A38428  37.706  29.912   6.753
 7912POPC   C3A38429  37.693  29.937   7.053
 7912POPC   C4A38430  37.718  29.921   7.353
 7912POPC   C1B38431  37.953  29.993   6.453
 7912POPC   C2B38432  37.917  29.967   6.753
 7912POPC   C3B38433  37.916  29.980   7.053
 7912POPC   C4B38434  37.956  29.924   7.353
 7913POPC   NC338435   1.210  23.710   5.553
 7913POPC   PO438436   1.221  23.704   5.853
 7913POPC   GL138437   1.223  23.692   6.153
 7913POPC   GL238438   1.171  23.851   6.153
 7913POPC   C1A38439   1.204  23.757   6.453
 7913POPC   D2A38440   1.258  23.685   6.753
 7913POPC   C3A38441   1.177  23.748   7.053
 7913POPC   C4A38442   1.189  23.755   7.353
 7913POPC   C1B38443   1.053  23.901   6.453
 7913POPC   C2B38444   1.070  23.890   6.753
 7913POPC   C3B38445   1.120  23.963   7.053
 7913POPC   C4B38446   1.123  23.905   7.353
 7914POPC   NC338447  40.825   5.841   5.553
 7914POPC   PO438448  40.775   5.887   5.853
 7914POPC   GL138449  40.799   5.859   6.153
 7914POPC   GL238450  40.626   5.808   6.153
 7914POPC   C1A38451  40.799   5.882   6.453
 7914POPC   D2A38452  40.744   5.897   6.753
 7914POPC   C3A38453  40.816   5.841   7.053
 7914POPC   C4A38454  40.776   5.877   7.353
 7914POPC   C1B38455  40.561   5.770   6.453
 7914POPC   C2B38456  40.546   5.710   6.753
 7914POPC   C3B38457  40.600   5.802   7.053
 7914POPC   C4B38458  40.528   5.779   7.353
 7915POPC   NC338459  13.663  25.225   5.553
 7915POPC   PO438460  13.591  25.219   5.853
 7915POPC   GL138461  13.639  25.309   6.153
 7915POPC   GL238462  13.558  25.335   6.153
 7915POPC   C1A38463  13.653  25.273   6.453
 7915POPC   D2A38464  13.644  25.287   6.753
 7915POPC   C3A38465  13.625  25.245   7.053
 7915POPC   C4A38466  13.604  25.309   7.353
 7915POPC   C1B38467  13.458  25.501   6.453
 7915POPC   C2B38468  13.510  25.450   6.753
 7915POPC   C3B38469  13.471  25.466   7.053
 7915POPC   C4B38470  13.459  25.466   7.353
 7916POPC   NC338471  17.479  19.830   5.553
 7916POPC   PO438472  17.460  19.792   5.853
 7916POPC   GL138473  17.522  19.835   6.153
 7916POPC   GL238474  17.410  19.712   6.153
 7916POPC   C1A38475  17.552  19.843   6.453
 7916POPC   D2A38476  17.529  19.791   6.753
 7916POPC   C3A38477  17.548  19.810   7.053
 7916POPC   C4A38478  17.506  19.855   7.353
 7916POPC   C1B38479  17.346  19.672   6.453
 7916POPC   C2B38480  17.283  19.698   6.753
 7916POPC   C3B38481  17.356  19.703   7.053
 7916POPC   C4B38482  17.317  19.638   7.353
 7917POPC   NC338483  35.337  40.751   5.553
 7917POPC   PO438484  35.323  40.777   5.853
 7917POPC   GL138485  35.380  40.759   6.153
 7917POPC   GL238486  35.378  40.666   6.153
 7917POPC   C1A38487  35.361  40.785   6.453
 7917POPC   D2A38488  35.319  40.800   6.753
 7917POPC   C3A38489  35.383  40.735   7.053
 7917POPC   C4A38490  35.378  40.759   7.353
 7917POPC   C1B38491  35.334  40.561   6.453
 7917POPC   C2B38492  35.334  40.489   6.753
 7917POPC   C3B38493  35.380  40.560   7.053
 7917POPC   C4B38494  35.368  40.506   7.353
 7918POPC   NC338495   8.936   9.016   5.553
 7918POPC   PO438496   8.928   8.952   5.853
 7918POPC   GL138497   9.005   8.938   6.153
 7918POPC   GL238498   8.885   8.862   6.153
 7918POPC   C1A38499   9.008   8.988   6.453
 7918POPC   D2A38500   8.974   8.988   6.753
 7918POPC   C3A38501   8.956   8.989   7.053
 7918POPC   C4A38502   8.948   8.935   7.353
 7918POPC   C1B38503   8.861   8.707   6.453
 7918POPC   C2B38504   8.940   8.694   6.753
 7918POPC   C3B38505   8.878   8.760   7.053
 7918POPC   C4B38506   8.875   8.697   7.353
 7919POPC   NC338507  30.741  36.880   5.553
 7919POPC   PO438508  30.690  36.889   5.853
 7919POPC   GL138509  30.715  36.949   6.153
 7919POPC   GL238510  30.632  36.984   6.153
 7919POPC   C1A38511  30.735  36.931   6.453
 7919POPC   D2A38512  30.681  36.945   6.753
 7919POPC   C3A38513  30.686  36.943   7.053
 7919POPC   C4A38514  30.664  36.943   7.353
 7919POPC   C1B38515  30.544  37.094   6.453
 7919POPC   C2B38516  30.480  37.044   6.753
 7919POPC   C3B38517  30.482  37.031   7.053
 7919POPC   C4B38518  30.478  37.094   7.353
 7920POPC   NC338519  26.788  21.425   5.553
 7920POPC   PO438520  26.813  21.402   5.853
 7920POPC   GL138521  26.801  21.337   6.153
 7920POPC   GL238522  26.780  21.538   6.153
 7920POPC   C1A38523  26.785  21.419   6.453
 7920POPC   D2A38524  26.818  21.426   6.753
 7920POPC   C3A38525  26.809  21.417   7.053
 7920POPC   C4A38526  26.863  21.385   7.353
 7920POPC   C1B38527  26.743  21.622   6.453
 7920POPC   C2B38528  26.698  21.584   6.753
 7920POPC   C3B38529  26.770  21.623   7.053
 7920POPC   C4B38530  26.709  21.572   7.353
 7921POPC   NC338531  19.052  43.850   5.553
 7921POPC   PO438532  19.087  43.867   5.853
 7921POPC   GL138533  19.021  43.894   6.153
 7921POPC   GL238534  19.149  43.938   6.153
 7921POPC   C1A38535  19.072  43.903   6.453
 7921POPC   D2A38536  19.036  43.928   6.753
 7921POPC   C3A38537  19.069  43.929   7.053
 7921POPC   C4A38538  19.052  43.876   7.353
 7921POPC   C1B38539  19.270  43.992   6.453
 7921POPC   C2B38540  19.248  43.982   6.753
 7921POPC   C3B38541  19.297  44.021   7.053
 7921POPC   C4B38542  19.314  43.991   7.353
 7922POPC   NC338543  40.782  19.030   5.553
 7922POPC   PO438544  40.829  19.104   5.853
 7922POPC   GL138545  40.779  19.020   6.153
 7922POPC   GL238546  40.848  19.193   6.153
 7922POPC   C1A38547  40.799  19.063   6.453
 7922POPC   D2A38548  40.798  19.071   6.753
 7922POPC   C3A38549  40.803  19.085   7.053
 7922POPC   C4A38550  40.771  19.100   7.353
 7922POPC   C1B38551  40.841  19.280   6.453
 7922POPC   C2B38552  40.883  19.350   6.753
 7922POPC   C3B38553  40.843  19.322   7.053
 7922POPC   C4B38554  40.840  19.269   7.353
 7923POPC   NC338555   8.985  11.332   5.553
 7923POPC   PO438556   8.965  11.279   5.853
 7923POPC   GL138557   8.935  11.350   6.153
 7923POPC   GL238558   8.906  11.399   6.153
 7923POPC   C1A38559   8.966  11.285   6.453
 7923POPC   D2A38560   9.016  11.345   6.753
 7923POPC   C3A38561   9.022  11.314   7.053
 7923POPC   C4A38562   8.936  11.308   7.353
 7923POPC   C1B38563   8.759  11.456   6.453
 7923POPC   C2B38564   8.782  11.463   6.753
 7923POPC   C3B38565   8.714  11.408   7.053
 7923POPC   C4B38566   8.792  11.405   7.353
 7924POPC   NC338567  30.658   6.602   5.553
 7924POPC   PO438568  30.686   6.605   5.853
 7924POPC   GL138569  30.711   6.654   6.153
 7924POPC   GL238570  30.665   6.497   6.153
 7924POPC   C1A38571  30.670   6.693   6.453
 7924POPC   D2A38572  30.716   6.659   6.753
 7924POPC   C3A38573  30.715   6.652   7.053
 7924POPC   C4A38574  30.731   6.678   7.353
 7924POPC   C1B38575  30.709   6.358   6.453
 7924POPC   C2B38576  30.625   6.446   6.753
 7924POPC   C3B38577  30.701   6.408   7.053
 7924POPC   C4B38578  30.627   6.406   7.353
 7925POPC   NC338579  31.496  33.781   5.553
 7925POPC   PO438580  31.423  33.804   5.853
 7925POPC   GL138581  31.430  33.779   6.153
 7925POPC   GL238582  31.523  33.877   6.153
 7925POPC   C1A38583  31.496  33.822   6.453
 7925POPC   D2A38584  31.507  33.831   6.753
 7925POPC   C3A38585  31.455  33.827   7.053
 7925POPC   C4A38586  31.423  33.811   7.353
 7925POPC   C1B38587  31.624  33.963   6.453
 7925POPC   C2B38588  31.623  34.022   6.753
 7925POPC   C3B38589  31.645  33.983   7.053
 7925POPC   C4B38590  31.648  33.957   7.353
 7926POPC   NC338591  23.683   2.754   5.553
 7926POPC   PO438592  23.749   2.796   5.853
 7926POPC   GL138593  23.763   2.742   6.153
 7926POPC   GL238594  23.795   2.707   6.153
 7926POPC   C1A38595  23.692   2.752   6.453
 7926POPC   D2A38596  23.738   2.735   6.753
 7926POPC   C3A38597  23.717   2.765   7.053
 7926POPC   C4A38598  23.731   2.809   7.353
 7926POPC   C1B38599  23.912   2.576   6.453
 7926POPC   C2B38600  23.895   2.603   6.753
 7926POPC   C3B38601  23.887   2.549   7.053
 7926POPC   C4B38602  23.855   2.621   7.353
 7927POPC   NC338603  18.264  26.024   5.553
 7927POPC   PO438604  18.293  26.021   5.853
 7927POPC   GL138605  18.275  26.081   6.153
 7927POPC   GL238606  18.331  26.121   6.153
 7927POPC   C1A38607  18.323  26.029   6.453
 7927POPC   D2A38608  18.252  26.077   6.753
 7927POPC   C3A38609  18.275  26.051   7.053
 7927POPC   C4A38610  18.283  26.087   7.353
 7927POPC   C1B38611  18.329  26.292   6.453
 7927POPC   C2B38612  18.313  26.319   6.753
 7927POPC   C3B38613  18.304  26.319   7.053
 7927POPC   C4B38614  18.299  26.269   7.353
 7928POPC   NC338615  33.024   9.788   5.553
 7928POPC   PO438616  33.025   9.785   5.853
 7928POPC   GL138617  33.012   9.782   6.153
 7928POPC   GL238618  32.900   9.782   6.153
 7928POPC   C1A38619  33.010   9.729   6.453
 7928POPC   D2A38620  32.992   9.739   6.753
 7928POPC   C3A38621  33.067   9.737   7.053
 7928POPC   C4A38622  33.045   9.754   7.353
 7928POPC   C1B38623  32.822   9.821   6.453
 7928POPC   C2B38624  32.735   9.784   6.753
 7928POPC   C3B38625  32.733   9.831   7.053
 7928POPC   C4B38626  32.734   9.823   7.353
 7929POPC   NC338627  36.142  17.528   5.553
 7929POPC   PO438628  36.102  17.556   5.853
 7929POPC   GL138629  36.108  17.543   6.153
 7929POPC   GL238630  36.162  17.349   6.153
 7929POPC   C1A38631  36.089  17.475   6.453
 7929POPC   D2A38632  36.101  17.465   6.753
 7929POPC   C3A38633  36.094  17.490   7.053
 7929POPC   C4A38634  36.151  17.519   7.353
 7929POPC   C1B38635  36.253  17.295   6.453
 7929POPC   C2B38636  36.246  17.248   6.753
 7929POPC   C3B38637  36.279  17.327   7.053
 7929POPC   C4B38638  36.273  17.263   7.353
 7930POPC   NC338639  11.271  26.851   5.553
 7930POPC   PO438640  11.269  26.798   5.853
 7930POPC   GL138641  11.272  26.859   6.153
 7930POPC   GL238642  11.221  26.842   6.153
 7930POPC   C1A38643  11.290  26.837   6.453
 7930POPC   D2A38644  11.325  26.858   6.753
 7930POPC   C3A38645  11.266  26.804   7.053
 7930POPC   C4A38646  11.262  26.795   7.353
 7930POPC   C1B38647  11.065  26.790   6.453
 7930POPC   C2B38648  11.084  26.828   6.753
 7930POPC   C3B38649  11.073  26.872   7.053
 7930POPC   C4B38650  11.035  26.789   7.353
 7931POPC   NC338651   5.888  11.337   5.553
 7931POPC   PO438652   5.878  11.314   5.853
 7931POPC   GL138653   5.870  11.330   6.153
 7931POPC   GL238654   5.970  11.341   6.153
 7931POPC   C1A38655   5.874  11.277   6.453
 7931POPC   D2A38656   5.915  11.294   6.753
 7931POPC   C3A38657   5.883  11.345   7.053
 7931POPC   C4A38658   5.874  11.254   7.353
 7931POPC   C1B38659   6.050  11.411   6.453
 7931POPC   C2B38660   6.045  11.384   6.753
 7931POPC   C3B38661   6.052  11.401   7.053
 7931POPC   C4B38662   6.114  11.420   7.353
 7932POPC   NC338663  15.976  26.054   5.553
 7932POPC   PO438664  15.993  26.052   5.853
 7932POPC   GL138665  15.911  25.996   6.153
 7932POPC   GL238666  16.043  25.962   6.153
 7932POPC   C1A38667  15.967  26.081   6.453
 7932POPC   D2A38668  15.993  26.003   6.753
 7932POPC   C3A38669  15.966  26.039   7.053
 7932POPC   C4A38670  15.973  26.009   7.353
 7932POPC   C1B38671  16.183  25.998   6.453
 7932POPC   C2B38672  16.192  25.992   6.753
 7932POPC   C3B38673  16.180  25.914   7.053
 7932POPC   C4B38674  16.143  25.948   7.353
 7933POPC   NC338675  34.618  29.127   5.553
 7933POPC   PO438676  34.562  29.163   5.853
 7933POPC   GL138677  34.582  29.159   6.153
 7933POPC   GL238678  34.696  29.023   6.153
 7933POPC   C1A38679  34.571  29.151   6.453
 7933POPC   D2A38680  34.574  29.144   6.753
 7933POPC   C3A38681  34.579  29.121   7.053
 7933POPC   C4A38682  34.551  29.139   7.353
 7933POPC   C1B38683  34.704  28.949   6.453
 7933POPC   C2B38684  34.759  28.944   6.753
 7933POPC   C3B38685  34.741  28.994   7.053
 7933POPC   C4B38686  34.790  28.930   7.353
 7934POPC   NC338687  33.777  23.684   5.553
 7934POPC   PO438688  33.785  23.700   5.853
 7934POPC   GL138689  33.787  23.722   6.153
 7934POPC   GL238690  33.898  23.654   6.153
 7934POPC   C1A38691  33.822  23.705   6.453
 7934POPC   D2A38692  33.788  23.693   6.753
 7934POPC   C3A38693  33.797  23.675   7.053
 7934POPC   C4A38694  33.760  23.753   7.353
 7934POPC   C1B38695  34.048  23.522   6.453
 7934POPC   C2B38696  34.018  23.533   6.753
 7934POPC   C3B38697  34.044  23.545   7.053
 7934POPC   C4B38698  33.961  23.613   7.353
 7935POPC   NC338699  32.989  40.025   5.553
 7935POPC   PO438700  33.000  39.972   5.853
 7935POPC   GL138701  33.064  40.040   6.153
 7935POPC   GL238702  32.960  39.933   6.153
 7935POPC   C1A38703  32.980  39.965   6.453
 7935POPC   D2A38704  33.017  40.019   6.753
 7935POPC   C3A38705  33.017  40.017   7.053
 7935POPC   C4A38706  33.074  39.990   7.353
 7935POPC   C1B38707  32.777  39.853   6.453
 7935POPC   C2B38708  32.828  39.885   6.753
 7935POPC   C3B38709  32.796  39.873   7.053
 7935POPC   C4B38710  32.810  39.844   7.353
 7936POPC   NC338711  33.837  36.928   5.553
 7936POPC   PO438712  33.780  36.907   5.853
 7936POPC   GL138713  33.756  36.903   6.153
 7936POPC   GL238714  33.933  36.895   6.153
 7936POPC   C1A38715  33.761  36.867   6.453
 7936POPC   D2A38716  33.759  36.924   6.753
 7936POPC   C3A38717  33.821  36.905   7.053
 7936POPC   C4A38718  33.822  36.866   7.353
 7936POPC   C1B38719  34.085  36.859   6.453
 7936POPC   C2B38720  34.043  36.872   6.753
 7936POPC   C3B38721  34.053  36.849   7.053
 7936POPC   C4B38722  34.039  36.900   7.353
 7937POPC   NC338723  44.684  44.634   5.553
 7937POPC   PO438724  44.647  44.672   5.853
 7937POPC   GL138725  44.697  44.655   6.153
 7937POPC   GL238726  44.756  44.652   6.153
 7937POPC   C1A38727  44.633  44.698   6.453
 7937POPC   D2A38728  44.655  44.620   6.753
 7937POPC   C3A38729  44.677  44.614   7.053
 7937POPC   C4A38730  44.635  44.683   7.353
 7937POPC   C1B38731  44.897  44.628   6.453
 7937POPC   C2B38732  44.862  44.614   6.753
 7937POPC   C3B38733  44.922  44.576   7.053
 7937POPC   C4B38734  44.883  44.569   7.353
 7938POPC   NC338735   8.173   2.778   5.553
 7938POPC   PO438736   8.223   2.757   5.853
 7938POPC   GL138737   8.237   2.756   6.153
 7938POPC   GL238738   8.192   2.649   6.153
 7938POPC   C1A38739   8.210   2.785   6.453
 7938POPC   D2A38740   8.237   2.722   6.753
 7938POPC   C3A38741   8.239   2.755   7.053
 7938POPC   C4A38742   8.222   2.777   7.353
 7938POPC   C1B38743   8.200   2.550   6.453
 7938POPC   C2B38744   8.232   2.551   6.753
 7938POPC   C3B38745   8.232   2.565   7.053
 7938POPC   C4B38746   8.231   2.470   7.353
 7939POPC   NC338747  12.858   1.999   5.553
 7939POPC   PO438748  12.834   2.029   5.853
 7939POPC   GL138749  12.876   2.008   6.153
 7939POPC   GL238750  12.768   1.923   6.153
 7939POPC   C1A38751  12.865   1.973   6.453
 7939POPC   D2A38752  12.848   2.011   6.753
 7939POPC   C3A38753  12.803   2.027   7.053
 7939POPC   C4A38754  12.889   1.954   7.353
 7939POPC   C1B38755  12.730   1.799   6.453
 7939POPC   C2B38756  12.775   1.775   6.753
 7939POPC   C3B38757  12.753   1.764   7.053
 7939POPC   C4B38758  12.721   1.796   7.353
 7940POPC   NC338759  17.477  37.654   5.553
 7940POPC   PO438760  17.465  37.716   5.853
 7940POPC   GL138761  17.534  37.649   6.153
 7940POPC   GL238762  17.499  37.519   6.153
 7940POPC   C1A38763  17.519  37.693   6.453
 7940POPC   D2A38764  17.542  37.698   6.753
 7940POPC   C3A38765  17.464  37.635   7.053
 7940POPC   C4A38766  17.550  37.657   7.353
 7940POPC   C1B38767  17.478  37.421   6.453
 7940POPC   C2B38768  17.431  37.416   6.753
 7940POPC   C3B38769  17.440  37.417   7.053
 7940POPC   C4B38770  17.454  37.455   7.353
 7941POPC   NC338771   0.423  12.085   5.553
 7941POPC   PO438772   0.436  12.067   5.853
 7941POPC   GL138773   0.454  12.062   6.153
 7941POPC   GL238774   0.373  12.238   6.153
 7941POPC   C1A38775   0.407  12.088   6.453
 7941POPC   D2A38776   0.440  12.096   6.753
 7941POPC   C3A38777   0.447  12.124   7.053
 7941POPC   C4A38778   0.454  12.032   7.353
 7941POPC   C1B38779   0.341  12.335   6.453
 7941POPC   C2B38780   0.333  12.320   6.753
 7941POPC   C3B38781   0.328  12.286   7.053
 7941POPC   C4B38782   0.343  12.321   7.353
 7942POPC   NC338783  44.651   6.695   5.553
 7942POPC   PO438784  44.654   6.649   5.853
 7942POPC   GL138785  44.635   6.650   6.153
 7942POPC   GL238786  44.650   6.738   6.153
 7942POPC   C1A38787  44.665   6.636   6.453
 7942POPC   D2A38788  44.679   6.695   6.753
 7942POPC   C3A38789  44.632   6.621   7.053
 7942POPC   C4A38790  44.707   6.686   7.353
 7942POPC   C1B38791  44.683   6.889   6.453
 7942POPC   C2B38792  44.614   6.898   6.753
 7942POPC   C3B38793  44.669   6.901   7.053
 7942POPC   C4B38794  44.617   6.942   7.353
 7943POPC   NC338795  16.747  40.000   5.553
 7943POPC   PO438796  16.760  40.014   5.853
 7943POPC   GL138797  16.683  39.991   6.153
 7943POPC   GL238798  16.724  40.138   6.153
 7943POPC   C1A38799  16.728  40.049   6.453
 7943POPC   D2A38800  16.715  40.007   6.753
 7943POPC   C3A38801  16.723  39.975   7.053
 7943POPC   C4A38802  16.742  39.986   7.353
 7943POPC   C1B38803  16.726  40.275   6.453
 7943POPC   C2B38804  16.758  40.258   6.753
 7943POPC   C3B38805  16.671  40.276   7.053
 7943POPC   C4B38806  16.688  40.294   7.353
 7944POPC   NC338807  41.582  21.361   5.553
 7944POPC   PO438808  41.556  21.431   5.853
 7944POPC   GL138809  41.597  21.368   6.153
 7944POPC   GL238810  41.402  21.337   6.153
 7944POPC   C1A38811  41.566  21.418   6.453
 7944POPC   D2A38812  41.551  21.402   6.753
 7944POPC   C3A38813  41.523  21.396   7.053
 7944POPC   C4A38814  41.554  21.424   7.353
 7944POPC   C1B38815  41.320  21.412   6.453
 7944POPC   C2B38816  41.279  21.341   6.753
 7944POPC   C3B38817  41.278  21.336   7.053
 7944POPC   C4B38818  41.325  21.366   7.353
 7945POPC   NC338819  27.562  12.100   5.553
 7945POPC   PO438820  27.624  12.073   5.853
 7945POPC   GL138821  27.565  12.058   6.153
 7945POPC   GL238822  27.636  12.195   6.153
 7945POPC   C1A38823  27.582  12.049   6.453
 7945POPC   D2A38824  27.610  12.031   6.753
 7945POPC   C3A38825  27.566  12.094   7.053
 7945POPC   C4A38826  27.618  12.033   7.353
 7945POPC   C1B38827  27.773  12.241   6.453
 7945POPC   C2B38828  27.723  12.320   6.753
 7945POPC   C3B38829  27.693  12.303   7.053
 7945POPC   C4B38830  27.734  12.337   7.353
 7946POPC   NC338831  14.355   4.349   5.553
 7946POPC   PO438832  14.422   4.327   5.853
 7946POPC   GL138833  14.402   4.297   6.153
 7946POPC   GL238834  14.559   4.277   6.153
 7946POPC   C1A38835  14.438   4.313   6.453
 7946POPC   D2A38836  14.396   4.283   6.753
 7946POPC   C3A38837  14.437   4.353   7.053
 7946POPC   C4A38838  14.451   4.281   7.353
 7946POPC   C1B38839  14.641   4.347   6.453
 7946POPC   C2B38840  14.620   4.271   6.753
 7946POPC   C3B38841  14.654   4.341   7.053
 7946POPC   C4B38842  14.688   4.316   7.353
 7947POPC   NC338843  36.136   3.530   5.553
 7947POPC   PO438844  36.165   3.581   5.853
 7947POPC   GL138845  36.129   3.514   6.153
 7947POPC   GL238846  36.093   3.394   6.153
 7947POPC   C1A38847  36.135   3.585   6.453
 7947POPC   D2A38848  36.122   3.499   6.753
 7947POPC   C3A38849  36.091   3.532   7.053
 7947POPC   C4A38850  36.114   3.534   7.353
 7947POPC   C1B38851  36.071   3.292   6.453
 7947POPC   C2B38852  36.041   3.263   6.753
 7947POPC   C3B38853  36.092   3.268   7.053
 7947POPC   C4B38854  36.077   3.334   7.353
 7948POPC   NC338855  18.305   6.618   5.553
 7948POPC   PO438856  18.262   6.629   5.853
 7948POPC   GL138857  18.299   6.605   6.153
 7948POPC   GL238858  18.221   6.753   6.153
 7948POPC   C1A38859  18.305   6.671   6.453
 7948POPC   D2A38860  18.322   6.598   6.753
 7948POPC   C3A38861  18.245   6.614   7.053
 7948POPC   C4A38862  18.327   6.651   7.353
 7948POPC   C1B38863  18.086   6.820   6.453
 7948POPC   C2B38864  18.103   6.727   6.753
 7948POPC   C3B38865  18.091   6.756   7.053
 7948POPC   C4B38866  18.027   6.793   7.353
 7949POPC   NC338867   1.201  34.526   5.553
 7949POPC   PO438868   1.232  34.582   5.853
 7949POPC   GL138869   1.169  34.580   6.153
 7949POPC   GL238870   1.155  34.671   6.153
 7949POPC   C1A38871   1.181  34.583   6.453
 7949POPC   D2A38872   1.249  34.623   6.753
 7949POPC   C3A38873   1.180  34.566   7.053
 7949POPC   C4A38874   1.207  34.591   7.353
 7949POPC   C1B38875   1.127  34.764   6.453
 7949POPC   C2B38876   1.131  34.833   6.753
 7949POPC   C3B38877   1.136  34.790   7.053
 7949POPC   C4B38878   1.147  34.778   7.353
 7950POPC   NC338879   5.880  15.199   5.553
 7950POPC   PO438880   5.837  15.211   5.853
 7950POPC   GL138881   5.878  15.162   6.153
 7950POPC   GL238882   5.789  15.086   6.153
 7950POPC   C1A38883   5.909  15.176   6.453
 7950POPC   D2A38884   5.918  15.144   6.753
 7950POPC   C3A38885   5.907  15.217   7.053
 7950POPC   C4A38886   5.833  15.228   7.353
 7950POPC   C1B38887   5.839  14.942   6.453
 7950POPC   C2B38888   5.804  14.928   6.753
 7950POPC   C3B38889   5.776  14.922   7.053
 7950POPC   C4B38890   5.791  14.899   7.353
 7951POPC   NC338891  19.830  26.791   5.553
 7951POPC   PO438892  19.812  26.822   5.853
 7951POPC   GL138893  19.818  26.816   6.153
 7951POPC   GL238894  19.822  26.697   6.153
 7951POPC   C1A38895  19.828  26.809   6.453
 7951POPC   D2A38896  19.796  26.844   6.753
 7951POPC   C3A38897  19.819  26.770   7.053
 7951POPC   C4A38898  19.824  26.771   7.353
 7951POPC   C1B38899  19.713  26.613   6.453
 7951POPC   C2B38900  19.766  26.555   6.753
 7951POPC   C3B38901  19.748  26.613   7.053
 7951POPC   C4B38902  19.766  26.576   7.353
 7952POPC   NC338903  21.429  33.752   5.553
 7952POPC   PO438904  21.342  33.775   5.853
 7952POPC   GL138905  21.401  33.757   6.153
 7952POPC   GL238906  21.312  33.780   6.153
 7952POPC   C1A38907  21.366  33.779   6.453
 7952POPC   D2A38908  21.423  33.808   6.753
 7952POPC   C3A38909  21.420  33.823   7.053
 7952POPC   C4A38910  21.382  33.803   7.353
 7952POPC   C1B38911  21.116  33.890   6.453
 7952POPC   C2B38912  21.102  33.817   6.753
 7952POPC   C3B38913  21.131  33.839   7.053
 7952POPC   C4B38914  21.141  33.846   7.353
 7953POPC   NC338915  42.299   9.796   5.553
 7953POPC   PO438916  42.302   9.793   5.853
 7953POPC   GL138917  42.357   9.782   6.153
 7953POPC   GL238918  42.362   9.603   6.153
 7953POPC   C1A38919  42.335   9.789   6.453
 7953POPC   D2A38920  42.334   9.769   6.753
 7953POPC   C3A38921  42.331   9.730   7.053
 7953POPC   C4A38922  42.327   9.765   7.353
 7953POPC   C1B38923  42.331   9.461   6.453
 7953POPC   C2B38924  42.289   9.480   6.753
 7953POPC   C3B38925  42.321   9.543   7.053
 7953POPC   C4B38926  42.285   9.544   7.353
 7954POPC   NC338927   7.389   8.957   5.553
 7954POPC   PO438928   7.449   9.018   5.853
 7954POPC   GL138929   7.398   9.013   6.153
 7954POPC   GL238930   7.529   8.914   6.153
 7954POPC   C1A38931   7.388   8.943   6.453
 7954POPC   D2A38932   7.387   9.000   6.753
 7954POPC   C3A38933   7.403   8.947   7.053
 7954POPC   C4A38934   7.376   9.005   7.353
 7954POPC   C1B38935   7.640   8.929   6.453
 7954POPC   C2B38936   7.645   8.934   6.753
 7954POPC   C3B38937   7.700   8.878   7.053
 7954POPC   C4B38938   7.667   8.864   7.353
 7955POPC   NC338939   8.163  15.142   5.553
 7955POPC   PO438940   8.178  15.165   5.853
 7955POPC   GL138941   8.230  15.157   6.153
 7955POPC   GL238942   8.300  15.112   6.153
 7955POPC   C1A38943   8.225  15.142   6.453
 7955POPC   D2A38944   8.164  15.218   6.753
 7955POPC   C3A38945   8.207  15.145   7.053
 7955POPC   C4A38946   8.151  15.209   7.353
 7955POPC   C1B38947   8.417  14.979   6.453
 7955POPC   C2B38948   8.348  15.005   6.753
 7955POPC   C3B38949   8.416  14.962   7.053
 7955POPC   C4B38950   8.414  15.012   7.353
 7956POPC   NC338951  33.758  30.663   5.553
 7956POPC   PO438952  33.751  30.697   5.853
 7956POPC   GL138953  33.814  30.706   6.153
 7956POPC   GL238954  33.879  30.651   6.153
 7956POPC   C1A38955  33.787  30.692   6.453
 7956POPC   D2A38956  33.845  30.652   6.753
 7956POPC   C3A38957  33.764  30.697   7.053
 7956POPC   C4A38958  33.788  30.696   7.353
 7956POPC   C1B38959  34.029  30.631   6.453
 7956POPC   C2B38960  34.013  30.613   6.753
 7956POPC   C3B38961  34.024  30.602   7.053
 7956POPC   C4B38962  34.076  30.631   7.353
 7957POPC   NC338963   8.975  40.768   5.553
 7957POPC   PO438964   8.970  40.783   5.853
 7957POPC   GL138965   8.984  40.745   6.153
 7957POPC   GL238966   9.037  40.916   6.153
 7957POPC   C1A38967   8.944  40.802   6.453
 7957POPC   D2A38968   8.951  40.826   6.753
 7957POPC   C3A38969   9.010  40.762   7.053
 7957POPC   C4A38970   8.972  40.814   7.353
 7957POPC   C1B38971   9.127  41.010   6.453
 7957POPC   C2B38972   9.125  40.953   6.753
 7957POPC   C3B38973   9.068  41.024   7.053
 7957POPC   C4B38974   9.086  41.004   7.353
 7958POPC   NC338975  44.660  12.037   5.553
 7958POPC   PO438976  44.646  12.031   5.853
 7958POPC   GL138977  44.664  12.071   6.153
 7958POPC   GL238978  44.542  12.136   6.153
 7958POPC   C1A38979  44.639  12.091   6.453
 7958POPC   D2A38980  44.699  12.080   6.753
 7958POPC   C3A38981  44.684  12.051   7.053
 7958POPC   C4A38982  44.633  12.082   7.353
 7958POPC   C1B38983  44.466  12.188   6.453
 7958POPC   C2B38984  44.473  12.166   6.753
 7958POPC   C3B38985  44.414  12.192   7.053
 7958POPC   C4B38986  44.418  12.148   7.353
 7959POPC   NC338987  42.317  37.712   5.553
 7959POPC   PO438988  42.310  37.657   5.853
 7959POPC   GL138989  42.340  37.648   6.153
 7959POPC   GL238990  42.228  37.636   6.153
 7959POPC   C1A38991  42.377  37.667   6.453
 7959POPC   D2A38992  42.325  37.707   6.753
 7959POPC   C3A38993  42.325  37.650   7.053
 7959POPC   C4A38994  42.303  37.684   7.353
 7959POPC   C1B38995  42.071  37.649   6.453
 7959POPC   C2B38996  42.078  37.593   6.753
 7959POPC   C3B38997  42.137  37.607   7.053
 7959POPC   C4B38998  42.089  37.587   7.353
 7960POPC   NC338999  16.747  44.668   5.553
 7960POPC   PO439000  16.686  44.660   5.853
 7960POPC   GL139001  16.690  44.643   6.153
 7960POPC   GL239002  16.790  44.761   6.153
 7960POPC   C1A39003  16.727  44.675   6.453
 7960POPC   D2A39004  16.745  44.632   6.753
 7960POPC   C3A39005  16.737  44.695   7.053
 7960POPC   C4A39006  16.696  44.646   7.353
 7960POPC   C1B39007  16.887  44.855   6.453
 7960POPC   C2B39008  16.889  44.799   6.753
 7960POPC   C3B39009  16.961  44.799   7.053
 7960POPC   C4B39010  16.863  44.841   7.353
 7961POPC   NC339011  32.283   0.456   5.553
 7961POPC   PO439012  32.290   0.429   5.853
 7961POPC   GL139013  32.260   0.443   6.153
 7961POPC   GL239014  32.221   0.328   6.153
 7961POPC   C1A39015  32.269   0.406   6.453
 7961POPC   D2A39016  32.290   0.471   6.753
 7961POPC   C3A39017  32.233   0.446   7.053
 7961POPC   C4A39018  32.219   0.421   7.353
 7961POPC   C1B39019  32.176   0.167   6.453
 7961POPC   C2B39020  32.171   0.171   6.753
 7961POPC   C3B39021  32.203   0.246   7.053
 7961POPC   C4B39022  32.173   0.241   7.353
 7962POPC   NC339023  33.814   6.647   5.553
 7962POPC   PO439024  33.792   6.629   5.853
 7962POPC   GL139025  33.777   6.638   6.153
 7962POPC   GL239026  33.886   6.518   6.153
 7962POPC   C1A39027  33.763   6.668   6.453
 7962POPC   D2A39028  33.779   6.685   6.753
 7962POPC   C3A39029  33.825   6.671   7.053
 7962POPC   C4A39030  33.827   6.639   7.353
 7962POPC   C1B39031  33.951   6.480   6.453
 7962POPC   C2B39032  33.956   6.460   6.753
 7962POPC   C3B39033  33.978   6.422   7.053
 7962POPC   C4B39034  33.989   6.425   7.353
 7963POPC   NC339035  21.384  31.445   5.553
 7963POPC   PO439036  21.421  31.512   5.853
 7963POPC   GL139037  21.373  31.508   6.153
 7963POPC   GL239038  21.476  31.590   6.153
 7963POPC   C1A39039  21.358  31.464   6.453
 7963POPC   D2A39040  21.422  31.461   6.753
 7963POPC   C3A39041  21.430  31.484   7.053
 7963POPC   C4A39042  21.363  31.433   7.353
 7963POPC   C1B39043  21.469  31.744   6.453
 7963POPC   C2B39044  21.516  31.647   6.753
 7963POPC   C3B39045  21.473  31.671   7.053
 7963POPC   C4B39046  21.535  31.727   7.353
 7964POPC   NC339047  31.497   4.276   5.553
 7964POPC   PO439048  31.433   4.290   5.853
 7964POPC   GL139049  31.454   4.350   6.153
 7964POPC   GL239050  31.624   4.370   6.153
 7964POPC   C1A39051  31.424   4.276   6.453
 7964POPC   D2A39052  31.482   4.299   6.753
 7964POPC   C3A39053  31.460   4.352   7.053
 7964POPC   C4A39054  31.480   4.306   7.353
 7964POPC   C1B39055  31.769   4.335   6.453
 7964POPC   C2B39056  31.768   4.297   6.753
 7964POPC   C3B39057  31.767   4.303   7.053
 7964POPC   C4B39058  31.752   4.323   7.353
 7965POPC   NC339059  32.288  40.024   5.553
 7965POPC   PO439060  32.276  40.010   5.853
 7965POPC   GL139061  32.239  39.997   6.153
 7965POPC   GL239062  32.107  40.121   6.153
 7965POPC   C1A39063  32.228  39.980   6.453
 7965POPC   D2A39064  32.269  39.971   6.753
 7965POPC   C3A39065  32.205  40.036   7.053
 7965POPC   C4A39066  32.284  40.046   7.353
 7965POPC   C1B39067  32.044  40.102   6.453
 7965POPC   C2B39068  32.011  40.105   6.753
 7965POPC   C3B39069  32.060  40.144   7.053
 7965POPC   C4B39070  32.036  40.151   7.353
 7966POPC   NC339071  35.351  11.328   5.553
 7966POPC   PO439072  35.347  11.283   5.853
 7966POPC   GL139073  35.335  11.288   6.153
 7966POPC   GL239074  35.521  11.347   6.153
 7966POPC   C1A39075  35.390  11.341   6.453
 7966POPC   D2A39076  35.340  11.253   6.753
 7966POPC   C3A39077  35.393  11.259   7.053
 7966POPC   C4A39078  35.385  11.257   7.353
 7966POPC   C1B39079  35.605  11.359   6.453
 7966POPC   C2B39080  35.601  11.365   6.753
 7966POPC   C3B39081  35.581  11.349   7.053
 7966POPC   C4B39082  35.629  11.393   7.353
 7967POPC   NC339083  43.874  16.741   5.553
 7967POPC   PO439084  43.925  16.688   5.853
 7967POPC   GL139085  43.901  16.691   6.153
 7967POPC   GL239086  43.910  16.639   6.153
 7967POPC   C1A39087  43.892  16.689   6.453
 7967POPC   D2A39088  43.852  16.766   6.753
 7967POPC   C3A39089  43.870  16.774   7.053
 7967POPC   C4A39090  43.907  16.773   7.353
 7967POPC   C1B39091  43.803  16.439   6.453
 7967POPC   C2B39092  43.789  16.474   6.753
 7967POPC   C3B39093  43.851  16.480   7.053
 7967POPC   C4B39094  43.834  16.474   7.353
 7968POPC   NC339095  35.312  21.338   5.553
 7968POPC   PO439096  35.401  21.414   5.853
 7968POPC   GL139097  35.351  21.389   6.153
 7968POPC   GL239098  35.465  21.437   6.153
 7968POPC   C1A39099  35.312  21.414   6.453
 7968POPC   D2A39100  35.303  21.421   6.753
 7968POPC   C3A39101  35.365  21.361   7.053
 7968POPC   C4A39102  35.335  21.401   7.353
 7968POPC   C1B39103  35.580  21.501   6.453
 7968POPC   C2B39104  35.608  21.460   6.753
 7968POPC   C3B39105  35.571  21.522   7.053
 7968POPC   C4B39106  35.560  21.516   7.353
 7969POPC   NC339107  21.344  35.377   5.553
 7969POPC   PO439108  21.356  35.334   5.853
 7969POPC   GL139109  21.434  35.364   6.153
 7969POPC   GL239110  21.299  35.224   6.153
 7969POPC   C1A39111  21.430  35.346   6.453
 7969POPC   D2A39112  21.337  35.341   6.753
 7969POPC   C3A39113  21.398  35.302   7.053
 7969POPC   C4A39114  21.393  35.394   7.353
 7969POPC   C1B39115  21.176  35.142   6.453
 7969POPC   C2B39116  21.183  35.168   6.753
 7969POPC   C3B39117  21.171  35.184   7.053
 7969POPC   C4B39118  21.180  35.156   7.353
 7970POPC   NC339119  33.031   6.695   5.553
 7970POPC   PO439120  33.043   6.694   5.853
 7970POPC   GL139121  33.021   6.603   6.153
 7970POPC   GL239122  33.001   6.561   6.153
 7970POPC   C1A39123  33.020   6.623   6.453
 7970POPC   D2A39124  32.985   6.600   6.753
 7970POPC   C3A39125  32.992   6.635   7.053
 7970POPC   C4A39126  33.033   6.631   7.353
 7970POPC   C1B39127  32.861   6.413   6.453
 7970POPC   C2B39128  32.918   6.439   6.753
 7970POPC   C3B39129  32.883   6.460   7.053
 7970POPC   C4B39130  32.865   6.390   7.353
 7971POPC   NC339131  10.570  29.163   5.553
 7971POPC   PO439132  10.487  29.109   5.853
 7971POPC   GL139133  10.573  29.162   6.153
 7971POPC   GL239134  10.546  29.004   6.153
 7971POPC   C1A39135  10.511  29.172   6.453
 7971POPC   D2A39136  10.497  29.144   6.753
 7971POPC   C3A39137  10.561  29.170   7.053
 7971POPC   C4A39138  10.505  29.111   7.353
 7971POPC   C1B39139  10.582  28.900   6.453
 7971POPC   C2B39140  10.544  28.906   6.753
 7971POPC   C3B39141  10.578  28.867   7.053
 7971POPC   C4B39142  10.565  28.905   7.353
 7972POPC   NC339143  43.096  16.700   5.553
 7972POPC   PO439144  43.121  16.707   5.853
 7972POPC   GL139145  43.158  16.743   6.153
 7972POPC   GL239146  43.034  16.760   6.153
 7972POPC   C1A39147  43.077  16.713   6.453
 7972POPC   D2A39148  43.106  16.707   6.753
 7972POPC   C3A39149  43.093  16.765   7.053
 7972POPC   C4A39150  43.132  16.760   7.353
 7972POPC   C1B39151  42.845  16.773   6.453
 7972POPC   C2B39152  42.831  16.760   6.753
 7972POPC   C3B39153  42.905  16.807   7.053
 7972POPC   C4B39154  42.836  16.732   7.353
 7973POPC   NC339155  30.658  20.589   5.553
 7973POPC   PO439156  30.688  20.630   5.853
 7973POPC   GL139157  30.704  20.611   6.153
 7973POPC   GL239158  30.676  20.748   6.153
 7973POPC   C1A39159  30.667  20.588   6.453
 7973POPC   D2A39160  30.700  20.587   6.753
 7973POPC   C3A39161  30.714  20.575   7.053
 7973POPC   C4A39162  30.684  20.652   7.353
 7973POPC   C1B39163  30.631  20.862   6.453
 7973POPC   C2B39164  30.638  20.898   6.753
 7973POPC   C3B39165  30.606  20.812   7.053
 7973POPC   C4B39166  30.590  20.897   7.353
 7974POPC   NC339167   2.782  20.565   5.553
 7974POPC   PO439168   2.746  20.611   5.853
 7974POPC   GL139169   2.769  20.637   6.153
 7974POPC   GL239170   2.706  20.493   6.153
 7974POPC   C1A39171   2.758  20.571   6.453
 7974POPC   D2A39172   2.755  20.578   6.753
 7974POPC   C3A39173   2.729  20.620   7.053
 7974POPC   C4A39174   2.785  20.648   7.353
 7974POPC   C1B39175   2.600  20.368   6.453
 7974POPC   C2B39176   2.581  20.386   6.753
 7974POPC   C3B39177   2.596  20.411   7.053
 7974POPC   C4B39178   2.579  20.443   7.353
 7975POPC   NC339179  32.240  24.513   5.553
 7975POPC   PO439180  32.228  24.474   5.853
 7975POPC   GL139181  32.208  24.502   6.153
 7975POPC   GL239182  32.155  24.583   6.153
 7975POPC   C1A39183  32.259  24.464   6.453
 7975POPC   D2A39184  32.266  24.480   6.753
 7975POPC   C3A39185  32.284  24.478   7.053
 7975POPC   C4A39186  32.292  24.445   7.353
 7975POPC   C1B39187  32.032  24.715   6.453
 7975POPC   C2B39188  32.099  24.708   6.753
 7975POPC   C3B39189  32.100  24.641   7.053
 7975POPC   C4B39190  32.108  24.646   7.353
 7976POPC   NC339191  20.612  15.943   5.553
 7976POPC   PO439192  20.629  15.955   5.853
 7976POPC   GL139193  20.656  15.928   6.153
 7976POPC   GL239194  20.743  16.032   6.153
 7976POPC   C1A39195  20.626  15.906   6.453
 7976POPC   D2A39196  20.646  15.953   6.753
 7976POPC   C3A39197  20.622  15.908   7.053
 7976POPC   C4A39198  20.619  15.959   7.353
 7976POPC   C1B39199  20.791  16.159   6.453
 7976POPC   C2B39200  20.770  16.154   6.753
 7976POPC   C3B39201  20.815  16.189   7.053
 7976POPC   C4B39202  20.818  16.134   7.353
 7977POPC   NC339203  15.932  37.683   5.553
 7977POPC   PO439204  15.912  37.673   5.853
 7977POPC   GL139205  15.912  37.637   6.153
 7977POPC   GL239206  15.972  37.791   6.153
 7977POPC   C1A39207  15.981  37.705   6.453
 7977POPC   D2A39208  16.003  37.638   6.753
 7977POPC   C3A39209  15.998  37.699   7.053
 7977POPC   C4A39210  15.997  37.704   7.353
 7977POPC   C1B39211  16.126  37.873   6.453
 7977POPC   C2B39212  16.034  37.849   6.753
 7977POPC   C3B39213  16.041  37.862   7.053
 7977POPC   C4B39214  16.109  37.856   7.353
 7978POPC   NC339215  41.519   1.179   5.553
 7978POPC   PO439216  41.525   1.231   5.853
 7978POPC   GL139217  41.557   1.263   6.153
 7978POPC   GL239218  41.567   1.303   6.153
 7978POPC   C1A39219  41.560   1.235   6.453
 7978POPC   D2A39220  41.574   1.225   6.753
 7978POPC   C3A39221  41.577   1.234   7.053
 7978POPC   C4A39222  41.558   1.186   7.353
 7978POPC   C1B39223  41.537   1.444   6.453
 7978POPC   C2B39224  41.512   1.443   6.753
 7978POPC   C3B39225  41.509   1.440   7.053
 7978POPC   C4B39226  41.541   1.510   7.353
 7979POPC   NC339227  15.951   2.806   5.553
 7979POPC   PO439228  16.000   2.766   5.853
 7979POPC   GL139229  15.991   2.797   6.153
 7979POPC   GL239230  15.811   2.726   6.153
 7979POPC   C1A39231  15.929   2.716   6.453
 7979POPC   D2A39232  15.991   2.718   6.753
 7979POPC   C3A39233  15.987   2.801   7.053
 7979POPC   C4A39234  15.926   2.774   7.353
 7979POPC   C1B39235  15.680   2.675   6.453
 7979POPC   C2B39236  15.778   2.700   6.753
 7979POPC   C3B39237  15.743   2.697   7.053
 7979POPC   C4B39238  15.697   2.667   7.353
 7980POPC   NC339239  20.611  29.966   5.553
 7980POPC   PO439240  20.625  29.917   5.853
 7980POPC   GL139241  20.628  29.879   6.153
 7980POPC   GL239242  20.698  29.854   6.153
 7980POPC   C1A39243  20.587  29.951   6.453
 7980POPC   D2A39244  20.564  29.902   6.753
 7980POPC   C3A39245  20.593  29.944   7.053
 7980POPC   C4A39246  20.645  29.894   7.353
 7980POPC   C1B39247  20.854  29.755   6.453
 7980POPC   C2B39248  20.805  29.733   6.753
 7980POPC   C3B39249  20.867  29.763   7.053
 7980POPC   C4B39250  20.785  29.803   7.353
 7981POPC   NC339251  32.977   7.407   5.553
 7981POPC   PO439252  33.068   7.419   5.853
 7981POPC   GL139253  33.021   7.465   6.153
 7981POPC   GL239254  32.946   7.307   6.153
 7981POPC   C1A39255  32.997   7.428   6.453
 7981POPC   D2A39256  33.028   7.469   6.753
 7981POPC   C3A39257  32.986   7.417   7.053
 7981POPC   C4A39258  33.055   7.374   7.353
 7981POPC   C1B39259  32.922   7.235   6.453
 7981POPC   C2B39260  32.893   7.152   6.753
 7981POPC   C3B39261  32.949   7.232   7.053
 7981POPC   C4B39262  32.923   7.166   7.353
 7982POPC   NC339263  39.973  18.332   5.553
 7982POPC   PO439264  40.027  18.321   5.853
 7982POPC   GL139265  39.992  18.285   6.153
 7982POPC   GL239266  40.049  18.384   6.153
 7982POPC   C1A39267  40.008  18.324   6.453
 7982POPC   D2A39268  39.963  18.258   6.753
 7982POPC   C3A39269  40.056  18.244   7.053
 7982POPC   C4A39270  40.041  18.262   7.353
 7982POPC   C1B39271  40.027  18.500   6.453
 7982POPC   C2B39272  40.100  18.561   6.753
 7982POPC   C3B39273  40.095  18.546   7.053
 7982POPC   C4B39274  40.012  18.567   7.353
 7983POPC   NC339275  18.280   8.989   5.553
 7983POPC   PO439276  18.256   9.000   5.853
 7983POPC   GL139277  18.247   8.987   6.153
 7983POPC   GL239278  18.419   8.981   6.153
 7983POPC   C1A39279  18.320   9.006   6.453
 7983POPC   D2A39280  18.257   8.987   6.753
 7983POPC   C3A39281  18.244   8.996   7.053
 7983POPC   C4A39282  18.244   8.990   7.353
 7983POPC   C1B39283  18.582   8.972   6.453
 7983POPC   C2B39284  18.488   9.004   6.753
 7983POPC   C3B39285  18.514   8.990   7.053
 7983POPC   C4B39286  18.575   8.921   7.353
 7984POPC   NC339287  19.035  21.425   5.553
 7984POPC   PO439288  19.038  21.432   5.853
 7984POPC   GL139289  19.066  21.375   6.153
 7984POPC   GL239290  18.934  21.335   6.153
 7984POPC   C1A39291  19.082  21.401   6.453
 7984POPC   D2A39292  19.091  21.433   6.753
 7984POPC   C3A39293  19.043  21.354   7.053
 7984POPC   C4A39294  19.057  21.433   7.353
 7984POPC   C1B39295  18.820  21.294   6.453
 7984POPC   C2B39296  18.851  21.270   6.753
 7984POPC   C3B39297  18.847  21.322   7.053
 7984POPC   C4B39298  18.824  21.232   7.353
 7985POPC   NC339299   5.857   7.410   5.553
 7985POPC   PO439300   5.856   7.442   5.853
 7985POPC   GL139301   5.855   7.426   6.153
 7985POPC   GL239302   5.961   7.360   6.153
 7985POPC   C1A39303   5.843   7.430   6.453
 7985POPC   D2A39304   5.905   7.415   6.753
 7985POPC   C3A39305   5.917   7.422   7.053
 7985POPC   C4A39306   5.900   7.397   7.353
 7985POPC   C1B39307   6.054   7.205   6.453
 7985POPC   C2B39308   5.971   7.170   6.753
 7985POPC   C3B39309   5.976   7.250   7.053
 7985POPC   C4B39310   6.022   7.179   7.353
 7986POPC   NC339311  30.726  40.011   5.553
 7986POPC   PO439312  30.685  39.958   5.853
 7986POPC   GL139313  30.665  40.023   6.153
 7986POPC   GL239314  30.859  39.975   6.153
 7986POPC   C1A39315  30.696  39.961   6.453
 7986POPC   D2A39316  30.651  40.039   6.753
 7986POPC   C3A39317  30.652  40.021   7.053
 7986POPC   C4A39318  30.716  40.030   7.353
 7986POPC   C1B39319  30.940  39.956   6.453
 7986POPC   C2B39320  30.954  39.914   6.753
 7986POPC   C3B39321  30.948  39.933   7.053
 7986POPC   C4B39322  30.946  39.953   7.353
 7987POPC   NC339323  17.545  18.293   5.553
 7987POPC   PO439324  17.521  18.319   5.853
 7987POPC   GL139325  17.494  18.285   6.153
 7987POPC   GL239326  17.375  18.350   6.153
 7987POPC   C1A39327  17.501  18.283   6.453
 7987POPC   D2A39328  17.528  18.326   6.753
 7987POPC   C3A39329  17.488  18.289   7.053
 7987POPC   C4A39330  17.510  18.300   7.353
 7987POPC   C1B39331  17.256  18.400   6.453
 7987POPC   C2B39332  17.312  18.410   6.753
 7987POPC   C3B39333  17.281  18.390   7.053
 7987POPC   C4B39334  17.287  18.332   7.353
 7988POPC   NC339335   3.505   1.235   5.553
 7988POPC   PO439336   3.560   1.238   5.853
 7988POPC   GL139337   3.519   1.216   6.153
 7988POPC   GL239338   3.434   1.194   6.153
 7988POPC   C1A39339   3.590   1.237   6.453
 7988POPC   D2A39340   3.591   1.232   6.753
 7988POPC   C3A39341   3.514   1.233   7.053
 7988POPC   C4A39342   3.582   1.262   7.353
 7988POPC   C1B39343   3.294   1.251   6.453
 7988POPC   C2B39344   3.246   1.193   6.753
 7988POPC   C3B39345   3.305   1.207   7.053
 7988POPC   C4B39346   3.246   1.209   7.353
 7989POPC   NC339347   1.185  40.781   5.553
 7989POPC   PO439348   1.218  40.775   5.853
 7989POPC   GL139349   1.192  40.759   6.153
 7989POPC   GL239350   1.125  40.818   6.153
 7989POPC   C1A39351   1.236  40.782   6.453
 7989POPC   D2A39352   1.244  40.767   6.753
 7989POPC   C3A39353   1.187  40.808   7.053
 7989POPC   C4A39354   1.170  40.823   7.353
 7989POPC   C1B39355   0.937  40.845   6.453
 7989POPC   C2B39356   0.990  40.863   6.753
 7989POPC   C3B39357   0.924  40.872   7.053
 7989POPC   C4B39358   1.018  40.833   7.353
 7990POPC   NC339359  22.925  39.199   5.553
 7990POPC   PO439360  22.897  39.215   5.853
 7990POPC   GL139361  22.984  39.239   6.153
 7990POPC   GL239362  22.861  39.298   6.153
 7990POPC   C1A39363  22.933  39.259   6.453
 7990POPC   D2A39364  22.890  39.224   6.753
 7990POPC   C3A39365  22.897  39.240   7.053
 7990POPC   C4A39366  22.949  39.277   7.353
 7990POPC   C1B39367  22.865  39.447   6.453
 7990POPC   C2B39368  22.850  39.444   6.753
 7990POPC   C3B39369  22.795  39.413   7.053
 7990POPC   C4B39370  22.824  39.450   7.353
 7991POPC   NC339371  27.637  44.676   5.553
 7991POPC   PO439372  27.622  44.655   5.853
 7991POPC   GL139373  27.621  44.630   6.153
 7991POPC   GL239374  27.688  44.617   6.153
 7991POPC   C1A39375  27.591  44.683   6.453
 7991POPC   D2A39376  27.555  44.650   6.753
 7991POPC   C3A39377  27.642  44.699   7.053
 7991POPC   C4A39378  27.638  44.698   7.353
 7991POPC   C1B39379  27.772  44.503   6.453
 7991POPC   C2B39380  27.767  44.534   6.753
 7991POPC   C3B39381  27.793  44.595   7.053
 7991POPC   C4B39382  27.855  44.570   7.353
 7992POPC   NC339383   8.231  14.368   5.553
 7992POPC   PO439384   8.182  14.415   5.853
 7992POPC   GL139385   8.210  14.395   6.153
 7992POPC   GL239386   8.349  14.403   6.153
 7992POPC   C1A39387   8.225  14.363   6.453
 7992POPC   D2A39388   8.226  14.413   6.753
 7992POPC   C3A39389   8.164  14.356   7.053
 7992POPC   C4A39390   8.204  14.406   7.353
 7992POPC   C1B39391   8.490  14.469   6.453
 7992POPC   C2B39392   8.471  14.443   6.753
 7992POPC   C3B39393   8.450  14.480   7.053
 7992POPC   C4B39394   8.483  14.446   7.353
 7993POPC   NC339395  26.836  43.081   5.553
 7993POPC   PO439396  26.864  43.154   5.853
 7993POPC   GL139397  26.797  43.063   6.153
 7993POPC   GL239398  26.798  43.198   6.153
 7993POPC   C1A39399  26.783  43.132   6.453
 7993POPC   D2A39400  26.779  43.145   6.753
 7993POPC   C3A39401  26.768  43.122   7.053
 7993POPC   C4A39402  26.862  43.078   7.353
 7993POPC   C1B39403  26.824  43.399   6.453
 7993POPC   C2B39404  26.848  43.377   6.753
 7993POPC   C3B39405  26.843  43.338   7.053
 7993POPC   C4B39406  26.840  43.375   7.353
 7994POPC   NC339407  31.424  29.878   5.553
 7994POPC   PO439408  31.495  29.887   5.853
 7994POPC   GL139409  31.520  29.938   6.153
 7994POPC   GL239410  31.366  29.963   6.153
 7994POPC   C1A39411  31.518  29.909   6.453
 7994POPC   D2A39412  31.478  29.904   6.753
 7994POPC   C3A39413  31.470  29.946   7.053
 7994POPC   C4A39414  31.442  29.882   7.353
 7994POPC   C1B39415  31.180  29.940   6.453
 7994POPC   C2B39416  31.229  29.975   6.753
 7994POPC   C3B39417  31.194  29.973   7.053
 7994POPC   C4B39418  31.178  29.957   7.353
 7995POPC   NC339419  21.368  15.142   5.553
 7995POPC   PO439420  21.400  15.182   5.853
 7995POPC   GL139421  21.377  15.142   6.153
 7995POPC   GL239422  21.282  15.170   6.153
 7995POPC   C1A39423  21.421  15.173   6.453
 7995POPC   D2A39424  21.427  15.189   6.753
 7995POPC   C3A39425  21.419  15.208   7.053
 7995POPC   C4A39426  21.370  15.191   7.353
 7995POPC   C1B39427  21.168  15.183   6.453
 7995POPC   C2B39428  21.138  15.268   6.753
 7995POPC   C3B39429  21.094  15.259   7.053
 7995POPC   C4B39430  21.117  15.228   7.353
 7996POPC   NC339431  22.910  44.672   5.553
 7996POPC   PO439432  22.960  44.614   5.853
 7996POPC   GL139433  22.929  44.700   6.153
 7996POPC   GL239434  23.042  44.654   6.153
 7996POPC   C1A39435  22.961  44.621   6.453
 7996POPC   D2A39436  22.919  44.694   6.753
 7996POPC   C3A39437  22.894  44.645   7.053
 7996POPC   C4A39438  22.951  44.672   7.353
 7996POPC   C1B39439  23.148  44.668   6.453
 7996POPC   C2B39440  23.154  44.649   6.753
 7996POPC   C3B39441  23.187  44.586   7.053
 7996POPC   C4B39442  23.219  44.668   7.353
 7997POPC   NC339443   3.523  31.442   5.553
 7997POPC   PO439444   3.567  31.463   5.853
 7997POPC   GL139445   3.516  31.493   6.153
 7997POPC   GL239446   3.430  31.553   6.153
 7997POPC   C1A39447   3.561  31.490   6.453
 7997POPC   D2A39448   3.565  31.499   6.753
 7997POPC   C3A39449   3.568  31.437   7.053
 7997POPC   C4A39450   3.512  31.493   7.353
 7997POPC   C1B39451   3.356  31.632   6.453
 7997POPC   C2B39452   3.342  31.633   6.753
 7997POPC   C3B39453   3.384  31.649   7.053
 7997POPC   C4B39454   3.396  31.637   7.353
 7998POPC   NC339455  40.733  20.626   5.553
 7998POPC   PO439456  40.784  20.610   5.853
 7998POPC   GL139457  40.794  20.568   6.153
 7998POPC   GL239458  40.921  20.581   6.153
 7998POPC   C1A39459  40.821  20.576   6.453
 7998POPC   D2A39460  40.821  20.619   6.753
 7998POPC   C3A39461  40.754  20.621   7.053
 7998POPC   C4A39462  40.815  20.657   7.353
 7998POPC   C1B39463  40.996  20.531   6.453
 7998POPC   C2B39464  41.055  20.609   6.753
 7998POPC   C3B39465  41.067  20.600   7.053
 7998POPC   C4B39466  41.036  20.547   7.353
 7999POPC   NC339467  40.831  15.977   5.553
 7999POPC   PO439468  40.783  15.980   5.853
 7999POPC   GL139469  40.826  16.003   6.153
 7999POPC   GL239470  40.705  15.967   6.153
 7999POPC   C1A39471  40.772  15.959   6.453
 7999POPC   D2A39472  40.791  15.914   6.753
 7999POPC   C3A39473  40.786  15.957   7.053
 7999POPC   C4A39474  40.828  15.962   7.353
 7999POPC   C1B39475  40.515  16.117   6.453
 7999POPC   C2B39476  40.563  16.081   6.753
 7999POPC   C3B39477  40.549  16.103   7.053
 7999POPC   C4B39478  40.524  16.084   7.353
 8000POPC   NC339479   1.202  12.031   5.553
 8000POPC   PO439480   1.229  12.049   5.853
 8000POPC   GL139481   1.254  12.086   6.153
 8000POPC   GL239482   1.084  12.123   6.153
 8000POPC   C1A39483   1.244  12.124   6.453
 8000POPC   D2A39484   1.243  12.032   6.753
 8000POPC   C3A39485   1.202  12.048   7.053
 8000POPC   C4A39486   1.202  12.092   7.353
 8000POPC   C1B39487   0.922  12.129   6.453
 8000POPC   C2B39488   0.970  12.062   6.753
 8000POPC   C3B39489   0.988  12.108   7.053
 8000POPC   C4B39490   0.932  12.103   7.353
 8001POPC   NC339491  44.628  26.064   5.553
 8001POPC   PO439492  44.657  26.051   5.853
 8001POPC   GL139493  44.683  26.085   6.153
 8001POPC   GL239494  44.504  26.125   6.153
 8001POPC   C1A39495  44.645  26.025   6.453
 8001POPC   D2A39496  44.650  26.041   6.753
 8001POPC   C3A39497  44.662  26.038   7.053
 8001POPC   C4A39498  44.665  26.012   7.353
 8001POPC   C1B39499  44.384  26.134   6.453
 8001POPC   C2B39500  44.398  26.086   6.753
 8001POPC   C3B39501  44.387  26.155   7.053
 8001POPC   C4B39502  44.403  26.104   7.353
 8002POPC   NC339503  12.094  29.185   5.553
 8002POPC   PO439504  12.060  29.146   5.853
 8002POPC   GL139505  12.124  29.113   6.153
 8002POPC   GL239506  12.200  29.202   6.153
 8002POPC   C1A39507  12.050  29.158   6.453
 8002POPC   D2A39508  12.056  29.110   6.753
 8002POPC   C3A39509  12.104  29.159   7.053
 8002POPC   C4A39510  12.040  29.113   7.353
 8002POPC   C1B39511  12.300  29.219   6.453
 8002POPC   C2B39512  12.310  29.300   6.753
 8002POPC   C3B39513  12.297  29.284   7.053
 8002POPC   C4B39514  12.282  29.278   7.353
 8003POPC   NC339515   4.279  22.969   5.553
 8003POPC   PO439516   4.339  22.962   5.853
 8003POPC   GL139517   4.344  22.957   6.153
 8003POPC   GL239518   4.415  22.810   6.153
 8003POPC   C1A39519   4.332  22.915   6.453
 8003POPC   D2A39520   4.345  22.894   6.753
 8003POPC   C3A39521   4.362  22.888   7.053
 8003POPC   C4A39522   4.330  22.959   7.353
 8003POPC   C1B39523   4.509  22.778   6.453
 8003POPC   C2B39524   4.451  22.704   6.753
 8003POPC   C3B39525   4.488  22.773   7.053
 8003POPC   C4B39526   4.493  22.748   7.353
 8004POPC   NC339527   5.120   2.785   5.553
 8004POPC   PO439528   5.141   2.805   5.853
 8004POPC   GL139529   5.054   2.780   6.153
 8004POPC   GL239530   5.260   2.767   6.153
 8004POPC   C1A39531   5.081   2.807   6.453
 8004POPC   D2A39532   5.123   2.799   6.753
 8004POPC   C3A39533   5.122   2.758   7.053
 8004POPC   C4A39534   5.112   2.739   7.353
 8004POPC   C1B39535   5.390   2.839   6.453
 8004POPC   C2B39536   5.362   2.826   6.753
 8004POPC   C3B39537   5.300   2.749   7.053
 8004POPC   C4B39538   5.349   2.804   7.353
 8005POPC   NC339539  23.695  14.380   5.553
 8005POPC   PO439540  23.751  14.402   5.853
 8005POPC   GL139541  23.670  14.369   6.153
 8005POPC   GL239542  23.837  14.255   6.153
 8005POPC   C1A39543  23.743  14.412   6.453
 8005POPC   D2A39544  23.692  14.414   6.753
 8005POPC   C3A39545  23.752  14.357   7.053
 8005POPC   C4A39546  23.689  14.419   7.353
 8005POPC   C1B39547  23.893  14.252   6.453
 8005POPC   C2B39548  23.882  14.209   6.753
 8005POPC   C3B39549  23.862  14.224   7.053
 8005POPC   C4B39550  23.822  14.171   7.353
 8006POPC   NC339551   7.448  35.330   5.553
 8006POPC   PO439552   7.400  35.330   5.853
 8006POPC   GL139553   7.384  35.320   6.153
 8006POPC   GL239554   7.413  35.463   6.153
 8006POPC   C1A39555   7.467  35.399   6.453
 8006POPC   D2A39556   7.384  35.365   6.753
 8006POPC   C3A39557   7.470  35.325   7.053
 8006POPC   C4A39558   7.453  35.350   7.353
 8006POPC   C1B39559   7.446  35.603   6.453
 8006POPC   C2B39560   7.455  35.651   6.753
 8006POPC   C3B39561   7.431  35.627   7.053
 8006POPC   C4B39562   7.462  35.570   7.353
 8007POPC   NC339563   5.904  19.870   5.553
 8007POPC   PO439564   5.829  19.839   5.853
 8007POPC   GL139565   5.833  19.868   6.153
 8007POPC   GL239566   5.894  19.948   6.153
 8007POPC   C1A39567   5.892  19.879   6.453
 8007POPC   D2A39568   5.876  19.859   6.753
 8007POPC   C3A39569   5.827  19.790   7.053
 8007POPC   C4A39570   5.838  19.832   7.353
 8007POPC   C1B39571   6.017  20.022   6.453
 8007POPC   C2B39572   6.028  20.024   6.753
 8007POPC   C3B39573   5.973  20.013   7.053
 8007POPC   C4B39574   5.986  20.085   7.353
 8008POPC   NC339575  24.446  31.446   5.553
 8008POPC   PO439576  24.455  31.485   5.853
 8008POPC   GL139577  24.448  31.515   6.153
 8008POPC   GL239578  24.638  31.378   6.153
 8008POPC   C1A39579  24.526  31.423   6.453
 8008POPC   D2A39580  24.444  31.426   6.753
 8008POPC   C3A39581  24.530  31.437   7.053
 8008POPC   C4A39582  24.535  31.496   7.353
 8008POPC   C1B39583  24.693  31.339   6.453
 8008POPC   C2B39584  24.730  31.369   6.753
 8008POPC   C3B39585  24.681  31.336   7.053
 8008POPC   C4B39586  24.675  31.299   7.353
 8009POPC   NC339587  22.174  32.284   5.553
 8009POPC   PO439588  22.168  32.254   5.853
 8009POPC   GL139589  22.166  32.290   6.153
 8009POPC   GL239590  22.104  32.336   6.153
 8009POPC   C1A39591  22.199  32.217   6.453
 8009POPC   D2A39592  22.150  32.229   6.753
 8009POPC   C3A39593  22.150  32.220   7.053
 8009POPC   C4A39594  22.114  32.291   7.353
 8009POPC   C1B39595  22.073  32.441   6.453
 8009POPC   C2B39596  22.071  32.481   6.753
 8009POPC   C3B39597  22.041  32.478   7.053
 8009POPC   C4B39598  22.038  32.431   7.353
 8010POPC   NC339599   6.620  13.632   5.553
 8010POPC   PO439600   6.659  13.593   5.853
 8010POPC   GL139601   6.672  13.613   6.153
 8010POPC   GL239602   6.551  13.632   6.153
 8010POPC   C1A39603   6.658  13.629   6.453
 8010POPC   D2A39604   6.636  13.616   6.753
 8010POPC   C3A39605   6.648  13.594   7.053
 8010POPC   C4A39606   6.635  13.599   7.353
 8010POPC   C1B39607   6.373  13.564   6.453
 8010POPC   C2B39608   6.370  13.552   6.753
 8010POPC   C3B39609   6.435  13.538   7.053
 8010POPC   C4B39610   6.451  13.578   7.353
 8011POPC   NC339611   8.205   5.821   5.553
 8011POPC   PO439612   8.202   5.864   5.853
 8011POPC   GL139613   8.192   5.876   6.153
 8011POPC   GL239614   8.182   6.015   6.153
 8011POPC   C1A39615   8.218   5.856   6.453
 8011POPC   D2A39616   8.244   5.833   6.753
 8011POPC   C3A39617   8.163   5.848   7.053
 8011POPC   C4A39618   8.241   5.826   7.353
 8011POPC   C1B39619   8.196   6.105   6.453
 8011POPC   C2B39620   8.153   6.095   6.753
 8011POPC   C3B39621   8.224   6.079   7.053
 8011POPC   C4B39622   8.207   6.099   7.353
 8012POPC   NC339623  19.790  27.612   5.553
 8012POPC   PO439624  19.841  27.596   5.853
 8012POPC   GL139625  19.884  27.590   6.153
 8012POPC   GL239626  19.807  27.443   6.153
 8012POPC   C1A39627  19.820  27.611   6.453
 8012POPC   D2A39628  19.810  27.639   6.753
 8012POPC   C3A39629  19.843  27.553   7.053
 8012POPC   C4A39630  19.802  27.577   7.353
 8012POPC   C1B39631  19.760  27.332   6.453
 8012POPC   C2B39632  19.754  27.369   6.753
 8012POPC   C3B39633  19.742  27.368   7.053
 8012POPC   C4B39634  19.797  27.313   7.353
 8013POPC   NC339635  23.754  21.418   5.553
 8013POPC   PO439636  23.740  21.401   5.853
 8013POPC   GL139637  23.692  21.344   6.153
 8013POPC   GL239638  23.620  21.358   6.153
 8013POPC   C1A39639  23.763  21.388   6.453
 8013POPC   D2A39640  23.731  21.374   6.753
 8013POPC   C3A39641  23.744  21.425   7.053
 8013POPC   C4A39642  23.705  21.415   7.353
 8013POPC   C1B39643  23.455  21.413   6.453
 8013POPC   C2B39644  23.428  21.451   6.753
 8013POPC   C3B39645  23.494  21.388   7.053
 8013POPC   C4B39646  23.507  21.378   7.353
 8014POPC   NC339647   4.347  37.690   5.553
 8014POPC   PO439648   4.323  37.658   5.853
 8014POPC   GL139649   4.320  37.638   6.153
 8014POPC   GL239650   4.345  37.789   6.153
 8014POPC   C1A39651   4.342  37.630   6.453
 8014POPC   D2A39652   4.270  37.682   6.753
 8014POPC   C3A39653   4.364  37.716   7.053
 8014POPC   C4A39654   4.308  37.689   7.353
 8014POPC   C1B39655   4.440  37.901   6.453
 8014POPC   C2B39656   4.434  37.930   6.753
 8014POPC   C3B39657   4.428  37.929   7.053
 8014POPC   C4B39658   4.392  37.945   7.353
 8015POPC   NC339659  19.868  23.749   5.553
 8015POPC   PO439660  19.801  23.700   5.853
 8015POPC   GL139661  19.838  23.751   6.153
 8015POPC   GL239662  19.668  23.751   6.153
 8015POPC   C1A39663  19.805  23.743   6.453
 8015POPC   D2A39664  19.786  23.696   6.753
 8015POPC   C3A39665  19.809  23.752   7.053
 8015POPC   C4A39666  19.867  23.733   7.353
 8015POPC   C1B39667  19.609  23.672   6.453
 8015POPC   C2B39668  19.569  23.655   6.753
 8015POPC   C3B39669  19.560  23.722   7.053
 8015POPC   C4B39670  19.593  23.665   7.353
 8016POPC   NC339671  43.891  36.146   5.553
 8016POPC   PO439672  43.879  36.164   5.853
 8016POPC   GL139673  43.927  36.104   6.153
 8016POPC   GL239674  43.784  36.102   6.153
 8016POPC   C1A39675  43.872  36.168   6.453
 8016POPC   D2A39676  43.931  36.151   6.753
 8016POPC   C3A39677  43.875  36.129   7.053
 8016POPC   C4A39678  43.868  36.150   7.353
 8016POPC   C1B39679  43.657  36.129   6.453
 8016POPC   C2B39680  43.684  36.139   6.753
 8016POPC   C3B39681  43.683  36.091   7.053
 8016POPC   C4B39682  43.659  36.112   7.353
 8017POPC   NC339683  30.723   5.887   5.553
 8017POPC   PO439684  30.675   5.848   5.853
 8017POPC   GL139685  30.717   5.840   6.153
 8017POPC   GL239686  30.576   5.961   6.153
 8017POPC   C1A39687  30.702   5.882   6.453
 8017POPC   D2A39688  30.687   5.892   6.753
 8017POPC   C3A39689  30.714   5.824   7.053
 8017POPC   C4A39690  30.701   5.903   7.353
 8017POPC   C1B39691  30.547   6.019   6.453
 8017POPC   C2B39692  30.560   6.066   6.753
 8017POPC   C3B39693  30.518   6.087   7.053
 8017POPC   C4B39694  30.571   6.037   7.353
 8018POPC   NC339695  32.290  43.908   5.553
 8018POPC   PO439696  32.267  43.882   5.853
 8018POPC   GL139697  32.258  43.899   6.153
 8018POPC   GL239698  32.372  43.866   6.153
 8018POPC   C1A39699  32.221  43.880   6.453
 8018POPC   D2A39700  32.271  43.854   6.753
 8018POPC   C3A39701  32.283  43.888   7.053
 8018POPC   C4A39702  32.204  43.857   7.353
 8018POPC   C1B39703  32.517  43.939   6.453
 8018POPC   C2B39704  32.458  43.862   6.753
 8018POPC   C3B39705  32.537  43.918   7.053
 8018POPC   C4B39706  32.490  43.933   7.353
 8019POPC   NC339707  19.786  25.286   5.553
 8019POPC   PO439708  19.871  25.274   5.853
 8019POPC   GL139709  19.841  25.291   6.153
 8019POPC   GL239710  19.934  25.259   6.153
 8019POPC   C1A39711  19.823  25.219   6.453
 8019POPC   D2A39712  19.843  25.249   6.753
 8019POPC   C3A39713  19.805  25.220   7.053
 8019POPC   C4A39714  19.846  25.263   7.353
 8019POPC   C1B39715  20.110  25.338   6.453
 8019POPC   C2B39716  20.036  25.314   6.753
 8019POPC   C3B39717  20.128  25.273   7.053
 8019POPC   C4B39718  20.040  25.315   7.353
 8020POPC   NC339719  16.752  21.408   5.553
 8020POPC   PO439720  16.698  21.342   5.853
 8020POPC   GL139721  16.773  21.357   6.153
 8020POPC   GL239722  16.743  21.481   6.153
 8020POPC   C1A39723  16.722  21.338   6.453
 8020POPC   D2A39724  16.763  21.419   6.753
 8020POPC   C3A39725  16.711  21.408   7.053
 8020POPC   C4A39726  16.777  21.407   7.353
 8020POPC   C1B39727  16.810  21.657   6.453
 8020POPC   C2B39728  16.880  21.595   6.753
 8020POPC   C3B39729  16.854  21.611   7.053
 8020POPC   C4B39730  16.857  21.606   7.353
 8021POPC   NC339731   5.138  37.649   5.553
 8021POPC   PO439732   5.118  37.676   5.853
 8021POPC   GL139733   5.080  37.708   6.153
 8021POPC   GL239734   5.126  37.775   6.153
 8021POPC   C1A39735   5.082  37.653   6.453
 8021POPC   D2A39736   5.047  37.699   6.753
 8021POPC   C3A39737   5.099  37.654   7.053
 8021POPC   C4A39738   5.047  37.656   7.353
 8021POPC   C1B39739   5.159  37.887   6.453
 8021POPC   C2B39740   5.123  37.929   6.753
 8021POPC   C3B39741   5.168  37.940   7.053
 8021POPC   C4B39742   5.150  37.926   7.353
 8022POPC   NC339743  27.569  41.533   5.553
 8022POPC   PO439744  27.620  41.575   5.853
 8022POPC   GL139745  27.611  41.607   6.153
 8022POPC   GL239746  27.553  41.493   6.153
 8022POPC   C1A39747  27.592  41.511   6.453
 8022POPC   D2A39748  27.638  41.532   6.753
 8022POPC   C3A39749  27.559  41.561   7.053
 8022POPC   C4A39750  27.586  41.603   7.353
 8022POPC   C1B39751  27.380  41.390   6.453
 8022POPC   C2B39752  27.459  41.356   6.753
 8022POPC   C3B39753  27.381  41.326   7.053
 8022POPC   C4B39754  27.383  41.344   7.353
 8023POPC   NC339755  14.431  36.172   5.553
 8023POPC   PO439756  14.411  36.103   5.853
 8023POPC   GL139757  14.388  36.104   6.153
 8023POPC   GL239758  14.497  36.236   6.153
 8023POPC   C1A39759  14.418  36.158   6.453
 8023POPC   D2A39760  14.431  36.109   6.753
 8023POPC   C3A39761  14.361  36.119   7.053
 8023POPC   C4A39762  14.397  36.177   7.353
 8023POPC   C1B39763  14.539  36.367   6.453
 8023POPC   C2B39764  14.468  36.326   6.753
 8023POPC   C3B39765  14.497  36.331   7.053
 8023POPC   C4B39766  14.479  36.370   7.353
 8024POPC   NC339767  44.641  13.652   5.553
 8024POPC   PO439768  44.616  13.645   5.853
 8024POPC   GL139769  44.657  13.666   6.153
 8024POPC   GL239770  44.594  13.484   6.153
 8024POPC   C1A39771  44.665  13.654   6.453
 8024POPC   D2A39772  44.667  13.665   6.753
 8024POPC   C3A39773  44.662  13.639   7.053
 8024POPC   C4A39774  44.665  13.677   7.353
 8024POPC   C1B39775  44.495  13.385   6.453
 8024POPC   C2B39776  44.549  13.380   6.753
 8024POPC   C3B39777  44.540  13.381   7.053
 8024POPC   C4B39778  44.523  13.420   7.353
 8025POPC   NC339779  43.884  13.602   5.553
 8025POPC   PO439780  43.847  13.660   5.853
 8025POPC   GL139781  43.894  13.615   6.153
 8025POPC   GL239782  43.939  13.725   6.153
 8025POPC   C1A39783  43.916  13.660   6.453
 8025POPC   D2A39784  43.922  13.620   6.753
 8025POPC   C3A39785  43.892  13.643   7.053
 8025POPC   C4A39786  43.930  13.584   7.353
 8025POPC   C1B39787  44.012  13.800   6.453
 8025POPC   C2B39788  44.017  13.831   6.753
 8025POPC   C3B39789  44.028  13.851   7.053
 8025POPC   C4B39790  44.019  13.764   7.353
 8026POPC   NC339791  13.598   2.718   5.553
 8026POPC   PO439792  13.581   2.783   5.853
 8026POPC   GL139793  13.593   2.785   6.153
 8026POPC   GL239794  13.743   2.833   6.153
 8026POPC   C1A39795  13.582   2.740   6.453
 8026POPC   D2A39796  13.659   2.750   6.753
 8026POPC   C3A39797  13.598   2.752   7.053
 8026POPC   C4A39798  13.663   2.776   7.353
 8026POPC   C1B39799  13.864   2.873   6.453
 8026POPC   C2B39800  13.792   2.859   6.753
 8026POPC   C3B39801  13.821   2.894   7.053
 8026POPC   C4B39802  13.838   2.896   7.353
 8027POPC   NC339803  19.089  35.374   5.553
 8027POPC   PO439804  19.080  35.342   5.853
 8027POPC   GL139805  19.026  35.310   6.153
 8027POPC   GL239806  19.036  35.219   6.153
 8027POPC   C1A39807  19.098  35.396   6.453
 8027POPC   D2A39808  19.049  35.379   6.753
 8027POPC   C3A39809  19.090  35.311   7.053
 8027POPC   C4A39810  19.027  35.398   7.353
 8027POPC   C1B39811  19.110  35.106   6.453
 8027POPC   C2B39812  19.054  35.068   6.753
 8027POPC   C3B39813  19.067  35.121   7.053
 8027POPC   C4B39814  19.052  35.138   7.353
 8028POPC   NC339815   9.742  22.148   5.553
 8028POPC   PO439816   9.708  22.117   5.853
 8028POPC   GL139817   9.738  22.117   6.153
 8028POPC   GL239818   9.868  22.173   6.153
 8028POPC   C1A39819   9.714  22.205   6.453
 8028POPC   D2A39820   9.764  22.170   6.753
 8028POPC   C3A39821   9.733  22.189   7.053
 8028POPC   C4A39822   9.760  22.187   7.353
 8028POPC   C1B39823   9.970  22.271   6.453
 8028POPC   C2B39824   9.982  22.220   6.753
 8028POPC   C3B39825   9.985  22.293   7.053
 8028POPC   C4B39826  10.010  22.261   7.353
 8029POPC   NC339827  39.200  16.724   5.553
 8029POPC   PO439828  39.255  16.729   5.853
 8029POPC   GL139829  39.203  16.723   6.153
 8029POPC   GL239830  39.133  16.805   6.153
 8029POPC   C1A39831  39.221  16.770   6.453
 8029POPC   D2A39832  39.238  16.719   6.753
 8029POPC   C3A39833  39.199  16.694   7.053
 8029POPC   C4A39834  39.207  16.767   7.353
 8029POPC   C1B39835  39.001  16.850   6.453
 8029POPC   C2B39836  38.997  16.882   6.753
 8029POPC   C3B39837  38.966  16.839   7.053
 8029POPC   C4B39838  39.031  16.821   7.353
 8030POPC   NC339839   4.362  21.422   5.553
 8030POPC   PO439840   4.359  21.392   5.853
 8030POPC   GL139841   4.333  21.359   6.153
 8030POPC   GL239842   4.218  21.541   6.153
 8030POPC   C1A39843   4.279  21.407   6.453
 8030POPC   D2A39844   4.347  21.424   6.753
 8030POPC   C3A39845   4.315  21.347   7.053
 8030POPC   C4A39846   4.335  21.431   7.353
 8030POPC   C1B39847   4.179  21.571   6.453
 8030POPC   C2B39848   4.203  21.611   6.753
 8030POPC   C3B39849   4.191  21.568   7.053
 8030POPC   C4B39850   4.245  21.635   7.353
 8031POPC   NC339851   7.415  12.074   5.553
 8031POPC   PO439852   7.419  12.111   5.853
 8031POPC   GL139853   7.403  12.087   6.153
 8031POPC   GL239854   7.314  12.047   6.153
 8031POPC   C1A39855   7.449  12.066   6.453
 8031POPC   D2A39856   7.377  12.066   6.753
 8031POPC   C3A39857   7.417  12.047   7.053
 8031POPC   C4A39858   7.433  12.092   7.353
 8031POPC   C1B39859   7.160  12.124   6.453
 8031POPC   C2B39860   7.222  12.098   6.753
 8031POPC   C3B39861   7.145  12.105   7.053
 8031POPC   C4B39862   7.139  12.121   7.353
 8032POPC   NC339863   2.770  33.840   5.553
 8032POPC   PO439864   2.781  33.822   5.853
 8032POPC   GL139865   2.782  33.843   6.153
 8032POPC   GL239866   2.725  33.691   6.153
 8032POPC   C1A39867   2.763  33.796   6.453
 8032POPC   D2A39868   2.719  33.792   6.753
 8032POPC   C3A39869   2.762  33.799   7.053
 8032POPC   C4A39870   2.739  33.829   7.353
 8032POPC   C1B39871   2.622  33.626   6.453
 8032POPC   C2B39872   2.622  33.625   6.753
 8032POPC   C3B39873   2.570  33.618   7.053
 8032POPC   C4B39874   2.629  33.577   7.353
 8033POPC   NC339875  19.063  22.917   5.553
 8033POPC   PO439876  19.078  22.932   5.853
 8033POPC   GL139877  19.038  22.908   6.153
 8033POPC   GL239878  19.079  22.781   6.153
 8033POPC   C1A39879  19.009  22.987   6.453
 8033POPC   D2A39880  19.062  22.977   6.753
 8033POPC   C3A39881  19.033  22.960   7.053
 8033POPC   C4A39882  19.106  22.975   7.353
 8033POPC   C1B39883  19.153  22.672   6.453
 8033POPC   C2B39884  19.172  22.745   6.753
 8033POPC   C3B39885  19.181  22.728   7.053
 8033POPC   C4B39886  19.159  22.761   7.353
 8034POPC   NC339887  15.973   4.296   5.553
 8034POPC   PO439888  15.945   4.342   5.853
 8034POPC   GL139889  15.968   4.323   6.153
 8034POPC   GL239890  16.036   4.325   6.153
 8034POPC   C1A39891  15.991   4.281   6.453
 8034POPC   D2A39892  15.910   4.345   6.753
 8034POPC   C3A39893  16.000   4.349   7.053
 8034POPC   C4A39894  15.986   4.290   7.353
 8034POPC   C1B39895  16.202   4.444   6.453
 8034POPC   C2B39896  16.202   4.421   6.753
 8034POPC   C3B39897  16.227   4.369   7.053
 8034POPC   C4B39898  16.188   4.381   7.353
 8035POPC   NC339899  40.812  21.409   5.553
 8035POPC   PO439900  40.788  21.356   5.853
 8035POPC   GL139901  40.768  21.362   6.153
 8035POPC   GL239902  40.824  21.511   6.153
 8035POPC   C1A39903  40.767  21.405   6.453
 8035POPC   D2A39904  40.744  21.407   6.753
 8035POPC   C3A39905  40.751  21.422   7.053
 8035POPC   C4A39906  40.773  21.406   7.353
 8035POPC   C1B39907  40.758  21.673   6.453
 8035POPC   C2B39908  40.794  21.657   6.753
 8035POPC   C3B39909  40.798  21.677   7.053
 8035POPC   C4B39910  40.761  21.589   7.353
 8036POPC   NC339911  12.901   3.538   5.553
 8036POPC   PO439912  12.851   3.577   5.853
 8036POPC   GL139913  12.877   3.588   6.153
 8036POPC   GL239914  12.682   3.552   6.153
 8036POPC   C1A39915  12.854   3.510   6.453
 8036POPC   D2A39916  12.803   3.534   6.753
 8036POPC   C3A39917  12.849   3.569   7.053
 8036POPC   C4A39918  12.855   3.573   7.353
 8036POPC   C1B39919  12.584   3.583   6.453
 8036POPC   C2B39920  12.573   3.589   6.753
 8036POPC   C3B39921  12.650   3.559   7.053
 8036POPC   C4B39922  12.646   3.606   7.353
 8037POPC   NC339923  44.670   1.173   5.553
 8037POPC   PO439924  44.670   1.239   5.853
 8037POPC   GL139925  44.667   1.227   6.153
 8037POPC   GL239926  44.778   1.212   6.153
 8037POPC   C1A39927  44.649   1.165   6.453
 8037POPC   D2A39928  44.626   1.217   6.753
 8037POPC   C3A39929  44.693   1.206   7.053
 8037POPC   C4A39930  44.710   1.167   7.353
 8037POPC   C1B39931  44.934   1.190   6.453
 8037POPC   C2B39932  44.891   1.167   6.753
 8037POPC   C3B39933  44.896   1.195   7.053
 8037POPC   C4B39934  44.917   1.132   7.353
 8038POPC   NC339935  19.021  18.301   5.553
 8038POPC   PO439936  19.053  18.253   5.853
 8038POPC   GL139937  19.079  18.322   6.153
 8038POPC   GL239938  19.006  18.202   6.153
 8038POPC   C1A39939  19.088  18.254   6.453
 8038POPC   D2A39940  19.092  18.234   6.753
 8038POPC   C3A39941  19.106  18.305   7.053
 8038POPC   C4A39942  19.084  18.242   7.353
 8038POPC   C1B39943  18.902  18.067   6.453
 8038POPC   C2B39944  18.982  18.039   6.753
 8038POPC   C3B39945  18.959  18.078   7.053
 8038POPC   C4B39946  18.975  18.076   7.353
 8039POPC   NC339947  21.380  29.191   5.553
 8039POPC   PO439948  21.397  29.139   5.853
 8039POPC   GL139949  21.338  29.149   6.153
 8039POPC   GL239950  21.239  29.100   6.153
 8039POPC   C1A39951  21.344  29.170   6.453
 8039POPC   D2A39952  21.396  29.147   6.753
 8039POPC   C3A39953  21.409  29.183   7.053
 8039POPC   C4A39954  21.347  29.179   7.353
 8039POPC   C1B39955  21.108  29.135   6.453
 8039POPC   C2B39956  21.156  29.174   6.753
 8039POPC   C3B39957  21.136  29.123   7.053
 8039POPC   C4B39958  21.126  29.138   7.353
 8040POPC   NC339959  22.944  26.865   5.553
 8040POPC   PO439960  22.986  26.842   5.853
 8040POPC   GL139961  22.971  26.775   6.153
 8040POPC   GL239962  23.028  26.897   6.153
 8040POPC   C1A39963  22.975  26.803   6.453
 8040POPC   D2A39964  22.907  26.788   6.753
 8040POPC   C3A39965  22.910  26.831   7.053
 8040POPC   C4A39966  22.937  26.858   7.353
 8040POPC   C1B39967  23.100  27.001   6.453
 8040POPC   C2B39968  23.101  26.932   6.753
 8040POPC   C3B39969  23.103  26.998   7.053
 8040POPC   C4B39970  23.097  26.939   7.353
 8041POPC   NC339971   0.428  12.889   5.553
 8041POPC   PO439972   0.392  12.836   5.853
 8041POPC   GL139973   0.481  12.893   6.153
 8041POPC   GL239974   0.550  12.809   6.153
 8041POPC   C1A39975   0.437  12.895   6.453
 8041POPC   D2A39976   0.406  12.897   6.753
 8041POPC   C3A39977   0.454  12.806   7.053
 8041POPC   C4A39978   0.439  12.846   7.353
 8041POPC   C1B39979   0.651  12.723   6.453
 8041POPC   C2B39980   0.658  12.784   6.753
 8041POPC   C3B39981   0.627  12.724   7.053
 8041POPC   C4B39982   0.634  12.686   7.353
 8042POPC   NC339983  31.500  19.807   5.553
 8042POPC   PO439984  31.466  19.849   5.853
 8042POPC   GL139985  31.484  19.833   6.153
 8042POPC   GL239986  31.469  19.679   6.153
 8042POPC   C1A39987  31.518  19.848   6.453
 8042POPC   D2A39988  31.493  19.882   6.753
 8042POPC   C3A39989  31.432  19.858   7.053
 8042POPC   C4A39990  31.505  19.862   7.353
 8042POPC   C1B39991  31.437  19.620   6.453
 8042POPC   C2B39992  31.383  19.623   6.753
 8042POPC   C3B39993  31.442  19.607   7.053
 8042POPC   C4B39994  31.456  19.603   7.353
 8043POPC   NC339995  39.999   9.766   5.553
 8043POPC   PO439996  40.027   9.751   5.853
 8043POPC   GL139997  40.008   9.710   6.153
 8043POPC   GL239998  39.917   9.709   6.153
 8043POPC   C1A39999  40.055   9.708   6.453
 8043POPC   D2A40000  40.011   9.781   6.753
 8043POPC   C3A40001  40.013   9.717   7.053
 8043POPC   C4A40002  40.016   9.757   7.353
 8043POPC   C1B40003  39.784   9.786   6.453
 8043POPC   C2B40004  39.759   9.789   6.753
 8043POPC   C3B40005  39.748   9.759   7.053
 8043POPC   C4B40006  39.774   9.720   7.353
 8044POPC   NC340007  37.661  12.096   5.553
 8044POPC   PO440008  37.637  12.043   5.853
 8044POPC   GL140009  37.686  12.067   6.153
 8044POPC   GL240010  37.846  12.079   6.153
 8044POPC   C1A40011  37.673  12.111   6.453
 8044POPC   D2A40012  37.648  12.029   6.753
 8044POPC   C3A40013  37.705  12.122   7.053
 8044POPC   C4A40014  37.698  12.080   7.353
 8044POPC   C1B40015  37.951  12.123   6.453
 8044POPC   C2B40016  37.970  12.094   6.753
 8044POPC   C3B40017  37.905  12.035   7.053
 8044POPC   C4B40018  37.911  12.029   7.353
 8045POPC   NC340019   0.404  34.601   5.553
 8045POPC   PO440020   0.430  34.583   5.853
 8045POPC   GL140021   0.482  34.536   6.153
 8045POPC   GL240022   0.365  34.635   6.153
 8045POPC   C1A40023   0.388  34.572   6.453
 8045POPC   D2A40024   0.449  34.554   6.753
 8045POPC   C3A40025   0.415  34.575   7.053
 8045POPC   C4A40026   0.484  34.603   7.353
 8045POPC   C1B40027   0.350  34.770   6.453
 8045POPC   C2B40028   0.350  34.810   6.753
 8045POPC   C3B40029   0.330  34.790   7.053
 8045POPC   C4B40030   0.255  34.765   7.353
 8046POPC   NC340031   9.734  10.530   5.553
 8046POPC   PO440032   9.769  10.480   5.853
 8046POPC   GL140033   9.729  10.539   6.153
 8046POPC   GL240034   9.607  10.508   6.153
 8046POPC   C1A40035   9.771  10.557   6.453
 8046POPC   D2A40036   9.711  10.481   6.753
 8046POPC   C3A40037   9.710  10.482   7.053
 8046POPC   C4A40038   9.771  10.554   7.353
 8046POPC   C1B40039   9.468  10.517   6.453
 8046POPC   C2B40040   9.518  10.593   6.753
 8046POPC   C3B40041   9.455  10.558   7.053
 8046POPC   C4B40042   9.525  10.580   7.353
 8047POPC   NC340043  42.357  19.092   5.553
 8047POPC   PO440044  42.379  19.073   5.853
 8047POPC   GL140045  42.289  19.104   6.153
 8047POPC   GL240046  42.483  19.033   6.153
 8047POPC   C1A40047  42.333  19.101   6.453
 8047POPC   D2A40048  42.309  19.058   6.753
 8047POPC   C3A40049  42.350  19.080   7.053
 8047POPC   C4A40050  42.383  19.045   7.353
 8047POPC   C1B40051  42.612  19.039   6.453
 8047POPC   C2B40052  42.566  19.060   6.753
 8047POPC   C3B40053  42.585  19.071   7.053
 8047POPC   C4B40054  42.576  19.074   7.353
 8048POPC   NC340055   8.938  28.384   5.553
 8048POPC   PO440056   8.932  28.411   5.853
 8048POPC   GL140057   8.998  28.414   6.153
 8048POPC   GL240058   9.060  28.248   6.153
 8048POPC   C1A40059   8.960  28.346   6.453
 8048POPC   D2A40060   8.935  28.414   6.753
 8048POPC   C3A40061   8.942  28.383   7.053
 8048POPC   C4A40062   8.986  28.377   7.353
 8048POPC   C1B40063   9.153  28.166   6.453
 8048POPC   C2B40064   9.213  28.185   6.753
 8048POPC   C3B40065   9.117  28.171   7.053
 8048POPC   C4B40066   9.133  28.246   7.353
 8049POPC   NC340067  26.801  29.132   5.553
 8049POPC   PO440068  26.803  29.172   5.853
 8049POPC   GL140069  26.818  29.118   6.153
 8049POPC   GL240070  26.659  29.058   6.153
 8049POPC   C1A40071  26.787  29.107   6.453
 8049POPC   D2A40072  26.813  29.188   6.753
 8049POPC   C3A40073  26.769  29.149   7.053
 8049POPC   C4A40074  26.828  29.127   7.353
 8049POPC   C1B40075  26.601  29.027   6.453
 8049POPC   C2B40076  26.546  29.023   6.753
 8049POPC   C3B40077  26.600  29.089   7.053
 8049POPC   C4B40078  26.558  29.051   7.353
 8050POPC   NC340079  18.333  28.329   5.553
 8050POPC   PO440080  18.243  28.327   5.853
 8050POPC   GL140081  18.235  28.378   6.153
 8050POPC   GL240082  18.213  28.245   6.153
 8050POPC   C1A40083  18.243  28.390   6.453
 8050POPC   D2A40084  18.271  28.371   6.753
 8050POPC   C3A40085  18.276  28.387   7.053
 8050POPC   C4A40086  18.322  28.399   7.353
 8050POPC   C1B40087  18.144  28.221   6.453
 8050POPC   C2B40088  18.087  28.167   6.753
 8050POPC   C3B40089  18.140  28.151   7.053
 8050POPC   C4B40090  18.165  28.210   7.353
 8051POPC   NC340091  19.101   8.148   5.553
 8051POPC   PO440092  19.073   8.165   5.853
 8051POPC   GL140093  19.045   8.160   6.153
 8051POPC   GL240094  19.192   8.210   6.153
 8051POPC   C1A40095  19.074   8.188   6.453
 8051POPC   D2A40096  19.070   8.226   6.753
 8051POPC   C3A40097  19.057   8.230   7.053
 8051POPC   C4A40098  19.094   8.184   7.353
 8051POPC   C1B40099  19.332   8.129   6.453
 8051POPC   C2B40100  19.349   8.134   6.753
 8051POPC   C3B40101  19.338   8.141   7.053
 8051POPC   C4B40102  19.306   8.180   7.353
 8052POPC   NC340103   0.400  30.658   5.553
 8052POPC   PO440104   0.408  30.695   5.853
 8052POPC   GL140105   0.440  30.711   6.153
 8052POPC   GL240106   0.485  30.602   6.153
 8052POPC   C1A40107   0.477  30.692   6.453
 8052POPC   D2A40108   0.456  30.668   6.753
 8052POPC   C3A40109   0.426  30.687   7.053
 8052POPC   C4A40110   0.450  30.667   7.353
 8052POPC   C1B40111   0.507  30.504   6.453
 8052POPC   C2B40112   0.476  30.508   6.753
 8052POPC   C3B40113   0.535  30.489   7.053
 8052POPC   C4B40114   0.521  30.424   7.353
 8053POPC   NC340115  33.051  41.562   5.553
 8053POPC   PO440116  33.067  41.603   5.853
 8053POPC   GL140117  33.016  41.570   6.153
 8053POPC   GL240118  33.161  41.616   6.153
 8053POPC   C1A40119  33.048  41.526   6.453
 8053POPC   D2A40120  33.049  41.558   6.753
 8053POPC   C3A40121  33.028  41.548   7.053
 8053POPC   C4A40122  32.982  41.569   7.353
 8053POPC   C1B40123  33.279  41.652   6.453
 8053POPC   C2B40124  33.305  41.614   6.753
 8053POPC   C3B40125  33.309  41.682   7.053
 8053POPC   C4B40126  33.281  41.638   7.353
 8054POPC   NC340127  12.107  43.139   5.553
 8054POPC   PO440128  12.097  43.134   5.853
 8054POPC   GL140129  12.102  43.134   6.153
 8054POPC   GL240130  12.137  43.194   6.153
 8054POPC   C1A40131  12.061  43.078   6.453
 8054POPC   D2A40132  12.116  43.064   6.753
 8054POPC   C3A40133  12.112  43.069   7.053
 8054POPC   C4A40134  12.080  43.072   7.353
 8054POPC   C1B40135  12.247  43.304   6.453
 8054POPC   C2B40136  12.188  43.296   6.753
 8054POPC   C3B40137  12.216  43.280   7.053
 8054POPC   C4B40138  12.201  43.338   7.353
 8055POPC   NC340139   8.959  36.860   5.553
 8055POPC   PO440140   8.930  36.863   5.853
 8055POPC   GL140141   8.950  36.899   6.153
 8055POPC   GL240142   8.850  36.802   6.153
 8055POPC   C1A40143   8.991  36.947   6.453
 8055POPC   D2A40144   8.948  36.857   6.753
 8055POPC   C3A40145   8.987  36.900   7.053
 8055POPC   C4A40146   8.982  36.864   7.353
 8055POPC   C1B40147   8.832  36.708   6.453
 8055POPC   C2B40148   8.827  36.731   6.753
 8055POPC   C3B40149   8.829  36.703   7.053
 8055POPC   C4B40150   8.791  36.720   7.353
 8056POPC   NC340151   6.616  41.579   5.553
 8056POPC   PO440152   6.689  41.544   5.853
 8056POPC   GL140153   6.628  41.605   6.153
 8056POPC   GL240154   6.535  41.470   6.153
 8056POPC   C1A40155   6.671  41.522   6.453
 8056POPC   D2A40156   6.618  41.529   6.753
 8056POPC   C3A40157   6.614  41.552   7.053
 8056POPC   C4A40158   6.687  41.556   7.353
 8056POPC   C1B40159   6.471  41.440   6.453
 8056POPC   C2B40160   6.478  41.400   6.753
 8056POPC   C3B40161   6.401  41.424   7.053
 8056POPC   C4B40162   6.420  41.465   7.353
 8057POPC   NC340163  23.696   1.220   5.553
 8057POPC   PO440164  23.740   1.231   5.853
 8057POPC   GL140165  23.729   1.197   6.153
 8057POPC   GL240166  23.810   1.178   6.153
 8057POPC   C1A40167  23.698   1.188   6.453
 8057POPC   D2A40168  23.711   1.224   6.753
 8057POPC   C3A40169  23.726   1.196   7.053
 8057POPC   C4A40170  23.722   1.249   7.353
 8057POPC   C1B40171  23.872   1.017   6.453
 8057POPC   C2B40172  23.960   1.090   6.753
 8057POPC   C3B40173  23.912   1.109   7.053
 8057POPC   C4B40174  23.910   1.051   7.353
 8058POPC   NC340175  43.141  39.270   5.553
 8058POPC   PO440176  43.128  39.192   5.853
 8058POPC   GL140177  43.102  39.183   6.153
 8058POPC   GL240178  42.951  39.303   6.153
 8058POPC   C1A40179  43.085  39.240   6.453
 8058POPC   D2A40180  43.152  39.190   6.753
 8058POPC   C3A40181  43.072  39.249   7.053
 8058POPC   C4A40182  43.132  39.239   7.353
 8058POPC   C1B40183  42.925  39.336   6.453
 8058POPC   C2B40184  42.839  39.336   6.753
 8058POPC   C3B40185  42.920  39.351   7.053
 8058POPC   C4B40186  42.932  39.325   7.353
 8059POPC   NC340187  39.223   5.857   5.553
 8059POPC   PO440188  39.259   5.854   5.853
 8059POPC   GL140189  39.225   5.881   6.153
 8059POPC   GL240190  39.301   5.892   6.153
 8059POPC   C1A40191  39.250   5.893   6.453
 8059POPC   D2A40192  39.189   5.876   6.753
 8059POPC   C3A40193  39.268   5.838   7.053
 8059POPC   C4A40194  39.186   5.844   7.353
 8059POPC   C1B40195  39.438   5.903   6.453
 8059POPC   C2B40196  39.438   5.926   6.753
 8059POPC   C3B40197  39.445   5.962   7.053
 8059POPC   C4B40198  39.469   5.979   7.353
 8060POPC   NC340199  30.667  29.135   5.553
 8060POPC   PO440200  30.746  29.095   5.853
 8060POPC   GL140201  30.683  29.142   6.153
 8060POPC   GL240202  30.767  29.265   6.153
 8060POPC   C1A40203  30.743  29.113   6.453
 8060POPC   D2A40204  30.705  29.160   6.753
 8060POPC   C3A40205  30.697  29.171   7.053
 8060POPC   C4A40206  30.703  29.134   7.353
 8060POPC   C1B40207  30.825  29.324   6.453
 8060POPC   C2B40208  30.882  29.355   6.753
 8060POPC   C3B40209  30.890  29.352   7.053
 8060POPC   C4B40210  30.892  29.342   7.353
 8061POPC   NC340211  14.418  33.753   5.553
 8061POPC   PO440212  14.361  33.798   5.853
 8061POPC   GL140213  14.428  33.823   6.153
 8061POPC   GL240214  14.463  33.893   6.153
 8061POPC   C1A40215  14.434  33.777   6.453
 8061POPC   D2A40216  14.422  33.812   6.753
 8061POPC   C3A40217  14.408  33.804   7.053
 8061POPC   C4A40218  14.443  33.766   7.353
 8061POPC   C1B40219  14.596  33.973   6.453
 8061POPC   C2B40220  14.624  33.937   6.753
 8061POPC   C3B40221  14.573  34.016   7.053
 8061POPC   C4B40222  14.566  34.022   7.353
 8062POPC   NC340223  22.947  26.024   5.553
 8062POPC   PO440224  22.951  26.019   5.853
 8062POPC   GL140225  22.923  26.072   6.153
 8062POPC   GL240226  22.952  26.168   6.153
 8062POPC   C1A40227  22.953  26.019   6.453
 8062POPC   D2A40228  22.904  26.050   6.753
 8062POPC   C3A40229  22.967  26.086   7.053
 8062POPC   C4A40230  22.934  26.008   7.353
 8062POPC   C1B40231  22.988  26.318   6.453
 8062POPC   C2B40232  22.990  26.228   6.753
 8062POPC   C3B40233  22.998  26.321   7.053
 8062POPC   C4B40234  23.029  26.308   7.353
 8063POPC   NC340235  29.175  29.963   5.553
 8063POPC   PO440236  29.185  29.886   5.853
 8063POPC   GL140237  29.123  29.907   6.153
 8063POPC   GL240238  29.148  29.764   6.153
 8063POPC   C1A40239  29.126  29.880   6.453
 8063POPC   D2A40240  29.109  29.902   6.753
 8063POPC   C3A40241  29.155  29.891   7.053
 8063POPC   C4A40242  29.162  29.928   7.353
 8063POPC   C1B40243  29.174  29.651   6.453
 8063POPC   C2B40244  29.203  29.631   6.753
 8063POPC   C3B40245  29.213  29.626   7.053
 8063POPC   C4B40246  29.189  29.710   7.353
 8064POPC   NC340247  29.141   8.158   5.553
 8064POPC   PO440248  29.155   8.229   5.853
 8064POPC   GL140249  29.143   8.226   6.153
 8064POPC   GL240250  29.240   8.218   6.153
 8064POPC   C1A40251  29.151   8.197   6.453
 8064POPC   D2A40252  29.187   8.184   6.753
 8064POPC   C3A40253  29.178   8.183   7.053
 8064POPC   C4A40254  29.100   8.214   7.353
 8064POPC   C1B40255  29.367   8.318   6.453
 8064POPC   C2B40256  29.407   8.285   6.753
 8064POPC   C3B40257  29.372   8.325   7.053
 8064POPC   C4B40258  29.332   8.282   7.353
 8065POPC   NC340259  35.371  22.154   5.553
 8065POPC   PO440260  35.336  22.178   5.853
 8065POPC   GL140261  35.368  22.203   6.153
 8065POPC   GL240262  35.331  22.084   6.153
 8065POPC   C1A40263  35.330  22.193   6.453
 8065POPC   D2A40264  35.356  22.113   6.753
 8065POPC   C3A40265  35.336  22.114   7.053
 8065POPC   C4A40266  35.309  22.135   7.353
 8065POPC   C1B40267  35.342  21.961   6.453
 8065POPC   C2B40268  35.315  21.941   6.753
 8065POPC   C3B40269  35.343  21.864   7.053
 8065POPC   C4B40270  35.337  21.932   7.353
 8066POPC   NC340271  38.435   1.219   5.553
 8066POPC   PO440272  38.492   1.170   5.853
 8066POPC   GL140273  38.456   1.252   6.153
 8066POPC   GL240274  38.333   1.193   6.153
 8066POPC   C1A40275  38.484   1.248   6.453
 8066POPC   D2A40276  38.496   1.258   6.753
 8066POPC   C3A40277  38.471   1.174   7.053
 8066POPC   C4A40278  38.446   1.173   7.353
 8066POPC   C1B40279  38.182   1.192   6.453
 8066POPC   C2B40280  38.238   1.236   6.753
 8066POPC   C3B40281  38.184   1.209   7.053
 8066POPC   C4B40282  38.225   1.235   7.353
 8067POPC   NC340283  12.074   1.224   5.553
 8067POPC   PO440284  12.059   1.245   5.853
 8067POPC   GL140285  12.114   1.181   6.153
 8067POPC   GL240286  11.924   1.175   6.153
 8067POPC   C1A40287  12.112   1.177   6.453
 8067POPC   D2A40288  12.026   1.171   6.753
 8067POPC   C3A40289  12.044   1.225   7.053
 8067POPC   C4A40290  12.103   1.201   7.353
 8067POPC   C1B40291  11.902   1.051   6.453
 8067POPC   C2B40292  11.873   1.051   6.753
 8067POPC   C3B40293  11.821   1.121   7.053
 8067POPC   C4B40294  11.895   1.113   7.353
 8068POPC   NC340295  12.873   9.725   5.553
 8068POPC   PO440296  12.828   9.754   5.853
 8068POPC   GL140297  12.814   9.783   6.153
 8068POPC   GL240298  12.964   9.687   6.153
 8068POPC   C1A40299  12.826   9.742   6.453
 8068POPC   D2A40300  12.830   9.767   6.753
 8068POPC   C3A40301  12.841   9.727   7.053
 8068POPC   C4A40302  12.827   9.773   7.353
 8068POPC   C1B40303  13.026   9.580   6.453
 8068POPC   C2B40304  13.037   9.633   6.753
 8068POPC   C3B40305  13.071   9.635   7.053
 8068POPC   C4B40306  13.046   9.583   7.353
 8069POPC   NC340307  28.398  38.459   5.553
 8069POPC   PO440308  28.391  38.481   5.853
 8069POPC   GL140309  28.369  38.439   6.153
 8069POPC   GL240310  28.409  38.325   6.153
 8069POPC   C1A40311  28.333  38.496   6.453
 8069POPC   D2A40312  28.405  38.413   6.753
 8069POPC   C3A40313  28.388  38.489   7.053
 8069POPC   C4A40314  28.344  38.434   7.353
 8069POPC   C1B40315  28.531  38.260   6.453
 8069POPC   C2B40316  28.532  38.238   6.753
 8069POPC   C3B40317  28.510  38.285   7.053
 8069POPC   C4B40318  28.502  38.269   7.353
 8070POPC   NC340319  18.255   8.210   5.553
 8070POPC   PO440320  18.275   8.150   5.853
 8070POPC   GL140321  18.271   8.195   6.153
 8070POPC   GL240322  18.431   8.268   6.153
 8070POPC   C1A40323  18.323   8.210   6.453
 8070POPC   D2A40324  18.239   8.219   6.753
 8070POPC   C3A40325  18.304   8.176   7.053
 8070POPC   C4A40326  18.248   8.218   7.353
 8070POPC   C1B40327  18.566   8.253   6.453
 8070POPC   C2B40328  18.478   8.323   6.753
 8070POPC   C3B40329  18.540   8.311   7.053
 8070POPC   C4B40330  18.567   8.256   7.353
 8071POPC   NC340331  21.427  26.824   5.553
 8071POPC   PO440332  21.419  26.799   5.853
 8071POPC   GL140333  21.356  26.782   6.153
 8071POPC   GL240334  21.295  26.958   6.153
 8071POPC   C1A40335  21.372  26.780   6.453
 8071POPC   D2A40336  21.407  26.826   6.753
 8071POPC   C3A40337  21.361  26.801   7.053
 8071POPC   C4A40338  21.406  26.767   7.353
 8071POPC   C1B40339  21.239  27.052   6.453
 8071POPC   C2B40340  21.231  27.044   6.753
 8071POPC   C3B40341  21.199  27.069   7.053
 8071POPC   C4B40342  21.284  27.057   7.353
 8072POPC   NC340343   2.039  39.272   5.553
 8072POPC   PO440344   2.016  39.250   5.853
 8072POPC   GL140345   1.954  39.233   6.153
 8072POPC   GL240346   1.966  39.074   6.153
 8072POPC   C1A40347   1.980  39.189   6.453
 8072POPC   D2A40348   1.998  39.241   6.753
 8072POPC   C3A40349   1.971  39.273   7.053
 8072POPC   C4A40350   1.987  39.272   7.353
 8072POPC   C1B40351   1.897  39.030   6.453
 8072POPC   C2B40352   1.862  39.002   6.753
 8072POPC   C3B40353   1.950  38.985   7.053
 8072POPC   C4B40354   1.893  38.978   7.353
 8073POPC   NC340355  37.712  28.349   5.553
 8073POPC   PO440356  37.707  28.354   5.853
 8073POPC   GL140357  37.662  28.322   6.153
 8073POPC   GL240358  37.753  28.262   6.153
 8073POPC   C1A40359  37.672  28.397   6.453
 8073POPC   D2A40360  37.673  28.320   6.753
 8073POPC   C3A40361  37.678  28.345   7.053
 8073POPC   C4A40362  37.662  28.395   7.353
 8073POPC   C1B40363  37.752  28.101   6.453
 8073POPC   C2B40364  37.826  28.183   6.753
 8073POPC   C3B40365  37.764  28.098   7.053
 8073POPC   C4B40366  37.777  28.152   7.353
 8074POPC   NC340367  31.467  31.433   5.553
 8074POPC   PO440368  31.479  31.473   5.853
 8074POPC   GL140369  31.435  31.486   6.153
 8074POPC   GL240370  31.562  31.514   6.153
 8074POPC   C1A40371  31.488  31.499   6.453
 8074POPC   D2A40372  31.479  31.454   6.753
 8074POPC   C3A40373  31.474  31.440   7.053
 8074POPC   C4A40374  31.457  31.429   7.353
 8074POPC   C1B40375  31.747  31.523   6.453
 8074POPC   C2B40376  31.687  31.490   6.753
 8074POPC   C3B40377  31.764  31.460   7.053
 8074POPC   C4B40378  31.692  31.484   7.353
 8075POPC   NC340379   9.773  11.345   5.553
 8075POPC   PO440380   9.713  11.325   5.853
 8075POPC   GL140381   9.714  11.277   6.153
 8075POPC   GL240382   9.818  11.386   6.153
 8075POPC   C1A40383   9.794  11.349   6.453
 8075POPC   D2A40384   9.784  11.297   6.753
 8075POPC   C3A40385   9.752  11.337   7.053
 8075POPC   C4A40386   9.764  11.346   7.353
 8075POPC   C1B40387   9.801  11.532   6.453
 8075POPC   C2B40388   9.854  11.577   6.753
 8075POPC   C3B40389   9.853  11.547   7.053
 8075POPC   C4B40390   9.797  11.547   7.353
 8076POPC   NC340391  19.809  33.773   5.553
 8076POPC   PO440392  19.825  33.808   5.853
 8076POPC   GL140393  19.795  33.848   6.153
 8076POPC   GL240394  19.920  33.801   6.153
 8076POPC   C1A40395  19.847  33.810   6.453
 8076POPC   D2A40396  19.815  33.766   6.753
 8076POPC   C3A40397  19.825  33.800   7.053
 8076POPC   C4A40398  19.859  33.772   7.353
 8076POPC   C1B40399  20.052  33.858   6.453
 8076POPC   C2B40400  20.043  33.852   6.753
 8076POPC   C3B40401  20.058  33.819   7.053
 8076POPC   C4B40402  20.125  33.851   7.353
 8077POPC   NC340403  43.928  24.510   5.553
 8077POPC   PO440404  43.925  24.455   5.853
 8077POPC   GL140405  43.864  24.517   6.153
 8077POPC   GL240406  43.734  24.495   6.153
 8077POPC   C1A40407  43.933  24.464   6.453
 8077POPC   D2A40408  43.843  24.488   6.753
 8077POPC   C3A40409  43.922  24.476   7.053
 8077POPC   C4A40410  43.901  24.534   7.353
 8077POPC   C1B40411  43.624  24.567   6.453
 8077POPC   C2B40412  43.603  24.485   6.753
 8077POPC   C3B40413  43.678  24.531   7.053
 8077POPC   C4B40414  43.613  24.576   7.353
 8078POPC   NC340415  20.635   3.496   5.553
 8078POPC   PO440416  20.627   3.555   5.853
 8078POPC   GL140417  20.601   3.501   6.153
 8078POPC   GL240418  20.688   3.441   6.153
 8078POPC   C1A40419  20.604   3.573   6.453
 8078POPC   D2A40420  20.621   3.496   6.753
 8078POPC   C3A40421  20.611   3.508   7.053
 8078POPC   C4A40422  20.604   3.545   7.353
 8078POPC   C1B40423  20.809   3.426   6.453
 8078POPC   C2B40424  20.770   3.416   6.753
 8078POPC   C3B40425  20.839   3.430   7.053
 8078POPC   C4B40426  20.845   3.398   7.353
 8079POPC   NC340427  28.368  29.909   5.553
 8079POPC   PO440428  28.412  29.907   5.853
 8079POPC   GL140429  28.350  29.940   6.153
 8079POPC   GL240430  28.372  29.774   6.153
 8079POPC   C1A40431  28.381  29.890   6.453
 8079POPC   D2A40432  28.354  29.910   6.753
 8079POPC   C3A40433  28.361  29.964   7.053
 8079POPC   C4A40434  28.341  29.871   7.353
 8079POPC   C1B40435  28.457  29.654   6.453
 8079POPC   C2B40436  28.433  29.703   6.753
 8079POPC   C3B40437  28.445  29.682   7.053
 8079POPC   C4B40438  28.392  29.723   7.353
 8080POPC   NC340439  18.269  21.341   5.553
 8080POPC   PO440440  18.317  21.429   5.853
 8080POPC   GL140441  18.274  21.420   6.153
 8080POPC   GL240442  18.338  21.522   6.153
 8080POPC   C1A40443  18.267  21.376   6.453
 8080POPC   D2A40444  18.285  21.338   6.753
 8080POPC   C3A40445  18.276  21.391   7.053
 8080POPC   C4A40446  18.309  21.406   7.353
 8080POPC   C1B40447  18.301  21.623   6.453
 8080POPC   C2B40448  18.332  21.673   6.753
 8080POPC   C3B40449  18.321  21.666   7.053
 8080POPC   C4B40450  18.339  21.666   7.353
 8081POPC   NC340451   8.975   5.117   5.553
 8081POPC   PO440452   8.994   5.133   5.853
 8081POPC   GL140453   8.969   5.139   6.153
 8081POPC   GL240454   9.112   5.027   6.153
 8081POPC   C1A40455   8.983   5.099   6.453
 8081POPC   D2A40456   8.926   5.111   6.753
 8081POPC   C3A40457   8.954   5.055   7.053
 8081POPC   C4A40458   8.936   5.125   7.353
 8081POPC   C1B40459   9.219   4.939   6.453
 8081POPC   C2B40460   9.140   4.910   6.753
 8081POPC   C3B40461   9.194   4.976   7.053
 8081POPC   C4B40462   9.154   4.915   7.353
 8082POPC   NC340463   5.137  36.859   5.553
 8082POPC   PO440464   5.113  36.885   5.853
 8082POPC   GL140465   5.044  36.889   6.153
 8082POPC   GL240466   5.202  36.808   6.153
 8082POPC   C1A40467   5.133  36.881   6.453
 8082POPC   D2A40468   5.125  36.906   6.753
 8082POPC   C3A40469   5.055  36.874   7.053
 8082POPC   C4A40470   5.133  36.930   7.353
 8082POPC   C1B40471   5.293  36.807   6.453
 8082POPC   C2B40472   5.283  36.841   6.753
 8082POPC   C3B40473   5.332  36.823   7.053
 8082POPC   C4B40474   5.360  36.820   7.353
 8083POPC   NC340475  23.667  16.746   5.553
 8083POPC   PO440476  23.730  16.698   5.853
 8083POPC   GL140477  23.695  16.733   6.153
 8083POPC   GL240478  23.619  16.617   6.153
 8083POPC   C1A40479  23.754  16.707   6.453
 8083POPC   D2A40480  23.694  16.779   6.753
 8083POPC   C3A40481  23.715  16.746   7.053
 8083POPC   C4A40482  23.727  16.724   7.353
 8083POPC   C1B40483  23.549  16.534   6.453
 8083POPC   C2B40484  23.569  16.543   6.753
 8083POPC   C3B40485  23.508  16.565   7.053
 8083POPC   C4B40486  23.500  16.581   7.353
 8084POPC   NC340487  10.476   9.712   5.553
 8084POPC   PO440488  10.548   9.768   5.853
 8084POPC   GL140489  10.540   9.747   6.153
 8084POPC   GL240490  10.638   9.786   6.153
 8084POPC   C1A40491  10.484   9.752   6.453
 8084POPC   D2A40492  10.489   9.781   6.753
 8084POPC   C3A40493  10.565   9.764   7.053
 8084POPC   C4A40494  10.564   9.756   7.353
 8084POPC   C1B40495  10.815   9.798   6.453
 8084POPC   C2B40496  10.789   9.751   6.753
 8084POPC   C3B40497  10.785   9.774   7.053
 8084POPC   C4B40498  10.741   9.815   7.353
 8085POPC   NC340499  43.105  14.406   5.553
 8085POPC   PO440500  43.137  14.428   5.853
 8085POPC   GL140501  43.152  14.370   6.153
 8085POPC   GL240502  43.190  14.510   6.153
 8085POPC   C1A40503  43.075  14.448   6.453
 8085POPC   D2A40504  43.146  14.369   6.753
 8085POPC   C3A40505  43.088  14.446   7.053
 8085POPC   C4A40506  43.112  14.365   7.353
 8085POPC   C1B40507  43.238  14.610   6.453
 8085POPC   C2B40508  43.245  14.583   6.753
 8085POPC   C3B40509  43.256  14.562   7.053
 8085POPC   C4B40510  43.242  14.624   7.353
 8086POPC   NC340511   3.556  40.016   5.553
 8086POPC   PO440512   3.512  39.965   5.853
 8086POPC   GL140513   3.583  40.005   6.153
 8086POPC   GL240514   3.658  39.876   6.153
 8086POPC   C1A40515   3.517  40.030   6.453
 8086POPC   D2A40516   3.510  39.967   6.753
 8086POPC   C3A40517   3.524  40.029   7.053
 8086POPC   C4A40518   3.514  40.027   7.353
 8086POPC   C1B40519   3.713  39.771   6.453
 8086POPC   C2B40520   3.672  39.855   6.753
 8086POPC   C3B40521   3.712  39.792   7.053
 8086POPC   C4B40522   3.730  39.800   7.353
 8087POPC   NC340523  40.779  14.444   5.553
 8087POPC   PO440524  40.740  14.452   5.853
 8087POPC   GL140525  40.745  14.371   6.153
 8087POPC   GL240526  40.715  14.260   6.153
 8087POPC   C1A40527  40.757  14.451   6.453
 8087POPC   D2A40528  40.751  14.368   6.753
 8087POPC   C3A40529  40.785  14.361   7.053
 8087POPC   C4A40530  40.787  14.400   7.353
 8087POPC   C1B40531  40.654  14.208   6.453
 8087POPC   C2B40532  40.666  14.181   6.753
 8087POPC   C3B40533  40.618  14.218   7.053
 8087POPC   C4B40534  40.584  14.176   7.353
 8088POPC   NC340535   1.166  35.361   5.553
 8088POPC   PO440536   1.199  35.321   5.853
 8088POPC   GL140537   1.178  35.335   6.153
 8088POPC   GL240538   1.124  35.229   6.153
 8088POPC   C1A40539   1.198  35.309   6.453
 8088POPC   D2A40540   1.203  35.317   6.753
 8088POPC   C3A40541   1.233  35.310   7.053
 8088POPC   C4A40542   1.243  35.400   7.353
 8088POPC   C1B40543   1.031  35.205   6.453
 8088POPC   C2B40544   1.055  35.127   6.753
 8088POPC   C3B40545   1.083  35.133   7.053
 8088POPC   C4B40546   1.028  35.205   7.353
 8089POPC   NC340547   6.607   1.217   5.553
 8089POPC   PO440548   6.666   1.184   5.853
 8089POPC   GL140549   6.642   1.178   6.153
 8089POPC   GL240550   6.553   1.194   6.153
 8089POPC   C1A40551   6.656   1.223   6.453
 8089POPC   D2A40552   6.638   1.242   6.753
 8089POPC   C3A40553   6.680   1.166   7.053
 8089POPC   C4A40554   6.617   1.258   7.353
 8089POPC   C1B40555   6.361   1.128   6.453
 8089POPC   C2B40556   6.362   1.161   6.753
 8089POPC   C3B40557   6.409   1.134   7.053
 8089POPC   C4B40558   6.378   1.161   7.353
 8090POPC   NC340559  33.825  27.568   5.553
 8090POPC   PO440560  33.819  27.602   5.853
 8090POPC   GL140561  33.807  27.606   6.153
 8090POPC   GL240562  33.913  27.669   6.153
 8090POPC   C1A40563  33.846  27.551   6.453
 8090POPC   D2A40564  33.810  27.618   6.753
 8090POPC   C3A40565  33.784  27.624   7.053
 8090POPC   C4A40566  33.777  27.552   7.353
 8090POPC   C1B40567  34.016  27.718   6.453
 8090POPC   C2B40568  34.077  27.701   6.753
 8090POPC   C3B40569  34.019  27.696   7.053
 8090POPC   C4B40570  33.999  27.655   7.353
 8091POPC   NC340571  19.061  10.540   5.553
 8091POPC   PO440572  19.040  10.490   5.853
 8091POPC   GL140573  19.088  10.522   6.153
 8091POPC   GL240574  19.126  10.440   6.153
 8091POPC   C1A40575  19.072  10.525   6.453
 8091POPC   D2A40576  19.093  10.478   6.753
 8091POPC   C3A40577  19.009  10.514   7.053
 8091POPC   C4A40578  19.048  10.487   7.353
 8091POPC   C1B40579  19.140  10.333   6.453
 8091POPC   C2B40580  19.179  10.281   6.753
 8091POPC   C3B40581  19.174  10.252   7.053
 8091POPC   C4B40582  19.128  10.278   7.353
 8092POPC   NC340583  22.166  18.309   5.553
 8092POPC   PO440584  22.185  18.327   5.853
 8092POPC   GL140585  22.116  18.293   6.153
 8092POPC   GL240586  22.323  18.296   6.153
 8092POPC   C1A40587  22.140  18.250   6.453
 8092POPC   D2A40588  22.121  18.280   6.753
 8092POPC   C3A40589  22.133  18.262   7.053
 8092POPC   C4A40590  22.116  18.310   7.353
 8092POPC   C1B40591  22.446  18.304   6.453
 8092POPC   C2B40592  22.426  18.276   6.753
 8092POPC   C3B40593  22.428  18.268   7.053
 8092POPC   C4B40594  22.406  18.272   7.353
 8093POPC   NC340595  24.506  18.296   5.553
 8093POPC   PO440596  24.495  18.272   5.853
 8093POPC   GL140597  24.460  18.282   6.153
 8093POPC   GL240598  24.611  18.232   6.153
 8093POPC   C1A40599  24.534  18.290   6.453
 8093POPC   D2A40600  24.491  18.243   6.753
 8093POPC   C3A40601  24.500  18.323   7.053
 8093POPC   C4A40602  24.529  18.312   7.353
 8093POPC   C1B40603  24.707  18.216   6.453
 8093POPC   C2B40604  24.747  18.285   6.753
 8093POPC   C3B40605  24.714  18.304   7.053
 8093POPC   C4B40606  24.757  18.263   7.353
 8094POPC   NC340607   7.431   5.115   5.553
 8094POPC   PO440608   7.403   5.082   5.853
 8094POPC   GL140609   7.378   5.055   6.153
 8094POPC   GL240610   7.472   5.217   6.153
 8094POPC   C1A40611   7.443   5.065   6.453
 8094POPC   D2A40612   7.418   5.089   6.753
 8094POPC   C3A40613   7.414   5.143   7.053
 8094POPC   C4A40614   7.431   5.045   7.353
 8094POPC   C1B40615   7.616   5.289   6.453
 8094POPC   C2B40616   7.623   5.289   6.753
 8094POPC   C3B40617   7.603   5.222   7.053
 8094POPC   C4B40618   7.660   5.210   7.353
 8095POPC   NC340619  44.682   4.278   5.553
 8095POPC   PO440620  44.617   4.299   5.853
 8095POPC   GL140621  44.669   4.328   6.153
 8095POPC   GL240622  44.676   4.437   6.153
 8095POPC   C1A40623  44.675   4.276   6.453
 8095POPC   D2A40624  44.613   4.329   6.753
 8095POPC   C3A40625  44.666   4.367   7.053
 8095POPC   C4A40626  44.634   4.351   7.353
 8095POPC   C1B40627  44.637   4.598   6.453
 8095POPC   C2B40628  44.575   4.585   6.753
 8095POPC   C3B40629  44.554   4.590   7.053
 8095POPC   C4B40630  44.604   4.552   7.353
 8096POPC   NC340631   6.603   2.740   5.553
 8096POPC   PO440632   6.671   2.789   5.853
 8096POPC   GL140633   6.649   2.747   6.153
 8096POPC   GL240634   6.751   2.786   6.153
 8096POPC   C1A40635   6.627   2.733   6.453
 8096POPC   D2A40636   6.599   2.815   6.753
 8096POPC   C3A40637   6.621   2.754   7.053
 8096POPC   C4A40638   6.655   2.787   7.353
 8096POPC   C1B40639   6.906   2.839   6.453
 8096POPC   C2B40640   6.899   2.751   6.753
 8096POPC   C3B40641   6.847   2.794   7.053
 8096POPC   C4B40642   6.855   2.771   7.353
 8097POPC   NC340643   6.640  39.233   5.553
 8097POPC   PO440644   6.644  39.249   5.853
 8097POPC   GL140645   6.659  39.220   6.153
 8097POPC   GL240646   6.704  39.354   6.153
 8097POPC   C1A40647   6.596  39.208   6.453
 8097POPC   D2A40648   6.649  39.188   6.753
 8097POPC   C3A40649   6.636  39.241   7.053
 8097POPC   C4A40650   6.605  39.276   7.353
 8097POPC   C1B40651   6.647  39.472   6.453
 8097POPC   C2B40652   6.729  39.441   6.753
 8097POPC   C3B40653   6.691  39.455   7.053
 8097POPC   C4B40654   6.637  39.437   7.353
 8098POPC   NC340655  33.795  29.149   5.553
 8098POPC   PO440656  33.825  29.160   5.853
 8098POPC   GL140657  33.826  29.118   6.153
 8098POPC   GL240658  33.937  29.126   6.153
 8098POPC   C1A40659  33.758  29.180   6.453
 8098POPC   D2A40660  33.790  29.125   6.753
 8098POPC   C3A40661  33.779  29.168   7.053
 8098POPC   C4A40662  33.754  29.144   7.353
 8098POPC   C1B40663  34.071  29.081   6.453
 8098POPC   C2B40664  34.011  29.113   6.753
 8098POPC   C3B40665  34.034  29.069   7.053
 8098POPC   C4B40666  34.017  29.120   7.353
 8099POPC   NC340667  32.230  41.521   5.553
 8099POPC   PO440668  32.234  41.529   5.853
 8099POPC   GL140669  32.248  41.538   6.153
 8099POPC   GL240670  32.262  41.680   6.153
 8099POPC   C1A40671  32.271  41.584   6.453
 8099POPC   D2A40672  32.250  41.525   6.753
 8099POPC   C3A40673  32.292  41.527   7.053
 8099POPC   C4A40674  32.222  41.568   7.353
 8099POPC   C1B40675  32.343  41.804   6.453
 8099POPC   C2B40676  32.362  41.833   6.753
 8099POPC   C3B40677  32.362  41.763   7.053
 8099POPC   C4B40678  32.310  41.791   7.353
 8100POPC   NC340679  44.662  16.762   5.553
 8100POPC   PO440680  44.672  16.739   5.853
 8100POPC   GL140681  44.702  16.780   6.153
 8100POPC   GL240682  44.521  16.856   6.153
 8100POPC   C1A40683  44.681  16.715   6.453
 8100POPC   D2A40684  44.685  16.704   6.753
 8100POPC   C3A40685  44.691  16.774   7.053
 8100POPC   C4A40686  44.655  16.748   7.353
 8100POPC   C1B40687  44.444  16.861   6.453
 8100POPC   C2B40688  44.473  16.918   6.753
 8100POPC   C3B40689  44.437  16.940   7.053
 8100POPC   C4B40690  44.428  16.884   7.353
 8101POPC   NC340691  37.687   3.563   5.553
 8101POPC   PO440692  37.702   3.578   5.853
 8101POPC   GL140693  37.692   3.579   6.153
 8101POPC   GL240694  37.771   3.599   6.153
 8101POPC   C1A40695  37.669   3.585   6.453
 8101POPC   D2A40696  37.717   3.580   6.753
 8101POPC   C3A40697  37.719   3.540   7.053
 8101POPC   C4A40698  37.680   3.543   7.353
 8101POPC   C1B40699  37.867   3.644   6.453
 8101POPC   C2B40700  37.904   3.692   6.753
 8101POPC   C3B40701  37.847   3.723   7.053
 8101POPC   C4B40702  37.913   3.686   7.353
 8102POPC   NC340703  38.499  19.816   5.553
 8102POPC   PO440704  38.421  19.829   5.853
 8102POPC   GL140705  38.453  19.854   6.153
 8102POPC   GL240706  38.396  19.920   6.153
 8102POPC   C1A40707  38.483  19.832   6.453
 8102POPC   D2A40708  38.493  19.861   6.753
 8102POPC   C3A40709  38.445  19.826   7.053
 8102POPC   C4A40710  38.409  19.807   7.353
 8102POPC   C1B40711  38.279  20.038   6.453
 8102POPC   C2B40712  38.336  20.051   6.753
 8102POPC   C3B40713  38.300  20.020   7.053
 8102POPC   C4B40714  38.283  20.079   7.353
 8103POPC   NC340715  17.540   8.931   5.553
 8103POPC   PO440716  17.552   8.966   5.853
 8103POPC   GL140717  17.519   8.924   6.153
 8103POPC   GL240718  17.537   8.859   6.153
 8103POPC   C1A40719  17.469   8.938   6.453
 8103POPC   D2A40720  17.499   8.989   6.753
 8103POPC   C3A40721  17.548   8.987   7.053
 8103POPC   C4A40722  17.485   8.962   7.353
 8103POPC   C1B40723  17.507   8.748   6.453
 8103POPC   C2B40724  17.494   8.757   6.753
 8103POPC   C3B40725  17.510   8.754   7.053
 8103POPC   C4B40726  17.507   8.761   7.353
 8104POPC   NC340727  25.234  44.687   5.553
 8104POPC   PO440728  25.248  44.653   5.853
 8104POPC   GL140729  25.222  44.666   6.153
 8104POPC   GL240730  25.328  44.763   6.153
 8104POPC   C1A40731  25.219  44.672   6.453
 8104POPC   D2A40732  25.290  44.634   6.753
 8104POPC   C3A40733  25.273  44.661   7.053
 8104POPC   C4A40734  25.219  44.711   7.353
 8104POPC   C1B40735  25.401  44.843   6.453
 8104POPC   C2B40736  25.412  44.871   6.753
 8104POPC   C3B40737  25.393  44.886   7.053
 8104POPC   C4B40738  25.379  44.879   7.353
 8105POPC   NC340739   4.347   1.183   5.553
 8105POPC   PO440740   4.313   1.214   5.853
 8105POPC   GL140741   4.271   1.189   6.153
 8105POPC   GL240742   4.399   1.103   6.153
 8105POPC   C1A40743   4.297   1.168   6.453
 8105POPC   D2A40744   4.290   1.250   6.753
 8105POPC   C3A40745   4.353   1.200   7.053
 8105POPC   C4A40746   4.331   1.213   7.353
 8105POPC   C1B40747   4.504   1.045   6.453
 8105POPC   C2B40748   4.494   1.007   6.753
 8105POPC   C3B40749   4.482   0.998   7.053
 8105POPC   C4B40750   4.526   1.020   7.353
 8106POPC   NC340751  31.434  25.301   5.553
 8106POPC   PO440752  31.453  25.288   5.853
 8106POPC   GL140753  31.451  25.268   6.153
 8106POPC   GL240754  31.547  25.192   6.153
 8106POPC   C1A40755  31.455  25.268   6.453
 8106POPC   D2A40756  31.485  25.264   6.753
 8106POPC   C3A40757  31.513  25.269   7.053
 8106POPC   C4A40758  31.429  25.251   7.353
 8106POPC   C1B40759  31.565  25.016   6.453
 8106POPC   C2B40760  31.603  25.055   6.753
 8106POPC   C3B40761  31.605  25.090   7.053
 8106POPC   C4B40762  31.585  25.090   7.353
 8107POPC   NC340763  15.992  17.492   5.553
 8107POPC   PO440764  15.953  17.529   5.853
 8107POPC   GL140765  15.920  17.509   6.153
 8107POPC   GL240766  16.078  17.463   6.153
 8107POPC   C1A40767  15.956  17.494   6.453
 8107POPC   D2A40768  15.916  17.519   6.753
 8107POPC   C3A40769  15.951  17.548   7.053
 8107POPC   C4A40770  15.961  17.489   7.353
 8107POPC   C1B40771  16.161  17.356   6.453
 8107POPC   C2B40772  16.107  17.351   6.753
 8107POPC   C3B40773  16.100  17.325   7.053
 8107POPC   C4B40774  16.134  17.343   7.353
 8108POPC   NC340775  42.292  41.571   5.553
 8108POPC   PO440776  42.363  41.600   5.853
 8108POPC   GL140777  42.384  41.532   6.153
 8108POPC   GL240778  42.253  41.678   6.153
 8108POPC   C1A40779  42.338  41.521   6.453
 8108POPC   D2A40780  42.303  41.520   6.753
 8108POPC   C3A40781  42.318  41.515   7.053
 8108POPC   C4A40782  42.300  41.530   7.353
 8108POPC   C1B40783  42.245  41.846   6.453
 8108POPC   C2B40784  42.269  41.786   6.753
 8108POPC   C3B40785  42.251  41.836   7.053
 8108POPC   C4B40786  42.227  41.846   7.353
 8109POPC   NC340787  19.011   5.109   5.553
 8109POPC   PO440788  19.033   5.085   5.853
 8109POPC   GL140789  19.099   5.077   6.153
 8109POPC   GL240790  19.067   4.971   6.153
 8109POPC   C1A40791  19.106   5.089   6.453
 8109POPC   D2A40792  19.105   5.087   6.753
 8109POPC   C3A40793  19.041   5.110   7.053
 8109POPC   C4A40794  19.019   5.060   7.353
 8109POPC   C1B40795  19.076   4.827   6.453
 8109POPC   C2B40796  19.100   4.802   6.753
 8109POPC   C3B40797  19.089   4.860   7.053
 8109POPC   C4B40798  19.101   4.829   7.353
 8110POPC   NC340799  33.049   5.103   5.553
 8110POPC   PO440800  33.066   5.115   5.853
 8110POPC   GL140801  33.053   5.093   6.153
 8110POPC   GL240802  33.097   5.038   6.153
 8110POPC   C1A40803  33.022   5.096   6.453
 8110POPC   D2A40804  33.021   5.074   6.753
 8110POPC   C3A40805  33.009   5.070   7.053
 8110POPC   C4A40806  33.027   5.115   7.353
 8110POPC   C1B40807  33.207   4.923   6.453
 8110POPC   C2B40808  33.152   4.916   6.753
 8110POPC   C3B40809  33.136   4.915   7.053
 8110POPC   C4B40810  33.148   4.936   7.353
 8111POPC   NC340811  31.518  30.697   5.553
 8111POPC   PO440812  31.470  30.723   5.853
 8111POPC   GL140813  31.440  30.707   6.153
 8111POPC   GL240814  31.425  30.761   6.153
 8111POPC   C1A40815  31.442  30.732   6.453
 8111POPC   D2A40816  31.435  30.682   6.753
 8111POPC   C3A40817  31.502  30.716   7.053
 8111POPC   C4A40818  31.474  30.655   7.353
 8111POPC   C1B40819  31.298  30.882   6.453
 8111POPC   C2B40820  31.335  30.926   6.753
 8111POPC   C3B40821  31.274  30.857   7.053
 8111POPC   C4B40822  31.343  30.886   7.353
 8112POPC   NC340823  39.218  35.350   5.553
 8112POPC   PO440824  39.201  35.354   5.853
 8112POPC   GL140825  39.231  35.344   6.153
 8112POPC   GL240826  39.358  35.367   6.153
 8112POPC   C1A40827  39.275  35.390   6.453
 8112POPC   D2A40828  39.260  35.390   6.753
 8112POPC   C3A40829  39.276  35.353   7.053
 8112POPC   C4A40830  39.227  35.311   7.353
 8112POPC   C1B40831  39.484  35.313   6.453
 8112POPC   C2B40832  39.484  35.294   6.753
 8112POPC   C3B40833  39.433  35.359   7.053
 8112POPC   C4B40834  39.477  35.347   7.353
 8113POPC   NC340835  29.931  43.902   5.553
 8113POPC   PO440836  29.893  43.910   5.853
 8113POPC   GL140837  29.903  43.856   6.153
 8113POPC   GL240838  29.958  44.025   6.153
 8113POPC   C1A40839  29.907  43.916   6.453
 8113POPC   D2A40840  29.877  43.914   6.753
 8113POPC   C3A40841  29.921  43.878   7.053
 8113POPC   C4A40842  29.884  43.900   7.353
 8113POPC   C1B40843  29.980  44.133   6.453
 8113POPC   C2B40844  29.925  44.107   6.753
 8113POPC   C3B40845  29.967  44.124   7.053
 8113POPC   C4B40846  29.937  44.158   7.353
 8114POPC   NC340847  15.136  22.187   5.553
 8114POPC   PO440848  15.218  22.171   5.853
 8114POPC   GL140849  15.173  22.130   6.153
 8114POPC   GL240850  15.258  22.130   6.153
 8114POPC   C1A40851  15.171  22.177   6.453
 8114POPC   D2A40852  15.199  22.158   6.753
 8114POPC   C3A40853  15.223  22.190   7.053
 8114POPC   C4A40854  15.205  22.155   7.353
 8114POPC   C1B40855  15.390  22.172   6.453
 8114POPC   C2B40856  15.409  22.193   6.753
 8114POPC   C3B40857  15.397  22.202   7.053
 8114POPC   C4B40858  15.467  22.193   7.353
 8115POPC   NC340859  18.242  44.692   5.553
 8115POPC   PO440860  18.258  44.679   5.853
 8115POPC   GL140861  18.309  44.698   6.153
 8115POPC   GL240862  18.452  44.617   6.153
 8115POPC   C1A40863  18.294  44.661   6.453
 8115POPC   D2A40864  18.247  44.712   6.753
 8115POPC   C3A40865  18.265  44.682   7.053
 8115POPC   C4A40866  18.269  44.695   7.353
 8115POPC   C1B40867  18.548  44.655   6.453
 8115POPC   C2B40868  18.523  44.688   6.753
 8115POPC   C3B40869  18.526  44.644   7.053
 8115POPC   C4B40870  18.523  44.684   7.353
 8116POPC   NC340871  39.273   1.214   5.553
 8116POPC   PO440872  39.235   1.208   5.853
 8116POPC   GL140873  39.254   1.262   6.153
 8116POPC   GL240874  39.338   1.160   6.153
 8116POPC   C1A40875  39.237   1.251   6.453
 8116POPC   D2A40876  39.233   1.230   6.753
 8116POPC   C3A40877  39.201   1.199   7.053
 8116POPC   C4A40878  39.191   1.227   7.353
 8116POPC   C1B40879  39.413   1.023   6.453
 8116POPC   C2B40880  39.398   1.004   6.753
 8116POPC   C3B40881  39.376   1.079   7.053
 8116POPC   C4B40882  39.454   1.011   7.353
 8117POPC   NC340883  21.375  19.833   5.553
 8117POPC   PO440884  21.364  19.805   5.853
 8117POPC   GL140885  21.416  19.834   6.153
 8117POPC   GL240886  21.378  19.962   6.153
 8117POPC   C1A40887  21.424  19.875   6.453
 8117POPC   D2A40888  21.379  19.787   6.753
 8117POPC   C3A40889  21.433  19.859   7.053
 8117POPC   C4A40890  21.434  19.877   7.353
 8117POPC   C1B40891  21.411  20.055   6.453
 8117POPC   C2B40892  21.446  20.079   6.753
 8117POPC   C3B40893  21.419  20.071   7.053
 8117POPC   C4B40894  21.376  20.049   7.353
 8118POPC   NC340895  21.377  27.622   5.553
 8118POPC   PO440896  21.388  27.618   5.853
 8118POPC   GL140897  21.396  27.552   6.153
 8118POPC   GL240898  21.474  27.498   6.153
 8118POPC   C1A40899  21.424  27.620   6.453
 8118POPC   D2A40900  21.424  27.561   6.753
 8118POPC   C3A40901  21.418  27.566   7.053
 8118POPC   C4A40902  21.406  27.624   7.353
 8118POPC   C1B40903  21.562  27.413   6.453
 8118POPC   C2B40904  21.554  27.442   6.753
 8118POPC   C3B40905  21.577  27.459   7.053
 8118POPC   C4B40906  21.587  27.463   7.353
 8119POPC   NC340907  39.276  33.019   5.553
 8119POPC   PO440908  39.204  33.019   5.853
 8119POPC   GL140909  39.277  32.998   6.153
 8119POPC   GL240910  39.142  33.125   6.153
 8119POPC   C1A40911  39.190  33.006   6.453
 8119POPC   D2A40912  39.197  33.057   6.753
 8119POPC   C3A40913  39.269  33.041   7.053
 8119POPC   C4A40914  39.269  33.066   7.353
 8119POPC   C1B40915  39.033  33.170   6.453
 8119POPC   C2B40916  39.060  33.245   6.753
 8119POPC   C3B40917  39.098  33.217   7.053
 8119POPC   C4B40918  39.085  33.250   7.353
 8120POPC   NC340919   2.744  16.759   5.553
 8120POPC   PO440920   2.771  16.692   5.853
 8120POPC   GL140921   2.808  16.735   6.153
 8120POPC   GL240922   2.887  16.666   6.153
 8120POPC   C1A40923   2.781  16.693   6.453
 8120POPC   D2A40924   2.764  16.760   6.753
 8120POPC   C3A40925   2.724  16.767   7.053
 8120POPC   C4A40926   2.782  16.751   7.353
 8120POPC   C1B40927   3.015  16.701   6.453
 8120POPC   C2B40928   2.991  16.724   6.753
 8120POPC   C3B40929   2.977  16.671   7.053
 8120POPC   C4B40930   2.966  16.733   7.353
 8121POPC   NC340931  42.289   9.016   5.553
 8121POPC   PO440932  42.329   9.009   5.853
 8121POPC   GL140933  42.302   8.948   6.153
 8121POPC   GL240934  42.285   8.870   6.153
 8121POPC   C1A40935  42.384   9.010   6.453
 8121POPC   D2A40936  42.304   8.970   6.753
 8121POPC   C3A40937  42.321   9.016   7.053
 8121POPC   C4A40938  42.356   8.979   7.353
 8121POPC   C1B40939  42.297   8.762   6.453
 8121POPC   C2B40940  42.309   8.766   6.753
 8121POPC   C3B40941  42.236   8.730   7.053
 8121POPC   C4B40942  42.219   8.754   7.353
 8122POPC   NC340943  31.495   6.640   5.553
 8122POPC   PO440944  31.503   6.650   5.853
 8122POPC   GL140945  31.477   6.647   6.153
 8122POPC   GL240946  31.419   6.617   6.153
 8122POPC   C1A40947  31.497   6.608   6.453
 8122POPC   D2A40948  31.509   6.652   6.753
 8122POPC   C3A40949  31.453   6.600   7.053
 8122POPC   C4A40950  31.450   6.648   7.353
 8122POPC   C1B40951  31.288   6.524   6.453
 8122POPC   C2B40952  31.249   6.534   6.753
 8122POPC   C3B40953  31.280   6.516   7.053
 8122POPC   C4B40954  31.278   6.482   7.353
 8123POPC   NC340955  37.670   6.641   5.553
 8123POPC   PO440956  37.708   6.686   5.853
 8123POPC   GL140957  37.647   6.646   6.153
 8123POPC   GL240958  37.713   6.800   6.153
 8123POPC   C1A40959  37.666   6.660   6.453
 8123POPC   D2A40960  37.703   6.645   6.753
 8123POPC   C3A40961  37.694   6.598   7.053
 8123POPC   C4A40962  37.631   6.694   7.353
 8123POPC   C1B40963  37.697   6.924   6.453
 8123POPC   C2B40964  37.725   6.926   6.753
 8123POPC   C3B40965  37.652   6.850   7.053
 8123POPC   C4B40966  37.735   6.943   7.353
 8124POPC   NC340967   3.578  20.634   5.553
 8124POPC   PO440968   3.524  20.598   5.853
 8124POPC   GL140969   3.542  20.595   6.153
 8124POPC   GL240970   3.642  20.557   6.153
 8124POPC   C1A40971   3.530  20.565   6.453
 8124POPC   D2A40972   3.495  20.588   6.753
 8124POPC   C3A40973   3.585  20.602   7.053
 8124POPC   C4A40974   3.493  20.617   7.353
 8124POPC   C1B40975   3.773  20.547   6.453
 8124POPC   C2B40976   3.745  20.526   6.753
 8124POPC   C3B40977   3.812  20.499   7.053
 8124POPC   C4B40978   3.737  20.575   7.353
 8125POPC   NC340979  37.711  16.772   5.553
 8125POPC   PO440980  37.724  16.732   5.853
 8125POPC   GL140981  37.639  16.735   6.153
 8125POPC   GL240982  37.565  16.747   6.153
 8125POPC   C1A40983  37.703  16.779   6.453
 8125POPC   D2A40984  37.680  16.695   6.753
 8125POPC   C3A40985  37.672  16.758   7.053
 8125POPC   C4A40986  37.651  16.748   7.353
 8125POPC   C1B40987  37.420  16.652   6.453
 8125POPC   C2B40988  37.429  16.705   6.753
 8125POPC   C3B40989  37.476  16.672   7.053
 8125POPC   C4B40990  37.439  16.664   7.353
 8126POPC   NC340991   5.107   6.619   5.553
 8126POPC   PO440992   5.091   6.659   5.853
 8126POPC   GL140993   5.106   6.676   6.153
 8126POPC   GL240994   5.056   6.529   6.153
 8126POPC   C1A40995   5.067   6.641   6.453
 8126POPC   D2A40996   5.060   6.651   6.753
 8126POPC   C3A40997   5.141   6.635   7.053
 8126POPC   C4A40998   5.076   6.658   7.353
 8126POPC   C1B40999   4.906   6.477   6.453
 8126POPC   C2B41000   4.994   6.443   6.753
 8126POPC   C3B41001   4.919   6.437   7.053
 8126POPC   C4B41002   4.925   6.462   7.353
 8127POPC   NC341003   1.239  36.897   5.553
 8127POPC   PO441004   1.246  36.894   5.853
 8127POPC   GL141005   1.247  36.899   6.153
 8127POPC   GL241006   1.249  36.795   6.153
 8127POPC   C1A41007   1.165  36.942   6.453
 8127POPC   D2A41008   1.254  36.922   6.753
 8127POPC   C3A41009   1.251  36.890   7.053
 8127POPC   C4A41010   1.239  36.948   7.353
 8127POPC   C1B41011   1.331  36.712   6.453
 8127POPC   C2B41012   1.364  36.656   6.753
 8127POPC   C3B41013   1.303  36.715   7.053
 8127POPC   C4B41014   1.304  36.705   7.353
 8128POPC   NC341015  15.211  43.882   5.553
 8128POPC   PO441016  15.172  43.919   5.853
 8128POPC   GL141017  15.180  43.840   6.153
 8128POPC   GL241018  15.160  44.019   6.153
 8128POPC   C1A41019  15.225  43.848   6.453
 8128POPC   D2A41020  15.163  43.914   6.753
 8128POPC   C3A41021  15.194  43.886   7.053
 8128POPC   C4A41022  15.168  43.848   7.353
 8128POPC   C1B41023  15.027  44.145   6.453
 8128POPC   C2B41024  15.073  44.087   6.753
 8128POPC   C3B41025  15.063  44.102   7.053
 8128POPC   C4B41026  15.071  44.146   7.353
 8129POPC   NC341027  42.298  40.032   5.553
 8129POPC   PO441028  42.296  39.977   5.853
 8129POPC   GL141029  42.378  40.051   6.153
 8129POPC   GL241030  42.263  40.082   6.153
 8129POPC   C1A41031  42.380  40.003   6.453
 8129POPC   D2A41032  42.381  40.028   6.753
 8129POPC   C3A41033  42.383  39.994   7.053
 8129POPC   C4A41034  42.356  39.968   7.353
 8129POPC   C1B41035  42.095  40.116   6.453
 8129POPC   C2B41036  42.149  40.091   6.753
 8129POPC   C3B41037  42.059  40.156   7.053
 8129POPC   C4B41038  42.136  40.132   7.353
 8130POPC   NC341039  22.134  26.796   5.553
 8130POPC   PO441040  22.203  26.865   5.853
 8130POPC   GL141041  22.122  26.844   6.153
 8130POPC   GL241042  22.318  26.816   6.153
 8130POPC   C1A41043  22.125  26.808   6.453
 8130POPC   D2A41044  22.140  26.772   6.753
 8130POPC   C3A41045  22.176  26.808   7.053
 8130POPC   C4A41046  22.200  26.846   7.353
 8130POPC   C1B41047  22.438  26.671   6.453
 8130POPC   C2B41048  22.397  26.686   6.753
 8130POPC   C3B41049  22.414  26.693   7.053
 8130POPC   C4B41050  22.382  26.713   7.353
 8131POPC   NC341051  16.735  43.930   5.553
 8131POPC   PO441052  16.712  43.844   5.853
 8131POPC   GL141053  16.706  43.838   6.153
 8131POPC   GL241054  16.597  43.898   6.153
 8131POPC   C1A41055  16.765  43.850   6.453
 8131POPC   D2A41056  16.711  43.839   6.753
 8131POPC   C3A41057  16.700  43.895   7.053
 8131POPC   C4A41058  16.717  43.894   7.353
 8131POPC   C1B41059  16.467  43.888   6.453
 8131POPC   C2B41060  16.450  43.932   6.753
 8131POPC   C3B41061  16.523  43.876   7.053
 8131POPC   C4B41062  16.470  43.873   7.353
 8132POPC   NC341063  37.654  17.464   5.553
 8132POPC   PO441064  37.665  17.517   5.853
 8132POPC   GL141065  37.651  17.528   6.153
 8132POPC   GL241066  37.545  17.647   6.153
 8132POPC   C1A41067  37.727  17.536   6.453
 8132POPC   D2A41068  37.702  17.466   6.753
 8132POPC   C3A41069  37.635  17.468   7.053
 8132POPC   C4A41070  37.666  17.474   7.353
 8132POPC   C1B41071  37.464  17.737   6.453
 8132POPC   C2B41072  37.512  17.707   6.753
 8132POPC   C3B41073  37.506  17.687   7.053
 8132POPC   C4B41074  37.464  17.642   7.353
 8133POPC   NC341075  36.942  12.860   5.553
 8133POPC   PO441076  36.904  12.870   5.853
 8133POPC   GL141077  36.895  12.861   6.153
 8133POPC   GL241078  36.830  12.825   6.153
 8133POPC   C1A41079  36.926  12.867   6.453
 8133POPC   D2A41080  36.907  12.888   6.753
 8133POPC   C3A41081  36.883  12.808   7.053
 8133POPC   C4A41082  36.863  12.835   7.353
 8133POPC   C1B41083  36.689  12.774   6.453
 8133POPC   C2B41084  36.672  12.742   6.753
 8133POPC   C3B41085  36.625  12.797   7.053
 8133POPC   C4B41086  36.621  12.790   7.353
 8134POPC   NC341087  41.542  36.879   5.553
 8134POPC   PO441088  41.607  36.896   5.853
 8134POPC   GL141089  41.543  36.924   6.153
 8134POPC   GL241090  41.643  37.006   6.153
 8134POPC   C1A41091  41.576  36.857   6.453
 8134POPC   D2A41092  41.601  36.892   6.753
 8134POPC   C3A41093  41.529  36.904   7.053
 8134POPC   C4A41094  41.592  36.909   7.353
 8134POPC   C1B41095  41.780  37.109   6.453
 8134POPC   C2B41096  41.790  37.093   6.753
 8134POPC   C3B41097  41.769  37.088   7.053
 8134POPC   C4B41098  41.758  37.088   7.353
 8135POPC   NC341099   2.770  28.413   5.553
 8135POPC   PO441100   2.716  28.363   5.853
 8135POPC   GL141101   2.760  28.382   6.153
 8135POPC   GL241102   2.916  28.346   6.153
 8135POPC   C1A41103   2.753  28.336   6.453
 8135POPC   D2A41104   2.761  28.418   6.753
 8135POPC   C3A41105   2.753  28.352   7.053
 8135POPC   C4A41106   2.762  28.414   7.353
 8135POPC   C1B41107   2.969  28.291   6.453
 8135POPC   C2B41108   3.034  28.270   6.753
 8135POPC   C3B41109   2.989  28.297   7.053
 8135POPC   C4B41110   3.018  28.234   7.353
 8136POPC   NC341111  42.333   4.364   5.553
 8136POPC   PO441112  42.305   4.282   5.853
 8136POPC   GL141113  42.327   4.329   6.153
 8136POPC   GL241114  42.240   4.186   6.153
 8136POPC   C1A41115  42.347   4.281   6.453
 8136POPC   D2A41116  42.347   4.291   6.753
 8136POPC   C3A41117  42.299   4.291   7.053
 8136POPC   C4A41118  42.314   4.360   7.353
 8136POPC   C1B41119  42.250   4.049   6.453
 8136POPC   C2B41120  42.256   4.107   6.753
 8136POPC   C3B41121  42.199   4.074   7.053
 8136POPC   C4B41122  42.237   4.115   7.353
 8137POPC   NC341123   2.727  24.491   5.553
 8137POPC   PO441124   2.786  24.497   5.853
 8137POPC   GL141125   2.802  24.524   6.153
 8137POPC   GL241126   2.693  24.634   6.153
 8137POPC   C1A41127   2.780  24.525   6.453
 8137POPC   D2A41128   2.797  24.531   6.753
 8137POPC   C3A41129   2.755  24.528   7.053
 8137POPC   C4A41130   2.753  24.518   7.353
 8137POPC   C1B41131   2.673  24.677   6.453
 8137POPC   C2B41132   2.643  24.738   6.753
 8137POPC   C3B41133   2.638  24.703   7.053
 8137POPC   C4B41134   2.613  24.735   7.353
 8138POPC   NC341135   0.477   0.449   5.553
 8138POPC   PO441136   0.396   0.389   5.853
 8138POPC   GL141137   0.426   0.442   6.153
 8138POPC   GL241138   0.566   0.511   6.153
 8138POPC   C1A41139   0.449   0.431   6.453
 8138POPC   D2A41140   0.468   0.424   6.753
 8138POPC   C3A41141   0.475   0.430   7.053
 8138POPC   C4A41142   0.396   0.485   7.353
 8138POPC   C1B41143   0.657   0.516   6.453
 8138POPC   C2B41144   0.685   0.557   6.753
 8138POPC   C3B41145   0.621   0.564   7.053
 8138POPC   C4B41146   0.638   0.512   7.353
 8139POPC   NC341147  12.089  10.542   5.553
 8139POPC   PO441148  12.118  10.556   5.853
 8139POPC   GL141149  12.100  10.561   6.153
 8139POPC   GL241150  12.171  10.428   6.153
 8139POPC   C1A41151  12.062  10.569   6.453
 8139POPC   D2A41152  12.121  10.534   6.753
 8139POPC   C3A41153  12.070  10.542   7.053
 8139POPC   C4A41154  12.030  10.534   7.353
 8139POPC   C1B41155  12.311  10.449   6.453
 8139POPC   C2B41156  12.268  10.392   6.753
 8139POPC   C3B41157  12.282  10.459   7.053
 8139POPC   C4B41158  12.331  10.393   7.353
 8140POPC   NC341159  41.517   7.467   5.553
 8140POPC   PO441160  41.600   7.412   5.853
 8140POPC   GL141161  41.516   7.388   6.153
 8140POPC   GL241162  41.631   7.541   6.153
 8140POPC   C1A41163  41.521   7.423   6.453
 8140POPC   D2A41164  41.605   7.416   6.753
 8140POPC   C3A41165  41.600   7.429   7.053
 8140POPC   C4A41166  41.562   7.424   7.353
 8140POPC   C1B41167  41.690   7.658   6.453
 8140POPC   C2B41168  41.658   7.634   6.753
 8140POPC   C3B41169  41.697   7.674   7.053
 8140POPC   C4B41170  41.665   7.671   7.353
 8141POPC   NC341171  25.999  33.809   5.553
 8141POPC   PO441172  26.024  33.764   5.853
 8141POPC   GL141173  26.002  33.847   6.153
 8141POPC   GL241174  26.078  33.692   6.153
 8141POPC   C1A41175  26.030  33.835   6.453
 8141POPC   D2A41176  26.064  33.842   6.753
 8141POPC   C3A41177  26.021  33.847   7.053
 8141POPC   C4A41178  26.056  33.813   7.353
 8141POPC   C1B41179  26.069  33.600   6.453
 8141POPC   C2B41180  26.097  33.506   6.753
 8141POPC   C3B41181  26.034  33.584   7.053
 8141POPC   C4B41182  26.053  33.564   7.353
 8142POPC   NC341183  39.985   0.395   5.553
 8142POPC   PO441184  40.019   0.417   5.853
 8142POPC   GL141185  39.980   0.483   6.153
 8142POPC   GL241186  39.993   0.591   6.153
 8142POPC   C1A41187  40.028   0.413   6.453
 8142POPC   D2A41188  39.998   0.451   6.753
 8142POPC   C3A41189  39.973   0.485   7.053
 8142POPC   C4A41190  39.963   0.389   7.353
 8142POPC   C1B41191  39.972   0.720   6.453
 8142POPC   C2B41192  39.998   0.641   6.753
 8142POPC   C3B41193  39.980   0.706   7.053
 8142POPC   C4B41194  39.983   0.711   7.353
 8143POPC   NC341195  39.196   6.671   5.553
 8143POPC   PO441196  39.184   6.617   5.853
 8143POPC   GL141197  39.183   6.644   6.153
 8143POPC   GL241198  39.169   6.702   6.153
 8143POPC   C1A41199  39.237   6.660   6.453
 8143POPC   D2A41200  39.271   6.672   6.753
 8143POPC   C3A41201  39.281   6.599   7.053
 8143POPC   C4A41202  39.280   6.614   7.353
 8143POPC   C1B41203  39.067   6.757   6.453
 8143POPC   C2B41204  39.015   6.804   6.753
 8143POPC   C3B41205  39.040   6.799   7.053
 8143POPC   C4B41206  39.081   6.777   7.353
 8144POPC   NC341207  37.643  30.735   5.553
 8144POPC   PO441208  37.707  30.710   5.853
 8144POPC   GL141209  37.678  30.707   6.153
 8144POPC   GL241210  37.793  30.632   6.153
 8144POPC   C1A41211  37.638  30.698   6.453
 8144POPC   D2A41212  37.634  30.658   6.753
 8144POPC   C3A41213  37.634  30.700   7.053
 8144POPC   C4A41214  37.722  30.679   7.353
 8144POPC   C1B41215  37.929  30.550   6.453
 8144POPC   C2B41216  37.858  30.599   6.753
 8144POPC   C3B41217  37.930  30.579   7.053
 8144POPC   C4B41218  37.915  30.515   7.353
 8145POPC   NC341219  19.097  43.095   5.553
 8145POPC   PO441220  19.068  43.144   5.853
 8145POPC   GL141221  19.057  43.132   6.153
 8145POPC   GL241222  19.018  42.993   6.153
 8145POPC   C1A41223  19.079  43.087   6.453
 8145POPC   D2A41224  19.089  43.131   6.753
 8145POPC   C3A41225  19.044  43.094   7.053
 8145POPC   C4A41226  19.021  43.094   7.353
 8145POPC   C1B41227  19.076  42.855   6.453
 8145POPC   C2B41228  19.009  42.900   6.753
 8145POPC   C3B41229  19.012  42.819   7.053
 8145POPC   C4B41230  18.987  42.864   7.353
 8146POPC   NC341231  38.501  14.402   5.553
 8146POPC   PO441232  38.412  14.399   5.853
 8146POPC   GL141233  38.490  14.415   6.153
 8146POPC   GL241234  38.525  14.269   6.153
 8146POPC   C1A41235  38.432  14.441   6.453
 8146POPC   D2A41236  38.490  14.400   6.753
 8146POPC   C3A41237  38.414  14.398   7.053
 8146POPC   C4A41238  38.494  14.426   7.353
 8146POPC   C1B41239  38.583  14.214   6.453
 8146POPC   C2B41240  38.551  14.225   6.753
 8146POPC   C3B41241  38.632  14.221   7.053
 8146POPC   C4B41242  38.636  14.213   7.353
 8147POPC   NC341243  44.684  25.279   5.553
 8147POPC   PO441244  44.633  25.277   5.853
 8147POPC   GL141245  44.679  25.300   6.153
 8147POPC   GL241246  44.607  25.331   6.153
 8147POPC   C1A41247  44.664  25.312   6.453
 8147POPC   D2A41248  44.635  25.283   6.753
 8147POPC   C3A41249  44.655  25.301   7.053
 8147POPC   C4A41250  44.648  25.275   7.353
 8147POPC   C1B41251  44.467  25.471   6.453
 8147POPC   C2B41252  44.476  25.441   6.753
 8147POPC   C3B41253  44.551  25.443   7.053
 8147POPC   C4B41254  44.476  25.446   7.353
 8148POPC   NC341255  18.276  41.539   5.553
 8148POPC   PO441256  18.313  41.552   5.853
 8148POPC   GL141257  18.270  41.532   6.153
 8148POPC   GL241258  18.413  41.495   6.153
 8148POPC   C1A41259  18.239  41.524   6.453
 8148POPC   D2A41260  18.329  41.601   6.753
 8148POPC   C3A41261  18.310  41.544   7.053
 8148POPC   C4A41262  18.283  41.521   7.353
 8148POPC   C1B41263  18.458  41.444   6.453
 8148POPC   C2B41264  18.487  41.451   6.753
 8148POPC   C3B41265  18.505  41.468   7.053
 8148POPC   C4B41266  18.508  41.454   7.353
 8149POPC   NC341267  40.767  24.499   5.553
 8149POPC   PO441268  40.769  24.515   5.853
 8149POPC   GL141269  40.756  24.470   6.153
 8149POPC   GL241270  40.613  24.484   6.153
 8149POPC   C1A41271  40.796  24.458   6.453
 8149POPC   D2A41272  40.832  24.523   6.753
 8149POPC   C3A41273  40.774  24.461   7.053
 8149POPC   C4A41274  40.741  24.479   7.353
 8149POPC   C1B41275  40.486  24.475   6.453
 8149POPC   C2B41276  40.484  24.504   6.753
 8149POPC   C3B41277  40.562  24.470   7.053
 8149POPC   C4B41278  40.527  24.518   7.353
 8150POPC   NC341279  39.246  22.924   5.553
 8150POPC   PO441280  39.201  22.914   5.853
 8150POPC   GL141281  39.198  22.967   6.153
 8150POPC   GL241282  39.307  23.045   6.153
 8150POPC   C1A41283  39.195  22.897   6.453
 8150POPC   D2A41284  39.187  22.936   6.753
 8150POPC   C3A41285  39.194  22.889   7.053
 8150POPC   C4A41286  39.230  22.904   7.353
 8150POPC   C1B41287  39.294  23.168   6.453
 8150POPC   C2B41288  39.298  23.182   6.753
 8150POPC   C3B41289  39.298  23.144   7.053
 8150POPC   C4B41290  39.309  23.167   7.353
 8151POPC   NC341291   5.875  36.107   5.553
 8151POPC   PO441292   5.883  36.098   5.853
 8151POPC   GL141293   5.881  36.117   6.153
 8151POPC   GL241294   5.955  36.096   6.153
 8151POPC   C1A41295   5.903  36.115   6.453
 8151POPC   D2A41296   5.827  36.120   6.753
 8151POPC   C3A41297   5.864  36.171   7.053
 8151POPC   C4A41298   5.837  36.098   7.353
 8151POPC   C1B41299   6.108  36.047   6.453
 8151POPC   C2B41300   6.141  36.032   6.753
 8151POPC   C3B41301   6.150  36.092   7.053
 8151POPC   C4B41302   6.087  36.079   7.353
 8152POPC   NC341303  20.563  26.060   5.553
 8152POPC   PO441304  20.610  26.018   5.853
 8152POPC   GL141305  20.658  25.996   6.153
 8152POPC   GL241306  20.732  26.058   6.153
 8152POPC   C1A41307  20.588  26.074   6.453
 8152POPC   D2A41308  20.638  26.044   6.753
 8152POPC   C3A41309  20.658  26.078   7.053
 8152POPC   C4A41310  20.610  26.007   7.353
 8152POPC   C1B41311  20.815  26.026   6.453
 8152POPC   C2B41312  20.864  26.021   6.753
 8152POPC   C3B41313  20.853  26.071   7.053
 8152POPC   C4B41314  20.866  26.011   7.353
 8153POPC   NC341315   4.313  34.531   5.553
 8153POPC   PO441316   4.280  34.562   5.853
 8153POPC   GL141317   4.341  34.601   6.153
 8153POPC   GL241318   4.228  34.651   6.153
 8153POPC   C1A41319   4.303  34.584   6.453
 8153POPC   D2A41320   4.320  34.615   6.753
 8153POPC   C3A41321   4.305  34.596   7.053
 8153POPC   C4A41322   4.274  34.593   7.353
 8153POPC   C1B41323   4.266  34.771   6.453
 8153POPC   C2B41324   4.226  34.799   6.753
 8153POPC   C3B41325   4.267  34.839   7.053
 8153POPC   C4B41326   4.197  34.768   7.353
 8154POPC   NC341327   2.779  13.654   5.553
 8154POPC   PO441328   2.806  13.676   5.853
 8154POPC   GL141329   2.768  13.678   6.153
 8154POPC   GL241330   2.904  13.590   6.153
 8154POPC   C1A41331   2.804  13.663   6.453
 8154POPC   D2A41332   2.795  13.609   6.753
 8154POPC   C3A41333   2.763  13.589   7.053
 8154POPC   C4A41334   2.790  13.583   7.353
 8154POPC   C1B41335   3.025  13.532   6.453
 8154POPC   C2B41336   3.027  13.541   6.753
 8154POPC   C3B41337   2.978  13.551   7.053
 8154POPC   C4B41338   2.944  13.516   7.353
 8155POPC   NC341339  15.979  24.455   5.553
 8155POPC   PO441340  15.975  24.512   5.853
 8155POPC   GL141341  15.943  24.478   6.153
 8155POPC   GL241342  15.955  24.361   6.153
 8155POPC   C1A41343  15.972  24.495   6.453
 8155POPC   D2A41344  15.931  24.535   6.753
 8155POPC   C3A41345  15.989  24.493   7.053
 8155POPC   C4A41346  15.998  24.458   7.353
 8155POPC   C1B41347  15.987  24.289   6.453
 8155POPC   C2B41348  15.949  24.229   6.753
 8155POPC   C3B41349  16.001  24.221   7.053
 8155POPC   C4B41350  16.033  24.235   7.353
 8156POPC   NC341351  17.535  25.270   5.553
 8156POPC   PO441352  17.541  25.239   5.853
 8156POPC   GL141353  17.532  25.226   6.153
 8156POPC   GL241354  17.431  25.349   6.153
 8156POPC   C1A41355  17.481  25.287   6.453
 8156POPC   D2A41356  17.509  25.228   6.753
 8156POPC   C3A41357  17.507  25.242   7.053
 8156POPC   C4A41358  17.537  25.308   7.353
 8156POPC   C1B41359  17.324  25.425   6.453
 8156POPC   C2B41360  17.341  25.384   6.753
 8156POPC   C3B41361  17.272  25.477   7.053
 8156POPC   C4B41362  17.288  25.455   7.353
 8157POPC   NC341363  18.330  31.458   5.553
 8157POPC   PO441364  18.287  31.464   5.853
 8157POPC   GL141365  18.242  31.498   6.153
 8157POPC   GL241366  18.300  31.365   6.153
 8157POPC   C1A41367  18.238  31.489   6.453
 8157POPC   D2A41368  18.318  31.522   6.753
 8157POPC   C3A41369  18.330  31.460   7.053
 8157POPC   C4A41370  18.329  31.429   7.353
 8157POPC   C1B41371  18.328  31.255   6.453
 8157POPC   C2B41372  18.312  31.265   6.753
 8157POPC   C3B41373  18.371  31.256   7.053
 8157POPC   C4B41374  18.293  31.274   7.353
 8158POPC   NC341375  17.469   5.889   5.553
 8158POPC   PO441376  17.461   5.917   5.853
 8158POPC   GL141377  17.485   5.824   6.153
 8158POPC   GL241378  17.350   5.861   6.153
 8158POPC   C1A41379  17.481   5.890   6.453
 8158POPC   D2A41380  17.493   5.880   6.753
 8158POPC   C3A41381  17.475   5.885   7.053
 8158POPC   C4A41382  17.499   5.836   7.353
 8158POPC   C1B41383  17.266   5.863   6.453
 8158POPC   C2B41384  17.240   5.918   6.753
 8158POPC   C3B41385  17.285   5.904   7.053
 8158POPC   C4B41386  17.217   5.881   7.353
 8159POPC   NC341387  37.702   0.422   5.553
 8159POPC   PO441388  37.661   0.467   5.853
 8159POPC   GL141389  37.660   0.449   6.153
 8159POPC   GL241390  37.603   0.328   6.153
 8159POPC   C1A41391  37.694   0.485   6.453
 8159POPC   D2A41392  37.659   0.439   6.753
 8159POPC   C3A41393  37.670   0.395   7.053
 8159POPC   C4A41394  37.654   0.459   7.353
 8159POPC   C1B41395  37.551   0.280   6.453
 8159POPC   C2B41396  37.562   0.187   6.753
 8159POPC   C3B41397  37.549   0.208   7.053
 8159POPC   C4B41398  37.498   0.237   7.353
 8160POPC   NC341399  42.380  33.775   5.553
 8160POPC   PO441400  42.297  33.823   5.853
 8160POPC   GL141401  42.379  33.782   6.153
 8160POPC   GL241402  42.396  33.735   6.153
 8160POPC   C1A41403  42.327  33.790   6.453
 8160POPC   D2A41404  42.296  33.848   6.753
 8160POPC   C3A41405  42.378  33.765   7.053
 8160POPC   C4A41406  42.297  33.816   7.353
 8160POPC   C1B41407  42.547  33.650   6.453
 8160POPC   C2B41408  42.521  33.653   6.753
 8160POPC   C3B41409  42.517  33.726   7.053
 8160POPC   C4B41410  42.602  33.659   7.353
 8161POPC   NC341411   3.501   8.240   5.553
 8161POPC   PO441412   3.515   8.172   5.853
 8161POPC   GL141413   3.575   8.217   6.153
 8161POPC   GL241414   3.710   8.156   6.153
 8161POPC   C1A41415   3.583   8.206   6.453
 8161POPC   D2A41416   3.585   8.167   6.753
 8161POPC   C3A41417   3.549   8.245   7.053
 8161POPC   C4A41418   3.500   8.176   7.353
 8161POPC   C1B41419   3.745   8.141   6.453
 8161POPC   C2B41420   3.826   8.197   6.753
 8161POPC   C3B41421   3.761   8.218   7.053
 8161POPC   C4B41422   3.836   8.218   7.353
 8162POPC   NC341423  15.952   1.166   5.553
 8162POPC   PO441424  15.939   1.168   5.853
 8162POPC   GL141425  15.930   1.172   6.153
 8162POPC   GL241426  16.015   1.261   6.153
 8162POPC   C1A41427  15.940   1.190   6.453
 8162POPC   D2A41428  15.978   1.239   6.753
 8162POPC   C3A41429  15.983   1.235   7.053
 8162POPC   C4A41430  15.941   1.205   7.353
 8162POPC   C1B41431  16.118   1.362   6.453
 8162POPC   C2B41432  16.088   1.406   6.753
 8162POPC   C3B41433  16.140   1.391   7.053
 8162POPC   C4B41434  16.090   1.383   7.353
 8163POPC   NC341435   6.651  26.851   5.553
 8163POPC   PO441436   6.684  26.771   5.853
 8163POPC   GL141437   6.623  26.771   6.153
 8163POPC   GL241438   6.516  26.759   6.153
 8163POPC   C1A41439   6.668  26.830   6.453
 8163POPC   D2A41440   6.624  26.773   6.753
 8163POPC   C3A41441   6.690  26.802   7.053
 8163POPC   C4A41442   6.676  26.838   7.353
 8163POPC   C1B41443   6.362  26.775   6.453
 8163POPC   C2B41444   6.453  26.704   6.753
 8163POPC   C3B41445   6.384  26.763   7.053
 8163POPC   C4B41446   6.428  26.772   7.353
 8164POPC   NC341447  43.068  37.690   5.553
 8164POPC   PO441448  43.060  37.672   5.853
 8164POPC   GL141449  43.060  37.712   6.153
 8164POPC   GL241450  43.001  37.740   6.153
 8164POPC   C1A41451  43.121  37.659   6.453
 8164POPC   D2A41452  43.148  37.692   6.753
 8164POPC   C3A41453  43.097  37.705   7.053
 8164POPC   C4A41454  43.124  37.694   7.353
 8164POPC   C1B41455  42.875  37.798   6.453
 8164POPC   C2B41456  42.873  37.850   6.753
 8164POPC   C3B41457  42.883  37.844   7.053
 8164POPC   C4B41458  42.942  37.791   7.353
 8165POPC   NC341459  18.269  19.800   5.553
 8165POPC   PO441460  18.332  19.826   5.853
 8165POPC   GL141461  18.308  19.868   6.153
 8165POPC   GL241462  18.418  19.876   6.153
 8165POPC   C1A41463  18.253  19.821   6.453
 8165POPC   D2A41464  18.282  19.877   6.753
 8165POPC   C3A41465  18.330  19.858   7.053
 8165POPC   C4A41466  18.297  19.871   7.353
 8165POPC   C1B41467  18.483  19.881   6.453
 8165POPC   C2B41468  18.533  19.878   6.753
 8165POPC   C3B41469  18.544  19.937   7.053
 8165POPC   C4B41470  18.491  19.929   7.353
 8166POPC   NC341471  10.563  22.197   5.553
 8166POPC   PO441472  10.539  22.164   5.853
 8166POPC   GL141473  10.569  22.206   6.153
 8166POPC   GL241474  10.494  22.080   6.153
 8166POPC   C1A41475  10.531  22.207   6.453
 8166POPC   D2A41476  10.545  22.208   6.753
 8166POPC   C3A41477  10.546  22.159   7.053
 8166POPC   C4A41478  10.555  22.168   7.353
 8166POPC   C1B41479  10.471  21.936   6.453
 8166POPC   C2B41480  10.555  21.928   6.753
 8166POPC   C3B41481  10.486  21.893   7.053
 8166POPC   C4B41482  10.472  21.903   7.353
 8167POPC   NC341483  25.996  38.476   5.553
 8167POPC   PO441484  26.041  38.443   5.853
 8167POPC   GL141485  26.090  38.459   6.153
 8167POPC   GL241486  26.100  38.358   6.153
 8167POPC   C1A41487  26.006  38.460   6.453
 8167POPC   D2A41488  26.074  38.453   6.753
 8167POPC   C3A41489  26.029  38.476   7.053
 8167POPC   C4A41490  26.030  38.482   7.353
 8167POPC   C1B41491  26.080  38.245   6.453
 8167POPC   C2B41492  26.123  38.184   6.753
 8167POPC   C3B41493  26.129  38.183   7.053
 8167POPC   C4B41494  26.041  38.182   7.353
 8168POPC   NC341495  26.805  38.410   5.553
 8168POPC   PO441496  26.802  38.415   5.853
 8168POPC   GL141497  26.865  38.435   6.153
 8168POPC   GL241498  26.831  38.537   6.153
 8168POPC   C1A41499  26.801  38.463   6.453
 8168POPC   D2A41500  26.769  38.504   6.753
 8168POPC   C3A41501  26.809  38.473   7.053
 8168POPC   C4A41502  26.772  38.473   7.353
 8168POPC   C1B41503  26.911  38.708   6.453
 8168POPC   C2B41504  26.852  38.663   6.753
 8168POPC   C3B41505  26.835  38.669   7.053
 8168POPC   C4B41506  26.879  38.723   7.353
 8169POPC   NC341507  35.384   2.725   5.553
 8169POPC   PO441508  35.394   2.776   5.853
 8169POPC   GL141509  35.374   2.759   6.153
 8169POPC   GL241510  35.232   2.688   6.153
 8169POPC   C1A41511  35.363   2.783   6.453
 8169POPC   D2A41512  35.385   2.804   6.753
 8169POPC   C3A41513  35.395   2.716   7.053
 8169POPC   C4A41514  35.322   2.809   7.353
 8169POPC   C1B41515  35.211   2.553   6.453
 8169POPC   C2B41516  35.183   2.545   6.753
 8169POPC   C3B41517  35.182   2.570   7.053
 8169POPC   C4B41518  35.204   2.542   7.353
 8170POPC   NC341519  25.232  11.261   5.553
 8170POPC   PO441520  25.249  11.318   5.853
 8170POPC   GL141521  25.236  11.299   6.153
 8170POPC   GL241522  25.173  11.293   6.153
 8170POPC   C1A41523  25.269  11.266   6.453
 8170POPC   D2A41524  25.246  11.296   6.753
 8170POPC   C3A41525  25.250  11.339   7.053
 8170POPC   C4A41526  25.287  11.310   7.353
 8170POPC   C1B41527  25.059  11.305   6.453
 8170POPC   C2B41528  24.993  11.326   6.753
 8170POPC   C3B41529  25.043  11.292   7.053
 8170POPC   C4B41530  24.988  11.292   7.353
 8171POPC   NC341531  22.201  23.746   5.553
 8171POPC   PO441532  22.121  23.749   5.853
 8171POPC   GL141533  22.175  23.754   6.153
 8171POPC   GL241534  22.159  23.543   6.153
 8171POPC   C1A41535  22.115  23.722   6.453
 8171POPC   D2A41536  22.198  23.676   6.753
 8171POPC   C3A41537  22.200  23.726   7.053
 8171POPC   C4A41538  22.184  23.758   7.353
 8171POPC   C1B41539  22.157  23.435   6.453
 8171POPC   C2B41540  22.128  23.488   6.753
 8171POPC   C3B41541  22.151  23.455   7.053
 8171POPC   C4B41542  22.156  23.512   7.353
 8172POPC   NC341543   2.012  38.482   5.553
 8172POPC   PO441544   2.037  38.438   5.853
 8172POPC   GL141545   1.951  38.407   6.153
 8172POPC   GL241546   1.918  38.519   6.153
 8172POPC   C1A41547   1.947  38.462   6.453
 8172POPC   D2A41548   1.942  38.503   6.753
 8172POPC   C3A41549   1.967  38.423   7.053
 8172POPC   C4A41550   1.999  38.428   7.353
 8172POPC   C1B41551   1.738  38.550   6.453
 8172POPC   C2B41552   1.758  38.562   6.753
 8172POPC   C3B41553   1.744  38.576   7.053
 8172POPC   C4B41554   1.741  38.538   7.353
 8173POPC   NC341555  15.911  30.701   5.553
 8173POPC   PO441556  15.936  30.678   5.853
 8173POPC   GL141557  15.976  30.702   6.153
 8173POPC   GL241558  16.077  30.587   6.153
 8173POPC   C1A41559  15.942  30.673   6.453
 8173POPC   D2A41560  15.953  30.707   6.753
 8173POPC   C3A41561  15.918  30.669   7.053
 8173POPC   C4A41562  16.000  30.668   7.353
 8173POPC   C1B41563  16.176  30.531   6.453
 8173POPC   C2B41564  16.175  30.540   6.753
 8173POPC   C3B41565  16.135  30.573   7.053
 8173POPC   C4B41566  16.199  30.557   7.353
 8174POPC   NC341567  11.274  12.866   5.553
 8174POPC   PO441568  11.329  12.865   5.853
 8174POPC   GL141569  11.274  12.897   6.153
 8174POPC   GL241570  11.423  12.840   6.153
 8174POPC   C1A41571  11.305  12.830   6.453
 8174POPC   D2A41572  11.345  12.848   6.753
 8174POPC   C3A41573  11.318  12.865   7.053
 8174POPC   C4A41574  11.254  12.804   7.353
 8174POPC   C1B41575  11.547  12.739   6.453
 8174POPC   C2B41576  11.529  12.835   6.753
 8174POPC   C3B41577  11.513  12.803   7.053
 8174POPC   C4B41578  11.554  12.801   7.353
 8175POPC   NC341579  16.710  22.152   5.553
 8175POPC   PO441580  16.716  22.180   5.853
 8175POPC   GL141581  16.767  22.212   6.153
 8175POPC   GL241582  16.628  22.204   6.153
 8175POPC   C1A41583  16.682  22.165   6.453
 8175POPC   D2A41584  16.727  22.121   6.753
 8175POPC   C3A41585  16.758  22.121   7.053
 8175POPC   C4A41586  16.718  22.185   7.353
 8175POPC   C1B41587  16.527  22.153   6.453
 8175POPC   C2B41588  16.451  22.128   6.753
 8175POPC   C3B41589  16.442  22.155   7.053
 8175POPC   C4B41590  16.472  22.190   7.353
 8176POPC   NC341591   2.797  17.509   5.553
 8176POPC   PO441592   2.760  17.503   5.853
 8176POPC   GL141593   2.755  17.458   6.153
 8176POPC   GL241594   2.712  17.572   6.153
 8176POPC   C1A41595   2.749  17.550   6.453
 8176POPC   D2A41596   2.736  17.510   6.753
 8176POPC   C3A41597   2.796  17.537   7.053
 8176POPC   C4A41598   2.752  17.480   7.353
 8176POPC   C1B41599   2.575  17.683   6.453
 8176POPC   C2B41600   2.554  17.693   6.753
 8176POPC   C3B41601   2.517  17.647   7.053
 8176POPC   C4B41602   2.593  17.661   7.353
 8177POPC   NC341603   6.649   8.976   5.553
 8177POPC   PO441604   6.612   8.997   5.853
 8177POPC   GL141605   6.619   8.931   6.153
 8177POPC   GL241606   6.719   8.882   6.153
 8177POPC   C1A41607   6.660   8.980   6.453
 8177POPC   D2A41608   6.684   9.013   6.753
 8177POPC   C3A41609   6.633   9.003   7.053
 8177POPC   C4A41610   6.634   8.948   7.353
 8177POPC   C1B41611   6.771   8.816   6.453
 8177POPC   C2B41612   6.830   8.762   6.753
 8177POPC   C3B41613   6.807   8.780   7.053
 8177POPC   C4B41614   6.741   8.776   7.353
 8178POPC   NC341615  13.655  31.467   5.553
 8178POPC   PO441616  13.653  31.446   5.853
 8178POPC   GL141617  13.604  31.452   6.153
 8178POPC   GL241618  13.586  31.318   6.153
 8178POPC   C1A41619  13.614  31.508   6.453
 8178POPC   D2A41620  13.677  31.435   6.753
 8178POPC   C3A41621  13.657  31.463   7.053
 8178POPC   C4A41622  13.607  31.447   7.353
 8178POPC   C1B41623  13.578  31.231   6.453
 8178POPC   C2B41624  13.567  31.208   6.753
 8178POPC   C3B41625  13.567  31.185   7.053
 8178POPC   C4B41626  13.582  31.188   7.353
 8179POPC   NC341627   7.379  26.808   5.553
 8179POPC   PO441628   7.398  26.814   5.853
 8179POPC   GL141629   7.460  26.803   6.153
 8179POPC   GL241630   7.571  26.817   6.153
 8179POPC   C1A41631   7.467  26.825   6.453
 8179POPC   D2A41632   7.387  26.790   6.753
 8179POPC   C3A41633   7.436  26.809   7.053
 8179POPC   C4A41634   7.397  26.846   7.353
 8179POPC   C1B41635   7.691  26.888   6.453
 8179POPC   C2B41636   7.693  26.831   6.753
 8179POPC   C3B41637   7.661  26.869   7.053
 8179POPC   C4B41638   7.665  26.891   7.353
 8180POPC   NC341639   8.195  11.317   5.553
 8180POPC   PO441640   8.231  11.284   5.853
 8180POPC   GL141641   8.184  11.328   6.153
 8180POPC   GL241642   8.266  11.350   6.153
 8180POPC   C1A41643   8.158  11.282   6.453
 8180POPC   D2A41644   8.209  11.336   6.753
 8180POPC   C3A41645   8.174  11.252   7.053
 8180POPC   C4A41646   8.226  11.303   7.353
 8180POPC   C1B41647   8.477  11.366   6.453
 8180POPC   C2B41648   8.389  11.395   6.753
 8180POPC   C3B41649   8.472  11.355   7.053
 8180POPC   C4B41650   8.447  11.348   7.353
 8181POPC   NC341651  25.303  12.117   5.553
 8181POPC   PO441652  25.285  12.106   5.853
 8181POPC   GL141653  25.286  12.090   6.153
 8181POPC   GL241654  25.354  12.227   6.153
 8181POPC   C1A41655  25.278  12.044   6.453
 8181POPC   D2A41656  25.315  12.039   6.753
 8181POPC   C3A41657  25.279  12.065   7.053
 8181POPC   C4A41658  25.279  12.072   7.353
 8181POPC   C1B41659  25.444  12.238   6.453
 8181POPC   C2B41660  25.356  12.249   6.753
 8181POPC   C3B41661  25.405  12.268   7.053
 8181POPC   C4B41662  25.386  12.333   7.353
 8182POPC   NC341663  32.226  26.028   5.553
 8182POPC   PO441664  32.214  26.030   5.853
 8182POPC   GL141665  32.239  26.004   6.153
 8182POPC   GL241666  32.199  25.926   6.153
 8182POPC   C1A41667  32.258  26.010   6.453
 8182POPC   D2A41668  32.258  26.022   6.753
 8182POPC   C3A41669  32.271  26.065   7.053
 8182POPC   C4A41670  32.220  25.996   7.353
 8182POPC   C1B41671  32.262  25.759   6.453
 8182POPC   C2B41672  32.284  25.805   6.753
 8182POPC   C3B41673  32.245  25.798   7.053
 8182POPC   C4B41674  32.201  25.815   7.353
 8183POPC   NC341675   7.398  15.193   5.553
 8183POPC   PO441676   7.403  15.215   5.853
 8183POPC   GL141677   7.385  15.203   6.153
 8183POPC   GL241678   7.514  15.074   6.153
 8183POPC   C1A41679   7.398  15.131   6.453
 8183POPC   D2A41680   7.447  15.204   6.753
 8183POPC   C3A41681   7.385  15.169   7.053
 8183POPC   C4A41682   7.470  15.150   7.353
 8183POPC   C1B41683   7.523  14.929   6.453
 8183POPC   C2B41684   7.581  14.948   6.753
 8183POPC   C3B41685   7.546  14.993   7.053
 8183POPC   C4B41686   7.580  14.951   7.353
 8184POPC   NC341687  29.873  15.907   5.553
 8184POPC   PO441688  29.916  15.967   5.853
 8184POPC   GL141689  29.938  15.928   6.153
 8184POPC   GL241690  29.755  15.955   6.153
 8184POPC   C1A41691  29.930  15.916   6.453
 8184POPC   D2A41692  29.934  15.974   6.753
 8184POPC   C3A41693  29.955  15.968   7.053
 8184POPC   C4A41694  29.897  15.960   7.353
 8184POPC   C1B41695  29.622  15.955   6.453
 8184POPC   C2B41696  29.679  15.931   6.753
 8184POPC   C3B41697  29.623  15.982   7.053
 8184POPC   C4B41698  29.622  15.985   7.353
 8185POPC   NC341699  28.324  37.674   5.553
 8185POPC   PO441700  28.328  37.724   5.853
 8185POPC   GL141701  28.351  37.654   6.153
 8185POPC   GL241702  28.424  37.567   6.153
 8185POPC   C1A41703  28.338  37.710   6.453
 8185POPC   D2A41704  28.352  37.689   6.753
 8185POPC   C3A41705  28.389  37.725   7.053
 8185POPC   C4A41706  28.329  37.638   7.353
 8185POPC   C1B41707  28.520  37.422   6.453
 8185POPC   C2B41708  28.468  37.444   6.753
 8185POPC   C3B41709  28.545  37.485   7.053
 8185POPC   C4B41710  28.518  37.478   7.353
 8186POPC   NC341711  10.552   5.874   5.553
 8186POPC   PO441712  10.519   5.918   5.853
 8186POPC   GL141713  10.540   5.870   6.153
 8186POPC   GL241714  10.615   5.805   6.153
 8186POPC   C1A41715  10.498   5.868   6.453
 8186POPC   D2A41716  10.486   5.899   6.753
 8186POPC   C3A41717  10.496   5.877   7.053
 8186POPC   C4A41718  10.475   5.891   7.353
 8186POPC   C1B41719  10.803   5.845   6.453
 8186POPC   C2B41720  10.772   5.759   6.753
 8186POPC   C3B41721  10.784   5.807   7.053
 8186POPC   C4B41722  10.804   5.748   7.353
 8187POPC   NC341723  25.996  41.592   5.553
 8187POPC   PO441724  26.056  41.525   5.853
 8187POPC   GL141725  26.000  41.525   6.153
 8187POPC   GL241726  26.128  41.517   6.153
 8187POPC   C1A41727  26.006  41.541   6.453
 8187POPC   D2A41728  26.014  41.528   6.753
 8187POPC   C3A41729  26.011  41.601   7.053
 8187POPC   C4A41730  26.035  41.516   7.353
 8187POPC   C1B41731  26.258  41.414   6.453
 8187POPC   C2B41732  26.242  41.424   6.753
 8187POPC   C3B41733  26.261  41.423   7.053
 8187POPC   C4B41734  26.225  41.467   7.353
 8188POPC   NC341735  15.954  42.320   5.553
 8188POPC   PO441736  15.982  42.289   5.853
 8188POPC   GL141737  15.979  42.307   6.153
 8188POPC   GL241738  15.910  42.184   6.153
 8188POPC   C1A41739  15.925  42.311   6.453
 8188POPC   D2A41740  15.983  42.322   6.753
 8188POPC   C3A41741  15.989  42.295   7.053
 8188POPC   C4A41742  15.954  42.312   7.353
 8188POPC   C1B41743  15.939  42.038   6.453
 8188POPC   C2B41744  15.957  42.079   6.753
 8188POPC   C3B41745  15.954  42.052   7.053
 8188POPC   C4B41746  15.897  42.067   7.353
 8189POPC   NC341747  14.450  33.007   5.553
 8189POPC   PO441748  14.445  32.990   5.853
 8189POPC   GL141749  14.380  32.976   6.153
 8189POPC   GL241750  14.553  33.056   6.153
 8189POPC   C1A41751  14.408  33.047   6.453
 8189POPC   D2A41752  14.393  33.003   6.753
 8189POPC   C3A41753  14.373  32.984   7.053
 8189POPC   C4A41754  14.407  33.011   7.353
 8189POPC   C1B41755  14.582  33.181   6.453
 8189POPC   C2B41756  14.659  33.102   6.753
 8189POPC   C3B41757  14.636  33.123   7.053
 8189POPC   C4B41758  14.597  33.159   7.353
 8190POPC   NC341759  42.308  19.799   5.553
 8190POPC   PO441760  42.325  19.810   5.853
 8190POPC   GL141761  42.289  19.786   6.153
 8190POPC   GL241762  42.450  19.843   6.153
 8190POPC   C1A41763  42.366  19.806   6.453
 8190POPC   D2A41764  42.356  19.828   6.753
 8190POPC   C3A41765  42.340  19.837   7.053
 8190POPC   C4A41766  42.382  19.853   7.353
 8190POPC   C1B41767  42.614  19.727   6.453
 8190POPC   C2B41768  42.611  19.807   6.753
 8190POPC   C3B41769  42.529  19.810   7.053
 8190POPC   C4B41770  42.543  19.804   7.353
 8191POPC   NC341771   4.325  40.813   5.553
 8191POPC   PO441772   4.323  40.787   5.853
 8191POPC   GL141773   4.282  40.809   6.153
 8191POPC   GL241774   4.362  40.880   6.153
 8191POPC   C1A41775   4.272  40.742   6.453
 8191POPC   D2A41776   4.316  40.803   6.753
 8191POPC   C3A41777   4.317  40.738   7.053
 8191POPC   C4A41778   4.332  40.761   7.353
 8191POPC   C1B41779   4.404  40.986   6.453
 8191POPC   C2B41780   4.470  40.948   6.753
 8191POPC   C3B41781   4.442  41.020   7.053
 8191POPC   C4B41782   4.468  41.003   7.353
 8192POPC   NC341783  35.393  14.382   5.553
 8192POPC   PO441784  35.340  14.379   5.853
 8192POPC   GL141785  35.341  14.356   6.153
 8192POPC   GL241786  35.315  14.314   6.153
 8192POPC   C1A41787  35.329  14.355   6.453
 8192POPC   D2A41788  35.320  14.443   6.753
 8192POPC   C3A41789  35.353  14.372   7.053
 8192POPC   C4A41790  35.302  14.394   7.353
 8192POPC   C1B41791  35.235  14.176   6.453
 8192POPC   C2B41792  35.164  14.155   6.753
 8192POPC   C3B41793  35.197  14.234   7.053
 8192POPC   C4B41794  35.245  14.217   7.353
 8193POPC   NC341795  25.238  21.417   5.553
 8193POPC   PO441796  25.254  21.352   5.853
 8193POPC   GL141797  25.263  21.384   6.153
 8193POPC   GL241798  25.341  21.299   6.153
 8193POPC   C1A41799  25.288  21.383   6.453
 8193POPC   D2A41800  25.233  21.346   6.753
 8193POPC   C3A41801  25.232  21.372   7.053
 8193POPC   C4A41802  25.231  21.337   7.353
 8193POPC   C1B41803  25.450  21.167   6.453
 8193POPC   C2B41804  25.400  21.224   6.753
 8193POPC   C3B41805  25.374  21.192   7.053
 8193POPC   C4B41806  25.467  21.228   7.353
 8194POPC   NC341807  32.217  35.395   5.553
 8194POPC   PO441808  32.220  35.379   5.853
 8194POPC   GL141809  32.262  35.372   6.153
 8194POPC   GL241810  32.193  35.475   6.153
 8194POPC   C1A41811  32.202  35.327   6.453
 8194POPC   D2A41812  32.297  35.344   6.753
 8194POPC   C3A41813  32.284  35.315   7.053
 8194POPC   C4A41814  32.251  35.387   7.353
 8194POPC   C1B41815  32.191  35.630   6.453
 8194POPC   C2B41816  32.136  35.557   6.753
 8194POPC   C3B41817  32.173  35.627   7.053
 8194POPC   C4B41818  32.117  35.598   7.353
 8195POPC   NC341819  20.640  40.039   5.553
 8195POPC   PO441820  20.648  40.005   5.853
 8195POPC   GL141821  20.625  40.021   6.153
 8195POPC   GL241822  20.652  40.138   6.153
 8195POPC   C1A41823  20.653  40.022   6.453
 8195POPC   D2A41824  20.606  39.998   6.753
 8195POPC   C3A41825  20.619  39.967   7.053
 8195POPC   C4A41826  20.655  40.039   7.353
 8195POPC   C1B41827  20.685  40.201   6.453
 8195POPC   C2B41828  20.673  40.219   6.753
 8195POPC   C3B41829  20.698  40.273   7.053
 8195POPC   C4B41830  20.704  40.211   7.353
 8196POPC   NC341831  25.251  19.877   5.553
 8196POPC   PO441832  25.306  19.842   5.853
 8196POPC   GL141833  25.283  19.853   6.153
 8196POPC   GL241834  25.290  19.742   6.153
 8196POPC   C1A41835  25.266  19.826   6.453
 8196POPC   D2A41836  25.256  19.842   6.753
 8196POPC   C3A41837  25.293  19.851   7.053
 8196POPC   C4A41838  25.288  19.823   7.353
 8196POPC   C1B41839  25.245  19.578   6.453
 8196POPC   C2B41840  25.316  19.548   6.753
 8196POPC   C3B41841  25.232  19.616   7.053
 8196POPC   C4B41842  25.327  19.581   7.353
 8197POPC   NC341843  37.675  43.861   5.553
 8197POPC   PO441844  37.710  43.912   5.853
 8197POPC   GL141845  37.665  43.925   6.153
 8197POPC   GL241846  37.654  43.988   6.153
 8197POPC   C1A41847  37.724  43.891   6.453
 8197POPC   D2A41848  37.686  43.919   6.753
 8197POPC   C3A41849  37.722  43.917   7.053
 8197POPC   C4A41850  37.664  43.853   7.353
 8197POPC   C1B41851  37.504  44.122   6.453
 8197POPC   C2B41852  37.564  44.069   6.753
 8197POPC   C3B41853  37.536  44.095   7.053
 8197POPC   C4B41854  37.520  44.079   7.353
 8198POPC   NC341855  23.743  36.951   5.553
 8198POPC   PO441856  23.682  36.878   5.853
 8198POPC   GL141857  23.759  36.905   6.153
 8198POPC   GL241858  23.628  37.040   6.153
 8198POPC   C1A41859  23.751  36.865   6.453
 8198POPC   D2A41860  23.747  36.908   6.753
 8198POPC   C3A41861  23.700  36.952   7.053
 8198POPC   C4A41862  23.763  36.854   7.353
 8198POPC   C1B41863  23.620  37.124   6.453
 8198POPC   C2B41864  23.666  37.140   6.753
 8198POPC   C3B41865  23.646  37.151   7.053
 8198POPC   C4B41866  23.628  37.177   7.353
 8199POPC   NC341867  39.991  24.449   5.553
 8199POPC   PO441868  40.036  24.508   5.853
 8199POPC   GL141869  40.032  24.516   6.153
 8199POPC   GL241870  39.932  24.428   6.153
 8199POPC   C1A41871  40.040  24.483   6.453
 8199POPC   D2A41872  40.021  24.504   6.753
 8199POPC   C3A41873  39.989  24.532   7.053
 8199POPC   C4A41874  39.992  24.496   7.353
 8199POPC   C1B41875  39.792  24.296   6.453
 8199POPC   C2B41876  39.851  24.264   6.753
 8199POPC   C3B41877  39.843  24.334   7.053
 8199POPC   C4B41878  39.813  24.270   7.353
 8200POPC   NC341879  27.624  26.838   5.553
 8200POPC   PO441880  27.586  26.774   5.853
 8200POPC   GL141881  27.635  26.798   6.153
 8200POPC   GL241882  27.540  26.932   6.153
 8200POPC   C1A41883  27.549  26.842   6.453
 8200POPC   D2A41884  27.583  26.815   6.753
 8200POPC   C3A41885  27.573  26.850   7.053
 8200POPC   C4A41886  27.609  26.770   7.353
 8200POPC   C1B41887  27.416  26.966   6.453
 8200POPC   C2B41888  27.446  27.004   6.753
 8200POPC   C3B41889  27.354  26.950   7.053
 8200POPC   C4B41890  27.351  26.992   7.353
 8201POPC   NC341891  12.816  14.423   5.553
 8201POPC   PO441892  12.804  14.418   5.853
 8201POPC   GL141893  12.860  14.365   6.153
 8201POPC   GL241894  12.756  14.448   6.153
 8201POPC   C1A41895  12.890  14.452   6.453
 8201POPC   D2A41896  12.897  14.397   6.753
 8201POPC   C3A41897  12.887  14.415   7.053
 8201POPC   C4A41898  12.806  14.358   7.353
 8201POPC   C1B41899  12.665  14.599   6.453
 8201POPC   C2B41900  12.688  14.543   6.753
 8201POPC   C3B41901  12.677  14.557   7.053
 8201POPC   C4B41902  12.618  14.577   7.353
 8202POPC   NC341903  28.372  39.214   5.553
 8202POPC   PO441904  28.343  39.182   5.853
 8202POPC   GL141905  28.349  39.246   6.153
 8202POPC   GL241906  28.424  39.341   6.153
 8202POPC   C1A41907  28.371  39.204   6.453
 8202POPC   D2A41908  28.406  39.224   6.753
 8202POPC   C3A41909  28.359  39.242   7.053
 8202POPC   C4A41910  28.417  39.253   7.353
 8202POPC   C1B41911  28.529  39.401   6.453
 8202POPC   C2B41912  28.452  39.499   6.753
 8202POPC   C3B41913  28.481  39.474   7.053
 8202POPC   C4B41914  28.487  39.468   7.353
 8203POPC   NC341915  24.475  40.781   5.553
 8203POPC   PO441916  24.536  40.790   5.853
 8203POPC   GL141917  24.461  40.787   6.153
 8203POPC   GL241918  24.647  40.764   6.153
 8203POPC   C1A41919  24.458  40.791   6.453
 8203POPC   D2A41920  24.515  40.770   6.753
 8203POPC   C3A41921  24.447  40.740   7.053
 8203POPC   C4A41922  24.462  40.813   7.353
 8203POPC   C1B41923  24.762  40.879   6.453
 8203POPC   C2B41924  24.704  40.879   6.753
 8203POPC   C3B41925  24.754  40.786   7.053
 8203POPC   C4B41926  24.750  40.870   7.353
 8204POPC   NC341927  25.304  26.832   5.553
 8204POPC   PO441928  25.293  26.794   5.853
 8204POPC   GL141929  25.246  26.813   6.153
 8204POPC   GL241930  25.325  26.720   6.153
 8204POPC   C1A41931  25.283  26.849   6.453
 8204POPC   D2A41932  25.216  26.771   6.753
 8204POPC   C3A41933  25.292  26.810   7.053
 8204POPC   C4A41934  25.313  26.788   7.353
 8204POPC   C1B41935  25.301  26.543   6.453
 8204POPC   C2B41936  25.320  26.573   6.753
 8204POPC   C3B41937  25.336  26.530   7.053
 8204POPC   C4B41938  25.274  26.597   7.353
 8205POPC   NC341939  31.493  41.590   5.553
 8205POPC   PO441940  31.464  41.539   5.853
 8205POPC   GL141941  31.490  41.554   6.153
 8205POPC   GL241942  31.359  41.559   6.153
 8205POPC   C1A41943  31.493  41.597   6.453
 8205POPC   D2A41944  31.467  41.608   6.753
 8205POPC   C3A41945  31.426  41.539   7.053
 8205POPC   C4A41946  31.449  41.591   7.353
 8205POPC   C1B41947  31.188  41.610   6.453
 8205POPC   C2B41948  31.189  41.624   6.753
 8205POPC   C3B41949  31.236  41.550   7.053
 8205POPC   C4B41950  31.201  41.605   7.353
 8206POPC   NC341951  33.766  22.974   5.553
 8206POPC   PO441952  33.805  22.936   5.853
 8206POPC   GL141953  33.796  22.976   6.153
 8206POPC   GL241954  33.807  23.023   6.153
 8206POPC   C1A41955  33.791  22.981   6.453
 8206POPC   D2A41956  33.806  22.949   6.753
 8206POPC   C3A41957  33.775  22.987   7.053
 8206POPC   C4A41958  33.838  22.951   7.353
 8206POPC   C1B41959  33.755  23.163   6.453
 8206POPC   C2B41960  33.687  23.205   6.753
 8206POPC   C3B41961  33.750  23.195   7.053
 8206POPC   C4B41962  33.688  23.184   7.353
 8207POPC   NC341963  42.306  12.857   5.553
 8207POPC   PO441964  42.343  12.836   5.853
 8207POPC   GL141965  42.347  12.823   6.153
 8207POPC   GL241966  42.293  12.790   6.153
 8207POPC   C1A41967  42.309  12.809   6.453
 8207POPC   D2A41968  42.337  12.848   6.753
 8207POPC   C3A41969  42.357  12.817   7.053
 8207POPC   C4A41970  42.361  12.804   7.353
 8207POPC   C1B41971  42.215  12.615   6.453
 8207POPC   C2B41972  42.183  12.609   6.753
 8207POPC   C3B41973  42.241  12.615   7.053
 8207POPC   C4B41974  42.248  12.604   7.353
 8208POPC   NC341975  34.598  42.381   5.553
 8208POPC   PO441976  34.608  42.353   5.853
 8208POPC   GL141977  34.528  42.343   6.153
 8208POPC   GL241978  34.426  42.336   6.153
 8208POPC   C1A41979  34.587  42.348   6.453
 8208POPC   D2A41980  34.550  42.352   6.753
 8208POPC   C3A41981  34.531  42.305   7.053
 8208POPC   C4A41982  34.562  42.296   7.353
 8208POPC   C1B41983  34.301  42.286   6.453
 8208POPC   C2B41984  34.329  42.293   6.753
 8208POPC   C3B41985  34.314  42.307   7.053
 8208POPC   C4B41986  34.344  42.268   7.353
 8209POPC   NC341987   1.253  15.157   5.553
 8209POPC   PO441988   1.232  15.158   5.853
 8209POPC   GL141989   1.179  15.201   6.153
 8209POPC   GL241990   1.141  15.044   6.153
 8209POPC   C1A41991   1.216  15.167   6.453
 8209POPC   D2A41992   1.189  15.130   6.753
 8209POPC   C3A41993   1.252  15.159   7.053
 8209POPC   C4A41994   1.172  15.149   7.353
 8209POPC   C1B41995   1.056  15.018   6.453
 8209POPC   C2B41996   1.084  14.994   6.753
 8209POPC   C3B41997   1.073  14.987   7.053
 8209POPC   C4B41998   1.024  14.947   7.353
 8210POPC   NC341999   1.177  25.277   5.553
 8210POPC   PO442000   1.165  25.246   5.853
 8210POPC   GL142001   1.239  25.299   6.153
 8210POPC   GL242002   1.055  25.264   6.153
 8210POPC   C1A42003   1.204  25.283   6.453
 8210POPC   D2A42004   1.229  25.288   6.753
 8210POPC   C3A42005   1.210  25.253   7.053
 8210POPC   C4A42006   1.191  25.245   7.353
 8210POPC   C1B42007   1.006  25.363   6.453
 8210POPC   C2B42008   1.005  25.356   6.753
 8210POPC   C3B42009   0.982  25.284   7.053
 8210POPC   C4B42010   0.940  25.279   7.353
 8211POPC   NC342011  19.025  24.445   5.553
 8211POPC   PO442012  19.075  24.489   5.853
 8211POPC   GL142013  19.100  24.485   6.153
 8211POPC   GL242014  19.001  24.461   6.153
 8211POPC   C1A42015  19.060  24.493   6.453
 8211POPC   D2A42016  19.105  24.515   6.753
 8211POPC   C3A42017  19.059  24.526   7.053
 8211POPC   C4A42018  19.048  24.500   7.353
 8211POPC   C1B42019  18.803  24.324   6.453
 8211POPC   C2B42020  18.816  24.342   6.753
 8211POPC   C3B42021  18.832  24.324   7.053
 8211POPC   C4B42022  18.870  24.350   7.353
 8212POPC   NC342023  22.900  16.000   5.553
 8212POPC   PO442024  22.969  15.947   5.853
 8212POPC   GL142025  22.933  15.987   6.153
 8212POPC   GL242026  22.960  16.028   6.153
 8212POPC   C1A42027  22.891  15.923   6.453
 8212POPC   D2A42028  22.923  15.985   6.753
 8212POPC   C3A42029  22.963  15.988   7.053
 8212POPC   C4A42030  22.899  15.959   7.353
 8212POPC   C1B42031  23.052  16.189   6.453
 8212POPC   C2B42032  22.990  16.233   6.753
 8212POPC   C3B42033  22.980  16.240   7.053
 8212POPC   C4B42034  23.022  16.174   7.353
 8213POPC   NC342035  19.039   1.968   5.553
 8213POPC   PO442036  19.066   1.957   5.853
 8213POPC   GL142037  19.076   1.965   6.153
 8213POPC   GL242038  19.091   2.075   6.153
 8213POPC   C1A42039  19.070   2.001   6.453
 8213POPC   D2A42040  19.107   1.976   6.753
 8213POPC   C3A42041  19.096   2.006   7.053
 8213POPC   C4A42042  19.105   1.993   7.353
 8213POPC   C1B42043  19.071   2.218   6.453
 8213POPC   C2B42044  18.997   2.195   6.753
 8213POPC   C3B42045  18.992   2.243   7.053
 8213POPC   C4B42046  18.993   2.216   7.353
 8214POPC   NC342047  40.802  35.303   5.553
 8214POPC   PO442048  40.753  35.347   5.853
 8214POPC   GL142049  40.826  35.312   6.153
 8214POPC   GL242050  40.753  35.237   6.153
 8214POPC   C1A42051  40.813  35.345   6.453
 8214POPC   D2A42052  40.831  35.304   6.753
 8214POPC   C3A42053  40.800  35.390   7.053
 8214POPC   C4A42054  40.794  35.379   7.353
 8214POPC   C1B42055  40.648  35.122   6.453
 8214POPC   C2B42056  40.646  35.176   6.753
 8214POPC   C3B42057  40.661  35.111   7.053
 8214POPC   C4B42058  40.614  35.116   7.353
 8215POPC   NC342059  41.591   4.325   5.553
 8215POPC   PO442060  41.560   4.296   5.853
 8215POPC   GL142061  41.580   4.348   6.153
 8215POPC   GL242062  41.503   4.201   6.153
 8215POPC   C1A42063  41.542   4.336   6.453
 8215POPC   D2A42064  41.525   4.366   6.753
 8215POPC   C3A42065  41.509   4.325   7.053
 8215POPC   C4A42066  41.525   4.290   7.353
 8215POPC   C1B42067  41.457   4.143   6.453
 8215POPC   C2B42068  41.454   4.146   6.753
 8215POPC   C3B42069  41.453   4.090   7.053
 8215POPC   C4B42070  41.416   4.155   7.353
 8216POPC   NC342071  19.102  29.128   5.553
 8216POPC   PO442072  19.013  29.132   5.853
 8216POPC   GL142073  19.048  29.152   6.153
 8216POPC   GL242074  18.962  29.115   6.153
 8216POPC   C1A42075  19.085  29.122   6.453
 8216POPC   D2A42076  19.069  29.135   6.753
 8216POPC   C3A42077  19.015  29.135   7.053
 8216POPC   C4A42078  19.072  29.132   7.353
 8216POPC   C1B42079  18.910  28.996   6.453
 8216POPC   C2B42080  18.871  28.986   6.753
 8216POPC   C3B42081  18.864  28.969   7.053
 8216POPC   C4B42082  18.912  29.010   7.353
 8217POPC   NC342083  35.327   3.568   5.553
 8217POPC   PO442084  35.355   3.522   5.853
 8217POPC   GL142085  35.358   3.504   6.153
 8217POPC   GL242086  35.223   3.487   6.153
 8217POPC   C1A42087  35.333   3.572   6.453
 8217POPC   D2A42088  35.319   3.537   6.753
 8217POPC   C3A42089  35.338   3.532   7.053
 8217POPC   C4A42090  35.322   3.527   7.353
 8217POPC   C1B42091  35.112   3.443   6.453
 8217POPC   C2B42092  35.091   3.389   6.753
 8217POPC   C3B42093  35.184   3.390   7.053
 8217POPC   C4B42094  35.122   3.409   7.353
 8218POPC   NC342095   8.983  23.685   5.553
 8218POPC   PO442096   8.986  23.762   5.853
 8218POPC   GL142097   9.013  23.679   6.153
 8218POPC   GL242098   8.836  23.660   6.153
 8218POPC   C1A42099   8.998  23.680   6.453
 8218POPC   D2A42100   8.951  23.675   6.753
 8218POPC   C3A42101   8.939  23.702   7.053
 8218POPC   C4A42102   8.932  23.711   7.353
 8218POPC   C1B42103   8.775  23.618   6.453
 8218POPC   C2B42104   8.800  23.562   6.753
 8218POPC   C3B42105   8.756  23.599   7.053
 8218POPC   C4B42106   8.713  23.598   7.353
 8219POPC   NC342107  40.028  12.830   5.553
 8219POPC   PO442108  40.052  12.896   5.853
 8219POPC   GL142109  40.050  12.861   6.153
 8219POPC   GL242110  40.166  12.858   6.153
 8219POPC   C1A42111  40.003  12.810   6.453
 8219POPC   D2A42112  40.001  12.822   6.753
 8219POPC   C3A42113  40.050  12.883   7.053
 8219POPC   C4A42114  40.027  12.861   7.353
 8219POPC   C1B42115  40.235  12.824   6.453
 8219POPC   C2B42116  40.273  12.826   6.753
 8219POPC   C3B42117  40.219  12.810   7.053
 8219POPC   C4B42118  40.250  12.862   7.353
 8220POPC   NC342119  38.483  24.459   5.553
 8220POPC   PO442120  38.479  24.487   5.853
 8220POPC   GL142121  38.434  24.446   6.153
 8220POPC   GL242122  38.578  24.509   6.153
 8220POPC   C1A42123  38.484  24.476   6.453
 8220POPC   D2A42124  38.491  24.462   6.753
 8220POPC   C3A42125  38.416  24.488   7.053
 8220POPC   C4A42126  38.432  24.539   7.353
 8220POPC   C1B42127  38.689  24.491   6.453
 8220POPC   C2B42128  38.750  24.410   6.753
 8220POPC   C3B42129  38.661  24.435   7.053
 8220POPC   C4B42130  38.689  24.462   7.353
 8221POPC   NC342131  13.586   5.824   5.553
 8221POPC   PO442132  13.579   5.892   5.853
 8221POPC   GL142133  13.648   5.918   6.153
 8221POPC   GL242134  13.611   5.782   6.153
 8221POPC   C1A42135  13.629   5.894   6.453
 8221POPC   D2A42136  13.622   5.863   6.753
 8221POPC   C3A42137  13.611   5.919   7.053
 8221POPC   C4A42138  13.593   5.875   7.353
 8221POPC   C1B42139  13.605   5.660   6.453
 8221POPC   C2B42140  13.617   5.659   6.753
 8221POPC   C3B42141  13.578   5.581   7.053
 8221POPC   C4B42142  13.557   5.641   7.353
 8222POPC   NC342143   9.718  29.927   5.553
 8222POPC   PO442144   9.756  29.872   5.853
 8222POPC   GL142145   9.732  29.887   6.153
 8222POPC   GL242146   9.772  29.995   6.153
 8222POPC   C1A42147   9.771  29.889   6.453
 8222POPC   D2A42148   9.742  29.923   6.753
 8222POPC   C3A42149   9.708  29.902   7.053
 8222POPC   C4A42150   9.748  29.959   7.353
 8222POPC   C1B42151   9.815  30.182   6.453
 8222POPC   C2B42152   9.898  30.128   6.753
 8222POPC   C3B42153   9.910  30.156   7.053
 8222POPC   C4B42154   9.863  30.102   7.353
 8223POPC   NC342155  10.555  15.173   5.553
 8223POPC   PO442156  10.564  15.174   5.853
 8223POPC   GL142157  10.528  15.191   6.153
 8223POPC   GL242158  10.618  15.267   6.153
 8223POPC   C1A42159  10.502  15.217   6.453
 8223POPC   D2A42160  10.535  15.164   6.753
 8223POPC   C3A42161  10.565  15.147   7.053
 8223POPC   C4A42162  10.485  15.211   7.353
 8223POPC   C1B42163  10.714  15.389   6.453
 8223POPC   C2B42164  10.644  15.381   6.753
 8223POPC   C3B42165  10.651  15.358   7.053
 8223POPC   C4B42166  10.666  15.399   7.353
 8224POPC   NC342167  12.107   5.082   5.553
 8224POPC   PO442168  12.054   5.081   5.853
 8224POPC   GL142169  12.032   5.135   6.153
 8224POPC   GL242170  12.081   5.266   6.153
 8224POPC   C1A42171  12.037   5.127   6.453
 8224POPC   D2A42172  12.104   5.054   6.753
 8224POPC   C3A42173  12.033   5.112   7.053
 8224POPC   C4A42174  12.089   5.057   7.353
 8224POPC   C1B42175  12.018   5.355   6.453
 8224POPC   C2B42176  11.989   5.362   6.753
 8224POPC   C3B42177  12.055   5.376   7.053
 8224POPC   C4B42178  12.058   5.306   7.353
 8225POPC   NC342179   5.088   8.954   5.553
 8225POPC   PO442180   5.143   8.953   5.853
 8225POPC   GL142181   5.097   8.985   6.153
 8225POPC   GL242182   5.013   9.051   6.153
 8225POPC   C1A42183   5.112   8.988   6.453
 8225POPC   D2A42184   5.066   9.019   6.753
 8225POPC   C3A42185   5.130   9.004   7.053
 8225POPC   C4A42186   5.064   8.966   7.353
 8225POPC   C1B42187   4.964   9.150   6.453
 8225POPC   C2B42188   4.958   9.187   6.753
 8225POPC   C3B42189   4.894   9.191   7.053
 8225POPC   C4B42190   4.903   9.179   7.353
 8226POPC   NC342191  14.383   5.081   5.553
 8226POPC   PO442192  14.371   5.106   5.853
 8226POPC   GL142193  14.395   5.122   6.153
 8226POPC   GL242194  14.494   5.100   6.153
 8226POPC   C1A42195  14.356   5.124   6.453
 8226POPC   D2A42196  14.381   5.094   6.753
 8226POPC   C3A42197  14.368   5.114   7.053
 8226POPC   C4A42198  14.397   5.076   7.353
 8226POPC   C1B42199  14.635   5.093   6.453
 8226POPC   C2B42200  14.632   5.117   6.753
 8226POPC   C3B42201  14.611   5.048   7.053
 8226POPC   C4B42202  14.645   5.122   7.353
 8227POPC   NC342203  34.605   2.726   5.553
 8227POPC   PO442204  34.624   2.789   5.853
 8227POPC   GL142205  34.571   2.751   6.153
 8227POPC   GL242206  34.550   2.862   6.153
 8227POPC   C1A42207  34.583   2.784   6.453
 8227POPC   D2A42208  34.536   2.803   6.753
 8227POPC   C3A42209  34.603   2.798   7.053
 8227POPC   C4A42210  34.543   2.745   7.353
 8227POPC   C1B42211  34.468   2.961   6.453
 8227POPC   C2B42212  34.518   2.986   6.753
 8227POPC   C3B42213  34.464   3.004   7.053
 8227POPC   C4B42214  34.485   3.026   7.353
 8228POPC   NC342215  16.715  35.309   5.553
 8228POPC   PO442216  16.733  35.391   5.853
 8228POPC   GL142217  16.736  35.365   6.153
 8228POPC   GL242218  16.744  35.431   6.153
 8228POPC   C1A42219  16.737  35.370   6.453
 8228POPC   D2A42220  16.763  35.372   6.753
 8228POPC   C3A42221  16.770  35.358   7.053
 8228POPC   C4A42222  16.684  35.341   7.353
 8228POPC   C1B42223  16.793  35.645   6.453
 8228POPC   C2B42224  16.751  35.578   6.753
 8228POPC   C3B42225  16.745  35.583   7.053
 8228POPC   C4B42226  16.786  35.583   7.353
 8229POPC   NC342227  25.276  41.588   5.553
 8229POPC   PO442228  25.294  41.538   5.853
 8229POPC   GL142229  25.238  41.586   6.153
 8229POPC   GL242230  25.387  41.440   6.153
 8229POPC   C1A42231  25.224  41.587   6.453
 8229POPC   D2A42232  25.247  41.577   6.753
 8229POPC   C3A42233  25.235  41.601   7.053
 8229POPC   C4A42234  25.300  41.560   7.353
 8229POPC   C1B42235  25.405  41.434   6.453
 8229POPC   C2B42236  25.414  41.407   6.753
 8229POPC   C3B42237  25.457  41.416   7.053
 8229POPC   C4B42238  25.413  41.414   7.353
 8230POPC   NC342239  32.213  33.810   5.553
 8230POPC   PO442240  32.227  33.766   5.853
 8230POPC   GL142241  32.233  33.781   6.153
 8230POPC   GL242242  32.150  33.912   6.153
 8230POPC   C1A42243  32.256  33.825   6.453
 8230POPC   D2A42244  32.209  33.832   6.753
 8230POPC   C3A42245  32.223  33.819   7.053
 8230POPC   C4A42246  32.242  33.751   7.353
 8230POPC   C1B42247  32.112  34.069   6.453
 8230POPC   C2B42248  32.122  34.055   6.753
 8230POPC   C3B42249  32.098  33.979   7.053
 8230POPC   C4B42250  32.125  34.077   7.353
 8231POPC   NC342251  34.591   4.283   5.553
 8231POPC   PO442252  34.605   4.364   5.853
 8231POPC   GL142253  34.590   4.272   6.153
 8231POPC   GL242254  34.685   4.236   6.153
 8231POPC   C1A42255  34.616   4.302   6.453
 8231POPC   D2A42256  34.527   4.298   6.753
 8231POPC   C3A42257  34.577   4.328   7.053
 8231POPC   C4A42258  34.527   4.363   7.353
 8231POPC   C1B42259  34.758   4.152   6.453
 8231POPC   C2B42260  34.742   4.099   6.753
 8231POPC   C3B42261  34.757   4.098   7.053
 8231POPC   C4B42262  34.680   4.152   7.353
 8232POPC   NC342263  41.571   0.459   5.553
 8232POPC   PO442264  41.607   0.390   5.853
 8232POPC   GL142265  41.605   0.464   6.153
 8232POPC   GL242266  41.534   0.603   6.153
 8232POPC   C1A42267  41.513   0.420   6.453
 8232POPC   D2A42268  41.514   0.446   6.753
 8232POPC   C3A42269  41.553   0.464   7.053
 8232POPC   C4A42270  41.562   0.432   7.353
 8232POPC   C1B42271  41.457   0.715   6.453
 8232POPC   C2B42272  41.547   0.722   6.753
 8232POPC   C3B42273  41.501   0.648   7.053
 8232POPC   C4B42274  41.494   0.707   7.353
 8233POPC   NC342275  28.396   9.796   5.553
 8233POPC   PO442276  28.410   9.793   5.853
 8233POPC   GL142277  28.373   9.736   6.153
 8233POPC   GL242278  28.491   9.778   6.153
 8233POPC   C1A42279  28.411   9.723   6.453
 8233POPC   D2A42280  28.343   9.741   6.753
 8233POPC   C3A42281  28.386   9.723   7.053
 8233POPC   C4A42282  28.405   9.713   7.353
 8233POPC   C1B42283  28.572   9.728   6.453
 8233POPC   C2B42284  28.583   9.778   6.753
 8233POPC   C3B42285  28.615   9.788   7.053
 8233POPC   C4B42286  28.637   9.739   7.353
 8234POPC   NC342287  32.229  44.675   5.553
 8234POPC   PO442288  32.277  44.676   5.853
 8234POPC   GL142289  32.231  44.629   6.153
 8234POPC   GL242290  32.179  44.580   6.153
 8234POPC   C1A42291  32.256  44.662   6.453
 8234POPC   D2A42292  32.229  44.650   6.753
 8234POPC   C3A42293  32.285  44.702   7.053
 8234POPC   C4A42294  32.278  44.702   7.353
 8234POPC   C1B42295  32.135  44.495   6.453
 8234POPC   C2B42296  32.101  44.424   6.753
 8234POPC   C3B42297  32.107  44.440   7.053
 8234POPC   C4B42298  32.038  44.459   7.353
 8235POPC   NC342299  33.844   1.165   5.553
 8235POPC   PO442300  33.763   1.176   5.853
 8235POPC   GL142301  33.776   1.257   6.153
 8235POPC   GL242302  33.737   1.109   6.153
 8235POPC   C1A42303  33.769   1.173   6.453
 8235POPC   D2A42304  33.843   1.219   6.753
 8235POPC   C3A42305  33.798   1.249   7.053
 8235POPC   C4A42306  33.759   1.172   7.353
 8235POPC   C1B42307  33.692   0.956   6.453
 8235POPC   C2B42308  33.622   0.969   6.753
 8235POPC   C3B42309  33.649   1.016   7.053
 8235POPC   C4B42310  33.654   1.034   7.353
 8236POPC   NC342311   6.636  19.023   5.553
 8236POPC   PO442312   6.623  19.012   5.853
 8236POPC   GL142313   6.687  19.059   6.153
 8236POPC   GL242314   6.502  19.076   6.153
 8236POPC   C1A42315   6.646  19.052   6.453
 8236POPC   D2A42316   6.634  19.062   6.753
 8236POPC   C3A42317   6.620  19.017   7.053
 8236POPC   C4A42318   6.636  19.055   7.353
 8236POPC   C1B42319   6.433  19.097   6.453
 8236POPC   C2B42320   6.444  19.091   6.753
 8236POPC   C3B42321   6.392  19.024   7.053
 8236POPC   C4B42322   6.345  19.008   7.353
 8237POPC   NC342323   6.636   3.521   5.553
 8237POPC   PO442324   6.605   3.533   5.853
 8237POPC   GL142325   6.628   3.545   6.153
 8237POPC   GL242326   6.535   3.666   6.153
 8237POPC   C1A42327   6.627   3.555   6.453
 8237POPC   D2A42328   6.661   3.542   6.753
 8237POPC   C3A42329   6.685   3.578   7.053
 8237POPC   C4A42330   6.623   3.589   7.353
 8237POPC   C1B42331   6.491   3.768   6.453
 8237POPC   C2B42332   6.489   3.717   6.753
 8237POPC   C3B42333   6.526   3.768   7.053
 8237POPC   C4B42334   6.491   3.748   7.353
 8238POPC   NC342335   4.285  41.553   5.553
 8238POPC   PO442336   4.284  41.539   5.853
 8238POPC   GL142337   4.354  41.568   6.153
 8238POPC   GL242338   4.367  41.476   6.153
 8238POPC   C1A42339   4.311  41.514   6.453
 8238POPC   D2A42340   4.294  41.569   6.753
 8238POPC   C3A42341   4.269  41.539   7.053
 8238POPC   C4A42342   4.296  41.596   7.353
 8238POPC   C1B42343   4.475  41.348   6.453
 8238POPC   C2B42344   4.476  41.338   6.753
 8238POPC   C3B42345   4.465  41.298   7.053
 8238POPC   C4B42346   4.488  41.367   7.353
 8239POPC   NC342347  38.500  33.035   5.553
 8239POPC   PO442348  38.491  33.065   5.853
 8239POPC   GL142349  38.447  33.069   6.153
 8239POPC   GL242350  38.448  32.921   6.153
 8239POPC   C1A42351  38.481  33.042   6.453
 8239POPC   D2A42352  38.421  33.001   6.753
 8239POPC   C3A42353  38.448  32.993   7.053
 8239POPC   C4A42354  38.483  33.046   7.353
 8239POPC   C1B42355  38.574  32.788   6.453
 8239POPC   C2B42356  38.571  32.786   6.753
 8239POPC   C3B42357  38.480  32.819   7.053
 8239POPC   C4B42358  38.572  32.830   7.353
 8240POPC   NC342359  33.059  34.567   5.553
 8240POPC   PO442360  33.002  34.595   5.853
 8240POPC   GL142361  32.993  34.609   6.153
 8240POPC   GL242362  33.082  34.723   6.153
 8240POPC   C1A42363  32.993  34.558   6.453
 8240POPC   D2A42364  33.014  34.560   6.753
 8240POPC   C3A42365  33.029  34.594   7.053
 8240POPC   C4A42366  33.023  34.538   7.353
 8240POPC   C1B42367  33.067  34.841   6.453
 8240POPC   C2B42368  33.105  34.866   6.753
 8240POPC   C3B42369  33.042  34.864   7.053
 8240POPC   C4B42370  33.031  34.865   7.353
 8241POPC   NC342371  36.946  29.188   5.553
 8241POPC   PO442372  36.882  29.190   5.853
 8241POPC   GL142373  36.869  29.158   6.153
 8241POPC   GL242374  36.840  29.073   6.153
 8241POPC   C1A42375  36.930  29.170   6.453
 8241POPC   D2A42376  36.936  29.172   6.753
 8241POPC   C3A42377  36.941  29.162   7.053
 8241POPC   C4A42378  36.853  29.106   7.353
 8241POPC   C1B42379  36.726  29.035   6.453
 8241POPC   C2B42380  36.697  28.964   6.753
 8241POPC   C3B42381  36.730  28.973   7.053
 8241POPC   C4B42382  36.693  28.971   7.353
 8242POPC   NC342383   5.085   4.289   5.553
 8242POPC   PO442384   5.102   4.318   5.853
 8242POPC   GL142385   5.066   4.324   6.153
 8242POPC   GL242386   4.996   4.349   6.153
 8242POPC   C1A42387   5.108   4.347   6.453
 8242POPC   D2A42388   5.068   4.337   6.753
 8242POPC   C3A42389   5.125   4.277   7.053
 8242POPC   C4A42390   5.114   4.275   7.353
 8242POPC   C1B42391   4.883   4.460   6.453
 8242POPC   C2B42392   4.859   4.373   6.753
 8242POPC   C3B42393   4.829   4.417   7.053
 8242POPC   C4B42394   4.897   4.377   7.353
 8243POPC   NC342395  36.114  15.213   5.553
 8243POPC   PO442396  36.119  15.170   5.853
 8243POPC   GL142397  36.143  15.176   6.153
 8243POPC   GL242398  36.140  15.304   6.153
 8243POPC   C1A42399  36.130  15.185   6.453
 8243POPC   D2A42400  36.124  15.149   6.753
 8243POPC   C3A42401  36.129  15.222   7.053
 8243POPC   C4A42402  36.143  15.228   7.353
 8243POPC   C1B42403  36.168  15.389   6.453
 8243POPC   C2B42404  36.175  15.403   6.753
 8243POPC   C3B42405  36.196  15.382   7.053
 8243POPC   C4B42406  36.126  15.448   7.353
 8244POPC   NC342407  30.718  43.860   5.553
 8244POPC   PO442408  30.722  43.884   5.853
 8244POPC   GL142409  30.647  43.921   6.153
 8244POPC   GL242410  30.746  43.930   6.153
 8244POPC   C1A42411  30.718  43.934   6.453
 8244POPC   D2A42412  30.698  43.856   6.753
 8244POPC   C3A42413  30.746  43.884   7.053
 8244POPC   C4A42414  30.666  43.865   7.353
 8244POPC   C1B42415  30.855  44.072   6.453
 8244POPC   C2B42416  30.839  44.061   6.753
 8244POPC   C3B42417  30.913  44.110   7.053
 8244POPC   C4B42418  30.863  44.054   7.353
 8245POPC   NC342419  42.360  29.891   5.553
 8245POPC   PO442420  42.346  29.924   5.853
 8245POPC   GL142421  42.361  29.952   6.153
 8245POPC   GL242422  42.436  29.869   6.153
 8245POPC   C1A42423  42.308  29.892   6.453
 8245POPC   D2A42424  42.347  29.902   6.753
 8245POPC   C3A42425  42.372  29.909   7.053
 8245POPC   C4A42426  42.369  29.947   7.353
 8245POPC   C1B42427  42.580  29.842   6.453
 8245POPC   C2B42428  42.601  29.850   6.753
 8245POPC   C3B42429  42.572  29.830   7.053
 8245POPC   C4B42430  42.563  29.775   7.353
 8246POPC   NC342431  18.279  43.120   5.553
 8246POPC   PO442432  18.280  43.107   5.853
 8246POPC   GL142433  18.293  43.095   6.153
 8246POPC   GL242434  18.365  43.146   6.153
 8246POPC   C1A42435  18.325  43.113   6.453
 8246POPC   D2A42436  18.331  43.118   6.753
 8246POPC   C3A42437  18.241  43.062   7.053
 8246POPC   C4A42438  18.277  43.099   7.353
 8246POPC   C1B42439  18.502  43.212   6.453
 8246POPC   C2B42440  18.459  43.210   6.753
 8246POPC   C3B42441  18.525  43.266   7.053
 8246POPC   C4B42442  18.548  43.223   7.353
 8247POPC   NC342443   6.681  39.969   5.553
 8247POPC   PO442444   6.646  40.053   5.853
 8247POPC   GL142445   6.628  40.018   6.153
 8247POPC   GL242446   6.669  40.084   6.153
 8247POPC   C1A42447   6.671  39.991   6.453
 8247POPC   D2A42448   6.603  40.009   6.753
 8247POPC   C3A42449   6.643  40.007   7.053
 8247POPC   C4A42450   6.614  40.037   7.353
 8247POPC   C1B42451   6.663  40.286   6.453
 8247POPC   C2B42452   6.620  40.224   6.753
 8247POPC   C3B42453   6.672  40.272   7.053
 8247POPC   C4B42454   6.622  40.238   7.353
 8248POPC   NC342455  38.419  44.673   5.553
 8248POPC   PO442456  38.448  44.660   5.853
 8248POPC   GL142457  38.489  44.642   6.153
 8248POPC   GL242458  38.479  44.564   6.153
 8248POPC   C1A42459  38.448  44.651   6.453
 8248POPC   D2A42460  38.470  44.617   6.753
 8248POPC   C3A42461  38.433  44.639   7.053
 8248POPC   C4A42462  38.412  44.671   7.353
 8248POPC   C1B42463  38.535  44.460   6.453
 8248POPC   C2B42464  38.534  44.481   6.753
 8248POPC   C3B42465  38.579  44.394   7.053
 8248POPC   C4B42466  38.551  44.460   7.353
 8249POPC   NC342467  29.923  29.113   5.553
 8249POPC   PO442468  29.960  29.121   5.853
 8249POPC   GL142469  29.913  29.167   6.153
 8249POPC   GL242470  30.008  29.068   6.153
 8249POPC   C1A42471  29.874  29.149   6.453
 8249POPC   D2A42472  29.954  29.162   6.753
 8249POPC   C3A42473  29.895  29.118   7.053
 8249POPC   C4A42474  29.902  29.175   7.353
 8249POPC   C1B42475  30.122  28.976   6.453
 8249POPC   C2B42476  30.058  28.928   6.753
 8249POPC   C3B42477  30.063  28.962   7.053
 8249POPC   C4B42478  30.099  28.961   7.353
 8250POPC   NC342479  22.149  17.476   5.553
 8250POPC   PO442480  22.139  17.517   5.853
 8250POPC   GL142481  22.118  17.498   6.153
 8250POPC   GL242482  22.310  17.540   6.153
 8250POPC   C1A42483  22.145  17.530   6.453
 8250POPC   D2A42484  22.150  17.511   6.753
 8250POPC   C3A42485  22.192  17.495   7.053
 8250POPC   C4A42486  22.133  17.514   7.353
 8250POPC   C1B42487  22.406  17.525   6.453
 8250POPC   C2B42488  22.371  17.546   6.753
 8250POPC   C3B42489  22.424  17.505   7.053
 8250POPC   C4B42490  22.439  17.595   7.353
 8251POPC   NC342491  28.384  41.558   5.553
 8251POPC   PO442492  28.334  41.603   5.853
 8251POPC   GL142493  28.361  41.596   6.153
 8251POPC   GL242494  28.469  41.414   6.153
 8251POPC   C1A42495  28.365  41.557   6.453
 8251POPC   D2A42496  28.411  41.598   6.753
 8251POPC   C3A42497  28.339  41.571   7.053
 8251POPC   C4A42498  28.377  41.527   7.353
 8251POPC   C1B42499  28.572  41.388   6.453
 8251POPC   C2B42500  28.514  41.400   6.753
 8251POPC   C3B42501  28.501  41.362   7.053
 8251POPC   C4B42502  28.550  41.408   7.353
 8252POPC   NC342503  29.945  37.651   5.553
 8252POPC   PO442504  29.945  37.647   5.853
 8252POPC   GL142505  29.908  37.690   6.153
 8252POPC   GL242506  30.090  37.635   6.153
 8252POPC   C1A42507  29.958  37.709   6.453
 8252POPC   D2A42508  29.875  37.683   6.753
 8252POPC   C3A42509  29.949  37.697   7.053
 8252POPC   C4A42510  29.965  37.724   7.353
 8252POPC   C1B42511  30.134  37.606   6.453
 8252POPC   C2B42512  30.162  37.666   6.753
 8252POPC   C3B42513  30.134  37.606   7.053
 8252POPC   C4B42514  30.128  37.621   7.353
 8253POPC   NC342515  12.032   9.012   5.553
 8253POPC   PO442516  12.040   8.951   5.853
 8253POPC   GL142517  12.031   8.977   6.153
 8253POPC   GL242518  11.983   9.053   6.153
 8253POPC   C1A42519  12.037   8.983   6.453
 8253POPC   D2A42520  12.089   9.003   6.753
 8253POPC   C3A42521  12.043   9.006   7.053
 8253POPC   C4A42522  12.074   8.938   7.353
 8253POPC   C1B42523  11.874   9.172   6.453
 8253POPC   C2B42524  11.920   9.142   6.753
 8253POPC   C3B42525  11.880   9.147   7.053
 8253POPC   C4B42526  11.898   9.163   7.353
 8254POPC   NC342527  36.151   6.632   5.553
 8254POPC   PO442528  36.138   6.673   5.853
 8254POPC   GL142529  36.133   6.614   6.153
 8254POPC   GL242530  36.146   6.507   6.153
 8254POPC   C1A42531  36.128   6.648   6.453
 8254POPC   D2A42532  36.155   6.622   6.753
 8254POPC   C3A42533  36.123   6.639   7.053
 8254POPC   C4A42534  36.125   6.659   7.353
 8254POPC   C1B42535  36.113   6.381   6.453
 8254POPC   C2B42536  36.068   6.442   6.753
 8254POPC   C3B42537  36.098   6.400   7.053
 8254POPC   C4B42538  36.124   6.408   7.353
 8255POPC   NC342539  10.531  23.710   5.553
 8255POPC   PO442540  10.561  23.706   5.853
 8255POPC   GL142541  10.568  23.737   6.153
 8255POPC   GL242542  10.603  23.589   6.153
 8255POPC   C1A42543  10.511  23.703   6.453
 8255POPC   D2A42544  10.515  23.682   6.753
 8255POPC   C3A42545  10.476  23.707   7.053
 8255POPC   C4A42546  10.479  23.755   7.353
 8255POPC   C1B42547  10.675  23.512   6.453
 8255POPC   C2B42548  10.660  23.497   6.753
 8255POPC   C3B42549  10.669  23.494   7.053
 8255POPC   C4B42550  10.642  23.465   7.353
 8256POPC   NC342551   1.239  26.011   5.553
 8256POPC   PO442552   1.213  26.041   5.853
 8256POPC   GL142553   1.173  26.031   6.153
 8256POPC   GL242554   1.313  25.954   6.153
 8256POPC   C1A42555   1.239  26.001   6.453
 8256POPC   D2A42556   1.179  26.088   6.753
 8256POPC   C3A42557   1.187  26.003   7.053
 8256POPC   C4A42558   1.207  26.003   7.353
 8256POPC   C1B42559   1.399  25.830   6.453
 8256POPC   C2B42560   1.398  25.849   6.753
 8256POPC   C3B42561   1.327  25.822   7.053
 8256POPC   C4B42562   1.360  25.829   7.353
 8257POPC   NC342563  35.348  36.863   5.553
 8257POPC   PO442564  35.392  36.936   5.853
 8257POPC   GL142565  35.379  36.902   6.153
 8257POPC   GL242566  35.322  37.051   6.153
 8257POPC   C1A42567  35.362  36.950   6.453
 8257POPC   D2A42568  35.386  36.859   6.753
 8257POPC   C3A42569  35.312  36.900   7.053
 8257POPC   C4A42570  35.342  36.943   7.353
 8257POPC   C1B42571  35.391  37.176   6.453
 8257POPC   C2B42572  35.320  37.128   6.753
 8257POPC   C3B42573  35.418  37.131   7.053
 8257POPC   C4B42574  35.321  37.151   7.353
 8258POPC   NC342575  17.552  16.687   5.553
 8258POPC   PO442576  17.549  16.761   5.853
 8258POPC   GL142577  17.519  16.722   6.153
 8258POPC   GL242578  17.432  16.610   6.153
 8258POPC   C1A42579  17.493  16.687   6.453
 8258POPC   D2A42580  17.462  16.772   6.753
 8258POPC   C3A42581  17.557  16.778   7.053
 8258POPC   C4A42582  17.511  16.752   7.353
 8258POPC   C1B42583  17.357  16.567   6.453
 8258POPC   C2B42584  17.385  16.484   6.753
 8258POPC   C3B42585  17.344  16.564   7.053
 8258POPC   C4B42586  17.380  16.566   7.353
 8259POPC   NC342587  36.100  22.973   5.553
 8259POPC   PO442588  36.121  22.902   5.853
 8259POPC   GL142589  36.138  22.895   6.153
 8259POPC   GL242590  36.202  22.922   6.153
 8259POPC   C1A42591  36.166  22.903   6.453
 8259POPC   D2A42592  36.166  22.917   6.753
 8259POPC   C3A42593  36.170  22.959   7.053
 8259POPC   C4A42594  36.145  22.918   7.353
 8259POPC   C1B42595  36.345  22.813   6.453
 8259POPC   C2B42596  36.337  22.838   6.753
 8259POPC   C3B42597  36.394  22.906   7.053
 8259POPC   C4B42598  36.385  22.889   7.353
 8260POPC   NC342599  40.815  30.688   5.553
 8260POPC   PO442600  40.824  30.706   5.853
 8260POPC   GL142601  40.792  30.651   6.153
 8260POPC   GL242602  40.728  30.654   6.153
 8260POPC   C1A42603  40.787  30.737   6.453
 8260POPC   D2A42604  40.750  30.661   6.753
 8260POPC   C3A42605  40.830  30.658   7.053
 8260POPC   C4A42606  40.766  30.694   7.353
 8260POPC   C1B42607  40.557  30.594   6.453
 8260POPC   C2B42608  40.541  30.592   6.753
 8260POPC   C3B42609  40.583  30.576   7.053
 8260POPC   C4B42610  40.625  30.507   7.353
 8261POPC   NC342611  10.537  35.346   5.553
 8261POPC   PO442612  10.557  35.400   5.853
 8261POPC   GL142613  10.509  35.319   6.153
 8261POPC   GL242614  10.675  35.375   6.153
 8261POPC   C1A42615  10.537  35.315   6.453
 8261POPC   D2A42616  10.497  35.320   6.753
 8261POPC   C3A42617  10.515  35.331   7.053
 8261POPC   C4A42618  10.475  35.358   7.353
 8261POPC   C1B42619  10.692  35.463   6.453
 8261POPC   C2B42620  10.701  35.450   6.753
 8261POPC   C3B42621  10.777  35.527   7.053
 8261POPC   C4B42622  10.745  35.454   7.353
 8262POPC   NC342623   2.815   7.406   5.553
 8262POPC   PO442624   2.730   7.448   5.853
 8262POPC   GL142625   2.753   7.442   6.153
 8262POPC   GL242626   2.825   7.523   6.153
 8262POPC   C1A42627   2.780   7.414   6.453
 8262POPC   D2A42628   2.771   7.394   6.753
 8262POPC   C3A42629   2.751   7.416   7.053
 8262POPC   C4A42630   2.810   7.447   7.353
 8262POPC   C1B42631   2.869   7.691   6.453
 8262POPC   C2B42632   2.894   7.629   6.753
 8262POPC   C3B42633   2.901   7.678   7.053
 8262POPC   C4B42634   2.902   7.695   7.353
 8263POPC   NC342635  40.798  36.127   5.553
 8263POPC   PO442636  40.790  36.081   5.853
 8263POPC   GL142637  40.761  36.134   6.153
 8263POPC   GL242638  40.864  36.054   6.153
 8263POPC   C1A42639  40.792  36.096   6.453
 8263POPC   D2A42640  40.769  36.158   6.753
 8263POPC   C3A42641  40.831  36.091   7.053
 8263POPC   C4A42642  40.737  36.166   7.353
 8263POPC   C1B42643  41.043  36.061   6.453
 8263POPC   C2B42644  41.010  36.105   6.753
 8263POPC   C3B42645  41.063  36.052   7.053
 8263POPC   C4B42646  41.054  36.091   7.353
 8264POPC   NC342647  32.289  39.269   5.553
 8264POPC   PO442648  32.202  39.264   5.853
 8264POPC   GL142649  32.199  39.251   6.153
 8264POPC   GL242650  32.347  39.162   6.153
 8264POPC   C1A42651  32.295  39.260   6.453
 8264POPC   D2A42652  32.212  39.266   6.753
 8264POPC   C3A42653  32.235  39.258   7.053
 8264POPC   C4A42654  32.297  39.264   7.353
 8264POPC   C1B42655  32.473  39.181   6.453
 8264POPC   C2B42656  32.482  39.158   6.753
 8264POPC   C3B42657  32.482  39.184   7.053
 8264POPC   C4B42658  32.542  39.239   7.353
 8265POPC   NC342659   2.810  15.913   5.553
 8265POPC   PO442660   2.734  15.955   5.853
 8265POPC   GL142661   2.763  15.936   6.153
 8265POPC   GL242662   2.871  15.928   6.153
 8265POPC   C1A42663   2.800  15.973   6.453
 8265POPC   D2A42664   2.775  15.960   6.753
 8265POPC   C3A42665   2.802  15.908   7.053
 8265POPC   C4A42666   2.795  15.972   7.353
 8265POPC   C1B42667   3.035  15.933   6.453
 8265POPC   C2B42668   2.977  15.952   6.753
 8265POPC   C3B42669   3.026  16.000   7.053
 8265POPC   C4B42670   3.051  15.950   7.353
 8266POPC   NC342671  27.628  15.968   5.553
 8266POPC   PO442672  27.598  15.964   5.853
 8266POPC   GL142673  27.559  15.960   6.153
 8266POPC   GL242674  27.692  15.905   6.153
 8266POPC   C1A42675  27.545  15.935   6.453
 8266POPC   D2A42676  27.576  15.906   6.753
 8266POPC   C3A42677  27.586  15.937   7.053
 8266POPC   C4A42678  27.553  15.968   7.353
 8266POPC   C1B42679  27.883  15.977   6.453
 8266POPC   C2B42680  27.834  15.895   6.753
 8266POPC   C3B42681  27.860  15.981   7.053
 8266POPC   C4B42682  27.864  15.928   7.353
 8267POPC   NC342683  35.339   9.789   5.553
 8267POPC   PO442684  35.305   9.741   5.853
 8267POPC   GL142685  35.375   9.754   6.153
 8267POPC   GL242686  35.455   9.701   6.153
 8267POPC   C1A42687  35.303   9.708   6.453
 8267POPC   D2A42688  35.311   9.757   6.753
 8267POPC   C3A42689  35.380   9.765   7.053
 8267POPC   C4A42690  35.393   9.752   7.353
 8267POPC   C1B42691  35.600   9.613   6.453
 8267POPC   C2B42692  35.586   9.652   6.753
 8267POPC   C3B42693  35.548   9.604   7.053
 8267POPC   C4B42694  35.596   9.573   7.353
 8268POPC   NC342695  17.524   2.011   5.553
 8268POPC   PO442696  17.462   1.964   5.853
 8268POPC   GL142697  17.481   1.966   6.153
 8268POPC   GL242698  17.500   2.150   6.153
 8268POPC   C1A42699  17.505   2.015   6.453
 8268POPC   D2A42700  17.539   1.974   6.753
 8268POPC   C3A42701  17.496   2.029   7.053
 8268POPC   C4A42702  17.512   1.960   7.353
 8268POPC   C1B42703  17.500   2.209   6.453
 8268POPC   C2B42704  17.454   2.207   6.753
 8268POPC   C3B42705  17.479   2.191   7.053
 8268POPC   C4B42706  17.445   2.255   7.353
 8269POPC   NC342707  21.407  23.688   5.553
 8269POPC   PO442708  21.368  23.747   5.853
 8269POPC   GL142709  21.371  23.711   6.153
 8269POPC   GL242710  21.482  23.828   6.153
 8269POPC   C1A42711  21.409  23.672   6.453
 8269POPC   D2A42712  21.412  23.708   6.753
 8269POPC   C3A42713  21.342  23.763   7.053
 8269POPC   C4A42714  21.339  23.723   7.353
 8269POPC   C1B42715  21.509  23.961   6.453
 8269POPC   C2B42716  21.532  23.969   6.753
 8269POPC   C3B42717  21.532  23.957   7.053
 8269POPC   C4B42718  21.476  23.908   7.353
 8270POPC   NC342719  39.183  12.858   5.553
 8270POPC   PO442720  39.241  12.894   5.853
 8270POPC   GL142721  39.222  12.897   6.153
 8270POPC   GL242722  39.150  12.793   6.153
 8270POPC   C1A42723  39.221  12.892   6.453
 8270POPC   D2A42724  39.200  12.892   6.753
 8270POPC   C3A42725  39.238  12.828   7.053
 8270POPC   C4A42726  39.187  12.832   7.353
 8270POPC   C1B42727  39.040  12.805   6.453
 8270POPC   C2B42728  39.017  12.806   6.753
 8270POPC   C3B42729  38.964  12.739   7.053
 8270POPC   C4B42730  39.027  12.763   7.353
 8271POPC   NC342731  27.581  38.482   5.553
 8271POPC   PO442732  27.625  38.458   5.853
 8271POPC   GL142733  27.599  38.413   6.153
 8271POPC   GL242734  27.571  38.296   6.153
 8271POPC   C1A42735  27.584  38.497   6.453
 8271POPC   D2A42736  27.554  38.408   6.753
 8271POPC   C3A42737  27.551  38.423   7.053
 8271POPC   C4A42738  27.634  38.469   7.353
 8271POPC   C1B42739  27.648  38.227   6.453
 8271POPC   C2B42740  27.651  38.233   6.753
 8271POPC   C3B42741  27.619  38.234   7.053
 8271POPC   C4B42742  27.611  38.243   7.353
 8272POPC   NC342743  11.252  24.478   5.553
 8272POPC   PO442744  11.293  24.530   5.853
 8272POPC   GL142745  11.285  24.529   6.153
 8272POPC   GL242746  11.453  24.462   6.153
 8272POPC   C1A42747  11.310  24.465   6.453
 8272POPC   D2A42748  11.345  24.470   6.753
 8272POPC   C3A42749  11.266  24.499   7.053
 8272POPC   C4A42750  11.340  24.441   7.353
 8272POPC   C1B42751  11.561  24.486   6.453
 8272POPC   C2B42752  11.558  24.512   6.753
 8272POPC   C3B42753  11.558  24.477   7.053
 8272POPC   C4B42754  11.512  24.474   7.353
 8273POPC   NC342755   4.288  44.685   5.553
 8273POPC   PO442756   4.355  44.642   5.853
 8273POPC   GL142757   4.353  44.685   6.153
 8273POPC   GL242758   4.240  44.568   6.153
 8273POPC   C1A42759   4.291  44.661   6.453
 8273POPC   D2A42760   4.315  44.641   6.753
 8273POPC   C3A42761   4.306  44.698   7.053
 8273POPC   C4A42762   4.298  44.705   7.353
 8273POPC   C1B42763   4.078  44.530   6.453
 8273POPC   C2B42764   4.107  44.554   6.753
 8273POPC   C3B42765   4.147  44.576   7.053
 8273POPC   C4B42766   4.096  44.547   7.353
 8274POPC   NC342767  27.585  28.352   5.553
 8274POPC   PO442768  27.588  28.376   5.853
 8274POPC   GL142769  27.642  28.333   6.153
 8274POPC   GL242770  27.517  28.277   6.153
 8274POPC   C1A42771  27.574  28.416   6.453
 8274POPC   D2A42772  27.560  28.331   6.753
 8274POPC   C3A42773  27.565  28.416   7.053
 8274POPC   C4A42774  27.569  28.355   7.353
 8274POPC   C1B42775  27.452  28.098   6.453
 8274POPC   C2B42776  27.492  28.122   6.753
 8274POPC   C3B42777  27.475  28.132   7.053
 8274POPC   C4B42778  27.485  28.191   7.353
 8275POPC   NC342779   8.159  40.830   5.553
 8275POPC   PO442780   8.206  40.772   5.853
 8275POPC   GL142781   8.240  40.776   6.153
 8275POPC   GL242782   8.206  40.624   6.153
 8275POPC   C1A42783   8.230  40.769   6.453
 8275POPC   D2A42784   8.212  40.807   6.753
 8275POPC   C3A42785   8.186  40.752   7.053
 8275POPC   C4A42786   8.205  40.796   7.353
 8275POPC   C1B42787   8.273  40.537   6.453
 8275POPC   C2B42788   8.229  40.496   6.753
 8275POPC   C3B42789   8.241  40.558   7.053
 8275POPC   C4B42790   8.211  40.561   7.353
 8276POPC   NC342791  34.599  35.376   5.553
 8276POPC   PO442792  34.571  35.311   5.853
 8276POPC   GL142793  34.604  35.312   6.153
 8276POPC   GL242794  34.517  35.250   6.153
 8276POPC   C1A42795  34.569  35.324   6.453
 8276POPC   D2A42796  34.576  35.376   6.753
 8276POPC   C3A42797  34.581  35.323   7.053
 8276POPC   C4A42798  34.573  35.325   7.353
 8276POPC   C1B42799  34.546  35.127   6.453
 8276POPC   C2B42800  34.480  35.153   6.753
 8276POPC   C3B42801  34.487  35.066   7.053
 8276POPC   C4B42802  34.484  35.122   7.353
 8277POPC   NC342803  18.252  29.888   5.553
 8277POPC   PO442804  18.251  29.899   5.853
 8277POPC   GL142805  18.302  29.909   6.153
 8277POPC   GL242806  18.334  29.838   6.153
 8277POPC   C1A42807  18.247  29.961   6.453
 8277POPC   D2A42808  18.320  29.877   6.753
 8277POPC   C3A42809  18.265  29.965   7.053
 8277POPC   C4A42810  18.265  29.938   7.353
 8277POPC   C1B42811  18.407  29.718   6.453
 8277POPC   C2B42812  18.396  29.721   6.753
 8277POPC   C3B42813  18.429  29.720   7.053
 8277POPC   C4B42814  18.452  29.732   7.353
 8278POPC   NC342815  44.649  11.344   5.553
 8278POPC   PO442816  44.685  11.331   5.853
 8278POPC   GL142817  44.691  11.294   6.153
 8278POPC   GL242818  44.527  11.384   6.153
 8278POPC   C1A42819  44.640  11.295   6.453
 8278POPC   D2A42820  44.692  11.286   6.753
 8278POPC   C3A42821  44.707  11.273   7.053
 8278POPC   C4A42822  44.670  11.338   7.353
 8278POPC   C1B42823  44.422  11.387   6.453
 8278POPC   C2B42824  44.454  11.371   6.753
 8278POPC   C3B42825  44.428  11.411   7.053
 8278POPC   C4B42826  44.389  11.385   7.353
 8279POPC   NC342827  36.941  14.397   5.553
 8279POPC   PO442828  36.948  14.374   5.853
 8279POPC   GL142829  36.917  14.439   6.153
 8279POPC   GL242830  36.797  14.437   6.153
 8279POPC   C1A42831  36.950  14.373   6.453
 8279POPC   D2A42832  36.859  14.432   6.753
 8279POPC   C3A42833  36.856  14.373   7.053
 8279POPC   C4A42834  36.936  14.438   7.353
 8279POPC   C1B42835  36.725  14.512   6.453
 8279POPC   C2B42836  36.722  14.487   6.753
 8279POPC   C3B42837  36.698  14.484   7.053
 8279POPC   C4B42838  36.640  14.525   7.353
 8280POPC   NC342839  15.160  24.517   5.553
 8280POPC   PO442840  15.182  24.451   5.853
 8280POPC   GL142841  15.224  24.473   6.153
 8280POPC   GL242842  15.338  24.468   6.153
 8280POPC   C1A42843  15.186  24.496   6.453
 8280POPC   D2A42844  15.164  24.443   6.753
 8280POPC   C3A42845  15.145  24.458   7.053
 8280POPC   C4A42846  15.205  24.510   7.353
 8280POPC   C1B42847  15.459  24.537   6.453
 8280POPC   C2B42848  15.391  24.510   6.753
 8280POPC   C3B42849  15.415  24.462   7.053
 8280POPC   C4B42850  15.454  24.491   7.353
 8281POPC   NC342851  10.519  42.335   5.553
 8281POPC   PO442852  10.565  42.360   5.853
 8281POPC   GL142853  10.562  42.295   6.153
 8281POPC   GL242854  10.507  42.202   6.153
 8281POPC   C1A42855  10.519  42.366   6.453
 8281POPC   D2A42856  10.538  42.290   6.753
 8281POPC   C3A42857  10.504  42.344   7.053
 8281POPC   C4A42858  10.531  42.319   7.353
 8281POPC   C1B42859  10.565  42.099   6.453
 8281POPC   C2B42860  10.572  42.079   6.753
 8281POPC   C3B42861  10.560  42.056   7.053
 8281POPC   C4B42862  10.539  42.105   7.353
 8282POPC   NC342863   1.940   0.465   5.553
 8282POPC   PO442864   1.991   0.423   5.853
 8282POPC   GL142865   2.034   0.464   6.153
 8282POPC   GL242866   1.958   0.555   6.153
 8282POPC   C1A42867   1.986   0.484   6.453
 8282POPC   D2A42868   2.005   0.404   6.753
 8282POPC   C3A42869   2.005   0.465   7.053
 8282POPC   C4A42870   1.944   0.443   7.353
 8282POPC   C1B42871   2.007   0.677   6.453
 8282POPC   C2B42872   2.006   0.693   6.753
 8282POPC   C3B42873   2.053   0.671   7.053
 8282POPC   C4B42874   1.978   0.645   7.353
 8283POPC   NC342875   1.986  28.407   5.553
 8283POPC   PO442876   1.969  28.360   5.853
 8283POPC   GL142877   1.949  28.332   6.153
 8283POPC   GL242878   1.986  28.464   6.153
 8283POPC   C1A42879   2.003  28.325   6.453
 8283POPC   D2A42880   1.982  28.329   6.753
 8283POPC   C3A42881   2.033  28.367   7.053
 8283POPC   C4A42882   1.995  28.405   7.353
 8283POPC   C1B42883   1.998  28.607   6.453
 8283POPC   C2B42884   2.053  28.607   6.753
 8283POPC   C3B42885   2.048  28.570   7.053
 8283POPC   C4B42886   1.993  28.586   7.353
 8284POPC   NC342887  40.017  19.831   5.553
 8284POPC   PO442888  39.995  19.884   5.853
 8284POPC   GL142889  40.051  19.865   6.153
 8284POPC   GL242890  39.954  19.775   6.153
 8284POPC   C1A42891  39.960  19.813   6.453
 8284POPC   D2A42892  39.967  19.789   6.753
 8284POPC   C3A42893  40.051  19.814   7.053
 8284POPC   C4A42894  39.994  19.868   7.353
 8284POPC   C1B42895  39.876  19.685   6.453
 8284POPC   C2B42896  39.869  19.648   6.753
 8284POPC   C3B42897  39.830  19.644   7.053
 8284POPC   C4B42898  39.808  19.611   7.353
 8285POPC   NC342899  35.371  20.626   5.553
 8285POPC   PO442900  35.396  20.578   5.853
 8285POPC   GL142901  35.345  20.580   6.153
 8285POPC   GL242902  35.260  20.513   6.153
 8285POPC   C1A42903  35.399  20.633   6.453
 8285POPC   D2A42904  35.364  20.607   6.753
 8285POPC   C3A42905  35.323  20.564   7.053
 8285POPC   C4A42906  35.356  20.586   7.353
 8285POPC   C1B42907  35.148  20.494   6.453
 8285POPC   C2B42908  35.164  20.523   6.753
 8285POPC   C3B42909  35.180  20.507   7.053
 8285POPC   C4B42910  35.172  20.524   7.353
 8286POPC   NC342911  35.348  15.910   5.553
 8286POPC   PO442912  35.377  15.961   5.853
 8286POPC   GL142913  35.349  15.964   6.153
 8286POPC   GL242914  35.286  16.047   6.153
 8286POPC   C1A42915  35.357  15.944   6.453
 8286POPC   D2A42916  35.344  15.979   6.753
 8286POPC   C3A42917  35.309  15.933   7.053
 8286POPC   C4A42918  35.311  15.967   7.353
 8286POPC   C1B42919  35.184  16.121   6.453
 8286POPC   C2B42920  35.134  16.054   6.753
 8286POPC   C3B42921  35.157  16.070   7.053
 8286POPC   C4B42922  35.135  16.077   7.353
 8287POPC   NC342923  36.176   8.945   5.553
 8287POPC   PO442924  36.089   8.963   5.853
 8287POPC   GL142925  36.130   8.970   6.153
 8287POPC   GL242926  36.198   9.104   6.153
 8287POPC   C1A42927  36.079   8.942   6.453
 8287POPC   D2A42928  36.129   9.010   6.753
 8287POPC   C3A42929  36.149   8.960   7.053
 8287POPC   C4A42930  36.173   8.998   7.353
 8287POPC   C1B42931  36.161   9.243   6.453
 8287POPC   C2B42932  36.153   9.219   6.753
 8287POPC   C3B42933  36.138   9.243   7.053
 8287POPC   C4B42934  36.207   9.263   7.353
 8288POPC   NC342935  31.438  32.292   5.553
 8288POPC   PO442936  31.466  32.258   5.853
 8288POPC   GL142937  31.484  32.244   6.153
 8288POPC   GL242938  31.427  32.158   6.153
 8288POPC   C1A42939  31.476  32.247   6.453
 8288POPC   D2A42940  31.428  32.229   6.753
 8288POPC   C3A42941  31.475  32.251   7.053
 8288POPC   C4A42942  31.522  32.202   7.353
 8288POPC   C1B42943  31.353  32.093   6.453
 8288POPC   C2B42944  31.283  32.086   6.753
 8288POPC   C3B42945  31.311  32.018   7.053
 8288POPC   C4B42946  31.344  32.063   7.353
 8289POPC   NC342947  26.806   8.927   5.553
 8289POPC   PO442948  26.864   8.972   5.853
 8289POPC   GL142949  26.794   8.999   6.153
 8289POPC   GL242950  26.740   9.111   6.153
 8289POPC   C1A42951  26.780   8.928   6.453
 8289POPC   D2A42952  26.791   8.952   6.753
 8289POPC   C3A42953  26.789   8.926   7.053
 8289POPC   C4A42954  26.865   8.951   7.353
 8289POPC   C1B42955  26.712   9.228   6.453
 8289POPC   C2B42956  26.671   9.150   6.753
 8289POPC   C3B42957  26.746   9.217   7.053
 8289POPC   C4B42958  26.744   9.162   7.353
 8290POPC   NC342959   5.905  38.498   5.553
 8290POPC   PO442960   5.876  38.496   5.853
 8290POPC   GL142961   5.885  38.487   6.153
 8290POPC   GL242962   6.032  38.487   6.153
 8290POPC   C1A42963   5.824  38.458   6.453
 8290POPC   D2A42964   5.872  38.497   6.753
 8290POPC   C3A42965   5.886  38.422   7.053
 8290POPC   C4A42966   5.871  38.502   7.353
 8290POPC   C1B42967   6.067  38.569   6.453
 8290POPC   C2B42968   6.067  38.543   6.753
 8290POPC   C3B42969   6.139  38.545   7.053
 8290POPC   C4B42970   6.079  38.567   7.353
 8291POPC   NC342971  19.881  26.063   5.553
 8291POPC   PO442972  19.880  26.042   5.853
 8291POPC   GL142973  19.854  26.013   6.153
 8291POPC   GL242974  19.911  26.123   6.153
 8291POPC   C1A42975  19.789  26.068   6.453
 8291POPC   D2A42976  19.850  26.060   6.753
 8291POPC   C3A42977  19.857  26.046   7.053
 8291POPC   C4A42978  19.822  26.081   7.353
 8291POPC   C1B42979  19.960  26.275   6.453
 8291POPC   C2B42980  19.986  26.258   6.753
 8291POPC   C3B42981  19.989  26.262   7.053
 8291POPC   C4B42982  19.950  26.206   7.353
 8292POPC   NC342983  35.343  18.281   5.553
 8292POPC   PO442984  35.302  18.242   5.853
 8292POPC   GL142985  35.345  18.242   6.153
 8292POPC   GL242986  35.400  18.386   6.153
 8292POPC   C1A42987  35.303  18.235   6.453
 8292POPC   D2A42988  35.306  18.245   6.753
 8292POPC   C3A42989  35.348  18.306   7.053
 8292POPC   C4A42990  35.366  18.312   7.353
 8292POPC   C1B42991  35.449  18.526   6.453
 8292POPC   C2B42992  35.483  18.510   6.753
 8292POPC   C3B42993  35.414  18.519   7.053
 8292POPC   C4B42994  35.439  18.548   7.353
 8293POPC   NC342995   4.318   4.365   5.553
 8293POPC   PO442996   4.279   4.308   5.853
 8293POPC   GL142997   4.339   4.364   6.153
 8293POPC   GL242998   4.454   4.332   6.153
 8293POPC   C1A42999   4.318   4.346   6.453
 8293POPC   D2A43000   4.311   4.283   6.753
 8293POPC   C3A43001   4.291   4.311   7.053
 8293POPC   C4A43002   4.272   4.311   7.353
 8293POPC   C1B43003   4.541   4.309   6.453
 8293POPC   C2B43004   4.595   4.361   6.753
 8293POPC   C3B43005   4.584   4.319   7.053
 8293POPC   C4B43006   4.571   4.364   7.353
 8294POPC   NC343007  42.289  35.362   5.553
 8294POPC   PO443008  42.347  35.304   5.853
 8294POPC   GL143009  42.321  35.391   6.153
 8294POPC   GL243010  42.311  35.244   6.153
 8294POPC   C1A43011  42.372  35.347   6.453
 8294POPC   D2A43012  42.362  35.385   6.753
 8294POPC   C3A43013  42.349  35.309   7.053
 8294POPC   C4A43014  42.374  35.342   7.353
 8294POPC   C1B43015  42.274  35.140   6.453
 8294POPC   C2B43016  42.286  35.076   6.753
 8294POPC   C3B43017  42.314  35.103   7.053
 8294POPC   C4B43018  42.318  35.106   7.353
 8295POPC   NC343019  22.922  27.606   5.553
 8295POPC   PO443020  22.914  27.568   5.853
 8295POPC   GL143021  22.968  27.631   6.153
 8295POPC   GL243022  23.089  27.633   6.153
 8295POPC   C1A43023  22.985  27.578   6.453
 8295POPC   D2A43024  22.889  27.560   6.753
 8295POPC   C3A43025  22.940  27.593   7.053
 8295POPC   C4A43026  22.935  27.563   7.353
 8295POPC   C1B43027  23.181  27.716   6.453
 8295POPC   C2B43028  23.202  27.680   6.753
 8295POPC   C3B43029  23.133  27.719   7.053
 8295POPC   C4B43030  23.128  27.714   7.353
 8296POPC   NC343031  25.293  43.135   5.553
 8296POPC   PO443032  25.295  43.115   5.853
 8296POPC   GL143033  25.282  43.095   6.153
 8296POPC   GL243034  25.203  43.200   6.153
 8296POPC   C1A43035  25.238  43.127   6.453
 8296POPC   D2A43036  25.274  43.075   6.753
 8296POPC   C3A43037  25.228  43.061   7.053
 8296POPC   C4A43038  25.237  43.081   7.353
 8296POPC   C1B43039  25.194  43.333   6.453
 8296POPC   C2B43040  25.161  43.357   6.753
 8296POPC   C3B43041  25.180  43.323   7.053
 8296POPC   C4B43042  25.140  43.321   7.353
 8297POPC   NC343043  43.134  13.596   5.553
 8297POPC   PO443044  43.073  13.676   5.853
 8297POPC   GL143045  43.079  13.610   6.153
 8297POPC   GL243046  42.997  13.668   6.153
 8297POPC   C1A43047  43.156  13.643   6.453
 8297POPC   D2A43048  43.148  13.630   6.753
 8297POPC   C3A43049  43.127  13.638   7.053
 8297POPC   C4A43050  43.099  13.604   7.353
 8297POPC   C1B43051  42.960  13.821   6.453
 8297POPC   C2B43052  42.956  13.841   6.753
 8297POPC   C3B43053  42.943  13.816   7.053
 8297POPC   C4B43054  42.904  13.846   7.353
 8298POPC   NC343055  39.185  30.731   5.553
 8298POPC   PO443056  39.205  30.692   5.853
 8298POPC   GL143057  39.226  30.674   6.153
 8298POPC   GL243058  39.262  30.862   6.153
 8298POPC   C1A43059  39.274  30.729   6.453
 8298POPC   D2A43060  39.188  30.738   6.753
 8298POPC   C3A43061  39.215  30.670   7.053
 8298POPC   C4A43062  39.209  30.665   7.353
 8298POPC   C1B43063  39.229  30.929   6.453
 8298POPC   C2B43064  39.205  30.953   6.753
 8298POPC   C3B43065  39.201  30.958   7.053
 8298POPC   C4B43066  39.202  30.972   7.353
 8299POPC   NC343067  26.009  29.956   5.553
 8299POPC   PO443068  26.053  29.891   5.853
 8299POPC   GL143069  26.085  29.938   6.153
 8299POPC   GL243070  26.134  30.054   6.153
 8299POPC   C1A43071  26.064  29.958   6.453
 8299POPC   D2A43072  26.069  29.941   6.753
 8299POPC   C3A43073  25.994  29.957   7.053
 8299POPC   C4A43074  26.061  29.971   7.353
 8299POPC   C1B43075  26.142  30.095   6.453
 8299POPC   C2B43076  26.162  30.165   6.753
 8299POPC   C3B43077  26.191  30.168   7.053
 8299POPC   C4B43078  26.229  30.142   7.353
 8300POPC   NC343079  16.746  43.070   5.553
 8300POPC   PO443080  16.738  43.126   5.853
 8300POPC   GL143081  16.741  43.135   6.153
 8300POPC   GL243082  16.766  43.242   6.153
 8300POPC   C1A43083  16.708  43.137   6.453
 8300POPC   D2A43084  16.720  43.129   6.753
 8300POPC   C3A43085  16.710  43.082   7.053
 8300POPC   C4A43086  16.768  43.138   7.353
 8300POPC   C1B43087  16.881  43.288   6.453
 8300POPC   C2B43088  16.918  43.320   6.753
 8300POPC   C3B43089  16.917  43.280   7.053
 8300POPC   C4B43090  16.939  43.326   7.353
 8301POPC   NC343091   8.236  41.512   5.553
 8301POPC   PO443092   8.195  41.582   5.853
 8301POPC   GL143093   8.239  41.541   6.153
 8301POPC   GL243094   8.301  41.476   6.153
 8301POPC   C1A43095   8.218  41.523   6.453
 8301POPC   D2A43096   8.167  41.581   6.753
 8301POPC   C3A43097   8.213  41.567   7.053
 8301POPC   C4A43098   8.178  41.585   7.353
 8301POPC   C1B43099   8.394  41.435   6.453
 8301POPC   C2B43100   8.413  41.404   6.753
 8301POPC   C3B43101   8.377  41.444   7.053
 8301POPC   C4B43102   8.352  41.362   7.353
 8302POPC   NC343103   7.376   6.630   5.553
 8302POPC   PO443104   7.415   6.634   5.853
 8302POPC   GL143105   7.391   6.618   6.153
 8302POPC   GL243106   7.341   6.623   6.153
 8302POPC   C1A43107   7.410   6.663   6.453
 8302POPC   D2A43108   7.383   6.692   6.753
 8302POPC   C3A43109   7.399   6.645   7.053
 8302POPC   C4A43110   7.383   6.660   7.353
 8302POPC   C1B43111   7.211   6.641   6.453
 8302POPC   C2B43112   7.137   6.571   6.753
 8302POPC   C3B43113   7.197   6.630   7.053
 8302POPC   C4B43114   7.198   6.549   7.353
 8303POPC   NC343115  41.537  30.702   5.553
 8303POPC   PO443116  41.539  30.722   5.853
 8303POPC   GL143117  41.594  30.697   6.153
 8303POPC   GL243118  41.590  30.616   6.153
 8303POPC   C1A43119  41.589  30.694   6.453
 8303POPC   D2A43120  41.546  30.718   6.753
 8303POPC   C3A43121  41.535  30.696   7.053
 8303POPC   C4A43122  41.551  30.714   7.353
 8303POPC   C1B43123  41.583  30.481   6.453
 8303POPC   C2B43124  41.535  30.411   6.753
 8303POPC   C3B43125  41.519  30.455   7.053
 8303POPC   C4B43126  41.537  30.429   7.353
 8304POPC   NC343127  27.559  29.186   5.553
 8304POPC   PO443128  27.621  29.096   5.853
 8304POPC   GL143129  27.574  29.101   6.153
 8304POPC   GL243130  27.683  29.047   6.153
 8304POPC   C1A43131  27.566  29.192   6.453
 8304POPC   D2A43132  27.550  29.174   6.753
 8304POPC   C3A43133  27.607  29.128   7.053
 8304POPC   C4A43134  27.563  29.158   7.353
 8304POPC   C1B43135  27.729  28.896   6.453
 8304POPC   C2B43136  27.713  28.916   6.753
 8304POPC   C3B43137  27.711  28.953   7.053
 8304POPC   C4B43138  27.683  28.961   7.353
 8305POPC   NC343139  27.565  40.820   5.553
 8305POPC   PO443140  27.619  40.824   5.853
 8305POPC   GL143141  27.597  40.746   6.153
 8305POPC   GL243142  27.528  40.876   6.153
 8305POPC   C1A43143  27.594  40.748   6.453
 8305POPC   D2A43144  27.573  40.802   6.753
 8305POPC   C3A43145  27.607  40.767   7.053
 8305POPC   C4A43146  27.631  40.744   7.353
 8305POPC   C1B43147  27.462  41.001   6.453
 8305POPC   C2B43148  27.439  40.929   6.753
 8305POPC   C3B43149  27.451  41.007   7.053
 8305POPC   C4B43150  27.377  40.969   7.353
 8306POPC   NC343151  15.921  36.864   5.553
 8306POPC   PO443152  15.928  36.893   5.853
 8306POPC   GL143153  15.942  36.951   6.153
 8306POPC   GL243154  16.046  36.845   6.153
 8306POPC   C1A43155  15.928  36.888   6.453
 8306POPC   D2A43156  15.959  36.886   6.753
 8306POPC   C3A43157  15.958  36.864   7.053
 8306POPC   C4A43158  15.961  36.855   7.353
 8306POPC   C1B43159  16.065  36.703   6.453
 8306POPC   C2B43160  16.081  36.680   6.753
 8306POPC   C3B43161  16.061  36.689   7.053
 8306POPC   C4B43162  16.054  36.715   7.353
 8307POPC   NC343163  17.468  29.151   5.553
 8307POPC   PO443164  17.525  29.158   5.853
 8307POPC   GL143165  17.471  29.151   6.153
 8307POPC   GL243166  17.589  29.233   6.153
 8307POPC   C1A43167  17.541  29.194   6.453
 8307POPC   D2A43168  17.488  29.140   6.753
 8307POPC   C3A43169  17.547  29.143   7.053
 8307POPC   C4A43170  17.536  29.157   7.353
 8307POPC   C1B43171  17.698  29.312   6.453
 8307POPC   C2B43172  17.659  29.283   6.753
 8307POPC   C3B43173  17.729  29.250   7.053
 8307POPC   C4B43174  17.725  29.313   7.353
 8308POPC   NC343175   0.422  43.113   5.553
 8308POPC   PO443176   0.434  43.111   5.853
 8308POPC   GL143177   0.389  43.152   6.153
 8308POPC   GL243178   0.555  43.164   6.153
 8308POPC   C1A43179   0.479  43.119   6.453
 8308POPC   D2A43180   0.410  43.069   6.753
 8308POPC   C3A43181   0.396  43.099   7.053
 8308POPC   C4A43182   0.477  43.066   7.353
 8308POPC   C1B43183   0.686  43.239   6.453
 8308POPC   C2B43184   0.617  43.259   6.753
 8308POPC   C3B43185   0.637  43.301   7.053
 8308POPC   C4B43186   0.690  43.300   7.353
 8309POPC   NC343187  29.098  25.309   5.553
 8309POPC   PO443188  29.123  25.266   5.853
 8309POPC   GL143189  29.152  25.283   6.153
 8309POPC   GL243190  29.028  25.384   6.153
 8309POPC   C1A43191  29.109  25.279   6.453
 8309POPC   D2A43192  29.146  25.286   6.753
 8309POPC   C3A43193  29.180  25.233   7.053
 8309POPC   C4A43194  29.118  25.316   7.353
 8309POPC   C1B43195  29.021  25.421   6.453
 8309POPC   C2B43196  29.017  25.493   6.753
 8309POPC   C3B43197  29.032  25.510   7.053
 8309POPC   C4B43198  29.023  25.495   7.353
 8310POPC   NC343199   1.210  38.477   5.553
 8310POPC   PO443200   1.173  38.449   5.853
 8310POPC   GL143201   1.180  38.492   6.153
 8310POPC   GL243202   1.308  38.381   6.153
 8310POPC   C1A43203   1.184  38.495   6.453
 8310POPC   D2A43204   1.180  38.409   6.753
 8310POPC   C3A43205   1.239  38.466   7.053
 8310POPC   C4A43206   1.213  38.475   7.353
 8310POPC   C1B43207   1.313  38.246   6.453
 8310POPC   C2B43208   1.388  38.241   6.753
 8310POPC   C3B43209   1.380  38.273   7.053
 8310POPC   C4B43210   1.348  38.272   7.353
 8311POPC   NC343211  30.729   0.422   5.553
 8311POPC   PO443212  30.734   0.404   5.853
 8311POPC   GL143213  30.692   0.392   6.153
 8311POPC   GL243214  30.807   0.490   6.153
 8311POPC   C1A43215  30.704   0.481   6.453
 8311POPC   D2A43216  30.710   0.465   6.753
 8311POPC   C3A43217  30.693   0.425   7.053
 8311POPC   C4A43218  30.742   0.472   7.353
 8311POPC   C1B43219  30.902   0.621   6.453
 8311POPC   C2B43220  30.951   0.564   6.753
 8311POPC   C3B43221  30.861   0.538   7.053
 8311POPC   C4B43222  30.924   0.546   7.353
 8312POPC   NC343223  43.140  44.669   5.553
 8312POPC   PO443224  43.070  44.613   5.853
 8312POPC   GL143225  43.091  44.670   6.153
 8312POPC   GL243226  43.102  44.588   6.153
 8312POPC   C1A43227  43.068  44.710   6.453
 8312POPC   D2A43228  43.069  44.675   6.753
 8312POPC   C3A43229  43.123  44.628   7.053
 8312POPC   C4A43230  43.152  44.650   7.353
 8312POPC   C1B43231  43.212  44.458   6.453
 8312POPC   C2B43232  43.195  44.443   6.753
 8312POPC   C3B43233  43.135  44.433   7.053
 8312POPC   C4B43234  43.142  44.413   7.353
 8313POPC   NC343235  33.045   5.915   5.553
 8313POPC   PO443236  33.028   5.915   5.853
 8313POPC   GL143237  32.992   5.900   6.153
 8313POPC   GL243238  33.089   5.754   6.153
 8313POPC   C1A43239  32.980   5.851   6.453
 8313POPC   D2A43240  33.034   5.888   6.753
 8313POPC   C3A43241  32.979   5.827   7.053
 8313POPC   C4A43242  33.062   5.897   7.353
 8313POPC   C1B43243  33.212   5.769   6.453
 8313POPC   C2B43244  33.243   5.688   6.753
 8313POPC   C3B43245  33.215   5.704   7.053
 8313POPC   C4B43246  33.282   5.727   7.353
 8314POPC   NC343247  20.633  27.564   5.553
 8314POPC   PO443248  20.622  27.597   5.853
 8314POPC   GL143249  20.567  27.579   6.153
 8314POPC   GL243250  20.546  27.489   6.153
 8314POPC   C1A43251  20.656  27.568   6.453
 8314POPC   D2A43252  20.634  27.550   6.753
 8314POPC   C3A43253  20.635  27.545   7.053
 8314POPC   C4A43254  20.626  27.582   7.353
 8314POPC   C1B43255  20.389  27.367   6.453
 8314POPC   C2B43256  20.387  27.378   6.753
 8314POPC   C3B43257  20.394  27.440   7.053
 8314POPC   C4B43258  20.387  27.421   7.353
 8315POPC   NC343259   9.748  12.052   5.553
 8315POPC   PO443260   9.768  12.058   5.853
 8315POPC   GL143261   9.783  12.049   6.153
 8315POPC   GL243262   9.791  11.976   6.153
 8315POPC   C1A43263   9.730  12.087   6.453
 8315POPC   D2A43264   9.765  12.051   6.753
 8315POPC   C3A43265   9.720  12.099   7.053
 8315POPC   C4A43266   9.770  12.109   7.353
 8315POPC   C1B43267   9.774  11.803   6.453
 8315POPC   C2B43268   9.801  11.810   6.753
 8315POPC   C3B43269   9.831  11.780   7.053
 8315POPC   C4B43270   9.805  11.819   7.353
 8316POPC   NC343271  14.390  28.333   5.553
 8316POPC   PO443272  14.424  28.354   5.853
 8316POPC   GL143273  14.379  28.407   6.153
 8316POPC   GL243274  14.407  28.276   6.153
 8316POPC   C1A43275  14.413  28.388   6.453
 8316POPC   D2A43276  14.391  28.372   6.753
 8316POPC   C3A43277  14.392  28.329   7.053
 8316POPC   C4A43278  14.399  28.373   7.353
 8316POPC   C1B43279  14.350  28.119   6.453
 8316POPC   C2B43280  14.301  28.177   6.753
 8316POPC   C3B43281  14.352  28.104   7.053
 8316POPC   C4B43282  14.327  28.119   7.353
 8317POPC   NC343283  41.547   5.877   5.553
 8317POPC   PO443284  41.587   5.881   5.853
 8317POPC   GL143285  41.549   5.823   6.153
 8317POPC   GL243286  41.523   5.741   6.153
 8317POPC   C1A43287  41.542   5.915   6.453
 8317POPC   D2A43288  41.583   5.828   6.753
 8317POPC   C3A43289  41.525   5.904   7.053
 8317POPC   C4A43290  41.548   5.892   7.353
 8317POPC   C1B43291  41.356   5.648   6.453
 8317POPC   C2B43292  41.370   5.684   6.753
 8317POPC   C3B43293  41.394   5.679   7.053
 8317POPC   C4B43294  41.404   5.624   7.353
 8318POPC   NC343295  30.692  21.366   5.553
 8318POPC   PO443296  30.745  21.426   5.853
 8318POPC   GL143297  30.656  21.414   6.153
 8318POPC   GL243298  30.734  21.218   6.153
 8318POPC   C1A43299  30.689  21.408   6.453
 8318POPC   D2A43300  30.662  21.348   6.753
 8318POPC   C3A43301  30.741  21.404   7.053
 8318POPC   C4A43302  30.735  21.422   7.353
 8318POPC   C1B43303  30.677  21.179   6.453
 8318POPC   C2B43304  30.686  21.144   6.753
 8318POPC   C3B43305  30.722  21.166   7.053
 8318POPC   C4B43306  30.732  21.133   7.353
 8319POPC   NC343307  22.142  44.653   5.553
 8319POPC   PO443308  22.203  44.619   5.853
 8319POPC   GL143309  22.188  44.706   6.153
 8319POPC   GL243310  22.270  44.747   6.153
 8319POPC   C1A43311  22.127  44.657   6.453
 8319POPC   D2A43312  22.160  44.650   6.753
 8319POPC   C3A43313  22.173  44.698   7.053
 8319POPC   C4A43314  22.120  44.650   7.353
 8319POPC   C1B43315  22.289  44.836   6.453
 8319POPC   C2B43316  22.314  44.848   6.753
 8319POPC   C3B43317  22.337  44.896   7.053
 8319POPC   C4B43318  22.301  44.831   7.353
 8320POPC   NC343319  24.522   4.356   5.553
 8320POPC   PO443320  24.514   4.324   5.853
 8320POPC   GL143321  24.504   4.301   6.153
 8320POPC   GL243322  24.463   4.412   6.153
 8320POPC   C1A43323  24.518   4.348   6.453
 8320POPC   D2A43324  24.471   4.285   6.753
 8320POPC   C3A43325  24.499   4.347   7.053
 8320POPC   C4A43326  24.443   4.363   7.353
 8320POPC   C1B43327  24.401   4.495   6.453
 8320POPC   C2B43328  24.328   4.576   6.753
 8320POPC   C3B43329  24.339   4.537   7.053
 8320POPC   C4B43330  24.347   4.559   7.353
 8321POPC   NC343331  32.238  37.703   5.553
 8321POPC   PO443332  32.273  37.697   5.853
 8321POPC   GL143333  32.295  37.634   6.153
 8321POPC   GL243334  32.099  37.681   6.153
 8321POPC   C1A43335  32.279  37.728   6.453
 8321POPC   D2A43336  32.268  37.668   6.753
 8321POPC   C3A43337  32.260  37.725   7.053
 8321POPC   C4A43338  32.227  37.658   7.353
 8321POPC   C1B43339  32.033  37.565   6.453
 8321POPC   C2B43340  32.034  37.616   6.753
 8321POPC   C3B43341  31.978  37.579   7.053
 8321POPC   C4B43342  32.002  37.559   7.353
 8322POPC   NC343343  32.999   4.305   5.553
 8322POPC   PO443344  32.982   4.316   5.853
 8322POPC   GL143345  33.027   4.275   6.153
 8322POPC   GL243346  33.122   4.370   6.153
 8322POPC   C1A43347  32.997   4.346   6.453
 8322POPC   D2A43348  33.004   4.351   6.753
 8322POPC   C3A43349  32.993   4.330   7.053
 8322POPC   C4A43350  32.992   4.305   7.353
 8322POPC   C1B43351  33.238   4.505   6.453
 8322POPC   C2B43352  33.260   4.498   6.753
 8322POPC   C3B43353  33.194   4.481   7.053
 8322POPC   C4B43354  33.259   4.465   7.353
 8323POPC   NC343355  29.969  30.649   5.553
 8323POPC   PO443356  29.969  30.713   5.853
 8323POPC   GL143357  29.914  30.720   6.153
 8323POPC   GL243358  29.985  30.820   6.153
 8323POPC   C1A43359  29.894  30.647   6.453
 8323POPC   D2A43360  29.871  30.679   6.753
 8323POPC   C3A43361  29.918  30.700   7.053
 8323POPC   C4A43362  29.922  30.683   7.353
 8323POPC   C1B43363  30.037  30.964   6.453
 8323POPC   C2B43364  29.990  30.918   6.753
 8323POPC   C3B43365  29.991  30.967   7.053
 8323POPC   C4B43366  30.019  30.939   7.353
 8324POPC   NC343367  35.402   8.222   5.553
 8324POPC   PO443368  35.307   8.161   5.853
 8324POPC   GL143369  35.305   8.224   6.153
 8324POPC   GL243370  35.394   8.355   6.153
 8324POPC   C1A43371  35.378   8.222   6.453
 8324POPC   D2A43372  35.356   8.196   6.753
 8324POPC   C3A43373  35.302   8.181   7.053
 8324POPC   C4A43374  35.368   8.150   7.353
 8324POPC   C1B43375  35.335   8.468   6.453
 8324POPC   C2B43376  35.393   8.449   6.753
 8324POPC   C3B43377  35.333   8.445   7.053
 8324POPC   C4B43378  35.387   8.424   7.353
 8325POPC   NC343379  43.148   0.455   5.553
 8325POPC   PO443380  43.129   0.458   5.853
 8325POPC   GL143381  43.107   0.389   6.153
 8325POPC   GL243382  43.105   0.582   6.153
 8325POPC   C1A43383  43.142   0.440   6.453
 8325POPC   D2A43384  43.156   0.425   6.753
 8325POPC   C3A43385  43.124   0.464   7.053
 8325POPC   C4A43386  43.072   0.403   7.353
 8325POPC   C1B43387  43.172   0.691   6.453
 8325POPC   C2B43388  43.178   0.701   6.753
 8325POPC   C3B43389  43.219   0.688   7.053
 8325POPC   C4B43390  43.140   0.669   7.353
 8326POPC   NC343391  39.996   5.900   5.553
 8326POPC   PO443392  40.014   5.853   5.853
 8326POPC   GL143393  39.967   5.834   6.153
 8326POPC   GL243394  40.079   5.950   6.153
 8326POPC   C1A43395  39.961   5.863   6.453
 8326POPC   D2A43396  39.966   5.913   6.753
 8326POPC   C3A43397  40.020   5.865   7.053
 8326POPC   C4A43398  39.997   5.879   7.353
 8326POPC   C1B43399  40.160   6.133   6.453
 8326POPC   C2B43400  40.168   6.066   6.753
 8326POPC   C3B43401  40.095   6.131   7.053
 8326POPC   C4B43402  40.175   6.132   7.353
 8327POPC   NC343403  43.864   3.546   5.553
 8327POPC   PO443404  43.885   3.501   5.853
 8327POPC   GL143405  43.931   3.567   6.153
 8327POPC   GL243406  44.031   3.487   6.153
 8327POPC   C1A43407  43.859   3.574   6.453
 8327POPC   D2A43408  43.859   3.539   6.753
 8327POPC   C3A43409  43.926   3.494   7.053
 8327POPC   C4A43410  43.882   3.506   7.353
 8327POPC   C1B43411  44.165   3.440   6.453
 8327POPC   C2B43412  44.137   3.479   6.753
 8327POPC   C3B43413  44.069   3.461   7.053
 8327POPC   C4B43414  44.134   3.485   7.353
 8328POPC   NC343415   8.949  22.978   5.553
 8328POPC   PO443416   8.984  22.937   5.853
 8328POPC   GL143417   8.946  22.898   6.153
 8328POPC   GL243418   8.839  22.878   6.153
 8328POPC   C1A43419   8.996  22.947   6.453
 8328POPC   D2A43420   8.999  22.933   6.753
 8328POPC   C3A43421   8.990  22.956   7.053
 8328POPC   C4A43422   8.970  22.965   7.353
 8328POPC   C1B43423   8.774  22.935   6.453
 8328POPC   C2B43424   8.764  22.888   6.753
 8328POPC   C3B43425   8.720  22.923   7.053
 8328POPC   C4B43426   8.738  22.898   7.353
 8329POPC   NC343427   8.175   9.738   5.553
 8329POPC   PO443428   8.154   9.788   5.853
 8329POPC   GL143429   8.149   9.732   6.153
 8329POPC   GL243430   8.356   9.721   6.153
 8329POPC   C1A43431   8.169   9.796   6.453
 8329POPC   D2A43432   8.227   9.756   6.753
 8329POPC   C3A43433   8.203   9.784   7.053
 8329POPC   C4A43434   8.203   9.764   7.353
 8329POPC   C1B43435   8.379   9.598   6.453
 8329POPC   C2B43436   8.448   9.692   6.753
 8329POPC   C3B43437   8.450   9.643   7.053
 8329POPC   C4B43438   8.392   9.619   7.353
 8330POPC   NC343439  33.761  19.871   5.553
 8330POPC   PO443440  33.759  19.878   5.853
 8330POPC   GL143441  33.758  19.865   6.153
 8330POPC   GL243442  33.796  19.716   6.153
 8330POPC   C1A43443  33.848  19.800   6.453
 8330POPC   D2A43444  33.787  19.841   6.753
 8330POPC   C3A43445  33.783  19.829   7.053
 8330POPC   C4A43446  33.783  19.816   7.353
 8330POPC   C1B43447  33.838  19.606   6.453
 8330POPC   C2B43448  33.879  19.630   6.753
 8330POPC   C3B43449  33.901  19.621   7.053
 8330POPC   C4B43450  33.825  19.631   7.353
 8331POPC   NC343451  24.534  14.436   5.553
 8331POPC   PO443452  24.447  14.374   5.853
 8331POPC   GL143453  24.446  14.388   6.153
 8331POPC   GL243454  24.490  14.313   6.153
 8331POPC   C1A43455  24.464  14.368   6.453
 8331POPC   D2A43456  24.493  14.439   6.753
 8331POPC   C3A43457  24.444  14.355   7.053
 8331POPC   C4A43458  24.512  14.411   7.353
 8331POPC   C1B43459  24.597  14.146   6.453
 8331POPC   C2B43460  24.558  14.152   6.753
 8331POPC   C3B43461  24.571  14.215   7.053
 8331POPC   C4B43462  24.589  14.163   7.353
 8332POPC   NC343463   1.989   1.944   5.553
 8332POPC   PO443464   2.020   2.024   5.853
 8332POPC   GL143465   1.966   2.008   6.153
 8332POPC   GL243466   2.110   1.871   6.153
 8332POPC   C1A43467   1.982   2.017   6.453
 8332POPC   D2A43468   2.029   1.947   6.753
 8332POPC   C3A43469   1.981   1.961   7.053
 8332POPC   C4A43470   1.964   1.958   7.353
 8332POPC   C1B43471   2.180   1.843   6.453
 8332POPC   C2B43472   2.240   1.829   6.753
 8332POPC   C3B43473   2.236   1.858   7.053
 8332POPC   C4B43474   2.156   1.866   7.353
 8333POPC   NC343475  36.942  28.357   5.553
 8333POPC   PO443476  36.874  28.346   5.853
 8333POPC   GL143477  36.889  28.377   6.153
 8333POPC   GL243478  36.987  28.361   6.153
 8333POPC   C1A43479  36.886  28.396   6.453
 8333POPC   D2A43480  36.918  28.339   6.753
 8333POPC   C3A43481  36.906  28.384   7.053
 8333POPC   C4A43482  36.926  28.380   7.353
 8333POPC   C1B43483  37.166  28.461   6.453
 8333POPC   C2B43484  37.169  28.405   6.753
 8333POPC   C3B43485  37.142  28.449   7.053
 8333POPC   C4B43486  37.180  28.464   7.353
 8334POPC   NC343487   2.759  12.863   5.553
 8334POPC   PO443488   2.746  12.860   5.853
 8334POPC   GL143489   2.738  12.840   6.153
 8334POPC   GL243490   2.851  12.903   6.153
 8334POPC   C1A43491   2.759  12.802   6.453
 8334POPC   D2A43492   2.779  12.846   6.753
 8334POPC   C3A43493   2.762  12.825   7.053
 8334POPC   C4A43494   2.772  12.850   7.353
 8334POPC   C1B43495   2.957  12.996   6.453
 8334POPC   C2B43496   3.010  12.941   6.753
 8334POPC   C3B43497   2.948  13.035   7.053
 8334POPC   C4B43498   3.020  12.993   7.353
 8335POPC   NC343499  29.938  41.571   5.553
 8335POPC   PO443500  29.920  41.588   5.853
 8335POPC   GL143501  29.871  41.532   6.153
 8335POPC   GL243502  29.984  41.690   6.153
 8335POPC   C1A43503  29.959  41.587   6.453
 8335POPC   D2A43504  29.879  41.517   6.753
 8335POPC   C3A43505  29.937  41.584   7.053
 8335POPC   C4A43506  29.917  41.606   7.353
 8335POPC   C1B43507  30.071  41.717   6.453
 8335POPC   C2B43508  30.107  41.702   6.753
 8335POPC   C3B43509  30.119  41.705   7.053
 8335POPC   C4B43510  30.057  41.702   7.353
 8336POPC   NC343511  13.646  21.345   5.553
 8336POPC   PO443512  13.660  21.411   5.853
 8336POPC   GL143513  13.597  21.366   6.153
 8336POPC   GL243514  13.544  21.259   6.153
 8336POPC   C1A43515  13.650  21.379   6.453
 8336POPC   D2A43516  13.660  21.409   6.753
 8336POPC   C3A43517  13.594  21.365   7.053
 8336POPC   C4A43518  13.606  21.352   7.353
 8336POPC   C1B43519  13.518  21.194   6.453
 8336POPC   C2B43520  13.489  21.219   6.753
 8336POPC   C3B43521  13.522  21.182   7.053
 8336POPC   C4B43522  13.495  21.217   7.353
 8337POPC   NC343523  22.149  25.265   5.553
 8337POPC   PO443524  22.183  25.291   5.853
 8337POPC   GL143525  22.176  25.219   6.153
 8337POPC   GL243526  22.134  25.346   6.153
 8337POPC   C1A43527  22.197  25.308   6.453
 8337POPC   D2A43528  22.193  25.238   6.753
 8337POPC   C3A43529  22.119  25.264   7.053
 8337POPC   C4A43530  22.180  25.295   7.353
 8337POPC   C1B43531  22.101  25.531   6.453
 8337POPC   C2B43532  22.128  25.541   6.753
 8337POPC   C3B43533  22.124  25.486   7.053
 8337POPC   C4B43534  22.153  25.487   7.353
 8338POPC   NC343535   8.240   8.151   5.553
 8338POPC   PO443536   8.195   8.226   5.853
 8338POPC   GL143537   8.221   8.235   6.153
 8338POPC   GL243538   8.054   8.205   6.153
 8338POPC   C1A43539   8.168   8.184   6.453
 8338POPC   D2A43540   8.220   8.206   6.753
 8338POPC   C3A43541   8.159   8.157   7.053
 8338POPC   C4A43542   8.246   8.180   7.353
 8338POPC   C1B43543   7.979   8.258   6.453
 8338POPC   C2B43544   7.914   8.269   6.753
 8338POPC   C3B43545   7.979   8.279   7.053
 8338POPC   C4B43546   7.948   8.266   7.353
 8339POPC   NC343547   0.417  14.395   5.553
 8339POPC   PO443548   0.407  14.372   5.853
 8339POPC   GL143549   0.432  14.439   6.153
 8339POPC   GL243550   0.532  14.350   6.153
 8339POPC   C1A43551   0.482  14.405   6.453
 8339POPC   D2A43552   0.418  14.424   6.753
 8339POPC   C3A43553   0.421  14.376   7.053
 8339POPC   C4A43554   0.484  14.395   7.353
 8339POPC   C1B43555   0.590  14.224   6.453
 8339POPC   C2B43556   0.646  14.177   6.753
 8339POPC   C3B43557   0.647  14.193   7.053
 8339POPC   C4B43558   0.607  14.265   7.353
 8340POPC   NC343559  20.611  21.362   5.553
 8340POPC   PO443560  20.567  21.396   5.853
 8340POPC   GL143561  20.607  21.338   6.153
 8340POPC   GL243562  20.483  21.345   6.153
 8340POPC   C1A43563  20.643  21.382   6.453
 8340POPC   D2A43564  20.634  21.362   6.753
 8340POPC   C3A43565  20.576  21.428   7.053
 8340POPC   C4A43566  20.646  21.366   7.353
 8340POPC   C1B43567  20.358  21.293   6.453
 8340POPC   C2B43568  20.412  21.279   6.753
 8340POPC   C3B43569  20.419  21.299   7.053
 8340POPC   C4B43570  20.350  21.334   7.353
 8341POPC   NC343571  12.093   6.633   5.553
 8341POPC   PO443572  12.118   6.639   5.853
 8341POPC   GL143573  12.095   6.669   6.153
 8341POPC   GL243574  12.219   6.746   6.153
 8341POPC   C1A43575  12.117   6.609   6.453
 8341POPC   D2A43576  12.043   6.664   6.753
 8341POPC   C3A43577  12.050   6.668   7.053
 8341POPC   C4A43578  12.112   6.622   7.353
 8341POPC   C1B43579  12.287   6.817   6.453
 8341POPC   C2B43580  12.249   6.804   6.753
 8341POPC   C3B43581  12.301   6.777   7.053
 8341POPC   C4B43582  12.234   6.824   7.353
 8342POPC   NC343583  44.698  29.907   5.553
 8342POPC   PO443584  44.650  29.962   5.853
 8342POPC   GL143585  44.670  29.906   6.153
 8342POPC   GL243586  44.674  30.086   6.153
 8342POPC   C1A43587  44.668  29.905   6.453
 8342POPC   D2A43588  44.648  29.889   6.753
 8342POPC   C3A43589  44.620  29.940   7.053
 8342POPC   C4A43590  44.707  29.880   7.353
 8342POPC   C1B43591  44.684  30.169   6.453
 8342POPC   C2B43592  44.683  30.156   6.753
 8342POPC   C3B43593  44.594  30.206   7.053
 8342POPC   C4B43594  44.610  30.130   7.353
 8343POPC   NC343595   9.771   9.774   5.553
 8343POPC   PO443596   9.730   9.711   5.853
 8343POPC   GL143597   9.764   9.742   6.153
 8343POPC   GL243598   9.576   9.770   6.153
 8343POPC   C1A43599   9.750   9.742   6.453
 8343POPC   D2A43600   9.777   9.699   6.753
 8343POPC   C3A43601   9.717   9.793   7.053
 8343POPC   C4A43602   9.774   9.786   7.353
 8343POPC   C1B43603   9.465   9.713   6.453
 8343POPC   C2B43604   9.532   9.670   6.753
 8343POPC   C3B43605   9.516   9.701   7.053
 8343POPC   C4B43606   9.534   9.735   7.353
 8344POPC   NC343607  13.613  15.924   5.553
 8344POPC   PO443608  13.646  15.941   5.853
 8344POPC   GL143609  13.604  16.005   6.153
 8344POPC   GL243610  13.678  16.087   6.153
 8344POPC   C1A43611  13.631  15.944   6.453
 8344POPC   D2A43612  13.627  15.953   6.753
 8344POPC   C3A43613  13.662  15.957   7.053
 8344POPC   C4A43614  13.639  15.932   7.353
 8344POPC   C1B43615  13.733  16.134   6.453
 8344POPC   C2B43616  13.775  16.123   6.753
 8344POPC   C3B43617  13.797  16.123   7.053
 8344POPC   C4B43618  13.786  16.186   7.353
 8345POPC   NC343619  19.869   2.752   5.553
 8345POPC   PO443620  19.857   2.757   5.853
 8345POPC   GL143621  19.870   2.796   6.153
 8345POPC   GL243622  19.954   2.805   6.153
 8345POPC   C1A43623  19.833   2.756   6.453
 8345POPC   D2A43624  19.855   2.744   6.753
 8345POPC   C3A43625  19.875   2.770   7.053
 8345POPC   C4A43626  19.866   2.762   7.353
 8345POPC   C1B43627  19.997   2.915   6.453
 8345POPC   C2B43628  19.984   2.894   6.753
 8345POPC   C3B43629  20.011   2.964   7.053
 8345POPC   C4B43630  19.992   2.895   7.353
 8346POPC   NC343631   2.759  12.084   5.553
 8346POPC   PO443632   2.806  12.076   5.853
 8346POPC   GL143633   2.797  12.069   6.153
 8346POPC   GL243634   2.607  12.022   6.153
 8346POPC   C1A43635   2.750  12.082   6.453
 8346POPC   D2A43636   2.774  12.107   6.753
 8346POPC   C3A43637   2.802  12.040   7.053
 8346POPC   C4A43638   2.783  12.104   7.353
 8346POPC   C1B43639   2.495  11.975   6.453
 8346POPC   C2B43640   2.487  12.008   6.753
 8346POPC   C3B43641   2.477  12.029   7.053
 8346POPC   C4B43642   2.500  11.963   7.353
 8347POPC   NC343643  42.324  32.975   5.553
 8347POPC   PO443644  42.338  32.976   5.853
 8347POPC   GL143645  42.303  33.044   6.153
 8347POPC   GL243646  42.302  33.190   6.153
 8347POPC   C1A43647  42.336  33.005   6.453
 8347POPC   D2A43648  42.352  32.984   6.753
 8347POPC   C3A43649  42.354  32.987   7.053
 8347POPC   C4A43650  42.295  33.006   7.353
 8347POPC   C1B43651  42.305  33.227   6.453
 8347POPC   C2B43652  42.380  33.303   6.753
 8347POPC   C3B43653  42.386  33.313   7.053
 8347POPC   C4B43654  42.364  33.285   7.353
 8348POPC   NC343655   8.159  25.301   5.553
 8348POPC   PO443656   8.242  25.265   5.853
 8348POPC   GL143657   8.245  25.217   6.153
 8348POPC   GL243658   8.139  25.131   6.153
 8348POPC   C1A43659   8.204  25.301   6.453
 8348POPC   D2A43660   8.176  25.250   6.753
 8348POPC   C3A43661   8.169  25.306   7.053
 8348POPC   C4A43662   8.238  25.265   7.353
 8348POPC   C1B43663   8.195  25.060   6.453
 8348POPC   C2B43664   8.187  24.984   6.753
 8348POPC   C3B43665   8.181  25.061   7.053
 8348POPC   C4B43666   8.134  24.982   7.353
 8349POPC   NC343667   6.666  27.643   5.553
 8349POPC   PO443668   6.612  27.548   5.853
 8349POPC   GL143669   6.656  27.616   6.153
 8349POPC   GL243670   6.571  27.626   6.153
 8349POPC   C1A43671   6.657  27.577   6.453
 8349POPC   D2A43672   6.675  27.543   6.753
 8349POPC   C3A43673   6.648  27.558   7.053
 8349POPC   C4A43674   6.604  27.614   7.353
 8349POPC   C1B43675   6.449  27.663   6.453
 8349POPC   C2B43676   6.372  27.628   6.753
 8349POPC   C3B43677   6.399  27.707   7.053
 8349POPC   C4B43678   6.366  27.702   7.353
 8350POPC   NC343679  24.536  15.187   5.553
 8350POPC   PO443680  24.483  15.152   5.853
 8350POPC   GL143681  24.446  15.141   6.153
 8350POPC   GL243682  24.628  15.175   6.153
 8350POPC   C1A43683  24.515  15.158   6.453
 8350POPC   D2A43684  24.528  15.142   6.753
 8350POPC   C3A43685  24.516  15.224   7.053
 8350POPC   C4A43686  24.460  15.171   7.353
 8350POPC   C1B43687  24.765  15.289   6.453
 8350POPC   C2B43688  24.775  15.266   6.753
 8350POPC   C3B43689  24.694  15.268   7.053
 8350POPC   C4B43690  24.740  15.206   7.353
 8351POPC   NC343691  34.604  41.571   5.553
 8351POPC   PO443692  34.542  41.589   5.853
 8351POPC   GL143693  34.580  41.598   6.153
 8351POPC   GL243694  34.517  41.589   6.153
 8351POPC   C1A43695  34.610  41.550   6.453
 8351POPC   D2A43696  34.534  41.514   6.753
 8351POPC   C3A43697  34.623  41.578   7.053
 8351POPC   C4A43698  34.572  41.526   7.353
 8351POPC   C1B43699  34.331  41.714   6.453
 8351POPC   C2B43700  34.368  41.683   6.753
 8351POPC   C3B43701  34.373  41.681   7.053
 8351POPC   C4B43702  34.345  41.735   7.353
 8352POPC   NC343703   9.798  14.421   5.553
 8352POPC   PO443704   9.774  14.370   5.853
 8352POPC   GL143705   9.797  14.428   6.153
 8352POPC   GL243706   9.599  14.445   6.153
 8352POPC   C1A43707   9.700  14.451   6.453
 8352POPC   D2A43708   9.768  14.450   6.753
 8352POPC   C3A43709   9.744  14.392   7.053
 8352POPC   C4A43710   9.751  14.421   7.353
 8352POPC   C1B43711   9.493  14.470   6.453
 8352POPC   C2B43712   9.534  14.481   6.753
 8352POPC   C3B43713   9.560  14.476   7.053
 8352POPC   C4B43714   9.554  14.463   7.353
 8353POPC   NC343715   2.032  29.883   5.553
 8353POPC   PO443716   1.950  29.938   5.853
 8353POPC   GL143717   2.025  29.902   6.153
 8353POPC   GL243718   1.863  30.008   6.153
 8353POPC   C1A43719   1.977  29.969   6.453
 8353POPC   D2A43720   2.014  29.920   6.753
 8353POPC   C3A43721   2.031  29.934   7.053
 8353POPC   C4A43722   1.974  29.948   7.353
 8353POPC   C1B43723   1.777  30.066   6.453
 8353POPC   C2B43724   1.791  30.104   6.753
 8353POPC   C3B43725   1.777  30.098   7.053
 8353POPC   C4B43726   1.782  30.075   7.353
 8354POPC   NC343727   5.877  26.081   5.553
 8354POPC   PO443728   5.849  26.001   5.853
 8354POPC   GL143729   5.849  26.002   6.153
 8354POPC   GL243730   5.756  26.064   6.153
 8354POPC   C1A43731   5.867  26.013   6.453
 8354POPC   D2A43732   5.909  26.003   6.753
 8354POPC   C3A43733   5.913  26.084   7.053
 8354POPC   C4A43734   5.863  26.031   7.353
 8354POPC   C1B43735   5.664  26.027   6.453
 8354POPC   C2B43736   5.631  25.987   6.753
 8354POPC   C3B43737   5.648  26.037   7.053
 8354POPC   C4B43738   5.647  26.003   7.353
 8355POPC   NC343739  31.461  43.850   5.553
 8355POPC   PO443740  31.428  43.868   5.853
 8355POPC   GL143741  31.521  43.922   6.153
 8355POPC   GL243742  31.372  43.834   6.153
 8355POPC   C1A43743  31.475  43.837   6.453
 8355POPC   D2A43744  31.503  43.859   6.753
 8355POPC   C3A43745  31.486  43.877   7.053
 8355POPC   C4A43746  31.472  43.839   7.353
 8355POPC   C1B43747  31.289  43.671   6.453
 8355POPC   C2B43748  31.267  43.668   6.753
 8355POPC   C3B43749  31.310  43.728   7.053
 8355POPC   C4B43750  31.300  43.667   7.353
 8356POPC   NC343751   0.469  33.830   5.553
 8356POPC   PO443752   0.455  33.813   5.853
 8356POPC   GL143753   0.416  33.761   6.153
 8356POPC   GL243754   0.479  33.966   6.153
 8356POPC   C1A43755   0.484  33.792   6.453
 8356POPC   D2A43756   0.486  33.796   6.753
 8356POPC   C3A43757   0.455  33.804   7.053
 8356POPC   C4A43758   0.455  33.823   7.353
 8356POPC   C1B43759   0.457  34.003   6.453
 8356POPC   C2B43760   0.508  34.045   6.753
 8356POPC   C3B43761   0.514  34.078   7.053
 8356POPC   C4B43762   0.469  34.062   7.353
 8357POPC   NC343763  37.712  36.163   5.553
 8357POPC   PO443764  37.665  36.126   5.853
 8357POPC   GL143765  37.651  36.099   6.153
 8357POPC   GL243766  37.553  36.177   6.153
 8357POPC   C1A43767  37.639  36.134   6.453
 8357POPC   D2A43768  37.668  36.106   6.753
 8357POPC   C3A43769  37.677  36.091   7.053
 8357POPC   C4A43770  37.681  36.114   7.353
 8357POPC   C1B43771  37.395  36.148   6.453
 8357POPC   C2B43772  37.401  36.100   6.753
 8357POPC   C3B43773  37.407  36.106   7.053
 8357POPC   C4B43774  37.408  36.104   7.353
 8358POPC   NC343775  22.160  22.912   5.553
 8358POPC   PO443776  22.187  22.911   5.853
 8358POPC   GL143777  22.118  22.937   6.153
 8358POPC   GL243778  22.132  22.862   6.153
 8358POPC   C1A43779  22.194  22.910   6.453
 8358POPC   D2A43780  22.141  22.895   6.753
 8358POPC   C3A43781  22.204  22.973   7.053
 8358POPC   C4A43782  22.171  22.908   7.353
 8358POPC   C1B43783  22.083  22.728   6.453
 8358POPC   C2B43784  22.050  22.700   6.753
 8358POPC   C3B43785  22.016  22.695   7.053
 8358POPC   C4B43786  22.099  22.689   7.353
 8359POPC   NC343787  36.172   5.085   5.553
 8359POPC   PO443788  36.128   5.063   5.853
 8359POPC   GL143789  36.082   5.079   6.153
 8359POPC   GL243790  36.137   4.927   6.153
 8359POPC   C1A43791  36.173   5.055   6.453
 8359POPC   D2A43792  36.171   5.076   6.753
 8359POPC   C3A43793  36.170   5.061   7.053
 8359POPC   C4A43794  36.161   5.138   7.353
 8359POPC   C1B43795  36.143   4.857   6.453
 8359POPC   C2B43796  36.238   4.865   6.753
 8359POPC   C3B43797  36.202   4.827   7.053
 8359POPC   C4B43798  36.147   4.802   7.353
 8360POPC   NC343799   8.227  23.688   5.553
 8360POPC   PO443800   8.242  23.665   5.853
 8360POPC   GL143801   8.173  23.695   6.153
 8360POPC   GL243802   8.332  23.636   6.153
 8360POPC   C1A43803   8.179  23.694   6.453
 8360POPC   D2A43804   8.214  23.755   6.753
 8360POPC   C3A43805   8.162  23.698   7.053
 8360POPC   C4A43806   8.242  23.737   7.353
 8360POPC   C1B43807   8.413  23.519   6.453
 8360POPC   C2B43808   8.396  23.585   6.753
 8360POPC   C3B43809   8.352  23.574   7.053
 8360POPC   C4B43810   8.329  23.514   7.353
 8361POPC   NC343811   5.900  40.045   5.553
 8361POPC   PO443812   5.867  39.965   5.853
 8361POPC   GL143813   5.838  39.976   6.153
 8361POPC   GL243814   5.975  40.094   6.153
 8361POPC   C1A43815   5.862  40.053   6.453
 8361POPC   D2A43816   5.851  39.965   6.753
 8361POPC   C3A43817   5.867  40.026   7.053
 8361POPC   C4A43818   5.872  40.040   7.353
 8361POPC   C1B43819   6.081  40.200   6.453
 8361POPC   C2B43820   6.094  40.132   6.753
 8361POPC   C3B43821   6.033  40.163   7.053
 8361POPC   C4B43822   6.106  40.114   7.353
 8362POPC   NC343823  18.261  22.945   5.553
 8362POPC   PO443824  18.300  22.890   5.853
 8362POPC   GL143825  18.278  22.897   6.153
 8362POPC   GL243826  18.172  23.000   6.153
 8362POPC   C1A43827  18.283  22.944   6.453
 8362POPC   D2A43828  18.281  22.915   6.753
 8362POPC   C3A43829  18.270  22.963   7.053
 8362POPC   C4A43830  18.241  22.972   7.353
 8362POPC   C1B43831  18.069  23.096   6.453
 8362POPC   C2B43832  18.056  23.130   6.753
 8362POPC   C3B43833  18.078  23.097   7.053
 8362POPC   C4B43834  18.088  23.138   7.353
 8363POPC   NC343835  32.980  24.443   5.553
 8363POPC   PO443836  33.019  24.516   5.853
 8363POPC   GL143837  33.062  24.539   6.153
 8363POPC   GL243838  33.043  24.400   6.153
 8363POPC   C1A43839  32.979  24.495   6.453
 8363POPC   D2A43840  33.055  24.446   6.753
 8363POPC   C3A43841  33.001  24.523   7.053
 8363POPC   C4A43842  32.981  24.475   7.353
 8363POPC   C1B43843  33.070  24.286   6.453
 8363POPC   C2B43844  33.078  24.250   6.753
 8363POPC   C3B43845  33.095  24.236   7.053
 8363POPC   C4B43846  33.154  24.212   7.353
 8364POPC   NC343847  37.676  32.989   5.553
 8364POPC   PO443848  37.692  33.052   5.853
 8364POPC   GL143849  37.674  33.034   6.153
 8364POPC   GL243850  37.609  33.033   6.153
 8364POPC   C1A43851  37.632  32.996   6.453
 8364POPC   D2A43852  37.707  33.003   6.753
 8364POPC   C3A43853  37.647  32.990   7.053
 8364POPC   C4A43854  37.691  32.992   7.353
 8364POPC   C1B43855  37.441  33.104   6.453
 8364POPC   C2B43856  37.435  33.122   6.753
 8364POPC   C3B43857  37.464  33.175   7.053
 8364POPC   C4B43858  37.411  33.190   7.353
 8365POPC   NC343859  26.064  17.488   5.553
 8365POPC   PO443860  26.053  17.495   5.853
 8365POPC   GL143861  26.064  17.477   6.153
 8365POPC   GL243862  26.136  17.485   6.153
 8365POPC   C1A43863  25.994  17.515   6.453
 8365POPC   D2A43864  26.010  17.528   6.753
 8365POPC   C3A43865  26.046  17.484   7.053
 8365POPC   C4A43866  26.078  17.507   7.353
 8365POPC   C1B43867  26.245  17.568   6.453
 8365POPC   C2B43868  26.331  17.515   6.753
 8365POPC   C3B43869  26.333  17.505   7.053
 8365POPC   C4B43870  26.275  17.530   7.353
 8366POPC   NC343871  25.297  29.162   5.553
 8366POPC   PO443872  25.289  29.109   5.853
 8366POPC   GL143873  25.309  29.124   6.153
 8366POPC   GL243874  25.314  29.043   6.153
 8366POPC   C1A43875  25.259  29.168   6.453
 8366POPC   D2A43876  25.266  29.105   6.753
 8366POPC   C3A43877  25.304  29.110   7.053
 8366POPC   C4A43878  25.230  29.095   7.353
 8366POPC   C1B43879  25.302  28.910   6.453
 8366POPC   C2B43880  25.302  28.937   6.753
 8366POPC   C3B43881  25.320  28.895   7.053
 8366POPC   C4B43882  25.292  28.873   7.353
 8367POPC   NC343883  16.688  27.614   5.553
 8367POPC   PO443884  16.693  27.554   5.853
 8367POPC   GL143885  16.764  27.547   6.153
 8367POPC   GL243886  16.729  27.465   6.153
 8367POPC   C1A43887  16.750  27.567   6.453
 8367POPC   D2A43888  16.745  27.634   6.753
 8367POPC   C3A43889  16.768  27.597   7.053
 8367POPC   C4A43890  16.732  27.602   7.353
 8367POPC   C1B43891  16.712  27.371   6.453
 8367POPC   C2B43892  16.652  27.394   6.753
 8367POPC   C3B43893  16.695  27.394   7.053
 8367POPC   C4B43894  16.655  27.317   7.353
 8368POPC   NC343895  36.084  33.769   5.553
 8368POPC   PO443896  36.103  33.839   5.853
 8368POPC   GL143897  36.109  33.840   6.153
 8368POPC   GL243898  36.233  33.731   6.153
 8368POPC   C1A43899  36.151  33.778   6.453
 8368POPC   D2A43900  36.127  33.790   6.753
 8368POPC   C3A43901  36.115  33.777   7.053
 8368POPC   C4A43902  36.151  33.832   7.353
 8368POPC   C1B43903  36.365  33.764   6.453
 8368POPC   C2B43904  36.367  33.700   6.753
 8368POPC   C3B43905  36.369  33.752   7.053
 8368POPC   C4B43906  36.332  33.669   7.353
 8369POPC   NC343907  39.261  32.226   5.553
 8369POPC   PO443908  39.210  32.238   5.853
 8369POPC   GL143909  39.254  32.198   6.153
 8369POPC   GL243910  39.089  32.171   6.153
 8369POPC   C1A43911  39.225  32.201   6.453
 8369POPC   D2A43912  39.196  32.273   6.753
 8369POPC   C3A43913  39.263  32.224   7.053
 8369POPC   C4A43914  39.186  32.209   7.353
 8369POPC   C1B43915  38.999  32.122   6.453
 8369POPC   C2B43916  39.038  32.151   6.753
 8369POPC   C3B43917  38.973  32.180   7.053
 8369POPC   C4B43918  39.010  32.105   7.353
 8370POPC   NC343919   9.002   5.915   5.553
 8370POPC   PO443920   8.943   5.875   5.853
 8370POPC   GL143921   9.021   5.886   6.153
 8370POPC   GL243922   8.896   5.783   6.153
 8370POPC   C1A43923   9.008   5.864   6.453
 8370POPC   D2A43924   9.005   5.880   6.753
 8370POPC   C3A43925   8.947   5.852   7.053
 8370POPC   C4A43926   8.979   5.880   7.353
 8370POPC   C1B43927   8.790   5.703   6.453
 8370POPC   C2B43928   8.854   5.637   6.753
 8370POPC   C3B43929   8.835   5.642   7.053
 8370POPC   C4B43930   8.855   5.681   7.353
 8371POPC   NC343931  32.287  27.574   5.553
 8371POPC   PO443932  32.213  27.626   5.853
 8371POPC   GL143933  32.295  27.547   6.153
 8371POPC   GL243934  32.132  27.651   6.153
 8371POPC   C1A43935  32.233  27.633   6.453
 8371POPC   D2A43936  32.215  27.640   6.753
 8371POPC   C3A43937  32.236  27.632   7.053
 8371POPC   C4A43938  32.283  27.592   7.353
 8371POPC   C1B43939  32.055  27.751   6.453
 8371POPC   C2B43940  32.064  27.761   6.753
 8371POPC   C3B43941  32.153  27.836   7.053
 8371POPC   C4B43942  32.118  27.830   7.353
 8372POPC   NC343943  22.908   5.853   5.553
 8372POPC   PO443944  22.917   5.832   5.853
 8372POPC   GL143945  22.959   5.882   6.153
 8372POPC   GL243946  22.989   6.001   6.153
 8372POPC   C1A43947  22.985   5.880   6.453
 8372POPC   D2A43948  22.960   5.885   6.753
 8372POPC   C3A43949  22.969   5.869   7.053
 8372POPC   C4A43950  22.932   5.866   7.353
 8372POPC   C1B43951  22.985   6.089   6.453
 8372POPC   C2B43952  22.982   6.087   6.753
 8372POPC   C3B43953  23.066   6.093   7.053
 8372POPC   C4B43954  22.991   6.095   7.353
 8373POPC   NC343955  20.656  11.255   5.553
 8373POPC   PO443956  20.640  11.312   5.853
 8373POPC   GL143957  20.609  11.287   6.153
 8373POPC   GL243958  20.512  11.322   6.153
 8373POPC   C1A43959  20.621  11.315   6.453
 8373POPC   D2A43960  20.595  11.297   6.753
 8373POPC   C3A43961  20.569  11.276   7.053
 8373POPC   C4A43962  20.608  11.321   7.353
 8373POPC   C1B43963  20.386  11.404   6.453
 8373POPC   C2B43964  20.359  11.462   6.753
 8373POPC   C3B43965  20.385  11.370   7.053
 8373POPC   C4B43966  20.351  11.465   7.353
 8374POPC   NC343967  22.930  37.689   5.553
 8374POPC   PO443968  22.912  37.720   5.853
 8374POPC   GL143969  22.944  37.652   6.153
 8374POPC   GL243970  22.968  37.519   6.153
 8374POPC   C1A43971  22.910  37.650   6.453
 8374POPC   D2A43972  22.955  37.675   6.753
 8374POPC   C3A43973  22.914  37.643   7.053
 8374POPC   C4A43974  22.916  37.724   7.353
 8374POPC   C1B43975  22.996  37.425   6.453
 8374POPC   C2B43976  22.952  37.477   6.753
 8374POPC   C3B43977  22.952  37.421   7.053
 8374POPC   C4B43978  22.949  37.409   7.353
 8375POPC   NC343979   3.512  15.137   5.553
 8375POPC   PO443980   3.548  15.207   5.853
 8375POPC   GL143981   3.531  15.213   6.153
 8375POPC   GL243982   3.593  15.312   6.153
 8375POPC   C1A43983   3.500  15.174   6.453
 8375POPC   D2A43984   3.550  15.186   6.753
 8375POPC   C3A43985   3.540  15.228   7.053
 8375POPC   C4A43986   3.524  15.175   7.353
 8375POPC   C1B43987   3.765  15.337   6.453
 8375POPC   C2B43988   3.730  15.333   6.753
 8375POPC   C3B43989   3.759  15.397   7.053
 8375POPC   C4B43990   3.725  15.400   7.353
 8376POPC   NC343991  22.891   1.998   5.553
 8376POPC   PO443992  22.959   2.030   5.853
 8376POPC   GL143993  22.911   1.977   6.153
 8376POPC   GL243994  22.850   2.038   6.153
 8376POPC   C1A43995  22.891   1.982   6.453
 8376POPC   D2A43996  22.965   1.976   6.753
 8376POPC   C3A43997  22.940   1.988   7.053
 8376POPC   C4A43998  22.940   1.981   7.353
 8376POPC   C1B43999  22.692   2.013   6.453
 8376POPC   C2B44000  22.639   1.986   6.753
 8376POPC   C3B44001  22.734   2.003   7.053
 8376POPC   C4B44002  22.677   1.962   7.353
 8377POPC   NC344003  38.466  29.888   5.553
 8377POPC   PO444004  38.493  29.961   5.853
 8377POPC   GL144005  38.425  29.881   6.153
 8377POPC   GL244006  38.379  29.889   6.153
 8377POPC   C1A44007  38.426  29.937   6.453
 8377POPC   D2A44008  38.428  29.912   6.753
 8377POPC   C3A44009  38.430  29.946   7.053
 8377POPC   C4A44010  38.448  29.886   7.353
 8377POPC   C1B44011  38.244  29.847   6.453
 8377POPC   C2B44012  38.272  29.802   6.753
 8377POPC   C3B44013  38.272  29.789   7.053
 8377POPC   C4B44014  38.208  29.815   7.353
 8378POPC   NC344015  10.495  43.117   5.553
 8378POPC   PO444016  10.488  43.120   5.853
 8378POPC   GL144017  10.534  43.104   6.153
 8378POPC   GL244018  10.443  43.224   6.153
 8378POPC   C1A44019  10.520  43.078   6.453
 8378POPC   D2A44020  10.478  43.083   6.753
 8378POPC   C3A44021  10.478  43.078   7.053
 8378POPC   C4A44022  10.552  43.102   7.353
 8378POPC   C1B44023  10.366  43.307   6.453
 8378POPC   C2B44024  10.389  43.285   6.753
 8378POPC   C3B44025  10.443  43.313   7.053
 8378POPC   C4B44026  10.404  43.279   7.353
 8379POPC   NC344027  40.800  22.961   5.553
 8379POPC   PO444028  40.823  22.960   5.853
 8379POPC   GL144029  40.759  22.915   6.153
 8379POPC   GL244030  40.842  23.039   6.153
 8379POPC   C1A44031  40.782  22.896   6.453
 8379POPC   D2A44032  40.754  22.953   6.753
 8379POPC   C3A44033  40.806  22.892   7.053
 8379POPC   C4A44034  40.756  22.943   7.353
 8379POPC   C1B44035  40.902  23.199   6.453
 8379POPC   C2B44036  40.899  23.159   6.753
 8379POPC   C3B44037  40.810  23.206   7.053
 8379POPC   C4B44038  40.906  23.184   7.353
 8380POPC   NC344039  33.780  40.045   5.553
 8380POPC   PO444040  33.813  40.055   5.853
 8380POPC   GL144041  33.792  39.981   6.153
 8380POPC   GL244042  33.874  39.901   6.153
 8380POPC   C1A44043  33.840  40.025   6.453
 8380POPC   D2A44044  33.801  40.055   6.753
 8380POPC   C3A44045  33.785  39.980   7.053
 8380POPC   C4A44046  33.776  39.999   7.353
 8380POPC   C1B44047  34.020  39.909   6.453
 8380POPC   C2B44048  33.982  39.856   6.753
 8380POPC   C3B44049  33.995  39.935   7.053
 8380POPC   C4B44050  34.018  39.927   7.353
 8381POPC   NC344051  43.881  26.814   5.553
 8381POPC   PO444052  43.925  26.782   5.853
 8381POPC   GL144053  43.888  26.784   6.153
 8381POPC   GL244054  43.964  26.859   6.153
 8381POPC   C1A44055  43.931  26.784   6.453
 8381POPC   D2A44056  43.920  26.775   6.753
 8381POPC   C3A44057  43.870  26.866   7.053
 8381POPC   C4A44058  43.903  26.776   7.353
 8381POPC   C1B44059  44.125  26.949   6.453
 8381POPC   C2B44060  44.087  27.009   6.753
 8381POPC   C3B44061  44.107  26.936   7.053
 8381POPC   C4B44062  44.075  26.947   7.353
 8382POPC   NC344063   2.743  38.416   5.553
 8382POPC   PO444064   2.725  38.461   5.853
 8382POPC   GL144065   2.741  38.470   6.153
 8382POPC   GL244066   2.651  38.375   6.153
 8382POPC   C1A44067   2.783  38.409   6.453
 8382POPC   D2A44068   2.808  38.493   6.753
 8382POPC   C3A44069   2.756  38.485   7.053
 8382POPC   C4A44070   2.740  38.430   7.353
 8382POPC   C1B44071   2.562  38.339   6.453
 8382POPC   C2B44072   2.555  38.340   6.753
 8382POPC   C3B44073   2.552  38.324   7.053
 8382POPC   C4B44074   2.604  38.248   7.353
 8383POPC   NC344075  43.070  20.621   5.553
 8383POPC   PO444076  43.099  20.572   5.853
 8383POPC   GL144077  43.111  20.593   6.153
 8383POPC   GL244078  43.033  20.501   6.153
 8383POPC   C1A44079  43.101  20.577   6.453
 8383POPC   D2A44080  43.101  20.606   6.753
 8383POPC   C3A44081  43.109  20.635   7.053
 8383POPC   C4A44082  43.060  20.608   7.353
 8383POPC   C1B44083  42.962  20.400   6.453
 8383POPC   C2B44084  42.966  20.356   6.753
 8383POPC   C3B44085  43.039  20.420   7.053
 8383POPC   C4B44086  42.999  20.346   7.353
 8384POPC   NC344087   1.174  22.136   5.553
 8384POPC   PO444088   1.215  22.146   5.853
 8384POPC   GL144089   1.245  22.175   6.153
 8384POPC   GL244090   1.132  22.312   6.153
 8384POPC   C1A44091   1.243  22.138   6.453
 8384POPC   D2A44092   1.198  22.138   6.753
 8384POPC   C3A44093   1.169  22.152   7.053
 8384POPC   C4A44094   1.198  22.200   7.353
 8384POPC   C1B44095   1.093  22.414   6.453
 8384POPC   C2B44096   1.126  22.352   6.753
 8384POPC   C3B44097   1.076  22.339   7.053
 8384POPC   C4B44098   1.071  22.344   7.353
 8385POPC   NC344099  27.612  14.354   5.553
 8385POPC   PO444100  27.558  14.408   5.853
 8385POPC   GL144101  27.556  14.408   6.153
 8385POPC   GL244102  27.632  14.282   6.153
 8385POPC   C1A44103  27.610  14.389   6.453
 8385POPC   D2A44104  27.600  14.431   6.753
 8385POPC   C3A44105  27.577  14.359   7.053
 8385POPC   C4A44106  27.591  14.438   7.353
 8385POPC   C1B44107  27.749  14.179   6.453
 8385POPC   C2B44108  27.685  14.137   6.753
 8385POPC   C3B44109  27.695  14.188   7.053
 8385POPC   C4B44110  27.664  14.136   7.353
 8386POPC   NC344111  42.303  29.171   5.553
 8386POPC   PO444112  42.290  29.165   5.853
 8386POPC   GL144113  42.362  29.110   6.153
 8386POPC   GL244114  42.392  29.254   6.153
 8386POPC   C1A44115  42.353  29.138   6.453
 8386POPC   D2A44116  42.306  29.106   6.753
 8386POPC   C3A44117  42.335  29.124   7.053
 8386POPC   C4A44118  42.286  29.100   7.353
 8386POPC   C1B44119  42.404  29.366   6.453
 8386POPC   C2B44120  42.333  29.412   6.753
 8386POPC   C3B44121  42.367  29.422   7.053
 8386POPC   C4B44122  42.395  29.344   7.353
 8387POPC   NC344123   3.557  19.868   5.553
 8387POPC   PO444124   3.582  19.873   5.853
 8387POPC   GL144125   3.509  19.853   6.153
 8387POPC   GL244126   3.673  19.738   6.153
 8387POPC   C1A44127   3.562  19.812   6.453
 8387POPC   D2A44128   3.565  19.810   6.753
 8387POPC   C3A44129   3.495  19.811   7.053
 8387POPC   C4A44130   3.514  19.864   7.353
 8387POPC   C1B44131   3.750  19.767   6.453
 8387POPC   C2B44132   3.745  19.687   6.753
 8387POPC   C3B44133   3.816  19.709   7.053
 8387POPC   C4B44134   3.754  19.705   7.353
 8388POPC   NC344135  35.302   1.207   5.553
 8388POPC   PO444136  35.320   1.233   5.853
 8388POPC   GL144137  35.349   1.197   6.153
 8388POPC   GL244138  35.353   1.311   6.153
 8388POPC   C1A44139  35.388   1.227   6.453
 8388POPC   D2A44140  35.352   1.197   6.753
 8388POPC   C3A44141  35.344   1.225   7.053
 8388POPC   C4A44142  35.396   1.186   7.353
 8388POPC   C1B44143  35.370   1.460   6.453
 8388POPC   C2B44144  35.344   1.506   6.753
 8388POPC   C3B44145  35.376   1.490   7.053
 8388POPC   C4B44146  35.346   1.412   7.353
 8389POPC   NC344147   4.326  12.844   5.553
 8389POPC   PO444148   4.351  12.822   5.853
 8389POPC   GL144149   4.281  12.865   6.153
 8389POPC   GL244150   4.414  12.922   6.153
 8389POPC   C1A44151   4.357  12.804   6.453
 8389POPC   D2A44152   4.360  12.839   6.753
 8389POPC   C3A44153   4.329  12.846   7.053
 8389POPC   C4A44154   4.294  12.850   7.353
 8389POPC   C1B44155   4.479  13.089   6.453
 8389POPC   C2B44156   4.441  13.024   6.753
 8389POPC   C3B44157   4.492  13.023   7.053
 8389POPC   C4B44158   4.415  13.045   7.353
 8390POPC   NC344159  10.526   2.006   5.553
 8390POPC   PO444160  10.534   2.035   5.853
 8390POPC   GL144161  10.546   2.026   6.153
 8390POPC   GL244162  10.626   1.986   6.153
 8390POPC   C1A44163  10.559   1.975   6.453
 8390POPC   D2A44164  10.481   1.978   6.753
 8390POPC   C3A44165  10.548   2.036   7.053
 8390POPC   C4A44166  10.564   2.007   7.353
 8390POPC   C1B44167  10.750   1.955   6.453
 8390POPC   C2B44168  10.807   1.994   6.753
 8390POPC   C3B44169  10.789   2.038   7.053
 8390POPC   C4B44170  10.739   2.008   7.353
 8391POPC   NC344171   0.459  36.099   5.553
 8391POPC   PO444172   0.395  36.133   5.853
 8391POPC   GL144173   0.399  36.092   6.153
 8391POPC   GL244174   0.362  36.198   6.153
 8391POPC   C1A44175   0.476  36.120   6.453
 8391POPC   D2A44176   0.451  36.157   6.753
 8391POPC   C3A44177   0.486  36.163   7.053
 8391POPC   C4A44178   0.480  36.119   7.353
 8391POPC   C1B44179   0.214  36.183   6.453
 8391POPC   C2B44180   0.174  36.213   6.753
 8391POPC   C3B44181   0.246  36.230   7.053
 8391POPC   C4B44182   0.163  36.260   7.353
 8392POPC   NC344183  40.002  22.971   5.553
 8392POPC   PO444184  40.032  22.956   5.853
 8392POPC   GL144185  39.993  22.933   6.153
 8392POPC   GL244186  39.937  22.832   6.153
 8392POPC   C1A44187  40.036  22.957   6.453
 8392POPC   D2A44188  40.011  22.926   6.753
 8392POPC   C3A44189  40.030  22.952   7.053
 8392POPC   C4A44190  40.010  22.907   7.353
 8392POPC   C1B44191  39.808  22.732   6.453
 8392POPC   C2B44192  39.873  22.793   6.753
 8392POPC   C3B44193  39.792  22.763   7.053
 8392POPC   C4B44194  39.834  22.755   7.353
 8393POPC   NC344195  22.124  21.398   5.553
 8393POPC   PO444196  22.115  21.423   5.853
 8393POPC   GL144197  22.131  21.394   6.153
 8393POPC   GL244198  22.018  21.366   6.153
 8393POPC   C1A44199  22.186  21.349   6.453
 8393POPC   D2A44200  22.143  21.349   6.753
 8393POPC   C3A44201  22.114  21.366   7.053
 8393POPC   C4A44202  22.210  21.386   7.353
 8393POPC   C1B44203  21.953  21.288   6.453
 8393POPC   C2B44204  21.919  21.306   6.753
 8393POPC   C3B44205  21.902  21.318   7.053
 8393POPC   C4B44206  21.895  21.299   7.353
 8394POPC   NC344207  40.755  29.170   5.553
 8394POPC   PO444208  40.793  29.142   5.853
 8394POPC   GL144209  40.769  29.131   6.153
 8394POPC   GL244210  40.834  29.263   6.153
 8394POPC   C1A44211  40.824  29.115   6.453
 8394POPC   D2A44212  40.817  29.164   6.753
 8394POPC   C3A44213  40.753  29.159   7.053
 8394POPC   C4A44214  40.753  29.136   7.353
 8394POPC   C1B44215  40.785  29.360   6.453
 8394POPC   C2B44216  40.808  29.362   6.753
 8394POPC   C3B44217  40.773  29.413   7.053
 8394POPC   C4B44218  40.851  29.432   7.353
 8395POPC   NC344219  40.049  31.518   5.553
 8395POPC   PO444220  40.031  31.462   5.853
 8395POPC   GL144221  40.015  31.522   6.153
 8395POPC   GL244222  39.908  31.353   6.153
 8395POPC   C1A44223  39.988  31.505   6.453
 8395POPC   D2A44224  39.958  31.498   6.753
 8395POPC   C3A44225  40.002  31.436   7.053
 8395POPC   C4A44226  39.976  31.513   7.353
 8395POPC   C1B44227  39.868  31.230   6.453
 8395POPC   C2B44228  39.862  31.253   6.753
 8395POPC   C3B44229  39.851  31.264   7.053
 8395POPC   C4B44230  39.868  31.259   7.353
 8396POPC   NC344231  28.345   8.208   5.553
 8396POPC   PO444232  28.372   8.235   5.853
 8396POPC   GL144233  28.375   8.177   6.153
 8396POPC   GL244234  28.295   8.164   6.153
 8396POPC   C1A44235  28.333   8.228   6.453
 8396POPC   D2A44236  28.364   8.208   6.753
 8396POPC   C3A44237  28.406   8.217   7.053
 8396POPC   C4A44238  28.379   8.221   7.353
 8396POPC   C1B44239  28.147   8.038   6.453
 8396POPC   C2B44240  28.123   8.066   6.753
 8396POPC   C3B44241  28.109   8.073   7.053
 8396POPC   C4B44242  28.153   8.051   7.353
 8397POPC   NC344243  39.275   7.442   5.553
 8397POPC   PO444244  39.224   7.424   5.853
 8397POPC   GL144245  39.254   7.383   6.153
 8397POPC   GL244246  39.331   7.391   6.153
 8397POPC   C1A44247  39.254   7.372   6.453
 8397POPC   D2A44248  39.242   7.411   6.753
 8397POPC   C3A44249  39.195   7.466   7.053
 8397POPC   C4A44250  39.191   7.378   7.353
 8397POPC   C1B44251  39.526   7.472   6.453
 8397POPC   C2B44252  39.453   7.497   6.753
 8397POPC   C3B44253  39.526   7.412   7.053
 8397POPC   C4B44254  39.453   7.420   7.353
 8398POPC   NC344255  34.594  29.936   5.553
 8398POPC   PO444256  34.602  29.957   5.853
 8398POPC   GL144257  34.568  29.935   6.153
 8398POPC   GL244258  34.644  30.008   6.153
 8398POPC   C1A44259  34.606  29.910   6.453
 8398POPC   D2A44260  34.564  29.929   6.753
 8398POPC   C3A44261  34.533  29.877   7.053
 8398POPC   C4A44262  34.592  29.927   7.353
 8398POPC   C1B44263  34.619  30.162   6.453
 8398POPC   C2B44264  34.673  30.129   6.753
 8398POPC   C3B44265  34.653  30.172   7.053
 8398POPC   C4B44266  34.644  30.179   7.353
 8399POPC   NC344267   8.989  15.227   5.553
 8399POPC   PO444268   8.951  15.152   5.853
 8399POPC   GL144269   8.947  15.149   6.153
 8399POPC   GL244270   8.976  15.269   6.153
 8399POPC   C1A44271   9.020  15.135   6.453
 8399POPC   D2A44272   8.936  15.136   6.753
 8399POPC   C3A44273   8.943  15.160   7.053
 8399POPC   C4A44274   8.940  15.140   7.353
 8399POPC   C1B44275   9.033  15.396   6.453
 8399POPC   C2B44276   8.952  15.434   6.753
 8399POPC   C3B44277   8.975  15.403   7.053
 8399POPC   C4B44278   8.954  15.448   7.353
 8400POPC   NC344279   6.634  22.955   5.553
 8400POPC   PO444280   6.639  22.949   5.853
 8400POPC   GL144281   6.608  22.963   6.153
 8400POPC   GL244282   6.770  22.862   6.153
 8400POPC   C1A44283   6.618  22.986   6.453
 8400POPC   D2A44284   6.684  22.901   6.753
 8400POPC   C3A44285   6.622  22.987   7.053
 8400POPC   C4A44286   6.619  22.980   7.353
 8400POPC   C1B44287   6.848  22.793   6.453
 8400POPC   C2B44288   6.763  22.749   6.753
 8400POPC   C3B44289   6.810  22.714   7.053
 8400POPC   C4B44290   6.773  22.746   7.353
 8401POPC   NC344291  22.175  33.757   5.553
 8401POPC   PO444292  22.124  33.765   5.853
 8401POPC   GL144293  22.179  33.778   6.153
 8401POPC   GL244294  22.046  33.789   6.153
 8401POPC   C1A44295  22.182  33.816   6.453
 8401POPC   D2A44296  22.197  33.835   6.753
 8401POPC   C3A44297  22.130  33.768   7.053
 8401POPC   C4A44298  22.136  33.773   7.353
 8401POPC   C1B44299  21.914  33.861   6.453
 8401POPC   C2B44300  21.865  33.809   6.753
 8401POPC   C3B44301  21.958  33.825   7.053
 8401POPC   C4B44302  21.910  33.822   7.353
 8402POPC   NC344303  22.117   0.405   5.553
 8402POPC   PO444304  22.198   0.397   5.853
 8402POPC   GL144305  22.185   0.421   6.153
 8402POPC   GL244306  22.285   0.334   6.153
 8402POPC   C1A44307  22.179   0.460   6.453
 8402POPC   D2A44308  22.203   0.474   6.753
 8402POPC   C3A44309  22.156   0.435   7.053
 8402POPC   C4A44310  22.135   0.426   7.353
 8402POPC   C1B44311  22.378   0.311   6.453
 8402POPC   C2B44312  22.391   0.327   6.753
 8402POPC   C3B44313  22.394   0.280   7.053
 8402POPC   C4B44314  22.355   0.332   7.353
 8403POPC   NC344315   0.470   2.769   5.553
 8403POPC   PO444316   0.447   2.810   5.853
 8403POPC   GL144317   0.443   2.757   6.153
 8403POPC   GL244318   0.506   2.706   6.153
 8403POPC   C1A44319   0.472   2.767   6.453
 8403POPC   D2A44320   0.404   2.797   6.753
 8403POPC   C3A44321   0.399   2.720   7.053
 8403POPC   C4A44322   0.457   2.786   7.353
 8403POPC   C1B44323   0.673   2.678   6.453
 8403POPC   C2B44324   0.615   2.687   6.753
 8403POPC   C3B44325   0.651   2.652   7.053
 8403POPC   C4B44326   0.640   2.606   7.353
 8404POPC   NC344327   2.762  15.178   5.553
 8404POPC   PO444328   2.782  15.220   5.853
 8404POPC   GL144329   2.794  15.215   6.153
 8404POPC   GL244330   2.664  15.054   6.153
 8404POPC   C1A44331   2.770  15.184   6.453
 8404POPC   D2A44332   2.726  15.175   6.753
 8404POPC   C3A44333   2.771  15.135   7.053
 8404POPC   C4A44334   2.813  15.169   7.353
 8404POPC   C1B44335   2.568  15.018   6.453
 8404POPC   C2B44336   2.623  15.000   6.753
 8404POPC   C3B44337   2.615  15.046   7.053
 8404POPC   C4B44338   2.624  14.987   7.353
 8405POPC   NC344339  32.278   5.906   5.553
 8405POPC   PO444340  32.249   5.829   5.853
 8405POPC   GL144341  32.292   5.888   6.153
 8405POPC   GL244342  32.339   5.879   6.153
 8405POPC   C1A44343  32.218   5.842   6.453
 8405POPC   D2A44344  32.267   5.904   6.753
 8405POPC   C3A44345  32.265   5.904   7.053
 8405POPC   C4A44346  32.232   5.893   7.353
 8405POPC   C1B44347  32.525   5.940   6.453
 8405POPC   C2B44348  32.458   5.893   6.753
 8405POPC   C3B44349  32.497   5.934   7.053
 8405POPC   C4B44350  32.464   5.950   7.353
 8406POPC   NC344351  44.660  23.712   5.553
 8406POPC   PO444352  44.646  23.702   5.853
 8406POPC   GL144353  44.679  23.702   6.153
 8406POPC   GL244354  44.808  23.764   6.153
 8406POPC   C1A44355  44.671  23.740   6.453
 8406POPC   D2A44356  44.700  23.724   6.753
 8406POPC   C3A44357  44.643  23.720   7.053
 8406POPC   C4A44358  44.668  23.752   7.353
 8406POPC   C1B44359  44.882  23.826   6.453
 8406POPC   C2B44360  44.922  23.856   6.753
 8406POPC   C3B44361  44.838  23.888   7.053
 8406POPC   C4B44362  44.839  23.871   7.353
 8407POPC   NC344363  43.152   4.294   5.553
 8407POPC   PO444364  43.098   4.283   5.853
 8407POPC   GL144365  43.129   4.352   6.153
 8407POPC   GL244366  43.159   4.236   6.153
 8407POPC   C1A44367  43.142   4.281   6.453
 8407POPC   D2A44368  43.090   4.269   6.753
 8407POPC   C3A44369  43.087   4.322   7.053
 8407POPC   C4A44370  43.102   4.342   7.353
 8407POPC   C1B44371  43.284   4.133   6.453
 8407POPC   C2B44372  43.236   4.083   6.753
 8407POPC   C3B44373  43.311   4.150   7.053
 8407POPC   C4B44374  43.261   4.132   7.353
 8408POPC   NC344375  32.997  40.756   5.553
 8408POPC   PO444376  33.036  40.787   5.853
 8408POPC   GL144377  33.056  40.796   6.153
 8408POPC   GL244378  33.119  40.795   6.153
 8408POPC   C1A44379  33.022  40.753   6.453
 8408POPC   D2A44380  33.067  40.788   6.753
 8408POPC   C3A44381  33.069  40.820   7.053
 8408POPC   C4A44382  33.036  40.764   7.353
 8408POPC   C1B44383  33.284  40.771   6.453
 8408POPC   C2B44384  33.311  40.803   6.753
 8408POPC   C3B44385  33.311  40.720   7.053
 8408POPC   C4B44386  33.228  40.714   7.353
 8409POPC   NC344387  24.497  29.118   5.553
 8409POPC   PO444388  24.511  29.135   5.853
 8409POPC   GL144389  24.536  29.112   6.153
 8409POPC   GL244390  24.416  29.082   6.153
 8409POPC   C1A44391  24.539  29.114   6.453
 8409POPC   D2A44392  24.484  29.155   6.753
 8409POPC   C3A44393  24.449  29.141   7.053
 8409POPC   C4A44394  24.487  29.121   7.353
 8409POPC   C1B44395  24.234  28.993   6.453
 8409POPC   C2B44396  24.265  29.057   6.753
 8409POPC   C3B44397  24.259  28.987   7.053
 8409POPC   C4B44398  24.289  29.011   7.353
 8410POPC   NC344399  31.454  26.029   5.553
 8410POPC   PO444400  31.489  26.070   5.853
 8410POPC   GL144401  31.515  26.060   6.153
 8410POPC   GL244402  31.326  26.053   6.153
 8410POPC   C1A44403  31.464  26.032   6.453
 8410POPC   D2A44404  31.433  26.016   6.753
 8410POPC   C3A44405  31.483  26.032   7.053
 8410POPC   C4A44406  31.464  26.057   7.353
 8410POPC   C1B44407  31.234  26.153   6.453
 8410POPC   C2B44408  31.277  26.073   6.753
 8410POPC   C3B44409  31.212  26.123   7.053
 8410POPC   C4B44410  31.267  26.077   7.353
 8411POPC   NC344411  32.993  18.322   5.553
 8411POPC   PO444412  33.062  18.245   5.853
 8411POPC   GL144413  33.035  18.276   6.153
 8411POPC   GL244414  32.985  18.453   6.153
 8411POPC   C1A44415  33.015  18.325   6.453
 8411POPC   D2A44416  33.017  18.324   6.753
 8411POPC   C3A44417  33.051  18.281   7.053
 8411POPC   C4A44418  32.982  18.325   7.353
 8411POPC   C1B44419  32.940  18.516   6.453
 8411POPC   C2B44420  32.924  18.530   6.753
 8411POPC   C3B44421  32.937  18.511   7.053
 8411POPC   C4B44422  32.995  18.575   7.353
 8412POPC   NC344423  40.742   1.207   5.553
 8412POPC   PO444424  40.752   1.238   5.853
 8412POPC   GL144425  40.805   1.247   6.153
 8412POPC   GL244426  40.641   1.205   6.153
 8412POPC   C1A44427  40.762   1.232   6.453
 8412POPC   D2A44428  40.815   1.199   6.753
 8412POPC   C3A44429  40.754   1.215   7.053
 8412POPC   C4A44430  40.823   1.244   7.353
 8412POPC   C1B44431  40.512   1.281   6.453
 8412POPC   C2B44432  40.580   1.326   6.753
 8412POPC   C3B44433  40.514   1.253   7.053
 8412POPC   C4B44434  40.534   1.265   7.353
 8413POPC   NC344435  39.268  13.582   5.553
 8413POPC   PO444436  39.248  13.634   5.853
 8413POPC   GL144437  39.186  13.578   6.153
 8413POPC   GL244438  39.239  13.741   6.153
 8413POPC   C1A44439  39.222  13.625   6.453
 8413POPC   D2A44440  39.200  13.634   6.753
 8413POPC   C3A44441  39.187  13.613   7.053
 8413POPC   C4A44442  39.217  13.610   7.353
 8413POPC   C1B44443  39.272  13.868   6.453
 8413POPC   C2B44444  39.238  13.827   6.753
 8413POPC   C3B44445  39.273  13.891   7.053
 8413POPC   C4B44446  39.276  13.869   7.353
 8414POPC   NC344447  22.134   2.743   5.553
 8414POPC   PO444448  22.168   2.721   5.853
 8414POPC   GL144449  22.160   2.794   6.153
 8414POPC   GL244450  22.072   2.823   6.153
 8414POPC   C1A44451  22.129   2.731   6.453
 8414POPC   D2A44452  22.170   2.752   6.753
 8414POPC   C3A44453  22.166   2.775   7.053
 8414POPC   C4A44454  22.118   2.790   7.353
 8414POPC   C1B44455  22.021   2.979   6.453
 8414POPC   C2B44456  22.055   3.004   6.753
 8414POPC   C3B44457  22.013   3.013   7.053
 8414POPC   C4B44458  22.053   2.993   7.353
 8415POPC   NC344459   2.785  26.029   5.553
 8415POPC   PO444460   2.807  26.090   5.853
 8415POPC   GL144461   2.717  26.003   6.153
 8415POPC   GL244462   2.690  26.148   6.153
 8415POPC   C1A44463   2.773  26.078   6.453
 8415POPC   D2A44464   2.735  26.023   6.753
 8415POPC   C3A44465   2.798  26.073   7.053
 8415POPC   C4A44466   2.800  25.995   7.353
 8415POPC   C1B44467   2.534  26.208   6.453
 8415POPC   C2B44468   2.600  26.177   6.753
 8415POPC   C3B44469   2.578  26.215   7.053
 8415POPC   C4B44470   2.554  26.237   7.353
 8416POPC   NC344471  20.638  38.416   5.553
 8416POPC   PO444472  20.583  38.413   5.853
 8416POPC   GL144473  20.622  38.423   6.153
 8416POPC   GL244474  20.614  38.380   6.153
 8416POPC   C1A44475  20.586  38.434   6.453
 8416POPC   D2A44476  20.651  38.464   6.753
 8416POPC   C3A44477  20.628  38.470   7.053
 8416POPC   C4A44478  20.590  38.497   7.353
 8416POPC   C1B44479  20.643  38.165   6.453
 8416POPC   C2B44480  20.636  38.206   6.753
 8416POPC   C3B44481  20.702  38.189   7.053
 8416POPC   C4B44482  20.697  38.192   7.353
 8417POPC   NC344483  19.804   1.175   5.553
 8417POPC   PO444484  19.806   1.245   5.853
 8417POPC   GL144485  19.814   1.259   6.153
 8417POPC   GL244486  19.707   1.297   6.153
 8417POPC   C1A44487  19.854   1.251   6.453
 8417POPC   D2A44488  19.852   1.187   6.753
 8417POPC   C3A44489  19.841   1.243   7.053
 8417POPC   C4A44490  19.859   1.200   7.353
 8417POPC   C1B44491  19.640   1.385   6.453
 8417POPC   C2B44492  19.715   1.404   6.753
 8417POPC   C3B44493  19.708   1.437   7.053
 8417POPC   C4B44494  19.675   1.444   7.353
 8418POPC   NC344495  22.911  30.718   5.553
 8418POPC   PO444496  22.957  30.709   5.853
 8418POPC   GL144497  22.976  30.699   6.153
 8418POPC   GL244498  23.003  30.809   6.153
 8418POPC   C1A44499  22.967  30.733   6.453
 8418POPC   D2A44500  22.987  30.678   6.753
 8418POPC   C3A44501  22.962  30.714   7.053
 8418POPC   C4A44502  22.955  30.704   7.353
 8418POPC   C1B44503  23.147  30.892   6.453
 8418POPC   C2B44504  23.098  30.890   6.753
 8418POPC   C3B44505  23.122  30.843   7.053
 8418POPC   C4B44506  23.095  30.902   7.353
 8419POPC   NC344507  16.749   6.688   5.553
 8419POPC   PO444508  16.741   6.595   5.853
 8419POPC   GL144509  16.701   6.597   6.153
 8419POPC   GL244510  16.687   6.706   6.153
 8419POPC   C1A44511  16.754   6.644   6.453
 8419POPC   D2A44512  16.760   6.658   6.753
 8419POPC   C3A44513  16.751   6.666   7.053
 8419POPC   C4A44514  16.746   6.639   7.353
 8419POPC   C1B44515  16.564   6.904   6.453
 8419POPC   C2B44516  16.626   6.872   6.753
 8419POPC   C3B44517  16.618   6.823   7.053
 8419POPC   C4B44518  16.601   6.897   7.353
 8420POPC   NC344519  11.260   7.461   5.553
 8420POPC   PO444520  11.341   7.469   5.853
 8420POPC   GL144521  11.340   7.397   6.153
 8420POPC   GL244522  11.198   7.408   6.153
 8420POPC   C1A44523  11.308   7.384   6.453
 8420POPC   D2A44524  11.330   7.413   6.753
 8420POPC   C3A44525  11.298   7.454   7.053
 8420POPC   C4A44526  11.308   7.403   7.353
 8420POPC   C1B44527  11.088   7.436   6.453
 8420POPC   C2B44528  11.025   7.409   6.753
 8420POPC   C3B44529  11.008   7.435   7.053
 8420POPC   C4B44530  11.090   7.369   7.353
 8421POPC   NC344531  28.397  43.894   5.553
 8421POPC   PO444532  28.351  43.850   5.853
 8421POPC   GL144533  28.327  43.844   6.153
 8421POPC   GL244534  28.251  43.962   6.153
 8421POPC   C1A44535  28.384  43.922   6.453
 8421POPC   D2A44536  28.364  43.889   6.753
 8421POPC   C3A44537  28.320  43.915   7.053
 8421POPC   C4A44538  28.345  43.933   7.353
 8421POPC   C1B44539  28.136  44.007   6.453
 8421POPC   C2B44540  28.175  44.078   6.753
 8421POPC   C3B44541  28.168  44.085   7.053
 8421POPC   C4B44542  28.157  44.031   7.353
 8422POPC   NC344543  15.164  33.795   5.553
 8422POPC   PO444544  15.179  33.802   5.853
 8422POPC   GL144545  15.167  33.760   6.153
 8422POPC   GL244546  15.080  33.783   6.153
 8422POPC   C1A44547  15.137  33.843   6.453
 8422POPC   D2A44548  15.140  33.766   6.753
 8422POPC   C3A44549  15.218  33.828   7.053
 8422POPC   C4A44550  15.217  33.795   7.353
 8422POPC   C1B44551  14.970  33.822   6.453
 8422POPC   C2B44552  14.907  33.904   6.753
 8422POPC   C3B44553  14.896  33.864   7.053
 8422POPC   C4B44554  14.912  33.882   7.353
 8423POPC   NC344555   8.197  39.197   5.553
 8423POPC   PO444556   8.230  39.234   5.853
 8423POPC   GL144557   8.159  39.202   6.153
 8423POPC   GL244558   8.306  39.295   6.153
 8423POPC   C1A44559   8.149  39.220   6.453
 8423POPC   D2A44560   8.218  39.224   6.753
 8423POPC   C3A44561   8.186  39.255   7.053
 8423POPC   C4A44562   8.207  39.266   7.353
 8423POPC   C1B44563   8.385  39.350   6.453
 8423POPC   C2B44564   8.348  39.362   6.753
 8423POPC   C3B44565   8.339  39.394   7.053
 8423POPC   C4B44566   8.407  39.420   7.353
 8424POPC   NC344567  43.101  35.372   5.553
 8424POPC   PO444568  43.119  35.321   5.853
 8424POPC   GL144569  43.117  35.319   6.153
 8424POPC   GL244570  43.114  35.235   6.153
 8424POPC   C1A44571  43.100  35.341   6.453
 8424POPC   D2A44572  43.096  35.372   6.753
 8424POPC   C3A44573  43.148  35.400   7.053
 8424POPC   C4A44574  43.098  35.395   7.353
 8424POPC   C1B44575  43.223  35.134   6.453
 8424POPC   C2B44576  43.228  35.083   6.753
 8424POPC   C3B44577  43.246  35.098   7.053
 8424POPC   C4B44578  43.242  35.125   7.353
 8425POPC   NC344579  25.246  26.065   5.553
 8425POPC   PO444580  25.225  26.064   5.853
 8425POPC   GL144581  25.267  25.996   6.153
 8425POPC   GL244582  25.161  25.960   6.153
 8425POPC   C1A44583  25.239  26.000   6.453
 8425POPC   D2A44584  25.253  26.061   6.753
 8425POPC   C3A44585  25.234  26.086   7.053
 8425POPC   C4A44586  25.292  26.026   7.353
 8425POPC   C1B44587  25.150  25.818   6.453
 8425POPC   C2B44588  25.150  25.834   6.753
 8425POPC   C3B44589  25.074  25.825   7.053
 8425POPC   C4B44590  25.077  25.868   7.353
 8426POPC   NC344591  43.109   7.406   5.553
 8426POPC   PO444592  43.102   7.402   5.853
 8426POPC   GL144593  43.146   7.399   6.153
 8426POPC   GL244594  43.266   7.352   6.153
 8426POPC   C1A44595  43.132   7.389   6.453
 8426POPC   D2A44596  43.075   7.381   6.753
 8426POPC   C3A44597  43.134   7.429   7.053
 8426POPC   C4A44598  43.098   7.388   7.353
 8426POPC   C1B44599  43.335   7.330   6.453
 8426POPC   C2B44600  43.332   7.272   6.753
 8426POPC   C3B44601  43.357   7.270   7.053
 8426POPC   C4B44602  43.343   7.267   7.353
 8427POPC   NC344603  13.595  28.327   5.553
 8427POPC   PO444604  13.581  28.320   5.853
 8427POPC   GL144605  13.594  28.402   6.153
 8427POPC   GL244606  13.529  28.307   6.153
 8427POPC   C1A44607  13.624  28.339   6.453
 8427POPC   D2A44608  13.580  28.398   6.753
 8427POPC   C3A44609  13.654  28.416   7.053
 8427POPC   C4A44610  13.676  28.354   7.353
 8427POPC   C1B44611  13.450  28.212   6.453
 8427POPC   C2B44612  13.384  28.245   6.753
 8427POPC   C3B44613  13.432  28.263   7.053
 8427POPC   C4B44614  13.369  28.254   7.353
 8428POPC   NC344615  13.596  35.402   5.553
 8428POPC   PO444616  13.581  35.334   5.853
 8428POPC   GL144617  13.588  35.365   6.153
 8428POPC   GL244618  13.770  35.372   6.153
 8428POPC   C1A44619  13.588  35.338   6.453
 8428POPC   D2A44620  13.597  35.355   6.753
 8428POPC   C3A44621  13.605  35.327   7.053
 8428POPC   C4A44622  13.591  35.341   7.353
 8428POPC   C1B44623  13.815  35.487   6.453
 8428POPC   C2B44624  13.836  35.399   6.753
 8428POPC   C3B44625  13.846  35.411   7.053
 8428POPC   C4B44626  13.813  35.392   7.353
 8429POPC   NC344627   5.127   7.427   5.553
 8429POPC   PO444628   5.138   7.432   5.853
 8429POPC   GL144629   5.053   7.413   6.153
 8429POPC   GL244630   5.172   7.315   6.153
 8429POPC   C1A44631   5.091   7.397   6.453
 8429POPC   D2A44632   5.115   7.436   6.753
 8429POPC   C3A44633   5.101   7.374   7.053
 8429POPC   C4A44634   5.108   7.403   7.353
 8429POPC   C1B44635   5.193   7.222   6.453
 8429POPC   C2B44636   5.200   7.155   6.753
 8429POPC   C3B44637   5.142   7.184   7.053
 8429POPC   C4B44638   5.184   7.173   7.353
 8430POPC   NC344639  24.447  40.050   5.553
 8430POPC   PO444640  24.457  40.016   5.853
 8430POPC   GL144641  24.516  39.990   6.153
 8430POPC   GL244642  24.574  40.167   6.153
 8430POPC   C1A44643  24.464  40.023   6.453
 8430POPC   D2A44644  24.454  39.985   6.753
 8430POPC   C3A44645  24.497  40.029   7.053
 8430POPC   C4A44646  24.493  39.979   7.353
 8430POPC   C1B44647  24.578  40.245   6.453
 8430POPC   C2B44648  24.626  40.211   6.753
 8430POPC   C3B44649  24.631  40.229   7.053
 8430POPC   C4B44650  24.584  40.235   7.353
 8431POPC   NC344651   5.051  34.595   5.553
 8431POPC   PO444652   5.097  34.604   5.853
 8431POPC   GL144653   5.083  34.569   6.153
 8431POPC   GL244654   5.206  34.683   6.153
 8431POPC   C1A44655   5.095  34.535   6.453
 8431POPC   D2A44656   5.089  34.618   6.753
 8431POPC   C3A44657   5.102  34.617   7.053
 8431POPC   C4A44658   5.075  34.553   7.353
 8431POPC   C1B44659   5.287  34.735   6.453
 8431POPC   C2B44660   5.251  34.752   6.753
 8431POPC   C3B44661   5.258  34.707   7.053
 8431POPC   C4B44662   5.307  34.746   7.353
 8432POPC   NC344663  19.091  23.730   5.553
 8432POPC   PO444664  19.087  23.754   5.853
 8432POPC   GL144665  19.059  23.694   6.153
 8432POPC   GL244666  19.025  23.869   6.153
 8432POPC   C1A44667  19.077  23.686   6.453
 8432POPC   D2A44668  19.053  23.697   6.753
 8432POPC   C3A44669  19.014  23.714   7.053
 8432POPC   C4A44670  19.066  23.690   7.353
 8432POPC   C1B44671  18.958  23.998   6.453
 8432POPC   C2B44672  18.935  23.964   6.753
 8432POPC   C3B44673  18.978  23.948   7.053
 8432POPC   C4B44674  18.968  23.910   7.353
 8433POPC   NC344675  20.625  16.756   5.553
 8433POPC   PO444676  20.563  16.756   5.853
 8433POPC   GL144677  20.588  16.739   6.153
 8433POPC   GL244678  20.672  16.624   6.153
 8433POPC   C1A44679  20.648  16.723   6.453
 8433POPC   D2A44680  20.631  16.767   6.753
 8433POPC   C3A44681  20.574  16.747   7.053
 8433POPC   C4A44682  20.647  16.717   7.353
 8433POPC   C1B44683  20.645  16.526   6.453
 8433POPC   C2B44684  20.689  16.486   6.753
 8433POPC   C3B44685  20.676  16.463   7.053
 8433POPC   C4B44686  20.686  16.454   7.353
 8434POPC   NC344687   2.792  41.572   5.553
 8434POPC   PO444688   2.740  41.534   5.853
 8434POPC   GL144689   2.770  41.609   6.153
 8434POPC   GL244690   2.711  41.726   6.153
 8434POPC   C1A44691   2.745  41.532   6.453
 8434POPC   D2A44692   2.783  41.592   6.753
 8434POPC   C3A44693   2.797  41.572   7.053
 8434POPC   C4A44694   2.735  41.510   7.353
 8434POPC   C1B44695   2.732  41.804   6.453
 8434POPC   C2B44696   2.674  41.797   6.753
 8434POPC   C3B44697   2.674  41.847   7.053
 8434POPC   C4B44698   2.765  41.774   7.353
 8435POPC   NC344699   6.626  22.194   5.553
 8435POPC   PO444700   6.595  22.174   5.853
 8435POPC   GL144701   6.612  22.126   6.153
 8435POPC   GL244702   6.671  22.270   6.153
 8435POPC   C1A44703   6.662  22.184   6.453
 8435POPC   D2A44704   6.617  22.199   6.753
 8435POPC   C3A44705   6.694  22.167   7.053
 8435POPC   C4A44706   6.640  22.144   7.353
 8435POPC   C1B44707   6.812  22.337   6.453
 8435POPC   C2B44708   6.745  22.352   6.753
 8435POPC   C3B44709   6.779  22.343   7.053
 8435POPC   C4B44710   6.785  22.350   7.353
 8436POPC   NC344711  28.391  43.154   5.553
 8436POPC   PO444712  28.331  43.077   5.853
 8436POPC   GL144713  28.367  43.127   6.153
 8436POPC   GL244714  28.463  42.983   6.153
 8436POPC   C1A44715  28.331  43.150   6.453
 8436POPC   D2A44716  28.363  43.142   6.753
 8436POPC   C3A44717  28.350  43.068   7.053
 8436POPC   C4A44718  28.323  43.072   7.353
 8436POPC   C1B44719  28.458  42.908   6.453
 8436POPC   C2B44720  28.516  42.882   6.753
 8436POPC   C3B44721  28.512  42.863   7.053
 8436POPC   C4B44722  28.495  42.864   7.353
 8437POPC   NC344723  35.305  31.470   5.553
 8437POPC   PO444724  35.369  31.453   5.853
 8437POPC   GL144725  35.313  31.432   6.153
 8437POPC   GL244726  35.368  31.592   6.153
 8437POPC   C1A44727  35.383  31.445   6.453
 8437POPC   D2A44728  35.352  31.435   6.753
 8437POPC   C3A44729  35.330  31.477   7.053
 8437POPC   C4A44730  35.388  31.486   7.353
 8437POPC   C1B44731  35.428  31.691   6.453
 8437POPC   C2B44732  35.393  31.752   6.753
 8437POPC   C3B44733  35.416  31.708   7.053
 8437POPC   C4B44734  35.401  31.743   7.353
 8438POPC   NC344735  39.985   3.510   5.553
 8438POPC   PO444736  40.009   3.568   5.853
 8438POPC   GL144737  40.001   3.511   6.153
 8438POPC   GL244738  39.934   3.577   6.153
 8438POPC   C1A44739  39.983   3.535   6.453
 8438POPC   D2A44740  40.002   3.512   6.753
 8438POPC   C3A44741  39.998   3.570   7.053
 8438POPC   C4A44742  40.049   3.510   7.353
 8438POPC   C1B44743  39.874   3.662   6.453
 8438POPC   C2B44744  39.784   3.671   6.753
 8438POPC   C3B44745  39.792   3.727   7.053
 8438POPC   C4B44746  39.852   3.670   7.353
 8439POPC   NC344747   8.211   7.378   5.553
 8439POPC   PO444748   8.246   7.442   5.853
 8439POPC   GL144749   8.156   7.439   6.153
 8439POPC   GL244750   8.283   7.532   6.153
 8439POPC   C1A44751   8.229   7.431   6.453
 8439POPC   D2A44752   8.197   7.462   6.753
 8439POPC   C3A44753   8.212   7.407   7.053
 8439POPC   C4A44754   8.173   7.430   7.353
 8439POPC   C1B44755   8.436   7.584   6.453
 8439POPC   C2B44756   8.430   7.588   6.753
 8439POPC   C3B44757   8.436   7.590   7.053
 8439POPC   C4B44758   8.414   7.570   7.353
 8440POPC   NC344759  29.095  18.269   5.553
 8440POPC   PO444760  29.123  18.278   5.853
 8440POPC   GL144761  29.097  18.318   6.153
 8440POPC   GL244762  29.071  18.187   6.153
 8440POPC   C1A44763  29.152  18.251   6.453
 8440POPC   D2A44764  29.173  18.327   6.753
 8440POPC   C3A44765  29.189  18.283   7.053
 8440POPC   C4A44766  29.186  18.263   7.353
 8440POPC   C1B44767  28.967  18.087   6.453
 8440POPC   C2B44768  28.964  18.062   6.753
 8440POPC   C3B44769  28.953  18.106   7.053
 8440POPC   C4B44770  28.991  18.080   7.353
 8441POPC   NC344771  44.669  39.270   5.553
 8441POPC   PO444772  44.614  39.273   5.853
 8441POPC   GL144773  44.615  39.222   6.153
 8441POPC   GL244774  44.699  39.361   6.153
 8441POPC   C1A44775  44.621  39.241   6.453
 8441POPC   D2A44776  44.696  39.204   6.753
 8441POPC   C3A44777  44.698  39.264   7.053
 8441POPC   C4A44778  44.662  39.198   7.353
 8441POPC   C1B44779  44.677  39.512   6.453
 8441POPC   C2B44780  44.683  39.455   6.753
 8441POPC   C3B44781  44.694  39.529   7.053
 8441POPC   C4B44782  44.624  39.462   7.353
 8442POPC   NC344783  22.973  22.168   5.553
 8442POPC   PO444784  22.902  22.131   5.853
 8442POPC   GL144785  22.898  22.177   6.153
 8442POPC   GL244786  23.033  22.222   6.153
 8442POPC   C1A44787  22.976  22.199   6.453
 8442POPC   D2A44788  22.905  22.116   6.753
 8442POPC   C3A44789  22.903  22.124   7.053
 8442POPC   C4A44790  22.922  22.178   7.353
 8442POPC   C1B44791  23.086  22.373   6.453
 8442POPC   C2B44792  23.106  22.387   6.753
 8442POPC   C3B44793  23.047  22.334   7.053
 8442POPC   C4B44794  23.089  22.385   7.353
 8443POPC   NC344795   4.362  25.244   5.553
 8443POPC   PO444796   4.271  25.262   5.853
 8443POPC   GL144797   4.285  25.236   6.153
 8443POPC   GL244798   4.393  25.146   6.153
 8443POPC   C1A44799   4.331  25.281   6.453
 8443POPC   D2A44800   4.342  25.314   6.753
 8443POPC   C3A44801   4.322  25.273   7.053
 8443POPC   C4A44802   4.317  25.305   7.353
 8443POPC   C1B44803   4.505  25.086   6.453
 8443POPC   C2B44804   4.515  25.053   6.753
 8443POPC   C3B44805   4.521  25.121   7.053
 8443POPC   C4B44806   4.464  25.040   7.353
 8444POPC   NC344807   5.899   5.123   5.553
 8444POPC   PO444808   5.884   5.123   5.853
 8444POPC   GL144809   5.860   5.067   6.153
 8444POPC   GL244810   5.847   5.018   6.153
 8444POPC   C1A44811   5.896   5.139   6.453
 8444POPC   D2A44812   5.825   5.084   6.753
 8444POPC   C3A44813   5.843   5.139   7.053
 8444POPC   C4A44814   5.882   5.055   7.353
 8444POPC   C1B44815   5.818   4.872   6.453
 8444POPC   C2B44816   5.843   4.796   6.753
 8444POPC   C3B44817   5.884   4.811   7.053
 8444POPC   C4B44818   5.834   4.818   7.353
 8445POPC   NC344819  29.931   6.602   5.553
 8445POPC   PO444820  29.895   6.649   5.853
 8445POPC   GL144821  29.897   6.602   6.153
 8445POPC   GL244822  29.963   6.807   6.153
 8445POPC   C1A44823  29.880   6.680   6.453
 8445POPC   D2A44824  29.893   6.628   6.753
 8445POPC   C3A44825  29.873   6.599   7.053
 8445POPC   C4A44826  29.924   6.632   7.353
 8445POPC   C1B44827  29.961   6.853   6.453
 8445POPC   C2B44828  29.897   6.933   6.753
 8445POPC   C3B44829  29.994   6.868   7.053
 8445POPC   C4B44830  29.948   6.921   7.353
 8446POPC   NC344831  26.771  15.960   5.553
 8446POPC   PO444832  26.800  15.951   5.853
 8446POPC   GL144833  26.834  15.970   6.153
 8446POPC   GL244834  26.805  16.103   6.153
 8446POPC   C1A44835  26.850  15.928   6.453
 8446POPC   D2A44836  26.789  15.974   6.753
 8446POPC   C3A44837  26.809  15.957   7.053
 8446POPC   C4A44838  26.777  15.947   7.353
 8446POPC   C1B44839  26.769  16.225   6.453
 8446POPC   C2B44840  26.731  16.233   6.753
 8446POPC   C3B44841  26.744  16.237   7.053
 8446POPC   C4B44842  26.748  16.151   7.353
 8447POPC   NC344843   4.268  43.841   5.553
 8447POPC   PO444844   4.366  43.889   5.853
 8447POPC   GL144845   4.286  43.840   6.153
 8447POPC   GL244846   4.450  43.940   6.153
 8447POPC   C1A44847   4.305  43.842   6.453
 8447POPC   D2A44848   4.345  43.850   6.753
 8447POPC   C3A44849   4.322  43.904   7.053
 8447POPC   C4A44850   4.267  43.930   7.353
 8447POPC   C1B44851   4.586  43.962   6.453
 8447POPC   C2B44852   4.577  43.927   6.753
 8447POPC   C3B44853   4.536  43.986   7.053
 8447POPC   C4B44854   4.598  43.931   7.353
 8448POPC   NC344855  11.284  28.397   5.553
 8448POPC   PO444856  11.283  28.349   5.853
 8448POPC   GL144857  11.291  28.413   6.153
 8448POPC   GL244858  11.323  28.493   6.153
 8448POPC   C1A44859  11.300  28.407   6.453
 8448POPC   D2A44860  11.293  28.326   6.753
 8448POPC   C3A44861  11.305  28.360   7.053
 8448POPC   C4A44862  11.344  28.401   7.353
 8448POPC   C1B44863  11.345  28.636   6.453
 8448POPC   C2B44864  11.281  28.622   6.753
 8448POPC   C3B44865  11.297  28.626   7.053
 8448POPC   C4B44866  11.314  28.587   7.353
 8449POPC   NC344867  14.369  35.375   5.553
 8449POPC   PO444868  14.396  35.311   5.853
 8449POPC   GL144869  14.444  35.353   6.153
 8449POPC   GL244870  14.346  35.294   6.153
 8449POPC   C1A44871  14.407  35.332   6.453
 8449POPC   D2A44872  14.364  35.307   6.753
 8449POPC   C3A44873  14.380  35.370   7.053
 8449POPC   C4A44874  14.428  35.384   7.353
 8449POPC   C1B44875  14.250  35.125   6.453
 8449POPC   C2B44876  14.200  35.162   6.753
 8449POPC   C3B44877  14.239  35.203   7.053
 8449POPC   C4B44878  14.198  35.128   7.353
 8450POPC   NC344879  13.591   8.192   5.553
 8450POPC   PO444880  13.593   8.174   5.853
 8450POPC   GL144881  13.595   8.150   6.153
 8450POPC   GL244882  13.713   8.257   6.153
 8450POPC   C1A44883  13.609   8.213   6.453
 8450POPC   D2A44884  13.619   8.203   6.753
 8450POPC   C3A44885  13.639   8.167   7.053
 8450POPC   C4A44886  13.635   8.197   7.353
 8450POPC   C1B44887  13.772   8.428   6.453
 8450POPC   C2B44888  13.829   8.368   6.753
 8450POPC   C3B44889  13.799   8.374   7.053
 8450POPC   C4B44890  13.752   8.352   7.353
 8451POPC   NC344891  20.654  19.039   5.553
 8451POPC   PO444892  20.623  19.097   5.853
 8451POPC   GL144893  20.609  19.087   6.153
 8451POPC   GL244894  20.467  19.015   6.153
 8451POPC   C1A44895  20.605  19.095   6.453
 8451POPC   D2A44896  20.633  19.025   6.753
 8451POPC   C3A44897  20.618  19.066   7.053
 8451POPC   C4A44898  20.640  19.074   7.353
 8451POPC   C1B44899  20.348  18.979   6.453
 8451POPC   C2B44900  20.325  19.058   6.753
 8451POPC   C3B44901  20.359  19.005   7.053
 8451POPC   C4B44902  20.406  19.006   7.353
 8452POPC   NC344903  16.714  36.892   5.553
 8452POPC   PO444904  16.705  36.888   5.853
 8452POPC   GL144905  16.697  36.920   6.153
 8452POPC   GL244906  16.652  36.878   6.153
 8452POPC   C1A44907  16.682  36.933   6.453
 8452POPC   D2A44908  16.701  36.864   6.753
 8452POPC   C3A44909  16.780  36.911   7.053
 8452POPC   C4A44910  16.774  36.883   7.353
 8452POPC   C1B44911  16.493  36.764   6.453
 8452POPC   C2B44912  16.467  36.783   6.753
 8452POPC   C3B44913  16.507  36.801   7.053
 8452POPC   C4B44914  16.556  36.746   7.353
 8453POPC   NC344915  19.849  38.481   5.553
 8453POPC   PO444916  19.811  38.458   5.853
 8453POPC   GL144917  19.822  38.446   6.153
 8453POPC   GL244918  19.903  38.317   6.153
 8453POPC   C1A44919  19.869  38.490   6.453
 8453POPC   D2A44920  19.853  38.487   6.753
 8453POPC   C3A44921  19.860  38.452   7.053
 8453POPC   C4A44922  19.864  38.451   7.353
 8453POPC   C1B44923  19.993  38.191   6.453
 8453POPC   C2B44924  19.953  38.269   6.753
 8453POPC   C3B44925  19.960  38.227   7.053
 8453POPC   C4B44926  19.939  38.209   7.353
 8454POPC   NC344927  12.870  29.940   5.553
 8454POPC   PO444928  12.879  29.970   5.853
 8454POPC   GL144929  12.879  29.890   6.153
 8454POPC   GL244930  12.819  30.036   6.153
 8454POPC   C1A44931  12.805  29.965   6.453
 8454POPC   D2A44932  12.835  29.883   6.753
 8454POPC   C3A44933  12.897  29.923   7.053
 8454POPC   C4A44934  12.891  29.947   7.353
 8454POPC   C1B44935  12.701  30.135   6.453
 8454POPC   C2B44936  12.770  30.181   6.753
 8454POPC   C3B44937  12.756  30.105   7.053
 8454POPC   C4B44938  12.741  30.183   7.353
 8455POPC   NC344939  44.669  18.326   5.553
 8455POPC   PO444940  44.668  18.268   5.853
 8455POPC   GL144941  44.660  18.320   6.153
 8455POPC   GL244942  44.587  18.408   6.153
 8455POPC   C1A44943  44.616  18.279   6.453
 8455POPC   D2A44944  44.650  18.319   6.753
 8455POPC   C3A44945  44.649  18.237   7.053
 8455POPC   C4A44946  44.622  18.318   7.353
 8455POPC   C1B44947  44.611  18.557   6.453
 8455POPC   C2B44948  44.565  18.520   6.753
 8455POPC   C3B44949  44.560  18.476   7.053
 8455POPC   C4B44950  44.610  18.476   7.353
 8456POPC   NC344951   3.547  38.486   5.553
 8456POPC   PO444952   3.553  38.502   5.853
 8456POPC   GL144953   3.493  38.417   6.153
 8456POPC   GL244954   3.654  38.335   6.153
 8456POPC   C1A44955   3.518  38.466   6.453
 8456POPC   D2A44956   3.580  38.411   6.753
 8456POPC   C3A44957   3.585  38.478   7.053
 8456POPC   C4A44958   3.561  38.480   7.353
 8456POPC   C1B44959   3.668  38.258   6.453
 8456POPC   C2B44960   3.701  38.277   6.753
 8456POPC   C3B44961   3.684  38.199   7.053
 8456POPC   C4B44962   3.672  38.290   7.353
 8457POPC   NC344963  19.795  22.925   5.553
 8457POPC   PO444964  19.838  22.925   5.853
 8457POPC   GL144965  19.808  22.923   6.153
 8457POPC   GL244966  19.687  22.813   6.153
 8457POPC   C1A44967  19.795  22.977   6.453
 8457POPC   D2A44968  19.827  22.893   6.753
 8457POPC   C3A44969  19.870  22.919   7.053
 8457POPC   C4A44970  19.878  22.917   7.353
 8457POPC   C1B44971  19.641  22.773   6.453
 8457POPC   C2B44972  19.646  22.756   6.753
 8457POPC   C3B44973  19.620  22.780   7.053
 8457POPC   C4B44974  19.673  22.827   7.353
 8458POPC   NC344975   0.451  26.771   5.553
 8458POPC   PO444976   0.454  26.800   5.853
 8458POPC   GL144977   0.461  26.785   6.153
 8458POPC   GL244978   0.498  26.779   6.153
 8458POPC   C1A44979   0.410  26.803   6.453
 8458POPC   D2A44980   0.447  26.825   6.753
 8458POPC   C3A44981   0.464  26.809   7.053
 8458POPC   C4A44982   0.409  26.863   7.353
 8458POPC   C1B44983   0.613  26.643   6.453
 8458POPC   C2B44984   0.679  26.694   6.753
 8458POPC   C3B44985   0.695  26.662   7.053
 8458POPC   C4B44986   0.683  26.659   7.353
 8459POPC   NC344987   5.868  26.864   5.553
 8459POPC   PO444988   5.894  26.858   5.853
 8459POPC   GL144989   5.873  26.787   6.153
 8459POPC   GL244990   5.808  26.975   6.153
 8459POPC   C1A44991   5.831  26.818   6.453
 8459POPC   D2A44992   5.821  26.830   6.753
 8459POPC   C3A44993   5.855  26.861   7.053
 8459POPC   C4A44994   5.871  26.784   7.353
 8459POPC   C1B44995   5.820  27.011   6.453
 8459POPC   C2B44996   5.784  27.038   6.753
 8459POPC   C3B44997   5.775  27.015   7.053
 8459POPC   C4B44998   5.770  27.083   7.353
 8460POPC   NC344999  15.965  19.847   5.553
 8460POPC   PO445000  15.916  19.809   5.853
 8460POPC   GL145001  15.926  19.822   6.153
 8460POPC   GL245002  15.831  19.914   6.153
 8460POPC   C1A45003  15.907  19.823   6.453
 8460POPC   D2A45004  15.916  19.797   6.753
 8460POPC   C3A45005  15.906  19.788   7.053
 8460POPC   C4A45006  15.924  19.801   7.353
 8460POPC   C1B45007  15.791  20.055   6.453
 8460POPC   C2B45008  15.755  20.009   6.753
 8460POPC   C3B45009  15.763  20.034   7.053
 8460POPC   C4B45010  15.768  20.017   7.353
 8461POPC   NC345011  14.409  34.556   5.553
 8461POPC   PO445012  14.359  34.596   5.853
 8461POPC   GL145013  14.425  34.607   6.153
 8461POPC   GL245014  14.518  34.688   6.153
 8461POPC   C1A45015  14.391  34.573   6.453
 8461POPC   D2A45016  14.368  34.543   6.753
 8461POPC   C3A45017  14.386  34.620   7.053
 8461POPC   C4A45018  14.406  34.543   7.353
 8461POPC   C1B45019  14.592  34.827   6.453
 8461POPC   C2B45020  14.588  34.753   6.753
 8461POPC   C3B45021  14.549  34.749   7.053
 8461POPC   C4B45022  14.588  34.812   7.353
 8462POPC   NC345023  43.902  17.533   5.553
 8462POPC   PO445024  43.878  17.479   5.853
 8462POPC   GL145025  43.884  17.548   6.153
 8462POPC   GL245026  43.744  17.611   6.153
 8462POPC   C1A45027  43.876  17.506   6.453
 8462POPC   D2A45028  43.892  17.530   6.753
 8462POPC   C3A45029  43.875  17.547   7.053
 8462POPC   C4A45030  43.861  17.554   7.353
 8462POPC   C1B45031  43.648  17.656   6.453
 8462POPC   C2B45032  43.694  17.641   6.753
 8462POPC   C3B45033  43.682  17.640   7.053
 8462POPC   C4B45034  43.648  17.684   7.353
 8463POPC   NC345035  16.761  41.566   5.553
 8463POPC   PO445036  16.748  41.608   5.853
 8463POPC   GL145037  16.722  41.605   6.153
 8463POPC   GL245038  16.675  41.723   6.153
 8463POPC   C1A45039  16.760  41.529   6.453
 8463POPC   D2A45040  16.696  41.550   6.753
 8463POPC   C3A45041  16.721  41.556   7.053
 8463POPC   C4A45042  16.732  41.604   7.353
 8463POPC   C1B45043  16.722  41.819   6.453
 8463POPC   C2B45044  16.707  41.840   6.753
 8463POPC   C3B45045  16.730  41.775   7.053
 8463POPC   C4B45046  16.642  41.835   7.353
 8464POPC   NC345047  37.658  23.688   5.553
 8464POPC   PO445048  37.646  23.757   5.853
 8464POPC   GL145049  37.708  23.687   6.153
 8464POPC   GL245050  37.766  23.745   6.153
 8464POPC   C1A45051  37.700  23.741   6.453
 8464POPC   D2A45052  37.692  23.741   6.753
 8464POPC   C3A45053  37.658  23.748   7.053
 8464POPC   C4A45054  37.726  23.724   7.353
 8464POPC   C1B45055  37.976  23.697   6.453
 8464POPC   C2B45056  37.909  23.695   6.753
 8464POPC   C3B45057  37.971  23.688   7.053
 8464POPC   C4B45058  37.935  23.649   7.353
 8465POPC   NC345059  21.379  28.346   5.553
 8465POPC   PO445060  21.400  28.327   5.853
 8465POPC   GL145061  21.424  28.412   6.153
 8465POPC   GL245062  21.520  28.404   6.153
 8465POPC   C1A45063  21.390  28.320   6.453
 8465POPC   D2A45064  21.403  28.354   6.753
 8465POPC   C3A45065  21.400  28.337   7.053
 8465POPC   C4A45066  21.406  28.343   7.353
 8465POPC   C1B45067  21.588  28.367   6.453
 8465POPC   C2B45068  21.613  28.375   6.753
 8465POPC   C3B45069  21.586  28.384   7.053
 8465POPC   C4B45070  21.675  28.356   7.353
 8466POPC   NC345071  11.310  11.302   5.553
 8466POPC   PO445072  11.317  11.296   5.853
 8466POPC   GL145073  11.306  11.300   6.153
 8466POPC   GL245074  11.399  11.365   6.153
 8466POPC   C1A45075  11.290  11.349   6.453
 8466POPC   D2A45076  11.301  11.280   6.753
 8466POPC   C3A45077  11.277  11.303   7.053
 8466POPC   C4A45078  11.266  11.344   7.353
 8466POPC   C1B45079  11.382  11.540   6.453
 8466POPC   C2B45080  11.418  11.514   6.753
 8466POPC   C3B45081  11.464  11.563   7.053
 8466POPC   C4B45082  11.384  11.474   7.353
 8467POPC   NC345083  36.102  19.873   5.553
 8467POPC   PO445084  36.085  19.814   5.853
 8467POPC   GL145085  36.116  19.835   6.153
 8467POPC   GL245086  36.042  19.925   6.153
 8467POPC   C1A45087  36.118  19.825   6.453
 8467POPC   D2A45088  36.113  19.793   6.753
 8467POPC   C3A45089  36.167  19.863   7.053
 8467POPC   C4A45090  36.124  19.788   7.353
 8467POPC   C1B45091  35.876  19.957   6.453
 8467POPC   C2B45092  35.942  19.983   6.753
 8467POPC   C3B45093  35.926  19.982   7.053
 8467POPC   C4B45094  35.941  19.934   7.353
 8468POPC   NC345095  39.974   1.197   5.553
 8468POPC   PO445096  40.011   1.220   5.853
 8468POPC   GL145097  40.043   1.191   6.153
 8468POPC   GL245098  40.142   1.239   6.153
 8468POPC   C1A45099  39.988   1.228   6.453
 8468POPC   D2A45100  40.010   1.234   6.753
 8468POPC   C3A45101  39.964   1.242   7.053
 8468POPC   C4A45102  39.964   1.186   7.353
 8468POPC   C1B45103  40.246   1.202   6.453
 8468POPC   C2B45104  40.228   1.241   6.753
 8468POPC   C3B45105  40.225   1.262   7.053
 8468POPC   C4B45106  40.217   1.218   7.353
 8469POPC   NC345107  14.373  24.506   5.553
 8469POPC   PO445108  14.439  24.484   5.853
 8469POPC   GL145109  14.426  24.512   6.153
 8469POPC   GL245110  14.542  24.540   6.153
 8469POPC   C1A45111  14.385  24.501   6.453
 8469POPC   D2A45112  14.444  24.474   6.753
 8469POPC   C3A45113  14.411  24.501   7.053
 8469POPC   C4A45114  14.395  24.442   7.353
 8469POPC   C1B45115  14.624  24.497   6.453
 8469POPC   C2B45116  14.622  24.480   6.753
 8469POPC   C3B45117  14.660  24.484   7.053
 8469POPC   C4B45118  14.642  24.542   7.353
 8470POPC   NC345119  37.728  15.140   5.553
 8470POPC   PO445120  37.661  15.206   5.853
 8470POPC   GL145121  37.688  15.171   6.153
 8470POPC   GL245122  37.581  15.150   6.153
 8470POPC   C1A45123  37.699  15.221   6.453
 8470POPC   D2A45124  37.726  15.177   6.753
 8470POPC   C3A45125  37.680  15.184   7.053
 8470POPC   C4A45126  37.711  15.217   7.353
 8470POPC   C1B45127  37.413  15.091   6.453
 8470POPC   C2B45128  37.404  15.137   6.753
 8470POPC   C3B45129  37.462  15.088   7.053
 8470POPC   C4B45130  37.389  15.142   7.353
 8471POPC   NC345131  25.295  14.357   5.553
 8471POPC   PO445132  25.314  14.435   5.853
 8471POPC   GL145133  25.269  14.452   6.153
 8471POPC   GL245134  25.170  14.485   6.153
 8471POPC   C1A45135  25.253  14.374   6.453
 8471POPC   D2A45136  25.240  14.408   6.753
 8471POPC   C3A45137  25.309  14.414   7.053
 8471POPC   C4A45138  25.310  14.441   7.353
 8471POPC   C1B45139  25.201  14.639   6.453
 8471POPC   C2B45140  25.210  14.641   6.753
 8471POPC   C3B45141  25.207  14.677   7.053
 8471POPC   C4B45142  25.193  14.668   7.353
 8472POPC   NC345143  40.034  27.591   5.553
 8472POPC   PO445144  39.993  27.548   5.853
 8472POPC   GL145145  39.989  27.564   6.153
 8472POPC   GL245146  40.168  27.625   6.153
 8472POPC   C1A45147  40.032  27.609   6.453
 8472POPC   D2A45148  39.976  27.622   6.753
 8472POPC   C3A45149  40.008  27.620   7.053
 8472POPC   C4A45150  40.042  27.635   7.353
 8472POPC   C1B45151  40.257  27.629   6.453
 8472POPC   C2B45152  40.226  27.716   6.753
 8472POPC   C3B45153  40.279  27.704   7.053
 8472POPC   C4B45154  40.249  27.725   7.353
 8473POPC   NC345155  18.318  17.466   5.553
 8473POPC   PO445156  18.290  17.553   5.853
 8473POPC   GL145157  18.328  17.490   6.153
 8473POPC   GL245158  18.326  17.555   6.153
 8473POPC   C1A45159  18.293  17.488   6.453
 8473POPC   D2A45160  18.267  17.531   6.753
 8473POPC   C3A45161  18.291  17.523   7.053
 8473POPC   C4A45162  18.249  17.481   7.353
 8473POPC   C1B45163  18.500  17.676   6.453
 8473POPC   C2B45164  18.477  17.695   6.753
 8473POPC   C3B45165  18.457  17.645   7.053
 8473POPC   C4B45166  18.455  17.696   7.353
 8474POPC   NC345167  36.128  26.007   5.553
 8474POPC   PO445168  36.165  26.021   5.853
 8474POPC   GL145169  36.089  26.046   6.153
 8474POPC   GL245170  36.135  25.941   6.153
 8474POPC   C1A45171  36.121  26.006   6.453
 8474POPC   D2A45172  36.090  26.050   6.753
 8474POPC   C3A45173  36.101  26.053   7.053
 8474POPC   C4A45174  36.173  26.059   7.353
 8474POPC   C1B45175  36.183  25.813   6.453
 8474POPC   C2B45176  36.158  25.824   6.753
 8474POPC   C3B45177  36.170  25.772   7.053
 8474POPC   C4B45178  36.161  25.802   7.353
 8475POPC   NC345179  26.011  19.012   5.553
 8475POPC   PO445180  25.995  19.086   5.853
 8475POPC   GL145181  26.054  19.057   6.153
 8475POPC   GL245182  26.007  19.213   6.153
 8475POPC   C1A45183  26.030  19.046   6.453
 8475POPC   D2A45184  26.052  19.056   6.753
 8475POPC   C3A45185  26.029  19.049   7.053
 8475POPC   C4A45186  25.994  19.082   7.353
 8475POPC   C1B45187  25.916  19.302   6.453
 8475POPC   C2B45188  25.912  19.273   6.753
 8475POPC   C3B45189  25.874  19.328   7.053
 8475POPC   C4B45190  25.881  19.247   7.353
 8476POPC   NC345191  20.631   5.086   5.553
 8476POPC   PO445192  20.635   5.136   5.853
 8476POPC   GL145193  20.643   5.095   6.153
 8476POPC   GL245194  20.561   5.210   6.153
 8476POPC   C1A45195  20.619   5.122   6.453
 8476POPC   D2A45196  20.601   5.124   6.753
 8476POPC   C3A45197  20.581   5.077   7.053
 8476POPC   C4A45198  20.590   5.079   7.353
 8476POPC   C1B45199  20.433   5.331   6.453
 8476POPC   C2B45200  20.455   5.251   6.753
 8476POPC   C3B45201  20.481   5.313   7.053
 8476POPC   C4B45202  20.499   5.308   7.353
 8477POPC   NC345203  15.179  23.685   5.553
 8477POPC   PO445204  15.147  23.680   5.853
 8477POPC   GL145205  15.187  23.730   6.153
 8477POPC   GL245206  15.096  23.814   6.153
 8477POPC   C1A45207  15.148  23.756   6.453
 8477POPC   D2A45208  15.155  23.672   6.753
 8477POPC   C3A45209  15.212  23.705   7.053
 8477POPC   C4A45210  15.160  23.681   7.353
 8477POPC   C1B45211  14.955  23.825   6.453
 8477POPC   C2B45212  14.921  23.876   6.753
 8477POPC   C3B45213  14.976  23.838   7.053
 8477POPC   C4B45214  14.978  23.824   7.353
 8478POPC   NC345215  16.718  22.913   5.553
 8478POPC   PO445216  16.715  22.944   5.853
 8478POPC   GL145217  16.716  22.924   6.153
 8478POPC   GL245218  16.566  22.908   6.153
 8478POPC   C1A45219  16.748  22.959   6.453
 8478POPC   D2A45220  16.721  22.924   6.753
 8478POPC   C3A45221  16.691  22.906   7.053
 8478POPC   C4A45222  16.760  22.926   7.353
 8478POPC   C1B45223  16.529  22.902   6.453
 8478POPC   C2B45224  16.540  22.869   6.753
 8478POPC   C3B45225  16.522  22.853   7.053
 8478POPC   C4B45226  16.513  22.865   7.353
 8479POPC   NC345227  17.555  33.788   5.553
 8479POPC   PO445228  17.496  33.781   5.853
 8479POPC   GL145229  17.517  33.809   6.153
 8479POPC   GL245230  17.479  33.693   6.153
 8479POPC   C1A45231  17.524  33.795   6.453
 8479POPC   D2A45232  17.522  33.806   6.753
 8479POPC   C3A45233  17.509  33.757   7.053
 8479POPC   C4A45234  17.554  33.785   7.353
 8479POPC   C1B45235  17.480  33.594   6.453
 8479POPC   C2B45236  17.477  33.531   6.753
 8479POPC   C3B45237  17.524  33.521   7.053
 8479POPC   C4B45238  17.490  33.593   7.353
 8480POPC   NC345239   8.972  43.910   5.553
 8480POPC   PO445240   9.001  43.867   5.853
 8480POPC   GL145241   9.005  43.857   6.153
 8480POPC   GL245242   8.904  43.958   6.153
 8480POPC   C1A45243   8.997  43.840   6.453
 8480POPC   D2A45244   8.998  43.845   6.753
 8480POPC   C3A45245   8.946  43.874   7.053
 8480POPC   C4A45246   9.006  43.900   7.353
 8480POPC   C1B45247   8.769  43.965   6.453
 8480POPC   C2B45248   8.771  43.997   6.753
 8480POPC   C3B45249   8.691  44.006   7.053
 8480POPC   C4B45250   8.757  43.924   7.353
 8481POPC   NC345251  20.584   2.738   5.553
 8481POPC   PO445252  20.601   2.796   5.853
 8481POPC   GL145253  20.603   2.784   6.153
 8481POPC   GL245254  20.520   2.850   6.153
 8481POPC   C1A45255  20.643   2.763   6.453
 8481POPC   D2A45256  20.658   2.802   6.753
 8481POPC   C3A45257  20.643   2.764   7.053
 8481POPC   C4A45258  20.652   2.793   7.353
 8481POPC   C1B45259  20.521   2.935   6.453
 8481POPC   C2B45260  20.503   3.016   6.753
 8481POPC   C3B45261  20.461   2.943   7.053
 8481POPC   C4B45262  20.471   3.022   7.353
 8482POPC   NC345263  12.891  30.660   5.553
 8482POPC   PO445264  12.855  30.741   5.853
 8482POPC   GL145265  12.852  30.724   6.153
 8482POPC   GL245266  12.796  30.589   6.153
 8482POPC   C1A45267  12.897  30.743   6.453
 8482POPC   D2A45268  12.860  30.727   6.753
 8482POPC   C3A45269  12.874  30.711   7.053
 8482POPC   C4A45270  12.893  30.671   7.353
 8482POPC   C1B45271  12.818  30.479   6.453
 8482POPC   C2B45272  12.808  30.458   6.753
 8482POPC   C3B45273  12.794  30.424   7.053
 8482POPC   C4B45274  12.847  30.466   7.353
 8483POPC   NC345275   0.444  27.633   5.553
 8483POPC   PO445276   0.404  27.616   5.853
 8483POPC   GL145277   0.470  27.640   6.153
 8483POPC   GL245278   0.491  27.488   6.153
 8483POPC   C1A45279   0.388  27.642   6.453
 8483POPC   D2A45280   0.409  27.597   6.753
 8483POPC   C3A45281   0.416  27.609   7.053
 8483POPC   C4A45282   0.479  27.543   7.353
 8483POPC   C1B45283   0.570  27.423   6.453
 8483POPC   C2B45284   0.613  27.428   6.753
 8483POPC   C3B45285   0.642  27.439   7.053
 8483POPC   C4B45286   0.568  27.385   7.353
 8484POPC   NC345287   1.204   7.406   5.553
 8484POPC   PO445288   1.227   7.384   5.853
 8484POPC   GL145289   1.239   7.466   6.153
 8484POPC   GL245290   1.277   7.328   6.153
 8484POPC   C1A45291   1.189   7.386   6.453
 8484POPC   D2A45292   1.210   7.458   6.753
 8484POPC   C3A45293   1.226   7.434   7.053
 8484POPC   C4A45294   1.240   7.434   7.353
 8484POPC   C1B45295   1.305   7.239   6.453
 8484POPC   C2B45296   1.343   7.159   6.753
 8484POPC   C3B45297   1.331   7.200   7.053
 8484POPC   C4B45298   1.317   7.214   7.353
 8485POPC   NC345299  28.349  31.497   5.553
 8485POPC   PO445300  28.375  31.436   5.853
 8485POPC   GL145301  28.371  31.432   6.153
 8485POPC   GL245302  28.477  31.394   6.153
 8485POPC   C1A45303  28.327  31.512   6.453
 8485POPC   D2A45304  28.360  31.464   6.753
 8485POPC   C3A45305  28.373  31.487   7.053
 8485POPC   C4A45306  28.361  31.452   7.353
 8485POPC   C1B45307  28.604  31.376   6.453
 8485POPC   C2B45308  28.606  31.355   6.753
 8485POPC   C3B45309  28.529  31.342   7.053
 8485POPC   C4B45310  28.526  31.320   7.353
 8486POPC   NC345311  34.594   1.970   5.553
 8486POPC   PO445312  34.590   2.037   5.853
 8486POPC   GL145313  34.621   2.013   6.153
 8486POPC   GL245314  34.505   1.915   6.153
 8486POPC   C1A45315  34.622   2.026   6.453
 8486POPC   D2A45316  34.552   1.973   6.753
 8486POPC   C3A45317  34.575   2.024   7.053
 8486POPC   C4A45318  34.621   1.953   7.353
 8486POPC   C1B45319  34.484   1.737   6.453
 8486POPC   C2B45320  34.490   1.715   6.753
 8486POPC   C3B45321  34.542   1.698   7.053
 8486POPC   C4B45322  34.555   1.733   7.353
 8487POPC   NC345323  26.865   8.184   5.553
 8487POPC   PO445324  26.817   8.237   5.853
 8487POPC   GL145325  26.859   8.215   6.153
 8487POPC   GL245326  26.848   8.082   6.153
 8487POPC   C1A45327  26.774   8.198   6.453
 8487POPC   D2A45328  26.772   8.233   6.753
 8487POPC   C3A45329  26.791   8.189   7.053
 8487POPC   C4A45330  26.775   8.210   7.353
 8487POPC   C1B45331  26.831   7.934   6.453
 8487POPC   C2B45332  26.774   7.899   6.753
 8487POPC   C3B45333  26.764   7.997   7.053
 8487POPC   C4B45334  26.744   7.924   7.353
 8488POPC   NC345335  43.857  12.899   5.553
 8488POPC   PO445336  43.842  12.892   5.853
 8488POPC   GL145337  43.852  12.822   6.153
 8488POPC   GL245338  43.944  12.907   6.153
 8488POPC   C1A45339  43.856  12.827   6.453
 8488POPC   D2A45340  43.859  12.892   6.753
 8488POPC   C3A45341  43.848  12.864   7.053
 8488POPC   C4A45342  43.910  12.835   7.353
 8488POPC   C1B45343  44.107  13.019   6.453
 8488POPC   C2B45344  44.132  13.014   6.753
 8488POPC   C3B45345  44.125  12.952   7.053
 8488POPC   C4B45346  44.070  12.989   7.353
 8489POPC   NC345347  40.782  39.972   5.553
 8489POPC   PO445348  40.786  39.978   5.853
 8489POPC   GL145349  40.816  39.988   6.153
 8489POPC   GL245350  40.923  40.000   6.153
 8489POPC   C1A45351  40.824  39.960   6.453
 8489POPC   D2A45352  40.811  40.055   6.753
 8489POPC   C3A45353  40.819  40.052   7.053
 8489POPC   C4A45354  40.827  40.017   7.353
 8489POPC   C1B45355  40.994  39.944   6.453
 8489POPC   C2B45356  41.048  39.994   6.753
 8489POPC   C3B45357  41.030  40.000   7.053
 8489POPC   C4B45358  40.992  40.003   7.353
 8490POPC   NC345359  20.622  20.577   5.553
 8490POPC   PO445360  20.612  20.571   5.853
 8490POPC   GL145361  20.564  20.638   6.153
 8490POPC   GL245362  20.561  20.695   6.153
 8490POPC   C1A45363  20.652  20.644   6.453
 8490POPC   D2A45364  20.619  20.600   6.753
 8490POPC   C3A45365  20.655  20.595   7.053
 8490POPC   C4A45366  20.561  20.584   7.353
 8490POPC   C1B45367  20.435  20.805   6.453
 8490POPC   C2B45368  20.439  20.774   6.753
 8490POPC   C3B45369  20.464  20.755   7.053
 8490POPC   C4B45370  20.409  20.725   7.353
 8491POPC   NC345371  29.890  39.208   5.553
 8491POPC   PO445372  29.928  39.196   5.853
 8491POPC   GL145373  29.899  39.213   6.153
 8491POPC   GL245374  29.783  39.312   6.153
 8491POPC   C1A45375  29.922  39.232   6.453
 8491POPC   D2A45376  29.883  39.191   6.753
 8491POPC   C3A45377  29.903  39.262   7.053
 8491POPC   C4A45378  29.912  39.182   7.353
 8491POPC   C1B45379  29.716  39.332   6.453
 8491POPC   C2B45380  29.705  39.335   6.753
 8491POPC   C3B45381  29.667  39.386   7.053
 8491POPC   C4B45382  29.736  39.350   7.353
 8492POPC   NC345383   0.402   5.887   5.553
 8492POPC   PO445384   0.485   5.866   5.853
 8492POPC   GL145385   0.428   5.859   6.153
 8492POPC   GL245386   0.470   5.994   6.153
 8492POPC   C1A45387   0.450   5.831   6.453
 8492POPC   D2A45388   0.451   5.842   6.753
 8492POPC   C3A45389   0.451   5.860   7.053
 8492POPC   C4A45390   0.476   5.833   7.353
 8492POPC   C1B45391   0.435   6.081   6.453
 8492POPC   C2B45392   0.473   6.114   6.753
 8492POPC   C3B45393   0.416   6.121   7.053
 8492POPC   C4B45394   0.482   6.136   7.353
 8493POPC   NC345395  43.155  12.808   5.553
 8493POPC   PO445396  43.070  12.815   5.853
 8493POPC   GL145397  43.115  12.888   6.153
 8493POPC   GL245398  43.192  12.903   6.153
 8493POPC   C1A45399  43.125  12.839   6.453
 8493POPC   D2A45400  43.096  12.859   6.753
 8493POPC   C3A45401  43.100  12.858   7.053
 8493POPC   C4A45402  43.140  12.841   7.353
 8493POPC   C1B45403  43.345  13.045   6.453
 8493POPC   C2B45404  43.342  13.051   6.753
 8493POPC   C3B45405  43.330  13.056   7.053
 8493POPC   C4B45406  43.279  13.000   7.353
 8494POPC   NC345407  41.521  26.821   5.553
 8494POPC   PO445408  41.532  26.793   5.853
 8494POPC   GL145409  41.597  26.844   6.153
 8494POPC   GL245410  41.472  26.749   6.153
 8494POPC   C1A45411  41.604  26.851   6.453
 8494POPC   D2A45412  41.554  26.845   6.753
 8494POPC   C3A45413  41.552  26.778   7.053
 8494POPC   C4A45414  41.537  26.806   7.353
 8494POPC   C1B45415  41.308  26.739   6.453
 8494POPC   C2B45416  41.366  26.755   6.753
 8494POPC   C3B45417  41.357  26.683   7.053
 8494POPC   C4B45418  41.365  26.738   7.353
 8495POPC   NC345419   2.755  29.174   5.553
 8495POPC   PO445420   2.811  29.110   5.853
 8495POPC   GL145421   2.760  29.148   6.153
 8495POPC   GL245422   2.696  29.180   6.153
 8495POPC   C1A45423   2.814  29.118   6.453
 8495POPC   D2A45424   2.718  29.179   6.753
 8495POPC   C3A45425   2.718  29.116   7.053
 8495POPC   C4A45426   2.778  29.098   7.353
 8495POPC   C1B45427   2.542  29.278   6.453
 8495POPC   C2B45428   2.598  29.253   6.753
 8495POPC   C3B45429   2.596  29.269   7.053
 8495POPC   C4B45430   2.534  29.311   7.353
 8496POPC   NC345431  25.290  24.464   5.553
 8496POPC   PO445432  25.249  24.534   5.853
 8496POPC   GL145433  25.244  24.455   6.153
 8496POPC   GL245434  25.341  24.379   6.153
 8496POPC   C1A45435  25.282  24.448   6.453
 8496POPC   D2A45436  25.266  24.490   6.753
 8496POPC   C3A45437  25.234  24.502   7.053
 8496POPC   C4A45438  25.225  24.528   7.353
 8496POPC   C1B45439  25.418  24.340   6.453
 8496POPC   C2B45440  25.465  24.313   6.753
 8496POPC   C3B45441  25.398  24.296   7.053
 8496POPC   C4B45442  25.482  24.299   7.353
 8497POPC   NC345443  41.563  25.261   5.553
 8497POPC   PO445444  41.592  25.223   5.853
 8497POPC   GL145445  41.509  25.253   6.153
 8497POPC   GL245446  41.681  25.215   6.153
 8497POPC   C1A45447  41.536  25.281   6.453
 8497POPC   D2A45448  41.599  25.246   6.753
 8497POPC   C3A45449  41.575  25.229   7.053
 8497POPC   C4A45450  41.585  25.286   7.353
 8497POPC   C1B45451  41.736  25.125   6.453
 8497POPC   C2B45452  41.727  25.105   6.753
 8497POPC   C3B45453  41.728  25.109   7.053
 8497POPC   C4B45454  41.749  25.129   7.353
 8498POPC   NC345455   7.460  24.535   5.553
 8498POPC   PO445456   7.464  24.523   5.853
 8498POPC   GL145457   7.443  24.531   6.153
 8498POPC   GL245458   7.527  24.583   6.153
 8498POPC   C1A45459   7.448  24.487   6.453
 8498POPC   D2A45460   7.433  24.527   6.753
 8498POPC   C3A45461   7.372  24.465   7.053
 8498POPC   C4A45462   7.462  24.520   7.353
 8498POPC   C1B45463   7.567  24.682   6.453
 8498POPC   C2B45464   7.592  24.684   6.753
 8498POPC   C3B45465   7.601  24.707   7.053
 8498POPC   C4B45466   7.570  24.704   7.353
 8499POPC   NC345467  30.739  19.067   5.553
 8499POPC   PO445468  30.691  19.024   5.853
 8499POPC   GL145469  30.707  19.042   6.153
 8499POPC   GL245470  30.645  18.962   6.153
 8499POPC   C1A45471  30.649  19.069   6.453
 8499POPC   D2A45472  30.713  19.096   6.753
 8499POPC   C3A45473  30.714  19.031   7.053
 8499POPC   C4A45474  30.744  19.070   7.353
 8499POPC   C1B45475  30.592  18.797   6.453
 8499POPC   C2B45476  30.616  18.796   6.753
 8499POPC   C3B45477  30.620  18.795   7.053
 8499POPC   C4B45478  30.620  18.815   7.353
 8500POPC   NC345479  12.896  27.640   5.553
 8500POPC   PO445480  12.823  27.547   5.853
 8500POPC   GL145481  12.861  27.619   6.153
 8500POPC   GL245482  12.899  27.515   6.153
 8500POPC   C1A45483  12.889  27.609   6.453
 8500POPC   D2A45484  12.844  27.606   6.753
 8500POPC   C3A45485  12.858  27.553   7.053
 8500POPC   C4A45486  12.900  27.618   7.353
 8500POPC   C1B45487  12.976  27.422   6.453
 8500POPC   C2B45488  12.954  27.435   6.753
 8500POPC   C3B45489  13.011  27.365   7.053
 8500POPC   C4B45490  13.009  27.410   7.353
 8501POPC   NC345491  34.589   9.710   5.553
 8501POPC   PO445492  34.538   9.714   5.853
 8501POPC   GL145493  34.581   9.741   6.153
 8501POPC   GL245494  34.416   9.757   6.153
 8501POPC   C1A45495  34.598   9.790   6.453
 8501POPC   D2A45496  34.625   9.780   6.753
 8501POPC   C3A45497  34.563   9.742   7.053
 8501POPC   C4A45498  34.588   9.742   7.353
 8501POPC   C1B45499  34.333   9.834   6.453
 8501POPC   C2B45500  34.287   9.840   6.753
 8501POPC   C3B45501  34.304   9.828   7.053
 8501POPC   C4B45502  34.370   9.803   7.353
 8502POPC   NC345503  22.976  33.762   5.553
 8502POPC   PO445504  22.947  33.792   5.853
 8502POPC   GL145505  22.943  33.776   6.153
 8502POPC   GL245506  22.917  33.969   6.153
 8502POPC   C1A45507  22.920  33.803   6.453
 8502POPC   D2A45508  22.897  33.796   6.753
 8502POPC   C3A45509  22.906  33.773   7.053
 8502POPC   C4A45510  22.969  33.821   7.353
 8502POPC   C1B45511  22.837  33.989   6.453
 8502POPC   C2B45512  22.871  33.998   6.753
 8502POPC   C3B45513  22.852  34.001   7.053
 8502POPC   C4B45514  22.869  34.076   7.353
 8503POPC   NC345515  16.715  37.677   5.553
 8503POPC   PO445516  16.756  37.698   5.853
 8503POPC   GL145517  16.693  37.717   6.153
 8503POPC   GL245518  16.571  37.693   6.153
 8503POPC   C1A45519  16.690  37.637   6.453
 8503POPC   D2A45520  16.724  37.635   6.753
 8503POPC   C3A45521  16.703  37.688   7.053
 8503POPC   C4A45522  16.719  37.715   7.353
 8503POPC   C1B45523  16.524  37.690   6.453
 8503POPC   C2B45524  16.487  37.616   6.753
 8503POPC   C3B45525  16.513  37.676   7.053
 8503POPC   C4B45526  16.529  37.698   7.353
 8504POPC   NC345527  43.844  30.729   5.553
 8504POPC   PO445528  43.870  30.664   5.853
 8504POPC   GL145529  43.902  30.721   6.153
 8504POPC   GL245530  43.813  30.791   6.153
 8504POPC   C1A45531  43.863  30.650   6.453
 8504POPC   D2A45532  43.914  30.671   6.753
 8504POPC   C3A45533  43.849  30.647   7.053
 8504POPC   C4A45534  43.907  30.744   7.353
 8504POPC   C1B45535  43.732  30.874   6.453
 8504POPC   C2B45536  43.692  30.896   6.753
 8504POPC   C3B45537  43.713  30.853   7.053
 8504POPC   C4B45538  43.725  30.928   7.353
 8505POPC   NC345539  33.839  44.655   5.553
 8505POPC   PO445540  33.831  44.631   5.853
 8505POPC   GL145541  33.759  44.667   6.153
 8505POPC   GL245542  33.880  44.543   6.153
 8505POPC   C1A45543  33.792  44.667   6.453
 8505POPC   D2A45544  33.815  44.705   6.753
 8505POPC   C3A45545  33.774  44.644   7.053
 8505POPC   C4A45546  33.795  44.706   7.353
 8505POPC   C1B45547  33.978  44.510   6.453
 8505POPC   C2B45548  33.950  44.518   6.753
 8505POPC   C3B45549  33.938  44.500   7.053
 8505POPC   C4B45550  33.942  44.506   7.353
 8506POPC   NC345551  12.874  15.216   5.553
 8506POPC   PO445552  12.885  15.199   5.853
 8506POPC   GL145553  12.901  15.195   6.153
 8506POPC   GL245554  12.713  15.280   6.153
 8506POPC   C1A45555  12.857  15.206   6.453
 8506POPC   D2A45556  12.813  15.198   6.753
 8506POPC   C3A45557  12.835  15.130   7.053
 8506POPC   C4A45558  12.845  15.137   7.353
 8506POPC   C1B45559  12.699  15.305   6.453
 8506POPC   C2B45560  12.627  15.363   6.753
 8506POPC   C3B45561  12.693  15.322   7.053
 8506POPC   C4B45562  12.648  15.368   7.353
 8507POPC   NC345563  33.038  33.047   5.553
 8507POPC   PO445564  32.997  33.003   5.853
 8507POPC   GL145565  32.987  33.053   6.153
 8507POPC   GL245566  33.188  32.980   6.153
 8507POPC   C1A45567  32.988  33.028   6.453
 8507POPC   D2A45568  33.017  32.976   6.753
 8507POPC   C3A45569  33.066  33.052   7.053
 8507POPC   C4A45570  33.046  33.018   7.353
 8507POPC   C1B45571  33.256  32.987   6.453
 8507POPC   C2B45572  33.217  32.909   6.753
 8507POPC   C3B45573  33.217  32.978   7.053
 8507POPC   C4B45574  33.274  32.921   7.353
 8508POPC   NC345575  15.146   6.659   5.553
 8508POPC   PO445576  15.136   6.687   5.853
 8508POPC   GL145577  15.207   6.666   6.153
 8508POPC   GL245578  15.164   6.540   6.153
 8508POPC   C1A45579  15.138   6.689   6.453
 8508POPC   D2A45580  15.172   6.690   6.753
 8508POPC   C3A45581  15.191   6.660   7.053
 8508POPC   C4A45582  15.216   6.666   7.353
 8508POPC   C1B45583  15.218   6.369   6.453
 8508POPC   C2B45584  15.208   6.357   6.753
 8508POPC   C3B45585  15.214   6.424   7.053
 8508POPC   C4B45586  15.140   6.390   7.353
 8509POPC   NC345587  26.799   9.752   5.553
 8509POPC   PO445588  26.863   9.774   5.853
 8509POPC   GL145589  26.824   9.758   6.153
 8509POPC   GL245590  26.688   9.730   6.153
 8509POPC   C1A45591  26.865   9.771   6.453
 8509POPC   D2A45592  26.772   9.732   6.753
 8509POPC   C3A45593  26.845   9.733   7.053
 8509POPC   C4A45594  26.841   9.758   7.353
 8509POPC   C1B45595  26.558   9.787   6.453
 8509POPC   C2B45596  26.544   9.857   6.753
 8509POPC   C3B45597  26.532   9.801   7.053
 8509POPC   C4B45598  26.611   9.835   7.353
 8510POPC   NC345599  34.595  33.755   5.553
 8510POPC   PO445600  34.594  33.821   5.853
 8510POPC   GL145601  34.580  33.809   6.153
 8510POPC   GL245602  34.436  33.835   6.153
 8510POPC   C1A45603  34.608  33.775   6.453
 8510POPC   D2A45604  34.546  33.754   6.753
 8510POPC   C3A45605  34.555  33.810   7.053
 8510POPC   C4A45606  34.552  33.811   7.353
 8510POPC   C1B45607  34.310  33.867   6.453
 8510POPC   C2B45608  34.277  33.857   6.753
 8510POPC   C3B45609  34.306  33.828   7.053
 8510POPC   C4B45610  34.338  33.862   7.353
 8511POPC   NC345611   4.326  39.983   5.553
 8511POPC   PO445612   4.330  40.020   5.853
 8511POPC   GL145613   4.289  40.038   6.153
 8511POPC   GL245614   4.351  40.109   6.153
 8511POPC   C1A45615   4.367  39.995   6.453
 8511POPC   D2A45616   4.296  39.980   6.753
 8511POPC   C3A45617   4.347  40.015   7.053
 8511POPC   C4A45618   4.354  40.021   7.353
 8511POPC   C1B45619   4.346  40.301   6.453
 8511POPC   C2B45620   4.294  40.296   6.753
 8511POPC   C3B45621   4.319  40.291   7.053
 8511POPC   C4B45622   4.285  40.266   7.353
 8512POPC   NC345623  43.063  26.089   5.553
 8512POPC   PO445624  43.069  26.076   5.853
 8512POPC   GL145625  43.130  26.040   6.153
 8512POPC   GL245626  43.103  25.895   6.153
 8512POPC   C1A45627  43.157  26.006   6.453
 8512POPC   D2A45628  43.101  26.052   6.753
 8512POPC   C3A45629  43.119  26.006   7.053
 8512POPC   C4A45630  43.093  25.993   7.353
 8512POPC   C1B45631  43.004  25.809   6.453
 8512POPC   C2B45632  43.024  25.845   6.753
 8512POPC   C3B45633  43.054  25.801   7.053
 8512POPC   C4B45634  43.063  25.766   7.353
 8513POPC   NC345635  29.909  40.011   5.553
 8513POPC   PO445636  29.911  40.009   5.853
 8513POPC   GL145637  29.872  39.976   6.153
 8513POPC   GL245638  29.958  40.118   6.153
 8513POPC   C1A45639  29.932  40.009   6.453
 8513POPC   D2A45640  29.891  40.016   6.753
 8513POPC   C3A45641  29.940  40.037   7.053
 8513POPC   C4A45642  29.943  40.055   7.353
 8513POPC   C1B45643  29.970  40.210   6.453
 8513POPC   C2B45644  29.946  40.253   6.753
 8513POPC   C3B45645  29.944  40.209   7.053
 8513POPC   C4B45646  29.944  40.222   7.353
 8514POPC   NC345647  27.628  13.585   5.553
 8514POPC   PO445648  27.589  13.645   5.853
 8514POPC   GL145649  27.598  13.675   6.153
 8514POPC   GL245650  27.577  13.748   6.153
 8514POPC   C1A45651  27.635  13.658   6.453
 8514POPC   D2A45652  27.593  13.647   6.753
 8514POPC   C3A45653  27.597  13.621   7.053
 8514POPC   C4A45654  27.627  13.612   7.353
 8514POPC   C1B45655  27.593  13.884   6.453
 8514POPC   C2B45656  27.530  13.913   6.753
 8514POPC   C3B45657  27.532  13.865   7.053
 8514POPC   C4B45658  27.591  13.834   7.353
 8515POPC   NC345659  32.224  34.549   5.553
 8515POPC   PO445660  32.236  34.575   5.853
 8515POPC   GL145661  32.246  34.600   6.153
 8515POPC   GL245662  32.231  34.707   6.153
 8515POPC   C1A45663  32.282  34.540   6.453
 8515POPC   D2A45664  32.294  34.530   6.753
 8515POPC   C3A45665  32.254  34.591   7.053
 8515POPC   C4A45666  32.272  34.544   7.353
 8515POPC   C1B45667  32.163  34.858   6.453
 8515POPC   C2B45668  32.190  34.825   6.753
 8515POPC   C3B45669  32.239  34.848   7.053
 8515POPC   C4B45670  32.209  34.774   7.353
 8516POPC   NC345671   6.604   7.469   5.553
 8516POPC   PO445672   6.610   7.378   5.853
 8516POPC   GL145673   6.685   7.401   6.153
 8516POPC   GL245674   6.643   7.531   6.153
 8516POPC   C1A45675   6.680   7.413   6.453
 8516POPC   D2A45676   6.671   7.430   6.753
 8516POPC   C3A45677   6.692   7.459   7.053
 8516POPC   C4A45678   6.686   7.371   7.353
 8516POPC   C1B45679   6.625   7.660   6.453
 8516POPC   C2B45680   6.630   7.688   6.753
 8516POPC   C3B45681   6.555   7.649   7.053
 8516POPC   C4B45682   6.632   7.672   7.353
 8517POPC   NC345683   5.093  29.124   5.553
 8517POPC   PO445684   5.132  29.191   5.853
 8517POPC   GL145685   5.056  29.180   6.153
 8517POPC   GL245686   5.216  29.083   6.153
 8517POPC   C1A45687   5.107  29.139   6.453
 8517POPC   D2A45688   5.069  29.107   6.753
 8517POPC   C3A45689   5.108  29.172   7.053
 8517POPC   C4A45690   5.115  29.121   7.353
 8517POPC   C1B45691   5.345  29.094   6.453
 8517POPC   C2B45692   5.322  29.138   6.753
 8517POPC   C3B45693   5.389  29.133   7.053
 8517POPC   C4B45694   5.298  29.130   7.353
 8518POPC   NC345695  26.038  29.104   5.553
 8518POPC   PO445696  26.062  29.186   5.853
 8518POPC   GL145697  26.020  29.116   6.153
 8518POPC   GL245698  26.044  29.293   6.153
 8518POPC   C1A45699  25.996  29.164   6.453
 8518POPC   D2A45700  26.024  29.108   6.753
 8518POPC   C3A45701  26.029  29.111   7.053
 8518POPC   C4A45702  26.018  29.188   7.353
 8518POPC   C1B45703  25.971  29.433   6.453
 8518POPC   C2B45704  26.029  29.388   6.753
 8518POPC   C3B45705  26.011  29.361   7.053
 8518POPC   C4B45706  26.033  29.339   7.353
 8519POPC   NC345707  28.401  28.319   5.553
 8519POPC   PO445708  28.330  28.408   5.853
 8519POPC   GL145709  28.366  28.321   6.153
 8519POPC   GL245710  28.408  28.483   6.153
 8519POPC   C1A45711  28.386  28.375   6.453
 8519POPC   D2A45712  28.320  28.392   6.753
 8519POPC   C3A45713  28.361  28.417   7.053
 8519POPC   C4A45714  28.346  28.333   7.353
 8519POPC   C1B45715  28.467  28.557   6.453
 8519POPC   C2B45716  28.457  28.579   6.753
 8519POPC   C3B45717  28.497  28.589   7.053
 8519POPC   C4B45718  28.520  28.596   7.353
 8520POPC   NC345719  31.452  18.250   5.553
 8520POPC   PO445720  31.469  18.316   5.853
 8520POPC   GL145721  31.521  18.303   6.153
 8520POPC   GL245722  31.566  18.419   6.153
 8520POPC   C1A45723  31.518  18.331   6.453
 8520POPC   D2A45724  31.495  18.290   6.753
 8520POPC   C3A45725  31.503  18.323   7.053
 8520POPC   C4A45726  31.436  18.286   7.353
 8520POPC   C1B45727  31.644  18.506   6.453
 8520POPC   C2B45728  31.653  18.438   6.753
 8520POPC   C3B45729  31.613  18.445   7.053
 8520POPC   C4B45730  31.653  18.455   7.353
 8521POPC   NC345731  20.574  26.790   5.553
 8521POPC   PO445732  20.569  26.850   5.853
 8521POPC   GL145733  20.620  26.809   6.153
 8521POPC   GL245734  20.599  26.917   6.153
 8521POPC   C1A45735  20.636  26.792   6.453
 8521POPC   D2A45736  20.597  26.850   6.753
 8521POPC   C3A45737  20.578  26.854   7.053
 8521POPC   C4A45738  20.598  26.834   7.353
 8521POPC   C1B45739  20.609  27.054   6.453
 8521POPC   C2B45740  20.613  27.022   6.753
 8521POPC   C3B45741  20.570  27.086   7.053
 8521POPC   C4B45742  20.626  27.021   7.353
 8522POPC   NC345743  19.835  36.857   5.553
 8522POPC   PO445744  19.869  36.925   5.853
 8522POPC   GL145745  19.845  36.855   6.153
 8522POPC   GL245746  20.007  36.851   6.153
 8522POPC   C1A45747  19.811  36.893   6.453
 8522POPC   D2A45748  19.836  36.889   6.753
 8522POPC   C3A45749  19.841  36.936   7.053
 8522POPC   C4A45750  19.870  36.919   7.353
 8522POPC   C1B45751  20.060  36.805   6.453
 8522POPC   C2B45752  20.050  36.855   6.753
 8522POPC   C3B45753  20.096  36.820   7.053
 8522POPC   C4B45754  20.109  36.803   7.353
 8523POPC   NC345755  34.604  43.935   5.553
 8523POPC   PO445756  34.608  43.866   5.853
 8523POPC   GL145757  34.556  43.929   6.153
 8523POPC   GL245758  34.426  43.983   6.153
 8523POPC   C1A45759  34.614  43.897   6.453
 8523POPC   D2A45760  34.589  43.907   6.753
 8523POPC   C3A45761  34.625  43.894   7.053
 8523POPC   C4A45762  34.543  43.917   7.353
 8523POPC   C1B45763  34.341  44.032   6.453
 8523POPC   C2B45764  34.347  43.969   6.753
 8523POPC   C3B45765  34.391  43.948   7.053
 8523POPC   C4B45766  34.351  44.028   7.353
 8524POPC   NC345767  35.390  13.581   5.553
 8524POPC   PO445768  35.349  13.638   5.853
 8524POPC   GL145769  35.305  13.594   6.153
 8524POPC   GL245770  35.511  13.609   6.153
 8524POPC   C1A45771  35.351  13.626   6.453
 8524POPC   D2A45772  35.329  13.645   6.753
 8524POPC   C3A45773  35.333  13.607   7.053
 8524POPC   C4A45774  35.401  13.604   7.353
 8524POPC   C1B45775  35.543  13.508   6.453
 8524POPC   C2B45776  35.579  13.551   6.753
 8524POPC   C3B45777  35.549  13.561   7.053
 8524POPC   C4B45778  35.607  13.488   7.353
 8525POPC   NC345779  42.375  36.853   5.553
 8525POPC   PO445780  42.297  36.950   5.853
 8525POPC   GL145781  42.339  36.934   6.153
 8525POPC   GL245782  42.237  37.022   6.153
 8525POPC   C1A45783  42.366  36.947   6.453
 8525POPC   D2A45784  42.332  36.909   6.753
 8525POPC   C3A45785  42.331  36.864   7.053
 8525POPC   C4A45786  42.357  36.888   7.353
 8525POPC   C1B45787  42.223  37.143   6.453
 8525POPC   C2B45788  42.274  37.082   6.753
 8525POPC   C3B45789  42.224  37.138   7.053
 8525POPC   C4B45790  42.237  37.169   7.353
 8526POPC   NC345791  16.699  17.520   5.553
 8526POPC   PO445792  16.775  17.552   5.853
 8526POPC   GL145793  16.753  17.543   6.153
 8526POPC   GL245794  16.763  17.374   6.153
 8526POPC   C1A45795  16.718  17.498   6.453
 8526POPC   D2A45796  16.776  17.463   6.753
 8526POPC   C3A45797  16.733  17.481   7.053
 8526POPC   C4A45798  16.702  17.481   7.353
 8526POPC   C1B45799  16.756  17.229   6.453
 8526POPC   C2B45800  16.853  17.297   6.753
 8526POPC   C3B45801  16.790  17.244   7.053
 8526POPC   C4B45802  16.837  17.301   7.353
 8527POPC   NC345803   5.082  10.554   5.553
 8527POPC   PO445804   5.089  10.551   5.853
 8527POPC   GL145805   5.124  10.544   6.153
 8527POPC   GL245806   5.244  10.554   6.153
 8527POPC   C1A45807   5.127  10.475   6.453
 8527POPC   D2A45808   5.057  10.545   6.753
 8527POPC   C3A45809   5.119  10.489   7.053
 8527POPC   C4A45810   5.111  10.559   7.353
 8527POPC   C1B45811   5.305  10.559   6.453
 8527POPC   C2B45812   5.314  10.523   6.753
 8527POPC   C3B45813   5.385  10.595   7.053
 8527POPC   C4B45814   5.299  10.550   7.353
 8528POPC   NC345815  15.149   8.231   5.553
 8528POPC   PO445816  15.189   8.168   5.853
 8528POPC   GL145817  15.136   8.184   6.153
 8528POPC   GL245818  15.098   8.170   6.153
 8528POPC   C1A45819  15.197   8.185   6.453
 8528POPC   D2A45820  15.143   8.165   6.753
 8528POPC   C3A45821  15.195   8.209   7.053
 8528POPC   C4A45822  15.141   8.162   7.353
 8528POPC   C1B45823  14.893   8.130   6.453
 8528POPC   C2B45824  14.937   8.131   6.753
 8528POPC   C3B45825  14.956   8.154   7.053
 8528POPC   C4B45826  14.929   8.088   7.353
 8529POPC   NC345827   8.984  22.175   5.553
 8529POPC   PO445828   8.960  22.135   5.853
 8529POPC   GL145829   8.993  22.187   6.153
 8529POPC   GL245830   8.940  22.066   6.153
 8529POPC   C1A45831   9.002  22.138   6.453
 8529POPC   D2A45832   8.981  22.122   6.753
 8529POPC   C3A45833   8.969  22.170   7.053
 8529POPC   C4A45834   8.969  22.202   7.353
 8529POPC   C1B45835   8.975  21.940   6.453
 8529POPC   C2B45836   8.983  21.880   6.753
 8529POPC   C3B45837   8.988  21.960   7.053
 8529POPC   C4B45838   8.972  21.915   7.353
 8530POPC   NC345839  38.462   8.935   5.553
 8530POPC   PO445840  38.492   8.950   5.853
 8530POPC   GL145841  38.427   8.981   6.153
 8530POPC   GL245842  38.373   9.077   6.153
 8530POPC   C1A45843  38.432   8.986   6.453
 8530POPC   D2A45844  38.408   8.985   6.753
 8530POPC   C3A45845  38.476   8.972   7.053
 8530POPC   C4A45846  38.429   8.944   7.353
 8530POPC   C1B45847  38.369   9.259   6.453
 8530POPC   C2B45848  38.401   9.253   6.753
 8530POPC   C3B45849  38.422   9.200   7.053
 8530POPC   C4B45850  38.429   9.234   7.353
 8531POPC   NC345851  30.657  30.649   5.553
 8531POPC   PO445852  30.721  30.713   5.853
 8531POPC   GL145853  30.663  30.682   6.153
 8531POPC   GL245854  30.634  30.617   6.153
 8531POPC   C1A45855  30.684  30.658   6.453
 8531POPC   D2A45856  30.736  30.687   6.753
 8531POPC   C3A45857  30.719  30.712   7.053
 8531POPC   C4A45858  30.741  30.733   7.353
 8531POPC   C1B45859  30.534  30.549   6.453
 8531POPC   C2B45860  30.529  30.554   6.753
 8531POPC   C3B45861  30.478  30.484   7.053
 8531POPC   C4B45862  30.499  30.538   7.353
 8532POPC   NC345863  22.183  30.663   5.553
 8532POPC   PO445864  22.170  30.731   5.853
 8532POPC   GL145865  22.121  30.650   6.153
 8532POPC   GL245866  22.054  30.671   6.153
 8532POPC   C1A45867  22.162  30.688   6.453
 8532POPC   D2A45868  22.114  30.745   6.753
 8532POPC   C3A45869  22.114  30.728   7.053
 8532POPC   C4A45870  22.149  30.691   7.353
 8532POPC   C1B45871  21.887  30.706   6.453
 8532POPC   C2B45872  21.907  30.761   6.753
 8532POPC   C3B45873  21.870  30.745   7.053
 8532POPC   C4B45874  21.887  30.751   7.353
 8533POPC   NC345875  18.328  15.184   5.553
 8533POPC   PO445876  18.287  15.176   5.853
 8533POPC   GL145877  18.294  15.155   6.153
 8533POPC   GL245878  18.172  15.184   6.153
 8533POPC   C1A45879  18.312  15.131   6.453
 8533POPC   D2A45880  18.315  15.178   6.753
 8533POPC   C3A45881  18.268  15.208   7.053
 8533POPC   C4A45882  18.321  15.211   7.353
 8533POPC   C1B45883  18.020  15.187   6.453
 8533POPC   C2B45884  18.040  15.189   6.753
 8533POPC   C3B45885  18.041  15.179   7.053
 8533POPC   C4B45886  17.993  15.251   7.353
 8534POPC   NC345887   5.887   0.482   5.553
 8534POPC   PO445888   5.885   0.419   5.853
 8534POPC   GL145889   5.907   0.419   6.153
 8534POPC   GL245890   5.868   0.282   6.153
 8534POPC   C1A45891   5.874   0.479   6.453
 8534POPC   D2A45892   5.833   0.481   6.753
 8534POPC   C3A45893   5.909   0.444   7.053
 8534POPC   C4A45894   5.900   0.450   7.353
 8534POPC   C1B45895   5.961   0.208   6.453
 8534POPC   C2B45896   5.937   0.144   6.753
 8534POPC   C3B45897   5.952   0.163   7.053
 8534POPC   C4B45898   5.899   0.241   7.353
 8535POPC   NC345899   3.526  19.073   5.553
 8535POPC   PO445900   3.502  19.089   5.853
 8535POPC   GL145901   3.588  19.029   6.153
 8535POPC   GL245902   3.448  19.124   6.153
 8535POPC   C1A45903   3.511  19.028   6.453
 8535POPC   D2A45904   3.527  19.064   6.753
 8535POPC   C3A45905   3.560  19.101   7.053
 8535POPC   C4A45906   3.525  19.048   7.353
 8535POPC   C1B45907   3.361  19.269   6.453
 8535POPC   C2B45908   3.411  19.292   6.753
 8535POPC   C3B45909   3.425  19.284   7.053
 8535POPC   C4B45910   3.384  19.248   7.353
 8536POPC   NC345911  34.536  11.341   5.553
 8536POPC   PO445912  34.606  11.339   5.853
 8536POPC   GL145913  34.573  11.341   6.153
 8536POPC   GL245914  34.483  11.377   6.153
 8536POPC   C1A45915  34.615  11.295   6.453
 8536POPC   D2A45916  34.564  11.344   6.753
 8536POPC   C3A45917  34.564  11.326   7.053
 8536POPC   C4A45918  34.543  11.330   7.353
 8536POPC   C1B45919  34.486  11.486   6.453
 8536POPC   C2B45920  34.412  11.553   6.753
 8536POPC   C3B45921  34.419  11.500   7.053
 8536POPC   C4B45922  34.475  11.535   7.353
 8537POPC   NC345923  43.902  15.975   5.553
 8537POPC   PO445924  43.841  15.953   5.853
 8537POPC   GL145925  43.867  15.947   6.153
 8537POPC   GL245926  43.805  16.048   6.153
 8537POPC   C1A45927  43.844  15.920   6.453
 8537POPC   D2A45928  43.853  15.972   6.753
 8537POPC   C3A45929  43.908  15.908   7.053
 8537POPC   C4A45930  43.846  15.927   7.353
 8537POPC   C1B45931  43.714  16.085   6.453
 8537POPC   C2B45932  43.658  16.099   6.753
 8537POPC   C3B45933  43.633  16.049   7.053
 8537POPC   C4B45934  43.707  16.050   7.353
 8538POPC   NC345935  20.572  13.591   5.553
 8538POPC   PO445936  20.584  13.678   5.853
 8538POPC   GL145937  20.655  13.665   6.153
 8538POPC   GL245938  20.570  13.766   6.153
 8538POPC   C1A45939  20.586  13.663   6.453
 8538POPC   D2A45940  20.562  13.602   6.753
 8538POPC   C3A45941  20.636  13.594   7.053
 8538POPC   C4A45942  20.608  13.639   7.353
 8538POPC   C1B45943  20.453  13.891   6.453
 8538POPC   C2B45944  20.523  13.876   6.753
 8538POPC   C3B45945  20.455  13.856   7.053
 8538POPC   C4B45946  20.499  13.837   7.353
 8539POPC   NC345947  44.630   8.213   5.553
 8539POPC   PO445948  44.615   8.225   5.853
 8539POPC   GL145949  44.661   8.218   6.153
 8539POPC   GL245950  44.556   8.237   6.153
 8539POPC   C1A45951  44.635   8.212   6.453
 8539POPC   D2A45952  44.682   8.234   6.753
 8539POPC   C3A45953  44.633   8.214   7.053
 8539POPC   C4A45954  44.645   8.230   7.353
 8539POPC   C1B45955  44.449   8.388   6.453
 8539POPC   C2B45956  44.494   8.402   6.753
 8539POPC   C3B45957  44.425   8.364   7.053
 8539POPC   C4B45958  44.426   8.403   7.353
 8540POPC   NC345959  43.904  36.892   5.553
 8540POPC   PO445960  43.915  36.937   5.853
 8540POPC   GL145961  43.918  36.906   6.153
 8540POPC   GL245962  44.006  36.809   6.153
 8540POPC   C1A45963  43.895  36.885   6.453
 8540POPC   D2A45964  43.908  36.885   6.753
 8540POPC   C3A45965  43.908  36.929   7.053
 8540POPC   C4A45966  43.867  36.857   7.353
 8540POPC   C1B45967  44.064  36.681   6.453
 8540POPC   C2B45968  44.085  36.706   6.753
 8540POPC   C3B45969  44.094  36.753   7.053
 8540POPC   C4B45970  44.106  36.753   7.353
 8541POPC   NC345971  36.167  25.305   5.553
 8541POPC   PO445972  36.158  25.237   5.853
 8541POPC   GL145973  36.105  25.274   6.153
 8541POPC   GL245974  36.197  25.346   6.153
 8541POPC   C1A45975  36.168  25.253   6.453
 8541POPC   D2A45976  36.145  25.236   6.753
 8541POPC   C3A45977  36.173  25.221   7.053
 8541POPC   C4A45978  36.084  25.219   7.353
 8541POPC   C1B45979  36.172  25.462   6.453
 8541POPC   C2B45980  36.256  25.466   6.753
 8541POPC   C3B45981  36.206  25.540   7.053
 8541POPC   C4B45982  36.266  25.533   7.353
 8542POPC   NC345983  22.174  27.634   5.553
 8542POPC   PO445984  22.120  27.642   5.853
 8542POPC   GL145985  22.128  27.607   6.153
 8542POPC   GL245986  22.275  27.558   6.153
 8542POPC   C1A45987  22.170  27.619   6.453
 8542POPC   D2A45988  22.139  27.596   6.753
 8542POPC   C3A45989  22.124  27.627   7.053
 8542POPC   C4A45990  22.168  27.601   7.353
 8542POPC   C1B45991  22.353  27.475   6.453
 8542POPC   C2B45992  22.387  27.389   6.753
 8542POPC   C3B45993  22.341  27.402   7.053
 8542POPC   C4B45994  22.337  27.429   7.353
 8543POPC   NC345995   1.251  41.552   5.553
 8543POPC   PO445996   1.225  41.561   5.853
 8543POPC   GL145997   1.184  41.549   6.153
 8543POPC   GL245998   1.157  41.723   6.153
 8543POPC   C1A45999   1.174  41.565   6.453
 8543POPC   D2A46000   1.216  41.517   6.753
 8543POPC   C3A46001   1.165  41.604   7.053
 8543POPC   C4A46002   1.232  41.591   7.353
 8543POPC   C1B46003   1.155  41.746   6.453
 8543POPC   C2B46004   1.068  41.795   6.753
 8543POPC   C3B46005   1.122  41.777   7.053
 8543POPC   C4B46006   1.075  41.743   7.353
 8544POPC   NC346007   9.757  42.346   5.553
 8544POPC   PO446008   9.790  42.327   5.853
 8544POPC   GL146009   9.779  42.337   6.153
 8544POPC   GL246010   9.860  42.224   6.153
 8544POPC   C1A46011   9.734  42.294   6.453
 8544POPC   D2A46012   9.784  42.332   6.753
 8544POPC   C3A46013   9.783  42.317   7.053
 8544POPC   C4A46014   9.756  42.351   7.353
 8544POPC   C1B46015   9.901  42.161   6.453
 8544POPC   C2B46016   9.880  42.143   6.753
 8544POPC   C3B46017   9.891  42.170   7.053
 8544POPC   C4B46018   9.833  42.134   7.353
 8545POPC   NC346019   5.838   9.745   5.553
 8545POPC   PO446020   5.863   9.773   5.853
 8545POPC   GL146021   5.906   9.702   6.153
 8545POPC   GL246022   5.757   9.701   6.153
 8545POPC   C1A46023   5.908   9.761   6.453
 8545POPC   D2A46024   5.861   9.725   6.753
 8545POPC   C3A46025   5.831   9.770   7.053
 8545POPC   C4A46026   5.876   9.706   7.353
 8545POPC   C1B46027   5.682   9.599   6.453
 8545POPC   C2B46028   5.701   9.586   6.753
 8545POPC   C3B46029   5.660   9.608   7.053
 8545POPC   C4B46030   5.619   9.561   7.353
 8546POPC   NC346031   0.487  19.090   5.553
 8546POPC   PO446032   0.394  19.091   5.853
 8546POPC   GL146033   0.446  19.014   6.153
 8546POPC   GL246034   0.542  19.143   6.153
 8546POPC   C1A46035   0.422  19.028   6.453
 8546POPC   D2A46036   0.442  19.028   6.753
 8546POPC   C3A46037   0.455  19.089   7.053
 8546POPC   C4A46038   0.455  19.045   7.353
 8546POPC   C1B46039   0.690  19.138   6.453
 8546POPC   C2B46040   0.627  19.198   6.753
 8546POPC   C3B46041   0.697  19.140   7.053
 8546POPC   C4B46042   0.666  19.127   7.353
 8547POPC   NC346043  38.418  23.690   5.553
 8547POPC   PO446044  38.488  23.706   5.853
 8547POPC   GL146045  38.493  23.715   6.153
 8547POPC   GL246046  38.424  23.620   6.153
 8547POPC   C1A46047  38.498  23.749   6.453
 8547POPC   D2A46048  38.416  23.739   6.753
 8547POPC   C3A46049  38.430  23.701   7.053
 8547POPC   C4A46050  38.438  23.680   7.353
 8547POPC   C1B46051  38.362  23.448   6.453
 8547POPC   C2B46052  38.359  23.469   6.753
 8547POPC   C3B46053  38.302  23.445   7.053
 8547POPC   C4B46054  38.303  23.518   7.353
 8548POPC   NC346055  12.094  30.674   5.553
 8548POPC   PO446056  12.036  30.739   5.853
 8548POPC   GL146057  12.084  30.730   6.153
 8548POPC   GL246058  12.183  30.698   6.153
 8548POPC   C1A46059  12.116  30.738   6.453
 8548POPC   D2A46060  12.101  30.706   6.753
 8548POPC   C3A46061  12.043  30.689   7.053
 8548POPC   C4A46062  12.034  30.704   7.353
 8548POPC   C1B46063  12.265  30.789   6.453
 8548POPC   C2B46064  12.300  30.738   6.753
 8548POPC   C3B46065  12.264  30.819   7.053
 8548POPC   C4B46066  12.356  30.803   7.353
 8549POPC   NC346067  15.935  34.596   5.553
 8549POPC   PO446068  15.975  34.539   5.853
 8549POPC   GL146069  15.951  34.560   6.153
 8549POPC   GL246070  15.900  34.441   6.153
 8549POPC   C1A46071  15.933  34.588   6.453
 8549POPC   D2A46072  15.991  34.608   6.753
 8549POPC   C3A46073  15.924  34.575   7.053
 8549POPC   C4A46074  15.986  34.621   7.353
 8549POPC   C1B46075  15.800  34.338   6.453
 8549POPC   C2B46076  15.802  34.358   6.753
 8549POPC   C3B46077  15.818  34.397   7.053
 8549POPC   C4B46078  15.796  34.395   7.353
 8550POPC   NC346079  11.330  35.302   5.553
 8550POPC   PO446080  11.276  35.323   5.853
 8550POPC   GL146081  11.326  35.336   6.153
 8550POPC   GL246082  11.232  35.423   6.153
 8550POPC   C1A46083  11.270  35.374   6.453
 8550POPC   D2A46084  11.251  35.386   6.753
 8550POPC   C3A46085  11.288  35.307   7.053
 8550POPC   C4A46086  11.331  35.388   7.353
 8550POPC   C1B46087  11.128  35.483   6.453
 8550POPC   C2B46088  11.126  35.518   6.753
 8550POPC   C3B46089  11.136  35.540   7.053
 8550POPC   C4B46090  11.148  35.469   7.353
 8551POPC   NC346091  29.115  21.368   5.553
 8551POPC   PO446092  29.151  21.385   5.853
 8551POPC   GL146093  29.110  21.416   6.153
 8551POPC   GL246094  29.155  21.316   6.153
 8551POPC   C1A46095  29.169  21.412   6.453
 8551POPC   D2A46096  29.101  21.394   6.753
 8551POPC   C3A46097  29.192  21.390   7.053
 8551POPC   C4A46098  29.105  21.435   7.353
 8551POPC   C1B46099  29.248  21.154   6.453
 8551POPC   C2B46100  29.206  21.111   6.753
 8551POPC   C3B46101  29.203  21.107   7.053
 8551POPC   C4B46102  29.242  21.121   7.353
 8552POPC   NC346103  15.945  19.093   5.553
 8552POPC   PO446104  15.948  19.109   5.853
 8552POPC   GL146105  15.914  19.066   6.153
 8552POPC   GL246106  16.018  19.146   6.153
 8552POPC   C1A46107  15.912  19.106   6.453
 8552POPC   D2A46108  15.983  19.108   6.753
 8552POPC   C3A46109  15.979  19.019   7.053
 8552POPC   C4A46110  15.918  19.099   7.353
 8552POPC   C1B46111  16.144  19.258   6.453
 8552POPC   C2B46112  16.112  19.226   6.753
 8552POPC   C3B46113  16.085  19.273   7.053
 8552POPC   C4B46114  16.087  19.203   7.353
 8553POPC   NC346115  34.532   3.583   5.553
 8553POPC   PO446116  34.575   3.517   5.853
 8553POPC   GL146117  34.570   3.574   6.153
 8553POPC   GL246118  34.649   3.544   6.153
 8553POPC   C1A46119  34.568   3.545   6.453
 8553POPC   D2A46120  34.621   3.571   6.753
 8553POPC   C3A46121  34.565   3.510   7.053
 8553POPC   C4A46122  34.591   3.581   7.353
 8553POPC   C1B46123  34.837   3.596   6.453
 8553POPC   C2B46124  34.822   3.556   6.753
 8553POPC   C3B46125  34.812   3.571   7.053
 8553POPC   C4B46126  34.810   3.603   7.353
 8554POPC   NC346127   1.214  15.916   5.553
 8554POPC   PO446128   1.221  15.928   5.853
 8554POPC   GL146129   1.228  15.958   6.153
 8554POPC   GL246130   1.203  15.849   6.153
 8554POPC   C1A46131   1.178  15.927   6.453
 8554POPC   D2A46132   1.236  15.924   6.753
 8554POPC   C3A46133   1.227  15.967   7.053
 8554POPC   C4A46134   1.166  15.948   7.353
 8554POPC   C1B46135   1.150  15.709   6.453
 8554POPC   C2B46136   1.132  15.704   6.753
 8554POPC   C3B46137   1.114  15.761   7.053
 8554POPC   C4B46138   1.095  15.677   7.353
 8555POPC   NC346139  14.366  30.664   5.553
 8555POPC   PO446140  14.358  30.727   5.853
 8555POPC   GL146141  14.373  30.720   6.153
 8555POPC   GL246142  14.562  30.750   6.153
 8555POPC   C1A46143  14.375  30.734   6.453
 8555POPC   D2A46144  14.394  30.689   6.753
 8555POPC   C3A46145  14.382  30.720   7.053
 8555POPC   C4A46146  14.372  30.661   7.353
 8555POPC   C1B46147  14.701  30.735   6.453
 8555POPC   C2B46148  14.605  30.747   6.753
 8555POPC   C3B46149  14.699  30.768   7.053
 8555POPC   C4B46150  14.660  30.722   7.353
 8556POPC   NC346151   2.028  10.555   5.553
 8556POPC   PO446152   1.996  10.485   5.853
 8556POPC   GL146153   1.983  10.500   6.153
 8556POPC   GL246154   2.161  10.552   6.153
 8556POPC   C1A46155   2.010  10.509   6.453
 8556POPC   D2A46156   1.990  10.480   6.753
 8556POPC   C3A46157   2.026  10.571   7.053
 8556POPC   C4A46158   1.977  10.497   7.353
 8556POPC   C1B46159   2.193  10.566   6.453
 8556POPC   C2B46160   2.229  10.620   6.753
 8556POPC   C3B46161   2.249  10.532   7.053
 8556POPC   C4B46162   2.187  10.589   7.353
 8557POPC   NC346163  33.801  24.498   5.553
 8557POPC   PO446164  33.785  24.459   5.853
 8557POPC   GL146165  33.790  24.512   6.153
 8557POPC   GL246166  33.864  24.417   6.153
 8557POPC   C1A46167  33.837  24.465   6.453
 8557POPC   D2A46168  33.801  24.453   6.753
 8557POPC   C3A46169  33.807  24.503   7.053
 8557POPC   C4A46170  33.760  24.531   7.353
 8557POPC   C1B46171  33.912  24.215   6.453
 8557POPC   C2B46172  33.942  24.270   6.753
 8557POPC   C3B46173  33.898  24.286   7.053
 8557POPC   C4B46174  33.871  24.276   7.353
 8558POPC   NC346175  21.386   1.241   5.553
 8558POPC   PO446176  21.397   1.219   5.853
 8558POPC   GL146177  21.376   1.187   6.153
 8558POPC   GL246178  21.528   1.158   6.153
 8558POPC   C1A46179  21.409   1.173   6.453
 8558POPC   D2A46180  21.377   1.179   6.753
 8558POPC   C3A46181  21.420   1.201   7.053
 8558POPC   C4A46182  21.373   1.239   7.353
 8558POPC   C1B46183  21.588   1.072   6.453
 8558POPC   C2B46184  21.592   1.133   6.753
 8558POPC   C3B46185  21.564   1.061   7.053
 8558POPC   C4B46186  21.591   1.134   7.353
 8559POPC   NC346187  26.023   1.244   5.553
 8559POPC   PO446188  26.000   1.175   5.853
 8559POPC   GL146189  26.036   1.179   6.153
 8559POPC   GL246190  26.156   1.102   6.153
 8559POPC   C1A46191  26.057   1.231   6.453
 8559POPC   D2A46192  26.089   1.262   6.753
 8559POPC   C3A46193  26.051   1.209   7.053
 8559POPC   C4A46194  25.992   1.186   7.353
 8559POPC   C1B46195  26.240   1.047   6.453
 8559POPC   C2B46196  26.179   1.081   6.753
 8559POPC   C3B46197  26.183   1.087   7.053
 8559POPC   C4B46198  26.190   1.016   7.353
 8560POPC   NC346199  43.857  19.883   5.553
 8560POPC   PO446200  43.878  19.881   5.853
 8560POPC   GL146201  43.883  19.812   6.153
 8560POPC   GL246202  43.752  19.735   6.153
 8560POPC   C1A46203  43.892  19.850   6.453
 8560POPC   D2A46204  43.841  19.849   6.753
 8560POPC   C3A46205  43.928  19.811   7.053
 8560POPC   C4A46206  43.886  19.880   7.353
 8560POPC   C1B46207  43.673  19.627   6.453
 8560POPC   C2B46208  43.735  19.715   6.753
 8560POPC   C3B46209  43.740  19.673   7.053
 8560POPC   C4B46210  43.706  19.682   7.353
 8561POPC   NC346211  39.233  15.939   5.553
 8561POPC   PO446212  39.185  15.950   5.853
 8561POPC   GL146213  39.205  15.959   6.153
 8561POPC   GL246214  39.122  15.943   6.153
 8561POPC   C1A46215  39.185  15.963   6.453
 8561POPC   D2A46216  39.233  15.996   6.753
 8561POPC   C3A46217  39.187  15.919   7.053
 8561POPC   C4A46218  39.195  15.949   7.353
 8561POPC   C1B46219  39.029  15.998   6.453
 8561POPC   C2B46220  39.032  15.967   6.753
 8561POPC   C3B46221  38.957  15.996   7.053
 8561POPC   C4B46222  38.944  16.054   7.353
 8562POPC   NC346223  26.831  11.333   5.553
 8562POPC   PO446224  26.859  11.289   5.853
 8562POPC   GL146225  26.845  11.273   6.153
 8562POPC   GL246226  26.756  11.434   6.153
 8562POPC   C1A46227  26.789  11.308   6.453
 8562POPC   D2A46228  26.849  11.350   6.753
 8562POPC   C3A46229  26.821  11.279   7.053
 8562POPC   C4A46230  26.865  11.334   7.353
 8562POPC   C1B46231  26.664  11.471   6.453
 8562POPC   C2B46232  26.689  11.548   6.753
 8562POPC   C3B46233  26.665  11.460   7.053
 8562POPC   C4B46234  26.674  11.520   7.353
 8563POPC   NC346235  44.626  40.750   5.553
 8563POPC   PO446236  44.648  40.784   5.853
 8563POPC   GL146237  44.652  40.752   6.153
 8563POPC   GL246238  44.771  40.844   6.153
 8563POPC   C1A46239  44.659  40.768   6.453
 8563POPC   D2A46240  44.650  40.819   6.753
 8563POPC   C3A46241  44.672  40.793   7.053
 8563POPC   C4A46242  44.647  40.735   7.353
 8563POPC   C1B46243  44.819  41.036   6.453
 8563POPC   C2B46244  44.777  40.946   6.753
 8563POPC   C3B46245  44.795  41.039   7.053
 8563POPC   C4B46246  44.757  41.015   7.353
 8564POPC   NC346247  24.508  27.596   5.553
 8564POPC   PO446248  24.489  27.548   5.853
 8564POPC   GL146249  24.473  27.569   6.153
 8564POPC   GL246250  24.513  27.450   6.153
 8564POPC   C1A46251  24.485  27.573   6.453
 8564POPC   D2A46252  24.469  27.623   6.753
 8564POPC   C3A46253  24.486  27.558   7.053
 8564POPC   C4A46254  24.537  27.623   7.353
 8564POPC   C1B46255  24.572  27.396   6.453
 8564POPC   C2B46256  24.574  27.395   6.753
 8564POPC   C3B46257  24.525  27.381   7.053
 8564POPC   C4B46258  24.604  27.330   7.353
 8565POPC   NC346259   2.786  22.162   5.553
 8565POPC   PO446260   2.745  22.166   5.853
 8565POPC   GL146261   2.725  22.136   6.153
 8565POPC   GL246262   2.674  22.126   6.153
 8565POPC   C1A46263   2.752  22.184   6.453
 8565POPC   D2A46264   2.805  22.175   6.753
 8565POPC   C3A46265   2.748  22.186   7.053
 8565POPC   C4A46266   2.811  22.206   7.353
 8565POPC   C1B46267   2.569  22.058   6.453
 8565POPC   C2B46268   2.560  22.058   6.753
 8565POPC   C3B46269   2.513  22.046   7.053
 8565POPC   C4B46270   2.576  22.020   7.353
 8566POPC   NC346271  31.497  40.822   5.553
 8566POPC   PO446272  31.466  40.830   5.853
 8566POPC   GL146273  31.463  40.794   6.153
 8566POPC   GL246274  31.330  40.671   6.153
 8566POPC   C1A46275  31.519  40.805   6.453
 8566POPC   D2A46276  31.521  40.759   6.753
 8566POPC   C3A46277  31.499  40.816   7.053
 8566POPC   C4A46278  31.510  40.767   7.353
 8566POPC   C1B46279  31.308  40.582   6.453
 8566POPC   C2B46280  31.265  40.645   6.753
 8566POPC   C3B46281  31.243  40.635   7.053
 8566POPC   C4B46282  31.317  40.616   7.353
 8567POPC   NC346283  26.071  14.391   5.553
 8567POPC   PO446284  26.014  14.406   5.853
 8567POPC   GL146285  26.080  14.368   6.153
 8567POPC   GL246286  26.186  14.363   6.153
 8567POPC   C1A46287  26.083  14.396   6.453
 8567POPC   D2A46288  26.063  14.419   6.753
 8567POPC   C3A46289  26.074  14.379   7.053
 8567POPC   C4A46290  26.086  14.447   7.353
 8567POPC   C1B46291  26.289  14.417   6.453
 8567POPC   C2B46292  26.329  14.444   6.753
 8567POPC   C3B46293  26.282  14.366   7.053
 8567POPC   C4B46294  26.281  14.351   7.353
 8568POPC   NC346295  19.812  32.976   5.553
 8568POPC   PO446296  19.852  33.011   5.853
 8568POPC   GL146297  19.882  33.029   6.153
 8568POPC   GL246298  19.679  32.993   6.153
 8568POPC   C1A46299  19.866  33.037   6.453
 8568POPC   D2A46300  19.880  33.044   6.753
 8568POPC   C3A46301  19.870  33.056   7.053
 8568POPC   C4A46302  19.803  33.011   7.353
 8568POPC   C1B46303  19.642  32.976   6.453
 8568POPC   C2B46304  19.584  32.963   6.753
 8568POPC   C3B46305  19.623  32.927   7.053
 8568POPC   C4B46306  19.577  32.933   7.353
 8569POPC   NC346307  24.463  22.198   5.553
 8569POPC   PO446308  24.463  22.151   5.853
 8569POPC   GL146309  24.520  22.188   6.153
 8569POPC   GL246310  24.650  22.179   6.153
 8569POPC   C1A46311  24.472  22.135   6.453
 8569POPC   D2A46312  24.511  22.199   6.753
 8569POPC   C3A46313  24.492  22.202   7.053
 8569POPC   C4A46314  24.458  22.122   7.353
 8569POPC   C1B46315  24.733  22.201   6.453
 8569POPC   C2B46316  24.729  22.219   6.753
 8569POPC   C3B46317  24.685  22.260   7.053
 8569POPC   C4B46318  24.731  22.190   7.353
 8570POPC   NC346319   4.324  18.321   5.553
 8570POPC   PO446320   4.306  18.276   5.853
 8570POPC   GL146321   4.313  18.259   6.153
 8570POPC   GL246322   4.297  18.184   6.153
 8570POPC   C1A46323   4.356  18.235   6.453
 8570POPC   D2A46324   4.300  18.283   6.753
 8570POPC   C3A46325   4.335  18.271   7.053
 8570POPC   C4A46326   4.307  18.321   7.353
 8570POPC   C1B46327   4.365  18.047   6.453
 8570POPC   C2B46328   4.338  18.063   6.753
 8570POPC   C3B46329   4.319  18.079   7.053
 8570POPC   C4B46330   4.348  18.065   7.353
 8571POPC   NC346331  25.277  15.173   5.553
 8571POPC   PO446332  25.272  15.218   5.853
 8571POPC   GL146333  25.244  15.138   6.153
 8571POPC   GL246334  25.215  15.124   6.153
 8571POPC   C1A46335  25.243  15.151   6.453
 8571POPC   D2A46336  25.264  15.135   6.753
 8571POPC   C3A46337  25.241  15.155   7.053
 8571POPC   C4A46338  25.223  15.209   7.353
 8571POPC   C1B46339  25.097  14.988   6.453
 8571POPC   C2B46340  25.078  15.021   6.753
 8571POPC   C3B46341  25.113  15.048   7.053
 8571POPC   C4B46342  25.095  15.018   7.353
 8572POPC   NC346343  33.815  20.600   5.553
 8572POPC   PO446344  33.758  20.631   5.853
 8572POPC   GL146345  33.815  20.571   6.153
 8572POPC   GL246346  33.832  20.446   6.153
 8572POPC   C1A46347  33.782  20.604   6.453
 8572POPC   D2A46348  33.836  20.642   6.753
 8572POPC   C3A46349  33.783  20.615   7.053
 8572POPC   C4A46350  33.754  20.626   7.353
 8572POPC   C1B46351  33.728  20.379   6.453
 8572POPC   C2B46352  33.763  20.316   6.753
 8572POPC   C3B46353  33.802  20.315   7.053
 8572POPC   C4B46354  33.732  20.329   7.353
 8573POPC   NC346355  14.441  26.042   5.553
 8573POPC   PO446356  14.365  26.048   5.853
 8573POPC   GL146357  14.370  25.994   6.153
 8573POPC   GL246358  14.317  25.924   6.153
 8573POPC   C1A46359  14.417  26.019   6.453
 8573POPC   D2A46360  14.361  26.024   6.753
 8573POPC   C3A46361  14.400  26.073   7.053
 8573POPC   C4A46362  14.364  26.072   7.353
 8573POPC   C1B46363  14.174  25.894   6.453
 8573POPC   C2B46364  14.252  25.933   6.753
 8573POPC   C3B46365  14.181  25.868   7.053
 8573POPC   C4B46366  14.243  25.844   7.353
 8574POPC   NC346367   7.379  10.565   5.553
 8574POPC   PO446368   7.427  10.487   5.853
 8574POPC   GL146369   7.393  10.506   6.153
 8574POPC   GL246370   7.427  10.647   6.153
 8574POPC   C1A46371   7.449  10.493   6.453
 8574POPC   D2A46372   7.435  10.492   6.753
 8574POPC   C3A46373   7.418  10.529   7.053
 8574POPC   C4A46374   7.376  10.553   7.353
 8574POPC   C1B46375   7.372  10.790   6.453
 8574POPC   C2B46376   7.432  10.791   6.753
 8574POPC   C3B46377   7.420  10.735   7.053
 8574POPC   C4B46378   7.362  10.779   7.353
 8575POPC   NC346379  21.417  20.655   5.553
 8575POPC   PO446380  21.381  20.619   5.853
 8575POPC   GL146381  21.342  20.606   6.153
 8575POPC   GL246382  21.481  20.508   6.153
 8575POPC   C1A46383  21.360  20.616   6.453
 8575POPC   D2A46384  21.394  20.608   6.753
 8575POPC   C3A46385  21.360  20.636   7.053
 8575POPC   C4A46386  21.382  20.596   7.353
 8575POPC   C1B46387  21.591  20.461   6.453
 8575POPC   C2B46388  21.529  20.476   6.753
 8575POPC   C3B46389  21.548  20.439   7.053
 8575POPC   C4B46390  21.614  20.450   7.353
 8576POPC   NC346391   8.928  17.556   5.553
 8576POPC   PO446392   8.945  17.529   5.853
 8576POPC   GL146393   9.011  17.527   6.153
 8576POPC   GL246394   9.083  17.489   6.153
 8576POPC   C1A46395   8.996  17.466   6.453
 8576POPC   D2A46396   8.941  17.532   6.753
 8576POPC   C3A46397   8.970  17.473   7.053
 8576POPC   C4A46398   8.935  17.546   7.353
 8576POPC   C1B46399   9.187  17.372   6.453
 8576POPC   C2B46400   9.207  17.433   6.753
 8576POPC   C3B46401   9.206  17.442   7.053
 8576POPC   C4B46402   9.251  17.419   7.353
 8577POPC   NC346403  41.526  39.978   5.553
 8577POPC   PO446404  41.543  40.045   5.853
 8577POPC   GL146405  41.582  40.037   6.153
 8577POPC   GL246406  41.550  40.078   6.153
 8577POPC   C1A46407  41.607  40.053   6.453
 8577POPC   D2A46408  41.555  40.000   6.753
 8577POPC   C3A46409  41.513  40.002   7.053
 8577POPC   C4A46410  41.554  40.004   7.353
 8577POPC   C1B46411  41.445  40.199   6.453
 8577POPC   C2B46412  41.434  40.228   6.753
 8577POPC   C3B46413  41.454  40.220   7.053
 8577POPC   C4B46414  41.487  40.237   7.353
 8578POPC   NC346415  40.750  23.742   5.553
 8578POPC   PO446416  40.820  23.693   5.853
 8578POPC   GL146417  40.749  23.674   6.153
 8578POPC   GL246418  40.772  23.835   6.153
 8578POPC   C1A46419  40.780  23.692   6.453
 8578POPC   D2A46420  40.804  23.717   6.753
 8578POPC   C3A46421  40.822  23.738   7.053
 8578POPC   C4A46422  40.761  23.751   7.353
 8578POPC   C1B46423  40.810  23.968   6.453
 8578POPC   C2B46424  40.851  23.937   6.753
 8578POPC   C3B46425  40.875  23.955   7.053
 8578POPC   C4B46426  40.872  23.942   7.353
 8579POPC   NC346427   1.234   5.894   5.553
 8579POPC   PO446428   1.216   5.880   5.853
 8579POPC   GL146429   1.205   5.856   6.153
 8579POPC   GL246430   1.259   5.762   6.153
 8579POPC   C1A46431   1.234   5.896   6.453
 8579POPC   D2A46432   1.199   5.866   6.753
 8579POPC   C3A46433   1.165   5.895   7.053
 8579POPC   C4A46434   1.195   5.844   7.353
 8579POPC   C1B46435   1.416   5.678   6.453
 8579POPC   C2B46436   1.368   5.729   6.753
 8579POPC   C3B46437   1.360   5.707   7.053
 8579POPC   C4B46438   1.445   5.721   7.353
 8580POPC   NC346439   0.468   1.972   5.553
 8580POPC   PO446440   0.468   1.983   5.853
 8580POPC   GL146441   0.389   1.949   6.153
 8580POPC   GL246442   0.330   1.884   6.153
 8580POPC   C1A46443   0.484   2.004   6.453
 8580POPC   D2A46444   0.391   1.965   6.753
 8580POPC   C3A46445   0.448   1.991   7.053
 8580POPC   C4A46446   0.455   2.034   7.353
 8580POPC   C1B46447   0.247   1.794   6.453
 8580POPC   C2B46448   0.297   1.811   6.753
 8580POPC   C3B46449   0.256   1.782   7.053
 8580POPC   C4B46450   0.332   1.777   7.353
 8581POPC   NC346451   5.077  38.465   5.553
 8581POPC   PO446452   5.103  38.461   5.853
 8581POPC   GL146453   5.094  38.439   6.153
 8581POPC   GL246454   5.069  38.603   6.153
 8581POPC   C1A46455   5.109  38.493   6.453
 8581POPC   D2A46456   5.069  38.409   6.753
 8581POPC   C3A46457   5.069  38.482   7.053
 8581POPC   C4A46458   5.094  38.418   7.353
 8581POPC   C1B46459   4.979  38.699   6.453
 8581POPC   C2B46460   5.008  38.654   6.753
 8581POPC   C3B46461   4.957  38.724   7.053
 8581POPC   C4B46462   4.969  38.677   7.353
 8582POPC   NC346463  43.107  30.741   5.553
 8582POPC   PO446464  43.099  30.701   5.853
 8582POPC   GL146465  43.087  30.717   6.153
 8582POPC   GL246466  42.966  30.744   6.153
 8582POPC   C1A46467  43.070  30.746   6.453
 8582POPC   D2A46468  43.160  30.721   6.753
 8582POPC   C3A46469  43.146  30.714   7.053
 8582POPC   C4A46470  43.122  30.714   7.353
 8582POPC   C1B46471  42.898  30.813   6.453
 8582POPC   C2B46472  42.872  30.788   6.753
 8582POPC   C3B46473  42.839  30.827   7.053
 8582POPC   C4B46474  42.907  30.741   7.353
 8583POPC   NC346475  43.876  39.277   5.553
 8583POPC   PO446476  43.917  39.226   5.853
 8583POPC   GL146477  43.934  39.253   6.153
 8583POPC   GL246478  43.934  39.159   6.153
 8583POPC   C1A46479  43.920  39.247   6.453
 8583POPC   D2A46480  43.881  39.205   6.753
 8583POPC   C3A46481  43.880  39.202   7.053
 8583POPC   C4A46482  43.837  39.212   7.353
 8583POPC   C1B46483  44.008  39.018   6.453
 8583POPC   C2B46484  44.032  39.057   6.753
 8583POPC   C3B46485  44.020  39.006   7.053
 8583POPC   C4B46486  44.003  39.021   7.353
 8584POPC   NC346487  32.223  30.663   5.553
 8584POPC   PO446488  32.296  30.696   5.853
 8584POPC   GL146489  32.213  30.649   6.153
 8584POPC   GL246490  32.304  30.842   6.153
 8584POPC   C1A46491  32.216  30.703   6.453
 8584POPC   D2A46492  32.274  30.665   6.753
 8584POPC   C3A46493  32.229  30.739   7.053
 8584POPC   C4A46494  32.264  30.673   7.353
 8584POPC   C1B46495  32.332  30.908   6.453
 8584POPC   C2B46496  32.367  30.896   6.753
 8584POPC   C3B46497  32.355  30.906   7.053
 8584POPC   C4B46498  32.383  30.945   7.353
 8585POPC   NC346499  27.581   9.005   5.553
 8585POPC   PO446500  27.607   8.931   5.853
 8585POPC   GL146501  27.605   8.997   6.153
 8585POPC   GL246502  27.556   9.057   6.153
 8585POPC   C1A46503  27.566   8.961   6.453
 8585POPC   D2A46504  27.617   9.018   6.753
 8585POPC   C3A46505  27.566   8.929   7.053
 8585POPC   C4A46506  27.594   8.972   7.353
 8585POPC   C1B46507  27.592   9.176   6.453
 8585POPC   C2B46508  27.579   9.183   6.753
 8585POPC   C3B46509  27.584   9.270   7.053
 8585POPC   C4B46510  27.598   9.200   7.353
 8586POPC   NC346511   7.387  42.296   5.553
 8586POPC   PO446512   7.397  42.322   5.853
 8586POPC   GL146513   7.421  42.286   6.153
 8586POPC   GL246514   7.530  42.285   6.153
 8586POPC   C1A46515   7.469  42.335   6.453
 8586POPC   D2A46516   7.446  42.308   6.753
 8586POPC   C3A46517   7.419  42.348   7.053
 8586POPC   C4A46518   7.419  42.295   7.353
 8586POPC   C1B46519   7.549  42.189   6.453
 8586POPC   C2B46520   7.631  42.126   6.753
 8586POPC   C3B46521   7.588  42.116   7.053
 8586POPC   C4B46522   7.594  42.196   7.353
 8587POPC   NC346523  14.415  29.966   5.553
 8587POPC   PO446524  14.431  29.934   5.853
 8587POPC   GL146525  14.430  29.926   6.153
 8587POPC   GL246526  14.532  29.955   6.153
 8587POPC   C1A46527  14.354  29.896   6.453
 8587POPC   D2A46528  14.362  29.907   6.753
 8587POPC   C3A46529  14.373  29.957   7.053
 8587POPC   C4A46530  14.386  29.950   7.353
 8587POPC   C1B46531  14.637  29.951   6.453
 8587POPC   C2B46532  14.656  29.916   6.753
 8587POPC   C3B46533  14.611  29.925   7.053
 8587POPC   C4B46534  14.608  29.893   7.353
 8588POPC   NC346535  22.156  41.511   5.553
 8588POPC   PO446536  22.150  41.509   5.853
 8588POPC   GL146537  22.149  41.561   6.153
 8588POPC   GL246538  22.249  41.485   6.153
 8588POPC   C1A46539  22.153  41.526   6.453
 8588POPC   D2A46540  22.161  41.604   6.753
 8588POPC   C3A46541  22.168  41.516   7.053
 8588POPC   C4A46542  22.210  41.563   7.353
 8588POPC   C1B46543  22.365  41.406   6.453
 8588POPC   C2B46544  22.382  41.455   6.753
 8588POPC   C3B46545  22.368  41.450   7.053
 8588POPC   C4B46546  22.376  41.412   7.353
 8589POPC   NC346547   4.361  32.261   5.553
 8589POPC   PO446548   4.298  32.296   5.853
 8589POPC   GL146549   4.280  32.215   6.153
 8589POPC   GL246550   4.374  32.372   6.153
 8589POPC   C1A46551   4.271  32.223   6.453
 8589POPC   D2A46552   4.272  32.228   6.753
 8589POPC   C3A46553   4.334  32.239   7.053
 8589POPC   C4A46554   4.332  32.297   7.353
 8589POPC   C1B46555   4.497  32.424   6.453
 8589POPC   C2B46556   4.435  32.473   6.753
 8589POPC   C3B46557   4.504  32.486   7.053
 8589POPC   C4B46558   4.459  32.420   7.353
 8590POPC   NC346559  26.042  43.851   5.553
 8590POPC   PO446560  26.082  43.928   5.853
 8590POPC   GL146561  26.077  43.871   6.153
 8590POPC   GL246562  26.134  43.806   6.153
 8590POPC   C1A46563  26.019  43.931   6.453
 8590POPC   D2A46564  26.000  43.856   6.753
 8590POPC   C3A46565  26.022  43.894   7.053
 8590POPC   C4A46566  26.079  43.859   7.353
 8590POPC   C1B46567  26.256  43.745   6.453
 8590POPC   C2B46568  26.229  43.817   6.753
 8590POPC   C3B46569  26.224  43.802   7.053
 8590POPC   C4B46570  26.232  43.803   7.353
 8591POPC   NC346571   8.971  37.707   5.553
 8591POPC   PO446572   9.022  37.712   5.853
 8591POPC   GL146573   9.022  37.632   6.153
 8591POPC   GL246574   8.997  37.594   6.153
 8591POPC   C1A46575   9.013  37.704   6.453
 8591POPC   D2A46576   8.944  37.652   6.753
 8591POPC   C3A46577   8.957  37.692   7.053
 8591POPC   C4A46578   8.999  37.651   7.353
 8591POPC   C1B46579   8.935  37.460   6.453
 8591POPC   C2B46580   8.986  37.448   6.753
 8591POPC   C3B46581   8.990  37.437   7.053
 8591POPC   C4B46582   8.958  37.406   7.353
 8592POPC   NC346583  35.310  38.431   5.553
 8592POPC   PO446584  35.380  38.451   5.853
 8592POPC   GL146585  35.389  38.491   6.153
 8592POPC   GL246586  35.362  38.357   6.153
 8592POPC   C1A46587  35.370  38.497   6.453
 8592POPC   D2A46588  35.365  38.466   6.753
 8592POPC   C3A46589  35.394  38.430   7.053
 8592POPC   C4A46590  35.313  38.417   7.353
 8592POPC   C1B46591  35.365  38.224   6.453
 8592POPC   C2B46592  35.334  38.169   6.753
 8592POPC   C3B46593  35.406  38.220   7.053
 8592POPC   C4B46594  35.407  38.174   7.353
 8593POPC   NC346595  19.098  17.484   5.553
 8593POPC   PO446596  19.042  17.502   5.853
 8593POPC   GL146597  19.065  17.512   6.153
 8593POPC   GL246598  19.126  17.429   6.153
 8593POPC   C1A46599  19.090  17.462   6.453
 8593POPC   D2A46600  19.101  17.505   6.753
 8593POPC   C3A46601  19.068  17.547   7.053
 8593POPC   C4A46602  19.050  17.462   7.353
 8593POPC   C1B46603  19.155  17.251   6.453
 8593POPC   C2B46604  19.188  17.338   6.753
 8593POPC   C3B46605  19.220  17.275   7.053
 8593POPC   C4B46606  19.217  17.279   7.353
 8594POPC   NC346607  37.689  31.472   5.553
 8594POPC   PO446608  37.649  31.466   5.853
 8594POPC   GL146609  37.713  31.489   6.153
 8594POPC   GL246610  37.635  31.340   6.153
 8594POPC   C1A46611  37.692  31.491   6.453
 8594POPC   D2A46612  37.647  31.467   6.753
 8594POPC   C3A46613  37.683  31.482   7.053
 8594POPC   C4A46614  37.669  31.499   7.353
 8594POPC   C1B46615  37.491  31.241   6.453
 8594POPC   C2B46616  37.536  31.246   6.753
 8594POPC   C3B46617  37.555  31.296   7.053
 8594POPC   C4B46618  37.470  31.336   7.353
 8595POPC   NC346619  43.934  19.056   5.553
 8595POPC   PO446620  43.872  19.072   5.853
 8595POPC   GL146621  43.894  19.050   6.153
 8595POPC   GL246622  43.897  18.891   6.153
 8595POPC   C1A46623  43.867  19.098   6.453
 8595POPC   D2A46624  43.895  19.060   6.753
 8595POPC   C3A46625  43.910  19.078   7.053
 8595POPC   C4A46626  43.920  19.021   7.353
 8595POPC   C1B46627  43.945  18.851   6.453
 8595POPC   C2B46628  43.935  18.801   6.753
 8595POPC   C3B46629  43.941  18.867   7.053
 8595POPC   C4B46630  43.915  18.785   7.353
 8596POPC   NC346631  14.425   5.823   5.553
 8596POPC   PO446632  14.420   5.835   5.853
 8596POPC   GL146633  14.391   5.858   6.153
 8596POPC   GL246634  14.351   6.012   6.153
 8596POPC   C1A46635  14.448   5.912   6.453
 8596POPC   D2A46636  14.383   5.907   6.753
 8596POPC   C3A46637  14.451   5.896   7.053
 8596POPC   C4A46638  14.424   5.842   7.353
 8596POPC   C1B46639  14.387   6.088   6.453
 8596POPC   C2B46640  14.340   6.157   6.753
 8596POPC   C3B46641  14.375   6.088   7.053
 8596POPC   C4B46642  14.346   6.112   7.353
 8597POPC   NC346643  26.014  27.573   5.553
 8597POPC   PO446644  26.055  27.588   5.853
 8597POPC   GL146645  26.023  27.573   6.153
 8597POPC   GL246646  26.141  27.632   6.153
 8597POPC   C1A46647  26.016  27.636   6.453
 8597POPC   D2A46648  26.050  27.573   6.753
 8597POPC   C3A46649  26.002  27.574   7.053
 8597POPC   C4A46650  26.038  27.574   7.353
 8597POPC   C1B46651  26.299  27.636   6.453
 8597POPC   C2B46652  26.263  27.562   6.753
 8597POPC   C3B46653  26.327  27.550   7.053
 8597POPC   C4B46654  26.243  27.590   7.353
 8598POPC   NC346655  40.774  29.913   5.553
 8598POPC   PO446656  40.770  29.949   5.853
 8598POPC   GL146657  40.757  29.884   6.153
 8598POPC   GL246658  40.805  29.769   6.153
 8598POPC   C1A46659  40.771  29.900   6.453
 8598POPC   D2A46660  40.778  29.877   6.753
 8598POPC   C3A46661  40.747  29.896   7.053
 8598POPC   C4A46662  40.741  29.923   7.353
 8598POPC   C1B46663  40.810  29.687   6.453
 8598POPC   C2B46664  40.826  29.681   6.753
 8598POPC   C3B46665  40.807  29.669   7.053
 8598POPC   C4B46666  40.838  29.629   7.353
 8599POPC   NC346667  20.588  34.608   5.553
 8599POPC   PO446668  20.619  34.552   5.853
 8599POPC   GL146669  20.572  34.558   6.153
 8599POPC   GL246670  20.577  34.734   6.153
 8599POPC   C1A46671  20.647  34.593   6.453
 8599POPC   D2A46672  20.606  34.539   6.753
 8599POPC   C3A46673  20.586  34.618   7.053
 8599POPC   C4A46674  20.561  34.603   7.353
 8599POPC   C1B46675  20.523  34.783   6.453
 8599POPC   C2B46676  20.553  34.872   6.753
 8599POPC   C3B46677  20.619  34.789   7.053
 8599POPC   C4B46678  20.618  34.774   7.353
 8600POPC   NC346679  18.291  42.308   5.553
 8600POPC   PO446680  18.288  42.359   5.853
 8600POPC   GL146681  18.287  42.374   6.153
 8600POPC   GL246682  18.403  42.208   6.153
 8600POPC   C1A46683  18.293  42.302   6.453
 8600POPC   D2A46684  18.282  42.333   6.753
 8600POPC   C3A46685  18.296  42.290   7.053
 8600POPC   C4A46686  18.234  42.364   7.353
 8600POPC   C1B46687  18.459  42.119   6.453
 8600POPC   C2B46688  18.463  42.086   6.753
 8600POPC   C3B46689  18.456  42.161   7.053
 8600POPC   C4B46690  18.471  42.149   7.353
 8601POPC   NC346691   1.944   7.393   5.553
 8601POPC   PO446692   1.973   7.380   5.853
 8601POPC   GL146693   1.992   7.434   6.153
 8601POPC   GL246694   1.959   7.504   6.153
 8601POPC   C1A46695   2.008   7.393   6.453
 8601POPC   D2A46696   1.964   7.421   6.753
 8601POPC   C3A46697   1.943   7.467   7.053
 8601POPC   C4A46698   1.972   7.392   7.353
 8601POPC   C1B46699   2.006   7.669   6.453
 8601POPC   C2B46700   2.058   7.626   6.753
 8601POPC   C3B46701   1.979   7.673   7.053
 8601POPC   C4B46702   2.060   7.647   7.353
 8602POPC   NC346703  18.324  37.704   5.553
 8602POPC   PO446704  18.287  37.642   5.853
 8602POPC   GL146705  18.250  37.700   6.153
 8602POPC   GL246706  18.376  37.625   6.153
 8602POPC   C1A46707  18.328  37.648   6.453
 8602POPC   D2A46708  18.317  37.712   6.753
 8602POPC   C3A46709  18.264  37.635   7.053
 8602POPC   C4A46710  18.265  37.726   7.353
 8602POPC   C1B46711  18.507  37.616   6.453
 8602POPC   C2B46712  18.545  37.635   6.753
 8602POPC   C3B46713  18.553  37.633   7.053
 8602POPC   C4B46714  18.513  37.682   7.353
 8603POPC   NC346715   2.023  36.106   5.553
 8603POPC   PO446716   1.999  36.151   5.853
 8603POPC   GL146717   1.998  36.171   6.153
 8603POPC   GL246718   1.903  36.165   6.153
 8603POPC   C1A46719   2.010  36.168   6.453
 8603POPC   D2A46720   2.022  36.095   6.753
 8603POPC   C3A46721   1.985  36.154   7.053
 8603POPC   C4A46722   2.008  36.084   7.353
 8603POPC   C1B46723   1.722  36.223   6.453
 8603POPC   C2B46724   1.759  36.224   6.753
 8603POPC   C3B46725   1.731  36.239   7.053
 8603POPC   C4B46726   1.759  36.188   7.353
 8604POPC   NC346727   7.454  26.031   5.553
 8604POPC   PO446728   7.456  26.059   5.853
 8604POPC   GL146729   7.444  26.018   6.153
 8604POPC   GL246730   7.476  26.131   6.153
 8604POPC   C1A46731   7.419  26.065   6.453
 8604POPC   D2A46732   7.459  26.081   6.753
 8604POPC   C3A46733   7.402  26.066   7.053
 8604POPC   C4A46734   7.405  26.030   7.353
 8604POPC   C1B46735   7.469  26.277   6.453
 8604POPC   C2B46736   7.427  26.337   6.753
 8604POPC   C3B46737   7.469  26.253   7.053
 8604POPC   C4B46738   7.418  26.303   7.353
 8605POPC   NC346739   5.835  32.199   5.553
 8605POPC   PO446740   5.827  32.289   5.853
 8605POPC   GL146741   5.898  32.283   6.153
 8605POPC   GL246742   5.743  32.237   6.153
 8605POPC   C1A46743   5.819  32.233   6.453
 8605POPC   D2A46744   5.855  32.256   6.753
 8605POPC   C3A46745   5.851  32.205   7.053
 8605POPC   C4A46746   5.841  32.231   7.353
 8605POPC   C1B46747   5.643  32.271   6.453
 8605POPC   C2B46748   5.602  32.243   6.753
 8605POPC   C3B46749   5.644  32.265   7.053
 8605POPC   C4B46750   5.575  32.286   7.353
 8606POPC   NC346751  35.311  30.737   5.553
 8606POPC   PO446752  35.366  30.697   5.853
 8606POPC   GL146753  35.398  30.737   6.153
 8606POPC   GL246754  35.317  30.804   6.153
 8606POPC   C1A46755  35.376  30.675   6.453
 8606POPC   D2A46756  35.334  30.718   6.753
 8606POPC   C3A46757  35.327  30.736   7.053
 8606POPC   C4A46758  35.385  30.692   7.353
 8606POPC   C1B46759  35.264  30.901   6.453
 8606POPC   C2B46760  35.287  30.931   6.753
 8606POPC   C3B46761  35.198  30.938   7.053
 8606POPC   C4B46762  35.283  30.900   7.353
 8607POPC   NC346763  39.215  23.758   5.553
 8607POPC   PO446764  39.239  23.763   5.853
 8607POPC   GL146765  39.209  23.726   6.153
 8607POPC   GL246766  39.207  23.844   6.153
 8607POPC   C1A46767  39.253  23.702   6.453
 8607POPC   D2A46768  39.217  23.697   6.753
 8607POPC   C3A46769  39.245  23.754   7.053
 8607POPC   C4A46770  39.250  23.708   7.353
 8607POPC   C1B46771  39.233  23.936   6.453
 8607POPC   C2B46772  39.251  23.921   6.753
 8607POPC   C3B46773  39.184  23.948   7.053
 8607POPC   C4B46774  39.182  23.941   7.353
 8608POPC   NC346775  39.997  13.634   5.553
 8608POPC   PO446776  40.002  13.670   5.853
 8608POPC   GL146777  39.983  13.666   6.153
 8608POPC   GL246778  40.139  13.597   6.153
 8608POPC   C1A46779  39.957  13.596   6.453
 8608POPC   D2A46780  40.001  13.639   6.753
 8608POPC   C3A46781  40.014  13.635   7.053
 8608POPC   C4A46782  40.052  13.627   7.353
 8608POPC   C1B46783  40.280  13.545   6.453
 8608POPC   C2B46784  40.239  13.590   6.753
 8608POPC   C3B46785  40.261  13.569   7.053
 8608POPC   C4B46786  40.248  13.599   7.353
 8609POPC   NC346787  41.606  12.803   5.553
 8609POPC   PO446788  41.565  12.879   5.853
 8609POPC   GL146789  41.583  12.842   6.153
 8609POPC   GL246790  41.515  12.773   6.153
 8609POPC   C1A46791  41.535  12.846   6.453
 8609POPC   D2A46792  41.522  12.883   6.753
 8609POPC   C3A46793  41.567  12.807   7.053
 8609POPC   C4A46794  41.574  12.859   7.353
 8609POPC   C1B46795  41.510  12.626   6.453
 8609POPC   C2B46796  41.555  12.558   6.753
 8609POPC   C3B46797  41.562  12.589   7.053
 8609POPC   C4B46798  41.492  12.590   7.353
 8610POPC   NC346799  30.702   3.562   5.553
 8610POPC   PO446800  30.712   3.562   5.853
 8610POPC   GL146801  30.663   3.546   6.153
 8610POPC   GL246802  30.601   3.509   6.153
 8610POPC   C1A46803  30.676   3.586   6.453
 8610POPC   D2A46804  30.697   3.547   6.753
 8610POPC   C3A46805  30.742   3.568   7.053
 8610POPC   C4A46806  30.682   3.516   7.353
 8610POPC   C1B46807  30.548   3.375   6.453
 8610POPC   C2B46808  30.554   3.389   6.753
 8610POPC   C3B46809  30.485   3.346   7.053
 8610POPC   C4B46810  30.551   3.345   7.353
 8611POPC   NC346811  23.671  22.139   5.553
 8611POPC   PO446812  23.671  22.137   5.853
 8611POPC   GL146813  23.695  22.181   6.153
 8611POPC   GL246814  23.804  22.225   6.153
 8611POPC   C1A46815  23.714  22.143   6.453
 8611POPC   D2A46816  23.746  22.144   6.753
 8611POPC   C3A46817  23.741  22.195   7.053
 8611POPC   C4A46818  23.741  22.134   7.353
 8611POPC   C1B46819  23.866  22.330   6.453
 8611POPC   C2B46820  23.874  22.322   6.753
 8611POPC   C3B46821  23.845  22.395   7.053
 8611POPC   C4B46822  23.806  22.346   7.353
 8612POPC   NC346823  40.046  29.892   5.553
 8612POPC   PO446824  40.017  29.957   5.853
 8612POPC   GL146825  39.985  29.968   6.153
 8612POPC   GL246826  40.076  29.834   6.153
 8612POPC   C1A46827  39.971  29.885   6.453
 8612POPC   D2A46828  40.032  29.910   6.753
 8612POPC   C3A46829  39.988  29.957   7.053
 8612POPC   C4A46830  39.995  29.877   7.353
 8612POPC   C1B46831  40.141  29.663   6.453
 8612POPC   C2B46832  40.103  29.750   6.753
 8612POPC   C3B46833  40.119  29.683   7.053
 8612POPC   C4B46834  40.125  29.693   7.353
 8613POPC   NC346835  12.856  36.103   5.553
 8613POPC   PO446836  12.862  36.163   5.853
 8613POPC   GL146837  12.827  36.131   6.153
 8613POPC   GL246838  12.964  36.164   6.153
 8613POPC   C1A46839  12.806  36.135   6.453
 8613POPC   D2A46840  12.866  36.142   6.753
 8613POPC   C3A46841  12.862  36.090   7.053
 8613POPC   C4A46842  12.841  36.116   7.353
 8613POPC   C1B46843  13.070  36.249   6.453
 8613POPC   C2B46844  13.100  36.250   6.753
 8613POPC   C3B46845  13.075  36.256   7.053
 8613POPC   C4B46846  13.010  36.274   7.353
 8614POPC   NC346847  32.285  29.110   5.553
 8614POPC   PO446848  32.208  29.161   5.853
 8614POPC   GL146849  32.200  29.188   6.153
 8614POPC   GL246850  32.315  29.267   6.153
 8614POPC   C1A46851  32.232  29.126   6.453
 8614POPC   D2A46852  32.199  29.167   6.753
 8614POPC   C3A46853  32.246  29.100   7.053
 8614POPC   C4A46854  32.256  29.095   7.353
 8614POPC   C1B46855  32.373  29.327   6.453
 8614POPC   C2B46856  32.402  29.352   6.753
 8614POPC   C3B46857  32.334  29.360   7.053
 8614POPC   C4B46858  32.362  29.403   7.353
 8615POPC   NC346859  33.064  44.679   5.553
 8615POPC   PO446860  33.009  44.690   5.853
 8615POPC   GL146861  33.043  44.617   6.153
 8615POPC   GL246862  32.973  44.786   6.153
 8615POPC   C1A46863  33.006  44.668   6.453
 8615POPC   D2A46864  33.011  44.698   6.753
 8615POPC   C3A46865  33.005  44.646   7.053
 8615POPC   C4A46866  33.022  44.708   7.353
 8615POPC   C1B46867  32.932  44.896   6.453
 8615POPC   C2B46868  32.953  44.915   6.753
 8615POPC   C3B46869  32.926  44.922   7.053
 8615POPC   C4B46870  32.990  44.914   7.353
 8616POPC   NC346871   5.844   4.367   5.553
 8616POPC   PO446872   5.895   4.290   5.853
 8616POPC   GL146873   5.833   4.290   6.153
 8616POPC   GL246874   5.897   4.424   6.153
 8616POPC   C1A46875   5.839   4.306   6.453
 8616POPC   D2A46876   5.902   4.346   6.753
 8616POPC   C3A46877   5.893   4.275   7.053
 8616POPC   C4A46878   5.842   4.361   7.353
 8616POPC   C1B46879   5.858   4.602   6.453
 8616POPC   C2B46880   5.884   4.569   6.753
 8616POPC   C3B46881   5.922   4.525   7.053
 8616POPC   C4B46882   5.892   4.543   7.353
 8617POPC   NC346883  19.100   0.409   5.553
 8617POPC   PO446884  19.025   0.391   5.853
 8617POPC   GL146885  19.104   0.475   6.153
 8617POPC   GL246886  19.060   0.539   6.153
 8617POPC   C1A46887  19.034   0.436   6.453
 8617POPC   D2A46888  19.105   0.399   6.753
 8617POPC   C3A46889  19.070   0.416   7.053
 8617POPC   C4A46890  19.014   0.394   7.353
 8617POPC   C1B46891  18.969   0.655   6.453
 8617POPC   C2B46892  18.978   0.669   6.753
 8617POPC   C3B46893  18.994   0.717   7.053
 8617POPC   C4B46894  19.042   0.645   7.353
 8618POPC   NC346895  35.308  33.845   5.553
 8618POPC   PO446896  35.327  33.815   5.853
 8618POPC   GL146897  35.393  33.832   6.153
 8618POPC   GL246898  35.482  33.865   6.153
 8618POPC   C1A46899  35.347  33.785   6.453
 8618POPC   D2A46900  35.329  33.838   6.753
 8618POPC   C3A46901  35.310  33.759   7.053
 8618POPC   C4A46902  35.324  33.847   7.353
 8618POPC   C1B46903  35.567  33.928   6.453
 8618POPC   C2B46904  35.537  34.005   6.753
 8618POPC   C3B46905  35.563  33.965   7.053
 8618POPC   C4B46906  35.586  33.992   7.353
 8619POPC   NC346907   3.520  23.759   5.553
 8619POPC   PO446908   3.553  23.692   5.853
 8619POPC   GL146909   3.581  23.704   6.153
 8619POPC   GL246910   3.695  23.704   6.153
 8619POPC   C1A46911   3.591  23.686   6.453
 8619POPC   D2A46912   3.566  23.740   6.753
 8619POPC   C3A46913   3.495  23.734   7.053
 8619POPC   C4A46914   3.516  23.687   7.353
 8619POPC   C1B46915   3.800  23.765   6.453
 8619POPC   C2B46916   3.764  23.745   6.753
 8619POPC   C3B46917   3.788  23.824   7.053
 8619POPC   C4B46918   3.738  23.827   7.353
 8620POPC   NC346919   5.919  18.269   5.553
 8620POPC   PO446920   5.830  18.250   5.853
 8620POPC   GL146921   5.848  18.308   6.153
 8620POPC   GL246922   5.975  18.208   6.153
 8620POPC   C1A46923   5.826  18.234   6.453
 8620POPC   D2A46924   5.888  18.249   6.753
 8620POPC   C3A46925   5.845  18.242   7.053
 8620POPC   C4A46926   5.869  18.325   7.353
 8620POPC   C1B46927   6.134  18.209   6.453
 8620POPC   C2B46928   6.111  18.193   6.753
 8620POPC   C3B46929   6.087  18.138   7.053
 8620POPC   C4B46930   6.123  18.226   7.353
 8621POPC   NC346931  13.667   4.341   5.553
 8621POPC   PO446932  13.627   4.291   5.853
 8621POPC   GL146933  13.597   4.294   6.153
 8621POPC   GL246934  13.613   4.161   6.153
 8621POPC   C1A46935  13.673   4.326   6.453
 8621POPC   D2A46936  13.646   4.364   6.753
 8621POPC   C3A46937  13.673   4.359   7.053
 8621POPC   C4A46938  13.639   4.363   7.353
 8621POPC   C1B46939  13.543   4.084   6.453
 8621POPC   C2B46940  13.584   4.106   6.753
 8621POPC   C3B46941  13.575   4.113   7.053
 8621POPC   C4B46942  13.585   4.047   7.353
 8622POPC   NC346943  30.717  44.691   5.553
 8622POPC   PO446944  30.725  44.652   5.853
 8622POPC   GL146945  30.658  44.699   6.153
 8622POPC   GL246946  30.611  44.676   6.153
 8622POPC   C1A46947  30.708  44.639   6.453
 8622POPC   D2A46948  30.725  44.639   6.753
 8622POPC   C3A46949  30.696  44.665   7.053
 8622POPC   C4A46950  30.681  44.646   7.353
 8622POPC   C1B46951  30.456  44.714   6.453
 8622POPC   C2B46952  30.513  44.782   6.753
 8622POPC   C3B46953  30.507  44.733   7.053
 8622POPC   C4B46954  30.438  44.778   7.353
 8623POPC   NC346955  18.276  33.023   5.553
 8623POPC   PO446956  18.277  33.060   5.853
 8623POPC   GL146957  18.309  33.006   6.153
 8623POPC   GL246958  18.270  33.161   6.153
 8623POPC   C1A46959  18.316  32.976   6.453
 8623POPC   D2A46960  18.244  33.024   6.753
 8623POPC   C3A46961  18.281  33.018   7.053
 8623POPC   C4A46962  18.268  32.998   7.353
 8623POPC   C1B46963  18.229  33.241   6.453
 8623POPC   C2B46964  18.253  33.243   6.753
 8623POPC   C3B46965  18.206  33.248   7.053
 8623POPC   C4B46966  18.260  33.249   7.353
 8624POPC   NC346967  26.084  12.122   5.553
 8624POPC   PO446968  26.012  12.066   5.853
 8624POPC   GL146969  26.053  12.095   6.153
 8624POPC   GL246970  26.090  12.211   6.153
 8624POPC   C1A46971  26.000  12.030   6.453
 8624POPC   D2A46972  25.993  12.119   6.753
 8624POPC   C3A46973  26.058  12.086   7.053
 8624POPC   C4A46974  26.035  12.076   7.353
 8624POPC   C1B46975  26.211  12.233   6.453
 8624POPC   C2B46976  26.158  12.242   6.753
 8624POPC   C3B46977  26.165  12.276   7.053
 8624POPC   C4B46978  26.217  12.286   7.353
 8625POPC   NC346979  19.066  40.051   5.553
 8625POPC   PO446980  19.103  39.982   5.853
 8625POPC   GL146981  19.081  40.020   6.153
 8625POPC   GL246982  19.128  40.058   6.153
 8625POPC   C1A46983  19.072  39.962   6.453
 8625POPC   D2A46984  19.096  40.056   6.753
 8625POPC   C3A46985  19.044  39.997   7.053
 8625POPC   C4A46986  19.097  39.988   7.353
 8625POPC   C1B46987  19.247  40.111   6.453
 8625POPC   C2B46988  19.225  40.121   6.753
 8625POPC   C3B46989  19.309  40.107   7.053
 8625POPC   C4B46990  19.223  40.190   7.353
 8626POPC   NC346991   0.400  16.749   5.553
 8626POPC   PO446992   0.420  16.684   5.853
 8626POPC   GL146993   0.432  16.698   6.153
 8626POPC   GL246994   0.441  16.858   6.153
 8626POPC   C1A46995   0.445  16.721   6.453
 8626POPC   D2A46996   0.446  16.749   6.753
 8626POPC   C3A46997   0.450  16.736   7.053
 8626POPC   C4A46998   0.468  16.777   7.353
 8626POPC   C1B46999   0.528  17.017   6.453
 8626POPC   C2B47000   0.503  16.989   6.753
 8626POPC   C3B47001   0.494  17.012   7.053
 8626POPC   C4B47002   0.502  16.994   7.353
 8627POPC   NC347003   5.844  41.522   5.553
 8627POPC   PO447004   5.820  41.586   5.853
 8627POPC   GL147005   5.898  41.540   6.153
 8627POPC   GL247006   5.960  41.556   6.153
 8627POPC   C1A47007   5.893  41.603   6.453
 8627POPC   D2A47008   5.829  41.574   6.753
 8627POPC   C3A47009   5.827  41.564   7.053
 8627POPC   C4A47010   5.858  41.529   7.353
 8627POPC   C1B47011   6.122  41.490   6.453
 8627POPC   C2B47012   6.076  41.458   6.753
 8627POPC   C3B47013   6.091  41.435   7.053
 8627POPC   C4B47014   6.127  41.496   7.353
 8628POPC   NC347015   3.501  16.698   5.553
 8628POPC   PO447016   3.491  16.714   5.853
 8628POPC   GL147017   3.551  16.683   6.153
 8628POPC   GL247018   3.607  16.797   6.153
 8628POPC   C1A47019   3.588  16.747   6.453
 8628POPC   D2A47020   3.524  16.699   6.753
 8628POPC   C3A47021   3.537  16.779   7.053
 8628POPC   C4A47022   3.493  16.699   7.353
 8628POPC   C1B47023   3.687  16.862   6.453
 8628POPC   C2B47024   3.700  16.845   6.753
 8628POPC   C3B47025   3.768  16.915   7.053
 8628POPC   C4B47026   3.698  16.880   7.353
 8629POPC   NC347027   8.216  16.694   5.553
 8629POPC   PO447028   8.224  16.748   5.853
 8629POPC   GL147029   8.155  16.710   6.153
 8629POPC   GL247030   8.201  16.578   6.153
 8629POPC   C1A47031   8.184  16.706   6.453
 8629POPC   D2A47032   8.232  16.770   6.753
 8629POPC   C3A47033   8.238  16.730   7.053
 8629POPC   C4A47034   8.198  16.774   7.353
 8629POPC   C1B47035   8.212  16.437   6.453
 8629POPC   C2B47036   8.150  16.517   6.753
 8629POPC   C3B47037   8.204  16.470   7.053
 8629POPC   C4B47038   8.164  16.459   7.353
 8630POPC   NC347039  44.648  12.884   5.553
 8630POPC   PO447040  44.645  12.837   5.853
 8630POPC   GL147041  44.654  12.853   6.153
 8630POPC   GL247042  44.798  12.903   6.153
 8630POPC   C1A47043  44.655  12.813   6.453
 8630POPC   D2A47044  44.691  12.891   6.753
 8630POPC   C3A47045  44.683  12.844   7.053
 8630POPC   C4A47046  44.699  12.829   7.353
 8630POPC   C1B47047  44.868  13.027   6.453
 8630POPC   C2B47048  44.892  12.980   6.753
 8630POPC   C3B47049  44.846  12.953   7.053
 8630POPC   C4B47050  44.857  13.027   7.353
 8631POPC   NC347051  32.295   1.220   5.553
 8631POPC   PO447052  32.220   1.197   5.853
 8631POPC   GL147053  32.239   1.249   6.153
 8631POPC   GL247054  32.131   1.139   6.153
 8631POPC   C1A47055  32.280   1.229   6.453
 8631POPC   D2A47056  32.218   1.207   6.753
 8631POPC   C3A47057  32.296   1.166   7.053
 8631POPC   C4A47058  32.277   1.218   7.353
 8631POPC   C1B47059  31.974   1.149   6.453
 8631POPC   C2B47060  32.026   1.173   6.753
 8631POPC   C3B47061  31.971   1.137   7.053
 8631POPC   C4B47062  31.960   1.133   7.353
 8632POPC   NC347063  11.263   4.293   5.553
 8632POPC   PO447064  11.344   4.273   5.853
 8632POPC   GL147065  11.315   4.277   6.153
 8632POPC   GL247066  11.267   4.206   6.153
 8632POPC   C1A47067  11.265   4.270   6.453
 8632POPC   D2A47068  11.287   4.312   6.753
 8632POPC   C3A47069  11.339   4.303   7.053
 8632POPC   C4A47070  11.309   4.351   7.353
 8632POPC   C1B47071  11.262   4.033   6.453
 8632POPC   C2B47072  11.213   4.047   6.753
 8632POPC   C3B47073  11.231   4.056   7.053
 8632POPC   C4B47074  11.248   4.029   7.353
 8633POPC   NC347075   3.590  29.158   5.553
 8633POPC   PO447076   3.551  29.177   5.853
 8633POPC   GL147077   3.508  29.116   6.153
 8633POPC   GL247078   3.643  29.083   6.153
 8633POPC   C1A47079   3.521  29.147   6.453
 8633POPC   D2A47080   3.536  29.182   6.753
 8633POPC   C3A47081   3.505  29.121   7.053
 8633POPC   C4A47082   3.507  29.193   7.353
 8633POPC   C1B47083   3.678  28.959   6.453
 8633POPC   C2B47084   3.698  28.973   6.753
 8633POPC   C3B47085   3.710  29.003   7.053
 8633POPC   C4B47086   3.747  28.948   7.353
 8634POPC   NC347087  38.481   9.730   5.553
 8634POPC   PO447088  38.457   9.705   5.853
 8634POPC   GL147089  38.445   9.734   6.153
 8634POPC   GL247090  38.449   9.620   6.153
 8634POPC   C1A47091  38.409   9.785   6.453
 8634POPC   D2A47092  38.495   9.735   6.753
 8634POPC   C3A47093  38.441   9.723   7.053
 8634POPC   C4A47094  38.409   9.705   7.353
 8634POPC   C1B47095  38.428   9.527   6.453
 8634POPC   C2B47096  38.340   9.488   6.753
 8634POPC   C3B47097  38.413   9.491   7.053
 8634POPC   C4B47098  38.403   9.475   7.353
 8635POPC   NC347099   5.827  36.873   5.553
 8635POPC   PO447100   5.889  36.943   5.853
 8635POPC   GL147101   5.892  36.941   6.153
 8635POPC   GL247102   5.839  36.782   6.153
 8635POPC   C1A47103   5.906  36.869   6.453
 8635POPC   D2A47104   5.831  36.905   6.753
 8635POPC   C3A47105   5.855  36.947   7.053
 8635POPC   C4A47106   5.884  36.893   7.353
 8635POPC   C1B47107   5.863  36.607   6.453
 8635POPC   C2B47108   5.827  36.672   6.753
 8635POPC   C3B47109   5.830  36.676   7.053
 8635POPC   C4B47110   5.850  36.646   7.353
 8636POPC   NC347111  32.999  42.381   5.553
 8636POPC   PO447112  32.989  42.286   5.853
 8636POPC   GL147113  33.034  42.368   6.153
 8636POPC   GL247114  33.166  42.372   6.153
 8636POPC   C1A47115  33.034  42.319   6.453
 8636POPC   D2A47116  33.062  42.308   6.753
 8636POPC   C3A47117  33.054  42.308   7.053
 8636POPC   C4A47118  32.980  42.355   7.353
 8636POPC   C1B47119  33.312  42.426   6.453
 8636POPC   C2B47120  33.253  42.434   6.753
 8636POPC   C3B47121  33.244  42.388   7.053
 8636POPC   C4B47122  33.275  42.355   7.353
 8637POPC   NC347123  15.132  34.606   5.553
 8637POPC   PO447124  15.163  34.590   5.853
 8637POPC   GL147125  15.164  34.606   6.153
 8637POPC   GL247126  15.337  34.575   6.153
 8637POPC   C1A47127  15.137  34.592   6.453
 8637POPC   D2A47128  15.141  34.537   6.753
 8637POPC   C3A47129  15.191  34.624   7.053
 8637POPC   C4A47130  15.227  34.551   7.353
 8637POPC   C1B47131  15.383  34.508   6.453
 8637POPC   C2B47132  15.423  34.505   6.753
 8637POPC   C3B47133  15.438  34.519   7.053
 8637POPC   C4B47134  15.457  34.579   7.353
 8638POPC   NC347135  12.058  12.083   5.553
 8638POPC   PO447136  12.063  12.047   5.853
 8638POPC   GL147137  12.104  12.038   6.153
 8638POPC   GL247138  11.962  11.942   6.153
 8638POPC   C1A47139  12.082  12.092   6.453
 8638POPC   D2A47140  12.053  12.061   6.753
 8638POPC   C3A47141  12.080  12.063   7.053
 8638POPC   C4A47142  12.080  12.037   7.353
 8638POPC   C1B47143  11.922  11.934   6.453
 8638POPC   C2B47144  11.900  11.918   6.753
 8638POPC   C3B47145  11.932  11.925   7.053
 8638POPC   C4B47146  11.884  11.911   7.353
 8639POPC   NC347147  43.122  19.847   5.553
 8639POPC   PO447148  43.120  19.785   5.853
 8639POPC   GL147149  43.146  19.865   6.153
 8639POPC   GL247150  43.182  19.744   6.153
 8639POPC   C1A47151  43.129  19.875   6.453
 8639POPC   D2A47152  43.121  19.828   6.753
 8639POPC   C3A47153  43.122  19.866   7.053
 8639POPC   C4A47154  43.070  19.837   7.353
 8639POPC   C1B47155  43.278  19.683   6.453
 8639POPC   C2B47156  43.307  19.701   6.753
 8639POPC   C3B47157  43.303  19.680   7.053
 8639POPC   C4B47158  43.350  19.667   7.353
 8640POPC   NC347159  33.812  33.779   5.553
 8640POPC   PO447160  33.812  33.803   5.853
 8640POPC   GL147161  33.842  33.833   6.153
 8640POPC   GL247162  33.882  33.835   6.153
 8640POPC   C1A47163  33.847  33.797   6.453
 8640POPC   D2A47164  33.793  33.772   6.753
 8640POPC   C3A47165  33.805  33.789   7.053
 8640POPC   C4A47166  33.757  33.754   7.353
 8640POPC   C1B47167  33.948  33.916   6.453
 8640POPC   C2B47168  33.941  33.962   6.753
 8640POPC   C3B47169  33.941  33.982   7.053
 8640POPC   C4B47170  33.985  34.003   7.353
 8641POPC   NC347171  42.359  32.260   5.553
 8641POPC   PO447172  42.318  32.231   5.853
 8641POPC   GL147173  42.330  32.238   6.153
 8641POPC   GL247174  42.209  32.299   6.153
 8641POPC   C1A47175  42.378  32.208   6.453
 8641POPC   D2A47176  42.312  32.270   6.753
 8641POPC   C3A47177  42.353  32.241   7.053
 8641POPC   C4A47178  42.377  32.234   7.353
 8641POPC   C1B47179  42.116  32.380   6.453
 8641POPC   C2B47180  42.130  32.380   6.753
 8641POPC   C3B47181  42.145  32.315   7.053
 8641POPC   C4B47182  42.105  32.383   7.353
 8642POPC   NC347183   2.022   5.822   5.553
 8642POPC   PO447184   2.038   5.855   5.853
 8642POPC   GL147185   1.954   5.900   6.153
 8642POPC   GL247186   2.032   5.748   6.153
 8642POPC   C1A47187   1.946   5.839   6.453
 8642POPC   D2A47188   2.028   5.858   6.753
 8642POPC   C3A47189   2.013   5.840   7.053
 8642POPC   C4A47190   1.990   5.881   7.353
 8642POPC   C1B47191   2.146   5.673   6.453
 8642POPC   C2B47192   2.195   5.627   6.753
 8642POPC   C3B47193   2.118   5.646   7.053
 8642POPC   C4B47194   2.146   5.663   7.353
 8643POPC   NC347195   0.443  20.653   5.553
 8643POPC   PO447196   0.458  20.611   5.853
 8643POPC   GL147197   0.415  20.590   6.153
 8643POPC   GL247198   0.487  20.444   6.153
 8643POPC   C1A47199   0.417  20.643   6.453
 8643POPC   D2A47200   0.484  20.602   6.753
 8643POPC   C3A47201   0.478  20.569   7.053
 8643POPC   C4A47202   0.406  20.571   7.353
 8643POPC   C1B47203   0.452  20.326   6.453
 8643POPC   C2B47204   0.516  20.404   6.753
 8643POPC   C3B47205   0.507  20.328   7.053
 8643POPC   C4B47206   0.505  20.408   7.353
 8644POPC   NC347207  26.814  39.232   5.553
 8644POPC   PO447208  26.832  39.261   5.853
 8644POPC   GL147209  26.861  39.193   6.153
 8644POPC   GL247210  26.685  39.282   6.153
 8644POPC   C1A47211  26.804  39.271   6.453
 8644POPC   D2A47212  26.807  39.184   6.753
 8644POPC   C3A47213  26.789  39.209   7.053
 8644POPC   C4A47214  26.778  39.249   7.353
 8644POPC   C1B47215  26.552  39.244   6.453
 8644POPC   C2B47216  26.578  39.243   6.753
 8644POPC   C3B47217  26.598  39.247   7.053
 8644POPC   C4B47218  26.587  39.302   7.353
 8645POPC   NC347219  36.128  12.846   5.553
 8645POPC   PO447220  36.104  12.842   5.853
 8645POPC   GL147221  36.120  12.859   6.153
 8645POPC   GL247222  36.052  12.833   6.153
 8645POPC   C1A47223  36.144  12.840   6.453
 8645POPC   D2A47224  36.130  12.835   6.753
 8645POPC   C3A47225  36.090  12.882   7.053
 8645POPC   C4A47226  36.167  12.826   7.353
 8645POPC   C1B47227  35.864  12.875   6.453
 8645POPC   C2B47228  35.885  12.868   6.753
 8645POPC   C3B47229  35.860  12.829   7.053
 8645POPC   C4B47230  35.853  12.878   7.353
 8646POPC   NC347231  31.478  19.061   5.553
 8646POPC   PO447232  31.508  19.076   5.853
 8646POPC   GL147233  31.428  19.052   6.153
 8646POPC   GL247234  31.465  19.196   6.153
 8646POPC   C1A47235  31.513  19.046   6.453
 8646POPC   D2A47236  31.425  19.037   6.753
 8646POPC   C3A47237  31.457  19.026   7.053
 8646POPC   C4A47238  31.474  19.022   7.353
 8646POPC   C1B47239  31.436  19.358   6.453
 8646POPC   C2B47240  31.459  19.331   6.753
 8646POPC   C3B47241  31.465  19.276   7.053
 8646POPC   C4B47242  31.455  19.341   7.353
 8647POPC   NC347243  24.484  17.482   5.553
 8647POPC   PO447244  24.505  17.529   5.853
 8647POPC   GL147245  24.518  17.484   6.153
 8647POPC   GL247246  24.528  17.439   6.153
 8647POPC   C1A47247  24.478  17.493   6.453
 8647POPC   D2A47248  24.533  17.527   6.753
 8647POPC   C3A47249  24.470  17.464   7.053
 8647POPC   C4A47250  24.475  17.477   7.353
 8647POPC   C1B47251  24.628  17.322   6.453
 8647POPC   C2B47252  24.621  17.262   6.753
 8647POPC   C3B47253  24.565  17.256   7.053
 8647POPC   C4B47254  24.570  17.285   7.353
 8648POPC   NC347255  29.124  19.014   5.553
 8648POPC   PO447256  29.108  19.094   5.853
 8648POPC   GL147257  29.144  19.029   6.153
 8648POPC   GL247258  29.290  19.063   6.153
 8648POPC   C1A47259  29.162  19.040   6.453
 8648POPC   D2A47260  29.112  19.098   6.753
 8648POPC   C3A47261  29.117  19.024   7.053
 8648POPC   C4A47262  29.158  19.070   7.353
 8648POPC   C1B47263  29.439  19.067   6.453
 8648POPC   C2B47264  29.431  19.083   6.753
 8648POPC   C3B47265  29.429  19.045   7.053
 8648POPC   C4B47266  29.358  19.066   7.353
 8649POPC   NC347267  17.538  39.971   5.553
 8649POPC   PO447268  17.532  39.984   5.853
 8649POPC   GL147269  17.486  40.036   6.153
 8649POPC   GL247270  17.378  40.083   6.153
 8649POPC   C1A47271  17.467  40.036   6.453
 8649POPC   D2A47272  17.502  39.996   6.753
 8649POPC   C3A47273  17.506  40.002   7.053
 8649POPC   C4A47274  17.542  40.050   7.353
 8649POPC   C1B47275  17.337  40.182   6.453
 8649POPC   C2B47276  17.336  40.157   6.753
 8649POPC   C3B47277  17.354  40.244   7.053
 8649POPC   C4B47278  17.338  40.193   7.353
 8650POPC   NC347279  42.323   2.013   5.553
 8650POPC   PO447280  42.322   1.973   5.853
 8650POPC   GL147281  42.383   1.990   6.153
 8650POPC   GL247282  42.202   1.944   6.153
 8650POPC   C1A47283  42.312   2.004   6.453
 8650POPC   D2A47284  42.365   1.943   6.753
 8650POPC   C3A47285  42.363   2.004   7.053
 8650POPC   C4A47286  42.320   1.968   7.353
 8650POPC   C1B47287  42.097   1.876   6.453
 8650POPC   C2B47288  42.055   1.861   6.753
 8650POPC   C3B47289  42.123   1.939   7.053
 8650POPC   C4B47290  42.104   1.883   7.353
 8651POPC   NC347291  28.365   9.012   5.553
 8651POPC   PO447292  28.364   9.008   5.853
 8651POPC   GL147293  28.340   8.981   6.153
 8651POPC   GL247294  28.450   9.068   6.153
 8651POPC   C1A47295  28.399   8.994   6.453
 8651POPC   D2A47296  28.401   8.979   6.753
 8651POPC   C3A47297  28.395   8.969   7.053
 8651POPC   C4A47298  28.400   8.954   7.353
 8651POPC   C1B47299  28.463   9.231   6.453
 8651POPC   C2B47300  28.539   9.219   6.753
 8651POPC   C3B47301  28.467   9.178   7.053
 8651POPC   C4B47302  28.522   9.181   7.353
 8652POPC   NC347303  17.537   1.250   5.553
 8652POPC   PO447304  17.494   1.218   5.853
 8652POPC   GL147305  17.497   1.180   6.153
 8652POPC   GL247306  17.447   1.284   6.153
 8652POPC   C1A47307  17.553   1.193   6.453
 8652POPC   D2A47308  17.519   1.209   6.753
 8652POPC   C3A47309  17.490   1.174   7.053
 8652POPC   C4A47310  17.520   1.189   7.353
 8652POPC   C1B47311  17.461   1.404   6.453
 8652POPC   C2B47312  17.424   1.428   6.753
 8652POPC   C3B47313  17.380   1.415   7.053
 8652POPC   C4B47314  17.385   1.465   7.353
 8653POPC   NC347315   3.561  39.235   5.553
 8653POPC   PO447316   3.561  39.226   5.853
 8653POPC   GL147317   3.583  39.207   6.153
 8653POPC   GL247318   3.492  39.142   6.153
 8653POPC   C1A47319   3.524  39.279   6.453
 8653POPC   D2A47320   3.563  39.258   6.753
 8653POPC   C3A47321   3.558  39.215   7.053
 8653POPC   C4A47322   3.575  39.274   7.353
 8653POPC   C1B47323   3.479  39.023   6.453
 8653POPC   C2B47324   3.535  38.947   6.753
 8653POPC   C3B47325   3.484  38.968   7.053
 8653POPC   C4B47326   3.531  38.993   7.353
 8654POPC   NC347327   7.469   8.166   5.553
 8654POPC   PO447328   7.468   8.197   5.853
 8654POPC   GL147329   7.395   8.235   6.153
 8654POPC   GL247330   7.335   8.297   6.153
 8654POPC   C1A47331   7.430   8.192   6.453
 8654POPC   D2A47332   7.464   8.174   6.753
 8654POPC   C3A47333   7.455   8.238   7.053
 8654POPC   C4A47334   7.424   8.243   7.353
 8654POPC   C1B47335   7.227   8.382   6.453
 8654POPC   C2B47336   7.208   8.399   6.753
 8654POPC   C3B47337   7.208   8.324   7.053
 8654POPC   C4B47338   7.266   8.360   7.353
 8655POPC   NC347339  18.269  25.270   5.553
 8655POPC   PO447340  18.323  25.256   5.853
 8655POPC   GL147341  18.332  25.284   6.153
 8655POPC   GL247342  18.183  25.138   6.153
 8655POPC   C1A47343  18.329  25.263   6.453
 8655POPC   D2A47344  18.244  25.217   6.753
 8655POPC   C3A47345  18.328  25.235   7.053
 8655POPC   C4A47346  18.290  25.315   7.353
 8655POPC   C1B47347  18.174  25.092   6.453
 8655POPC   C2B47348  18.107  25.062   6.753
 8655POPC   C3B47349  18.095  25.085   7.053
 8655POPC   C4B47350  18.110  25.050   7.353
 8656POPC   NC347351  40.824   2.815   5.553
 8656POPC   PO447352  40.742   2.769   5.853
 8656POPC   GL147353  40.813   2.761   6.153
 8656POPC   GL247354  40.730   2.917   6.153
 8656POPC   C1A47355  40.754   2.745   6.453
 8656POPC   D2A47356  40.803   2.738   6.753
 8656POPC   C3A47357  40.789   2.803   7.053
 8656POPC   C4A47358  40.808   2.727   7.353
 8656POPC   C1B47359  40.691   2.958   6.453
 8656POPC   C2B47360  40.709   2.997   6.753
 8656POPC   C3B47361  40.704   2.967   7.053
 8656POPC   C4B47362  40.665   2.957   7.353
 8657POPC   NC347363  14.420   2.778   5.553
 8657POPC   PO447364  14.400   2.769   5.853
 8657POPC   GL147365  14.430   2.779   6.153
 8657POPC   GL247366  14.308   2.706   6.153
 8657POPC   C1A47367  14.429   2.784   6.453
 8657POPC   D2A47368  14.355   2.811   6.753
 8657POPC   C3A47369  14.406   2.736   7.053
 8657POPC   C4A47370  14.384   2.746   7.353
 8657POPC   C1B47371  14.139   2.666   6.453
 8657POPC   C2B47372  14.211   2.731   6.753
 8657POPC   C3B47373  14.136   2.663   7.053
 8657POPC   C4B47374  14.180   2.732   7.353
 8658POPC   NC347375   1.956   3.572   5.553
 8658POPC   PO447376   1.961   3.516   5.853
 8658POPC   GL147377   1.974   3.554   6.153
 8658POPC   GL247378   2.155   3.544   6.153
 8658POPC   C1A47379   1.957   3.499   6.453
 8658POPC   D2A47380   1.949   3.510   6.753
 8658POPC   C3A47381   1.965   3.567   7.053
 8658POPC   C4A47382   1.945   3.574   7.353
 8658POPC   C1B47383   2.272   3.582   6.453
 8658POPC   C2B47384   2.271   3.619   6.753
 8658POPC   C3B47385   2.196   3.585   7.053
 8658POPC   C4B47386   2.179   3.660   7.353
 8659POPC   NC347387  41.597  18.281   5.553
 8659POPC   PO447388  41.548  18.326   5.853
 8659POPC   GL147389  41.572  18.310   6.153
 8659POPC   GL247390  41.576  18.124   6.153
 8659POPC   C1A47391  41.544  18.292   6.453
 8659POPC   D2A47392  41.560  18.278   6.753
 8659POPC   C3A47393  41.589  18.288   7.053
 8659POPC   C4A47394  41.550  18.235   7.353
 8659POPC   C1B47395  41.528  17.991   6.453
 8659POPC   C2B47396  41.553  18.008   6.753
 8659POPC   C3B47397  41.517  18.056   7.053
 8659POPC   C4B47398  41.529  17.995   7.353
 8660POPC   NC347399   4.341  28.377   5.553
 8660POPC   PO447400   4.288  28.391   5.853
 8660POPC   GL147401   4.317  28.341   6.153
 8660POPC   GL247402   4.318  28.212   6.153
 8660POPC   C1A47403   4.320  28.335   6.453
 8660POPC   D2A47404   4.341  28.403   6.753
 8660POPC   C3A47405   4.294  28.394   7.053
 8660POPC   C4A47406   4.333  28.393   7.353
 8660POPC   C1B47407   4.254  28.110   6.453
 8660POPC   C2B47408   4.266  28.131   6.753
 8660POPC   C3B47409   4.314  28.118   7.053
 8660POPC   C4B47410   4.274  28.169   7.353
 8661POPC   NC347411  22.898  31.453   5.553
 8661POPC   PO447412  22.903  31.474   5.853
 8661POPC   GL147413  22.979  31.433   6.153
 8661POPC   GL247414  22.914  31.586   6.153
 8661POPC   C1A47415  22.942  31.453   6.453
 8661POPC   D2A47416  22.890  31.489   6.753
 8661POPC   C3A47417  22.952  31.427   7.053
 8661POPC   C4A47418  22.959  31.462   7.353
 8661POPC   C1B47419  22.913  31.751   6.453
 8661POPC   C2B47420  22.913  31.677   6.753
 8661POPC   C3B47421  22.890  31.752   7.053
 8661POPC   C4B47422  22.911  31.690   7.353
 8662POPC   NC347423  43.121  10.525   5.553
 8662POPC   PO447424  43.075  10.515   5.853
 8662POPC   GL147425  43.083  10.487   6.153
 8662POPC   GL247426  43.097  10.387   6.153
 8662POPC   C1A47427  43.088  10.497   6.453
 8662POPC   D2A47428  43.145  10.493   6.753
 8662POPC   C3A47429  43.080  10.487   7.053
 8662POPC   C4A47430  43.108  10.530   7.353
 8662POPC   C1B47431  43.120  10.298   6.453
 8662POPC   C2B47432  43.148  10.247   6.753
 8662POPC   C3B47433  43.131  10.305   7.053
 8662POPC   C4B47434  43.190  10.276   7.353
 8663POPC   NC347435  29.946  40.812   5.553
 8663POPC   PO447436  29.934  40.780   5.853
 8663POPC   GL147437  29.949  40.791   6.153
 8663POPC   GL247438  30.008  40.696   6.153
 8663POPC   C1A47439  29.903  40.816   6.453
 8663POPC   D2A47440  29.970  40.825   6.753
 8663POPC   C3A47441  29.947  40.752   7.053
 8663POPC   C4A47442  29.948  40.759   7.353
 8663POPC   C1B47443  30.157  40.627   6.453
 8663POPC   C2B47444  30.112  40.641   6.753
 8663POPC   C3B47445  30.148  40.626   7.053
 8663POPC   C4B47446  30.087  40.616   7.353
 8664POPC   NC347447   2.030  36.943   5.553
 8664POPC   PO447448   1.993  36.920   5.853
 8664POPC   GL147449   1.947  36.875   6.153
 8664POPC   GL247450   2.016  36.807   6.153
 8664POPC   C1A47451   1.979  36.907   6.453
 8664POPC   D2A47452   1.985  36.943   6.753
 8664POPC   C3A47453   1.998  36.885   7.053
 8664POPC   C4A47454   1.982  36.869   7.353
 8664POPC   C1B47455   1.942  36.623   6.453
 8664POPC   C2B47456   1.928  36.669   6.753
 8664POPC   C3B47457   1.921  36.697   7.053
 8664POPC   C4B47458   1.989  36.664   7.353
 8665POPC   NC347459  43.075  33.785   5.553
 8665POPC   PO447460  43.106  33.846   5.853
 8665POPC   GL147461  43.146  33.815   6.153
 8665POPC   GL247462  43.187  33.731   6.153
 8665POPC   C1A47463  43.066  33.797   6.453
 8665POPC   D2A47464  43.149  33.844   6.753
 8665POPC   C3A47465  43.072  33.810   7.053
 8665POPC   C4A47466  43.141  33.752   7.353
 8665POPC   C1B47467  43.301  33.596   6.453
 8665POPC   C2B47468  43.282  33.626   6.753
 8665POPC   C3B47469  43.280  33.592   7.053
 8665POPC   C4B47470  43.289  33.606   7.353
 8666POPC   NC347471   6.657   0.425   5.553
 8666POPC   PO447472   6.630   0.449   5.853
 8666POPC   GL147473   6.651   0.405   6.153
 8666POPC   GL247474   6.683   0.542   6.153
 8666POPC   C1A47475   6.617   0.426   6.453
 8666POPC   D2A47476   6.632   0.403   6.753
 8666POPC   C3A47477   6.627   0.467   7.053
 8666POPC   C4A47478   6.601   0.487   7.353
 8666POPC   C1B47479   6.623   0.639   6.453
 8666POPC   C2B47480   6.626   0.694   6.753
 8666POPC   C3B47481   6.715   0.657   7.053
 8666POPC   C4B47482   6.635   0.698   7.353
 8667POPC   NC347483  12.104  14.433   5.553
 8667POPC   PO447484  12.065  14.405   5.853
 8667POPC   GL147485  12.079  14.442   6.153
 8667POPC   GL247486  12.214  14.449   6.153
 8667POPC   C1A47487  12.058  14.355   6.453
 8667POPC   D2A47488  12.073  14.427   6.753
 8667POPC   C3A47489  12.088  14.398   7.053
 8667POPC   C4A47490  12.042  14.388   7.353
 8667POPC   C1B47491  12.340  14.355   6.453
 8667POPC   C2B47492  12.370  14.374   6.753
 8667POPC   C3B47493  12.301  14.431   7.053
 8667POPC   C4B47494  12.360  14.366   7.353
 8668POPC   NC347495  32.214   4.276   5.553
 8668POPC   PO447496  32.274   4.312   5.853
 8668POPC   GL147497  32.251   4.286   6.153
 8668POPC   GL247498  32.199   4.253   6.153
 8668POPC   C1A47499  32.247   4.282   6.453
 8668POPC   D2A47500  32.218   4.271   6.753
 8668POPC   C3A47501  32.288   4.296   7.053
 8668POPC   C4A47502  32.292   4.354   7.353
 8668POPC   C1B47503  32.096   4.146   6.453
 8668POPC   C2B47504  32.099   4.150   6.753
 8668POPC   C3B47505  32.115   4.079   7.053
 8668POPC   C4B47506  32.080   4.167   7.353
 8669POPC   NC347507  19.868  15.946   5.553
 8669POPC   PO447508  19.879  15.937   5.853
 8669POPC   GL147509  19.846  15.961   6.153
 8669POPC   GL247510  19.815  15.841   6.153
 8669POPC   C1A47511  19.863  15.981   6.453
 8669POPC   D2A47512  19.841  15.983   6.753
 8669POPC   C3A47513  19.810  16.000   7.053
 8669POPC   C4A47514  19.866  15.963   7.353
 8669POPC   C1B47515  19.848  15.715   6.453
 8669POPC   C2B47516  19.774  15.753   6.753
 8669POPC   C3B47517  19.790  15.685   7.053
 8669POPC   C4B47518  19.758  15.736   7.353
 8670POPC   NC347519  20.582  40.752   5.553
 8670POPC   PO447520  20.639  40.734   5.853
 8670POPC   GL147521  20.588  40.768   6.153
 8670POPC   GL247522  20.705  40.692   6.153
 8670POPC   C1A47523  20.631  40.792   6.453
 8670POPC   D2A47524  20.571  40.749   6.753
 8670POPC   C3A47525  20.593  40.788   7.053
 8670POPC   C4A47526  20.653  40.798   7.353
 8670POPC   C1B47527  20.714  40.562   6.453
 8670POPC   C2B47528  20.687  40.589   6.753
 8670POPC   C3B47529  20.742  40.565   7.053
 8670POPC   C4B47530  20.759  40.548   7.353
 8671POPC   NC347531  22.173  15.176   5.553
 8671POPC   PO447532  22.120  15.175   5.853
 8671POPC   GL147533  22.198  15.164   6.153
 8671POPC   GL247534  22.129  15.041   6.153
 8671POPC   C1A47535  22.196  15.191   6.453
 8671POPC   D2A47536  22.142  15.183   6.753
 8671POPC   C3A47537  22.122  15.225   7.053
 8671POPC   C4A47538  22.156  15.223   7.353
 8671POPC   C1B47539  22.137  14.914   6.453
 8671POPC   C2B47540  22.141  14.954   6.753
 8671POPC   C3B47541  22.055  14.985   7.053
 8671POPC   C4B47542  22.072  14.948   7.353
 8672POPC   NC347543  29.151  17.477   5.553
 8672POPC   PO447544  29.154  17.488   5.853
 8672POPC   GL147545  29.133  17.503   6.153
 8672POPC   GL247546  29.029  17.580   6.153
 8672POPC   C1A47547  29.109  17.553   6.453
 8672POPC   D2A47548  29.171  17.469   6.753
 8672POPC   C3A47549  29.107  17.488   7.053
 8672POPC   C4A47550  29.162  17.518   7.353
 8672POPC   C1B47551  28.994  17.710   6.453
 8672POPC   C2B47552  28.998  17.708   6.753
 8672POPC   C3B47553  29.008  17.665   7.053
 8672POPC   C4B47554  29.010  17.710   7.353
 8673POPC   NC347555  40.752   4.326   5.553
 8673POPC   PO447556  40.759   4.299   5.853
 8673POPC   GL147557  40.795   4.271   6.153
 8673POPC   GL247558  40.713   4.274   6.153
 8673POPC   C1A47559  40.785   4.338   6.453
 8673POPC   D2A47560  40.773   4.365   6.753
 8673POPC   C3A47561  40.821   4.347   7.053
 8673POPC   C4A47562  40.804   4.287   7.353
 8673POPC   C1B47563  40.525   4.190   6.453
 8673POPC   C2B47564  40.533   4.168   6.753
 8673POPC   C3B47565  40.552   4.160   7.053
 8673POPC   C4B47566  40.571   4.187   7.353
 8674POPC   NC347567   0.483  22.955   5.553
 8674POPC   PO447568   0.403  22.972   5.853
 8674POPC   GL147569   0.390  22.976   6.153
 8674POPC   GL247570   0.321  22.817   6.153
 8674POPC   C1A47571   0.437  22.889   6.453
 8674POPC   D2A47572   0.411  22.987   6.753
 8674POPC   C3A47573   0.485  22.978   7.053
 8674POPC   C4A47574   0.466  22.943   7.353
 8674POPC   C1B47575   0.241  22.793   6.453
 8674POPC   C2B47576   0.236  22.803   6.753
 8674POPC   C3B47577   0.302  22.758   7.053
 8674POPC   C4B47578   0.295  22.756   7.353
 8675POPC   NC347579  24.519  44.688   5.553
 8675POPC   PO447580  24.503  44.659   5.853
 8675POPC   GL147581  24.505  44.673   6.153
 8675POPC   GL247582  24.435  44.803   6.153
 8675POPC   C1A47583  24.487  44.670   6.453
 8675POPC   D2A47584  24.490  44.659   6.753
 8675POPC   C3A47585  24.447  44.653   7.053
 8675POPC   C4A47586  24.443  44.704   7.353
 8675POPC   C1B47587  24.272  44.889   6.453
 8675POPC   C2B47588  24.320  44.889   6.753
 8675POPC   C3B47589  24.351  44.871   7.053
 8675POPC   C4B47590  24.280  44.842   7.353
 8676POPC   NC347591  40.827  33.825   5.553
 8676POPC   PO447592  40.803  33.761   5.853
 8676POPC   GL147593  40.812  33.793   6.153
 8676POPC   GL247594  40.865  33.730   6.153
 8676POPC   C1A47595  40.805  33.752   6.453
 8676POPC   D2A47596  40.783  33.791   6.753
 8676POPC   C3A47597  40.744  33.801   7.053
 8676POPC   C4A47598  40.792  33.817   7.353
 8676POPC   C1B47599  40.835  33.599   6.453
 8676POPC   C2B47600  40.917  33.597   6.753
 8676POPC   C3B47601  40.914  33.594   7.053
 8676POPC   C4B47602  40.909  33.601   7.353
 8677POPC   NC347603  16.692  36.084   5.553
 8677POPC   PO447604  16.731  36.125   5.853
 8677POPC   GL147605  16.690  36.086   6.153
 8677POPC   GL247606  16.741  36.242   6.153
 8677POPC   C1A47607  16.756  36.086   6.453
 8677POPC   D2A47608  16.766  36.141   6.753
 8677POPC   C3A47609  16.698  36.165   7.053
 8677POPC   C4A47610  16.780  36.138   7.353
 8677POPC   C1B47611  16.775  36.375   6.453
 8677POPC   C2B47612  16.754  36.366   6.753
 8677POPC   C3B47613  16.766  36.355   7.053
 8677POPC   C4B47614  16.701  36.365   7.353
 8678POPC   NC347615  19.874  40.832   5.553
 8678POPC   PO447616  19.844  40.741   5.853
 8678POPC   GL147617  19.796  40.828   6.153
 8678POPC   GL247618  19.860  40.886   6.153
 8678POPC   C1A47619  19.806  40.760   6.453
 8678POPC   D2A47620  19.860  40.826   6.753
 8678POPC   C3A47621  19.865  40.789   7.053
 8678POPC   C4A47622  19.844  40.740   7.353
 8678POPC   C1B47623  19.842  41.029   6.453
 8678POPC   C2B47624  19.851  41.065   6.753
 8678POPC   C3B47625  19.842  40.989   7.053
 8678POPC   C4B47626  19.843  41.071   7.353
 8679POPC   NC347627  40.799  36.917   5.553
 8679POPC   PO447628  40.805  36.860   5.853
 8679POPC   GL147629  40.755  36.920   6.153
 8679POPC   GL247630  40.778  36.997   6.153
 8679POPC   C1A47631  40.752  36.933   6.453
 8679POPC   D2A47632  40.806  36.952   6.753
 8679POPC   C3A47633  40.814  36.892   7.053
 8679POPC   C4A47634  40.829  36.881   7.353
 8679POPC   C1B47635  40.660  37.115   6.453
 8679POPC   C2B47636  40.674  37.171   6.753
 8679POPC   C3B47637  40.721  37.139   7.053
 8679POPC   C4B47638  40.683  37.143   7.353
 8680POPC   NC347639  38.409  22.945   5.553
 8680POPC   PO447640  38.481  22.982   5.853
 8680POPC   GL147641  38.492  22.958   6.153
 8680POPC   GL247642  38.381  22.899   6.153
 8680POPC   C1A47643  38.481  22.920   6.453
 8680POPC   D2A47644  38.469  22.956   6.753
 8680POPC   C3A47645  38.455  22.911   7.053
 8680POPC   C4A47646  38.457  22.938   7.353
 8680POPC   C1B47647  38.193  22.896   6.453
 8680POPC   C2B47648  38.182  22.881   6.753
 8680POPC   C3B47649  38.215  22.866   7.053
 8680POPC   C4B47650  38.191  22.814   7.353
 8681POPC   NC347651  22.136  32.982   5.553
 8681POPC   PO447652  22.142  32.975   5.853
 8681POPC   GL147653  22.199  33.031   6.153
 8681POPC   GL247654  22.053  32.930   6.153
 8681POPC   C1A47655  22.211  33.055   6.453
 8681POPC   D2A47656  22.149  33.055   6.753
 8681POPC   C3A47657  22.129  33.044   7.053
 8681POPC   C4A47658  22.142  33.013   7.353
 8681POPC   C1B47659  22.028  32.874   6.453
 8681POPC   C2B47660  22.013  32.856   6.753
 8681POPC   C3B47661  21.948  32.888   7.053
 8681POPC   C4B47662  22.030  32.894   7.353
 8682POPC   NC347663  19.105  19.020   5.553
 8682POPC   PO447664  19.029  19.058   5.853
 8682POPC   GL147665  19.100  19.037   6.153
 8682POPC   GL247666  19.124  18.943   6.153
 8682POPC   C1A47667  19.091  19.047   6.453
 8682POPC   D2A47668  19.104  19.055   6.753
 8682POPC   C3A47669  19.009  19.074   7.053
 8682POPC   C4A47670  19.035  19.092   7.353
 8682POPC   C1B47671  19.143  18.799   6.453
 8682POPC   C2B47672  19.136  18.886   6.753
 8682POPC   C3B47673  19.134  18.811   7.053
 8682POPC   C4B47674  19.158  18.791   7.353
 8683POPC   NC347675  36.868  33.034   5.553
 8683POPC   PO447676  36.899  32.992   5.853
 8683POPC   GL147677  36.881  33.013   6.153
 8683POPC   GL247678  36.930  33.108   6.153
 8683POPC   C1A47679  36.934  33.026   6.453
 8683POPC   D2A47680  36.879  33.059   6.753
 8683POPC   C3A47681  36.896  33.068   7.053
 8683POPC   C4A47682  36.864  33.040   7.353
 8683POPC   C1B47683  36.899  33.301   6.453
 8683POPC   C2B47684  36.888  33.256   6.753
 8683POPC   C3B47685  36.927  33.255   7.053
 8683POPC   C4B47686  36.947  33.268   7.353
 8684POPC   NC347687  26.062  28.414   5.553
 8684POPC   PO447688  26.061  28.327   5.853
 8684POPC   GL147689  25.993  28.369   6.153
 8684POPC   GL247690  26.134  28.374   6.153
 8684POPC   C1A47691  26.006  28.364   6.453
 8684POPC   D2A47692  26.037  28.361   6.753
 8684POPC   C3A47693  26.026  28.351   7.053
 8684POPC   C4A47694  26.043  28.369   7.353
 8684POPC   C1B47695  26.303  28.348   6.453
 8684POPC   C2B47696  26.271  28.315   6.753
 8684POPC   C3B47697  26.319  28.359   7.053
 8684POPC   C4B47698  26.321  28.345   7.353
 8685POPC   NC347699   3.582  36.877   5.553
 8685POPC   PO447700   3.564  36.884   5.853
 8685POPC   GL147701   3.564  36.926   6.153
 8685POPC   GL247702   3.667  36.956   6.153
 8685POPC   C1A47703   3.579  36.855   6.453
 8685POPC   D2A47704   3.570  36.942   6.753
 8685POPC   C3A47705   3.562  36.932   7.053
 8685POPC   C4A47706   3.582  36.906   7.353
 8685POPC   C1B47707   3.786  36.934   6.453
 8685POPC   C2B47708   3.766  36.939   6.753
 8685POPC   C3B47709   3.819  36.926   7.053
 8685POPC   C4B47710   3.746  37.005   7.353
 8686POPC   NC347711  21.390  24.461   5.553
 8686POPC   PO447712  21.381  24.494   5.853
 8686POPC   GL147713  21.357  24.492   6.153
 8686POPC   GL247714  21.457  24.377   6.153
 8686POPC   C1A47715  21.390  24.480   6.453
 8686POPC   D2A47716  21.393  24.476   6.753
 8686POPC   C3A47717  21.355  24.532   7.053
 8686POPC   C4A47718  21.384  24.515   7.353
 8686POPC   C1B47719  21.553  24.265   6.453
 8686POPC   C2B47720  21.496  24.326   6.753
 8686POPC   C3B47721  21.559  24.326   7.053
 8686POPC   C4B47722  21.587  24.334   7.353
 8687POPC   NC347723  36.120  28.402   5.553
 8687POPC   PO447724  36.124  28.411   5.853
 8687POPC   GL147725  36.130  28.416   6.153
 8687POPC   GL247726  36.125  28.441   6.153
 8687POPC   C1A47727  36.153  28.412   6.453
 8687POPC   D2A47728  36.119  28.350   6.753
 8687POPC   C3A47729  36.148  28.362   7.053
 8687POPC   C4A47730  36.155  28.374   7.353
 8687POPC   C1B47731  36.034  28.577   6.453
 8687POPC   C2B47732  36.092  28.621   6.753
 8687POPC   C3B47733  36.075  28.581   7.053
 8687POPC   C4B47734  36.032  28.560   7.353
 8688POPC   NC347735  17.515   7.399   5.553
 8688POPC   PO447736  17.527   7.372   5.853
 8688POPC   GL147737  17.512   7.437   6.153
 8688POPC   GL247738  17.432   7.362   6.153
 8688POPC   C1A47739  17.485   7.415   6.453
 8688POPC   D2A47740  17.510   7.409   6.753
 8688POPC   C3A47741  17.548   7.464   7.053
 8688POPC   C4A47742  17.457   7.373   7.353
 8688POPC   C1B47743  17.290   7.295   6.453
 8688POPC   C2B47744  17.320   7.326   6.753
 8688POPC   C3B47745  17.283   7.346   7.053
 8688POPC   C4B47746  17.316   7.337   7.353
 8689POPC   NC347747  44.661  31.486   5.553
 8689POPC   PO447748  44.633  31.427   5.853
 8689POPC   GL147749  44.645  31.492   6.153
 8689POPC   GL247750  44.507  31.523   6.153
 8689POPC   C1A47751  44.690  31.447   6.453
 8689POPC   D2A47752  44.620  31.515   6.753
 8689POPC   C3A47753  44.633  31.455   7.053
 8689POPC   C4A47754  44.631  31.426   7.353
 8689POPC   C1B47755  44.437  31.602   6.453
 8689POPC   C2B47756  44.398  31.562   6.753
 8689POPC   C3B47757  44.477  31.608   7.053
 8689POPC   C4B47758  44.386  31.551   7.353
 8690POPC   NC347759  29.915  28.326   5.553
 8690POPC   PO447760  29.889  28.401   5.853
 8690POPC   GL147761  29.946  28.411   6.153
 8690POPC   GL247762  30.040  28.295   6.153
 8690POPC   C1A47763  29.957  28.341   6.453
 8690POPC   D2A47764  29.931  28.400   6.753
 8690POPC   C3A47765  29.926  28.368   7.053
 8690POPC   C4A47766  29.895  28.355   7.353
 8690POPC   C1B47767  30.184  28.244   6.453
 8690POPC   C2B47768  30.185  28.227   6.753
 8690POPC   C3B47769  30.194  28.255   7.053
 8690POPC   C4B47770  30.105  28.229   7.353
 8691POPC   NC347771  11.344  13.586   5.553
 8691POPC   PO447772  11.275  13.581   5.853
 8691POPC   GL147773  11.317  13.590   6.153
 8691POPC   GL247774  11.214  13.732   6.153
 8691POPC   C1A47775  11.320  13.615   6.453
 8691POPC   D2A47776  11.326  13.641   6.753
 8691POPC   C3A47777  11.285  13.591   7.053
 8691POPC   C4A47778  11.302  13.629   7.353
 8691POPC   C1B47779  11.128  13.762   6.453
 8691POPC   C2B47780  11.146  13.841   6.753
 8691POPC   C3B47781  11.088  13.794   7.053
 8691POPC   C4B47782  11.130  13.837   7.353
 8692POPC   NC347783  37.671   7.448   5.553
 8692POPC   PO447784  37.653   7.406   5.853
 8692POPC   GL147785  37.654   7.407   6.153
 8692POPC   GL247786  37.702   7.324   6.153
 8692POPC   C1A47787  37.704   7.402   6.453
 8692POPC   D2A47788  37.719   7.379   6.753
 8692POPC   C3A47789  37.633   7.418   7.053
 8692POPC   C4A47790  37.723   7.372   7.353
 8692POPC   C1B47791  37.727   7.193   6.453
 8692POPC   C2B47792  37.684   7.138   6.753
 8692POPC   C3B47793  37.698   7.215   7.053
 8692POPC   C4B47794  37.716   7.201   7.353
 8693POPC   NC347795  23.697  29.149   5.553
 8693POPC   PO447796  23.693  29.116   5.853
 8693POPC   GL147797  23.738  29.158   6.153
 8693POPC   GL247798  23.680  29.287   6.153
 8693POPC   C1A47799  23.668  29.103   6.453
 8693POPC   D2A47800  23.760  29.169   6.753
 8693POPC   C3A47801  23.732  29.143   7.053
 8693POPC   C4A47802  23.665  29.164   7.353
 8693POPC   C1B47803  23.616  29.416   6.453
 8693POPC   C2B47804  23.637  29.408   6.753
 8693POPC   C3B47805  23.661  29.378   7.053
 8693POPC   C4B47806  23.622  29.357   7.353
 8694POPC   NC347807  23.704  43.154   5.553
 8694POPC   PO447808  23.755  43.082   5.853
 8694POPC   GL147809  23.701  43.120   6.153
 8694POPC   GL247810  23.825  43.184   6.153
 8694POPC   C1A47811  23.730  43.096   6.453
 8694POPC   D2A47812  23.676  43.072   6.753
 8694POPC   C3A47813  23.728  43.152   7.053
 8694POPC   C4A47814  23.738  43.137   7.353
 8694POPC   C1B47815  23.909  43.235   6.453
 8694POPC   C2B47816  23.906  43.245   6.753
 8694POPC   C3B47817  23.925  43.233   7.053
 8694POPC   C4B47818  23.895  43.247   7.353
 8695POPC   NC347819  29.146  28.351   5.553
 8695POPC   PO447820  29.160  28.357   5.853
 8695POPC   GL147821  29.154  28.325   6.153
 8695POPC   GL247822  29.070  28.471   6.153
 8695POPC   C1A47823  29.163  28.406   6.453
 8695POPC   D2A47824  29.112  28.326   6.753
 8695POPC   C3A47825  29.129  28.329   7.053
 8695POPC   C4A47826  29.104  28.369   7.353
 8695POPC   C1B47827  29.095  28.630   6.453
 8695POPC   C2B47828  29.043  28.612   6.753
 8695POPC   C3B47829  29.041  28.571   7.053
 8695POPC   C4B47830  29.097  28.649   7.353
 8696POPC   NC347831  15.133  31.513   5.553
 8696POPC   PO447832  15.150  31.481   5.853
 8696POPC   GL147833  15.167  31.426   6.153
 8696POPC   GL247834  15.081  31.331   6.153
 8696POPC   C1A47835  15.141  31.489   6.453
 8696POPC   D2A47836  15.151  31.504   6.753
 8696POPC   C3A47837  15.186  31.447   7.053
 8696POPC   C4A47838  15.199  31.477   7.353
 8696POPC   C1B47839  15.020  31.267   6.453
 8696POPC   C2B47840  14.987  31.311   6.753
 8696POPC   C3B47841  15.068  31.229   7.053
 8696POPC   C4B47842  15.060  31.240   7.353
 8697POPC   NC347843  43.865  40.819   5.553
 8697POPC   PO447844  43.893  40.829   5.853
 8697POPC   GL147845  43.901  40.740   6.153
 8697POPC   GL247846  43.811  40.790   6.153
 8697POPC   C1A47847  43.857  40.809   6.453
 8697POPC   D2A47848  43.896  40.765   6.753
 8697POPC   C3A47849  43.836  40.773   7.053
 8697POPC   C4A47850  43.863  40.814   7.353
 8697POPC   C1B47851  43.665  40.726   6.453
 8697POPC   C2B47852  43.657  40.775   6.753
 8697POPC   C3B47853  43.623  40.757   7.053
 8697POPC   C4B47854  43.599  40.777   7.353
 8698POPC   NC347855   8.159  20.602   5.553
 8698POPC   PO447856   8.235  20.584   5.853
 8698POPC   GL147857   8.218  20.644   6.153
 8698POPC   GL247858   8.260  20.703   6.153
 8698POPC   C1A47859   8.242  20.563   6.453
 8698POPC   D2A47860   8.161  20.593   6.753
 8698POPC   C3A47861   8.212  20.586   7.053
 8698POPC   C4A47862   8.217  20.598   7.353
 8698POPC   C1B47863   8.395  20.755   6.453
 8698POPC   C2B47864   8.430  20.810   6.753
 8698POPC   C3B47865   8.402  20.805   7.053
 8698POPC   C4B47866   8.405  20.718   7.353
 8699POPC   NC347867   2.717  19.851   5.553
 8699POPC   PO447868   2.778  19.798   5.853
 8699POPC   GL147869   2.802  19.877   6.153
 8699POPC   GL247870   2.739  19.973   6.153
 8699POPC   C1A47871   2.794  19.789   6.453
 8699POPC   D2A47872   2.721  19.786   6.753
 8699POPC   C3A47873   2.786  19.787   7.053
 8699POPC   C4A47874   2.796  19.845   7.353
 8699POPC   C1B47875   2.712  20.106   6.453
 8699POPC   C2B47876   2.698  20.118   6.753
 8699POPC   C3B47877   2.746  20.068   7.053
 8699POPC   C4B47878   2.649  20.067   7.353
 8700POPC   NC347879  41.585  13.590   5.553
 8700POPC   PO447880  41.524  13.635   5.853
 8700POPC   GL147881  41.526  13.594   6.153
 8700POPC   GL247882  41.566  13.503   6.153
 8700POPC   C1A47883  41.552  13.633   6.453
 8700POPC   D2A47884  41.527  13.670   6.753
 8700POPC   C3A47885  41.584  13.677   7.053
 8700POPC   C4A47886  41.535  13.578   7.353
 8700POPC   C1B47887  41.626  13.398   6.453
 8700POPC   C2B47888  41.652  13.368   6.753
 8700POPC   C3B47889  41.708  13.376   7.053
 8700POPC   C4B47890  41.620  13.356   7.353
 8701POPC   NC347891  38.485   2.010   5.553
 8701POPC   PO447892  38.494   2.013   5.853
 8701POPC   GL147893  38.410   2.019   6.153
 8701POPC   GL247894  38.566   2.025   6.153
 8701POPC   C1A47895  38.435   1.970   6.453
 8701POPC   D2A47896  38.496   2.028   6.753
 8701POPC   C3A47897  38.408   1.991   7.053
 8701POPC   C4A47898  38.452   2.005   7.353
 8701POPC   C1B47899  38.660   2.045   6.453
 8701POPC   C2B47900  38.674   2.074   6.753
 8701POPC   C3B47901  38.708   2.043   7.053
 8701POPC   C4B47902  38.729   2.073   7.353
 8702POPC   NC347903  34.599  23.671   5.553
 8702POPC   PO447904  34.624  23.754   5.853
 8702POPC   GL147905  34.620  23.747   6.153
 8702POPC   GL247906  34.609  23.569   6.153
 8702POPC   C1A47907  34.559  23.665   6.453
 8702POPC   D2A47908  34.617  23.747   6.753
 8702POPC   C3A47909  34.551  23.747   7.053
 8702POPC   C4A47910  34.622  23.716   7.353
 8702POPC   C1B47911  34.683  23.496   6.453
 8702POPC   C2B47912  34.680  23.537   6.753
 8702POPC   C3B47913  34.661  23.505   7.053
 8702POPC   C4B47914  34.714  23.442   7.353
 8703POPC   NC347915  12.891   4.275   5.553
 8703POPC   PO447916  12.892   4.299   5.853
 8703POPC   GL147917  12.895   4.281   6.153
 8703POPC   GL247918  12.809   4.436   6.153
 8703POPC   C1A47919  12.823   4.288   6.453
 8703POPC   D2A47920  12.816   4.360   6.753
 8703POPC   C3A47921  12.829   4.269   7.053
 8703POPC   C4A47922  12.858   4.297   7.353
 8703POPC   C1B47923  12.861   4.603   6.453
 8703POPC   C2B47924  12.812   4.582   6.753
 8703POPC   C3B47925  12.887   4.577   7.053
 8703POPC   C4B47926  12.874   4.579   7.353
 8704POPC   NC347927  18.320   1.942   5.553
 8704POPC   PO447928  18.312   1.941   5.853
 8704POPC   GL147929  18.321   2.032   6.153
 8704POPC   GL247930  18.256   1.875   6.153
 8704POPC   C1A47931  18.289   2.023   6.453
 8704POPC   D2A47932  18.325   1.994   6.753
 8704POPC   C3A47933  18.319   1.950   7.053
 8704POPC   C4A47934  18.301   1.957   7.353
 8704POPC   C1B47935  18.167   1.754   6.453
 8704POPC   C2B47936  18.160   1.742   6.753
 8704POPC   C3B47937  18.142   1.785   7.053
 8704POPC   C4B47938  18.131   1.743   7.353
 8705POPC   NC347939  22.889  17.496   5.553
 8705POPC   PO447940  22.972  17.535   5.853
 8705POPC   GL147941  22.975  17.479   6.153
 8705POPC   GL247942  23.044  17.381   6.153
 8705POPC   C1A47943  22.958  17.468   6.453
 8705POPC   D2A47944  22.968  17.514   6.753
 8705POPC   C3A47945  22.894  17.547   7.053
 8705POPC   C4A47946  22.956  17.539   7.353
 8705POPC   C1B47947  23.107  17.364   6.453
 8705POPC   C2B47948  23.126  17.278   6.753
 8705POPC   C3B47949  23.056  17.347   7.053
 8705POPC   C4B47950  23.074  17.318   7.353
 8706POPC   NC347951  40.010  15.944   5.553
 8706POPC   PO447952  40.039  15.935   5.853
 8706POPC   GL147953  39.993  15.929   6.153
 8706POPC   GL247954  39.890  15.953   6.153
 8706POPC   C1A47955  40.037  15.915   6.453
 8706POPC   D2A47956  39.961  15.909   6.753
 8706POPC   C3A47957  40.042  15.934   7.053
 8706POPC   C4A47958  40.044  15.985   7.353
 8706POPC   C1B47959  39.808  15.851   6.453
 8706POPC   C2B47960  39.805  15.938   6.753
 8706POPC   C3B47961  39.732  15.932   7.053
 8706POPC   C4B47962  39.740  15.937   7.353
 8707POPC   NC347963  24.511  38.431   5.553
 8707POPC   PO447964  24.444  38.439   5.853
 8707POPC   GL147965  24.520  38.472   6.153
 8707POPC   GL247966  24.410  38.620   6.153
 8707POPC   C1A47967  24.462  38.449   6.453
 8707POPC   D2A47968  24.462  38.422   6.753
 8707POPC   C3A47969  24.526  38.464   7.053
 8707POPC   C4A47970  24.536  38.425   7.353
 8707POPC   C1B47971  24.435  38.682   6.453
 8707POPC   C2B47972  24.424  38.653   6.753
 8707POPC   C3B47973  24.401  38.657   7.053
 8707POPC   C4B47974  24.419  38.712   7.353
 8708POPC   NC347975   9.782   8.220   5.553
 8708POPC   PO447976   9.742   8.195   5.853
 8708POPC   GL147977   9.763   8.174   6.153
 8708POPC   GL247978   9.683   8.302   6.153
 8708POPC   C1A47979   9.711   8.160   6.453
 8708POPC   D2A47980   9.781   8.233   6.753
 8708POPC   C3A47981   9.757   8.209   7.053
 8708POPC   C4A47982   9.715   8.198   7.353
 8708POPC   C1B47983   9.556   8.376   6.453
 8708POPC   C2B47984   9.572   8.341   6.753
 8708POPC   C3B47985   9.587   8.317   7.053
 8708POPC   C4B47986   9.511   8.332   7.353
 8709POPC   NC347987  23.748  19.083   5.553
 8709POPC   PO447988  23.664  19.103   5.853
 8709POPC   GL147989  23.758  19.074   6.153
 8709POPC   GL247990  23.783  19.129   6.153
 8709POPC   C1A47991  23.738  19.106   6.453
 8709POPC   D2A47992  23.695  19.090   6.753
 8709POPC   C3A47993  23.706  19.073   7.053
 8709POPC   C4A47994  23.712  19.015   7.353
 8709POPC   C1B47995  23.881  19.270   6.453
 8709POPC   C2B47996  23.880  19.256   6.753
 8709POPC   C3B47997  23.796  19.271   7.053
 8709POPC   C4B47998  23.867  19.280   7.353
 8710POPC   NC347999  34.607  38.427   5.553
 8710POPC   PO448000  34.540  38.414   5.853
 8710POPC   GL148001  34.616  38.472   6.153
 8710POPC   GL248002  34.613  38.378   6.153
 8710POPC   C1A48003  34.625  38.494   6.453
 8710POPC   D2A48004  34.542  38.432   6.753
 8710POPC   C3A48005  34.547  38.481   7.053
 8710POPC   C4A48006  34.582  38.492   7.353
 8710POPC   C1B48007  34.664  38.286   6.453
 8710POPC   C2B48008  34.720  38.272   6.753
 8710POPC   C3B48009  34.716  38.243   7.053
 8710POPC   C4B48010  34.718  38.195   7.353
 8711POPC   NC348011  40.014  33.844   5.553
 8711POPC   PO448012  39.959  33.763   5.853
 8711POPC   GL148013  40.016  33.839   6.153
 8711POPC   GL248014  39.912  33.819   6.153
 8711POPC   C1A48015  40.017  33.785   6.453
 8711POPC   D2A48016  39.993  33.793   6.753
 8711POPC   C3A48017  40.014  33.751   7.053
 8711POPC   C4A48018  39.976  33.756   7.353
 8711POPC   C1B48019  39.737  33.881   6.453
 8711POPC   C2B48020  39.790  33.900   6.753
 8711POPC   C3B48021  39.730  33.808   7.053
 8711POPC   C4B48022  39.713  33.882   7.353
 8712POPC   NC348023  33.828  28.348   5.553
 8712POPC   PO448024  33.771  28.376   5.853
 8712POPC   GL148025  33.755  28.378   6.153
 8712POPC   GL248026  33.899  28.365   6.153
 8712POPC   C1A48027  33.754  28.331   6.453
 8712POPC   D2A48028  33.769  28.371   6.753
 8712POPC   C3A48029  33.770  28.360   7.053
 8712POPC   C4A48030  33.840  28.405   7.353
 8712POPC   C1B48031  34.062  28.267   6.453
 8712POPC   C2B48032  34.057  28.282   6.753
 8712POPC   C3B48033  34.023  28.331   7.053
 8712POPC   C4B48034  34.053  28.276   7.353
 8713POPC   NC348035  20.649  25.234   5.553
 8713POPC   PO448036  20.649  25.301   5.853
 8713POPC   GL148037  20.633  25.303   6.153
 8713POPC   GL248038  20.752  25.270   6.153
 8713POPC   C1A48039  20.582  25.247   6.453
 8713POPC   D2A48040  20.642  25.270   6.753
 8713POPC   C3A48041  20.565  25.275   7.053
 8713POPC   C4A48042  20.574  25.218   7.353
 8713POPC   C1B48043  20.846  25.237   6.453
 8713POPC   C2B48044  20.896  25.232   6.753
 8713POPC   C3B48045  20.824  25.196   7.053
 8713POPC   C4B48046  20.883  25.260   7.353
 8714POPC   NC348047  37.669   1.948   5.553
 8714POPC   PO448048  37.640   1.965   5.853
 8714POPC   GL148049  37.641   1.966   6.153
 8714POPC   GL248050  37.544   2.028   6.153
 8714POPC   C1A48051  37.650   2.005   6.453
 8714POPC   D2A48052  37.667   2.025   6.753
 8714POPC   C3A48053  37.680   1.971   7.053
 8714POPC   C4A48054  37.700   2.007   7.353
 8714POPC   C1B48055  37.459   2.035   6.453
 8714POPC   C2B48056  37.421   2.050   6.753
 8714POPC   C3B48057  37.387   2.012   7.053
 8714POPC   C4B48058  37.391   2.066   7.353
 8715POPC   NC348059  36.080  10.523   5.553
 8715POPC   PO448060  36.136  10.539   5.853
 8715POPC   GL148061  36.139  10.547   6.153
 8715POPC   GL248062  36.030  10.526   6.153
 8715POPC   C1A48063  36.107  10.487   6.453
 8715POPC   D2A48064  36.143  10.521   6.753
 8715POPC   C3A48065  36.105  10.528   7.053
 8715POPC   C4A48066  36.144  10.561   7.353
 8715POPC   C1B48067  35.866  10.492   6.453
 8715POPC   C2B48068  35.915  10.557   6.753
 8715POPC   C3B48069  35.895  10.576   7.053
 8715POPC   C4B48070  35.865  10.561   7.353
 8716POPC   NC348071  11.311   5.905   5.553
 8716POPC   PO448072  11.278   5.894   5.853
 8716POPC   GL148073  11.295   5.884   6.153
 8716POPC   GL248074  11.222   5.965   6.153
 8716POPC   C1A48075  11.263   5.907   6.453
 8716POPC   D2A48076  11.328   5.878   6.753
 8716POPC   C3A48077  11.260   5.850   7.053
 8716POPC   C4A48078  11.299   5.845   7.353
 8716POPC   C1B48079  11.229   6.096   6.453
 8716POPC   C2B48080  11.191   6.048   6.753
 8716POPC   C3B48081  11.227   6.120   7.053
 8716POPC   C4B48082  11.152   6.118   7.353
 8717POPC   NC348083  20.627  43.883   5.553
 8717POPC   PO448084  20.645  43.928   5.853
 8717POPC   GL148085  20.615  43.915   6.153
 8717POPC   GL248086  20.764  43.900   6.153
 8717POPC   C1A48087  20.577  43.883   6.453
 8717POPC   D2A48088  20.646  43.877   6.753
 8717POPC   C3A48089  20.650  43.847   7.053
 8717POPC   C4A48090  20.571  43.874   7.353
 8717POPC   C1B48091  20.810  43.904   6.453
 8717POPC   C2B48092  20.870  43.850   6.753
 8717POPC   C3B48093  20.879  43.916   7.053
 8717POPC   C4B48094  20.840  43.871   7.353
 8718POPC   NC348095  36.935  27.558   5.553
 8718POPC   PO448096  36.906  27.551   5.853
 8718POPC   GL148097  36.919  27.545   6.153
 8718POPC   GL248098  36.971  27.730   6.153
 8718POPC   C1A48099  36.940  27.592   6.453
 8718POPC   D2A48100  36.873  27.594   6.753
 8718POPC   C3A48101  36.866  27.602   7.053
 8718POPC   C4A48102  36.904  27.617   7.353
 8718POPC   C1B48103  37.115  27.741   6.453
 8718POPC   C2B48104  37.091  27.803   6.753
 8718POPC   C3B48105  37.092  27.779   7.053
 8718POPC   C4B48106  37.094  27.791   7.353
 8719POPC   NC348107  26.069  18.323   5.553
 8719POPC   PO448108  26.088  18.325   5.853
 8719POPC   GL148109  25.998  18.319   6.153
 8719POPC   GL248110  25.900  18.380   6.153
 8719POPC   C1A48111  26.036  18.328   6.453
 8719POPC   D2A48112  26.027  18.241   6.753
 8719POPC   C3A48113  26.027  18.279   7.053
 8719POPC   C4A48114  26.065  18.300   7.353
 8719POPC   C1B48115  25.876  18.419   6.453
 8719POPC   C2B48116  25.807  18.433   6.753
 8719POPC   C3B48117  25.867  18.373   7.053
 8719POPC   C4B48118  25.882  18.469   7.353
 8720POPC   NC348119  43.072  15.144   5.553
 8720POPC   PO448120  43.103  15.173   5.853
 8720POPC   GL148121  43.150  15.210   6.153
 8720POPC   GL248122  43.119  15.014   6.153
 8720POPC   C1A48123  43.082  15.226   6.453
 8720POPC   D2A48124  43.101  15.152   6.753
 8720POPC   C3A48125  43.122  15.180   7.053
 8720POPC   C4A48126  43.083  15.163   7.353
 8720POPC   C1B48127  43.126  14.949   6.453
 8720POPC   C2B48128  43.169  14.885   6.753
 8720POPC   C3B48129  43.123  14.895   7.053
 8720POPC   C4B48130  43.135  14.944   7.353
 8721POPC   NC348131   5.079   9.715   5.553
 8721POPC   PO448132   5.079   9.731   5.853
 8721POPC   GL148133   5.120   9.725   6.153
 8721POPC   GL248134   5.189   9.839   6.153
 8721POPC   C1A48135   5.115   9.768   6.453
 8721POPC   D2A48136   5.069   9.759   6.753
 8721POPC   C3A48137   5.049   9.787   7.053
 8721POPC   C4A48138   5.070   9.700   7.353
 8721POPC   C1B48139   5.357   9.858   6.453
 8721POPC   C2B48140   5.267   9.904   6.753
 8721POPC   C3B48141   5.269   9.870   7.053
 8721POPC   C4B48142   5.322   9.859   7.353
 8722POPC   NC348143  19.827  37.699   5.553
 8722POPC   PO448144  19.835  37.706   5.853
 8722POPC   GL148145  19.791  37.722   6.153
 8722POPC   GL248146  19.958  37.695   6.153
 8722POPC   C1A48147  19.847  37.644   6.453
 8722POPC   D2A48148  19.811  37.650   6.753
 8722POPC   C3A48149  19.853  37.715   7.053
 8722POPC   C4A48150  19.866  37.630   7.353
 8722POPC   C1B48151  20.096  37.849   6.453
 8722POPC   C2B48152  20.017  37.844   6.753
 8722POPC   C3B48153  20.058  37.794   7.053
 8722POPC   C4B48154  20.010  37.803   7.353
 8723POPC   NC348155   2.749   8.994   5.553
 8723POPC   PO448156   2.733   8.994   5.853
 8723POPC   GL148157   2.769   8.967   6.153
 8723POPC   GL248158   2.840   8.989   6.153
 8723POPC   C1A48159   2.762   8.995   6.453
 8723POPC   D2A48160   2.757   8.952   6.753
 8723POPC   C3A48161   2.736   8.999   7.053
 8723POPC   C4A48162   2.798   8.937   7.353
 8723POPC   C1B48163   2.960   9.086   6.453
 8723POPC   C2B48164   2.959   9.054   6.753
 8723POPC   C3B48165   2.953   9.094   7.053
 8723POPC   C4B48166   3.026   9.112   7.353
 8724POPC   NC348167   6.647  19.850   5.553
 8724POPC   PO448168   6.675  19.865   5.853
 8724POPC   GL148169   6.623  19.855   6.153
 8724POPC   GL248170   6.578  19.704   6.153
 8724POPC   C1A48171   6.641  19.837   6.453
 8724POPC   D2A48172   6.638  19.862   6.753
 8724POPC   C3A48173   6.689  19.880   7.053
 8724POPC   C4A48174   6.668  19.842   7.353
 8724POPC   C1B48175   6.622  19.540   6.453
 8724POPC   C2B48176   6.620  19.561   6.753
 8724POPC   C3B48177   6.592  19.624   7.053
 8724POPC   C4B48178   6.551  19.587   7.353
 8725POPC   NC348179  23.754   1.983   5.553
 8725POPC   PO448180  23.717   1.990   5.853
 8725POPC   GL148181  23.737   1.954   6.153
 8725POPC   GL248182  23.683   1.845   6.153
 8725POPC   C1A48183  23.710   1.978   6.453
 8725POPC   D2A48184  23.754   2.007   6.753
 8725POPC   C3A48185  23.705   2.003   7.053
 8725POPC   C4A48186  23.671   2.033   7.353
 8725POPC   C1B48187  23.693   1.718   6.453
 8725POPC   C2B48188  23.748   1.768   6.753
 8725POPC   C3B48189  23.714   1.780   7.053
 8725POPC   C4B48190  23.724   1.705   7.353
 8726POPC   NC348191  38.446   7.454   5.553
 8726POPC   PO448192  38.406   7.395   5.853
 8726POPC   GL148193  38.410   7.465   6.153
 8726POPC   GL248194  38.358   7.378   6.153
 8726POPC   C1A48195  38.477   7.456   6.453
 8726POPC   D2A48196  38.479   7.465   6.753
 8726POPC   C3A48197  38.490   7.400   7.053
 8726POPC   C4A48198  38.476   7.426   7.353
 8726POPC   C1B48199  38.224   7.327   6.453
 8726POPC   C2B48200  38.228   7.271   6.753
 8726POPC   C3B48201  38.243   7.335   7.053
 8726POPC   C4B48202  38.273   7.270   7.353
 8727POPC   NC348203   2.011   8.178   5.553
 8727POPC   PO448204   1.941   8.214   5.853
 8727POPC   GL148205   1.988   8.150   6.153
 8727POPC   GL248206   1.871   8.203   6.153
 8727POPC   C1A48207   2.019   8.191   6.453
 8727POPC   D2A48208   1.980   8.153   6.753
 8727POPC   C3A48209   1.961   8.201   7.053
 8727POPC   C4A48210   2.005   8.206   7.353
 8727POPC   C1B48211   1.734   8.179   6.453
 8727POPC   C2B48212   1.750   8.230   6.753
 8727POPC   C3B48213   1.713   8.215   7.053
 8727POPC   C4B48214   1.776   8.175   7.353
 8728POPC   NC348215   2.746  32.270   5.553
 8728POPC   PO448216   2.773  32.287   5.853
 8728POPC   GL148217   2.740  32.226   6.153
 8728POPC   GL248218   2.740  32.173   6.153
 8728POPC   C1A48219   2.804  32.288   6.453
 8728POPC   D2A48220   2.777  32.282   6.753
 8728POPC   C3A48221   2.787  32.298   7.053
 8728POPC   C4A48222   2.778  32.204   7.353
 8728POPC   C1B48223   2.588  32.082   6.453
 8728POPC   C2B48224   2.652  32.042   6.753
 8728POPC   C3B48225   2.643  32.031   7.053
 8728POPC   C4B48226   2.575  32.053   7.353
 8729POPC   NC348227  18.316  40.780   5.553
 8729POPC   PO448228  18.302  40.787   5.853
 8729POPC   GL148229  18.256  40.824   6.153
 8729POPC   GL248230  18.200  40.906   6.153
 8729POPC   C1A48231  18.282  40.824   6.453
 8729POPC   D2A48232  18.287  40.743   6.753
 8729POPC   C3A48233  18.282  40.740   7.053
 8729POPC   C4A48234  18.247  40.734   7.353
 8729POPC   C1B48235  18.082  40.954   6.453
 8729POPC   C2B48236  18.084  40.912   6.753
 8729POPC   C3B48237  18.065  40.991   7.053
 8729POPC   C4B48238  18.107  40.944   7.353
 8730POPC   NC348239  32.268  26.834   5.553
 8730POPC   PO448240  32.295  26.805   5.853
 8730POPC   GL148241  32.266  26.861   6.153
 8730POPC   GL248242  32.354  26.686   6.153
 8730POPC   C1A48243  32.205  26.857   6.453
 8730POPC   D2A48244  32.289  26.824   6.753
 8730POPC   C3A48245  32.265  26.814   7.053
 8730POPC   C4A48246  32.233  26.801   7.353
 8730POPC   C1B48247  32.369  26.575   6.453
 8730POPC   C2B48248  32.419  26.587   6.753
 8730POPC   C3B48249  32.330  26.602   7.053
 8730POPC   C4B48250  32.383  26.563   7.353
 8731POPC   NC348251  22.150  26.084   5.553
 8731POPC   PO448252  22.145  26.050   5.853
 8731POPC   GL148253  22.176  25.993   6.153
 8731POPC   GL248254  22.216  25.939   6.153
 8731POPC   C1A48255  22.165  26.050   6.453
 8731POPC   D2A48256  22.143  26.090   6.753
 8731POPC   C3A48257  22.119  26.085   7.053
 8731POPC   C4A48258  22.130  26.046   7.353
 8731POPC   C1B48259  22.393  25.855   6.453
 8731POPC   C2B48260  22.355  25.870   6.753
 8731POPC   C3B48261  22.356  25.919   7.053
 8731POPC   C4B48262  22.381  25.853   7.353
 8732POPC   NC348263  38.472  19.011   5.553
 8732POPC   PO448264  38.476  19.033   5.853
 8732POPC   GL148265  38.495  19.050   6.153
 8732POPC   GL248266  38.578  18.954   6.153
 8732POPC   C1A48267  38.470  19.089   6.453
 8732POPC   D2A48268  38.434  19.015   6.753
 8732POPC   C3A48269  38.459  19.045   7.053
 8732POPC   C4A48270  38.406  19.042   7.353
 8732POPC   C1B48271  38.597  18.889   6.453
 8732POPC   C2B48272  38.685  18.904   6.753
 8732POPC   C3B48273  38.599  18.866   7.053
 8732POPC   C4B48274  38.654  18.925   7.353
 8733POPC   NC348275   0.467  21.421   5.553
 8733POPC   PO448276   0.487  21.376   5.853
 8733POPC   GL148277   0.462  21.398   6.153
 8733POPC   GL248278   0.354  21.410   6.153
 8733POPC   C1A48279   0.424  21.402   6.453
 8733POPC   D2A48280   0.419  21.429   6.753
 8733POPC   C3A48281   0.393  21.407   7.053
 8733POPC   C4A48282   0.468  21.406   7.353
 8733POPC   C1B48283   0.156  21.480   6.453
 8733POPC   C2B48284   0.226  21.428   6.753
 8733POPC   C3B48285   0.166  21.444   7.053
 8733POPC   C4B48286   0.207  21.413   7.353
 8734POPC   NC348287  42.352  13.621   5.553
 8734POPC   PO448288  42.298  13.603   5.853
 8734POPC   GL148289  42.375  13.584   6.153
 8734POPC   GL248290  42.352  13.780   6.153
 8734POPC   C1A48291  42.365  13.661   6.453
 8734POPC   D2A48292  42.321  13.632   6.753
 8734POPC   C3A48293  42.379  13.630   7.053
 8734POPC   C4A48294  42.366  13.632   7.353
 8734POPC   C1B48295  42.326  13.875   6.453
 8734POPC   C2B48296  42.310  13.885   6.753
 8734POPC   C3B48297  42.403  13.876   7.053
 8734POPC   C4B48298  42.318  13.844   7.353
 8735POPC   NC348299   1.987  43.087   5.553
 8735POPC   PO448300   1.969  43.068   5.853
 8735POPC   GL148301   1.959  43.125   6.153
 8735POPC   GL248302   2.118  43.180   6.153
 8735POPC   C1A48303   1.944  43.082   6.453
 8735POPC   D2A48304   1.950  43.100   6.753
 8735POPC   C3A48305   1.968  43.112   7.053
 8735POPC   C4A48306   1.973  43.144   7.353
 8735POPC   C1B48307   2.282  43.146   6.453
 8735POPC   C2B48308   2.242  43.206   6.753
 8735POPC   C3B48309   2.242  43.215   7.053
 8735POPC   C4B48310   2.248  43.199   7.353
 8736POPC   NC348311  36.125   0.436   5.553
 8736POPC   PO448312  36.177   0.485   5.853
 8736POPC   GL148313  36.133   0.478   6.153
 8736POPC   GL248314  36.070   0.512   6.153
 8736POPC   C1A48315  36.126   0.477   6.453
 8736POPC   D2A48316  36.117   0.395   6.753
 8736POPC   C3A48317  36.101   0.390   7.053
 8736POPC   C4A48318  36.116   0.453   7.353
 8736POPC   C1B48319  36.023   0.644   6.453
 8736POPC   C2B48320  36.009   0.627   6.753
 8736POPC   C3B48321  35.975   0.618   7.053
 8736POPC   C4B48322  35.974   0.675   7.353
 8737POPC   NC348323   6.642  28.383   5.553
 8737POPC   PO448324   6.610  28.324   5.853
 8737POPC   GL148325   6.635  28.368   6.153
 8737POPC   GL248326   6.582  28.472   6.153
 8737POPC   C1A48327   6.653  28.326   6.453
 8737POPC   D2A48328   6.621  28.373   6.753
 8737POPC   C3A48329   6.664  28.393   7.053
 8737POPC   C4A48330   6.643  28.340   7.353
 8737POPC   C1B48331   6.410  28.491   6.453
 8737POPC   C2B48332   6.488  28.543   6.753
 8737POPC   C3B48333   6.491  28.575   7.053
 8737POPC   C4B48334   6.471  28.502   7.353
 8738POPC   NC348335   7.407   2.782   5.553
 8738POPC   PO448336   7.426   2.796   5.853
 8738POPC   GL148337   7.421   2.755   6.153
 8738POPC   GL248338   7.308   2.743   6.153
 8738POPC   C1A48339   7.399   2.775   6.453
 8738POPC   D2A48340   7.429   2.792   6.753
 8738POPC   C3A48341   7.377   2.735   7.053
 8738POPC   C4A48342   7.435   2.730   7.353
 8738POPC   C1B48343   7.177   2.620   6.453
 8738POPC   C2B48344   7.230   2.685   6.753
 8738POPC   C3B48345   7.232   2.628   7.053
 8738POPC   C4B48346   7.164   2.616   7.353
 8739POPC   NC348347  42.299  20.644   5.553
 8739POPC   PO448348  42.289  20.653   5.853
 8739POPC   GL148349  42.342  20.652   6.153
 8739POPC   GL248350  42.246  20.511   6.153
 8739POPC   C1A48351  42.356  20.659   6.453
 8739POPC   D2A48352  42.303  20.629   6.753
 8739POPC   C3A48353  42.368  20.605   7.053
 8739POPC   C4A48354  42.291  20.585   7.353
 8739POPC   C1B48355  42.090  20.503   6.453
 8739POPC   C2B48356  42.092  20.550   6.753
 8739POPC   C3B48357  42.153  20.480   7.053
 8739POPC   C4B48358  42.156  20.497   7.353
 8740POPC   NC348359  26.829  15.134   5.553
 8740POPC   PO448360  26.805  15.205   5.853
 8740POPC   GL148361  26.799  15.208   6.153
 8740POPC   GL248362  26.938  15.120   6.153
 8740POPC   C1A48363  26.796  15.130   6.453
 8740POPC   D2A48364  26.794  15.189   6.753
 8740POPC   C3A48365  26.845  15.216   7.053
 8740POPC   C4A48366  26.820  15.201   7.353
 8740POPC   C1B48367  27.009  15.105   6.453
 8740POPC   C2B48368  27.054  15.071   6.753
 8740POPC   C3B48369  27.094  15.085   7.053
 8740POPC   C4B48370  27.092  15.086   7.353
 8741POPC   NC348371  36.885  31.464   5.553
 8741POPC   PO448372  36.940  31.463   5.853
 8741POPC   GL148373  36.942  31.423   6.153
 8741POPC   GL248374  36.811  31.524   6.153
 8741POPC   C1A48375  36.879  31.457   6.453
 8741POPC   D2A48376  36.862  31.466   6.753
 8741POPC   C3A48377  36.943  31.498   7.053
 8741POPC   C4A48378  36.913  31.433   7.353
 8741POPC   C1B48379  36.709  31.556   6.453
 8741POPC   C2B48380  36.668  31.634   6.753
 8741POPC   C3B48381  36.640  31.613   7.053
 8741POPC   C4B48382  36.663  31.638   7.353
 8742POPC   NC348383  39.192  29.953   5.553
 8742POPC   PO448384  39.260  29.947   5.853
 8742POPC   GL148385  39.186  29.956   6.153
 8742POPC   GL248386  39.261  29.819   6.153
 8742POPC   C1A48387  39.211  29.932   6.453
 8742POPC   D2A48388  39.206  29.920   6.753
 8742POPC   C3A48389  39.268  29.965   7.053
 8742POPC   C4A48390  39.234  29.888   7.353
 8742POPC   C1B48391  39.301  29.734   6.453
 8742POPC   C2B48392  39.274  29.651   6.753
 8742POPC   C3B48393  39.291  29.685   7.053
 8742POPC   C4B48394  39.331  29.679   7.353
 8743POPC   NC348395  33.064  21.421   5.553
 8743POPC   PO448396  32.980  21.336   5.853
 8743POPC   GL148397  33.008  21.339   6.153
 8743POPC   GL248398  33.134  21.348   6.153
 8743POPC   C1A48399  33.040  21.425   6.453
 8743POPC   D2A48400  33.035  21.411   6.753
 8743POPC   C3A48401  32.978  21.401   7.053
 8743POPC   C4A48402  33.007  21.409   7.353
 8743POPC   C1B48403  33.277  21.340   6.453
 8743POPC   C2B48404  33.319  21.395   6.753
 8743POPC   C3B48405  33.316  21.369   7.053
 8743POPC   C4B48406  33.312  21.388   7.353
 8744POPC   NC348407  43.128  36.874   5.553
 8744POPC   PO448408  43.104  36.937   5.853
 8744POPC   GL148409  43.073  36.901   6.153
 8744POPC   GL248410  43.189  36.917   6.153
 8744POPC   C1A48411  43.104  36.864   6.453
 8744POPC   D2A48412  43.090  36.885   6.753
 8744POPC   C3A48413  43.071  36.875   7.053
 8744POPC   C4A48414  43.098  36.873   7.353
 8744POPC   C1B48415  43.366  36.955   6.453
 8744POPC   C2B48416  43.358  36.977   6.753
 8744POPC   C3B48417  43.340  36.942   7.053
 8744POPC   C4B48418  43.321  37.026   7.353
 8745POPC   NC348419  34.537  19.845   5.553
 8745POPC   PO448420  34.565  19.787   5.853
 8745POPC   GL148421  34.560  19.797   6.153
 8745POPC   GL248422  34.664  19.743   6.153
 8745POPC   C1A48423  34.559  19.818   6.453
 8745POPC   D2A48424  34.563  19.831   6.753
 8745POPC   C3A48425  34.550  19.866   7.053
 8745POPC   C4A48426  34.580  19.807   7.353
 8745POPC   C1B48427  34.832  19.695   6.453
 8745POPC   C2B48428  34.751  19.666   6.753
 8745POPC   C3B48429  34.745  19.680   7.053
 8745POPC   C4B48430  34.819  19.718   7.353
 8746POPC   NC348431  38.436  12.033   5.553
 8746POPC   PO448432  38.431  12.111   5.853
 8746POPC   GL148433  38.445  12.050   6.153
 8746POPC   GL248434  38.369  12.048   6.153
 8746POPC   C1A48435  38.426  12.110   6.453
 8746POPC   D2A48436  38.449  12.099   6.753
 8746POPC   C3A48437  38.417  12.057   7.053
 8746POPC   C4A48438  38.505  12.093   7.353
 8746POPC   C1B48439  38.173  12.092   6.453
 8746POPC   C2B48440  38.255  12.071   6.753
 8746POPC   C3B48441  38.212  12.067   7.053
 8746POPC   C4B48442  38.229  12.065   7.353
 8747POPC   NC348443  10.485  10.540   5.553
 8747POPC   PO448444  10.508  10.540   5.853
 8747POPC   GL148445  10.541  10.534   6.153
 8747POPC   GL248446  10.498  10.388   6.153
 8747POPC   C1A48447  10.569  10.475   6.453
 8747POPC   D2A48448  10.517  10.559   6.753
 8747POPC   C3A48449  10.499  10.494   7.053
 8747POPC   C4A48450  10.565  10.484   7.353
 8747POPC   C1B48451  10.482  10.309   6.453
 8747POPC   C2B48452  10.508  10.294   6.753
 8747POPC   C3B48453  10.485  10.249   7.053
 8747POPC   C4B48454  10.477  10.283   7.353
 8748POPC   NC348455  16.781  33.039   5.553
 8748POPC   PO448456  16.756  33.010   5.853
 8748POPC   GL148457  16.738  33.056   6.153
 8748POPC   GL248458  16.681  32.920   6.153
 8748POPC   C1A48459  16.780  33.029   6.453
 8748POPC   D2A48460  16.683  33.034   6.753
 8748POPC   C3A48461  16.777  33.021   7.053
 8748POPC   C4A48462  16.735  33.013   7.353
 8748POPC   C1B48463  16.701  32.755   6.453
 8748POPC   C2B48464  16.728  32.806   6.753
 8748POPC   C3B48465  16.714  32.824   7.053
 8748POPC   C4B48466  16.751  32.781   7.353
 8749POPC   NC348467   7.462  36.078   5.553
 8749POPC   PO448468   7.450  36.105   5.853
 8749POPC   GL148469   7.409  36.135   6.153
 8749POPC   GL248470   7.274  36.168   6.153
 8749POPC   C1A48471   7.451  36.130   6.453
 8749POPC   D2A48472   7.444  36.132   6.753
 8749POPC   C3A48473   7.408  36.098   7.053
 8749POPC   C4A48474   7.414  36.099   7.353
 8749POPC   C1B48475   7.171  36.204   6.453
 8749POPC   C2B48476   7.174  36.188   6.753
 8749POPC   C3B48477   7.142  36.255   7.053
 8749POPC   C4B48478   7.172  36.207   7.353
 8750POPC   NC348479  32.977  15.131   5.553
 8750POPC   PO448480  33.006  15.212   5.853
 8750POPC   GL148481  33.013  15.216   6.153
 8750POPC   GL248482  33.103  15.068   6.153
 8750POPC   C1A48483  33.065  15.132   6.453
 8750POPC   D2A48484  33.012  15.229   6.753
 8750POPC   C3A48485  33.030  15.200   7.053
 8750POPC   C4A48486  33.049  15.219   7.353
 8750POPC   C1B48487  33.148  14.916   6.453
 8750POPC   C2B48488  33.142  14.918   6.753
 8750POPC   C3B48489  33.149  14.925   7.053
 8750POPC   C4B48490  33.093  14.970   7.353
 8751POPC   NC348491  36.946  24.491   5.553
 8751POPC   PO448492  36.863  24.443   5.853
 8751POPC   GL148493  36.952  24.489   6.153
 8751POPC   GL248494  36.811  24.374   6.153
 8751POPC   C1A48495  36.895  24.489   6.453
 8751POPC   D2A48496  36.871  24.480   6.753
 8751POPC   C3A48497  36.861  24.449   7.053
 8751POPC   C4A48498  36.879  24.537   7.353
 8751POPC   C1B48499  36.720  24.333   6.453
 8751POPC   C2B48500  36.712  24.348   6.753
 8751POPC   C3B48501  36.715  24.357   7.053
 8751POPC   C4B48502  36.685  24.342   7.353
 8752POPC   NC348503  15.206   1.236   5.553
 8752POPC   PO448504  15.208   1.199   5.853
 8752POPC   GL148505  15.210   1.165   6.153
 8752POPC   GL248506  15.352   1.206   6.153
 8752POPC   C1A48507  15.152   1.175   6.453
 8752POPC   D2A48508  15.172   1.261   6.753
 8752POPC   C3A48509  15.134   1.250   7.053
 8752POPC   C4A48510  15.198   1.198   7.353
 8752POPC   C1B48511  15.442   1.216   6.453
 8752POPC   C2B48512  15.410   1.181   6.753
 8752POPC   C3B48513  15.394   1.227   7.053
 8752POPC   C4B48514  15.409   1.193   7.353
 8753POPC   NC348515  23.682  19.866   5.553
 8753POPC   PO448516  23.743  19.870   5.853
 8753POPC   GL148517  23.733  19.811   6.153
 8753POPC   GL248518  23.649  19.723   6.153
 8753POPC   C1A48519  23.670  19.830   6.453
 8753POPC   D2A48520  23.735  19.826   6.753
 8753POPC   C3A48521  23.727  19.821   7.053
 8753POPC   C4A48522  23.750  19.878   7.353
 8753POPC   C1B48523  23.580  19.635   6.453
 8753POPC   C2B48524  23.526  19.682   6.753
 8753POPC   C3B48525  23.513  19.653   7.053
 8753POPC   C4B48526  23.560  19.658   7.353
 8754POPC   NC348527  19.852  39.219   5.553
 8754POPC   PO448528  19.863  39.256   5.853
 8754POPC   GL148529  19.795  39.231   6.153
 8754POPC   GL248530  19.830  39.082   6.153
 8754POPC   C1A48531  19.871  39.220   6.453
 8754POPC   D2A48532  19.855  39.254   6.753
 8754POPC   C3A48533  19.868  39.241   7.053
 8754POPC   C4A48534  19.845  39.253   7.353
 8754POPC   C1B48535  19.822  39.014   6.453
 8754POPC   C2B48536  19.839  39.030   6.753
 8754POPC   C3B48537  19.870  38.981   7.053
 8754POPC   C4B48538  19.883  38.932   7.353
 8755POPC   NC348539   7.389  19.108   5.553
 8755POPC   PO448540   7.400  19.069   5.853
 8755POPC   GL148541   7.448  19.047   6.153
 8755POPC   GL248542   7.313  19.166   6.153
 8755POPC   C1A48543   7.388  19.037   6.453
 8755POPC   D2A48544   7.468  19.080   6.753
 8755POPC   C3A48545   7.445  19.026   7.053
 8755POPC   C4A48546   7.415  19.061   7.353
 8755POPC   C1B48547   7.256  19.224   6.453
 8755POPC   C2B48548   7.255  19.196   6.753
 8755POPC   C3B48549   7.230  19.288   7.053
 8755POPC   C4B48550   7.298  19.235   7.353
 8756POPC   NC348551  15.948   7.437   5.553
 8756POPC   PO448552  15.994   7.398   5.853
 8756POPC   GL148553  15.994   7.444   6.153
 8756POPC   GL248554  15.802   7.370   6.153
 8756POPC   C1A48555  15.944   7.417   6.453
 8756POPC   D2A48556  15.906   7.396   6.753
 8756POPC   C3A48557  15.937   7.397   7.053
 8756POPC   C4A48558  15.958   7.434   7.353
 8756POPC   C1B48559  15.710   7.299   6.453
 8756POPC   C2B48560  15.725   7.260   6.753
 8756POPC   C3B48561  15.776   7.312   7.053
 8756POPC   C4B48562  15.738   7.242   7.353
 8757POPC   NC348563   3.536   8.930   5.553
 8757POPC   PO448564   3.558   9.000   5.853
 8757POPC   GL148565   3.572   8.938   6.153
 8757POPC   GL248566   3.581   8.844   6.153
 8757POPC   C1A48567   3.564   8.968   6.453
 8757POPC   D2A48568   3.498   9.017   6.753
 8757POPC   C3A48569   3.587   8.958   7.053
 8757POPC   C4A48570   3.571   9.003   7.353
 8757POPC   C1B48571   3.539   8.710   6.453
 8757POPC   C2B48572   3.572   8.754   6.753
 8757POPC   C3B48573   3.512   8.735   7.053
 8757POPC   C4B48574   3.541   8.769   7.353
 8758POPC   NC348575   5.893  27.616   5.553
 8758POPC   PO448576   5.901  27.631   5.853
 8758POPC   GL148577   5.885  27.632   6.153
 8758POPC   GL248578   6.004  27.614   6.153
 8758POPC   C1A48579   5.884  27.610   6.453
 8758POPC   D2A48580   5.879  27.556   6.753
 8758POPC   C3A48581   5.849  27.608   7.053
 8758POPC   C4A48582   5.833  27.568   7.353
 8758POPC   C1B48583   6.074  27.604   6.453
 8758POPC   C2B48584   6.098  27.635   6.753
 8758POPC   C3B48585   6.070  27.618   7.053
 8758POPC   C4B48586   6.144  27.577   7.353
 8759POPC   NC348587  25.291  13.601   5.553
 8759POPC   PO448588  25.300  13.622   5.853
 8759POPC   GL148589  25.283  13.653   6.153
 8759POPC   GL248590  25.119  13.708   6.153
 8759POPC   C1A48591  25.222  13.635   6.453
 8759POPC   D2A48592  25.278  13.603   6.753
 8759POPC   C3A48593  25.246  13.638   7.053
 8759POPC   C4A48594  25.301  13.611   7.353
 8759POPC   C1B48595  25.018  13.690   6.453
 8759POPC   C2B48596  24.978  13.741   6.753
 8759POPC   C3B48597  25.021  13.722   7.053
 8759POPC   C4B48598  25.036  13.748   7.353
 8760POPC   NC348599  21.385  12.107   5.553
 8760POPC   PO448600  21.372  12.108   5.853
 8760POPC   GL148601  21.402  12.109   6.153
 8760POPC   GL248602  21.526  11.983   6.153
 8760POPC   C1A48603  21.391  12.071   6.453
 8760POPC   D2A48604  21.423  12.027   6.753
 8760POPC   C3A48605  21.386  12.108   7.053
 8760POPC   C4A48606  21.394  12.101   7.353
 8760POPC   C1B48607  21.614  11.884   6.453
 8760POPC   C2B48608  21.542  11.939   6.753
 8760POPC   C3B48609  21.578  11.958   7.053
 8760POPC   C4B48610  21.581  11.921   7.353
 8761POPC   NC348611  18.235  27.586   5.553
 8761POPC   PO448612  18.264  27.569   5.853
 8761POPC   GL148613  18.254  27.632   6.153
 8761POPC   GL248614  18.262  27.742   6.153
 8761POPC   C1A48615  18.262  27.609   6.453
 8761POPC   D2A48616  18.235  27.631   6.753
 8761POPC   C3A48617  18.289  27.604   7.053
 8761POPC   C4A48618  18.305  27.560   7.353
 8761POPC   C1B48619  18.238  27.851   6.453
 8761POPC   C2B48620  18.175  27.854   6.753
 8761POPC   C3B48621  18.185  27.782   7.053
 8761POPC   C4B48622  18.238  27.875   7.353
 8762POPC   NC348623  39.985  25.286   5.553
 8762POPC   PO448624  39.963  25.310   5.853
 8762POPC   GL148625  40.003  25.239   6.153
 8762POPC   GL248626  39.952  25.138   6.153
 8762POPC   C1A48627  40.010  25.272   6.453
 8762POPC   D2A48628  40.015  25.261   6.753
 8762POPC   C3A48629  39.990  25.302   7.053
 8762POPC   C4A48630  39.994  25.297   7.353
 8762POPC   C1B48631  39.959  25.039   6.453
 8762POPC   C2B48632  39.926  25.010   6.753
 8762POPC   C3B48633  39.904  24.986   7.053
 8762POPC   C4B48634  39.911  25.079   7.353
 8763POPC   NC348635  15.216  43.119   5.553
 8763POPC   PO448636  15.176  43.128   5.853
 8763POPC   GL148637  15.139  43.132   6.153
 8763POPC   GL248638  15.121  42.982   6.153
 8763POPC   C1A48639  15.207  43.061   6.453
 8763POPC   D2A48640  15.205  43.090   6.753
 8763POPC   C3A48641  15.164  43.101   7.053
 8763POPC   C4A48642  15.222  43.091   7.353
 8763POPC   C1B48643  15.013  42.924   6.453
 8763POPC   C2B48644  15.031  42.923   6.753
 8763POPC   C3B48645  15.101  42.915   7.053
 8763POPC   C4B48646  15.098  42.901   7.353
 8764POPC   NC348647  39.226  36.093   5.553
 8764POPC   PO448648  39.190  36.176   5.853
 8764POPC   GL148649  39.235  36.129   6.153
 8764POPC   GL248650  39.301  36.051   6.153
 8764POPC   C1A48651  39.276  36.165   6.453
 8764POPC   D2A48652  39.189  36.118   6.753
 8764POPC   C3A48653  39.254  36.152   7.053
 8764POPC   C4A48654  39.182  36.110   7.353
 8764POPC   C1B48655  39.381  35.939   6.453
 8764POPC   C2B48656  39.349  35.898   6.753
 8764POPC   C3B48657  39.415  35.973   7.053
 8764POPC   C4B48658  39.371  35.947   7.353
 8765POPC   NC348659  37.644  43.072   5.553
 8765POPC   PO448660  37.662  43.158   5.853
 8765POPC   GL148661  37.683  43.100   6.153
 8765POPC   GL248662  37.593  43.036   6.153
 8765POPC   C1A48663  37.725  43.141   6.453
 8765POPC   D2A48664  37.653  43.092   6.753
 8765POPC   C3A48665  37.645  43.091   7.053
 8765POPC   C4A48666  37.638  43.127   7.353
 8765POPC   C1B48667  37.460  43.048   6.453
 8765POPC   C2B48668  37.473  43.066   6.753
 8765POPC   C3B48669  37.488  43.055   7.053
 8765POPC   C4B48670  37.422  43.056   7.353
 8766POPC   NC348671  13.613  33.069   5.553
 8766POPC   PO448672  13.583  33.064   5.853
 8766POPC   GL148673  13.658  32.986   6.153
 8766POPC   GL248674  13.678  32.897   6.153
 8766POPC   C1A48675  13.634  33.011   6.453
 8766POPC   D2A48676  13.587  33.055   6.753
 8766POPC   C3A48677  13.648  33.032   7.053
 8766POPC   C4A48678  13.641  33.000   7.353
 8766POPC   C1B48679  13.829  32.827   6.453
 8766POPC   C2B48680  13.840  32.814   6.753
 8766POPC   C3B48681  13.831  32.848   7.053
 8766POPC   C4B48682  13.767  32.852   7.353
 8767POPC   NC348683  27.546  19.827   5.553
 8767POPC   PO448684  27.612  19.851   5.853
 8767POPC   GL148685  27.611  19.815   6.153
 8767POPC   GL248686  27.632  19.663   6.153
 8767POPC   C1A48687  27.626  19.850   6.453
 8767POPC   D2A48688  27.544  19.862   6.753
 8767POPC   C3A48689  27.611  19.821   7.053
 8767POPC   C4A48690  27.588  19.819   7.353
 8767POPC   C1B48691  27.639  19.546   6.453
 8767POPC   C2B48692  27.553  19.600   6.753
 8767POPC   C3B48693  27.616  19.546   7.053
 8767POPC   C4B48694  27.597  19.622   7.353
 8768POPC   NC348695   5.047  35.379   5.553
 8768POPC   PO448696   5.083  35.382   5.853
 8768POPC   GL148697   5.100  35.325   6.153
 8768POPC   GL248698   5.190  35.339   6.153
 8768POPC   C1A48699   5.132  35.334   6.453
 8768POPC   D2A48700   5.123  35.340   6.753
 8768POPC   C3A48701   5.052  35.334   7.053
 8768POPC   C4A48702   5.106  35.356   7.353
 8768POPC   C1B48703   5.387  35.335   6.453
 8768POPC   C2B48704   5.364  35.337   6.753
 8768POPC   C3B48705   5.376  35.281   7.053
 8768POPC   C4B48706   5.368  35.291   7.353
 8769POPC   NC348707  34.559  22.177   5.553
 8769POPC   PO448708  34.538  22.156   5.853
 8769POPC   GL148709  34.573  22.131   6.153
 8769POPC   GL248710  34.637  22.045   6.153
 8769POPC   C1A48711  34.616  22.185   6.453
 8769POPC   D2A48712  34.609  22.190   6.753
 8769POPC   C3A48713  34.578  22.135   7.053
 8769POPC   C4A48714  34.618  22.149   7.353
 8769POPC   C1B48715  34.806  21.970   6.453
 8769POPC   C2B48716  34.803  21.999   6.753
 8769POPC   C3B48717  34.748  21.970   7.053
 8769POPC   C4B48718  34.753  21.993   7.353
 8770POPC   NC348719  11.262   2.029   5.553
 8770POPC   PO448720  11.308   1.940   5.853
 8770POPC   GL148721  11.271   2.033   6.153
 8770POPC   GL248722  11.285   2.154   6.153
 8770POPC   C1A48723  11.292   2.008   6.453
 8770POPC   D2A48724  11.307   1.997   6.753
 8770POPC   C3A48725  11.267   2.013   7.053
 8770POPC   C4A48726  11.269   1.994   7.353
 8770POPC   C1B48727  11.373   2.199   6.453
 8770POPC   C2B48728  11.295   2.282   6.753
 8770POPC   C3B48729  11.366   2.276   7.053
 8770POPC   C4B48730  11.294   2.262   7.353
 8771POPC   NC348731  22.954  12.802   5.553
 8771POPC   PO448732  22.974  12.837   5.853
 8771POPC   GL148733  22.919  12.826   6.153
 8771POPC   GL248734  22.929  12.946   6.153
 8771POPC   C1A48735  22.897  12.873   6.453
 8771POPC   D2A48736  22.961  12.816   6.753
 8771POPC   C3A48737  22.900  12.806   7.053
 8771POPC   C4A48738  22.986  12.891   7.353
 8771POPC   C1B48739  22.877  13.084   6.453
 8771POPC   C2B48740  22.897  13.062   6.753
 8771POPC   C3B48741  22.973  13.141   7.053
 8771POPC   C4B48742  22.919  13.059   7.353
 8772POPC   NC348743  18.253  26.774   5.553
 8772POPC   PO448744  18.247  26.777   5.853
 8772POPC   GL148745  18.291  26.789   6.153
 8772POPC   GL248746  18.190  26.802   6.153
 8772POPC   C1A48747  18.308  26.802   6.453
 8772POPC   D2A48748  18.332  26.775   6.753
 8772POPC   C3A48749  18.329  26.817   7.053
 8772POPC   C4A48750  18.293  26.780   7.353
 8772POPC   C1B48751  18.017  26.706   6.453
 8772POPC   C2B48752  18.075  26.674   6.753
 8772POPC   C3B48753  18.069  26.765   7.053
 8772POPC   C4B48754  18.096  26.739   7.353
 8773POPC   NC348755  39.234   4.308   5.553
 8773POPC   PO448756  39.273   4.297   5.853
 8773POPC   GL148757  39.235   4.291   6.153
 8773POPC   GL248758  39.200   4.244   6.153
 8773POPC   C1A48759  39.273   4.312   6.453
 8773POPC   D2A48760  39.199   4.300   6.753
 8773POPC   C3A48761  39.220   4.290   7.053
 8773POPC   C4A48762  39.280   4.350   7.353
 8773POPC   C1B48763  39.030   4.149   6.453
 8773POPC   C2B48764  39.076   4.099   6.753
 8773POPC   C3B48765  39.032   4.131   7.053
 8773POPC   C4B48766  39.087   4.158   7.353
 8774POPC   NC348767  41.584  26.089   5.553
 8774POPC   PO448768  41.579  26.031   5.853
 8774POPC   GL148769  41.588  26.051   6.153
 8774POPC   GL248770  41.513  25.934   6.153
 8774POPC   C1A48771  41.562  26.054   6.453
 8774POPC   D2A48772  41.548  26.001   6.753
 8774POPC   C3A48773  41.576  26.013   7.053
 8774POPC   C4A48774  41.550  26.090   7.353
 8774POPC   C1B48775  41.509  25.769   6.453
 8774POPC   C2B48776  41.433  25.840   6.753
 8774POPC   C3B48777  41.510  25.797   7.053
 8774POPC   C4B48778  41.421  25.853   7.353
 8775POPC   NC348779  43.131  22.987   5.553
 8775POPC   PO448780  43.143  22.950   5.853
 8775POPC   GL148781  43.149  22.909   6.153
 8775POPC   GL248782  43.196  22.876   6.153
 8775POPC   C1A48783  43.092  22.957   6.453
 8775POPC   D2A48784  43.101  22.970   6.753
 8775POPC   C3A48785  43.108  22.985   7.053
 8775POPC   C4A48786  43.111  22.889   7.353
 8775POPC   C1B48787  43.321  22.800   6.453
 8775POPC   C2B48788  43.342  22.779   6.753
 8775POPC   C3B48789  43.344  22.769   7.053
 8775POPC   C4B48790  43.314  22.803   7.353
 8776POPC   NC348791  39.202  27.577   5.553
 8776POPC   PO448792  39.257  27.602   5.853
 8776POPC   GL148793  39.222  27.562   6.153
 8776POPC   GL248794  39.174  27.519   6.153
 8776POPC   C1A48795  39.259  27.610   6.453
 8776POPC   D2A48796  39.234  27.561   6.753
 8776POPC   C3A48797  39.232  27.621   7.053
 8776POPC   C4A48798  39.226  27.565   7.353
 8776POPC   C1B48799  39.118  27.329   6.453
 8776POPC   C2B48800  39.160  27.363   6.753
 8776POPC   C3B48801  39.188  27.330   7.053
 8776POPC   C4B48802  39.134  27.362   7.353
 8777POPC   NC348803  43.105  36.105   5.553
 8777POPC   PO448804  43.134  36.083   5.853
 8777POPC   GL148805  43.090  36.120   6.153
 8777POPC   GL248806  43.031  36.029   6.153
 8777POPC   C1A48807  43.114  36.148   6.453
 8777POPC   D2A48808  43.074  36.083   6.753
 8777POPC   C3A48809  43.128  36.087   7.053
 8777POPC   C4A48810  43.062  36.098   7.353
 8777POPC   C1B48811  42.941  35.897   6.453
 8777POPC   C2B48812  42.928  35.972   6.753
 8777POPC   C3B48813  42.933  35.974   7.053
 8777POPC   C4B48814  42.968  35.989   7.353
 8778POPC   NC348815   4.295  39.204   5.553
 8778POPC   PO448816   4.285  39.247   5.853
 8778POPC   GL148817   4.341  39.204   6.153
 8778POPC   GL248818   4.287  39.349   6.153
 8778POPC   C1A48819   4.298  39.265   6.453
 8778POPC   D2A48820   4.306  39.219   6.753
 8778POPC   C3A48821   4.294  39.204   7.053
 8778POPC   C4A48822   4.327  39.252   7.353
 8778POPC   C1B48823   4.351  39.496   6.453
 8778POPC   C2B48824   4.273  39.483   6.753
 8778POPC   C3B48825   4.312  39.480   7.053
 8778POPC   C4B48826   4.356  39.480   7.353
 8779POPC   NC348827  39.276  15.218   5.553
 8779POPC   PO448828  39.209  15.210   5.853
 8779POPC   GL148829  39.272  15.206   6.153
 8779POPC   GL248830  39.154  15.138   6.153
 8779POPC   C1A48831  39.250  15.192   6.453
 8779POPC   D2A48832  39.250  15.151   6.753
 8779POPC   C3A48833  39.241  15.159   7.053
 8779POPC   C4A48834  39.214  15.172   7.353
 8779POPC   C1B48835  39.000  15.118   6.453
 8779POPC   C2B48836  38.997  15.183   6.753
 8779POPC   C3B48837  38.951  15.143   7.053
 8779POPC   C4B48838  38.992  15.166   7.353
 8780POPC   NC348839  36.881   8.158   5.553
 8780POPC   PO448840  36.899   8.246   5.853
 8780POPC   GL148841  36.923   8.216   6.153
 8780POPC   GL248842  36.952   8.102   6.153
 8780POPC   C1A48843  36.935   8.154   6.453
 8780POPC   D2A48844  36.867   8.174   6.753
 8780POPC   C3A48845  36.938   8.210   7.053
 8780POPC   C4A48846  36.949   8.236   7.353
 8780POPC   C1B48847  36.953   7.997   6.453
 8780POPC   C2B48848  37.018   7.948   6.753
 8780POPC   C3B48849  37.006   7.932   7.053
 8780POPC   C4B48850  36.977   7.953   7.353
 8781POPC   NC348851  42.314  34.549   5.553
 8781POPC   PO448852  42.382  34.584   5.853
 8781POPC   GL148853  42.309  34.625   6.153
 8781POPC   GL248854  42.432  34.713   6.153
 8781POPC   C1A48855  42.308  34.573   6.453
 8781POPC   D2A48856  42.294  34.566   6.753
 8781POPC   C3A48857  42.331  34.620   7.053
 8781POPC   C4A48858  42.340  34.612   7.353
 8781POPC   C1B48859  42.455  34.768   6.453
 8781POPC   C2B48860  42.505  34.759   6.753
 8781POPC   C3B48861  42.517  34.811   7.053
 8781POPC   C4B48862  42.537  34.758   7.353
 8782POPC   NC348863  35.354   0.456   5.553
 8782POPC   PO448864  35.390   0.481   5.853
 8782POPC   GL148865  35.359   0.426   6.153
 8782POPC   GL248866  35.392   0.536   6.153
 8782POPC   C1A48867  35.333   0.425   6.453
 8782POPC   D2A48868  35.353   0.444   6.753
 8782POPC   C3A48869  35.337   0.425   7.053
 8782POPC   C4A48870  35.336   0.424   7.353
 8782POPC   C1B48871  35.532   0.689   6.453
 8782POPC   C2B48872  35.444   0.628   6.753
 8782POPC   C3B48873  35.493   0.629   7.053
 8782POPC   C4B48874  35.493   0.684   7.353
 8783POPC   NC348875   0.424   5.130   5.553
 8783POPC   PO448876   0.464   5.049   5.853
 8783POPC   GL148877   0.453   5.134   6.153
 8783POPC   GL248878   0.277   5.077   6.153
 8783POPC   C1A48879   0.482   5.129   6.453
 8783POPC   D2A48880   0.468   5.137   6.753
 8783POPC   C3A48881   0.433   5.110   7.053
 8783POPC   C4A48882   0.480   5.112   7.353
 8783POPC   C1B48883   0.238   5.107   6.453
 8783POPC   C2B48884   0.202   5.068   6.753
 8783POPC   C3B48885   0.199   5.043   7.053
 8783POPC   C4B48886   0.143   5.123   7.353
 8784POPC   NC348887  42.295  17.488   5.553
 8784POPC   PO448888  42.292  17.496   5.853
 8784POPC   GL148889  42.355  17.494   6.153
 8784POPC   GL248890  42.400  17.387   6.153
 8784POPC   C1A48891  42.286  17.530   6.453
 8784POPC   D2A48892  42.337  17.474   6.753
 8784POPC   C3A48893  42.299  17.512   7.053
 8784POPC   C4A48894  42.299  17.501   7.353
 8784POPC   C1B48895  42.575  17.390   6.453
 8784POPC   C2B48896  42.534  17.332   6.753
 8784POPC   C3B48897  42.517  17.377   7.053
 8784POPC   C4B48898  42.549  17.362   7.353
 8785POPC   NC348899  24.536  11.264   5.553
 8785POPC   PO448900  24.528  11.337   5.853
 8785POPC   GL148901  24.495  11.284   6.153
 8785POPC   GL248902  24.501  11.176   6.153
 8785POPC   C1A48903  24.519  11.307   6.453
 8785POPC   D2A48904  24.490  11.311   6.753
 8785POPC   C3A48905  24.515  11.334   7.053
 8785POPC   C4A48906  24.451  11.307   7.353
 8785POPC   C1B48907  24.527  11.066   6.453
 8785POPC   C2B48908  24.558  11.054   6.753
 8785POPC   C3B48909  24.487  11.065   7.053
 8785POPC   C4B48910  24.544  11.037   7.353
 8786POPC   NC348911  36.108  44.635   5.553
 8786POPC   PO448912  36.176  44.687   5.853
 8786POPC   GL148913  36.100  44.658   6.153
 8786POPC   GL248914  36.215  44.565   6.153
 8786POPC   C1A48915  36.167  44.632   6.453
 8786POPC   D2A48916  36.083  44.639   6.753
 8786POPC   C3A48917  36.106  44.709   7.053
 8786POPC   C4A48918  36.169  44.684   7.353
 8786POPC   C1B48919  36.271  44.436   6.453
 8786POPC   C2B48920  36.322  44.450   6.753
 8786POPC   C3B48921  36.276  44.439   7.053
 8786POPC   C4B48922  36.256  44.507   7.353
 8787POPC   NC348923  19.023  31.456   5.553
 8787POPC   PO448924  19.048  31.459   5.853
 8787POPC   GL148925  19.038  31.486   6.153
 8787POPC   GL248926  18.997  31.531   6.153
 8787POPC   C1A48927  19.103  31.456   6.453
 8787POPC   D2A48928  19.051  31.518   6.753
 8787POPC   C3A48929  19.074  31.469   7.053
 8787POPC   C4A48930  19.086  31.517   7.353
 8787POPC   C1B48931  18.804  31.566   6.453
 8787POPC   C2B48932  18.878  31.633   6.753
 8787POPC   C3B48933  18.851  31.579   7.053
 8787POPC   C4B48934  18.836  31.608   7.353
 8788POPC   NC348935   0.484   1.195   5.553
 8788POPC   PO448936   0.436   1.185   5.853
 8788POPC   GL148937   0.408   1.196   6.153
 8788POPC   GL248938   0.416   1.124   6.153
 8788POPC   C1A48939   0.395   1.190   6.453
 8788POPC   D2A48940   0.462   1.205   6.753
 8788POPC   C3A48941   0.412   1.193   7.053
 8788POPC   C4A48942   0.399   1.254   7.353
 8788POPC   C1B48943   0.273   1.027   6.453
 8788POPC   C2B48944   0.275   0.977   6.753
 8788POPC   C3B48945   0.307   0.964   7.053
 8788POPC   C4B48946   0.342   1.011   7.353
 8789POPC   NC348947   3.547  22.965   5.553
 8789POPC   PO448948   3.551  22.985   5.853
 8789POPC   GL148949   3.578  22.985   6.153
 8789POPC   GL248950   3.555  23.015   6.153
 8789POPC   C1A48951   3.542  22.966   6.453
 8789POPC   D2A48952   3.549  22.905   6.753
 8789POPC   C3A48953   3.506  22.914   7.053
 8789POPC   C4A48954   3.588  22.919   7.353
 8789POPC   C1B48955   3.526  23.138   6.453
 8789POPC   C2B48956   3.546  23.180   6.753
 8789POPC   C3B48957   3.488  23.185   7.053
 8789POPC   C4B48958   3.530  23.180   7.353
 8790POPC   NC348959   8.184  34.537   5.553
 8790POPC   PO448960   8.202  34.598   5.853
 8790POPC   GL148961   8.151  34.559   6.153
 8790POPC   GL248962   8.171  34.460   6.153
 8790POPC   C1A48963   8.195  34.600   6.453
 8790POPC   D2A48964   8.239  34.534   6.753
 8790POPC   C3A48965   8.220  34.601   7.053
 8790POPC   C4A48966   8.213  34.586   7.353
 8790POPC   C1B48967   8.101  34.331   6.453
 8790POPC   C2B48968   8.082  34.383   6.753
 8790POPC   C3B48969   8.047  34.390   7.053
 8790POPC   C4B48970   8.063  34.357   7.353
 8791POPC   NC348971  26.048  44.705   5.553
 8791POPC   PO448972  26.020  44.637   5.853
 8791POPC   GL148973  26.078  44.624   6.153
 8791POPC   GL248974  25.970  44.688   6.153
 8791POPC   C1A48975  26.078  44.619   6.453
 8791POPC   D2A48976  26.051  44.698   6.753
 8791POPC   C3A48977  26.025  44.642   7.053
 8791POPC   C4A48978  26.018  44.625   7.353
 8791POPC   C1B48979  25.785  44.825   6.453
 8791POPC   C2B48980  25.779  44.815   6.753
 8791POPC   C3B48981  25.831  44.742   7.053
 8791POPC   C4B48982  25.790  44.808   7.353
 8792POPC   NC348983  27.625  43.936   5.553
 8792POPC   PO448984  27.593  43.841   5.853
 8792POPC   GL148985  27.596  43.935   6.153
 8792POPC   GL248986  27.701  43.966   6.153
 8792POPC   C1A48987  27.574  43.882   6.453
 8792POPC   D2A48988  27.567  43.874   6.753
 8792POPC   C3A48989  27.632  43.891   7.053
 8792POPC   C4A48990  27.606  43.935   7.353
 8792POPC   C1B48991  27.692  44.075   6.453
 8792POPC   C2B48992  27.759  44.154   6.753
 8792POPC   C3B48993  27.742  44.135   7.053
 8792POPC   C4B48994  27.745  44.058   7.353
 8793POPC   NC348995  34.567   1.231   5.553
 8793POPC   PO448996  34.552   1.174   5.853
 8793POPC   GL148997  34.551   1.167   6.153
 8793POPC   GL248998  34.502   1.313   6.153
 8793POPC   C1A48999  34.558   1.189   6.453
 8793POPC   D2A49000  34.585   1.203   6.753
 8793POPC   C3A49001  34.554   1.192   7.053
 8793POPC   C4A49002  34.543   1.185   7.353
 8793POPC   C1B49003  34.411   1.395   6.453
 8793POPC   C2B49004  34.470   1.430   6.753
 8793POPC   C3B49005  34.451   1.395   7.053
 8793POPC   C4B49006  34.466   1.412   7.353
 8794POPC   NC349007  34.564  39.980   5.553
 8794POPC   PO449008  34.559  40.029   5.853
 8794POPC   GL149009  34.549  40.023   6.153
 8794POPC   GL249010  34.704  40.005   6.153
 8794POPC   C1A49011  34.619  40.005   6.453
 8794POPC   D2A49012  34.626  40.011   6.753
 8794POPC   C3A49013  34.590  40.054   7.053
 8794POPC   C4A49014  34.577  40.027   7.353
 8794POPC   C1B49015  34.791  40.019   6.453
 8794POPC   C2B49016  34.800  40.002   6.753
 8794POPC   C3B49017  34.809  40.038   7.053
 8794POPC   C4B49018  34.870  40.046   7.353
 8795POPC   NC349019   1.985  33.774   5.553
 8795POPC   PO449020   2.008  33.805   5.853
 8795POPC   GL149021   2.011  33.838   6.153
 8795POPC   GL249022   2.023  33.699   6.153
 8795POPC   C1A49023   2.015  33.837   6.453
 8795POPC   D2A49024   1.968  33.821   6.753
 8795POPC   C3A49025   1.977  33.791   7.053
 8795POPC   C4A49026   1.943  33.752   7.353
 8795POPC   C1B49027   2.121  33.590   6.453
 8795POPC   C2B49028   2.098  33.535   6.753
 8795POPC   C3B49029   2.087  33.530   7.053
 8795POPC   C4B49030   2.116  33.553   7.353
 8796POPC   NC349031  18.248  36.097   5.553
 8796POPC   PO449032  18.251  36.141   5.853
 8796POPC   GL149033  18.280  36.090   6.153
 8796POPC   GL249034  18.441  36.154   6.153
 8796POPC   C1A49035  18.300  36.143   6.453
 8796POPC   D2A49036  18.309  36.163   6.753
 8796POPC   C3A49037  18.278  36.148   7.053
 8796POPC   C4A49038  18.252  36.117   7.353
 8796POPC   C1B49039  18.507  36.209   6.453
 8796POPC   C2B49040  18.501  36.293   6.753
 8796POPC   C3B49041  18.450  36.209   7.053
 8796POPC   C4B49042  18.475  36.230   7.353
 8797POPC   NC349043  38.482   2.803   5.553
 8797POPC   PO449044  38.467   2.733   5.853
 8797POPC   GL149045  38.502   2.797   6.153
 8797POPC   GL249046  38.511   2.931   6.153
 8797POPC   C1A49047  38.409   2.749   6.453
 8797POPC   D2A49048  38.446   2.728   6.753
 8797POPC   C3A49049  38.465   2.771   7.053
 8797POPC   C4A49050  38.431   2.723   7.353
 8797POPC   C1B49051  38.561   3.034   6.453
 8797POPC   C2B49052  38.522   3.016   6.753
 8797POPC   C3B49053  38.488   3.026   7.053
 8797POPC   C4B49054  38.548   2.956   7.353
 8798POPC   NC349055  10.485  34.611   5.553
 8798POPC   PO449056  10.552  34.595   5.853
 8798POPC   GL149057  10.516  34.562   6.153
 8798POPC   GL249058  10.461  34.662   6.153
 8798POPC   C1A49059  10.548  34.588   6.453
 8798POPC   D2A49060  10.572  34.596   6.753
 8798POPC   C3A49061  10.564  34.533   7.053
 8798POPC   C4A49062  10.546  34.528   7.353
 8798POPC   C1B49063  10.261  34.683   6.453
 8798POPC   C2B49064  10.339  34.677   6.753
 8798POPC   C3B49065  10.342  34.652   7.053
 8798POPC   C4B49066  10.292  34.683   7.353
 8799POPC   NC349067  12.874   8.234   5.553
 8799POPC   PO449068  12.851   8.224   5.853
 8799POPC   GL149069  12.814   8.240   6.153
 8799POPC   GL249070  12.711   8.122   6.153
 8799POPC   C1A49071  12.814   8.211   6.453
 8799POPC   D2A49072  12.888   8.171   6.753
 8799POPC   C3A49073  12.829   8.245   7.053
 8799POPC   C4A49074  12.837   8.218   7.353
 8799POPC   C1B49075  12.657   7.989   6.453
 8799POPC   C2B49076  12.628   8.056   6.753
 8799POPC   C3B49077  12.629   8.040   7.053
 8799POPC   C4B49078  12.683   8.017   7.353
 8800POPC   NC349079   8.191  15.985   5.553
 8800POPC   PO449080   8.241  15.935   5.853
 8800POPC   GL149081   8.192  15.976   6.153
 8800POPC   GL249082   8.162  16.064   6.153
 8800POPC   C1A49083   8.215  15.957   6.453
 8800POPC   D2A49084   8.218  15.973   6.753
 8800POPC   C3A49085   8.216  15.974   7.053
 8800POPC   C4A49086   8.160  15.981   7.353
 8800POPC   C1B49087   8.084  16.203   6.453
 8800POPC   C2B49088   8.140  16.234   6.753
 8800POPC   C3B49089   8.092  16.235   7.053
 8800POPC   C4B49090   8.166  16.230   7.353
 8801POPC   NC349091  20.644  18.322   5.553
 8801POPC   PO449092  20.563  18.251   5.853
 8801POPC   GL149093  20.586  18.243   6.153
 8801POPC   GL249094  20.589  18.434   6.153
 8801POPC   C1A49095  20.562  18.269   6.453
 8801POPC   D2A49096  20.582  18.326   6.753
 8801POPC   C3A49097  20.580  18.248   7.053
 8801POPC   C4A49098  20.624  18.250   7.353
 8801POPC   C1B49099  20.533  18.521   6.453
 8801POPC   C2B49100  20.554  18.509   6.753
 8801POPC   C3B49101  20.517  18.502   7.053
 8801POPC   C4B49102  20.500  18.494   7.353
 8802POPC   NC349103   6.631  10.504   5.553
 8802POPC   PO449104   6.621  10.516   5.853
 8802POPC   GL149105   6.665  10.547   6.153
 8802POPC   GL249106   6.588  10.419   6.153
 8802POPC   C1A49107   6.634  10.523   6.453
 8802POPC   D2A49108   6.623  10.572   6.753
 8802POPC   C3A49109   6.683  10.489   7.053
 8802POPC   C4A49110   6.620  10.540   7.353
 8802POPC   C1B49111   6.437  10.335   6.453
 8802POPC   C2B49112   6.466  10.420   6.753
 8802POPC   C3B49113   6.443  10.344   7.053
 8802POPC   C4B49114   6.412  10.362   7.353
 8803POPC   NC349115  15.953  43.107   5.553
 8803POPC   PO449116  15.957  43.126   5.853
 8803POPC   GL149117  15.993  43.101   6.153
 8803POPC   GL249118  16.111  43.151   6.153
 8803POPC   C1A49119  15.925  43.101   6.453
 8803POPC   D2A49120  15.986  43.065   6.753
 8803POPC   C3A49121  15.979  43.113   7.053
 8803POPC   C4A49122  15.998  43.130   7.353
 8803POPC   C1B49123  16.176  43.203   6.453
 8803POPC   C2B49124  16.235  43.175   6.753
 8803POPC   C3B49125  16.236  43.184   7.053
 8803POPC   C4B49126  16.161  43.115   7.353
 8804POPC   NC349127  26.856  13.629   5.553
 8804POPC   PO449128  26.840  13.596   5.853
 8804POPC   GL149129  26.816  13.637   6.153
 8804POPC   GL249130  26.820  13.529   6.153
 8804POPC   C1A49131  26.852  13.643   6.453
 8804POPC   D2A49132  26.833  13.628   6.753
 8804POPC   C3A49133  26.773  13.626   7.053
 8804POPC   C4A49134  26.783  13.673   7.353
 8804POPC   C1B49135  26.912  13.420   6.453
 8804POPC   C2B49136  26.905  13.432   6.753
 8804POPC   C3B49137  26.899  13.433   7.053
 8804POPC   C4B49138  26.898  13.389   7.353
 8805POPC   NC349139  29.174  38.418   5.553
 8805POPC   PO449140  29.159  38.434   5.853
 8805POPC   GL149141  29.190  38.455   6.153
 8805POPC   GL249142  29.169  38.587   6.153
 8805POPC   C1A49143  29.111  38.429   6.453
 8805POPC   D2A49144  29.158  38.465   6.753
 8805POPC   C3A49145  29.107  38.415   7.053
 8805POPC   C4A49146  29.154  38.426   7.353
 8805POPC   C1B49147  29.104  38.713   6.453
 8805POPC   C2B49148  29.109  38.693   6.753
 8805POPC   C3B49149  29.149  38.728   7.053
 8805POPC   C4B49150  29.188  38.750   7.353
 8806POPC   NC349151  29.158  15.186   5.553
 8806POPC   PO449152  29.107  15.176   5.853
 8806POPC   GL149153  29.179  15.216   6.153
 8806POPC   GL249154  29.119  15.291   6.153
 8806POPC   C1A49155  29.164  15.187   6.453
 8806POPC   D2A49156  29.153  15.149   6.753
 8806POPC   C3A49157  29.134  15.139   7.053
 8806POPC   C4A49158  29.158  15.212   7.353
 8806POPC   C1B49159  29.009  15.404   6.453
 8806POPC   C2B49160  29.002  15.371   6.753
 8806POPC   C3B49161  29.051  15.404   7.053
 8806POPC   C4B49162  29.073  15.364   7.353
 8807POPC   NC349163  39.960  12.053   5.553
 8807POPC   PO449164  39.994  12.122   5.853
 8807POPC   GL149165  39.969  12.111   6.153
 8807POPC   GL249166  39.913  11.942   6.153
 8807POPC   C1A49167  40.033  12.124   6.453
 8807POPC   D2A49168  40.036  12.041   6.753
 8807POPC   C3A49169  39.983  12.053   7.053
 8807POPC   C4A49170  40.025  12.052   7.353
 8807POPC   C1B49171  39.920  11.850   6.453
 8807POPC   C2B49172  39.952  11.829   6.753
 8807POPC   C3B49173  39.892  11.813   7.053
 8807POPC   C4B49174  39.864  11.815   7.353
 8808POPC   NC349175  19.012   6.609   5.553
 8808POPC   PO449176  19.072   6.598   5.853
 8808POPC   GL149177  19.035   6.615   6.153
 8808POPC   GL249178  19.092   6.561   6.153
 8808POPC   C1A49179  19.089   6.605   6.453
 8808POPC   D2A49180  19.077   6.689   6.753
 8808POPC   C3A49181  19.089   6.616   7.053
 8808POPC   C4A49182  19.061   6.613   7.353
 8808POPC   C1B49183  19.089   6.371   6.453
 8808POPC   C2B49184  19.135   6.394   6.753
 8808POPC   C3B49185  19.116   6.378   7.053
 8808POPC   C4B49186  19.115   6.362   7.353
 8809POPC   NC349187  31.451  15.929   5.553
 8809POPC   PO449188  31.506  15.910   5.853
 8809POPC   GL149189  31.431  15.948   6.153
 8809POPC   GL249190  31.450  15.803   6.153
 8809POPC   C1A49191  31.439  15.949   6.453
 8809POPC   D2A49192  31.427  15.995   6.753
 8809POPC   C3A49193  31.427  15.951   7.053
 8809POPC   C4A49194  31.474  15.998   7.353
 8809POPC   C1B49195  31.479  15.711   6.453
 8809POPC   C2B49196  31.475  15.708   6.753
 8809POPC   C3B49197  31.448  15.679   7.053
 8809POPC   C4B49198  31.425  15.734   7.353
 8810POPC   NC349199  41.587  43.099   5.553
 8810POPC   PO449200  41.547  43.125   5.853
 8810POPC   GL149201  41.552  43.061   6.153
 8810POPC   GL249202  41.530  43.214   6.153
 8810POPC   C1A49203  41.530  43.141   6.453
 8810POPC   D2A49204  41.529  43.130   6.753
 8810POPC   C3A49205  41.594  43.153   7.053
 8810POPC   C4A49206  41.551  43.093   7.353
 8810POPC   C1B49207  41.451  43.386   6.453
 8810POPC   C2B49208  41.440  43.381   6.753
 8810POPC   C3B49209  41.521  43.310   7.053
 8810POPC   C4B49210  41.434  43.334   7.353
 8811POPC   NC349211  33.031   1.961   5.553
 8811POPC   PO449212  32.995   1.941   5.853
 8811POPC   GL149213  32.982   2.036   6.153
 8811POPC   GL249214  32.938   1.979   6.153
 8811POPC   C1A49215  33.004   2.001   6.453
 8811POPC   D2A49216  33.004   1.980   6.753
 8811POPC   C3A49217  33.048   2.022   7.053
 8811POPC   C4A49218  33.047   1.995   7.353
 8811POPC   C1B49219  32.808   1.903   6.453
 8811POPC   C2B49220  32.769   1.947   6.753
 8811POPC   C3B49221  32.736   1.922   7.053
 8811POPC   C4B49222  32.807   1.962   7.353
 8812POPC   NC349223  17.488  38.468   5.553
 8812POPC   PO449224  17.539  38.447   5.853
 8812POPC   GL149225  17.554  38.406   6.153
 8812POPC   GL249226  17.439  38.344   6.153
 8812POPC   C1A49227  17.550  38.439   6.453
 8812POPC   D2A49228  17.527  38.479   6.753
 8812POPC   C3A49229  17.555  38.478   7.053
 8812POPC   C4A49230  17.463  38.495   7.353
 8812POPC   C1B49231  17.441  38.180   6.453
 8812POPC   C2B49232  17.391  38.272   6.753
 8812POPC   C3B49233  17.374  38.208   7.053
 8812POPC   C4B49234  17.448  38.267   7.353
 8813POPC   NC349235  33.801  42.291   5.553
 8813POPC   PO449236  33.752  42.325   5.853
 8813POPC   GL149237  33.754  42.349   6.153
 8813POPC   GL249238  33.731  42.453   6.153
 8813POPC   C1A49239  33.755  42.337   6.453
 8813POPC   D2A49240  33.823  42.382   6.753
 8813POPC   C3A49241  33.786  42.300   7.053
 8813POPC   C4A49242  33.848  42.340   7.353
 8813POPC   C1B49243  33.742  42.545   6.453
 8813POPC   C2B49244  33.769  42.524   6.753
 8813POPC   C3B49245  33.681  42.615   7.053
 8813POPC   C4B49246  33.750  42.566   7.353
 8814POPC   NC349247  13.669  29.145   5.553
 8814POPC   PO449248  13.623  29.170   5.853
 8814POPC   GL149249  13.609  29.104   6.153
 8814POPC   GL249250  13.711  29.096   6.153
 8814POPC   C1A49251  13.648  29.115   6.453
 8814POPC   D2A49252  13.611  29.182   6.753
 8814POPC   C3A49253  13.625  29.143   7.053
 8814POPC   C4A49254  13.587  29.169   7.353
 8814POPC   C1B49255  13.828  29.105   6.453
 8814POPC   C2B49256  13.868  29.138   6.753
 8814POPC   C3B49257  13.876  29.129   7.053
 8814POPC   C4B49258  13.893  29.105   7.353
 8815POPC   NC349259  39.229  44.648   5.553
 8815POPC   PO449260  39.261  44.678   5.853
 8815POPC   GL149261  39.197  44.688   6.153
 8815POPC   GL249262  39.200  44.740   6.153
 8815POPC   C1A49263  39.279  44.657   6.453
 8815POPC   D2A49264  39.277  44.705   6.753
 8815POPC   C3A49265  39.199  44.679   7.053
 8815POPC   C4A49266  39.222  44.701   7.353
 8815POPC   C1B49267  39.139  44.940   6.453
 8815POPC   C2B49268  39.143  44.875   6.753
 8815POPC   C3B49269  39.161  44.882   7.053
 8815POPC   C4B49270  39.130  44.904   7.353
 8816POPC   NC349271   6.660  35.392   5.553
 8816POPC   PO449272   6.612  35.304   5.853
 8816POPC   GL149273   6.621  35.399   6.153
 8816POPC   GL249274   6.584  35.478   6.153
 8816POPC   C1A49275   6.631  35.310   6.453
 8816POPC   D2A49276   6.667  35.386   6.753
 8816POPC   C3A49277   6.606  35.398   7.053
 8816POPC   C4A49278   6.653  35.311   7.353
 8816POPC   C1B49279   6.461  35.596   6.453
 8816POPC   C2B49280   6.468  35.516   6.753
 8816POPC   C3B49281   6.480  35.519   7.053
 8816POPC   C4B49282   6.521  35.537   7.353
 8817POPC   NC349283  40.823  31.448   5.553
 8817POPC   PO449284  40.798  31.443   5.853
 8817POPC   GL149285  40.801  31.435   6.153
 8817POPC   GL249286  40.851  31.410   6.153
 8817POPC   C1A49287  40.753  31.503   6.453
 8817POPC   D2A49288  40.735  31.428   6.753
 8817POPC   C3A49289  40.777  31.434   7.053
 8817POPC   C4A49290  40.750  31.519   7.353
 8817POPC   C1B49291  40.898  31.233   6.453
 8817POPC   C2B49292  40.915  31.235   6.753
 8817POPC   C3B49293  40.883  31.248   7.053
 8817POPC   C4B49294  40.860  31.300   7.353
 8818POPC   NC349295   8.155   1.189   5.553
 8818POPC   PO449296   8.244   1.197   5.853
 8818POPC   GL149297   8.188   1.254   6.153
 8818POPC   GL249298   8.118   1.179   6.153
 8818POPC   C1A49299   8.211   1.226   6.453
 8818POPC   D2A49300   8.245   1.228   6.753
 8818POPC   C3A49301   8.238   1.191   7.053
 8818POPC   C4A49302   8.148   1.235   7.353
 8818POPC   C1B49303   7.899   1.239   6.453
 8818POPC   C2B49304   7.940   1.242   6.753
 8818POPC   C3B49305   7.980   1.266   7.053
 8818POPC   C4B49306   7.931   1.274   7.353
 8819POPC   NC349307  22.962  23.733   5.553
 8819POPC   PO449308  22.912  23.686   5.853
 8819POPC   GL149309  22.977  23.749   6.153
 8819POPC   GL249310  23.004  23.795   6.153
 8819POPC   C1A49311  22.897  23.761   6.453
 8819POPC   D2A49312  22.958  23.715   6.753
 8819POPC   C3A49313  22.920  23.689   7.053
 8819POPC   C4A49314  22.974  23.715   7.353
 8819POPC   C1B49315  23.146  23.857   6.453
 8819POPC   C2B49316  23.149  23.908   6.753
 8819POPC   C3B49317  23.108  23.857   7.053
 8819POPC   C4B49318  23.121  23.909   7.353
 8820POPC   NC349319  12.101  11.329   5.553
 8820POPC   PO449320  12.050  11.281   5.853
 8820POPC   GL149321  12.055  11.250   6.153
 8820POPC   GL249322  11.961  11.388   6.153
 8820POPC   C1A49323  12.096  11.348   6.453
 8820POPC   D2A49324  12.118  11.331   6.753
 8820POPC   C3A49325  12.064  11.254   7.053
 8820POPC   C4A49326  12.057  11.322   7.353
 8820POPC   C1B49327  11.836  11.447   6.453
 8820POPC   C2B49328  11.856  11.402   6.753
 8820POPC   C3B49329  11.879  11.416   7.053
 8820POPC   C4B49330  11.855  11.396   7.353
 8821POPC   NC349331   3.527   3.495   5.553
 8821POPC   PO449332   3.555   3.528   5.853
 8821POPC   GL149333   3.558   3.586   6.153
 8821POPC   GL249334   3.512   3.435   6.153
 8821POPC   C1A49335   3.502   3.520   6.453
 8821POPC   D2A49336   3.503   3.568   6.753
 8821POPC   C3A49337   3.562   3.492   7.053
 8821POPC   C4A49338   3.581   3.572   7.353
 8821POPC   C1B49339   3.449   3.267   6.453
 8821POPC   C2B49340   3.537   3.340   6.753
 8821POPC   C3B49341   3.461   3.324   7.053
 8821POPC   C4B49342   3.460   3.283   7.353
 8822POPC   NC349343  41.580  12.098   5.553
 8822POPC   PO449344  41.557  12.063   5.853
 8822POPC   GL149345  41.563  12.112   6.153
 8822POPC   GL249346  41.727  12.096   6.153
 8822POPC   C1A49347  41.569  12.050   6.453
 8822POPC   D2A49348  41.572  12.045   6.753
 8822POPC   C3A49349  41.555  12.111   7.053
 8822POPC   C4A49350  41.575  12.099   7.353
 8822POPC   C1B49351  41.786  12.072   6.453
 8822POPC   C2B49352  41.772  12.127   6.753
 8822POPC   C3B49353  41.792  12.097   7.053
 8822POPC   C4B49354  41.800  12.114   7.353
 8823POPC   NC349355  40.008  14.361   5.553
 8823POPC   PO449356  40.018  14.402   5.853
 8823POPC   GL149357  40.016  14.424   6.153
 8823POPC   GL249358  39.962  14.313   6.153
 8823POPC   C1A49359  40.050  14.451   6.453
 8823POPC   D2A49360  40.056  14.451   6.753
 8823POPC   C3A49361  39.960  14.374   7.053
 8823POPC   C4A49362  40.032  14.426   7.353
 8823POPC   C1B49363  39.894  14.223   6.453
 8823POPC   C2B49364  39.867  14.239   6.753
 8823POPC   C3B49365  39.850  14.211   7.053
 8823POPC   C4B49366  39.824  14.187   7.353
 8824POPC   NC349367  12.059   4.328   5.553
 8824POPC   PO449368  12.043   4.329   5.853
 8824POPC   GL149369  12.071   4.291   6.153
 8824POPC   GL249370  12.180   4.422   6.153
 8824POPC   C1A49371  12.103   4.298   6.453
 8824POPC   D2A49372  12.041   4.320   6.753
 8824POPC   C3A49373  12.092   4.274   7.053
 8824POPC   C4A49374  12.056   4.292   7.353
 8824POPC   C1B49375  12.179   4.566   6.453
 8824POPC   C2B49376  12.251   4.559   6.753
 8824POPC   C3B49377  12.241   4.551   7.053
 8824POPC   C4B49378  12.237   4.495   7.353
 8825POPC   NC349379  42.337  40.827   5.553
 8825POPC   PO449380  42.302  40.826   5.853
 8825POPC   GL149381  42.296  40.806   6.153
 8825POPC   GL249382  42.488  40.732   6.153
 8825POPC   C1A49383  42.311  40.785   6.453
 8825POPC   D2A49384  42.312  40.764   6.753
 8825POPC   C3A49385  42.293  40.807   7.053
 8825POPC   C4A49386  42.336  40.791   7.353
 8825POPC   C1B49387  42.550  40.659   6.453
 8825POPC   C2B49388  42.517  40.644   6.753
 8825POPC   C3B49389  42.523  40.642   7.053
 8825POPC   C4B49390  42.510  40.696   7.353
 8826POPC   NC349391   3.551  21.420   5.553
 8826POPC   PO449392   3.573  21.371   5.853
 8826POPC   GL149393   3.577  21.360   6.153
 8826POPC   GL249394   3.637  21.448   6.153
 8826POPC   C1A49395   3.504  21.395   6.453
 8826POPC   D2A49396   3.518  21.358   6.753
 8826POPC   C3A49397   3.500  21.397   7.053
 8826POPC   C4A49398   3.518  21.355   7.353
 8826POPC   C1B49399   3.751  21.448   6.453
 8826POPC   C2B49400   3.736  21.414   6.753
 8826POPC   C3B49401   3.767  21.489   7.053
 8826POPC   C4B49402   3.743  21.484   7.353
 8827POPC   NC349403  25.256  38.486   5.553
 8827POPC   PO449404  25.298  38.419   5.853
 8827POPC   GL149405  25.272  38.455   6.153
 8827POPC   GL249406  25.282  38.592   6.153
 8827POPC   C1A49407  25.288  38.483   6.453
 8827POPC   D2A49408  25.314  38.469   6.753
 8827POPC   C3A49409  25.245  38.462   7.053
 8827POPC   C4A49410  25.261  38.427   7.353
 8827POPC   C1B49411  25.326  38.714   6.453
 8827POPC   C2B49412  25.303  38.689   6.753
 8827POPC   C3B49413  25.390  38.686   7.053
 8827POPC   C4B49414  25.327  38.686   7.353
 8828POPC   NC349415   2.766   5.077   5.553
 8828POPC   PO449416   2.813   5.043   5.853
 8828POPC   GL149417   2.799   5.083   6.153
 8828POPC   GL249418   2.876   4.963   6.153
 8828POPC   C1A49419   2.806   5.048   6.453
 8828POPC   D2A49420   2.802   5.058   6.753
 8828POPC   C3A49421   2.810   5.101   7.053
 8828POPC   C4A49422   2.794   5.101   7.353
 8828POPC   C1B49423   2.970   4.897   6.453
 8828POPC   C2B49424   2.916   4.869   6.753
 8828POPC   C3B49425   2.977   4.862   7.053
 8828POPC   C4B49426   2.901   4.894   7.353
 8829POPC   NC349427   8.196   6.595   5.553
 8829POPC   PO449428   8.168   6.685   5.853
 8829POPC   GL149429   8.188   6.677   6.153
 8829POPC   GL249430   8.263   6.719   6.153
 8829POPC   C1A49431   8.229   6.653   6.453
 8829POPC   D2A49432   8.235   6.638   6.753
 8829POPC   C3A49433   8.222   6.619   7.053
 8829POPC   C4A49434   8.171   6.600   7.353
 8829POPC   C1B49435   8.401   6.793   6.453
 8829POPC   C2B49436   8.374   6.754   6.753
 8829POPC   C3B49437   8.404   6.795   7.053
 8829POPC   C4B49438   8.444   6.769   7.353
 8830POPC   NC349439  43.077   8.187   5.553
 8830POPC   PO449440  43.130   8.157   5.853
 8830POPC   GL149441  43.103   8.235   6.153
 8830POPC   GL249442  42.997   8.134   6.153
 8830POPC   C1A49443  43.095   8.171   6.453
 8830POPC   D2A49444  43.121   8.170   6.753
 8830POPC   C3A49445  43.093   8.181   7.053
 8830POPC   C4A49446  43.063   8.223   7.353
 8830POPC   C1B49447  42.874   8.020   6.453
 8830POPC   C2B49448  42.952   8.040   6.753
 8830POPC   C3B49449  42.886   7.998   7.053
 8830POPC   C4B49450  42.865   8.026   7.353
 8831POPC   NC349451  39.217   8.999   5.553
 8831POPC   PO449452  39.220   9.010   5.853
 8831POPC   GL149453  39.272   8.927   6.153
 8831POPC   GL249454  39.343   8.923   6.153
 8831POPC   C1A49455  39.181   8.950   6.453
 8831POPC   D2A49456  39.269   8.991   6.753
 8831POPC   C3A49457  39.199   8.974   7.053
 8831POPC   C4A49458  39.230   8.952   7.353
 8831POPC   C1B49459  39.423   8.853   6.453
 8831POPC   C2B49460  39.449   8.903   6.753
 8831POPC   C3B49461  39.515   8.865   7.053
 8831POPC   C4B49462  39.472   8.893   7.353
 8832POPC   NC349463   7.396  21.403   5.553
 8832POPC   PO449464   7.452  21.368   5.853
 8832POPC   GL149465   7.429  21.432   6.153
 8832POPC   GL249466   7.451  21.474   6.153
 8832POPC   C1A49467   7.445  21.375   6.453
 8832POPC   D2A49468   7.407  21.343   6.753
 8832POPC   C3A49469   7.444  21.370   7.053
 8832POPC   C4A49470   7.396  21.392   7.353
 8832POPC   C1B49471   7.396  21.609   6.453
 8832POPC   C2B49472   7.359  21.652   6.753
 8832POPC   C3B49473   7.443  21.612   7.053
 8832POPC   C4B49474   7.424  21.597   7.353
 8833POPC   NC349475  10.477   8.177   5.553
 8833POPC   PO449476  10.567   8.169   5.853
 8833POPC   GL149477  10.562   8.245   6.153
 8833POPC   GL249478  10.462   8.295   6.153
 8833POPC   C1A49479  10.561   8.237   6.453
 8833POPC   D2A49480  10.476   8.209   6.753
 8833POPC   C3A49481  10.513   8.192   7.053
 8833POPC   C4A49482  10.485   8.245   7.353
 8833POPC   C1B49483  10.468   8.398   6.453
 8833POPC   C2B49484  10.513   8.419   6.753
 8833POPC   C3B49485  10.496   8.462   7.053
 8833POPC   C4B49486  10.505   8.421   7.353
 8834POPC   NC349487  26.846  27.551   5.553
 8834POPC   PO449488  26.830  27.596   5.853
 8834POPC   GL149489  26.799  27.568   6.153
 8834POPC   GL249490  26.684  27.531   6.153
 8834POPC   C1A49491  26.804  27.613   6.453
 8834POPC   D2A49492  26.835  27.626   6.753
 8834POPC   C3A49493  26.834  27.592   7.053
 8834POPC   C4A49494  26.822  27.571   7.353
 8834POPC   C1B49495  26.545  27.442   6.453
 8834POPC   C2B49496  26.607  27.478   6.753
 8834POPC   C3B49497  26.544  27.445   7.053
 8834POPC   C4B49498  26.573  27.496   7.353
 8835POPC   NC349499  34.565   5.858   5.553
 8835POPC   PO449500  34.610   5.890   5.853
 8835POPC   GL149501  34.622   5.885   6.153
 8835POPC   GL249502  34.554   5.705   6.153
 8835POPC   C1A49503  34.575   5.850   6.453
 8835POPC   D2A49504  34.565   5.855   6.753
 8835POPC   C3A49505  34.555   5.841   7.053
 8835POPC   C4A49506  34.580   5.874   7.353
 8835POPC   C1B49507  34.624   5.634   6.453
 8835POPC   C2B49508  34.592   5.573   6.753
 8835POPC   C3B49509  34.588   5.615   7.053
 8835POPC   C4B49510  34.558   5.670   7.353
 8836POPC   NC349511   0.401  36.884   5.553
 8836POPC   PO449512   0.456  36.945   5.853
 8836POPC   GL149513   0.392  36.949   6.153
 8836POPC   GL249514   0.368  36.981   6.153
 8836POPC   C1A49515   0.463  36.929   6.453
 8836POPC   D2A49516   0.451  36.888   6.753
 8836POPC   C3A49517   0.455  36.883   7.053
 8836POPC   C4A49518   0.406  36.906   7.353
 8836POPC   C1B49519   0.393  37.174   6.453
 8836POPC   C2B49520   0.320  37.122   6.753
 8836POPC   C3B49521   0.368  37.168   7.053
 8836POPC   C4B49522   0.334  37.154   7.353
 8837POPC   NC349523  41.547  43.847   5.553
 8837POPC   PO449524  41.566  43.901   5.853
 8837POPC   GL149525  41.581  43.845   6.153
 8837POPC   GL249526  41.654  43.958   6.153
 8837POPC   C1A49527  41.536  43.865   6.453
 8837POPC   D2A49528  41.578  43.853   6.753
 8837POPC   C3A49529  41.591  43.880   7.053
 8837POPC   C4A49530  41.538  43.845   7.353
 8837POPC   C1B49531  41.759  43.941   6.453
 8837POPC   C2B49532  41.758  43.940   6.753
 8837POPC   C3B49533  41.809  43.977   7.053
 8837POPC   C4B49534  41.758  43.969   7.353
 8838POPC   NC349535  40.003  26.842   5.553
 8838POPC   PO449536  40.022  26.805   5.853
 8838POPC   GL149537  39.996  26.823   6.153
 8838POPC   GL249538  39.920  26.889   6.153
 8838POPC   C1A49539  39.990  26.831   6.453
 8838POPC   D2A49540  40.027  26.836   6.753
 8838POPC   C3A49541  40.021  26.784   7.053
 8838POPC   C4A49542  40.037  26.773   7.353
 8838POPC   C1B49543  39.756  26.845   6.453
 8838POPC   C2B49544  39.771  26.889   6.753
 8838POPC   C3B49545  39.749  26.836   7.053
 8838POPC   C4B49546  39.718  26.885   7.353
 8839POPC   NC349547  18.304  32.211   5.553
 8839POPC   PO449548  18.275  32.263   5.853
 8839POPC   GL149549  18.252  32.245   6.153
 8839POPC   GL249550  18.438  32.195   6.153
 8839POPC   C1A49551  18.269  32.292   6.453
 8839POPC   D2A49552  18.233  32.289   6.753
 8839POPC   C3A49553  18.304  32.243   7.053
 8839POPC   C4A49554  18.253  32.260   7.353
 8839POPC   C1B49555  18.545  32.205   6.453
 8839POPC   C2B49556  18.571  32.231   6.753
 8839POPC   C3B49557  18.557  32.244   7.053
 8839POPC   C4B49558  18.489  32.183   7.353
 8840POPC   NC349559  21.378  18.324   5.553
 8840POPC   PO449560  21.373  18.313   5.853
 8840POPC   GL149561  21.372  18.324   6.153
 8840POPC   GL249562  21.390  18.441   6.153
 8840POPC   C1A49563  21.337  18.318   6.453
 8840POPC   D2A49564  21.383  18.268   6.753
 8840POPC   C3A49565  21.428  18.273   7.053
 8840POPC   C4A49566  21.370  18.274   7.353
 8840POPC   C1B49567  21.390  18.542   6.453
 8840POPC   C2B49568  21.448  18.570   6.753
 8840POPC   C3B49569  21.450  18.488   7.053
 8840POPC   C4B49570  21.417  18.551   7.353
 8841POPC   NC349571   1.166  37.667   5.553
 8841POPC   PO449572   1.228  37.644   5.853
 8841POPC   GL149573   1.226  37.666   6.153
 8841POPC   GL249574   1.235  37.580   6.153
 8841POPC   C1A49575   1.252  37.680   6.453
 8841POPC   D2A49576   1.173  37.637   6.753
 8841POPC   C3A49577   1.196  37.643   7.053
 8841POPC   C4A49578   1.240  37.723   7.353
 8841POPC   C1B49579   1.315  37.516   6.453
 8841POPC   C2B49580   1.346  37.452   6.753
 8841POPC   C3B49581   1.350  37.515   7.053
 8841POPC   C4B49582   1.381  37.509   7.353
 8842POPC   NC349583  28.329  19.014   5.553
 8842POPC   PO449584  28.359  19.019   5.853
 8842POPC   GL149585  28.365  19.076   6.153
 8842POPC   GL249586  28.307  19.002   6.153
 8842POPC   C1A49587  28.338  19.087   6.453
 8842POPC   D2A49588  28.330  19.023   6.753
 8842POPC   C3A49589  28.377  19.091   7.053
 8842POPC   C4A49590  28.357  19.022   7.353
 8842POPC   C1B49591  28.173  18.910   6.453
 8842POPC   C2B49592  28.227  18.842   6.753
 8842POPC   C3B49593  28.224  18.874   7.053
 8842POPC   C4B49594  28.150  18.871   7.353
 8843POPC   NC349595  14.392   7.467   5.553
 8843POPC   PO449596  14.408   7.383   5.853
 8843POPC   GL149597  14.376   7.443   6.153
 8843POPC   GL249598  14.544   7.391   6.153
 8843POPC   C1A49599  14.403   7.464   6.453
 8843POPC   D2A49600  14.452   7.459   6.753
 8843POPC   C3A49601  14.380   7.466   7.053
 8843POPC   C4A49602  14.453   7.427   7.353
 8843POPC   C1B49603  14.589   7.369   6.453
 8843POPC   C2B49604  14.650   7.314   6.753
 8843POPC   C3B49605  14.679   7.331   7.053
 8843POPC   C4B49606  14.626   7.379   7.353
 8844POPC   NC349607  10.554   8.944   5.553
 8844POPC   PO449608  10.565   8.990   5.853
 8844POPC   GL149609  10.553   8.978   6.153
 8844POPC   GL249610  10.619   9.052   6.153
 8844POPC   C1A49611  10.478   9.008   6.453
 8844POPC   D2A49612  10.566   9.016   6.753
 8844POPC   C3A49613  10.536   8.962   7.053
 8844POPC   C4A49614  10.533   8.958   7.353
 8844POPC   C1B49615  10.735   9.059   6.453
 8844POPC   C2B49616  10.783   9.063   6.753
 8844POPC   C3B49617  10.769   9.018   7.053
 8844POPC   C4B49618  10.771   9.022   7.353
 8845POPC   NC349619  11.279  43.109   5.553
 8845POPC   PO449620  11.273  43.131   5.853
 8845POPC   GL149621  11.283  43.088   6.153
 8845POPC   GL249622  11.299  43.013   6.153
 8845POPC   C1A49623  11.284  43.151   6.453
 8845POPC   D2A49624  11.311  43.155   6.753
 8845POPC   C3A49625  11.331  43.141   7.053
 8845POPC   C4A49626  11.331  43.071   7.353
 8845POPC   C1B49627  11.279  42.870   6.453
 8845POPC   C2B49628  11.252  42.864   6.753
 8845POPC   C3B49629  11.273  42.824   7.053
 8845POPC   C4B49630  11.276  42.919   7.353
 8846POPC   NC349631  40.034  43.076   5.553
 8846POPC   PO449632  40.025  43.156   5.853
 8846POPC   GL149633  39.998  43.076   6.153
 8846POPC   GL249634  39.887  43.155   6.153
 8846POPC   C1A49635  40.050  43.126   6.453
 8846POPC   D2A49636  39.973  43.063   6.753
 8846POPC   C3A49637  39.971  43.129   7.053
 8846POPC   C4A49638  40.000  43.147   7.353
 8846POPC   C1B49639  39.744  43.081   6.453
 8846POPC   C2B49640  39.767  43.119   6.753
 8846POPC   C3B49641  39.780  43.096   7.053
 8846POPC   C4B49642  39.775  43.071   7.353
 8847POPC   NC349643  26.777  10.476   5.553
 8847POPC   PO449644  26.792  10.531   5.853
 8847POPC   GL149645  26.806  10.521   6.153
 8847POPC   GL249646  26.736  10.472   6.153
 8847POPC   C1A49647  26.788  10.565   6.453
 8847POPC   D2A49648  26.774  10.494   6.753
 8847POPC   C3A49649  26.825  10.485   7.053
 8847POPC   C4A49650  26.785  10.476   7.353
 8847POPC   C1B49651  26.607  10.325   6.453
 8847POPC   C2B49652  26.599  10.355   6.753
 8847POPC   C3B49653  26.643  10.362   7.053
 8847POPC   C4B49654  26.585  10.406   7.353
 8848POPC   NC349655  36.952  25.273   5.553
 8848POPC   PO449656  36.868  25.238   5.853
 8848POPC   GL149657  36.904  25.216   6.153
 8848POPC   GL249658  36.884  25.424   6.153
 8848POPC   C1A49659  36.885  25.285   6.453
 8848POPC   D2A49660  36.877  25.234   6.753
 8848POPC   C3A49661  36.927  25.291   7.053
 8848POPC   C4A49662  36.868  25.241   7.353
 8848POPC   C1B49663  36.917  25.545   6.453
 8848POPC   C2B49664  36.901  25.486   6.753
 8848POPC   C3B49665  36.887  25.497   7.053
 8848POPC   C4B49666  36.836  25.562   7.353
 8849POPC   NC349667   8.973   3.513   5.553
 8849POPC   PO449668   8.926   3.534   5.853
 8849POPC   GL149669   8.950   3.532   6.153
 8849POPC   GL249670   8.890   3.517   6.153
 8849POPC   C1A49671   9.007   3.497   6.453
 8849POPC   D2A49672   8.990   3.554   6.753
 8849POPC   C3A49673   8.934   3.591   7.053
 8849POPC   C4A49674   8.957   3.533   7.353
 8849POPC   C1B49675   8.723   3.429   6.453
 8849POPC   C2B49676   8.752   3.449   6.753
 8849POPC   C3B49677   8.768   3.357   7.053
 8849POPC   C4B49678   8.794   3.444   7.353
 8850POPC   NC349679  39.198  28.407   5.553
 8850POPC   PO449680  39.191  28.335   5.853
 8850POPC   GL149681  39.253  28.399   6.153
 8850POPC   GL249682  39.295  28.465   6.153
 8850POPC   C1A49683  39.185  28.380   6.453
 8850POPC   D2A49684  39.217  28.373   6.753
 8850POPC   C3A49685  39.242  28.354   7.053
 8850POPC   C4A49686  39.209  28.340   7.353
 8850POPC   C1B49687  39.480  28.520   6.453
 8850POPC   C2B49688  39.440  28.495   6.753
 8850POPC   C3B49689  39.443  28.542   7.053
 8850POPC   C4B49690  39.421  28.462   7.353
 8851POPC   NC349691  39.190  17.536   5.553
 8851POPC   PO449692  39.183  17.465   5.853
 8851POPC   GL149693  39.279  17.549   6.153
 8851POPC   GL249694  39.173  17.382   6.153
 8851POPC   C1A49695  39.222  17.519   6.453
 8851POPC   D2A49696  39.276  17.531   6.753
 8851POPC   C3A49697  39.263  17.463   7.053
 8851POPC   C4A49698  39.244  17.538   7.353
 8851POPC   C1B49699  39.222  17.290   6.453
 8851POPC   C2B49700  39.218  17.258   6.753
 8851POPC   C3B49701  39.173  17.280   7.053
 8851POPC   C4B49702  39.225  17.267   7.353
 8852POPC   NC349703  19.063  39.252   5.553
 8852POPC   PO449704  19.059  39.207   5.853
 8852POPC   GL149705  19.046  39.226   6.153
 8852POPC   GL249706  18.935  39.259   6.153
 8852POPC   C1A49707  19.023  39.263   6.453
 8852POPC   D2A49708  19.097  39.223   6.753
 8852POPC   C3A49709  19.028  39.240   7.053
 8852POPC   C4A49710  19.095  39.219   7.353
 8852POPC   C1B49711  18.812  39.214   6.453
 8852POPC   C2B49712  18.858  39.210   6.753
 8852POPC   C3B49713  18.824  39.188   7.053
 8852POPC   C4B49714  18.842  39.258   7.353
 8853POPC   NC349715   9.779   1.244   5.553
 8853POPC   PO449716   9.743   1.173   5.853
 8853POPC   GL149717   9.711   1.230   6.153
 8853POPC   GL249718   9.772   1.365   6.153
 8853POPC   C1A49719   9.785   1.248   6.453
 8853POPC   D2A49720   9.789   1.181   6.753
 8853POPC   C3A49721   9.737   1.176   7.053
 8853POPC   C4A49722   9.745   1.260   7.353
 8853POPC   C1B49723   9.832   1.418   6.453
 8853POPC   C2B49724   9.874   1.412   6.753
 8853POPC   C3B49725   9.869   1.409   7.053
 8853POPC   C4B49726   9.890   1.467   7.353
 8854POPC   NC349727   6.607  12.096   5.553
 8854POPC   PO449728   6.626  12.074   5.853
 8854POPC   GL149729   6.611  12.106   6.153
 8854POPC   GL249730   6.511  12.121   6.153
 8854POPC   C1A49731   6.639  12.096   6.453
 8854POPC   D2A49732   6.691  12.046   6.753
 8854POPC   C3A49733   6.602  12.112   7.053
 8854POPC   C4A49734   6.672  12.038   7.353
 8854POPC   C1B49735   6.410  12.088   6.453
 8854POPC   C2B49736   6.431  12.078   6.753
 8854POPC   C3B49737   6.396  12.104   7.053
 8854POPC   C4B49738   6.366  12.073   7.353
 8855POPC   NC349739  34.600  24.476   5.553
 8855POPC   PO449740  34.566  24.523   5.853
 8855POPC   GL149741  34.578  24.479   6.153
 8855POPC   GL249742  34.719  24.518   6.153
 8855POPC   C1A49743  34.577  24.489   6.453
 8855POPC   D2A49744  34.591  24.474   6.753
 8855POPC   C3A49745  34.559  24.464   7.053
 8855POPC   C4A49746  34.556  24.530   7.353
 8855POPC   C1B49747  34.757  24.650   6.453
 8855POPC   C2B49748  34.776  24.635   6.753
 8855POPC   C3B49749  34.781  24.579   7.053
 8855POPC   C4B49750  34.786  24.622   7.353
 8856POPC   NC349751  15.941  33.828   5.553
 8856POPC   PO449752  15.989  33.758   5.853
 8856POPC   GL149753  15.959  33.820   6.153
 8856POPC   GL249754  16.079  33.736   6.153
 8856POPC   C1A49755  16.000  33.777   6.453
 8856POPC   D2A49756  15.919  33.793   6.753
 8856POPC   C3A49757  15.999  33.812   7.053
 8856POPC   C4A49758  15.984  33.782   7.353
 8856POPC   C1B49759  16.100  33.653   6.453
 8856POPC   C2B49760  16.151  33.610   6.753
 8856POPC   C3B49761  16.084  33.641   7.053
 8856POPC   C4B49762  16.125  33.585   7.353
 8857POPC   NC349763   8.930   8.221   5.553
 8857POPC   PO449764   8.948   8.197   5.853
 8857POPC   GL149765   8.961   8.185   6.153
 8857POPC   GL249766   8.846   8.187   6.153
 8857POPC   C1A49767   9.021   8.222   6.453
 8857POPC   D2A49768   9.001   8.149   6.753
 8857POPC   C3A49769   8.999   8.191   7.053
 8857POPC   C4A49770   8.944   8.245   7.353
 8857POPC   C1B49771   8.688   8.226   6.453
 8857POPC   C2B49772   8.753   8.239   6.753
 8857POPC   C3B49773   8.725   8.295   7.053
 8857POPC   C4B49774   8.728   8.265   7.353
 8858POPC   NC349775  17.524  36.169   5.553
 8858POPC   PO449776  17.515  36.166   5.853
 8858POPC   GL149777  17.468  36.167   6.153
 8858POPC   GL249778  17.377  36.135   6.153
 8858POPC   C1A49779  17.550  36.133   6.453
 8858POPC   D2A49780  17.470  36.143   6.753
 8858POPC   C3A49781  17.508  36.082   7.053
 8858POPC   C4A49782  17.468  36.172   7.353
 8858POPC   C1B49783  17.268  36.254   6.453
 8858POPC   C2B49784  17.277  36.166   6.753
 8858POPC   C3B49785  17.280  36.259   7.053
 8858POPC   C4B49786  17.308  36.235   7.353
 8859POPC   NC349787   6.682  11.333   5.553
 8859POPC   PO449788   6.688  11.308   5.853
 8859POPC   GL149789   6.657  11.277   6.153
 8859POPC   GL249790   6.633  11.473   6.153
 8859POPC   C1A49791   6.644  11.279   6.453
 8859POPC   D2A49792   6.631  11.273   6.753
 8859POPC   C3A49793   6.687  11.317   7.053
 8859POPC   C4A49794   6.650  11.307   7.353
 8859POPC   C1B49795   6.686  11.540   6.453
 8859POPC   C2B49796   6.685  11.598   6.753
 8859POPC   C3B49797   6.623  11.585   7.053
 8859POPC   C4B49798   6.692  11.544   7.353
 8860POPC   NC349799  29.921  18.237   5.553
 8860POPC   PO449800  29.940  18.263   5.853
 8860POPC   GL149801  29.915  18.254   6.153
 8860POPC   GL249802  29.844  18.150   6.153
 8860POPC   C1A49803  29.887  18.272   6.453
 8860POPC   D2A49804  29.879  18.290   6.753
 8860POPC   C3A49805  29.950  18.272   7.053
 8860POPC   C4A49806  29.916  18.280   7.353
 8860POPC   C1B49807  29.818  18.026   6.453
 8860POPC   C2B49808  29.862  17.996   6.753
 8860POPC   C3B49809  29.830  18.027   7.053
 8860POPC   C4B49810  29.807  18.033   7.353
 8861POPC   NC349811  12.803   2.795   5.553
 8861POPC   PO449812  12.804   2.746   5.853
 8861POPC   GL149813  12.847   2.747   6.153
 8861POPC   GL249814  12.856   2.681   6.153
 8861POPC   C1A49815  12.837   2.784   6.453
 8861POPC   D2A49816  12.877   2.808   6.753
 8861POPC   C3A49817  12.811   2.739   7.053
 8861POPC   C4A49818  12.828   2.755   7.353
 8861POPC   C1B49819  12.907   2.549   6.453
 8861POPC   C2B49820  12.946   2.532   6.753
 8861POPC   C3B49821  12.948   2.548   7.053
 8861POPC   C4B49822  12.916   2.520   7.353
 8862POPC   NC349823  21.392  36.916   5.553
 8862POPC   PO449824  21.397  36.898   5.853
 8862POPC   GL149825  21.401  36.950   6.153
 8862POPC   GL249826  21.244  36.874   6.153
 8862POPC   C1A49827  21.341  36.911   6.453
 8862POPC   D2A49828  21.365  36.861   6.753
 8862POPC   C3A49829  21.383  36.907   7.053
 8862POPC   C4A49830  21.360  36.857   7.353
 8862POPC   C1B49831  21.154  36.794   6.453
 8862POPC   C2B49832  21.165  36.750   6.753
 8862POPC   C3B49833  21.202  36.776   7.053
 8862POPC   C4B49834  21.128  36.794   7.353
 8863POPC   NC349835   7.371  28.324   5.553
 8863POPC   PO449836   7.392  28.413   5.853
 8863POPC   GL149837   7.456  28.404   6.153
 8863POPC   GL249838   7.389  28.282   6.153
 8863POPC   C1A49839   7.458  28.387   6.453
 8863POPC   D2A49840   7.379  28.407   6.753
 8863POPC   C3A49841   7.452  28.409   7.053
 8863POPC   C4A49842   7.448  28.403   7.353
 8863POPC   C1B49843   7.329  28.204   6.453
 8863POPC   C2B49844   7.291  28.202   6.753
 8863POPC   C3B49845   7.250  28.123   7.053
 8863POPC   C4B49846   7.283  28.136   7.353
 8864POPC   NC349847  35.389  27.595   5.553
 8864POPC   PO449848  35.362  27.553   5.853
 8864POPC   GL149849  35.330  27.584   6.153
 8864POPC   GL249850  35.412  27.479   6.153
 8864POPC   C1A49851  35.368  27.589   6.453
 8864POPC   D2A49852  35.337  27.640   6.753
 8864POPC   C3A49853  35.337  27.617   7.053
 8864POPC   C4A49854  35.392  27.614   7.353
 8864POPC   C1B49855  35.461  27.402   6.453
 8864POPC   C2B49856  35.453  27.376   6.753
 8864POPC   C3B49857  35.467  27.384   7.053
 8864POPC   C4B49858  35.451  27.400   7.353
 8865POPC   NC349859  33.845  32.204   5.553
 8865POPC   PO449860  33.816  32.275   5.853
 8865POPC   GL149861  33.769  32.255   6.153
 8865POPC   GL249862  33.794  32.405   6.153
 8865POPC   C1A49863  33.835  32.288   6.453
 8865POPC   D2A49864  33.833  32.262   6.753
 8865POPC   C3A49865  33.769  32.251   7.053
 8865POPC   C4A49866  33.783  32.254   7.353
 8865POPC   C1B49867  33.853  32.486   6.453
 8865POPC   C2B49868  33.881  32.509   6.753
 8865POPC   C3B49869  33.880  32.524   7.053
 8865POPC   C4B49870  33.906  32.516   7.353
 8866POPC   NC349871  42.349  14.434   5.553
 8866POPC   PO449872  42.364  14.365   5.853
 8866POPC   GL149873  42.342  14.426   6.153
 8866POPC   GL249874  42.368  14.556   6.153
 8866POPC   C1A49875  42.355  14.381   6.453
 8866POPC   D2A49876  42.356  14.414   6.753
 8866POPC   C3A49877  42.320  14.408   7.053
 8866POPC   C4A49878  42.373  14.391   7.353
 8866POPC   C1B49879  42.386  14.652   6.453
 8866POPC   C2B49880  42.338  14.608   6.753
 8866POPC   C3B49881  42.392  14.616   7.053
 8866POPC   C4B49882  42.414  14.622   7.353
 8867POPC   NC349883  15.914   8.165   5.553
 8867POPC   PO449884  15.971   8.188   5.853
 8867POPC   GL149885  15.979   8.203   6.153
 8867POPC   GL249886  15.943   8.368   6.153
 8867POPC   C1A49887  15.974   8.177   6.453
 8867POPC   D2A49888  15.942   8.170   6.753
 8867POPC   C3A49889  16.001   8.201   7.053
 8867POPC   C4A49890  15.990   8.245   7.353
 8867POPC   C1B49891  15.917   8.479   6.453
 8867POPC   C2B49892  15.966   8.426   6.753
 8867POPC   C3B49893  15.909   8.434   7.053
 8867POPC   C4B49894  15.954   8.412   7.353
 8868POPC   NC349895  25.233  15.999   5.553
 8868POPC   PO449896  25.314  15.929   5.853
 8868POPC   GL149897  25.223  15.937   6.153
 8868POPC   GL249898  25.405  16.033   6.153
 8868POPC   C1A49899  25.224  15.952   6.453
 8868POPC   D2A49900  25.242  15.940   6.753
 8868POPC   C3A49901  25.221  15.971   7.053
 8868POPC   C4A49902  25.291  15.924   7.353
 8868POPC   C1B49903  25.487  16.162   6.453
 8868POPC   C2B49904  25.426  16.105   6.753
 8868POPC   C3B49905  25.481  16.126   7.053
 8868POPC   C4B49906  25.441  16.126   7.353
 8869POPC   NC349907  27.558   8.154   5.553
 8869POPC   PO449908  27.584   8.169   5.853
 8869POPC   GL149909  27.642   8.185   6.153
 8869POPC   GL249910  27.519   8.204   6.153
 8869POPC   C1A49911  27.565   8.187   6.453
 8869POPC   D2A49912  27.584   8.220   6.753
 8869POPC   C3A49913  27.629   8.173   7.053
 8869POPC   C4A49914  27.568   8.180   7.353
 8869POPC   C1B49915  27.359   8.082   6.453
 8869POPC   C2B49916  27.322   8.093   6.753
 8869POPC   C3B49917  27.398   8.125   7.053
 8869POPC   C4B49918  27.371   8.143   7.353
 8870POPC   NC349919  38.456  16.695   5.553
 8870POPC   PO449920  38.430  16.713   5.853
 8870POPC   GL149921  38.408  16.706   6.153
 8870POPC   GL249922  38.568  16.776   6.153
 8870POPC   C1A49923  38.460  16.686   6.453
 8870POPC   D2A49924  38.491  16.773   6.753
 8870POPC   C3A49925  38.504  16.718   7.053
 8870POPC   C4A49926  38.438  16.772   7.353
 8870POPC   C1B49927  38.726  16.738   6.453
 8870POPC   C2B49928  38.686  16.760   6.753
 8870POPC   C3B49929  38.740  16.713   7.053
 8870POPC   C4B49930  38.738  16.725   7.353
 8871POPC   NC349931   5.890   8.241   5.553
 8871POPC   PO449932   5.828   8.195   5.853
 8871POPC   GL149933   5.869   8.148   6.153
 8871POPC   GL249934   5.832   8.069   6.153
 8871POPC   C1A49935   5.823   8.164   6.453
 8871POPC   D2A49936   5.871   8.193   6.753
 8871POPC   C3A49937   5.866   8.155   7.053
 8871POPC   C4A49938   5.896   8.169   7.353
 8871POPC   C1B49939   5.849   7.992   6.453
 8871POPC   C2B49940   5.826   7.986   6.753
 8871POPC   C3B49941   5.834   7.945   7.053
 8871POPC   C4B49942   5.877   7.975   7.353
 8872POPC   NC349943  13.638  32.261   5.553
 8872POPC   PO449944  13.667  32.250   5.853
 8872POPC   GL149945  13.674  32.279   6.153
 8872POPC   GL249946  13.714  32.197   6.153
 8872POPC   C1A49947  13.617  32.271   6.453
 8872POPC   D2A49948  13.584  32.229   6.753
 8872POPC   C3A49949  13.595  32.282   7.053
 8872POPC   C4A49950  13.606  32.212   7.353
 8872POPC   C1B49951  13.864  32.266   6.453
 8872POPC   C2B49952  13.858  32.237   6.753
 8872POPC   C3B49953  13.897  32.197   7.053
 8872POPC   C4B49954  13.890  32.194   7.353
 8873POPC   NC349955  19.792  36.121   5.553
 8873POPC   PO449956  19.816  36.083   5.853
 8873POPC   GL149957  19.872  36.157   6.153
 8873POPC   GL249958  19.921  36.196   6.153
 8873POPC   C1A49959  19.795  36.123   6.453
 8873POPC   D2A49960  19.827  36.135   6.753
 8873POPC   C3A49961  19.803  36.124   7.053
 8873POPC   C4A49962  19.799  36.144   7.353
 8873POPC   C1B49963  20.043  36.202   6.453
 8873POPC   C2B49964  20.102  36.250   6.753
 8873POPC   C3B49965  20.097  36.194   7.053
 8873POPC   C4B49966  20.034  36.252   7.353
 8874POPC   NC349967  15.180  27.551   5.553
 8874POPC   PO449968  15.214  27.612   5.853
 8874POPC   GL149969  15.176  27.561   6.153
 8874POPC   GL249970  15.288  27.564   6.153
 8874POPC   C1A49971  15.195  27.547   6.453
 8874POPC   D2A49972  15.155  27.640   6.753
 8874POPC   C3A49973  15.188  27.590   7.053
 8874POPC   C4A49974  15.206  27.634   7.353
 8874POPC   C1B49975  15.384  27.399   6.453
 8874POPC   C2B49976  15.338  27.447   6.753
 8874POPC   C3B49977  15.374  27.426   7.053
 8874POPC   C4B49978  15.408  27.490   7.353
 8875POPC   NC349979  29.171  15.953   5.553
 8875POPC   PO449980  29.168  15.968   5.853
 8875POPC   GL149981  29.167  15.920   6.153
 8875POPC   GL249982  29.056  15.916   6.153
 8875POPC   C1A49983  29.115  15.936   6.453
 8875POPC   D2A49984  29.166  15.960   6.753
 8875POPC   C3A49985  29.147  15.906   7.053
 8875POPC   C4A49986  29.113  15.960   7.353
 8875POPC   C1B49987  28.887  15.976   6.453
 8875POPC   C2B49988  28.853  15.912   6.753
 8875POPC   C3B49989  28.915  15.980   7.053
 8875POPC   C4B49990  28.890  15.981   7.353
 8876POPC   NC349991  15.182  36.865   5.553
 8876POPC   PO449992  15.223  36.881   5.853
 8876POPC   GL149993  15.150  36.865   6.153
 8876POPC   GL249994  15.015  36.923   6.153
 8876POPC   C1A49995  15.160  36.863   6.453
 8876POPC   D2A49996  15.224  36.861   6.753
 8876POPC   C3A49997  15.182  36.941   7.053
 8876POPC   C4A49998  15.172  36.919   7.353
 8876POPC   C1B49999  14.939  36.993   6.453
 8876POPC   C2B50000  14.981  36.926   6.753
 8876POPC   C3B50001  14.910  36.897   7.053
 8876POPC   C4B50002  14.973  36.942   7.353
 8877POPC   NC350003   3.554  32.215   5.553
 8877POPC   PO450004   3.572  32.247   5.853
 8877POPC   GL150005   3.544  32.277   6.153
 8877POPC   GL250006   3.424  32.194   6.153
 8877POPC   C1A50007   3.510  32.236   6.453
 8877POPC   D2A50008   3.492  32.266   6.753
 8877POPC   C3A50009   3.536  32.269   7.053
 8877POPC   C4A50010   3.553  32.293   7.353
 8877POPC   C1B50011   3.388  32.120   6.453
 8877POPC   C2B50012   3.334  32.131   6.753
 8877POPC   C3B50013   3.342  32.069   7.053
 8877POPC   C4B50014   3.356  32.143   7.353
 8878POPC   NC350015  29.114   7.407   5.553
 8878POPC   PO450016  29.186   7.432   5.853
 8878POPC   GL150017  29.162   7.462   6.153
 8878POPC   GL250018  29.099   7.285   6.153
 8878POPC   C1A50019  29.097   7.411   6.453
 8878POPC   D2A50020  29.109   7.432   6.753
 8878POPC   C3A50021  29.180   7.382   7.053
 8878POPC   C4A50022  29.121   7.375   7.353
 8878POPC   C1B50023  28.966   7.187   6.453
 8878POPC   C2B50024  28.979   7.240   6.753
 8878POPC   C3B50025  28.995   7.208   7.053
 8878POPC   C4B50026  28.968   7.213   7.353
 8879POPC   NC350027  15.208  14.425   5.553
 8879POPC   PO450028  15.182  14.404   5.853
 8879POPC   GL150029  15.137  14.438   6.153
 8879POPC   GL250030  15.083  14.358   6.153
 8879POPC   C1A50031  15.203  14.439   6.453
 8879POPC   D2A50032  15.153  14.359   6.753
 8879POPC   C3A50033  15.132  14.377   7.053
 8879POPC   C4A50034  15.130  14.435   7.353
 8879POPC   C1B50035  14.964  14.386   6.453
 8879POPC   C2B50036  14.902  14.375   6.753
 8879POPC   C3B50037  14.964  14.413   7.053
 8879POPC   C4B50038  14.920  14.394   7.353
 8880POPC   NC350039  37.668  15.962   5.553
 8880POPC   PO450040  37.715  15.999   5.853
 8880POPC   GL150041  37.702  15.918   6.153
 8880POPC   GL250042  37.530  15.879   6.153
 8880POPC   C1A50043  37.724  15.942   6.453
 8880POPC   D2A50044  37.700  15.955   6.753
 8880POPC   C3A50045  37.664  16.000   7.053
 8880POPC   C4A50046  37.682  15.996   7.353
 8880POPC   C1B50047  37.392  15.837   6.453
 8880POPC   C2B50048  37.426  15.910   6.753
 8880POPC   C3B50049  37.392  15.879   7.053
 8880POPC   C4B50050  37.404  15.839   7.353
 8881POPC   NC350051  22.209  36.084   5.553
 8881POPC   PO450052  22.176  36.096   5.853
 8881POPC   GL150053  22.181  36.103   6.153
 8881POPC   GL250054  22.230  36.047   6.153
 8881POPC   C1A50055  22.212  36.078   6.453
 8881POPC   D2A50056  22.151  36.163   6.753
 8881POPC   C3A50057  22.119  36.177   7.053
 8881POPC   C4A50058  22.157  36.154   7.353
 8881POPC   C1B50059  22.290  35.902   6.453
 8881POPC   C2B50060  22.291  35.941   6.753
 8881POPC   C3B50061  22.245  35.887   7.053
 8881POPC   C4B50062  22.310  35.862   7.353
 8882POPC   NC350063   8.995  19.881   5.553
 8882POPC   PO450064   8.938  19.845   5.853
 8882POPC   GL150065   9.009  19.868   6.153
 8882POPC   GL250066   9.103  19.762   6.153
 8882POPC   C1A50067   8.949  19.854   6.453
 8882POPC   D2A50068   8.989  19.864   6.753
 8882POPC   C3A50069   9.003  19.789   7.053
 8882POPC   C4A50070   8.933  19.821   7.353
 8882POPC   C1B50071   9.148  19.636   6.453
 8882POPC   C2B50072   9.151  19.674   6.753
 8882POPC   C3B50073   9.112  19.682   7.053
 8882POPC   C4B50074   9.115  19.696   7.353
 8883POPC   NC350075  13.614  14.399   5.553
 8883POPC   PO450076  13.648  14.405   5.853
 8883POPC   GL150077  13.645  14.360   6.153
 8883POPC   GL250078  13.570  14.521   6.153
 8883POPC   C1A50079  13.669  14.366   6.453
 8883POPC   D2A50080  13.612  14.431   6.753
 8883POPC   C3A50081  13.663  14.414   7.053
 8883POPC   C4A50082  13.624  14.390   7.353
 8883POPC   C1B50083  13.652  14.605   6.453
 8883POPC   C2B50084  13.572  14.655   6.753
 8883POPC   C3B50085  13.567  14.654   7.053
 8883POPC   C4B50086  13.592  14.639   7.353
 8884POPC   NC350087  26.006  43.071   5.553
 8884POPC   PO450088  26.057  43.109   5.853
 8884POPC   GL150089  26.009  43.066   6.153
 8884POPC   GL250090  26.146  43.173   6.153
 8884POPC   C1A50091  26.047  43.120   6.453
 8884POPC   D2A50092  26.023  43.113   6.753
 8884POPC   C3A50093  26.072  43.103   7.053
 8884POPC   C4A50094  26.085  43.138   7.353
 8884POPC   C1B50095  26.269  43.255   6.453
 8884POPC   C2B50096  26.244  43.311   6.753
 8884POPC   C3B50097  26.250  43.323   7.053
 8884POPC   C4B50098  26.276  43.269   7.353
 8885POPC   NC350099  34.559  18.264   5.553
 8885POPC   PO450100  34.549  18.317   5.853
 8885POPC   GL150101  34.595  18.236   6.153
 8885POPC   GL250102  34.661  18.327   6.153
 8885POPC   C1A50103  34.570  18.273   6.453
 8885POPC   D2A50104  34.614  18.273   6.753
 8885POPC   C3A50105  34.598  18.313   7.053
 8885POPC   C4A50106  34.529  18.240   7.353
 8885POPC   C1B50107  34.770  18.444   6.453
 8885POPC   C2B50108  34.818  18.382   6.753
 8885POPC   C3B50109  34.737  18.401   7.053
 8885POPC   C4B50110  34.829  18.379   7.353
 8886POPC   NC350111  15.223  15.199   5.553
 8886POPC   PO450112  15.140  15.196   5.853
 8886POPC   GL150113  15.217  15.178   6.153
 8886POPC   GL250114  15.243  15.285   6.153
 8886POPC   C1A50115  15.187  15.133   6.453
 8886POPC   D2A50116  15.199  15.136   6.753
 8886POPC   C3A50117  15.195  15.130   7.053
 8886POPC   C4A50118  15.217  15.193   7.353
 8886POPC   C1B50119  15.259  15.393   6.453
 8886POPC   C2B50120  15.298  15.434   6.753
 8886POPC   C3B50121  15.284  15.396   7.053
 8886POPC   C4B50122  15.349  15.373   7.353
 8887POPC   NC350123  19.077   1.187   5.553
 8887POPC   PO450124  19.029   1.184   5.853
 8887POPC   GL150125  19.101   1.167   6.153
 8887POPC   GL250126  19.141   1.221   6.153
 8887POPC   C1A50127  19.016   1.263   6.453
 8887POPC   D2A50128  19.034   1.194   6.753
 8887POPC   C3A50129  19.043   1.257   7.053
 8887POPC   C4A50130  19.014   1.166   7.353
 8887POPC   C1B50131  19.337   1.213   6.453
 8887POPC   C2B50132  19.285   1.176   6.753
 8887POPC   C3B50133  19.348   1.218   7.053
 8887POPC   C4B50134  19.264   1.260   7.353
 8888POPC   NC350135  23.675  29.952   5.553
 8888POPC   PO450136  23.709  29.923   5.853
 8888POPC   GL150137  23.672  29.897   6.153
 8888POPC   GL250138  23.818  30.019   6.153
 8888POPC   C1A50139  23.669  29.902   6.453
 8888POPC   D2A50140  23.740  29.892   6.753
 8888POPC   C3A50141  23.672  29.880   7.053
 8888POPC   C4A50142  23.665  29.894   7.353
 8888POPC   C1B50143  23.896  30.157   6.453
 8888POPC   C2B50144  23.864  30.150   6.753
 8888POPC   C3B50145  23.899  30.142   7.053
 8888POPC   C4B50146  23.832  30.084   7.353
 8889POPC   NC350147  30.746  28.364   5.553
 8889POPC   PO450148  30.680  28.386   5.853
 8889POPC   GL150149  30.696  28.332   6.153
 8889POPC   GL250150  30.601  28.428   6.153
 8889POPC   C1A50151  30.665  28.365   6.453
 8889POPC   D2A50152  30.652  28.392   6.753
 8889POPC   C3A50153  30.727  28.359   7.053
 8889POPC   C4A50154  30.733  28.371   7.353
 8889POPC   C1B50155  30.495  28.475   6.453
 8889POPC   C2B50156  30.461  28.485   6.753
 8889POPC   C3B50157  30.515  28.481   7.053
 8889POPC   C4B50158  30.511  28.508   7.353
 8890POPC   NC350159  43.912   1.209   5.553
 8890POPC   PO450160  43.895   1.172   5.853
 8890POPC   GL150161  43.904   1.210   6.153
 8890POPC   GL250162  44.001   1.158   6.153
 8890POPC   C1A50163  43.913   1.205   6.453
 8890POPC   D2A50164  43.859   1.219   6.753
 8890POPC   C3A50165  43.891   1.204   7.053
 8890POPC   C4A50166  43.854   1.259   7.353
 8890POPC   C1B50167  44.101   1.039   6.453
 8890POPC   C2B50168  44.088   1.039   6.753
 8890POPC   C3B50169  44.098   1.057   7.053
 8890POPC   C4B50170  44.094   1.048   7.353
 8891POPC   NC350171  36.855  23.748   5.553
 8891POPC   PO450172  36.855  23.679   5.853
 8891POPC   GL150173  36.877  23.747   6.153
 8891POPC   GL250174  36.775  23.728   6.153
 8891POPC   C1A50175  36.906  23.703   6.453
 8891POPC   D2A50176  36.902  23.729   6.753
 8891POPC   C3A50177  36.944  23.754   7.053
 8891POPC   C4A50178  36.885  23.666   7.353
 8891POPC   C1B50179  36.680  23.835   6.453
 8891POPC   C2B50180  36.710  23.788   6.753
 8891POPC   C3B50181  36.713  23.787   7.053
 8891POPC   C4B50182  36.704  23.826   7.353
 8892POPC   NC350183  30.675  36.172   5.553
 8892POPC   PO450184  30.699  36.081   5.853
 8892POPC   GL150185  30.687  36.109   6.153
 8892POPC   GL250186  30.644  35.975   6.153
 8892POPC   C1A50187  30.669  36.114   6.453
 8892POPC   D2A50188  30.737  36.110   6.753
 8892POPC   C3A50189  30.663  36.103   7.053
 8892POPC   C4A50190  30.674  36.108   7.353
 8892POPC   C1B50191  30.551  35.945   6.453
 8892POPC   C2B50192  30.645  35.893   6.753
 8892POPC   C3B50193  30.561  35.867   7.053
 8892POPC   C4B50194  30.603  35.880   7.353
 8893POPC   NC350195  15.976  21.356   5.553
 8893POPC   PO450196  15.944  21.360   5.853
 8893POPC   GL150197  15.959  21.361   6.153
 8893POPC   GL250198  15.846  21.293   6.153
 8893POPC   C1A50199  15.954  21.404   6.453
 8893POPC   D2A50200  15.909  21.424   6.753
 8893POPC   C3A50201  15.918  21.356   7.053
 8893POPC   C4A50202  15.932  21.366   7.353
 8893POPC   C1B50203  15.729  21.195   6.453
 8893POPC   C2B50204  15.763  21.232   6.753
 8893POPC   C3B50205  15.753  21.199   7.053
 8893POPC   C4B50206  15.797  21.205   7.353
 8894POPC   NC350207   3.541  30.651   5.553
 8894POPC   PO450208   3.517  30.714   5.853
 8894POPC   GL150209   3.527  30.663   6.153
 8894POPC   GL250210   3.536  30.770   6.153
 8894POPC   C1A50211   3.580  30.725   6.453
 8894POPC   D2A50212   3.556  30.728   6.753
 8894POPC   C3A50213   3.532  30.700   7.053
 8894POPC   C4A50214   3.529  30.648   7.353
 8894POPC   C1B50215   3.603  30.932   6.453
 8894POPC   C2B50216   3.609  30.951   6.753
 8894POPC   C3B50217   3.612  30.907   7.053
 8894POPC   C4B50218   3.647  30.893   7.353
 8895POPC   NC350219  29.125  30.710   5.553
 8895POPC   PO450220  29.131  30.706   5.853
 8895POPC   GL150221  29.132  30.648   6.153
 8895POPC   GL250222  29.253  30.739   6.153
 8895POPC   C1A50223  29.193  30.649   6.453
 8895POPC   D2A50224  29.120  30.701   6.753
 8895POPC   C3A50225  29.146  30.734   7.053
 8895POPC   C4A50226  29.098  30.660   7.353
 8895POPC   C1B50227  29.426  30.658   6.453
 8895POPC   C2B50228  29.369  30.711   6.753
 8895POPC   C3B50229  29.351  30.717   7.053
 8895POPC   C4B50230  29.409  30.708   7.353
 8896POPC   NC350231  24.498  20.608   5.553
 8896POPC   PO450232  24.520  20.650   5.853
 8896POPC   GL150233  24.520  20.634   6.153
 8896POPC   GL250234  24.430  20.514   6.153
 8896POPC   C1A50235  24.480  20.660   6.453
 8896POPC   D2A50236  24.520  20.582   6.753
 8896POPC   C3A50237  24.456  20.620   7.053
 8896POPC   C4A50238  24.513  20.621   7.353
 8896POPC   C1B50239  24.457  20.371   6.453
 8896POPC   C2B50240  24.480  20.317   6.753
 8896POPC   C3B50241  24.456  20.332   7.053
 8896POPC   C4B50242  24.482  20.376   7.353
 8897POPC   NC350243  27.547  15.185   5.553
 8897POPC   PO450244  27.616  15.189   5.853
 8897POPC   GL150245  27.602  15.189   6.153
 8897POPC   GL250246  27.507  15.123   6.153
 8897POPC   C1A50247  27.560  15.201   6.453
 8897POPC   D2A50248  27.601  15.229   6.753
 8897POPC   C3A50249  27.637  15.166   7.053
 8897POPC   C4A50250  27.609  15.157   7.353
 8897POPC   C1B50251  27.471  14.983   6.453
 8897POPC   C2B50252  27.447  15.032   6.753
 8897POPC   C3B50253  27.446  14.947   7.053
 8897POPC   C4B50254  27.473  14.989   7.353
 8898POPC   NC350255  19.063   9.723   5.553
 8898POPC   PO450256  19.016   9.709   5.853
 8898POPC   GL150257  19.026   9.753   6.153
 8898POPC   GL250258  18.914   9.722   6.153
 8898POPC   C1A50259  19.107   9.720   6.453
 8898POPC   D2A50260  19.017   9.765   6.753
 8898POPC   C3A50261  19.054   9.745   7.053
 8898POPC   C4A50262  19.042   9.771   7.353
 8898POPC   C1B50263  18.830   9.689   6.453
 8898POPC   C2B50264  18.809   9.678   6.753
 8898POPC   C3B50265  18.824   9.686   7.053
 8898POPC   C4B50266  18.869   9.649   7.353
 8899POPC   NC350267   6.643   5.112   5.553
 8899POPC   PO450268   6.641   5.119   5.853
 8899POPC   GL150269   6.671   5.133   6.153
 8899POPC   GL250270   6.520   5.102   6.153
 8899POPC   C1A50271   6.672   5.105   6.453
 8899POPC   D2A50272   6.694   5.083   6.753
 8899POPC   C3A50273   6.627   5.125   7.053
 8899POPC   C4A50274   6.656   5.096   7.353
 8899POPC   C1B50275   6.458   5.157   6.453
 8899POPC   C2B50276   6.463   5.155   6.753
 8899POPC   C3B50277   6.426   5.189   7.053
 8899POPC   C4B50278   6.397   5.156   7.353
 8900POPC   NC350279  16.773   2.764   5.553
 8900POPC   PO450280  16.704   2.815   5.853
 8900POPC   GL150281  16.710   2.740   6.153
 8900POPC   GL250282  16.692   2.624   6.153
 8900POPC   C1A50283  16.707   2.771   6.453
 8900POPC   D2A50284  16.777   2.743   6.753
 8900POPC   C3A50285  16.764   2.743   7.053
 8900POPC   C4A50286  16.739   2.802   7.353
 8900POPC   C1B50287  16.753   2.494   6.453
 8900POPC   C2B50288  16.776   2.478   6.753
 8900POPC   C3B50289  16.712   2.478   7.053
 8900POPC   C4B50290  16.727   2.491   7.353
 8901POPC   NC350291  11.288  29.926   5.553
 8901POPC   PO450292  11.277  29.924   5.853
 8901POPC   GL150293  11.316  29.935   6.153
 8901POPC   GL250294  11.309  30.060   6.153
 8901POPC   C1A50295  11.279  29.911   6.453
 8901POPC   D2A50296  11.330  29.931   6.753
 8901POPC   C3A50297  11.291  29.918   7.053
 8901POPC   C4A50298  11.307  29.880   7.353
 8901POPC   C1B50299  11.376  30.157   6.453
 8901POPC   C2B50300  11.356  30.190   6.753
 8901POPC   C3B50301  11.432  30.114   7.053
 8901POPC   C4B50302  11.369  30.189   7.353
 8902POPC   NC350303   3.566  10.564   5.553
 8902POPC   PO450304   3.523  10.522   5.853
 8902POPC   GL150305   3.515  10.487   6.153
 8902POPC   GL250306   3.582  10.631   6.153
 8902POPC   C1A50307   3.525  10.474   6.453
 8902POPC   D2A50308   3.529  10.571   6.753
 8902POPC   C3A50309   3.527  10.507   7.053
 8902POPC   C4A50310   3.563  10.552   7.353
 8902POPC   C1B50311   3.509  10.749   6.453
 8902POPC   C2B50312   3.529  10.766   6.753
 8902POPC   C3B50313   3.562  10.804   7.053
 8902POPC   C4B50314   3.585  10.802   7.353
 8903POPC   NC350315  13.622   5.091   5.553
 8903POPC   PO450316  13.641   5.126   5.853
 8903POPC   GL150317  13.598   5.046   6.153
 8903POPC   GL250318  13.483   5.041   6.153
 8903POPC   C1A50319  13.622   5.049   6.453
 8903POPC   D2A50320  13.649   5.044   6.753
 8903POPC   C3A50321  13.642   5.092   7.053
 8903POPC   C4A50322  13.677   5.131   7.353
 8903POPC   C1B50323  13.442   4.988   6.453
 8903POPC   C2B50324  13.431   4.932   6.753
 8903POPC   C3B50325  13.455   4.974   7.053
 8903POPC   C4B50326  13.415   4.989   7.353
 8904POPC   NC350327  35.372  29.151   5.553
 8904POPC   PO450328  35.311  29.194   5.853
 8904POPC   GL150329  35.386  29.189   6.153
 8904POPC   GL250330  35.232  29.219   6.153
 8904POPC   C1A50331  35.394  29.180   6.453
 8904POPC   D2A50332  35.380  29.155   6.753
 8904POPC   C3A50333  35.334  29.133   7.053
 8904POPC   C4A50334  35.341  29.113   7.353
 8904POPC   C1B50335  35.152  29.349   6.453
 8904POPC   C2B50336  35.184  29.326   6.753
 8904POPC   C3B50337  35.164  29.298   7.053
 8904POPC   C4B50338  35.192  29.374   7.353
 8905POPC   NC350339  44.669  20.657   5.553
 8905POPC   PO450340  44.641  20.658   5.853
 8905POPC   GL150341  44.638  20.598   6.153
 8905POPC   GL250342  44.605  20.543   6.153
 8905POPC   C1A50343  44.656  20.646   6.453
 8905POPC   D2A50344  44.619  20.594   6.753
 8905POPC   C3A50345  44.635  20.588   7.053
 8905POPC   C4A50346  44.674  20.566   7.353
 8905POPC   C1B50347  44.523  20.405   6.453
 8905POPC   C2B50348  44.479  20.376   6.753
 8905POPC   C3B50349  44.476  20.388   7.053
 8905POPC   C4B50350  44.526  20.403   7.353
 8906POPC   NC350351   8.992   0.457   5.553
 8906POPC   PO450352   8.933   0.406   5.853
 8906POPC   GL150353   8.972   0.423   6.153
 8906POPC   GL250354   9.042   0.590   6.153
 8906POPC   C1A50355   8.955   0.452   6.453
 8906POPC   D2A50356   8.968   0.451   6.753
 8906POPC   C3A50357   9.001   0.463   7.053
 8906POPC   C4A50358   8.944   0.471   7.353
 8906POPC   C1B50359   9.068   0.661   6.453
 8906POPC   C2B50360   9.065   0.636   6.753
 8906POPC   C3B50361   9.050   0.662   7.053
 8906POPC   C4B50362   9.051   0.670   7.353
 8907POPC   NC350363  20.570  36.130   5.553
 8907POPC   PO450364  20.642  36.089   5.853
 8907POPC   GL150365  20.615  36.105   6.153
 8907POPC   GL250366  20.615  36.212   6.153
 8907POPC   C1A50367  20.572  36.157   6.453
 8907POPC   D2A50368  20.611  36.113   6.753
 8907POPC   C3A50369  20.628  36.090   7.053
 8907POPC   C4A50370  20.629  36.160   7.353
 8907POPC   C1B50371  20.572  36.339   6.453
 8907POPC   C2B50372  20.589  36.354   6.753
 8907POPC   C3B50373  20.596  36.400   7.053
 8907POPC   C4B50374  20.534  36.401   7.353
 8908POPC   NC350375   1.973  41.523   5.553
 8908POPC   PO450376   1.956  41.594   5.853
 8908POPC   GL150377   2.014  41.589   6.153
 8908POPC   GL250378   2.125  41.528   6.153
 8908POPC   C1A50379   2.002  41.587   6.453
 8908POPC   D2A50380   1.955  41.596   6.753
 8908POPC   C3A50381   2.007  41.535   7.053
 8908POPC   C4A50382   1.952  41.518   7.353
 8908POPC   C1B50383   2.253  41.516   6.453
 8908POPC   C2B50384   2.254  41.556   6.753
 8908POPC   C3B50385   2.200  41.546   7.053
 8908POPC   C4B50386   2.197  41.517   7.353
 8909POPC   NC350387  17.519  19.035   5.553
 8909POPC   PO450388  17.548  19.079   5.853
 8909POPC   GL150389  17.527  19.019   6.153
 8909POPC   GL250390  17.444  19.113   6.153
 8909POPC   C1A50391  17.513  19.063   6.453
 8909POPC   D2A50392  17.474  19.013   6.753
 8909POPC   C3A50393  17.501  19.074   7.053
 8909POPC   C4A50394  17.528  19.048   7.353
 8909POPC   C1B50395  17.359  19.222   6.453
 8909POPC   C2B50396  17.316  19.196   6.753
 8909POPC   C3B50397  17.325  19.232   7.053
 8909POPC   C4B50398  17.281  19.215   7.353
 8910POPC   NC350399  37.674  11.251   5.553
 8910POPC   PO450400  37.691  11.341   5.853
 8910POPC   GL150401  37.646  11.334   6.153
 8910POPC   GL250402  37.630  11.393   6.153
 8910POPC   C1A50403  37.649  11.338   6.453
 8910POPC   D2A50404  37.704  11.277   6.753
 8910POPC   C3A50405  37.672  11.255   7.053
 8910POPC   C4A50406  37.688  11.258   7.353
 8910POPC   C1B50407  37.497  11.479   6.453
 8910POPC   C2B50408  37.531  11.469   6.753
 8910POPC   C3B50409  37.480  11.444   7.053
 8910POPC   C4B50410  37.542  11.452   7.353
 8911POPC   NC350411  16.722   3.546   5.553
 8911POPC   PO450412  16.743   3.581   5.853
 8911POPC   GL150413  16.698   3.498   6.153
 8911POPC   GL250414  16.593   3.629   6.153
 8911POPC   C1A50415  16.743   3.527   6.453
 8911POPC   D2A50416  16.712   3.503   6.753
 8911POPC   C3A50417  16.697   3.521   7.053
 8911POPC   C4A50418  16.743   3.494   7.353
 8911POPC   C1B50419  16.527   3.694   6.453
 8911POPC   C2B50420  16.526   3.667   6.753
 8911POPC   C3B50421  16.529   3.731   7.053
 8911POPC   C4B50422  16.580   3.732   7.353
 8912POPC   NC350423  22.987   2.716   5.553
 8912POPC   PO450424  22.918   2.798   5.853
 8912POPC   GL150425  22.950   2.744   6.153
 8912POPC   GL250426  22.933   2.844   6.153
 8912POPC   C1A50427  22.929   2.800   6.453
 8912POPC   D2A50428  22.946   2.790   6.753
 8912POPC   C3A50429  22.949   2.733   7.053
 8912POPC   C4A50430  22.933   2.763   7.353
 8912POPC   C1B50431  22.811   2.983   6.453
 8912POPC   C2B50432  22.801   2.981   6.753
 8912POPC   C3B50433  22.811   2.967   7.053
 8912POPC   C4B50434  22.819   2.946   7.353
 8913POPC   NC350435  15.188  19.046   5.553
 8913POPC   PO450436  15.177  19.052   5.853
 8913POPC   GL150437  15.132  19.064   6.153
 8913POPC   GL250438  15.150  18.931   6.153
 8913POPC   C1A50439  15.149  19.080   6.453
 8913POPC   D2A50440  15.212  19.047   6.753
 8913POPC   C3A50441  15.226  19.019   7.053
 8913POPC   C4A50442  15.165  19.059   7.353
 8913POPC   C1B50443  15.198  18.781   6.453
 8913POPC   C2B50444  15.175  18.813   6.753
 8913POPC   C3B50445  15.175  18.858   7.053
 8913POPC   C4B50446  15.176  18.845   7.353
 8914POPC   NC350447  22.139  36.917   5.553
 8914POPC   PO450448  22.124  36.883   5.853
 8914POPC   GL150449  22.152  36.901   6.153
 8914POPC   GL250450  22.318  36.915   6.153
 8914POPC   C1A50451  22.143  36.870   6.453
 8914POPC   D2A50452  22.160  36.894   6.753
 8914POPC   C3A50453  22.167  36.950   7.053
 8914POPC   C4A50454  22.134  36.928   7.353
 8914POPC   C1B50455  22.396  36.980   6.453
 8914POPC   C2B50456  22.413  36.988   6.753
 8914POPC   C3B50457  22.445  36.980   7.053
 8914POPC   C4B50458  22.375  37.025   7.353
 8915POPC   NC350459  36.118  13.625   5.553
 8915POPC   PO450460  36.098  13.642   5.853
 8915POPC   GL150461  36.157  13.595   6.153
 8915POPC   GL250462  36.193  13.765   6.153
 8915POPC   C1A50463  36.124  13.675   6.453
 8915POPC   D2A50464  36.173  13.652   6.753
 8915POPC   C3A50465  36.106  13.611   7.053
 8915POPC   C4A50466  36.155  13.635   7.353
 8915POPC   C1B50467  36.260  13.808   6.453
 8915POPC   C2B50468  36.242  13.849   6.753
 8915POPC   C3B50469  36.285  13.811   7.053
 8915POPC   C4B50470  36.240  13.867   7.353
 8916POPC   NC350471  19.099  38.406   5.553
 8916POPC   PO450472  19.083  38.499   5.853
 8916POPC   GL150473  19.064  38.480   6.153
 8916POPC   GL250474  19.112  38.370   6.153
 8916POPC   C1A50475  19.038  38.486   6.453
 8916POPC   D2A50476  19.086  38.474   6.753
 8916POPC   C3A50477  19.014  38.424   7.053
 8916POPC   C4A50478  19.083  38.504   7.353
 8916POPC   C1B50479  19.094  38.172   6.453
 8916POPC   C2B50480  19.043  38.234   6.753
 8916POPC   C3B50481  19.066  38.230   7.053
 8916POPC   C4B50482  19.068  38.166   7.353
 8917POPC   NC350483  31.501  43.083   5.553
 8917POPC   PO450484  31.510  43.139   5.853
 8917POPC   GL150485  31.484  43.088   6.153
 8917POPC   GL250486  31.468  42.999   6.153
 8917POPC   C1A50487  31.515  43.120   6.453
 8917POPC   D2A50488  31.514  43.080   6.753
 8917POPC   C3A50489  31.514  43.126   7.053
 8917POPC   C4A50490  31.429  43.127   7.353
 8917POPC   C1B50491  31.500  42.906   6.453
 8917POPC   C2B50492  31.505  42.862   6.753
 8917POPC   C3B50493  31.452  42.889   7.053
 8917POPC   C4B50494  31.487  42.846   7.353
 8918POPC   NC350495   2.726  43.854   5.553
 8918POPC   PO450496   2.773  43.881   5.853
 8918POPC   GL150497   2.786  43.892   6.153
 8918POPC   GL250498   2.915  43.852   6.153
 8918POPC   C1A50499   2.759  43.891   6.453
 8918POPC   D2A50500   2.743  43.903   6.753
 8918POPC   C3A50501   2.813  43.847   7.053
 8918POPC   C4A50502   2.771  43.926   7.353
 8918POPC   C1B50503   3.004  43.759   6.453
 8918POPC   C2B50504   2.948  43.739   6.753
 8918POPC   C3B50505   3.002  43.715   7.053
 8918POPC   C4B50506   2.959  43.753   7.353
 8919POPC   NC350507  41.534  22.974   5.553
 8919POPC   PO450508  41.600  22.985   5.853
 8919POPC   GL150509  41.529  22.911   6.153
 8919POPC   GL250510  41.545  22.774   6.153
 8919POPC   C1A50511  41.560  22.902   6.453
 8919POPC   D2A50512  41.524  22.912   6.753
 8919POPC   C3A50513  41.522  22.889   7.053
 8919POPC   C4A50514  41.606  22.924   7.353
 8919POPC   C1B50515  41.582  22.705   6.453
 8919POPC   C2B50516  41.543  22.693   6.753
 8919POPC   C3B50517  41.525  22.666   7.053
 8919POPC   C4B50518  41.583  22.704   7.353
 8920POPC   NC350519   4.271  14.440   5.553
 8920POPC   PO450520   4.350  14.376   5.853
 8920POPC   GL150521   4.319  14.396   6.153
 8920POPC   GL250522   4.451  14.397   6.153
 8920POPC   C1A50523   4.324  14.427   6.453
 8920POPC   D2A50524   4.341  14.447   6.753
 8920POPC   C3A50525   4.303  14.378   7.053
 8920POPC   C4A50526   4.319  14.356   7.353
 8920POPC   C1B50527   4.577  14.475   6.453
 8920POPC   C2B50528   4.595  14.469   6.753
 8920POPC   C3B50529   4.607  14.483   7.053
 8920POPC   C4B50530   4.537  14.415   7.353
 8921POPC   NC350531   4.284  29.178   5.553
 8921POPC   PO450532   4.363  29.140   5.853
 8921POPC   GL150533   4.275  29.158   6.153
 8921POPC   GL250534   4.330  29.273   6.153
 8921POPC   C1A50535   4.357  29.105   6.453
 8921POPC   D2A50536   4.296  29.109   6.753
 8921POPC   C3A50537   4.363  29.128   7.053
 8921POPC   C4A50538   4.314  29.157   7.353
 8921POPC   C1B50539   4.372  29.436   6.453
 8921POPC   C2B50540   4.328  29.349   6.753
 8921POPC   C3B50541   4.343  29.433   7.053
 8921POPC   C4B50542   4.400  29.404   7.353
 8922POPC   NC350543  31.464   3.532   5.553
 8922POPC   PO450544  31.423   3.512   5.853
 8922POPC   GL150545  31.513   3.590   6.153
 8922POPC   GL250546  31.306   3.505   6.153
 8922POPC   C1A50547  31.428   3.513   6.453
 8922POPC   D2A50548  31.425   3.566   6.753
 8922POPC   C3A50549  31.444   3.539   7.053
 8922POPC   C4A50550  31.520   3.496   7.353
 8922POPC   C1B50551  31.288   3.489   6.453
 8922POPC   C2B50552  31.264   3.481   6.753
 8922POPC   C3B50553  31.254   3.400   7.053
 8922POPC   C4B50554  31.270   3.497   7.353
 8923POPC   NC350555  42.321   5.113   5.553
 8923POPC   PO450556  42.341   5.047   5.853
 8923POPC   GL150557  42.289   5.090   6.153
 8923POPC   GL250558  42.486   5.108   6.153
 8923POPC   C1A50559  42.340   5.084   6.453
 8923POPC   D2A50560  42.332   5.073   6.753
 8923POPC   C3A50561  42.316   5.065   7.053
 8923POPC   C4A50562  42.335   5.045   7.353
 8923POPC   C1B50563  42.621   5.111   6.453
 8923POPC   C2B50564  42.631   5.095   6.753
 8923POPC   C3B50565  42.537   5.101   7.053
 8923POPC   C4B50566  42.617   5.045   7.353
 8924POPC   NC350567   7.424  39.249   5.553
 8924POPC   PO450568   7.418  39.233   5.853
 8924POPC   GL150569   7.375  39.218   6.153
 8924POPC   GL250570   7.384  39.131   6.153
 8924POPC   C1A50571   7.443  39.190   6.453
 8924POPC   D2A50572   7.373  39.192   6.753
 8924POPC   C3A50573   7.443  39.193   7.053
 8924POPC   C4A50574   7.435  39.221   7.353
 8924POPC   C1B50575   7.233  39.034   6.453
 8924POPC   C2B50576   7.293  39.058   6.753
 8924POPC   C3B50577   7.308  39.009   7.053
 8924POPC   C4B50578   7.266  39.010   7.353
 8925POPC   NC350579  27.582  42.315   5.553
 8925POPC   PO450580  27.559  42.382   5.853
 8925POPC   GL150581  27.575  42.382   6.153
 8925POPC   GL250582  27.553  42.401   6.153
 8925POPC   C1A50583  27.612  42.373   6.453
 8925POPC   D2A50584  27.554  42.313   6.753
 8925POPC   C3A50585  27.593  42.350   7.053
 8925POPC   C4A50586  27.643  42.351   7.353
 8925POPC   C1B50587  27.524  42.576   6.453
 8925POPC   C2B50588  27.464  42.568   6.753
 8925POPC   C3B50589  27.505  42.519   7.053
 8925POPC   C4B50590  27.478  42.545   7.353
 8926POPC   NC350591   4.310  23.702   5.553
 8926POPC   PO450592   4.343  23.737   5.853
 8926POPC   GL150593   4.358  23.701   6.153
 8926POPC   GL250594   4.479  23.734   6.153
 8926POPC   C1A50595   4.298  23.752   6.453
 8926POPC   D2A50596   4.285  23.701   6.753
 8926POPC   C3A50597   4.322  23.733   7.053
 8926POPC   C4A50598   4.289  23.667   7.353
 8926POPC   C1B50599   4.536  23.735   6.453
 8926POPC   C2B50600   4.518  23.673   6.753
 8926POPC   C3B50601   4.608  23.682   7.053
 8926POPC   C4B50602   4.542  23.735   7.353
 8927POPC   NC350603  19.100  22.116   5.553
 8927POPC   PO450604  19.036  22.160   5.853
 8927POPC   GL150605  19.085  22.134   6.153
 8927POPC   GL250606  19.202  22.139   6.153
 8927POPC   C1A50607  19.083  22.203   6.453
 8927POPC   D2A50608  19.088  22.133   6.753
 8927POPC   C3A50609  19.076  22.163   7.053
 8927POPC   C4A50610  19.016  22.186   7.353
 8927POPC   C1B50611  19.310  22.084   6.453
 8927POPC   C2B50612  19.343  22.109   6.753
 8927POPC   C3B50613  19.283  22.063   7.053
 8927POPC   C4B50614  19.308  22.056   7.353
 8928POPC   NC350615   5.080  28.409   5.553
 8928POPC   PO450616   5.044  28.365   5.853
 8928POPC   GL150617   5.046  28.337   6.153
 8928POPC   GL250618   5.144  28.322   6.153
 8928POPC   C1A50619   5.116  28.325   6.453
 8928POPC   D2A50620   5.114  28.382   6.753
 8928POPC   C3A50621   5.067  28.339   7.053
 8928POPC   C4A50622   5.047  28.326   7.353
 8928POPC   C1B50623   5.307  28.236   6.453
 8928POPC   C2B50624   5.308  28.200   6.753
 8928POPC   C3B50625   5.315  28.223   7.053
 8928POPC   C4B50626   5.253  28.189   7.353
 8929POPC   NC350627  17.492  27.640   5.553
 8929POPC   PO450628  17.459  27.565   5.853
 8929POPC   GL150629  17.535  27.562   6.153
 8929POPC   GL250630  17.487  27.713   6.153
 8929POPC   C1A50631  17.543  27.564   6.453
 8929POPC   D2A50632  17.481  27.638   6.753
 8929POPC   C3A50633  17.546  27.587   7.053
 8929POPC   C4A50634  17.534  27.578   7.353
 8929POPC   C1B50635  17.545  27.830   6.453
 8929POPC   C2B50636  17.557  27.802   6.753
 8929POPC   C3B50637  17.546  27.805   7.053
 8929POPC   C4B50638  17.502  27.887   7.353
 8930POPC   NC350639  10.571  37.640   5.553
 8930POPC   PO450640  10.544  37.693   5.853
 8930POPC   GL150641  10.572  37.712   6.153
 8930POPC   GL250642  10.373  37.597   6.153
 8930POPC   C1A50643  10.536  37.663   6.453
 8930POPC   D2A50644  10.523  37.678   6.753
 8930POPC   C3A50645  10.513  37.636   7.053
 8930POPC   C4A50646  10.519  37.669   7.353
 8930POPC   C1B50647  10.265  37.569   6.453
 8930POPC   C2B50648  10.292  37.578   6.753
 8930POPC   C3B50649  10.300  37.602   7.053
 8930POPC   C4B50650  10.249  37.575   7.353
 8931POPC   NC350651   9.019  16.780   5.553
 8931POPC   PO450652   8.950  16.770   5.853
 8931POPC   GL150653   8.953  16.697   6.153
 8931POPC   GL250654   8.901  16.800   6.153
 8931POPC   C1A50655   8.990  16.760   6.453
 8931POPC   D2A50656   8.945  16.755   6.753
 8931POPC   C3A50657   9.005  16.740   7.053
 8931POPC   C4A50658   9.002  16.687   7.353
 8931POPC   C1B50659   8.875  16.983   6.453
 8931POPC   C2B50660   8.869  16.991   6.753
 8931POPC   C3B50661   8.875  16.927   7.053
 8931POPC   C4B50662   8.849  16.966   7.353
 8932POPC   NC350663  21.373  26.048   5.553
 8932POPC   PO450664  21.383  26.089   5.853
 8932POPC   GL150665  21.396  26.068   6.153
 8932POPC   GL250666  21.227  26.090   6.153
 8932POPC   C1A50667  21.394  26.037   6.453
 8932POPC   D2A50668  21.357  26.042   6.753
 8932POPC   C3A50669  21.356  26.000   7.053
 8932POPC   C4A50670  21.382  25.992   7.353
 8932POPC   C1B50671  21.164  26.173   6.453
 8932POPC   C2B50672  21.169  26.124   6.753
 8932POPC   C3B50673  21.131  26.134   7.053
 8932POPC   C4B50674  21.175  26.173   7.353
 8933POPC   NC350675  24.444  30.678   5.553
 8933POPC   PO450676  24.446  30.669   5.853
 8933POPC   GL150677  24.499  30.720   6.153
 8933POPC   GL250678  24.398  30.577   6.153
 8933POPC   C1A50679  24.510  30.741   6.453
 8933POPC   D2A50680  24.454  30.679   6.753
 8933POPC   C3A50681  24.467  30.742   7.053
 8933POPC   C4A50682  24.455  30.662   7.353
 8933POPC   C1B50683  24.287  30.512   6.453
 8933POPC   C2B50684  24.284  30.469   6.753
 8933POPC   C3B50685  24.290  30.493   7.053
 8933POPC   C4B50686  24.317  30.519   7.353
 8934POPC   NC350687   4.342  29.896   5.553
 8934POPC   PO450688   4.366  29.936   5.853
 8934POPC   GL150689   4.359  29.928   6.153
 8934POPC   GL250690   4.242  29.891   6.153
 8934POPC   C1A50691   4.359  29.909   6.453
 8934POPC   D2A50692   4.274  29.937   6.753
 8934POPC   C3A50693   4.365  29.940   7.053
 8934POPC   C4A50694   4.310  29.882   7.353
 8934POPC   C1B50695   4.104  29.813   6.453
 8934POPC   C2B50696   4.123  29.799   6.753
 8934POPC   C3B50697   4.109  29.770   7.053
 8934POPC   C4B50698   4.052  29.786   7.353
 8935POPC   NC350699  41.558  14.378   5.553
 8935POPC   PO450700  41.569  14.358   5.853
 8935POPC   GL150701  41.605  14.361   6.153
 8935POPC   GL250702  41.491  14.293   6.153
 8935POPC   C1A50703  41.514  14.378   6.453
 8935POPC   D2A50704  41.523  14.436   6.753
 8935POPC   C3A50705  41.555  14.428   7.053
 8935POPC   C4A50706  41.553  14.412   7.353
 8935POPC   C1B50707  41.502  14.172   6.453
 8935POPC   C2B50708  41.556  14.118   6.753
 8935POPC   C3B50709  41.522  14.162   7.053
 8935POPC   C4B50710  41.478  14.145   7.353
 8936POPC   NC350711  20.628  29.157   5.553
 8936POPC   PO450712  20.631  29.148   5.853
 8936POPC   GL150713  20.642  29.144   6.153
 8936POPC   GL250714  20.447  29.210   6.153
 8936POPC   C1A50715  20.590  29.159   6.453
 8936POPC   D2A50716  20.583  29.166   6.753
 8936POPC   C3A50717  20.576  29.190   7.053
 8936POPC   C4A50718  20.617  29.105   7.353
 8936POPC   C1B50719  20.394  29.271   6.453
 8936POPC   C2B50720  20.331  29.206   6.753
 8936POPC   C3B50721  20.345  29.218   7.053
 8936POPC   C4B50722  20.388  29.233   7.353
 8937POPC   NC350723   1.998  30.666   5.553
 8937POPC   PO450724   2.006  30.697   5.853
 8937POPC   GL150725   1.960  30.676   6.153
 8937POPC   GL250726   2.093  30.640   6.153
 8937POPC   C1A50727   1.982  30.725   6.453
 8937POPC   D2A50728   2.033  30.728   6.753
 8937POPC   C3A50729   1.976  30.665   7.053
 8937POPC   C4A50730   1.957  30.670   7.353
 8937POPC   C1B50731   2.232  30.641   6.453
 8937POPC   C2B50732   2.181  30.630   6.753
 8937POPC   C3B50733   2.235  30.641   7.053
 8937POPC   C4B50734   2.242  30.602   7.353
 8938POPC   NC350735  10.522  12.033   5.553
 8938POPC   PO450736  10.560  12.039   5.853
 8938POPC   GL150737  10.572  12.109   6.153
 8938POPC   GL250738  10.491  12.179   6.153
 8938POPC   C1A50739  10.503  12.040   6.453
 8938POPC   D2A50740  10.571  12.072   6.753
 8938POPC   C3A50741  10.504  12.097   7.053
 8938POPC   C4A50742  10.555  12.062   7.353
 8938POPC   C1B50743  10.377  12.296   6.453
 8938POPC   C2B50744  10.383  12.235   6.753
 8938POPC   C3B50745  10.385  12.301   7.053
 8938POPC   C4B50746  10.401  12.268   7.353
 8939POPC   NC350747  44.652  30.672   5.553
 8939POPC   PO450748  44.635  30.676   5.853
 8939POPC   GL150749  44.711  30.690   6.153
 8939POPC   GL250750  44.606  30.784   6.153
 8939POPC   C1A50751  44.668  30.659   6.453
 8939POPC   D2A50752  44.618  30.664   6.753
 8939POPC   C3A50753  44.613  30.736   7.053
 8939POPC   C4A50754  44.684  30.724   7.353
 8939POPC   C1B50755  44.466  30.872   6.453
 8939POPC   C2B50756  44.496  30.865   6.753
 8939POPC   C3B50757  44.469  30.853   7.053
 8939POPC   C4B50758  44.491  30.917   7.353
 8940POPC   NC350759  15.906  27.634   5.553
 8940POPC   PO450760  16.002  27.604   5.853
 8940POPC   GL150761  15.930  27.546   6.153
 8940POPC   GL250762  16.095  27.651   6.153
 8940POPC   C1A50763  15.969  27.633   6.453
 8940POPC   D2A50764  15.939  27.562   6.753
 8940POPC   C3A50765  15.955  27.603   7.053
 8940POPC   C4A50766  15.909  27.619   7.353
 8940POPC   C1B50767  16.217  27.678   6.453
 8940POPC   C2B50768  16.213  27.697   6.753
 8940POPC   C3B50769  16.164  27.647   7.053
 8940POPC   C4B50770  16.234  27.650   7.353
 8941POPC   NC350771  39.215  22.142   5.553
 8941POPC   PO450772  39.273  22.206   5.853
 8941POPC   GL150773  39.277  22.176   6.153
 8941POPC   GL250774  39.227  22.235   6.153
 8941POPC   C1A50775  39.233  22.123   6.453
 8941POPC   D2A50776  39.260  22.115   6.753
 8941POPC   C3A50777  39.213  22.122   7.053
 8941POPC   C4A50778  39.201  22.182   7.353
 8941POPC   C1B50779  39.287  22.426   6.453
 8941POPC   C2B50780  39.299  22.376   6.753
 8941POPC   C3B50781  39.316  22.365   7.053
 8941POPC   C4B50782  39.318  22.379   7.353
 8942POPC   NC350783  33.027  43.843   5.553
 8942POPC   PO450784  33.024  43.930   5.853
 8942POPC   GL150785  33.032  43.921   6.153
 8942POPC   GL250786  33.012  43.996   6.153
 8942POPC   C1A50787  33.037  43.843   6.453
 8942POPC   D2A50788  33.042  43.868   6.753
 8942POPC   C3A50789  33.074  43.892   7.053
 8942POPC   C4A50790  33.005  43.927   7.353
 8942POPC   C1B50791  33.065  44.091   6.453
 8942POPC   C2B50792  33.061  44.111   6.753
 8942POPC   C3B50793  33.057  44.103   7.053
 8942POPC   C4B50794  33.090  44.138   7.353
 8943POPC   NC350795  31.488  22.188   5.553
 8943POPC   PO450796  31.512  22.197   5.853
 8943POPC   GL150797  31.425  22.191   6.153
 8943POPC   GL250798  31.547  22.221   6.153
 8943POPC   C1A50799  31.468  22.157   6.453
 8943POPC   D2A50800  31.429  22.139   6.753
 8943POPC   C3A50801  31.454  22.171   7.053
 8943POPC   C4A50802  31.485  22.185   7.353
 8943POPC   C1B50803  31.666  22.310   6.453
 8943POPC   C2B50804  31.633  22.343   6.753
 8943POPC   C3B50805  31.668  22.293   7.053
 8943POPC   C4B50806  31.630  22.353   7.353
 8944POPC   NC350807  18.281  39.196   5.553
 8944POPC   PO450808  18.314  39.190   5.853
 8944POPC   GL150809  18.240  39.233   6.153
 8944POPC   GL250810  18.443  39.263   6.153
 8944POPC   C1A50811  18.320  39.183   6.453
 8944POPC   D2A50812  18.273  39.202   6.753
 8944POPC   C3A50813  18.267  39.197   7.053
 8944POPC   C4A50814  18.292  39.202   7.353
 8944POPC   C1B50815  18.535  39.344   6.453
 8944POPC   C2B50816  18.501  39.316   6.753
 8944POPC   C3B50817  18.506  39.292   7.053
 8944POPC   C4B50818  18.541  39.345   7.353
 8945POPC   NC350819  43.093  17.523   5.553
 8945POPC   PO450820  43.132  17.539   5.853
 8945POPC   GL150821  43.079  17.497   6.153
 8945POPC   GL250822  43.195  17.588   6.153
 8945POPC   C1A50823  43.061  17.469   6.453
 8945POPC   D2A50824  43.114  17.501   6.753
 8945POPC   C3A50825  43.095  17.457   7.053
 8945POPC   C4A50826  43.125  17.473   7.353
 8945POPC   C1B50827  43.299  17.578   6.453
 8945POPC   C2B50828  43.318  17.600   6.753
 8945POPC   C3B50829  43.295  17.626   7.053
 8945POPC   C4B50830  43.350  17.600   7.353
 8946POPC   NC350831  36.900  18.299   5.553
 8946POPC   PO450832  36.943  18.280   5.853
 8946POPC   GL150833  36.924  18.258   6.153
 8946POPC   GL250834  36.820  18.364   6.153
 8946POPC   C1A50835  36.905  18.251   6.453
 8946POPC   D2A50836  36.899  18.317   6.753
 8946POPC   C3A50837  36.944  18.273   7.053
 8946POPC   C4A50838  36.861  18.312   7.353
 8946POPC   C1B50839  36.743  18.439   6.453
 8946POPC   C2B50840  36.727  18.475   6.753
 8946POPC   C3B50841  36.725  18.426   7.053
 8946POPC   C4B50842  36.732  18.413   7.353
 8947POPC   NC350843   4.354  33.051   5.553
 8947POPC   PO450844   4.330  33.003   5.853
 8947POPC   GL150845   4.286  33.063   6.153
 8947POPC   GL250846   4.377  32.891   6.153
 8947POPC   C1A50847   4.333  33.046   6.453
 8947POPC   D2A50848   4.282  33.024   6.753
 8947POPC   C3A50849   4.342  33.047   7.053
 8947POPC   C4A50850   4.305  33.059   7.353
 8947POPC   C1B50851   4.483  32.852   6.453
 8947POPC   C2B50852   4.525  32.844   6.753
 8947POPC   C3B50853   4.495  32.889   7.053
 8947POPC   C4B50854   4.457  32.856   7.353
 8948POPC   NC350855  29.947   0.480   5.553
 8948POPC   PO450856  29.913   0.442   5.853
 8948POPC   GL150857  29.941   0.417   6.153
 8948POPC   GL250858  29.993   0.338   6.153
 8948POPC   C1A50859  29.879   0.471   6.453
 8948POPC   D2A50860  29.967   0.450   6.753
 8948POPC   C3A50861  29.884   0.408   7.053
 8948POPC   C4A50862  29.892   0.471   7.353
 8948POPC   C1B50863  29.944   0.162   6.453
 8948POPC   C2B50864  29.967   0.159   6.753
 8948POPC   C3B50865  30.036   0.182   7.053
 8948POPC   C4B50866  29.985   0.168   7.353
 8949POPC   NC350867  32.278  32.277   5.553
 8949POPC   PO450868  32.252  32.248   5.853
 8949POPC   GL150869  32.278  32.222   6.153
 8949POPC   GL250870  32.141  32.109   6.153
 8949POPC   C1A50871  32.199  32.257   6.453
 8949POPC   D2A50872  32.271  32.274   6.753
 8949POPC   C3A50873  32.234  32.295   7.053
 8949POPC   C4A50874  32.279  32.210   7.353
 8949POPC   C1B50875  32.057  32.028   6.453
 8949POPC   C2B50876  32.122  32.033   6.753
 8949POPC   C3B50877  32.052  32.017   7.053
 8949POPC   C4B50878  32.086  32.058   7.353
 8950POPC   NC350879  38.447  34.593   5.553
 8950POPC   PO450880  38.468  34.526   5.853
 8950POPC   GL150881  38.424  34.582   6.153
 8950POPC   GL250882  38.620  34.641   6.153
 8950POPC   C1A50883  38.480  34.532   6.453
 8950POPC   D2A50884  38.450  34.576   6.753
 8950POPC   C3A50885  38.462  34.593   7.053
 8950POPC   C4A50886  38.485  34.610   7.353
 8950POPC   C1B50887  38.706  34.654   6.453
 8950POPC   C2B50888  38.716  34.657   6.753
 8950POPC   C3B50889  38.724  34.602   7.053
 8950POPC   C4B50890  38.716  34.626   7.353
 8951POPC   NC350891  43.862  18.234   5.553
 8951POPC   PO450892  43.878  18.297   5.853
 8951POPC   GL150893  43.838  18.323   6.153
 8951POPC   GL250894  43.973  18.426   6.153
 8951POPC   C1A50895  43.916  18.322   6.453
 8951POPC   D2A50896  43.871  18.296   6.753
 8951POPC   C3A50897  43.924  18.244   7.053
 8951POPC   C4A50898  43.854  18.243   7.353
 8951POPC   C1B50899  44.011  18.511   6.453
 8951POPC   C2B50900  43.997  18.504   6.753
 8951POPC   C3B50901  43.993  18.468   7.053
 8951POPC   C4B50902  44.044  18.458   7.353
 8952POPC   NC350903  32.230   8.243   5.553
 8952POPC   PO450904  32.222   8.188   5.853
 8952POPC   GL150905  32.263   8.201   6.153
 8952POPC   GL250906  32.332   8.190   6.153
 8952POPC   C1A50907  32.268   8.221   6.453
 8952POPC   D2A50908  32.221   8.226   6.753
 8952POPC   C3A50909  32.237   8.199   7.053
 8952POPC   C4A50910  32.226   8.215   7.353
 8952POPC   C1B50911  32.470   8.099   6.453
 8952POPC   C2B50912  32.481   8.187   6.753
 8952POPC   C3B50913  32.525   8.122   7.053
 8952POPC   C4B50914  32.498   8.174   7.353
 8953POPC   NC350915  43.102   9.782   5.553
 8953POPC   PO450916  43.128   9.708   5.853
 8953POPC   GL150917  43.087   9.712   6.153
 8953POPC   GL250918  43.163   9.784   6.153
 8953POPC   C1A50919  43.156   9.726   6.453
 8953POPC   D2A50920  43.081   9.772   6.753
 8953POPC   C3A50921  43.065   9.751   7.053
 8953POPC   C4A50922  43.069   9.795   7.353
 8953POPC   C1B50923  43.333   9.935   6.453
 8953POPC   C2B50924  43.343   9.938   6.753
 8953POPC   C3B50925  43.334   9.914   7.053
 8953POPC   C4B50926  43.295   9.864   7.353
 8954POPC   NC350927  32.982   8.238   5.553
 8954POPC   PO450928  33.042   8.245   5.853
 8954POPC   GL150929  33.051   8.157   6.153
 8954POPC   GL250930  33.111   8.277   6.153
 8954POPC   C1A50931  33.047   8.147   6.453
 8954POPC   D2A50932  33.037   8.166   6.753
 8954POPC   C3A50933  33.004   8.215   7.053
 8954POPC   C4A50934  32.998   8.202   7.353
 8954POPC   C1B50935  33.226   8.329   6.453
 8954POPC   C2B50936  33.280   8.330   6.753
 8954POPC   C3B50937  33.279   8.311   7.053
 8954POPC   C4B50938  33.228   8.335   7.353
 8955POPC   NC350939  14.441  44.694   5.553
 8955POPC   PO450940  14.383  44.642   5.853
 8955POPC   GL150941  14.362  44.711   6.153
 8955POPC   GL250942  14.520  44.743   6.153
 8955POPC   C1A50943  14.359  44.680   6.453
 8955POPC   D2A50944  14.361  44.646   6.753
 8955POPC   C3A50945  14.406  44.654   7.053
 8955POPC   C4A50946  14.396  44.668   7.353
 8955POPC   C1B50947  14.644  44.793   6.453
 8955POPC   C2B50948  14.660  44.773   6.753
 8955POPC   C3B50949  14.660  44.800   7.053
 8955POPC   C4B50950  14.612  44.787   7.353
 8956POPC   NC350951   1.214  22.909   5.553
 8956POPC   PO450952   1.239  22.926   5.853
 8956POPC   GL150953   1.201  22.911   6.153
 8956POPC   GL250954   1.105  22.801   6.153
 8956POPC   C1A50955   1.240  22.957   6.453
 8956POPC   D2A50956   1.191  22.970   6.753
 8956POPC   C3A50957   1.204  22.946   7.053
 8956POPC   C4A50958   1.210  22.975   7.353
 8956POPC   C1B50959   1.062  22.716   6.453
 8956POPC   C2B50960   1.076  22.719   6.753
 8956POPC   C3B50961   1.051  22.740   7.053
 8956POPC   C4B50962   1.033  22.702   7.353
 8957POPC   NC350963   8.992  26.769   5.553
 8957POPC   PO450964   8.964  26.851   5.853
 8957POPC   GL150965   8.984  26.830   6.153
 8957POPC   GL250966   8.917  26.902   6.153
 8957POPC   C1A50967   8.945  26.841   6.453
 8957POPC   D2A50968   8.928  26.823   6.753
 8957POPC   C3A50969   8.959  26.834   7.053
 8957POPC   C4A50970   8.983  26.798   7.353
 8957POPC   C1B50971   8.767  27.028   6.453
 8957POPC   C2B50972   8.755  27.023   6.753
 8957POPC   C3B50973   8.767  26.977   7.053
 8957POPC   C4B50974   8.775  27.026   7.353
 8958POPC   NC350975  27.572  37.661   5.553
 8958POPC   PO450976  27.567  37.658   5.853
 8958POPC   GL150977  27.636  37.703   6.153
 8958POPC   GL250978  27.496  37.793   6.153
 8958POPC   C1A50979  27.610  37.715   6.453
 8958POPC   D2A50980  27.549  37.666   6.753
 8958POPC   C3A50981  27.587  37.703   7.053
 8958POPC   C4A50982  27.581  37.700   7.353
 8958POPC   C1B50983  27.377  37.790   6.453
 8958POPC   C2B50984  27.416  37.800   6.753
 8958POPC   C3B50985  27.434  37.858   7.053
 8958POPC   C4B50986  27.439  37.858   7.353
 8959POPC   NC350987  14.394  15.132   5.553
 8959POPC   PO450988  14.449  15.207   5.853
 8959POPC   GL150989  14.388  15.187   6.153
 8959POPC   GL250990  14.453  15.107   6.153
 8959POPC   C1A50991  14.450  15.148   6.453
 8959POPC   D2A50992  14.375  15.151   6.753
 8959POPC   C3A50993  14.384  15.132   7.053
 8959POPC   C4A50994  14.400  15.224   7.353
 8959POPC   C1B50995  14.547  14.963   6.453
 8959POPC   C2B50996  14.549  14.908   6.753
 8959POPC   C3B50997  14.463  14.902   7.053
 8959POPC   C4B50998  14.500  14.920   7.353
 8960POPC   NC350999  39.239  37.667   5.553
 8960POPC   PO451000  39.242  37.670   5.853
 8960POPC   GL151001  39.192  37.666   6.153
 8960POPC   GL251002  39.096  37.737   6.153
 8960POPC   C1A51003  39.264  37.691   6.453
 8960POPC   D2A51004  39.240  37.679   6.753
 8960POPC   C3A51005  39.243  37.729   7.053
 8960POPC   C4A51006  39.207  37.660   7.353
 8960POPC   C1B51007  38.991  37.851   6.453
 8960POPC   C2B51008  39.037  37.830   6.753
 8960POPC   C3B51009  39.085  37.807   7.053
 8960POPC   C4B51010  39.053  37.860   7.353
 8961POPC   NC351011  21.414   1.954   5.553
 8961POPC   PO451012  21.342   1.957   5.853
 8961POPC   GL151013  21.428   1.967   6.153
 8961POPC   GL251014  21.553   1.998   6.153
 8961POPC   C1A51015  21.350   1.990   6.453
 8961POPC   D2A51016  21.400   1.953   6.753
 8961POPC   C3A51017  21.435   1.962   7.053
 8961POPC   C4A51018  21.434   1.987   7.353
 8961POPC   C1B51019  21.616   2.117   6.453
 8961POPC   C2B51020  21.608   2.115   6.753
 8961POPC   C3B51021  21.640   2.098   7.053
 8961POPC   C4B51022  21.575   2.061   7.353
 8962POPC   NC351023  41.547   2.717   5.553
 8962POPC   PO451024  41.538   2.761   5.853
 8962POPC   GL151025  41.553   2.750   6.153
 8962POPC   GL251026  41.665   2.698   6.153
 8962POPC   C1A51027  41.574   2.729   6.453
 8962POPC   D2A51028  41.601   2.795   6.753
 8962POPC   C3A51029  41.530   2.796   7.053
 8962POPC   C4A51030  41.592   2.726   7.353
 8962POPC   C1B51031  41.778   2.687   6.453
 8962POPC   C2B51032  41.771   2.691   6.753
 8962POPC   C3B51033  41.818   2.769   7.053
 8962POPC   C4B51034  41.762   2.720   7.353
 8963POPC   NC351035   4.269  19.860   5.553
 8963POPC   PO451036   4.294  19.848   5.853
 8963POPC   GL151037   4.279  19.862   6.153
 8963POPC   GL251038   4.423  19.966   6.153
 8963POPC   C1A51039   4.312  19.883   6.453
 8963POPC   D2A51040   4.311  19.867   6.753
 8963POPC   C3A51041   4.277  19.815   7.053
 8963POPC   C4A51042   4.366  19.809   7.353
 8963POPC   C1B51043   4.399  20.011   6.453
 8963POPC   C2B51044   4.495  20.029   6.753
 8963POPC   C3B51045   4.422  20.012   7.053
 8963POPC   C4B51046   4.480  20.088   7.353
 8964POPC   NC351047  25.252  36.946   5.553
 8964POPC   PO451048  25.299  36.855   5.853
 8964POPC   GL151049  25.265  36.868   6.153
 8964POPC   GL251050  25.275  37.056   6.153
 8964POPC   C1A51051  25.222  36.915   6.453
 8964POPC   D2A51052  25.233  36.945   6.753
 8964POPC   C3A51053  25.284  36.858   7.053
 8964POPC   C4A51054  25.260  36.914   7.353
 8964POPC   C1B51055  25.347  37.145   6.453
 8964POPC   C2B51056  25.386  37.142   6.753
 8964POPC   C3B51057  25.338  37.138   7.053
 8964POPC   C4B51058  25.325  37.166   7.353
 8965POPC   NC351059   6.628  23.703   5.553
 8965POPC   PO451060   6.641  23.703   5.853
 8965POPC   GL151061   6.685  23.666   6.153
 8965POPC   GL251062   6.546  23.636   6.153
 8965POPC   C1A51063   6.602  23.713   6.453
 8965POPC   D2A51064   6.642  23.677   6.753
 8965POPC   C3A51065   6.620  23.669   7.053
 8965POPC   C4A51066   6.625  23.678   7.353
 8965POPC   C1B51067   6.465  23.567   6.453
 8965POPC   C2B51068   6.452  23.610   6.753
 8965POPC   C3B51069   6.439  23.549   7.053
 8965POPC   C4B51070   6.412  23.597   7.353
 8966POPC   NC351071   5.891  15.984   5.553
 8966POPC   PO451072   5.841  15.920   5.853
 8966POPC   GL151073   5.849  15.979   6.153
 8966POPC   GL251074   5.797  16.054   6.153
 8966POPC   C1A51075   5.867  15.955   6.453
 8966POPC   D2A51076   5.834  15.931   6.753
 8966POPC   C3A51077   5.821  15.955   7.053
 8966POPC   C4A51078   5.857  15.938   7.353
 8966POPC   C1B51079   5.830  16.141   6.453
 8966POPC   C2B51080   5.763  16.215   6.753
 8966POPC   C3B51081   5.763  16.143   7.053
 8966POPC   C4B51082   5.830  16.195   7.353
 8967POPC   NC351083   5.070   3.566   5.553
 8967POPC   PO451084   5.049   3.573   5.853
 8967POPC   GL151085   5.078   3.561   6.153
 8967POPC   GL251086   4.999   3.682   6.153
 8967POPC   C1A51087   5.118   3.494   6.453
 8967POPC   D2A51088   5.139   3.570   6.753
 8967POPC   C3A51089   5.140   3.528   7.053
 8967POPC   C4A51090   5.123   3.563   7.353
 8967POPC   C1B51091   5.013   3.770   6.453
 8967POPC   C2B51092   5.030   3.748   6.753
 8967POPC   C3B51093   5.004   3.765   7.053
 8967POPC   C4B51094   5.023   3.770   7.353
 8968POPC   NC351095  44.652  34.549   5.553
 8968POPC   PO451096  44.688  34.600   5.853
 8968POPC   GL151097  44.626  34.590   6.153
 8968POPC   GL251098  44.622  34.635   6.153
 8968POPC   C1A51099  44.661  34.545   6.453
 8968POPC   D2A51100  44.655  34.595   6.753
 8968POPC   C3A51101  44.669  34.529   7.053
 8968POPC   C4A51102  44.618  34.616   7.353
 8968POPC   C1B51103  44.532  34.735   6.453
 8968POPC   C2B51104  44.477  34.799   6.753
 8968POPC   C3B51105  44.531  34.795   7.053
 8968POPC   C4B51106  44.540  34.759   7.353
 8969POPC   NC351107  36.934   5.136   5.553
 8969POPC   PO451108  36.947   5.096   5.853
 8969POPC   GL151109  36.859   5.050   6.153
 8969POPC   GL251110  36.928   5.018   6.153
 8969POPC   C1A51111  36.901   5.082   6.453
 8969POPC   D2A51112  36.888   5.053   6.753
 8969POPC   C3A51113  36.887   5.107   7.053
 8969POPC   C4A51114  36.938   5.091   7.353
 8969POPC   C1B51115  36.974   4.904   6.453
 8969POPC   C2B51116  36.981   4.904   6.753
 8969POPC   C3B51117  37.020   4.869   7.053
 8969POPC   C4B51118  36.996   4.889   7.353
 8970POPC   NC351119  21.368  30.673   5.553
 8970POPC   PO451120  21.420  30.717   5.853
 8970POPC   GL151121  21.345  30.670   6.153
 8970POPC   GL251122  21.377  30.592   6.153
 8970POPC   C1A51123  21.359  30.656   6.453
 8970POPC   D2A51124  21.415  30.669   6.753
 8970POPC   C3A51125  21.361  30.667   7.053
 8970POPC   C4A51126  21.400  30.656   7.353
 8970POPC   C1B51127  21.413  30.428   6.453
 8970POPC   C2B51128  21.387  30.444   6.753
 8970POPC   C3B51129  21.377  30.463   7.053
 8970POPC   C4B51130  21.317  30.418   7.353
 8971POPC   NC351131   5.831  17.497   5.553
 8971POPC   PO451132   5.835  17.472   5.853
 8971POPC   GL151133   5.864  17.514   6.153
 8971POPC   GL251134   5.761  17.506   6.153
 8971POPC   C1A51135   5.853  17.499   6.453
 8971POPC   D2A51136   5.896  17.540   6.753
 8971POPC   C3A51137   5.854  17.527   7.053
 8971POPC   C4A51138   5.849  17.553   7.353
 8971POPC   C1B51139   5.594  17.552   6.453
 8971POPC   C2B51140   5.599  17.525   6.753
 8971POPC   C3B51141   5.638  17.602   7.053
 8971POPC   C4B51142   5.594  17.551   7.353
 8972POPC   NC351143   6.613   6.665   5.553
 8972POPC   PO451144   6.680   6.683   5.853
 8972POPC   GL151145   6.689   6.667   6.153
 8972POPC   GL251146   6.685   6.489   6.153
 8972POPC   C1A51147   6.643   6.619   6.453
 8972POPC   D2A51148   6.650   6.672   6.753
 8972POPC   C3A51149   6.622   6.619   7.053
 8972POPC   C4A51150   6.670   6.645   7.353
 8972POPC   C1B51151   6.726   6.387   6.453
 8972POPC   C2B51152   6.750   6.442   6.753
 8972POPC   C3B51153   6.775   6.363   7.053
 8972POPC   C4B51154   6.758   6.390   7.353
 8973POPC   NC351155  41.556  32.288   5.553
 8973POPC   PO451156  41.537  32.268   5.853
 8973POPC   GL151157  41.575  32.279   6.153
 8973POPC   GL251158  41.406  32.224   6.153
 8973POPC   C1A51159  41.548  32.275   6.453
 8973POPC   D2A51160  41.569  32.281   6.753
 8973POPC   C3A51161  41.602  32.233   7.053
 8973POPC   C4A51162  41.569  32.227   7.353
 8973POPC   C1B51163  41.344  32.208   6.453
 8973POPC   C2B51164  41.357  32.259   6.753
 8973POPC   C3B51165  41.294  32.215   7.053
 8973POPC   C4B51166  41.305  32.264   7.353
 8974POPC   NC351167  24.489  19.835   5.553
 8974POPC   PO451168  24.501  19.882   5.853
 8974POPC   GL151169  24.446  19.868   6.153
 8974POPC   GL251170  24.577  19.793   6.153
 8974POPC   C1A51171  24.513  19.840   6.453
 8974POPC   D2A51172  24.449  19.815   6.753
 8974POPC   C3A51173  24.539  19.788   7.053
 8974POPC   C4A51174  24.495  19.795   7.353
 8974POPC   C1B51175  24.698  19.720   6.453
 8974POPC   C2B51176  24.744  19.727   6.753
 8974POPC   C3B51177  24.719  19.689   7.053
 8974POPC   C4B51178  24.737  19.691   7.353
 8975POPC   NC351179   5.107   0.445   5.553
 8975POPC   PO451180   5.140   0.475   5.853
 8975POPC   GL151181   5.137   0.483   6.153
 8975POPC   GL251182   5.126   0.539   6.153
 8975POPC   C1A51183   5.139   0.472   6.453
 8975POPC   D2A51184   5.048   0.396   6.753
 8975POPC   C3A51185   5.131   0.390   7.053
 8975POPC   C4A51186   5.141   0.435   7.353
 8975POPC   C1B51187   5.176   0.681   6.453
 8975POPC   C2B51188   5.135   0.645   6.753
 8975POPC   C3B51189   5.094   0.691   7.053
 8975POPC   C4B51190   5.168   0.650   7.353
 8976POPC   NC351191  32.202   8.935   5.553
 8976POPC   PO451192  32.215   9.009   5.853
 8976POPC   GL151193  32.204   8.931   6.153
 8976POPC   GL251194  32.252   9.066   6.153
 8976POPC   C1A51195  32.274   8.924   6.453
 8976POPC   D2A51196  32.242   8.935   6.753
 8976POPC   C3A51197  32.280   9.007   7.053
 8976POPC   C4A51198  32.288   8.949   7.353
 8976POPC   C1B51199  32.143   9.178   6.453
 8976POPC   C2B51200  32.160   9.224   6.753
 8976POPC   C3B51201  32.145   9.257   7.053
 8976POPC   C4B51202  32.145   9.265   7.353
 8977POPC   NC351203   1.233  43.906   5.553
 8977POPC   PO451204   1.185  43.859   5.853
 8977POPC   GL151205   1.198  43.880   6.153
 8977POPC   GL251206   1.251  44.051   6.153
 8977POPC   C1A51207   1.238  43.935   6.453
 8977POPC   D2A51208   1.232  43.885   6.753
 8977POPC   C3A51209   1.164  43.913   7.053
 8977POPC   C4A51210   1.214  43.852   7.353
 8977POPC   C1B51211   1.183  44.105   6.453
 8977POPC   C2B51212   1.192  44.142   6.753
 8977POPC   C3B51213   1.204  44.181   7.053
 8977POPC   C4B51214   1.166  44.143   7.353
 8978POPC   NC351215  43.844  29.152   5.553
 8978POPC   PO451216  43.932  29.132   5.853
 8978POPC   GL151217  43.897  29.144   6.153
 8978POPC   GL251218  44.058  29.179   6.153
 8978POPC   C1A51219  43.871  29.179   6.453
 8978POPC   D2A51220  43.845  29.154   6.753
 8978POPC   C3A51221  43.840  29.169   7.053
 8978POPC   C4A51222  43.916  29.182   7.353
 8978POPC   C1B51223  44.116  29.110   6.453
 8978POPC   C2B51224  44.142  29.158   6.753
 8978POPC   C3B51225  44.179  29.119   7.053
 8978POPC   C4B51226  44.127  29.116   7.353
 8979POPC   NC351227   0.448  19.873   5.553
 8979POPC   PO451228   0.437  19.872   5.853
 8979POPC   GL151229   0.463  19.814   6.153
 8979POPC   GL251230   0.604  19.808   6.153
 8979POPC   C1A51231   0.485  19.801   6.453
 8979POPC   D2A51232   0.447  19.864   6.753
 8979POPC   C3A51233   0.389  19.829   7.053
 8979POPC   C4A51234   0.448  19.789   7.353
 8979POPC   C1B51235   0.669  19.786   6.453
 8979POPC   C2B51236   0.661  19.758   6.753
 8979POPC   C3B51237   0.661  19.765   7.053
 8979POPC   C4B51238   0.634  19.756   7.353
 8980POPC   NC351239  29.143  43.902   5.553
 8980POPC   PO451240  29.141  43.877   5.853
 8980POPC   GL151241  29.161  43.895   6.153
 8980POPC   GL251242  29.268  43.950   6.153
 8980POPC   C1A51243  29.118  43.911   6.453
 8980POPC   D2A51244  29.156  43.894   6.753
 8980POPC   C3A51245  29.182  43.907   7.053
 8980POPC   C4A51246  29.130  43.872   7.353
 8980POPC   C1B51247  29.335  44.036   6.453
 8980POPC   C2B51248  29.332  44.015   6.753
 8980POPC   C3B51249  29.300  44.102   7.053
 8980POPC   C4B51250  29.323  44.026   7.353
 8981POPC   NC351251  36.081  12.075   5.553
 8981POPC   PO451252  36.102  12.094   5.853
 8981POPC   GL151253  36.100  12.029   6.153
 8981POPC   GL251254  36.091  11.957   6.153
 8981POPC   C1A51255  36.088  12.029   6.453
 8981POPC   D2A51256  36.125  12.035   6.753
 8981POPC   C3A51257  36.098  12.067   7.053
 8981POPC   C4A51258  36.087  12.097   7.353
 8981POPC   C1B51259  36.054  11.830   6.453
 8981POPC   C2B51260  36.058  11.837   6.753
 8981POPC   C3B51261  36.123  11.804   7.053
 8981POPC   C4B51262  36.046  11.824   7.353
 8982POPC   NC351263  36.105  26.778   5.553
 8982POPC   PO451264  36.159  26.853   5.853
 8982POPC   GL151265  36.106  26.791   6.153
 8982POPC   GL251266  36.250  26.928   6.153
 8982POPC   C1A51267  36.164  26.844   6.453
 8982POPC   D2A51268  36.086  26.804   6.753
 8982POPC   C3A51269  36.160  26.818   7.053
 8982POPC   C4A51270  36.102  26.808   7.353
 8982POPC   C1B51271  36.301  27.024   6.453
 8982POPC   C2B51272  36.299  26.998   6.753
 8982POPC   C3B51273  36.308  27.017   7.053
 8982POPC   C4B51274  36.325  27.061   7.353
 8983POPC   NC351275  36.942  21.354   5.553
 8983POPC   PO451276  36.854  21.422   5.853
 8983POPC   GL151277  36.874  21.365   6.153
 8983POPC   GL251278  36.795  21.298   6.153
 8983POPC   C1A51279  36.893  21.430   6.453
 8983POPC   D2A51280  36.897  21.358   6.753
 8983POPC   C3A51281  36.914  21.418   7.053
 8983POPC   C4A51282  36.870  21.415   7.353
 8983POPC   C1B51283  36.695  21.227   6.453
 8983POPC   C2B51284  36.779  21.236   6.753
 8983POPC   C3B51285  36.698  21.190   7.053
 8983POPC   C4B51286  36.752  21.198   7.353
 8984POPC   NC351287  24.509  36.859   5.553
 8984POPC   PO451288  24.536  36.953   5.853
 8984POPC   GL151289  24.444  36.905   6.153
 8984POPC   GL251290  24.584  36.830   6.153
 8984POPC   C1A51291  24.523  36.861   6.453
 8984POPC   D2A51292  24.527  36.875   6.753
 8984POPC   C3A51293  24.442  36.870   7.053
 8984POPC   C4A51294  24.443  36.926   7.353
 8984POPC   C1B51295  24.647  36.695   6.453
 8984POPC   C2B51296  24.656  36.653   6.753
 8984POPC   C3B51297  24.611  36.697   7.053
 8984POPC   C4B51298  24.615  36.663   7.353
 8985POPC   NC351299  14.375  22.902   5.553
 8985POPC   PO451300  14.441  22.895   5.853
 8985POPC   GL151301  14.441  22.899   6.153
 8985POPC   GL251302  14.389  23.040   6.153
 8985POPC   C1A51303  14.424  22.961   6.453
 8985POPC   D2A51304  14.453  22.971   6.753
 8985POPC   C3A51305  14.452  22.894   7.053
 8985POPC   C4A51306  14.423  22.968   7.353
 8985POPC   C1B51307  14.404  23.182   6.453
 8985POPC   C2B51308  14.370  23.207   6.753
 8985POPC   C3B51309  14.350  23.231   7.053
 8985POPC   C4B51310  14.436  23.153   7.353
 8986POPC   NC351311  12.854  26.050   5.553
 8986POPC   PO451312  12.861  26.083   5.853
 8986POPC   GL151313  12.878  25.993   6.153
 8986POPC   GL251314  12.860  25.868   6.153
 8986POPC   C1A51315  12.884  26.065   6.453
 8986POPC   D2A51316  12.812  26.051   6.753
 8986POPC   C3A51317  12.819  26.006   7.053
 8986POPC   C4A51318  12.818  26.048   7.353
 8986POPC   C1B51319  12.891  25.774   6.453
 8986POPC   C2B51320  12.919  25.749   6.753
 8986POPC   C3B51321  12.898  25.816   7.053
 8986POPC   C4B51322  12.846  25.785   7.353
 8987POPC   NC351323  11.333  29.125   5.553
 8987POPC   PO451324  11.337  29.151   5.853
 8987POPC   GL151325  11.294  29.193   6.153
 8987POPC   GL251326  11.305  29.075   6.153
 8987POPC   C1A51327  11.252  29.139   6.453
 8987POPC   D2A51328  11.276  29.166   6.753
 8987POPC   C3A51329  11.287  29.176   7.053
 8987POPC   C4A51330  11.306  29.137   7.353
 8987POPC   C1B51331  11.217  28.908   6.453
 8987POPC   C2B51332  11.170  28.928   6.753
 8987POPC   C3B51333  11.217  28.873   7.053
 8987POPC   C4B51334  11.232  28.952   7.353
 8988POPC   NC351335  35.384  44.696   5.553
 8988POPC   PO451336  35.362  44.699   5.853
 8988POPC   GL151337  35.396  44.653   6.153
 8988POPC   GL251338  35.460  44.682   6.153
 8988POPC   C1A51339  35.368  44.629   6.453
 8988POPC   D2A51340  35.397  44.647   6.753
 8988POPC   C3A51341  35.400  44.663   7.053
 8988POPC   C4A51342  35.312  44.669   7.353
 8988POPC   C1B51343  35.575  44.719   6.453
 8988POPC   C2B51344  35.559  44.736   6.753
 8988POPC   C3B51345  35.532  44.751   7.053
 8988POPC   C4B51346  35.585  44.755   7.353
 8989POPC   NC351347  36.911  43.881   5.553
 8989POPC   PO451348  36.949  43.889   5.853
 8989POPC   GL151349  36.854  43.869   6.153
 8989POPC   GL251350  37.051  43.892   6.153
 8989POPC   C1A51351  36.922  43.908   6.453
 8989POPC   D2A51352  36.892  43.879   6.753
 8989POPC   C3A51353  36.914  43.911   7.053
 8989POPC   C4A51354  36.904  43.868   7.353
 8989POPC   C1B51355  37.181  43.837   6.453
 8989POPC   C2B51356  37.175  43.864   6.753
 8989POPC   C3B51357  37.134  43.817   7.053
 8989POPC   C4B51358  37.184  43.829   7.353
 8990POPC   NC351359  35.360  37.699   5.553
 8990POPC   PO451360  35.343  37.641   5.853
 8990POPC   GL151361  35.325  37.700   6.153
 8990POPC   GL251362  35.431  37.615   6.153
 8990POPC   C1A51363  35.364  37.644   6.453
 8990POPC   D2A51364  35.398  37.720   6.753
 8990POPC   C3A51365  35.320  37.675   7.053
 8990POPC   C4A51366  35.358  37.725   7.353
 8990POPC   C1B51367  35.612  37.687   6.453
 8990POPC   C2B51368  35.642  37.657   6.753
 8990POPC   C3B51369  35.599  37.648   7.053
 8990POPC   C4B51370  35.565  37.683   7.353
 8991POPC   NC351371   5.917   8.952   5.553
 8991POPC   PO451372   5.857   8.975   5.853
 8991POPC   GL151373   5.824   8.962   6.153
 8991POPC   GL251374   5.696   9.024   6.153
 8991POPC   C1A51375   5.852   8.943   6.453
 8991POPC   D2A51376   5.860   8.927   6.753
 8991POPC   C3A51377   5.891   8.999   7.053
 8991POPC   C4A51378   5.880   8.944   7.353
 8991POPC   C1B51379   5.587   8.981   6.453
 8991POPC   C2B51380   5.625   9.035   6.753
 8991POPC   C3B51381   5.638   8.991   7.053
 8991POPC   C4B51382   5.625   8.963   7.353
 8992POPC   NC351383  26.050  16.704   5.553
 8992POPC   PO451384  26.085  16.684   5.853
 8992POPC   GL151385  26.077  16.704   6.153
 8992POPC   GL251386  25.995  16.650   6.153
 8992POPC   C1A51387  26.081  16.706   6.453
 8992POPC   D2A51388  25.995  16.747   6.753
 8992POPC   C3A51389  26.038  16.712   7.053
 8992POPC   C4A51390  26.082  16.777   7.353
 8992POPC   C1B51391  25.983  16.457   6.453
 8992POPC   C2B51392  25.993  16.524   6.753
 8992POPC   C3B51393  25.901  16.496   7.053
 8992POPC   C4B51394  25.941  16.521   7.353
 8993POPC   NC351395  12.060  33.771   5.553
 8993POPC   PO451396  12.115  33.811   5.853
 8993POPC   GL151397  12.051  33.844   6.153
 8993POPC   GL251398  12.225  33.830   6.153
 8993POPC   C1A51399  12.071  33.847   6.453
 8993POPC   D2A51400  12.063  33.767   6.753
 8993POPC   C3A51401  12.095  33.817   7.053
 8993POPC   C4A51402  12.060  33.825   7.353
 8993POPC   C1B51403  12.300  33.715   6.453
 8993POPC   C2B51404  12.351  33.811   6.753
 8993POPC   C3B51405  12.295  33.732   7.053
 8993POPC   C4B51406  12.372  33.796   7.353
 8994POPC   NC351407   3.504  29.927   5.553
 8994POPC   PO451408   3.524  29.960   5.853
 8994POPC   GL151409   3.557  29.876   6.153
 8994POPC   GL251410   3.504  29.781   6.153
 8994POPC   C1A51411   3.517  29.910   6.453
 8994POPC   D2A51412   3.570  29.888   6.753
 8994POPC   C3A51413   3.496  29.873   7.053
 8994POPC   C4A51414   3.515  29.912   7.353
 8994POPC   C1B51415   3.429  29.763   6.453
 8994POPC   C2B51416   3.376  29.685   6.753
 8994POPC   C3B51417   3.361  29.708   7.053
 8994POPC   C4B51418   3.408  29.763   7.353
 8995POPC   NC351419  22.911  18.312   5.553
 8995POPC   PO451420  22.900  18.247   5.853
 8995POPC   GL151421  22.963  18.299   6.153
 8995POPC   GL251422  22.821  18.242   6.153
 8995POPC   C1A51423  22.894  18.240   6.453
 8995POPC   D2A51424  22.892  18.321   6.753
 8995POPC   C3A51425  22.959  18.263   7.053
 8995POPC   C4A51426  22.979  18.264   7.353
 8995POPC   C1B51427  22.798  18.133   6.453
 8995POPC   C2B51428  22.706  18.117   6.753
 8995POPC   C3B51429  22.752  18.122   7.053
 8995POPC   C4B51430  22.750  18.095   7.353
 8996POPC   NC351431  42.352  28.356   5.553
 8996POPC   PO451432  42.373  28.332   5.853
 8996POPC   GL151433  42.300  28.344   6.153
 8996POPC   GL251434  42.275  28.497   6.153
 8996POPC   C1A51435  42.299  28.369   6.453
 8996POPC   D2A51436  42.333  28.392   6.753
 8996POPC   C3A51437  42.322  28.370   7.053
 8996POPC   C4A51438  42.366  28.414   7.353
 8996POPC   C1B51439  42.282  28.565   6.453
 8996POPC   C2B51440  42.279  28.618   6.753
 8996POPC   C3B51441  42.264  28.576   7.053
 8996POPC   C4B51442  42.269  28.566   7.353
 8997POPC   NC351443  25.240  30.653   5.553
 8997POPC   PO451444  25.283  30.723   5.853
 8997POPC   GL151445  25.216  30.704   6.153
 8997POPC   GL251446  25.253  30.525   6.153
 8997POPC   C1A51447  25.288  30.663   6.453
 8997POPC   D2A51448  25.258  30.698   6.753
 8997POPC   C3A51449  25.300  30.710   7.053
 8997POPC   C4A51450  25.251  30.651   7.353
 8997POPC   C1B51451  25.176  30.460   6.453
 8997POPC   C2B51452  25.241  30.485   6.753
 8997POPC   C3B51453  25.244  30.492   7.053
 8997POPC   C4B51454  25.254  30.461   7.353
 8998POPC   NC351455   7.386   7.433   5.553
 8998POPC   PO451456   7.398   7.457   5.853
 8998POPC   GL151457   7.411   7.377   6.153
 8998POPC   GL251458   7.578   7.415   6.153
 8998POPC   C1A51459   7.440   7.401   6.453
 8998POPC   D2A51460   7.383   7.380   6.753
 8998POPC   C3A51461   7.388   7.466   7.053
 8998POPC   C4A51462   7.457   7.432   7.353
 8998POPC   C1B51463   7.658   7.336   6.453
 8998POPC   C2B51464   7.683   7.416   6.753
 8998POPC   C3B51465   7.629   7.324   7.053
 8998POPC   C4B51466   7.653   7.412   7.353
 8999POPC   NC351467  43.103   2.769   5.553
 8999POPC   PO451468  43.143   2.798   5.853
 8999POPC   GL151469  43.148   2.756   6.153
 8999POPC   GL251470  43.158   2.632   6.153
 8999POPC   C1A51471  43.150   2.758   6.453
 8999POPC   D2A51472  43.147   2.753   6.753
 8999POPC   C3A51473  43.134   2.815   7.053
 8999POPC   C4A51474  43.068   2.717   7.353
 8999POPC   C1B51475  43.291   2.617   6.453
 8999POPC   C2B51476  43.301   2.584   6.753
 8999POPC   C3B51477  43.288   2.592   7.053
 8999POPC   C4B51478  43.288   2.598   7.353
 9000POPC   NC351479   2.029   1.221   5.553
 9000POPC   PO451480   1.996   1.223   5.853
 9000POPC   GL151481   2.003   1.188   6.153
 9000POPC   GL251482   2.104   1.261   6.153
 9000POPC   C1A51483   2.033   1.177   6.453
 9000POPC   D2A51484   2.001   1.244   6.753
 9000POPC   C3A51485   1.967   1.175   7.053
 9000POPC   C4A51486   2.038   1.216   7.353
 9000POPC   C1B51487   2.260   1.326   6.453
 9000POPC   C2B51488   2.230   1.369   6.753
 9000POPC   C3B51489   2.208   1.320   7.053
 9000POPC   C4B51490   2.261   1.303   7.353
 9001POPC   NC351491   4.363  33.778   5.553
 9001POPC   PO451492   4.323  33.770   5.853
 9001POPC   GL151493   4.310  33.802   6.153
 9001POPC   GL251494   4.302  33.644   6.153
 9001POPC   C1A51495   4.321  33.772   6.453
 9001POPC   D2A51496   4.276  33.782   6.753
 9001POPC   C3A51497   4.308  33.755   7.053
 9001POPC   C4A51498   4.326  33.807   7.353
 9001POPC   C1B51499   4.254  33.590   6.453
 9001POPC   C2B51500   4.262  33.518   6.753
 9001POPC   C3B51501   4.259  33.525   7.053
 9001POPC   C4B51502   4.241  33.589   7.353
 9002POPC   NC351503  43.148   3.573   5.553
 9002POPC   PO451504  43.064   3.582   5.853
 9002POPC   GL151505  43.138   3.559   6.153
 9002POPC   GL251506  43.188   3.485   6.153
 9002POPC   C1A51507  43.144   3.564   6.453
 9002POPC   D2A51508  43.071   3.537   6.753
 9002POPC   C3A51509  43.119   3.585   7.053
 9002POPC   C4A51510  43.073   3.590   7.353
 9002POPC   C1B51511  43.238   3.322   6.453
 9002POPC   C2B51512  43.222   3.377   6.753
 9002POPC   C3B51513  43.239   3.291   7.053
 9002POPC   C4B51514  43.290   3.345   7.353
 9003POPC   NC351515  44.616  36.084   5.553
 9003POPC   PO451516  44.624  36.163   5.853
 9003POPC   GL151517  44.664  36.158   6.153
 9003POPC   GL251518  44.615  36.037   6.153
 9003POPC   C1A51519  44.707  36.174   6.453
 9003POPC   D2A51520  44.668  36.116   6.753
 9003POPC   C3A51521  44.640  36.083   7.053
 9003POPC   C4A51522  44.678  36.085   7.353
 9003POPC   C1B51523  44.656  35.922   6.453
 9003POPC   C2B51524  44.617  35.844   6.753
 9003POPC   C3B51525  44.676  35.927   7.053
 9003POPC   C4B51526  44.639  35.896   7.353
 9004POPC   NC351527  29.099   8.996   5.553
 9004POPC   PO451528  29.112   8.961   5.853
 9004POPC   GL151529  29.106   8.928   6.153
 9004POPC   GL251530  29.143   9.047   6.153
 9004POPC   C1A51531  29.146   8.926   6.453
 9004POPC   D2A51532  29.180   8.936   6.753
 9004POPC   C3A51533  29.140   8.970   7.053
 9004POPC   C4A51534  29.105   8.929   7.353
 9004POPC   C1B51535  29.105   9.179   6.453
 9004POPC   C2B51536  29.104   9.183   6.753
 9004POPC   C3B51537  29.115   9.247   7.053
 9004POPC   C4B51538  29.151   9.180   7.353
 9005POPC   NC351539   4.275  30.732   5.553
 9005POPC   PO451540   4.299  30.713   5.853
 9005POPC   GL151541   4.273  30.708   6.153
 9005POPC   GL251542   4.432  30.612   6.153
 9005POPC   C1A51543   4.347  30.657   6.453
 9005POPC   D2A51544   4.361  30.731   6.753
 9005POPC   C3A51545   4.282  30.652   7.053
 9005POPC   C4A51546   4.310  30.658   7.353
 9005POPC   C1B51547   4.539  30.572   6.453
 9005POPC   C2B51548   4.521  30.591   6.753
 9005POPC   C3B51549   4.568  30.577   7.053
 9005POPC   C4B51550   4.567  30.598   7.353
 9006POPC   NC351551  29.888  38.427   5.553
 9006POPC   PO451552  29.893  38.412   5.853
 9006POPC   GL151553  29.882  38.466   6.153
 9006POPC   GL251554  30.034  38.385   6.153
 9006POPC   C1A51555  29.957  38.485   6.453
 9006POPC   D2A51556  29.907  38.424   6.753
 9006POPC   C3A51557  29.947  38.490   7.053
 9006POPC   C4A51558  29.956  38.455   7.353
 9006POPC   C1B51559  30.154  38.339   6.453
 9006POPC   C2B51560  30.172  38.337   6.753
 9006POPC   C3B51561  30.142  38.388   7.053
 9006POPC   C4B51562  30.172  38.347   7.353
 9007POPC   NC351563   8.176  21.407   5.553
 9007POPC   PO451564   8.188  21.432   5.853
 9007POPC   GL151565   8.173  21.361   6.153
 9007POPC   GL251566   8.080  21.416   6.153
 9007POPC   C1A51567   8.224  21.364   6.453
 9007POPC   D2A51568   8.200  21.395   6.753
 9007POPC   C3A51569   8.235  21.394   7.053
 9007POPC   C4A51570   8.159  21.416   7.353
 9007POPC   C1B51571   7.938  21.409   6.453
 9007POPC   C2B51572   7.990  21.428   6.753
 9007POPC   C3B51573   7.957  21.455   7.053
 9007POPC   C4B51574   7.918  21.423   7.353
 9008POPC   NC351575  23.678  37.727   5.553
 9008POPC   PO451576  23.706  37.666   5.853
 9008POPC   GL151577  23.763  37.649   6.153
 9008POPC   GL251578  23.771  37.711   6.153
 9008POPC   C1A51579  23.738  37.715   6.453
 9008POPC   D2A51580  23.716  37.690   6.753
 9008POPC   C3A51581  23.686  37.724   7.053
 9008POPC   C4A51582  23.741  37.654   7.353
 9008POPC   C1B51583  23.889  37.772   6.453
 9008POPC   C2B51584  23.927  37.776   6.753
 9008POPC   C3B51585  23.949  37.850   7.053
 9008POPC   C4B51586  23.881  37.863   7.353
 9009POPC   NC351587  43.915  33.790   5.553
 9009POPC   PO451588  43.911  33.841   5.853
 9009POPC   GL151589  43.897  33.810   6.153
 9009POPC   GL251590  44.003  33.729   6.153
 9009POPC   C1A51591  43.926  33.804   6.453
 9009POPC   D2A51592  43.886  33.786   6.753
 9009POPC   C3A51593  43.861  33.849   7.053
 9009POPC   C4A51594  43.870  33.807   7.353
 9009POPC   C1B51595  44.058  33.681   6.453
 9009POPC   C2B51596  44.070  33.656   6.753
 9009POPC   C3B51597  44.077  33.672   7.053
 9009POPC   C4B51598  44.146  33.680   7.353
 9010POPC   NC351599  19.088  30.743   5.553
 9010POPC   PO451600  19.055  30.701   5.853
 9010POPC   GL151601  19.086  30.697   6.153
 9010POPC   GL251602  19.219  30.663   6.153
 9010POPC   C1A51603  19.022  30.652   6.453
 9010POPC   D2A51604  19.065  30.724   6.753
 9010POPC   C3A51605  19.071  30.718   7.053
 9010POPC   C4A51606  19.045  30.732   7.353
 9010POPC   C1B51607  19.314  30.575   6.453
 9010POPC   C2B51608  19.339  30.609   6.753
 9010POPC   C3B51609  19.263  30.632   7.053
 9010POPC   C4B51610  19.322  30.636   7.353
 9011POPC   NC351611   4.271   0.412   5.553
 9011POPC   PO451612   4.351   0.463   5.853
 9011POPC   GL151613   4.274   0.389   6.153
 9011POPC   GL251614   4.340   0.306   6.153
 9011POPC   C1A51615   4.319   0.469   6.453
 9011POPC   D2A51616   4.317   0.416   6.753
 9011POPC   C3A51617   4.348   0.451   7.053
 9011POPC   C4A51618   4.332   0.410   7.353
 9011POPC   C1B51619   4.341   0.186   6.453
 9011POPC   C2B51620   4.410   0.199   6.753
 9011POPC   C3B51621   4.408   0.156   7.053
 9011POPC   C4B51622   4.387   0.151   7.353
 9012POPC   NC351623   2.788  42.366   5.553
 9012POPC   PO451624   2.757  42.319   5.853
 9012POPC   GL151625   2.788  42.294   6.153
 9012POPC   GL251626   2.773  42.170   6.153
 9012POPC   C1A51627   2.716  42.361   6.453
 9012POPC   D2A51628   2.741  42.285   6.753
 9012POPC   C3A51629   2.783  42.315   7.053
 9012POPC   C4A51630   2.794  42.323   7.353
 9012POPC   C1B51631   2.878  42.082   6.453
 9012POPC   C2B51632   2.841  42.088   6.753
 9012POPC   C3B51633   2.835  42.141   7.053
 9012POPC   C4B51634   2.898  42.097   7.353
 9013POPC   NC351635  29.952  19.079   5.553
 9013POPC   PO451636  29.906  19.107   5.853
 9013POPC   GL151637  29.955  19.102   6.153
 9013POPC   GL251638  29.795  19.113   6.153
 9013POPC   C1A51639  29.966  19.014   6.453
 9013POPC   D2A51640  29.959  19.103   6.753
 9013POPC   C3A51641  29.906  19.106   7.053
 9013POPC   C4A51642  29.874  19.035   7.353
 9013POPC   C1B51643  29.771  19.218   6.453
 9013POPC   C2B51644  29.765  19.217   6.753
 9013POPC   C3B51645  29.744  19.281   7.053
 9013POPC   C4B51646  29.739  19.242   7.353
 9014POPC   NC351647  30.698  37.649   5.553
 9014POPC   PO451648  30.696  37.718   5.853
 9014POPC   GL151649  30.689  37.696   6.153
 9014POPC   GL251650  30.781  37.772   6.153
 9014POPC   C1A51651  30.650  37.660   6.453
 9014POPC   D2A51652  30.664  37.702   6.753
 9014POPC   C3A51653  30.736  37.700   7.053
 9014POPC   C4A51654  30.698  37.675   7.353
 9014POPC   C1B51655  30.831  37.904   6.453
 9014POPC   C2B51656  30.756  37.894   6.753
 9014POPC   C3B51657  30.777  37.883   7.053
 9014POPC   C4B51658  30.752  37.868   7.353
 9015POPC   NC351659   7.428   1.185   5.553
 9015POPC   PO451660   7.396   1.190   5.853
 9015POPC   GL151661   7.386   1.206   6.153
 9015POPC   GL251662   7.446   1.360   6.153
 9015POPC   C1A51663   7.391   1.195   6.453
 9015POPC   D2A51664   7.418   1.264   6.753
 9015POPC   C3A51665   7.452   1.227   7.053
 9015POPC   C4A51666   7.385   1.167   7.353
 9015POPC   C1B51667   7.569   1.441   6.453
 9015POPC   C2B51668   7.515   1.438   6.753
 9015POPC   C3B51669   7.563   1.426   7.053
 9015POPC   C4B51670   7.543   1.445   7.353
 9016POPC   NC351671  19.875  19.865   5.553
 9016POPC   PO451672  19.804  19.827   5.853
 9016POPC   GL151673  19.792  19.855   6.153
 9016POPC   GL251674  19.874  19.962   6.153
 9016POPC   C1A51675  19.854  19.800   6.453
 9016POPC   D2A51676  19.882  19.832   6.753
 9016POPC   C3A51677  19.788  19.803   7.053
 9016POPC   C4A51678  19.842  19.812   7.353
 9016POPC   C1B51679  20.047  20.058   6.453
 9016POPC   C2B51680  20.000  20.057   6.753
 9016POPC   C3B51681  20.039  20.068   7.053
 9016POPC   C4B51682  20.004  20.052   7.353
 9017POPC   NC351683  24.447  19.102   5.553
 9017POPC   PO451684  24.455  19.029   5.853
 9017POPC   GL151685  24.507  19.045   6.153
 9017POPC   GL251686  24.427  18.987   6.153
 9017POPC   C1A51687  24.476  19.050   6.453
 9017POPC   D2A51688  24.488  19.023   6.753
 9017POPC   C3A51689  24.509  19.098   7.053
 9017POPC   C4A51690  24.447  19.021   7.353
 9017POPC   C1B51691  24.420  18.820   6.453
 9017POPC   C2B51692  24.468  18.797   6.753
 9017POPC   C3B51693  24.439  18.783   7.053
 9017POPC   C4B51694  24.414  18.854   7.353
 9018POPC   NC351695  11.350  27.619   5.553
 9018POPC   PO451696  11.320  27.560   5.853
 9018POPC   GL151697  11.318  27.613   6.153
 9018POPC   GL251698  11.191  27.717   6.153
 9018POPC   C1A51699  11.299  27.591   6.453
 9018POPC   D2A51700  11.299  27.601   6.753
 9018POPC   C3A51701  11.343  27.616   7.053
 9018POPC   C4A51702  11.291  27.548   7.353
 9018POPC   C1B51703  11.167  27.811   6.453
 9018POPC   C2B51704  11.105  27.767   6.753
 9018POPC   C3B51705  11.084  27.749   7.053
 9018POPC   C4B51706  11.161  27.786   7.353
 9019POPC   NC351707  33.777  26.783   5.553
 9019POPC   PO451708  33.762  26.840   5.853
 9019POPC   GL151709  33.789  26.795   6.153
 9019POPC   GL251710  33.698  26.785   6.153
 9019POPC   C1A51711  33.791  26.772   6.453
 9019POPC   D2A51712  33.826  26.823   6.753
 9019POPC   C3A51713  33.782  26.799   7.053
 9019POPC   C4A51714  33.831  26.863   7.353
 9019POPC   C1B51715  33.576  26.802   6.453
 9019POPC   C2B51716  33.501  26.840   6.753
 9019POPC   C3B51717  33.520  26.818   7.053
 9019POPC   C4B51718  33.553  26.776   7.353
 9020POPC   NC351719  34.539  16.730   5.553
 9020POPC   PO451720  34.563  16.771   5.853
 9020POPC   GL151721  34.586  16.745   6.153
 9020POPC   GL251722  34.570  16.877   6.153
 9020POPC   C1A51723  34.555  16.723   6.453
 9020POPC   D2A51724  34.577  16.704   6.753
 9020POPC   C3A51725  34.602  16.780   7.053
 9020POPC   C4A51726  34.597  16.781   7.353
 9020POPC   C1B51727  34.593  16.989   6.453
 9020POPC   C2B51728  34.614  16.949   6.753
 9020POPC   C3B51729  34.641  16.972   7.053
 9020POPC   C4B51730  34.670  16.948   7.353
 9021POPC   NC351731  32.996  26.801   5.553
 9021POPC   PO451732  33.052  26.820   5.853
 9021POPC   GL151733  32.975  26.786   6.153
 9021POPC   GL251734  33.070  26.948   6.153
 9021POPC   C1A51735  33.032  26.841   6.453
 9021POPC   D2A51736  32.991  26.823   6.753
 9021POPC   C3A51737  33.015  26.817   7.053
 9021POPC   C4A51738  33.039  26.810   7.353
 9021POPC   C1B51739  33.034  27.098   6.453
 9021POPC   C2B51740  33.024  27.076   6.753
 9021POPC   C3B51741  33.046  27.020   7.053
 9021POPC   C4B51742  33.064  27.039   7.353
 9022POPC   NC351743  12.852  23.707   5.553
 9022POPC   PO451744  12.898  23.719   5.853
 9022POPC   GL151745  12.823  23.701   6.153
 9022POPC   GL251746  12.858  23.551   6.153
 9022POPC   C1A51747  12.874  23.744   6.453
 9022POPC   D2A51748  12.890  23.682   6.753
 9022POPC   C3A51749  12.827  23.735   7.053
 9022POPC   C4A51750  12.875  23.752   7.353
 9022POPC   C1B51751  12.932  23.505   6.453
 9022POPC   C2B51752  12.862  23.427   6.753
 9022POPC   C3B51753  12.884  23.477   7.053
 9022POPC   C4B51754  12.934  23.457   7.353
 9023POPC   NC351755   8.171  22.957   5.553
 9023POPC   PO451756   8.183  22.968   5.853
 9023POPC   GL151757   8.198  22.898   6.153
 9023POPC   GL251758   8.306  22.864   6.153
 9023POPC   C1A51759   8.242  22.981   6.453
 9023POPC   D2A51760   8.226  22.975   6.753
 9023POPC   C3A51761   8.245  22.948   7.053
 9023POPC   C4A51762   8.204  22.916   7.353
 9023POPC   C1B51763   8.404  22.813   6.453
 9023POPC   C2B51764   8.389  22.820   6.753
 9023POPC   C3B51765   8.460  22.887   7.053
 9023POPC   C4B51766   8.412  22.859   7.353
 9024POPC   NC351767  15.923  43.907   5.553
 9024POPC   PO451768  15.995  43.927   5.853
 9024POPC   GL151769  15.995  43.849   6.153
 9024POPC   GL251770  15.864  43.818   6.153
 9024POPC   C1A51771  15.965  43.849   6.453
 9024POPC   D2A51772  15.922  43.929   6.753
 9024POPC   C3A51773  15.921  43.877   7.053
 9024POPC   C4A51774  15.957  43.883   7.353
 9024POPC   C1B51775  15.692  43.854   6.453
 9024POPC   C2B51776  15.730  43.837   6.753
 9024POPC   C3B51777  15.702  43.833   7.053
 9024POPC   C4B51778  15.738  43.853   7.353
 9025POPC   NC351779   0.427  42.288   5.553
 9025POPC   PO451780   0.440  42.359   5.853
 9025POPC   GL151781   0.456  42.295   6.153
 9025POPC   GL251782   0.494  42.223   6.153
 9025POPC   C1A51783   0.483  42.310   6.453
 9025POPC   D2A51784   0.447  42.329   6.753
 9025POPC   C3A51785   0.452  42.328   7.053
 9025POPC   C4A51786   0.416  42.365   7.353
 9025POPC   C1B51787   0.551  42.093   6.453
 9025POPC   C2B51788   0.488  42.093   6.753
 9025POPC   C3B51789   0.543  42.109   7.053
 9025POPC   C4B51790   0.475  42.098   7.353
 9026POPC   NC351791  38.417  12.889   5.553
 9026POPC   PO451792  38.471  12.899   5.853
 9026POPC   GL151793  38.498  12.895   6.153
 9026POPC   GL251794  38.552  12.902   6.153
 9026POPC   C1A51795  38.485  12.882   6.453
 9026POPC   D2A51796  38.475  12.818   6.753
 9026POPC   C3A51797  38.457  12.857   7.053
 9026POPC   C4A51798  38.481  12.879   7.353
 9026POPC   C1B51799  38.719  12.821   6.453
 9026POPC   C2B51800  38.753  12.835   6.753
 9026POPC   C3B51801  38.680  12.892   7.053
 9026POPC   C4B51802  38.667  12.892   7.353
 9027POPC   NC351803  23.748  30.735   5.553
 9027POPC   PO451804  23.736  30.706   5.853
 9027POPC   GL151805  23.713  30.649   6.153
 9027POPC   GL251806  23.770  30.805   6.153
 9027POPC   C1A51807  23.712  30.716   6.453
 9027POPC   D2A51808  23.762  30.681   6.753
 9027POPC   C3A51809  23.762  30.661   7.053
 9027POPC   C4A51810  23.714  30.686   7.353
 9027POPC   C1B51811  23.869  30.955   6.453
 9027POPC   C2B51812  23.830  30.877   6.753
 9027POPC   C3B51813  23.859  30.929   7.053
 9027POPC   C4B51814  23.805  30.947   7.353
 9028POPC   NC351815  34.596  31.467   5.553
 9028POPC   PO451816  34.567  31.437   5.853
 9028POPC   GL151817  34.551  31.443   6.153
 9028POPC   GL251818  34.684  31.583   6.153
 9028POPC   C1A51819  34.549  31.455   6.453
 9028POPC   D2A51820  34.589  31.443   6.753
 9028POPC   C3A51821  34.622  31.424   7.053
 9028POPC   C4A51822  34.555  31.499   7.353
 9028POPC   C1B51823  34.766  31.642   6.453
 9028POPC   C2B51824  34.770  31.623   6.753
 9028POPC   C3B51825  34.734  31.710   7.053
 9028POPC   C4B51826  34.761  31.701   7.353
 9029POPC   NC351827  36.152  22.159   5.553
 9029POPC   PO451828  36.086  22.137   5.853
 9029POPC   GL151829  36.144  22.192   6.153
 9029POPC   GL251830  36.111  22.298   6.153
 9029POPC   C1A51831  36.165  22.124   6.453
 9029POPC   D2A51832  36.154  22.151   6.753
 9029POPC   C3A51833  36.121  22.130   7.053
 9029POPC   C4A51834  36.103  22.133   7.353
 9029POPC   C1B51835  36.005  22.393   6.453
 9029POPC   C2B51836  36.056  22.366   6.753
 9029POPC   C3B51837  36.022  22.385   7.053
 9029POPC   C4B51838  36.028  22.420   7.353
 9030POPC   NC351839   5.908  20.569   5.553
 9030POPC   PO451840   5.868  20.638   5.853
 9030POPC   GL151841   5.877  20.614   6.153
 9030POPC   GL251842   5.750  20.611   6.153
 9030POPC   C1A51843   5.827  20.599   6.453
 9030POPC   D2A51844   5.823  20.565   6.753
 9030POPC   C3A51845   5.897  20.570   7.053
 9030POPC   C4A51846   5.822  20.612   7.353
 9030POPC   C1B51847   5.617  20.522   6.453
 9030POPC   C2B51848   5.613  20.551   6.753
 9030POPC   C3B51849   5.667  20.554   7.053
 9030POPC   C4B51850   5.603  20.535   7.353
 9031POPC   NC351851   5.906   1.977   5.553
 9031POPC   PO451852   5.886   1.948   5.853
 9031POPC   GL151853   5.902   2.029   6.153
 9031POPC   GL251854   5.928   1.898   6.153
 9031POPC   C1A51855   5.896   2.014   6.453
 9031POPC   D2A51856   5.887   2.015   6.753
 9031POPC   C3A51857   5.842   1.948   7.053
 9031POPC   C4A51858   5.829   1.950   7.353
 9031POPC   C1B51859   5.895   1.727   6.453
 9031POPC   C2B51860   5.899   1.718   6.753
 9031POPC   C3B51861   5.901   1.725   7.053
 9031POPC   C4B51862   5.899   1.752   7.353
 9032POPC   NC351863  38.464  29.153   5.553
 9032POPC   PO451864  38.458  29.108   5.853
 9032POPC   GL151865  38.407  29.148   6.153
 9032POPC   GL251866  38.559  29.171   6.153
 9032POPC   C1A51867  38.489  29.162   6.453
 9032POPC   D2A51868  38.471  29.191   6.753
 9032POPC   C3A51869  38.448  29.166   7.053
 9032POPC   C4A51870  38.465  29.166   7.353
 9032POPC   C1B51871  38.720  29.099   6.453
 9032POPC   C2B51872  38.697  29.129   6.753
 9032POPC   C3B51873  38.669  29.104   7.053
 9032POPC   C4B51874  38.688  29.092   7.353
 9033POPC   NC351875   1.186  19.083   5.553
 9033POPC   PO451876   1.211  19.099   5.853
 9033POPC   GL151877   1.227  19.072   6.153
 9033POPC   GL251878   1.332  19.072   6.153
 9033POPC   C1A51879   1.172  19.025   6.453
 9033POPC   D2A51880   1.170  19.098   6.753
 9033POPC   C3A51881   1.194  19.038   7.053
 9033POPC   C4A51882   1.190  19.069   7.353
 9033POPC   C1B51883   1.504  19.074   6.453
 9033POPC   C2B51884   1.466  19.070   6.753
 9033POPC   C3B51885   1.452  19.079   7.053
 9033POPC   C4B51886   1.507  19.113   7.353
 9034POPC   NC351887   5.918  35.381   5.553
 9034POPC   PO451888   5.824  35.335   5.853
 9034POPC   GL151889   5.851  35.345   6.153
 9034POPC   GL251890   5.956  35.380   6.153
 9034POPC   C1A51891   5.905  35.330   6.453
 9034POPC   D2A51892   5.873  35.317   6.753
 9034POPC   C3A51893   5.916  35.341   7.053
 9034POPC   C4A51894   5.843  35.313   7.353
 9034POPC   C1B51895   6.094  35.432   6.453
 9034POPC   C2B51896   6.103  35.452   6.753
 9034POPC   C3B51897   6.097  35.418   7.053
 9034POPC   C4B51898   6.072  35.461   7.353
 9035POPC   NC351899  40.048  21.345   5.553
 9035POPC   PO451900  40.051  21.351   5.853
 9035POPC   GL151901  39.984  21.435   6.153
 9035POPC   GL251902  39.925  21.525   6.153
 9035POPC   C1A51903  39.989  21.370   6.453
 9035POPC   D2A51904  40.031  21.337   6.753
 9035POPC   C3A51905  40.012  21.433   7.053
 9035POPC   C4A51906  40.030  21.353   7.353
 9035POPC   C1B51907  39.863  21.591   6.453
 9035POPC   C2B51908  39.854  21.636   6.753
 9035POPC   C3B51909  39.887  21.640   7.053
 9035POPC   C4B51910  39.908  21.561   7.353
 9036POPC   NC351911   3.564  33.003   5.553
 9036POPC   PO451912   3.497  33.048   5.853
 9036POPC   GL151913   3.501  32.998   6.153
 9036POPC   GL251914   3.554  32.926   6.153
 9036POPC   C1A51915   3.522  33.074   6.453
 9036POPC   D2A51916   3.568  33.051   6.753
 9036POPC   C3A51917   3.564  33.051   7.053
 9036POPC   C4A51918   3.565  33.012   7.353
 9036POPC   C1B51919   3.553  32.774   6.453
 9036POPC   C2B51920   3.544  32.759   6.753
 9036POPC   C3B51921   3.574  32.816   7.053
 9036POPC   C4B51922   3.533  32.735   7.353
 9037POPC   NC351923  21.404  14.356   5.553
 9037POPC   PO451924  21.377  14.416   5.853
 9037POPC   GL151925  21.423  14.381   6.153
 9037POPC   GL251926  21.548  14.375   6.153
 9037POPC   C1A51927  21.365  14.437   6.453
 9037POPC   D2A51928  21.412  14.453   6.753
 9037POPC   C3A51929  21.434  14.424   7.053
 9037POPC   C4A51930  21.363  14.360   7.353
 9037POPC   C1B51931  21.588  14.436   6.453
 9037POPC   C2B51932  21.674  14.416   6.753
 9037POPC   C3B51933  21.642  14.373   7.053
 9037POPC   C4B51934  21.672  14.392   7.353
 9038POPC   NC351935  36.895  44.681   5.553
 9038POPC   PO451936  36.941  44.647   5.853
 9038POPC   GL151937  36.875  44.652   6.153
 9038POPC   GL251938  37.042  44.592   6.153
 9038POPC   C1A51939  36.953  44.638   6.453
 9038POPC   D2A51940  36.905  44.693   6.753
 9038POPC   C3A51941  36.898  44.661   7.053
 9038POPC   C4A51942  36.949  44.712   7.353
 9038POPC   C1B51943  37.123  44.579   6.453
 9038POPC   C2B51944  37.118  44.611   6.753
 9038POPC   C3B51945  37.117  44.574   7.053
 9038POPC   C4B51946  37.152  44.581   7.353
 9039POPC   NC351947  21.385  40.780   5.553
 9039POPC   PO451948  21.345  40.781   5.853
 9039POPC   GL151949  21.434  40.812   6.153
 9039POPC   GL251950  21.258  40.836   6.153
 9039POPC   C1A51951  21.352  40.753   6.453
 9039POPC   D2A51952  21.407  40.829   6.753
 9039POPC   C3A51953  21.392  40.819   7.053
 9039POPC   C4A51954  21.347  40.779   7.353
 9039POPC   C1B51955  21.233  40.950   6.453
 9039POPC   C2B51956  21.230  40.983   6.753
 9039POPC   C3B51957  21.174  40.943   7.053
 9039POPC   C4B51958  21.183  40.922   7.353
 9040POPC   NC351959  43.127   1.184   5.553
 9040POPC   PO451960  43.088   1.233   5.853
 9040POPC   GL151961  43.086   1.199   6.153
 9040POPC   GL251962  43.218   1.244   6.153
 9040POPC   C1A51963  43.131   1.238   6.453
 9040POPC   D2A51964  43.099   1.200   6.753
 9040POPC   C3A51965  43.074   1.250   7.053
 9040POPC   C4A51966  43.137   1.172   7.353
 9040POPC   C1B51967  43.369   1.249   6.453
 9040POPC   C2B51968  43.387   1.181   6.753
 9040POPC   C3B51969  43.332   1.231   7.053
 9040POPC   C4B51970  43.346   1.202   7.353
 9041POPC   NC351971   8.943   2.796   5.553
 9041POPC   PO451972   8.986   2.720   5.853
 9041POPC   GL151973   8.972   2.722   6.153
 9041POPC   GL251974   8.938   2.930   6.153
 9041POPC   C1A51975   8.984   2.780   6.453
 9041POPC   D2A51976   8.933   2.754   6.753
 9041POPC   C3A51977   8.992   2.732   7.053
 9041POPC   C4A51978   8.931   2.767   7.353
 9041POPC   C1B51979   9.001   3.028   6.453
 9041POPC   C2B51980   8.988   3.041   6.753
 9041POPC   C3B51981   9.001   3.050   7.053
 9041POPC   C4B51982   9.017   2.995   7.353
 9042POPC   NC351983   7.400  43.140   5.553
 9042POPC   PO451984   7.450  43.091   5.853
 9042POPC   GL151985   7.450  43.148   6.153
 9042POPC   GL251986   7.585  43.147   6.153
 9042POPC   C1A51987   7.395  43.100   6.453
 9042POPC   D2A51988   7.402  43.064   6.753
 9042POPC   C3A51989   7.371  43.072   7.053
 9042POPC   C4A51990   7.466  43.084   7.353
 9042POPC   C1B51991   7.621  43.162   6.453
 9042POPC   C2B51992   7.602  43.211   6.753
 9042POPC   C3B51993   7.606  43.183   7.053
 9042POPC   C4B51994   7.651  43.259   7.353
 9043POPC   NC351995  12.840  32.260   5.553
 9043POPC   PO451996  12.833  32.250   5.853
 9043POPC   GL151997  12.898  32.205   6.153
 9043POPC   GL251998  12.768  32.134   6.153
 9043POPC   C1A51999  12.858  32.278   6.453
 9043POPC   D2A52000  12.815  32.250   6.753
 9043POPC   C3A52001  12.857  32.256   7.053
 9043POPC   C4A52002  12.883  32.278   7.353
 9043POPC   C1B52003  12.751  32.024   6.453
 9043POPC   C2B52004  12.750  31.975   6.753
 9043POPC   C3B52005  12.748  31.972   7.053
 9043POPC   C4B52006  12.771  32.022   7.353
 9044POPC   NC352007   1.977   5.105   5.553
 9044POPC   PO452008   1.948   5.139   5.853
 9044POPC   GL152009   1.983   5.087   6.153
 9044POPC   GL252010   1.996   5.002   6.153
 9044POPC   C1A52011   2.000   5.137   6.453
 9044POPC   D2A52012   1.940   5.089   6.753
 9044POPC   C3A52013   2.013   5.048   7.053
 9044POPC   C4A52014   1.942   5.059   7.353
 9044POPC   C1B52015   1.927   4.819   6.453
 9044POPC   C2B52016   1.945   4.875   6.753
 9044POPC   C3B52017   1.881   4.845   7.053
 9044POPC   C4B52018   1.906   4.886   7.353
 9045POPC   NC352019  37.634  26.803   5.553
 9045POPC   PO452020  37.697  26.850   5.853
 9045POPC   GL152021  37.665  26.806   6.153
 9045POPC   GL252022  37.623  26.888   6.153
 9045POPC   C1A52023  37.706  26.829   6.453
 9045POPC   D2A52024  37.688  26.789   6.753
 9045POPC   C3A52025  37.656  26.795   7.053
 9045POPC   C4A52026  37.656  26.805   7.353
 9045POPC   C1B52027  37.457  26.992   6.453
 9045POPC   C2B52028  37.448  26.970   6.753
 9045POPC   C3B52029  37.506  26.970   7.053
 9045POPC   C4B52030  37.455  26.972   7.353
 9046POPC   NC352031  19.063   4.350   5.553
 9046POPC   PO452032  19.077   4.272   5.853
 9046POPC   GL152033  19.095   4.315   6.153
 9046POPC   GL252034  19.154   4.334   6.153
 9046POPC   C1A52035  19.084   4.287   6.453
 9046POPC   D2A52036  19.104   4.333   6.753
 9046POPC   C3A52037  19.101   4.281   7.053
 9046POPC   C4A52038  19.049   4.296   7.353
 9046POPC   C1B52039  19.301   4.444   6.453
 9046POPC   C2B52040  19.319   4.462   6.753
 9046POPC   C3B52041  19.322   4.374   7.053
 9046POPC   C4B52042  19.332   4.409   7.353
 9047POPC   NC352043  23.684  20.579   5.553
 9047POPC   PO452044  23.696  20.642   5.853
 9047POPC   GL152045  23.700  20.646   6.153
 9047POPC   GL252046  23.778  20.484   6.153
 9047POPC   C1A52047  23.700  20.582   6.453
 9047POPC   D2A52048  23.683  20.593   6.753
 9047POPC   C3A52049  23.680  20.591   7.053
 9047POPC   C4A52050  23.722  20.611   7.353
 9047POPC   C1B52051  23.943  20.410   6.453
 9047POPC   C2B52052  23.908  20.423   6.753
 9047POPC   C3B52053  23.891  20.443   7.053
 9047POPC   C4B52054  23.898  20.448   7.353
 9048POPC   NC352055  43.066  32.209   5.553
 9048POPC   PO452056  43.065  32.294   5.853
 9048POPC   GL152057  43.125  32.243   6.153
 9048POPC   GL252058  43.178  32.301   6.153
 9048POPC   C1A52059  43.109  32.212   6.453
 9048POPC   D2A52060  43.098  32.217   6.753
 9048POPC   C3A52061  43.109  32.285   7.053
 9048POPC   C4A52062  43.132  32.286   7.353
 9048POPC   C1B52063  43.272  32.365   6.453
 9048POPC   C2B52064  43.348  32.388   6.753
 9048POPC   C3B52065  43.281  32.379   7.053
 9048POPC   C4B52066  43.313  32.372   7.353
 9049POPC   NC352067  22.125  12.088   5.553
 9049POPC   PO452068  22.181  12.066   5.853
 9049POPC   GL152069  22.205  12.070   6.153
 9049POPC   GL252070  22.012  12.000   6.153
 9049POPC   C1A52071  22.179  12.070   6.453
 9049POPC   D2A52072  22.184  12.098   6.753
 9049POPC   C3A52073  22.190  12.034   7.053
 9049POPC   C4A52074  22.143  12.108   7.353
 9049POPC   C1B52075  21.956  12.066   6.453
 9049POPC   C2B52076  21.893  12.021   6.753
 9049POPC   C3B52077  21.897  12.015   7.053
 9049POPC   C4B52078  21.869  12.019   7.353
 9050POPC   NC352079  38.411  20.649   5.553
 9050POPC   PO452080  38.458  20.660   5.853
 9050POPC   GL152081  38.417  20.599   6.153
 9050POPC   GL252082  38.360  20.737   6.153
 9050POPC   C1A52083  38.492  20.635   6.453
 9050POPC   D2A52084  38.425  20.587   6.753
 9050POPC   C3A52085  38.472  20.595   7.053
 9050POPC   C4A52086  38.452  20.581   7.353
 9050POPC   C1B52087  38.267  20.781   6.453
 9050POPC   C2B52088  38.347  20.842   6.753
 9050POPC   C3B52089  38.314  20.811   7.053
 9050POPC   C4B52090  38.309  20.812   7.353
 9051POPC   NC352091  37.719  24.464   5.553
 9051POPC   PO452092  37.678  24.517   5.853
 9051POPC   GL152093  37.710  24.457   6.153
 9051POPC   GL252094  37.780  24.494   6.153
 9051POPC   C1A52095  37.658  24.534   6.453
 9051POPC   D2A52096  37.645  24.444   6.753
 9051POPC   C3A52097  37.656  24.448   7.053
 9051POPC   C4A52098  37.636  24.512   7.353
 9051POPC   C1B52099  37.906  24.457   6.453
 9051POPC   C2B52100  37.887  24.461   6.753
 9051POPC   C3B52101  37.978  24.507   7.053
 9051POPC   C4B52102  37.944  24.524   7.353
 9052POPC   NC352103  11.308   6.689   5.553
 9052POPC   PO452104  11.291   6.642   5.853
 9052POPC   GL152105  11.319   6.636   6.153
 9052POPC   GL252106  11.257   6.580   6.153
 9052POPC   C1A52107  11.343   6.603   6.453
 9052POPC   D2A52108  11.267   6.663   6.753
 9052POPC   C3A52109  11.330   6.657   7.053
 9052POPC   C4A52110  11.288   6.636   7.353
 9052POPC   C1B52111  11.109   6.428   6.453
 9052POPC   C2B52112  11.114   6.494   6.753
 9052POPC   C3B52113  11.128   6.429   7.053
 9052POPC   C4B52114  11.070   6.453   7.353
 9053POPC   NC352115  44.664  17.471   5.553
 9053POPC   PO452116  44.703  17.545   5.853
 9053POPC   GL152117  44.663  17.495   6.153
 9053POPC   GL252118  44.543  17.621   6.153
 9053POPC   C1A52119  44.663  17.531   6.453
 9053POPC   D2A52120  44.643  17.547   6.753
 9053POPC   C3A52121  44.709  17.522   7.053
 9053POPC   C4A52122  44.703  17.500   7.353
 9053POPC   C1B52123  44.513  17.741   6.453
 9053POPC   C2B52124  44.500  17.702   6.753
 9053POPC   C3B52125  44.535  17.657   7.053
 9053POPC   C4B52126  44.477  17.708   7.353
 9054POPC   NC352127  15.933  31.488   5.553
 9054POPC   PO452128  15.955  31.457   5.853
 9054POPC   GL152129  15.974  31.493   6.153
 9054POPC   GL252130  15.876  31.528   6.153
 9054POPC   C1A52131  15.936  31.521   6.453
 9054POPC   D2A52132  15.950  31.459   6.753
 9054POPC   C3A52133  15.964  31.480   7.053
 9054POPC   C4A52134  15.987  31.443   7.353
 9054POPC   C1B52135  15.659  31.522   6.453
 9054POPC   C2B52136  15.708  31.509   6.753
 9054POPC   C3B52137  15.699  31.500   7.053
 9054POPC   C4B52138  15.721  31.506   7.353
 9055POPC   NC352139   8.937  12.109   5.553
 9055POPC   PO452140   8.990  12.049   5.853
 9055POPC   GL152141   9.012  12.048   6.153
 9055POPC   GL252142   8.929  12.128   6.153
 9055POPC   C1A52143   8.972  12.117   6.453
 9055POPC   D2A52144   9.011  12.064   6.753
 9055POPC   C3A52145   8.965  12.122   7.053
 9055POPC   C4A52146   8.936  12.094   7.353
 9055POPC   C1B52147   8.798  12.293   6.453
 9055POPC   C2B52148   8.813  12.279   6.753
 9055POPC   C3B52149   8.763  12.296   7.053
 9055POPC   C4B52150   8.780  12.282   7.353
 9056POPC   NC352151  22.189   3.504   5.553
 9056POPC   PO452152  22.167   3.580   5.853
 9056POPC   GL152153  22.138   3.527   6.153
 9056POPC   GL252154  22.326   3.611   6.153
 9056POPC   C1A52155  22.196   3.573   6.453
 9056POPC   D2A52156  22.137   3.530   6.753
 9056POPC   C3A52157  22.196   3.500   7.053
 9056POPC   C4A52158  22.197   3.547   7.353
 9056POPC   C1B52159  22.430   3.591   6.453
 9056POPC   C2B52160  22.389   3.614   6.753
 9056POPC   C3B52161  22.392   3.595   7.053
 9056POPC   C4B52162  22.441   3.653   7.353
 9057POPC   NC352163   8.944   4.304   5.553
 9057POPC   PO452164   8.932   4.343   5.853
 9057POPC   GL152165   8.944   4.334   6.153
 9057POPC   GL252166   8.967   4.173   6.153
 9057POPC   C1A52167   8.938   4.281   6.453
 9057POPC   D2A52168   8.972   4.364   6.753
 9057POPC   C3A52169   8.983   4.342   7.053
 9057POPC   C4A52170   8.944   4.294   7.353
 9057POPC   C1B52171   8.984   4.066   6.453
 9057POPC   C2B52172   9.007   4.081   6.753
 9057POPC   C3B52173   8.991   4.075   7.053
 9057POPC   C4B52174   9.055   4.118   7.353
 9058POPC   NC352175   4.291  27.616   5.553
 9058POPC   PO452176   4.327  27.609   5.853
 9058POPC   GL152177   4.358  27.643   6.153
 9058POPC   GL252178   4.300  27.465   6.153
 9058POPC   C1A52179   4.334  27.572   6.453
 9058POPC   D2A52180   4.279  27.627   6.753
 9058POPC   C3A52181   4.323  27.606   7.053
 9058POPC   C4A52182   4.332  27.610   7.353
 9058POPC   C1B52183   4.269  27.321   6.453
 9058POPC   C2B52184   4.254  27.355   6.753
 9058POPC   C3B52185   4.220  27.395   7.053
 9058POPC   C4B52186   4.271  27.370   7.353
 9059POPC   NC352187   4.291  31.466   5.553
 9059POPC   PO452188   4.350  31.503   5.853
 9059POPC   GL152189   4.327  31.449   6.153
 9059POPC   GL252190   4.333  31.358   6.153
 9059POPC   C1A52191   4.283  31.468   6.453
 9059POPC   D2A52192   4.291  31.455   6.753
 9059POPC   C3A52193   4.325  31.447   7.053
 9059POPC   C4A52194   4.283  31.495   7.353
 9059POPC   C1B52195   4.394  31.259   6.453
 9059POPC   C2B52196   4.359  31.229   6.753
 9059POPC   C3B52197   4.331  31.226   7.053
 9059POPC   C4B52198   4.331  31.192   7.353
 9060POPC   NC352199   9.016  38.409   5.553
 9060POPC   PO452200   8.995  38.465   5.853
 9060POPC   GL152201   8.942  38.471   6.153
 9060POPC   GL252202   9.081  38.491   6.153
 9060POPC   C1A52203   8.939  38.492   6.453
 9060POPC   D2A52204   8.944  38.453   6.753
 9060POPC   C3A52205   8.971  38.435   7.053
 9060POPC   C4A52206   8.950  38.463   7.353
 9060POPC   C1B52207   9.220  38.438   6.453
 9060POPC   C2B52208   9.267  38.429   6.753
 9060POPC   C3B52209   9.205  38.509   7.053
 9060POPC   C4B52210   9.179  38.426   7.353
 9061POPC   NC352211  23.707   5.138   5.553
 9061POPC   PO452212  23.724   5.077   5.853
 9061POPC   GL152213  23.669   5.116   6.153
 9061POPC   GL252214  23.881   5.134   6.153
 9061POPC   C1A52215  23.696   5.064   6.453
 9061POPC   D2A52216  23.699   5.095   6.753
 9061POPC   C3A52217  23.727   5.126   7.053
 9061POPC   C4A52218  23.713   5.108   7.353
 9061POPC   C1B52219  23.914   5.094   6.453
 9061POPC   C2B52220  23.949   5.067   6.753
 9061POPC   C3B52221  23.959   5.134   7.053
 9061POPC   C4B52222  23.990   5.129   7.353
 9062POPC   NC352223  13.630   7.399   5.553
 9062POPC   PO452224  13.607   7.389   5.853
 9062POPC   GL152225  13.630   7.393   6.153
 9062POPC   GL252226  13.514   7.487   6.153
 9062POPC   C1A52227  13.630   7.440   6.453
 9062POPC   D2A52228  13.606   7.413   6.753
 9062POPC   C3A52229  13.632   7.382   7.053
 9062POPC   C4A52230  13.593   7.398   7.353
 9062POPC   C1B52231  13.484   7.583   6.453
 9062POPC   C2B52232  13.478   7.617   6.753
 9062POPC   C3B52233  13.492   7.619   7.053
 9062POPC   C4B52234  13.483   7.581   7.353
 9063POPC   NC352235  36.875  15.203   5.553
 9063POPC   PO452236  36.899  15.185   5.853
 9063POPC   GL152237  36.909  15.196   6.153
 9063POPC   GL252238  37.048  15.207   6.153
 9063POPC   C1A52239  36.877  15.174   6.453
 9063POPC   D2A52240  36.900  15.195   6.753
 9063POPC   C3A52241  36.857  15.228   7.053
 9063POPC   C4A52242  36.940  15.155   7.353
 9063POPC   C1B52243  37.113  15.200   6.453
 9063POPC   C2B52244  37.183  15.237   6.753
 9063POPC   C3B52245  37.131  15.230   7.053
 9063POPC   C4B52246  37.104  15.223   7.353
 9064POPC   NC352247   0.460  37.718   5.553
 9064POPC   PO452248   0.410  37.715   5.853
 9064POPC   GL152249   0.401  37.674   6.153
 9064POPC   GL252250   0.291  37.673   6.153
 9064POPC   C1A52251   0.440  37.633   6.453
 9064POPC   D2A52252   0.440  37.675   6.753
 9064POPC   C3A52253   0.432  37.703   7.053
 9064POPC   C4A52254   0.487  37.645   7.353
 9064POPC   C1B52255   0.156  37.644   6.453
 9064POPC   C2B52256   0.144  37.613   6.753
 9064POPC   C3B52257   0.180  37.672   7.053
 9064POPC   C4B52258   0.165  37.673   7.353
 9065POPC   NC352259  35.360   5.904   5.553
 9065POPC   PO452260  35.326   5.892   5.853
 9065POPC   GL152261  35.397   5.833   6.153
 9065POPC   GL252262  35.442   5.860   6.153
 9065POPC   C1A52263  35.321   5.859   6.453
 9065POPC   D2A52264  35.327   5.841   6.753
 9065POPC   C3A52265  35.337   5.863   7.053
 9065POPC   C4A52266  35.337   5.871   7.353
 9065POPC   C1B52267  35.606   5.812   6.453
 9065POPC   C2B52268  35.569   5.777   6.753
 9065POPC   C3B52269  35.623   5.841   7.053
 9065POPC   C4B52270  35.624   5.855   7.353
 9066POPC   NC352271   1.980  14.430   5.553
 9066POPC   PO452272   1.993  14.396   5.853
 9066POPC   GL152273   2.003  14.422   6.153
 9066POPC   GL252274   2.065  14.481   6.153
 9066POPC   C1A52275   2.019  14.391   6.453
 9066POPC   D2A52276   1.965  14.383   6.753
 9066POPC   C3A52277   1.985  14.354   7.053
 9066POPC   C4A52278   1.953  14.369   7.353
 9066POPC   C1B52279   2.032  14.667   6.453
 9066POPC   C2B52280   2.102  14.598   6.753
 9066POPC   C3B52281   2.073  14.661   7.053
 9066POPC   C4B52282   2.066  14.618   7.353
 9067POPC   NC352283  18.303   3.501   5.553
 9067POPC   PO452284  18.320   3.540   5.853
 9067POPC   GL152285  18.276   3.584   6.153
 9067POPC   GL252286  18.341   3.457   6.153
 9067POPC   C1A52287  18.300   3.584   6.453
 9067POPC   D2A52288  18.281   3.502   6.753
 9067POPC   C3A52289  18.326   3.530   7.053
 9067POPC   C4A52290  18.296   3.567   7.353
 9067POPC   C1B52291  18.511   3.337   6.453
 9067POPC   C2B52292  18.484   3.388   6.753
 9067POPC   C3B52293  18.497   3.426   7.053
 9067POPC   C4B52294  18.458   3.424   7.353
 9068POPC   NC352295  40.827   3.493   5.553
 9068POPC   PO452296  40.785   3.550   5.853
 9068POPC   GL152297  40.734   3.497   6.153
 9068POPC   GL252298  40.791   3.439   6.153
 9068POPC   C1A52299  40.790   3.530   6.453
 9068POPC   D2A52300  40.817   3.545   6.753
 9068POPC   C3A52301  40.776   3.565   7.053
 9068POPC   C4A52302  40.772   3.498   7.353
 9068POPC   C1B52303  40.880   3.325   6.453
 9068POPC   C2B52304  40.820   3.314   6.753
 9068POPC   C3B52305  40.810   3.293   7.053
 9068POPC   C4B52306  40.838   3.326   7.353
 9069POPC   NC352307   1.241  36.173   5.553
 9069POPC   PO452308   1.232  36.175   5.853
 9069POPC   GL152309   1.198  36.092   6.153
 9069POPC   GL252310   1.346  36.243   6.153
 9069POPC   C1A52311   1.181  36.127   6.453
 9069POPC   D2A52312   1.168  36.167   6.753
 9069POPC   C3A52313   1.180  36.093   7.053
 9069POPC   C4A52314   1.250  36.121   7.353
 9069POPC   C1B52315   1.431  36.312   6.453
 9069POPC   C2B52316   1.369  36.231   6.753
 9069POPC   C3B52317   1.435  36.238   7.053
 9069POPC   C4B52318   1.435  36.276   7.353
 9070POPC   NC352319  26.778  26.861   5.553
 9070POPC   PO452320  26.859  26.794   5.853
 9070POPC   GL152321  26.821  26.809   6.153
 9070POPC   GL252322  26.735  26.931   6.153
 9070POPC   C1A52323  26.787  26.783   6.453
 9070POPC   D2A52324  26.799  26.806   6.753
 9070POPC   C3A52325  26.854  26.856   7.053
 9070POPC   C4A52326  26.854  26.843   7.353
 9070POPC   C1B52327  26.577  26.958   6.453
 9070POPC   C2B52328  26.595  26.994   6.753
 9070POPC   C3B52329  26.610  26.996   7.053
 9070POPC   C4B52330  26.611  26.977   7.353
 9071POPC   NC352331  11.274  10.477   5.553
 9071POPC   PO452332  11.269  10.509   5.853
 9071POPC   GL152333  11.343  10.527   6.153
 9071POPC   GL252334  11.332  10.420   6.153
 9071POPC   C1A52335  11.263  10.516   6.453
 9071POPC   D2A52336  11.273  10.482   6.753
 9071POPC   C3A52337  11.287  10.525   7.053
 9071POPC   C4A52338  11.253  10.501   7.353
 9071POPC   C1B52339  11.314  10.266   6.453
 9071POPC   C2B52340  11.302  10.246   6.753
 9071POPC   C3B52341  11.356  10.283   7.053
 9071POPC   C4B52342  11.345  10.251   7.353
 9072POPC   NC352343  40.774   6.596   5.553
 9072POPC   PO452344  40.775   6.601   5.853
 9072POPC   GL152345  40.814   6.623   6.153
 9072POPC   GL252346  40.912   6.649   6.153
 9072POPC   C1A52347  40.804   6.657   6.453
 9072POPC   D2A52348  40.750   6.648   6.753
 9072POPC   C3A52349  40.752   6.638   7.053
 9072POPC   C4A52350  40.746   6.603   7.353
 9072POPC   C1B52351  40.990   6.756   6.453
 9072POPC   C2B52352  41.042   6.738   6.753
 9072POPC   C3B52353  41.003   6.761   7.053
 9072POPC   C4B52354  40.986   6.730   7.353
 9073POPC   NC352355  43.927  31.455   5.553
 9073POPC   PO452356  43.930  31.509   5.853
 9073POPC   GL152357  43.869  31.518   6.153
 9073POPC   GL252358  43.902  31.634   6.153
 9073POPC   C1A52359  43.861  31.475   6.453
 9073POPC   D2A52360  43.932  31.489   6.753
 9073POPC   C3A52361  43.880  31.491   7.053
 9073POPC   C4A52362  43.877  31.508   7.353
 9073POPC   C1B52363  43.805  31.678   6.453
 9073POPC   C2B52364  43.866  31.728   6.753
 9073POPC   C3B52365  43.842  31.752   7.053
 9073POPC   C4B52366  43.797  31.697   7.353
 9074POPC   NC352367  18.241  40.006   5.553
 9074POPC   PO452368  18.260  39.962   5.853
 9074POPC   GL152369  18.331  39.985   6.153
 9074POPC   GL252370  18.281  40.126   6.153
 9074POPC   C1A52371  18.293  39.971   6.453
 9074POPC   D2A52372  18.327  40.023   6.753
 9074POPC   C3A52373  18.269  39.994   7.053
 9074POPC   C4A52374  18.330  40.015   7.353
 9074POPC   C1B52375  18.366  40.290   6.453
 9074POPC   C2B52376  18.309  40.267   6.753
 9074POPC   C3B52377  18.375  40.267   7.053
 9074POPC   C4B52378  18.344  40.210   7.353
 9075POPC   NC352379  43.876   5.854   5.553
 9075POPC   PO452380  43.925   5.857   5.853
 9075POPC   GL152381  43.880   5.892   6.153
 9075POPC   GL252382  43.954   5.836   6.153
 9075POPC   C1A52383  43.839   5.901   6.453
 9075POPC   D2A52384  43.902   5.880   6.753
 9075POPC   C3A52385  43.904   5.858   7.053
 9075POPC   C4A52386  43.888   5.917   7.353
 9075POPC   C1B52387  44.122   5.725   6.453
 9075POPC   C2B52388  44.089   5.813   6.753
 9075POPC   C3B52389  44.117   5.794   7.053
 9075POPC   C4B52390  44.088   5.786   7.353
 9076POPC   NC352391  15.152   3.560   5.553
 9076POPC   PO452392  15.171   3.527   5.853
 9076POPC   GL152393  15.176   3.550   6.153
 9076POPC   GL252394  15.204   3.456   6.153
 9076POPC   C1A52395  15.214   3.573   6.453
 9076POPC   D2A52396  15.212   3.555   6.753
 9076POPC   C3A52397  15.144   3.523   7.053
 9076POPC   C4A52398  15.202   3.551   7.353
 9076POPC   C1B52399  15.244   3.282   6.453
 9076POPC   C2B52400  15.180   3.244   6.753
 9076POPC   C3B52401  15.201   3.289   7.053
 9076POPC   C4B52402  15.231   3.302   7.353
 9077POPC   NC352403  33.836  40.801   5.553
 9077POPC   PO452404  33.801  40.819   5.853
 9077POPC   GL152405  33.779  40.829   6.153
 9077POPC   GL252406  33.651  40.798   6.153
 9077POPC   C1A52407  33.782  40.829   6.453
 9077POPC   D2A52408  33.830  40.793   6.753
 9077POPC   C3A52409  33.765  40.774   7.053
 9077POPC   C4A52410  33.750  40.772   7.353
 9077POPC   C1B52411  33.582  40.781   6.453
 9077POPC   C2B52412  33.522  40.849   6.753
 9077POPC   C3B52413  33.534  40.780   7.053
 9077POPC   C4B52414  33.592  40.850   7.353
 9078POPC   NC352415  22.127  13.600   5.553
 9078POPC   PO452416  22.161  13.615   5.853
 9078POPC   GL152417  22.161  13.598   6.153
 9078POPC   GL252418  22.183  13.772   6.153
 9078POPC   C1A52419  22.140  13.650   6.453
 9078POPC   D2A52420  22.197  13.660   6.753
 9078POPC   C3A52421  22.152  13.597   7.053
 9078POPC   C4A52422  22.186  13.634   7.353
 9078POPC   C1B52423  22.177  13.870   6.453
 9078POPC   C2B52424  22.219  13.841   6.753
 9078POPC   C3B52425  22.128  13.927   7.053
 9078POPC   C4B52426  22.124  13.894   7.353
 9079POPC   NC352427   2.753  23.744   5.553
 9079POPC   PO452428   2.797  23.714   5.853
 9079POPC   GL152429   2.786  23.698   6.153
 9079POPC   GL252430   2.690  23.751   6.153
 9079POPC   C1A52431   2.763  23.673   6.453
 9079POPC   D2A52432   2.802  23.736   6.753
 9079POPC   C3A52433   2.749  23.701   7.053
 9079POPC   C4A52434   2.803  23.699   7.353
 9079POPC   C1B52435   2.532  23.837   6.453
 9079POPC   C2B52436   2.575  23.829   6.753
 9079POPC   C3B52437   2.512  23.877   7.053
 9079POPC   C4B52438   2.517  23.835   7.353
 9080POPC   NC352439   3.529   0.443   5.553
 9080POPC   PO452440   3.523   0.413   5.853
 9080POPC   GL152441   3.568   0.432   6.153
 9080POPC   GL252442   3.582   0.523   6.153
 9080POPC   C1A52443   3.572   0.435   6.453
 9080POPC   D2A52444   3.591   0.455   6.753
 9080POPC   C3A52445   3.575   0.424   7.053
 9080POPC   C4A52446   3.591   0.462   7.353
 9080POPC   C1B52447   3.687   0.704   6.453
 9080POPC   C2B52448   3.628   0.702   6.753
 9080POPC   C3B52449   3.688   0.681   7.053
 9080POPC   C4B52450   3.625   0.642   7.353
 9081POPC   NC352451  35.357  12.813   5.553
 9081POPC   PO452452  35.312  12.829   5.853
 9081POPC   GL152453  35.378  12.884   6.153
 9081POPC   GL252454  35.445  12.836   6.153
 9081POPC   C1A52455  35.377  12.896   6.453
 9081POPC   D2A52456  35.312  12.852   6.753
 9081POPC   C3A52457  35.355  12.876   7.053
 9081POPC   C4A52458  35.371  12.826   7.353
 9081POPC   C1B52459  35.609  12.812   6.453
 9081POPC   C2B52460  35.634  12.770   6.753
 9081POPC   C3B52461  35.568  12.861   7.053
 9081POPC   C4B52462  35.563  12.774   7.353
 9082POPC   NC352463  21.349  42.323   5.553
 9082POPC   PO452464  21.360  42.350   5.853
 9082POPC   GL152465  21.377  42.350   6.153
 9082POPC   GL252466  21.333  42.491   6.153
 9082POPC   C1A52467  21.410  42.371   6.453
 9082POPC   D2A52468  21.381  42.295   6.753
 9082POPC   C3A52469  21.392  42.341   7.053
 9082POPC   C4A52470  21.362  42.313   7.353
 9082POPC   C1B52471  21.332  42.605   6.453
 9082POPC   C2B52472  21.302  42.536   6.753
 9082POPC   C3B52473  21.315  42.557   7.053
 9082POPC   C4B52474  21.304  42.605   7.353
 9083POPC   NC352475   5.062  12.088   5.553
 9083POPC   PO452476   5.097  12.109   5.853
 9083POPC   GL152477   5.118  12.103   6.153
 9083POPC   GL252478   5.147  11.984   6.153
 9083POPC   C1A52479   5.127  12.042   6.453
 9083POPC   D2A52480   5.122  12.061   6.753
 9083POPC   C3A52481   5.097  12.077   7.053
 9083POPC   C4A52482   5.125  12.082   7.353
 9083POPC   C1B52483   5.111  11.822   6.453
 9083POPC   C2B52484   5.160  11.868   6.753
 9083POPC   C3B52485   5.142  11.859   7.053
 9083POPC   C4B52486   5.109  11.817   7.353
 9084POPC   NC352487  41.571  10.547   5.553
 9084POPC   PO452488  41.560  10.538   5.853
 9084POPC   GL152489  41.525  10.562   6.153
 9084POPC   GL252490  41.448  10.425   6.153
 9084POPC   C1A52491  41.551  10.516   6.453
 9084POPC   D2A52492  41.596  10.556   6.753
 9084POPC   C3A52493  41.555  10.483   7.053
 9084POPC   C4A52494  41.519  10.479   7.353
 9084POPC   C1B52495  41.360  10.446   6.453
 9084POPC   C2B52496  41.384  10.372   6.753
 9084POPC   C3B52497  41.372  10.416   7.053
 9084POPC   C4B52498  41.363  10.352   7.353
 9085POPC   NC352499  26.032  20.629   5.553
 9085POPC   PO452500  26.029  20.612   5.853
 9085POPC   GL152501  26.048  20.597   6.153
 9085POPC   GL252502  25.950  20.512   6.153
 9085POPC   C1A52503  26.063  20.628   6.453
 9085POPC   D2A52504  26.036  20.641   6.753
 9085POPC   C3A52505  26.064  20.647   7.053
 9085POPC   C4A52506  25.998  20.578   7.353
 9085POPC   C1B52507  25.818  20.487   6.453
 9085POPC   C2B52508  25.781  20.506   6.753
 9085POPC   C3B52509  25.784  20.440   7.053
 9085POPC   C4B52510  25.870  20.488   7.353
 9086POPC   NC352511  40.002   8.189   5.553
 9086POPC   PO452512  40.053   8.226   5.853
 9086POPC   GL152513  40.020   8.246   6.153
 9086POPC   GL252514  39.976   8.087   6.153
 9086POPC   C1A52515  39.985   8.151   6.453
 9086POPC   D2A52516  40.036   8.236   6.753
 9086POPC   C3A52517  40.041   8.198   7.053
 9086POPC   C4A52518  40.010   8.245   7.353
 9086POPC   C1B52519  40.030   7.995   6.453
 9086POPC   C2B52520  40.062   7.962   6.753
 9086POPC   C3B52521  40.052   7.964   7.053
 9086POPC   C4B52522  40.044   7.962   7.353
 9087POPC   NC352523  33.070  43.135   5.553
 9087POPC   PO452524  33.067  43.155   5.853
 9087POPC   GL152525  33.049  43.141   6.153
 9087POPC   GL252526  33.082  43.016   6.153
 9087POPC   C1A52527  33.059  43.156   6.453
 9087POPC   D2A52528  33.024  43.115   6.753
 9087POPC   C3A52529  33.074  43.100   7.053
 9087POPC   C4A52530  33.040  43.102   7.353
 9087POPC   C1B52531  33.131  42.896   6.453
 9087POPC   C2B52532  33.082  42.858   6.753
 9087POPC   C3B52533  33.131  42.876   7.053
 9087POPC   C4B52534  33.092  42.851   7.353
 9088POPC   NC352535  44.620  41.519   5.553
 9088POPC   PO452536  44.692  41.539   5.853
 9088POPC   GL152537  44.696  41.608   6.153
 9088POPC   GL252538  44.583  41.447   6.153
 9088POPC   C1A52539  44.630  41.569   6.453
 9088POPC   D2A52540  44.641  41.582   6.753
 9088POPC   C3A52541  44.645  41.543   7.053
 9088POPC   C4A52542  44.642  41.555   7.353
 9088POPC   C1B52543  44.580  41.316   6.453
 9088POPC   C2B52544  44.545  41.318   6.753
 9088POPC   C3B52545  44.613  41.352   7.053
 9088POPC   C4B52546  44.599  41.285   7.353
 9089POPC   NC352547   5.103  15.982   5.553
 9089POPC   PO452548   5.124  15.990   5.853
 9089POPC   GL152549   5.133  15.964   6.153
 9089POPC   GL252550   5.117  15.874   6.153
 9089POPC   C1A52551   5.101  15.923   6.453
 9089POPC   D2A52552   5.091  15.956   6.753
 9089POPC   C3A52553   5.080  15.992   7.053
 9089POPC   C4A52554   5.101  15.980   7.353
 9089POPC   C1B52555   5.038  15.683   6.453
 9089POPC   C2B52556   5.037  15.683   6.753
 9089POPC   C3B52557   5.017  15.700   7.053
 9089POPC   C4B52558   5.081  15.728   7.353
 9090POPC   NC352559  12.124  32.225   5.553
 9090POPC   PO452560  12.083  32.263   5.853
 9090POPC   GL152561  12.096  32.249   6.153
 9090POPC   GL252562  12.233  32.257   6.153
 9090POPC   C1A52563  12.027  32.210   6.453
 9090POPC   D2A52564  12.072  32.282   6.753
 9090POPC   C3A52565  12.080  32.207   7.053
 9090POPC   C4A52566  12.030  32.233   7.353
 9090POPC   C1B52567  12.355  32.300   6.453
 9090POPC   C2B52568  12.303  32.265   6.753
 9090POPC   C3B52569  12.355  32.287   7.053
 9090POPC   C4B52570  12.334  32.296   7.353
 9091POPC   NC352571  25.222  42.311   5.553
 9091POPC   PO452572  25.246  42.302   5.853
 9091POPC   GL152573  25.240  42.346   6.153
 9091POPC   GL252574  25.144  42.280   6.153
 9091POPC   C1A52575  25.291  42.350   6.453
 9091POPC   D2A52576  25.264  42.318   6.753
 9091POPC   C3A52577  25.223  42.298   7.053
 9091POPC   C4A52578  25.309  42.345   7.353
 9091POPC   C1B52579  25.089  42.204   6.453
 9091POPC   C2B52580  25.053  42.215   6.753
 9091POPC   C3B52581  25.051  42.192   7.053
 9091POPC   C4B52582  25.052  42.162   7.353
 9092POPC   NC352583   6.625  25.254   5.553
 9092POPC   PO452584   6.618  25.313   5.853
 9092POPC   GL152585   6.639  25.277   6.153
 9092POPC   GL252586   6.548  25.362   6.153
 9092POPC   C1A52587   6.668  25.258   6.453
 9092POPC   D2A52588   6.620  25.313   6.753
 9092POPC   C3A52589   6.632  25.269   7.053
 9092POPC   C4A52590   6.669  25.285   7.353
 9092POPC   C1B52591   6.470  25.451   6.453
 9092POPC   C2B52592   6.436  25.471   6.753
 9092POPC   C3B52593   6.474  25.434   7.053
 9092POPC   C4B52594   6.493  25.436   7.353
 9093POPC   NC352595  18.332  38.499   5.553
 9093POPC   PO452596  18.291  38.441   5.853
 9093POPC   GL152597  18.252  38.463   6.153
 9093POPC   GL252598  18.345  38.583   6.153
 9093POPC   C1A52599  18.332  38.482   6.453
 9093POPC   D2A52600  18.265  38.499   6.753
 9093POPC   C3A52601  18.252  38.471   7.053
 9093POPC   C4A52602  18.272  38.411   7.353
 9093POPC   C1B52603  18.355  38.693   6.453
 9093POPC   C2B52604  18.357  38.727   6.753
 9093POPC   C3B52605  18.363  38.669   7.053
 9093POPC   C4B52606  18.311  38.680   7.353
 9094POPC   NC352607   2.011  40.784   5.553
 9094POPC   PO452608   2.029  40.743   5.853
 9094POPC   GL152609   1.947  40.749   6.153
 9094POPC   GL252610   1.960  40.709   6.153
 9094POPC   C1A52611   1.986  40.787   6.453
 9094POPC   D2A52612   2.029  40.737   6.753
 9094POPC   C3A52613   1.982  40.830   7.053
 9094POPC   C4A52614   2.018  40.753   7.353
 9094POPC   C1B52615   1.898  40.510   6.453
 9094POPC   C2B52616   1.922  40.600   6.753
 9094POPC   C3B52617   1.871  40.536   7.053
 9094POPC   C4B52618   1.938  40.578   7.353
 9095POPC   NC352619   3.574  42.350   5.553
 9095POPC   PO452620   3.523  42.308   5.853
 9095POPC   GL152621   3.564  42.306   6.153
 9095POPC   GL252622   3.490  42.163   6.153
 9095POPC   C1A52623   3.543  42.312   6.453
 9095POPC   D2A52624   3.576  42.371   6.753
 9095POPC   C3A52625   3.496  42.333   7.053
 9095POPC   C4A52626   3.497  42.359   7.353
 9095POPC   C1B52627   3.572  42.036   6.453
 9095POPC   C2B52628   3.583  42.098   6.753
 9095POPC   C3B52629   3.517  42.104   7.053
 9095POPC   C4B52630   3.543  42.062   7.353
 9096POPC   NC352631  35.360  10.553   5.553
 9096POPC   PO452632  35.377  10.546   5.853
 9096POPC   GL152633  35.380  10.503   6.153
 9096POPC   GL252634  35.468  10.537   6.153
 9096POPC   C1A52635  35.342  10.549   6.453
 9096POPC   D2A52636  35.332  10.535   6.753
 9096POPC   C3A52637  35.353  10.525   7.053
 9096POPC   C4A52638  35.326  10.546   7.353
 9096POPC   C1B52639  35.571  10.534   6.453
 9096POPC   C2B52640  35.603  10.573   6.753
 9096POPC   C3B52641  35.555  10.574   7.053
 9096POPC   C4B52642  35.575  10.609   7.353
 9097POPC   NC352643   0.473  38.440   5.553
 9097POPC   PO452644   0.487  38.489   5.853
 9097POPC   GL152645   0.436  38.465   6.153
 9097POPC   GL252646   0.509  38.529   6.153
 9097POPC   C1A52647   0.389  38.480   6.453
 9097POPC   D2A52648   0.471  38.434   6.753
 9097POPC   C3A52649   0.482  38.488   7.053
 9097POPC   C4A52650   0.438  38.496   7.353
 9097POPC   C1B52651   0.702  38.566   6.453
 9097POPC   C2B52652   0.681  38.473   6.753
 9097POPC   C3B52653   0.697  38.543   7.053
 9097POPC   C4B52654   0.633  38.547   7.353
 9098POPC   NC352655  21.410  22.967   5.553
 9098POPC   PO452656  21.413  22.915   5.853
 9098POPC   GL152657  21.425  22.950   6.153
 9098POPC   GL252658  21.363  22.803   6.153
 9098POPC   C1A52659  21.367  22.984   6.453
 9098POPC   D2A52660  21.338  22.943   6.753
 9098POPC   C3A52661  21.365  22.889   7.053
 9098POPC   C4A52662  21.349  22.890   7.353
 9098POPC   C1B52663  21.257  22.672   6.453
 9098POPC   C2B52664  21.331  22.741   6.753
 9098POPC   C3B52665  21.331  22.715   7.053
 9098POPC   C4B52666  21.309  22.694   7.353
 9099POPC   NC352667  44.704   9.736   5.553
 9099POPC   PO452668  44.637   9.745   5.853
 9099POPC   GL152669  44.631   9.781   6.153
 9099POPC   GL252670  44.569   9.822   6.153
 9099POPC   C1A52671  44.687   9.719   6.453
 9099POPC   D2A52672  44.675   9.732   6.753
 9099POPC   C3A52673  44.689   9.783   7.053
 9099POPC   C4A52674  44.700   9.743   7.353
 9099POPC   C1B52675  44.447   9.907   6.453
 9099POPC   C2B52676  44.466   9.959   6.753
 9099POPC   C3B52677  44.518   9.908   7.053
 9099POPC   C4B52678  44.428   9.926   7.353
 9100POPC   NC352679   2.812   0.457   5.553
 9100POPC   PO452680   2.770   0.427   5.853
 9100POPC   GL152681   2.735   0.485   6.153
 9100POPC   GL252682   2.828   0.528   6.153
 9100POPC   C1A52683   2.739   0.452   6.453
 9100POPC   D2A52684   2.756   0.414   6.753
 9100POPC   C3A52685   2.772   0.420   7.053
 9100POPC   C4A52686   2.794   0.463   7.353
 9100POPC   C1B52687   2.910   0.594   6.453
 9100POPC   C2B52688   2.940   0.658   6.753
 9100POPC   C3B52689   2.930   0.639   7.053
 9100POPC   C4B52690   2.905   0.571   7.353
 9101POPC   NC352691  44.619   5.078   5.553
 9101POPC   PO452692  44.622   5.105   5.853
 9101POPC   GL152693  44.635   5.126   6.153
 9101POPC   GL252694  44.758   4.964   6.153
 9101POPC   C1A52695  44.636   5.081   6.453
 9101POPC   D2A52696  44.665   5.086   6.753
 9101POPC   C3A52697  44.666   5.140   7.053
 9101POPC   C4A52698  44.630   5.087   7.353
 9101POPC   C1B52699  44.802   4.914   6.453
 9101POPC   C2B52700  44.829   4.871   6.753
 9101POPC   C3B52701  44.824   4.869   7.053
 9101POPC   C4B52702  44.812   4.872   7.353
 9102POPC   NC352703  13.583   3.537   5.553
 9102POPC   PO452704  13.643   3.498   5.853
 9102POPC   GL152705  13.593   3.527   6.153
 9102POPC   GL252706  13.534   3.483   6.153
 9102POPC   C1A52707  13.640   3.526   6.453
 9102POPC   D2A52708  13.594   3.585   6.753
 9102POPC   C3A52709  13.579   3.521   7.053
 9102POPC   C4A52710  13.664   3.524   7.353
 9102POPC   C1B52711  13.425   3.551   6.453
 9102POPC   C2B52712  13.393   3.548   6.753
 9102POPC   C3B52713  13.408   3.505   7.053
 9102POPC   C4B52714  13.404   3.525   7.353
 9103POPC   NC352715  41.526  17.516   5.553
 9103POPC   PO452716  41.588  17.474   5.853
 9103POPC   GL152717  41.531  17.524   6.153
 9103POPC   GL252718  41.397  17.476   6.153
 9103POPC   C1A52719  41.573  17.471   6.453
 9103POPC   D2A52720  41.550  17.551   6.753
 9103POPC   C3A52721  41.584  17.523   7.053
 9103POPC   C4A52722  41.571  17.554   7.353
 9103POPC   C1B52723  41.298  17.496   6.453
 9103POPC   C2B52724  41.281  17.577   6.753
 9103POPC   C3B52725  41.352  17.516   7.053
 9103POPC   C4B52726  41.312  17.556   7.353
 9104POPC   NC352727  19.070  28.362   5.553
 9104POPC   PO452728  19.032  28.405   5.853
 9104POPC   GL152729  19.089  28.383   6.153
 9104POPC   GL252730  19.130  28.453   6.153
 9104POPC   C1A52731  19.023  28.386   6.453
 9104POPC   D2A52732  19.014  28.325   6.753
 9104POPC   C3A52733  19.055  28.407   7.053
 9104POPC   C4A52734  19.035  28.365   7.353
 9104POPC   C1B52735  19.164  28.565   6.453
 9104POPC   C2B52736  19.127  28.634   6.753
 9104POPC   C3B52737  19.169  28.577   7.053
 9104POPC   C4B52738  19.086  28.629   7.353
 9105POPC   NC352739  41.576  16.705   5.553
 9105POPC   PO452740  41.542  16.735   5.853
 9105POPC   GL152741  41.510  16.717   6.153
 9105POPC   GL252742  41.457  16.754   6.153
 9105POPC   C1A52743  41.520  16.745   6.453
 9105POPC   D2A52744  41.540  16.773   6.753
 9105POPC   C3A52745  41.589  16.755   7.053
 9105POPC   C4A52746  41.577  16.738   7.353
 9105POPC   C1B52747  41.338  16.740   6.453
 9105POPC   C2B52748  41.339  16.705   6.753
 9105POPC   C3B52749  41.358  16.698   7.053
 9105POPC   C4B52750  41.335  16.757   7.353
 9106POPC   NC352751   5.110  26.025   5.553
 9106POPC   PO452752   5.054  26.080   5.853
 9106POPC   GL152753   5.057  26.011   6.153
 9106POPC   GL252754   5.123  26.145   6.153
 9106POPC   C1A52755   5.095  26.088   6.453
 9106POPC   D2A52756   5.097  26.072   6.753
 9106POPC   C3A52757   5.091  26.005   7.053
 9106POPC   C4A52758   5.103  26.028   7.353
 9106POPC   C1B52759   5.178  26.286   6.453
 9106POPC   C2B52760   5.226  26.260   6.753
 9106POPC   C3B52761   5.197  26.242   7.053
 9106POPC   C4B52762   5.223  26.244   7.353
 9107POPC   NC352763  24.512  28.413   5.553
 9107POPC   PO452764  24.514  28.338   5.853
 9107POPC   GL152765  24.454  28.385   6.153
 9107POPC   GL252766  24.360  28.482   6.153
 9107POPC   C1A52767  24.473  28.332   6.453
 9107POPC   D2A52768  24.486  28.393   6.753
 9107POPC   C3A52769  24.488  28.349   7.053
 9107POPC   C4A52770  24.467  28.395   7.353
 9107POPC   C1B52771  24.337  28.522   6.453
 9107POPC   C2B52772  24.300  28.509   6.753
 9107POPC   C3B52773  24.309  28.511   7.053
 9107POPC   C4B52774  24.303  28.593   7.353
 9108POPC   NC352775  39.216   2.725   5.553
 9108POPC   PO452776  39.190   2.760   5.853
 9108POPC   GL152777  39.185   2.730   6.153
 9108POPC   GL252778  39.171   2.705   6.153
 9108POPC   C1A52779  39.229   2.795   6.453
 9108POPC   D2A52780  39.215   2.767   6.753
 9108POPC   C3A52781  39.194   2.779   7.053
 9108POPC   C4A52782  39.190   2.739   7.353
 9108POPC   C1B52783  39.034   2.605   6.453
 9108POPC   C2B52784  39.014   2.619   6.753
 9108POPC   C3B52785  39.015   2.631   7.053
 9108POPC   C4B52786  39.069   2.609   7.353
 9109POPC   NC352787  36.107  35.385   5.553
 9109POPC   PO452788  36.121  35.383   5.853
 9109POPC   GL152789  36.122  35.337   6.153
 9109POPC   GL252790  35.994  35.232   6.153
 9109POPC   C1A52791  36.116  35.369   6.453
 9109POPC   D2A52792  36.092  35.324   6.753
 9109POPC   C3A52793  36.079  35.311   7.053
 9109POPC   C4A52794  36.082  35.314   7.353
 9109POPC   C1B52795  35.937  35.212   6.453
 9109POPC   C2B52796  35.994  35.175   6.753
 9109POPC   C3B52797  35.918  35.186   7.053
 9109POPC   C4B52798  35.971  35.166   7.353
 9110POPC   NC352799  43.925  27.618   5.553
 9110POPC   PO452800  43.894  27.603   5.853
 9110POPC   GL152801  43.887  27.557   6.153
 9110POPC   GL252802  43.795  27.659   6.153
 9110POPC   C1A52803  43.928  27.584   6.453
 9110POPC   D2A52804  43.865  27.633   6.753
 9110POPC   C3A52805  43.924  27.571   7.053
 9110POPC   C4A52806  43.859  27.613   7.353
 9110POPC   C1B52807  43.669  27.777   6.453
 9110POPC   C2B52808  43.648  27.794   6.753
 9110POPC   C3B52809  43.673  27.763   7.053
 9110POPC   C4B52810  43.653  27.764   7.353
 9111POPC   NC352811   0.404   3.497   5.553
 9111POPC   PO452812   0.482   3.586   5.853
 9111POPC   GL152813   0.432   3.525   6.153
 9111POPC   GL252814   0.456   3.690   6.153
 9111POPC   C1A52815   0.475   3.531   6.453
 9111POPC   D2A52816   0.451   3.520   6.753
 9111POPC   C3A52817   0.480   3.524   7.053
 9111POPC   C4A52818   0.477   3.539   7.353
 9111POPC   C1B52819   0.501   3.825   6.453
 9111POPC   C2B52820   0.441   3.783   6.753
 9111POPC   C3B52821   0.486   3.818   7.053
 9111POPC   C4B52822   0.459   3.835   7.353
 9112POPC   NC352823  39.976   7.412   5.553
 9112POPC   PO452824  40.034   7.458   5.853
 9112POPC   GL152825  40.023   7.450   6.153
 9112POPC   GL252826  40.050   7.490   6.153
 9112POPC   C1A52827  39.969   7.413   6.453
 9112POPC   D2A52828  39.982   7.433   6.753
 9112POPC   C3A52829  40.022   7.387   7.053
 9112POPC   C4A52830  39.977   7.421   7.353
 9112POPC   C1B52831  40.131   7.659   6.453
 9112POPC   C2B52832  40.079   7.697   6.753
 9112POPC   C3B52833  40.067   7.602   7.053
 9112POPC   C4B52834  40.123   7.620   7.353
 9113POPC   NC352835  11.326  44.669   5.553
 9113POPC   PO452836  11.252  44.700   5.853
 9113POPC   GL152837  11.262  44.691   6.153
 9113POPC   GL252838  11.404  44.552   6.153
 9113POPC   C1A52839  11.320  44.627   6.453
 9113POPC   D2A52840  11.285  44.647   6.753
 9113POPC   C3A52841  11.335  44.683   7.053
 9113POPC   C4A52842  11.312  44.707   7.353
 9113POPC   C1B52843  11.488  44.505   6.453
 9113POPC   C2B52844  11.488  44.475   6.753
 9113POPC   C3B52845  11.495  44.509   7.053
 9113POPC   C4B52846  11.451  44.492   7.353
 9114POPC   NC352847   5.076  39.235   5.553
 9114POPC   PO452848   5.067  39.186   5.853
 9114POPC   GL152849   5.090  39.210   6.153
 9114POPC   GL252850   4.956  39.242   6.153
 9114POPC   C1A52851   5.130  39.259   6.453
 9114POPC   D2A52852   5.130  39.183   6.753
 9114POPC   C3A52853   5.143  39.196   7.053
 9114POPC   C4A52854   5.076  39.245   7.353
 9114POPC   C1B52855   4.885  39.373   6.453
 9114POPC   C2B52856   4.913  39.316   6.753
 9114POPC   C3B52857   4.831  39.391   7.053
 9114POPC   C4B52858   4.851  39.391   7.353
 9115POPC   NC352859   0.390  29.874   5.553
 9115POPC   PO452860   0.405  29.921   5.853
 9115POPC   GL152861   0.461  29.872   6.153
 9115POPC   GL252862   0.517  30.033   6.153
 9115POPC   C1A52863   0.437  29.924   6.453
 9115POPC   D2A52864   0.429  29.888   6.753
 9115POPC   C3A52865   0.461  29.910   7.053
 9115POPC   C4A52866   0.457  29.964   7.353
 9115POPC   C1B52867   0.545  30.158   6.453
 9115POPC   C2B52868   0.513  30.173   6.753
 9115POPC   C3B52869   0.520  30.138   7.053
 9115POPC   C4B52870   0.553  30.140   7.353
 9116POPC   NC352871  26.839   6.639   5.553
 9116POPC   PO452872  26.799   6.599   5.853
 9116POPC   GL152873  26.856   6.629   6.153
 9116POPC   GL252874  26.661   6.698   6.153
 9116POPC   C1A52875  26.774   6.652   6.453
 9116POPC   D2A52876  26.836   6.648   6.753
 9116POPC   C3A52877  26.814   6.610   7.053
 9116POPC   C4A52878  26.795   6.675   7.353
 9116POPC   C1B52879  26.533   6.620   6.453
 9116POPC   C2B52880  26.522   6.639   6.753
 9116POPC   C3B52881  26.579   6.670   7.053
 9116POPC   C4B52882  26.546   6.659   7.353
 9117POPC   NC352883   3.494  27.573   5.553
 9117POPC   PO452884   3.572  27.564   5.853
 9117POPC   GL152885   3.557  27.543   6.153
 9117POPC   GL252886   3.639  27.599   6.153
 9117POPC   C1A52887   3.506  27.551   6.453
 9117POPC   D2A52888   3.580  27.629   6.753
 9117POPC   C3A52889   3.506  27.619   7.053
 9117POPC   C4A52890   3.509  27.596   7.353
 9117POPC   C1B52891   3.794  27.557   6.453
 9117POPC   C2B52892   3.797  27.574   6.753
 9117POPC   C3B52893   3.806  27.501   7.053
 9117POPC   C4B52894   3.793  27.557   7.353
 9118POPC   NC352895  16.744  29.945   5.553
 9118POPC   PO452896  16.758  29.917   5.853
 9118POPC   GL152897  16.759  29.882   6.153
 9118POPC   GL252898  16.777  29.792   6.153
 9118POPC   C1A52899  16.754  29.924   6.453
 9118POPC   D2A52900  16.721  29.894   6.753
 9118POPC   C3A52901  16.697  29.871   7.053
 9118POPC   C4A52902  16.698  29.896   7.353
 9118POPC   C1B52903  16.940  29.798   6.453
 9118POPC   C2B52904  16.916  29.761   6.753
 9118POPC   C3B52905  16.899  29.801   7.053
 9118POPC   C4B52906  16.909  29.716   7.353
 9119POPC   NC352907  15.935  23.683   5.553
 9119POPC   PO452908  15.931  23.699   5.853
 9119POPC   GL152909  15.956  23.759   6.153
 9119POPC   GL252910  15.936  23.826   6.153
 9119POPC   C1A52911  15.960  23.705   6.453
 9119POPC   D2A52912  15.983  23.723   6.753
 9119POPC   C3A52913  16.003  23.726   7.053
 9119POPC   C4A52914  15.917  23.693   7.353
 9119POPC   C1B52915  15.978  23.941   6.453
 9119POPC   C2B52916  15.960  23.979   6.753
 9119POPC   C3B52917  15.953  23.974   7.053
 9119POPC   C4B52918  15.993  23.935   7.353
 9120POPC   NC352919  10.538  24.465   5.553
 9120POPC   PO452920  10.525  24.457   5.853
 9120POPC   GL152921  10.489  24.506   6.153
 9120POPC   GL252922  10.473  24.615   6.153
 9120POPC   C1A52923  10.479  24.521   6.453
 9120POPC   D2A52924  10.565  24.523   6.753
 9120POPC   C3A52925  10.568  24.510   7.053
 9120POPC   C4A52926  10.554  24.522   7.353
 9120POPC   C1B52927  10.545  24.690   6.453
 9120POPC   C2B52928  10.543  24.753   6.753
 9120POPC   C3B52929  10.540  24.715   7.053
 9120POPC   C4B52930  10.470  24.717   7.353
 9121POPC   NC352931   8.237  42.295   5.553
 9121POPC   PO452932   8.182  42.326   5.853
 9121POPC   GL152933   8.239  42.341   6.153
 9121POPC   GL252934   8.334  42.334   6.153
 9121POPC   C1A52935   8.148  42.293   6.453
 9121POPC   D2A52936   8.169  42.365   6.753
 9121POPC   C3A52937   8.221  42.296   7.053
 9121POPC   C4A52938   8.214  42.340   7.353
 9121POPC   C1B52939   8.463  42.278   6.453
 9121POPC   C2B52940   8.400  42.277   6.753
 9121POPC   C3B52941   8.395  42.317   7.053
 9121POPC   C4B52942   8.467  42.236   7.353
 9122POPC   NC352943  32.292  15.223   5.553
 9122POPC   PO452944  32.246  15.129   5.853
 9122POPC   GL152945  32.254  15.195   6.153
 9122POPC   GL252946  32.276  15.302   6.153
 9122POPC   C1A52947  32.249  15.204   6.453
 9122POPC   D2A52948  32.258  15.155   6.753
 9122POPC   C3A52949  32.295  15.161   7.053
 9122POPC   C4A52950  32.285  15.129   7.353
 9122POPC   C1B52951  32.317  15.437   6.453
 9122POPC   C2B52952  32.304  15.363   6.753
 9122POPC   C3B52953  32.334  15.373   7.053
 9122POPC   C4B52954  32.342  15.440   7.353
 9123POPC   NC352955   5.080  43.069   5.553
 9123POPC   PO452956   5.069  43.074   5.853
 9123POPC   GL152957   5.095  43.115   6.153
 9123POPC   GL252958   4.984  43.204   6.153
 9123POPC   C1A52959   5.131  43.141   6.453
 9123POPC   D2A52960   5.142  43.139   6.753
 9123POPC   C3A52961   5.089  43.135   7.053
 9123POPC   C4A52962   5.097  43.099   7.353
 9123POPC   C1B52963   4.985  43.366   6.453
 9123POPC   C2B52964   4.988  43.366   6.753
 9123POPC   C3B52965   4.984  43.282   7.053
 9123POPC   C4B52966   4.935  43.309   7.353
 9124POPC   NC352967   1.219   2.750   5.553
 9124POPC   PO452968   1.197   2.762   5.853
 9124POPC   GL152969   1.229   2.717   6.153
 9124POPC   GL252970   1.247   2.836   6.153
 9124POPC   C1A52971   1.244   2.796   6.453
 9124POPC   D2A52972   1.197   2.783   6.753
 9124POPC   C3A52973   1.168   2.739   7.053
 9124POPC   C4A52974   1.222   2.764   7.353
 9124POPC   C1B52975   1.244   2.982   6.453
 9124POPC   C2B52976   1.322   2.974   6.753
 9124POPC   C3B52977   1.263   3.013   7.053
 9124POPC   C4B52978   1.323   2.972   7.353
 9125POPC   NC352979  13.615   9.017   5.553
 9125POPC   PO452980  13.639   8.941   5.853
 9125POPC   GL152981  13.586   8.949   6.153
 9125POPC   GL252982  13.672   9.060   6.153
 9125POPC   C1A52983  13.612   8.963   6.453
 9125POPC   D2A52984  13.580   8.979   6.753
 9125POPC   C3A52985  13.629   8.961   7.053
 9125POPC   C4A52986  13.674   8.958   7.353
 9125POPC   C1B52987  13.674   9.172   6.453
 9125POPC   C2B52988  13.691   9.233   6.753
 9125POPC   C3B52989  13.681   9.189   7.053
 9125POPC   C4B52990  13.751   9.170   7.353
 9126POPC   NC352991   9.765  27.631   5.553
 9126POPC   PO452992   9.741  27.555   5.853
 9126POPC   GL152993   9.700  27.565   6.153
 9126POPC   GL252994   9.806  27.676   6.153
 9126POPC   C1A52995   9.789  27.593   6.453
 9126POPC   D2A52996   9.748  27.608   6.753
 9126POPC   C3A52997   9.723  27.636   7.053
 9126POPC   C4A52998   9.706  27.614   7.353
 9126POPC   C1B52999   9.916  27.708   6.453
 9126POPC   C2B53000   9.934  27.694   6.753
 9126POPC   C3B53001   9.990  27.711   7.053
 9126POPC   C4B53002   9.953  27.791   7.353
 9127POPC   NC353003   8.153  19.840   5.553
 9127POPC   PO453004   8.233  19.801   5.853
 9127POPC   GL153005   8.194  19.798   6.153
 9127POPC   GL253006   8.219  19.977   6.153
 9127POPC   C1A53007   8.164  19.874   6.453
 9127POPC   D2A53008   8.219  19.858   6.753
 9127POPC   C3A53009   8.179  19.813   7.053
 9127POPC   C4A53010   8.213  19.825   7.353
 9127POPC   C1B53011   8.121  20.132   6.453
 9127POPC   C2B53012   8.170  20.085   6.753
 9127POPC   C3B53013   8.181  20.070   7.053
 9127POPC   C4B53014   8.197  20.061   7.353
 9128POPC   NC353015  39.275  25.261   5.553
 9128POPC   PO453016  39.184  25.270   5.853
 9128POPC   GL153017  39.245  25.248   6.153
 9128POPC   GL253018  39.387  25.228   6.153
 9128POPC   C1A53019  39.279  25.305   6.453
 9128POPC   D2A53020  39.266  25.281   6.753
 9128POPC   C3A53021  39.192  25.295   7.053
 9128POPC   C4A53022  39.275  25.232   7.353
 9128POPC   C1B53023  39.462  25.193   6.453
 9128POPC   C2B53024  39.444  25.220   6.753
 9128POPC   C3B53025  39.460  25.275   7.053
 9128POPC   C4B53026  39.504  25.209   7.353
 9129POPC   NC353027  26.832  19.081   5.553
 9129POPC   PO453028  26.783  19.042   5.853
 9129POPC   GL153029  26.850  19.067   6.153
 9129POPC   GL253030  26.901  18.924   6.153
 9129POPC   C1A53031  26.809  19.035   6.453
 9129POPC   D2A53032  26.771  19.091   6.753
 9129POPC   C3A53033  26.806  19.084   7.053
 9129POPC   C4A53034  26.785  19.044   7.353
 9129POPC   C1B53035  26.976  18.830   6.453
 9129POPC   C2B53036  26.939  18.863   6.753
 9129POPC   C3B53037  26.934  18.805   7.053
 9129POPC   C4B53038  26.903  18.813   7.353
 9130POPC   NC353039  12.098  13.610   5.553
 9130POPC   PO453040  12.044  13.595   5.853
 9130POPC   GL153041  12.101  13.635   6.153
 9130POPC   GL253042  12.000  13.577   6.153
 9130POPC   C1A53043  12.067  13.645   6.453
 9130POPC   D2A53044  12.062  13.605   6.753
 9130POPC   C3A53045  12.048  13.590   7.053
 9130POPC   C4A53046  12.123  13.640   7.353
 9130POPC   C1B53047  11.841  13.460   6.453
 9130POPC   C2B53048  11.855  13.486   6.753
 9130POPC   C3B53049  11.855  13.516   7.053
 9130POPC   C4B53050  11.870  13.474   7.353
 9131POPC   NC353051  11.329  22.192   5.553
 9131POPC   PO453052  11.329  22.120   5.853
 9131POPC   GL153053  11.344  22.113   6.153
 9131POPC   GL253054  11.308  22.235   6.153
 9131POPC   C1A53055  11.287  22.142   6.453
 9131POPC   D2A53056  11.258  22.132   6.753
 9131POPC   C3A53057  11.308  22.146   7.053
 9131POPC   C4A53058  11.349  22.182   7.353
 9131POPC   C1B53059  11.399  22.372   6.453
 9131POPC   C2B53060  11.326  22.425   6.753
 9131POPC   C3B53061  11.397  22.379   7.053
 9131POPC   C4B53062  11.337  22.365   7.353
 9132POPC   NC353063  33.042   2.777   5.553
 9132POPC   PO453064  33.035   2.798   5.853
 9132POPC   GL153065  33.042   2.796   6.153
 9132POPC   GL253066  32.984   2.652   6.153
 9132POPC   C1A53067  33.045   2.721   6.453
 9132POPC   D2A53068  32.989   2.738   6.753
 9132POPC   C3A53069  32.976   2.794   7.053
 9132POPC   C4A53070  33.074   2.753   7.353
 9132POPC   C1B53071  32.919   2.579   6.453
 9132POPC   C2B53072  32.926   2.506   6.753
 9132POPC   C3B53073  32.894   2.577   7.053
 9132POPC   C4B53074  32.851   2.540   7.353
 9133POPC   NC353075  25.273  18.308   5.553
 9133POPC   PO453076  25.255  18.287   5.853
 9133POPC   GL153077  25.306  18.323   6.153
 9133POPC   GL253078  25.210  18.147   6.153
 9133POPC   C1A53079  25.225  18.285   6.453
 9133POPC   D2A53080  25.265  18.310   6.753
 9133POPC   C3A53081  25.238  18.250   7.053
 9133POPC   C4A53082  25.294  18.323   7.353
 9133POPC   C1B53083  25.130  18.123   6.453
 9133POPC   C2B53084  25.056  18.079   6.753
 9133POPC   C3B53085  25.084  18.094   7.053
 9133POPC   C4B53086  25.056  18.154   7.353
 9134POPC   NC353087  29.126  36.927   5.553
 9134POPC   PO453088  29.154  36.929   5.853
 9134POPC   GL153089  29.167  36.901   6.153
 9134POPC   GL253090  28.990  36.955   6.153
 9134POPC   C1A53091  29.180  36.855   6.453
 9134POPC   D2A53092  29.115  36.889   6.753
 9134POPC   C3A53093  29.156  36.945   7.053
 9134POPC   C4A53094  29.112  36.882   7.353
 9134POPC   C1B53095  28.878  37.065   6.453
 9134POPC   C2B53096  28.890  36.970   6.753
 9134POPC   C3B53097  28.878  37.028   7.053
 9134POPC   C4B53098  28.873  37.031   7.353
 9135POPC   NC353099   9.730  15.172   5.553
 9135POPC   PO453100   9.708  15.204   5.853
 9135POPC   GL153101   9.735  15.224   6.153
 9135POPC   GL253102   9.680  15.241   6.153
 9135POPC   C1A53103   9.714  15.147   6.453
 9135POPC   D2A53104   9.716  15.171   6.753
 9135POPC   C3A53105   9.795  15.205   7.053
 9135POPC   C4A53106   9.713  15.185   7.353
 9135POPC   C1B53107   9.524  15.327   6.453
 9135POPC   C2B53108   9.554  15.372   6.753
 9135POPC   C3B53109   9.507  15.299   7.053
 9135POPC   C4B53110   9.589  15.371   7.353
 9136POPC   NC353111   7.469  27.552   5.553
 9136POPC   PO453112   7.421  27.543   5.853
 9136POPC   GL153113   7.384  27.632   6.153
 9136POPC   GL253114   7.560  27.504   6.153
 9136POPC   C1A53115   7.422  27.562   6.453
 9136POPC   D2A53116   7.451  27.575   6.753
 9136POPC   C3A53117   7.420  27.603   7.053
 9136POPC   C4A53118   7.448  27.622   7.353
 9136POPC   C1B53119   7.627  27.433   6.453
 9136POPC   C2B53120   7.653  27.472   6.753
 9136POPC   C3B53121   7.646  27.444   7.053
 9136POPC   C4B53122   7.626  27.467   7.353
 9137POPC   NC353123   4.360  15.176   5.553
 9137POPC   PO453124   4.348  15.212   5.853
 9137POPC   GL153125   4.334  15.161   6.153
 9137POPC   GL253126   4.178  15.221   6.153
 9137POPC   C1A53127   4.341  15.218   6.453
 9137POPC   D2A53128   4.282  15.138   6.753
 9137POPC   C3A53129   4.351  15.216   7.053
 9137POPC   C4A53130   4.278  15.143   7.353
 9137POPC   C1B53131   4.140  15.284   6.453
 9137POPC   C2B53132   4.102  15.345   6.753
 9137POPC   C3B53133   4.069  15.345   7.053
 9137POPC   C4B53134   4.078  15.306   7.353
 9138POPC   NC353135  40.020  37.649   5.553
 9138POPC   PO453136  40.028  37.724   5.853
 9138POPC   GL153137  39.996  37.677   6.153
 9138POPC   GL253138  39.870  37.793   6.153
 9138POPC   C1A53139  39.961  37.696   6.453
 9138POPC   D2A53140  40.026  37.638   6.753
 9138POPC   C3A53141  40.007  37.657   7.053
 9138POPC   C4A53142  40.016  37.691   7.353
 9138POPC   C1B53143  39.821  37.875   6.453
 9138POPC   C2B53144  39.855  37.792   6.753
 9138POPC   C3B53145  39.770  37.876   7.053
 9138POPC   C4B53146  39.822  37.833   7.353
 9139POPC   NC353147   8.196  10.498   5.553
 9139POPC   PO453148   8.181  10.566   5.853
 9139POPC   GL153149   8.157  10.539   6.153
 9139POPC   GL253150   8.144  10.652   6.153
 9139POPC   C1A53151   8.179  10.556   6.453
 9139POPC   D2A53152   8.148  10.520   6.753
 9139POPC   C3A53153   8.177  10.549   7.053
 9139POPC   C4A53154   8.153  10.517   7.353
 9139POPC   C1B53155   8.153  10.734   6.453
 9139POPC   C2B53156   8.158  10.766   6.753
 9139POPC   C3B53157   8.135  10.770   7.053
 9139POPC   C4B53158   8.118  10.783   7.353
 9140POPC   NC353159  40.825  25.312   5.553
 9140POPC   PO453160  40.830  25.216   5.853
 9140POPC   GL153161  40.760  25.227   6.153
 9140POPC   GL253162  40.820  25.159   6.153
 9140POPC   C1A53163  40.805  25.274   6.453
 9140POPC   D2A53164  40.763  25.247   6.753
 9140POPC   C3A53165  40.780  25.265   7.053
 9140POPC   C4A53166  40.782  25.282   7.353
 9140POPC   C1B53167  40.961  25.068   6.453
 9140POPC   C2B53168  40.899  25.048   6.753
 9140POPC   C3B53169  40.927  25.029   7.053
 9140POPC   C4B53170  40.947  25.069   7.353
 9141POPC   NC353171  23.748  33.762   5.553
 9141POPC   PO453172  23.712  33.773   5.853
 9141POPC   GL153173  23.719  33.759   6.153
 9141POPC   GL253174  23.835  33.927   6.153
 9141POPC   C1A53175  23.701  33.758   6.453
 9141POPC   D2A53176  23.708  33.846   6.753
 9141POPC   C3A53177  23.725  33.834   7.053
 9141POPC   C4A53178  23.682  33.803   7.353
 9141POPC   C1B53179  23.813  33.968   6.453
 9141POPC   C2B53180  23.838  34.047   6.753
 9141POPC   C3B53181  23.821  33.985   7.053
 9141POPC   C4B53182  23.851  33.987   7.353
 9142POPC   NC353183  15.987  29.110   5.553
 9142POPC   PO453184  15.974  29.148   5.853
 9142POPC   GL153185  15.944  29.152   6.153
 9142POPC   GL253186  16.118  29.182   6.153
 9142POPC   C1A53187  15.946  29.191   6.453
 9142POPC   D2A53188  15.934  29.184   6.753
 9142POPC   C3A53189  15.936  29.131   7.053
 9142POPC   C4A53190  15.934  29.158   7.353
 9142POPC   C1B53191  16.217  29.167   6.453
 9142POPC   C2B53192  16.187  29.130   6.753
 9142POPC   C3B53193  16.176  29.125   7.053
 9142POPC   C4B53194  16.250  29.180   7.353
 9143POPC   NC353195   8.204  18.267   5.553
 9143POPC   PO453196   8.156  18.307   5.853
 9143POPC   GL153197   8.224  18.325   6.153
 9143POPC   GL253198   8.152  18.452   6.153
 9143POPC   C1A53199   8.244  18.306   6.453
 9143POPC   D2A53200   8.173  18.269   6.753
 9143POPC   C3A53201   8.206  18.241   7.053
 9143POPC   C4A53202   8.245  18.272   7.353
 9143POPC   C1B53203   8.161  18.523   6.453
 9143POPC   C2B53204   8.180  18.553   6.753
 9143POPC   C3B53205   8.121  18.507   7.053
 9143POPC   C4B53206   8.203  18.546   7.353
 9144POPC   NC353207  34.602  32.267   5.553
 9144POPC   PO453208  34.533  32.228   5.853
 9144POPC   GL153209  34.549  32.298   6.153
 9144POPC   GL253210  34.645  32.349   6.153
 9144POPC   C1A53211  34.618  32.265   6.453
 9144POPC   D2A53212  34.543  32.257   6.753
 9144POPC   C3A53213  34.595  32.290   7.053
 9144POPC   C4A53214  34.529  32.246   7.353
 9144POPC   C1B53215  34.703  32.464   6.453
 9144POPC   C2B53216  34.701  32.461   6.753
 9144POPC   C3B53217  34.683  32.422   7.053
 9144POPC   C4B53218  34.724  32.473   7.353
 9145POPC   NC353219   3.553  25.249   5.553
 9145POPC   PO453220   3.527  25.306   5.853
 9145POPC   GL153221   3.507  25.295   6.153
 9145POPC   GL253222   3.425  25.227   6.153
 9145POPC   C1A53223   3.518  25.301   6.453
 9145POPC   D2A53224   3.580  25.289   6.753
 9145POPC   C3A53225   3.584  25.274   7.053
 9145POPC   C4A53226   3.591  25.229   7.353
 9145POPC   C1B53227   3.316  25.095   6.453
 9145POPC   C2B53228   3.345  25.095   6.753
 9145POPC   C3B53229   3.353  25.121   7.053
 9145POPC   C4B53230   3.296  25.152   7.353
 9146POPC   NC353231  41.561  37.699   5.553
 9146POPC   PO453232  41.596  37.641   5.853
 9146POPC   GL153233  41.548  37.686   6.153
 9146POPC   GL253234  41.713  37.680   6.153
 9146POPC   C1A53235  41.583  37.672   6.453
 9146POPC   D2A53236  41.579  37.699   6.753
 9146POPC   C3A53237  41.535  37.715   7.053
 9146POPC   C4A53238  41.545  37.690   7.353
 9146POPC   C1B53239  41.812  37.641   6.453
 9146POPC   C2B53240  41.828  37.668   6.753
 9146POPC   C3B53241  41.829  37.682   7.053
 9146POPC   C4B53242  41.855  37.676   7.353
 9147POPC   NC353243   9.706  18.261   5.553
 9147POPC   PO453244   9.731  18.285   5.853
 9147POPC   GL153245   9.773  18.241   6.153
 9147POPC   GL253246   9.648  18.405   6.153
 9147POPC   C1A53247   9.727  18.250   6.453
 9147POPC   D2A53248   9.736  18.323   6.753
 9147POPC   C3A53249   9.699  18.247   7.053
 9147POPC   C4A53250   9.797  18.236   7.353
 9147POPC   C1B53251   9.628  18.529   6.453
 9147POPC   C2B53252   9.592  18.481   6.753
 9147POPC   C3B53253   9.615  18.525   7.053
 9147POPC   C4B53254   9.590  18.520   7.353
 9148POPC   NC353255  24.498  35.354   5.553
 9148POPC   PO453256  24.484  35.365   5.853
 9148POPC   GL153257  24.451  35.370   6.153
 9148POPC   GL253258  24.352  35.408   6.153
 9148POPC   C1A53259  24.525  35.394   6.453
 9148POPC   D2A53260  24.503  35.365   6.753
 9148POPC   C3A53261  24.450  35.369   7.053
 9148POPC   C4A53262  24.532  35.391   7.353
 9148POPC   C1B53263  24.260  35.464   6.453
 9148POPC   C2B53264  24.267  35.527   6.753
 9148POPC   C3B53265  24.283  35.487   7.053
 9148POPC   C4B53266  24.296  35.498   7.353
 9149POPC   NC353267   9.789  13.602   5.553
 9149POPC   PO453268   9.774  13.642   5.853
 9149POPC   GL153269   9.772  13.584   6.153
 9149POPC   GL253270   9.671  13.722   6.153
 9149POPC   C1A53271   9.771  13.663   6.453
 9149POPC   D2A53272   9.766  13.579   6.753
 9149POPC   C3A53273   9.790  13.594   7.053
 9149POPC   C4A53274   9.746  13.656   7.353
 9149POPC   C1B53275   9.500  13.712   6.453
 9149POPC   C2B53276   9.559  13.762   6.753
 9149POPC   C3B53277   9.544  13.679   7.053
 9149POPC   C4B53278   9.534  13.682   7.353
 9150POPC   NC353279  17.475  15.158   5.553
 9150POPC   PO453280  17.536  15.131   5.853
 9150POPC   GL153281  17.505  15.188   6.153
 9150POPC   GL253282  17.628  15.267   6.153
 9150POPC   C1A53283  17.503  15.177   6.453
 9150POPC   D2A53284  17.481  15.165   6.753
 9150POPC   C3A53285  17.468  15.174   7.053
 9150POPC   C4A53286  17.461  15.149   7.353
 9150POPC   C1B53287  17.673  15.328   6.453
 9150POPC   C2B53288  17.644  15.399   6.753
 9150POPC   C3B53289  17.651  15.372   7.053
 9150POPC   C4B53290  17.640  15.392   7.353
 9151POPC   NC353291  38.479  26.073   5.553
 9151POPC   PO453292  38.411  26.078   5.853
 9151POPC   GL153293  38.453  26.041   6.153
 9151POPC   GL253294  38.499  26.212   6.153
 9151POPC   C1A53295  38.468  26.021   6.453
 9151POPC   D2A53296  38.412  26.008   6.753
 9151POPC   C3A53297  38.496  26.046   7.053
 9151POPC   C4A53298  38.439  26.054   7.353
 9151POPC   C1B53299  38.468  26.306   6.453
 9151POPC   C2B53300  38.433  26.262   6.753
 9151POPC   C3B53301  38.502  26.258   7.053
 9151POPC   C4B53302  38.444  26.329   7.353
 9152POPC   NC353303  40.762  43.146   5.553
 9152POPC   PO453304  40.753  43.112   5.853
 9152POPC   GL153305  40.777  43.160   6.153
 9152POPC   GL253306  40.890  43.132   6.153
 9152POPC   C1A53307  40.754  43.141   6.453
 9152POPC   D2A53308  40.743  43.083   6.753
 9152POPC   C3A53309  40.802  43.070   7.053
 9152POPC   C4A53310  40.807  43.061   7.353
 9152POPC   C1B53311  40.953  43.252   6.453
 9152POPC   C2B53312  41.000  43.233   6.753
 9152POPC   C3B53313  40.949  43.247   7.053
 9152POPC   C4B53314  41.036  43.303   7.353
 9153POPC   NC353315  11.315  36.879   5.553
 9153POPC   PO453316  11.349  36.872   5.853
 9153POPC   GL153317  11.339  36.857   6.153
 9153POPC   GL253318  11.166  36.880   6.153
 9153POPC   C1A53319  11.287  36.899   6.453
 9153POPC   D2A53320  11.274  36.878   6.753
 9153POPC   C3A53321  11.273  36.915   7.053
 9153POPC   C4A53322  11.270  36.920   7.353
 9153POPC   C1B53323  11.111  36.839   6.453
 9153POPC   C2B53324  11.069  36.823   6.753
 9153POPC   C3B53325  11.086  36.798   7.053
 9153POPC   C4B53326  11.053  36.863   7.353
 9154POPC   NC353327  19.829  20.577   5.553
 9154POPC   PO453328  19.812  20.614   5.853
 9154POPC   GL153329  19.827  20.610   6.153
 9154POPC   GL253330  19.947  20.582   6.153
 9154POPC   C1A53331  19.786  20.625   6.453
 9154POPC   D2A53332  19.802  20.561   6.753
 9154POPC   C3A53333  19.832  20.593   7.053
 9154POPC   C4A53334  19.852  20.572   7.353
 9154POPC   C1B53335  20.104  20.606   6.453
 9154POPC   C2B53336  20.131  20.612   6.753
 9154POPC   C3B53337  20.067  20.618   7.053
 9154POPC   C4B53338  20.099  20.543   7.353
 9155POPC   NC353339   3.553  11.278   5.553
 9155POPC   PO453340   3.549  11.264   5.853
 9155POPC   GL153341   3.551  11.265   6.153
 9155POPC   GL253342   3.513  11.161   6.153
 9155POPC   C1A53343   3.567  11.297   6.453
 9155POPC   D2A53344   3.513  11.270   6.753
 9155POPC   C3A53345   3.521  11.293   7.053
 9155POPC   C4A53346   3.572  11.297   7.353
 9155POPC   C1B53347   3.350  11.071   6.453
 9155POPC   C2B53348   3.426  11.072   6.753
 9155POPC   C3B53349   3.378  11.069   7.053
 9155POPC   C4B53350   3.381  11.140   7.353
 9156POPC   NC353351  20.577  33.839   5.553
 9156POPC   PO453352  20.639  33.774   5.853
 9156POPC   GL153353  20.626  33.826   6.153
 9156POPC   GL253354  20.755  33.760   6.153
 9156POPC   C1A53355  20.651  33.762   6.453
 9156POPC   D2A53356  20.588  33.808   6.753
 9156POPC   C3A53357  20.639  33.827   7.053
 9156POPC   C4A53358  20.641  33.764   7.353
 9156POPC   C1B53359  20.864  33.720   6.453
 9156POPC   C2B53360  20.872  33.744   6.753
 9156POPC   C3B53361  20.895  33.731   7.053
 9156POPC   C4B53362  20.807  33.718   7.353
 9157POPC   NC353363  33.049  36.139   5.553
 9157POPC   PO453364  32.985  36.139   5.853
 9157POPC   GL153365  32.984  36.151   6.153
 9157POPC   GL253366  32.949  36.086   6.153
 9157POPC   C1A53367  33.015  36.139   6.453
 9157POPC   D2A53368  33.019  36.121   6.753
 9157POPC   C3A53369  33.001  36.104   7.053
 9157POPC   C4A53370  32.996  36.150   7.353
 9157POPC   C1B53371  32.843  36.053   6.453
 9157POPC   C2B53372  32.754  36.019   6.753
 9157POPC   C3B53373  32.823  35.989   7.053
 9157POPC   C4B53374  32.832  35.981   7.353
 9158POPC   NC353375  42.366  44.651   5.553
 9158POPC   PO453376  42.371  44.710   5.853
 9158POPC   GL153377  42.302  44.712   6.153
 9158POPC   GL253378  42.406  44.510   6.153
 9158POPC   C1A53379  42.369  44.703   6.453
 9158POPC   D2A53380  42.309  44.616   6.753
 9158POPC   C3A53381  42.336  44.675   7.053
 9158POPC   C4A53382  42.316  44.704   7.353
 9158POPC   C1B53383  42.438  44.390   6.453
 9158POPC   C2B53384  42.387  44.450   6.753
 9158POPC   C3B53385  42.410  44.393   7.053
 9158POPC   C4B53386  42.470  44.398   7.353
 9159POPC   NC353387  12.118  34.574   5.553
 9159POPC   PO453388  12.041  34.614   5.853
 9159POPC   GL153389  12.035  34.570   6.153
 9159POPC   GL253390  11.945  34.608   6.153
 9159POPC   C1A53391  12.029  34.566   6.453
 9159POPC   D2A53392  12.120  34.569   6.753
 9159POPC   C3A53393  12.076  34.572   7.053
 9159POPC   C4A53394  12.117  34.570   7.353
 9159POPC   C1B53395  11.848  34.594   6.453
 9159POPC   C2B53396  11.856  34.586   6.753
 9159POPC   C3B53397  11.843  34.634   7.053
 9159POPC   C4B53398  11.828  34.662   7.353
 9160POPC   NC353399   9.780  28.337   5.553
 9160POPC   PO453400   9.706  28.397   5.853
 9160POPC   GL153401   9.784  28.354   6.153
 9160POPC   GL253402   9.735  28.205   6.153
 9160POPC   C1A53403   9.714  28.387   6.453
 9160POPC   D2A53404   9.721  28.418   6.753
 9160POPC   C3A53405   9.750  28.358   7.053
 9160POPC   C4A53406   9.773  28.385   7.353
 9160POPC   C1B53407   9.772  28.111   6.453
 9160POPC   C2B53408   9.741  28.106   6.753
 9160POPC   C3B53409   9.745  28.115   7.053
 9160POPC   C4B53410   9.739  28.112   7.353
 9161POPC   NC353411   5.129  44.686   5.553
 9161POPC   PO453412   5.131  44.690   5.853
 9161POPC   GL153413   5.047  44.709   6.153
 9161POPC   GL253414   4.945  44.663   6.153
 9161POPC   C1A53415   5.072  44.675   6.453
 9161POPC   D2A53416   5.104  44.620   6.753
 9161POPC   C3A53417   5.113  44.644   7.053
 9161POPC   C4A53418   5.057  44.709   7.353
 9161POPC   C1B53419   4.888  44.734   6.453
 9161POPC   C2B53420   4.856  44.742   6.753
 9161POPC   C3B53421   4.822  44.657   7.053
 9161POPC   C4B53422   4.824  44.664   7.353
 9162POPC   NC353423   5.142   5.077   5.553
 9162POPC   PO453424   5.075   5.112   5.853
 9162POPC   GL153425   5.100   5.103   6.153
 9162POPC   GL253426   4.997   5.176   6.153
 9162POPC   C1A53427   5.106   5.095   6.453
 9162POPC   D2A53428   5.070   5.136   6.753
 9162POPC   C3A53429   5.078   5.072   7.053
 9162POPC   C4A53430   5.084   5.086   7.353
 9162POPC   C1B53431   4.831   5.142   6.453
 9162POPC   C2B53432   4.891   5.161   6.753
 9162POPC   C3B53433   4.813   5.170   7.053
 9162POPC   C4B53434   4.895   5.138   7.353
 9163POPC   NC353435  33.775   8.183   5.553
 9163POPC   PO453436  33.842   8.223   5.853
 9163POPC   GL153437  33.759   8.209   6.153
 9163POPC   GL253438  33.829   8.336   6.153
 9163POPC   C1A53439  33.798   8.163   6.453
 9163POPC   D2A53440  33.804   8.203   6.753
 9163POPC   C3A53441  33.768   8.200   7.053
 9163POPC   C4A53442  33.809   8.189   7.353
 9163POPC   C1B53443  33.812   8.440   6.453
 9163POPC   C2B53444  33.845   8.464   6.753
 9163POPC   C3B53445  33.807   8.452   7.053
 9163POPC   C4B53446  33.888   8.476   7.353
 9164POPC   NC353447  41.523  29.137   5.553
 9164POPC   PO453448  41.604  29.112   5.853
 9164POPC   GL153449  41.605  29.176   6.153
 9164POPC   GL253450  41.547  29.222   6.153
 9164POPC   C1A53451  41.543  29.105   6.453
 9164POPC   D2A53452  41.602  29.168   6.753
 9164POPC   C3A53453  41.583  29.099   7.053
 9164POPC   C4A53454  41.562  29.102   7.353
 9164POPC   C1B53455  41.537  29.353   6.453
 9164POPC   C2B53456  41.500  29.384   6.753
 9164POPC   C3B53457  41.565  29.437   7.053
 9164POPC   C4B53458  41.505  29.349   7.353
 9165POPC   NC353459  29.932  43.090   5.553
 9165POPC   PO453460  29.894  43.091   5.853
 9165POPC   GL153461  29.888  43.094   6.153
 9165POPC   GL253462  29.987  43.277   6.153
 9165POPC   C1A53463  29.957  43.139   6.453
 9165POPC   D2A53464  29.918  43.110   6.753
 9165POPC   C3A53465  29.923  43.108   7.053
 9165POPC   C4A53466  29.907  43.135   7.353
 9165POPC   C1B53467  30.048  43.315   6.453
 9165POPC   C2B53468  29.980  43.330   6.753
 9165POPC   C3B53469  29.963  43.301   7.053
 9165POPC   C4B53470  29.974  43.309   7.353
 9166POPC   NC353471  11.338   1.172   5.553
 9166POPC   PO453472  11.297   1.218   5.853
 9166POPC   GL153473  11.294   1.184   6.153
 9166POPC   GL253474  11.200   1.100   6.153
 9166POPC   C1A53475  11.294   1.195   6.453
 9166POPC   D2A53476  11.293   1.189   6.753
 9166POPC   C3A53477  11.346   1.181   7.053
 9166POPC   C4A53478  11.347   1.257   7.353
 9166POPC   C1B53479  11.131   1.019   6.453
 9166POPC   C2B53480  11.207   1.013   6.753
 9166POPC   C3B53481  11.197   0.986   7.053
 9166POPC   C4B53482  11.206   1.023   7.353
 9167POPC   NC353483   8.979  19.103   5.553
 9167POPC   PO453484   9.004  19.042   5.853
 9167POPC   GL153485   9.011  19.101   6.153
 9167POPC   GL253486   9.028  19.141   6.153
 9167POPC   C1A53487   8.938  19.054   6.453
 9167POPC   D2A53488   8.965  19.037   6.753
 9167POPC   C3A53489   8.945  19.084   7.053
 9167POPC   C4A53490   8.994  19.023   7.353
 9167POPC   C1B53491   9.044  19.309   6.453
 9167POPC   C2B53492   9.046  19.310   6.753
 9167POPC   C3B53493   9.057  19.251   7.053
 9167POPC   C4B53494   9.104  19.264   7.353
 9168POPC   NC353495  40.787  12.841   5.553
 9168POPC   PO453496  40.830  12.811   5.853
 9168POPC   GL153497  40.767  12.819   6.153
 9168POPC   GL253498  40.804  12.720   6.153
 9168POPC   C1A53499  40.823  12.854   6.453
 9168POPC   D2A53500  40.823  12.857   6.753
 9168POPC   C3A53501  40.747  12.879   7.053
 9168POPC   C4A53502  40.794  12.893   7.353
 9168POPC   C1B53503  40.893  12.658   6.453
 9168POPC   C2B53504  40.933  12.634   6.753
 9168POPC   C3B53505  40.896  12.660   7.053
 9168POPC   C4B53506  40.940  12.656   7.353
 9169POPC   NC353507  41.521  23.761   5.553
 9169POPC   PO453508  41.520  23.758   5.853
 9169POPC   GL153509  41.557  23.751   6.153
 9169POPC   GL253510  41.548  23.632   6.153
 9169POPC   C1A53511  41.563  23.694   6.453
 9169POPC   D2A53512  41.516  23.673   6.753
 9169POPC   C3A53513  41.583  23.706   7.053
 9169POPC   C4A53514  41.585  23.759   7.353
 9169POPC   C1B53515  41.634  23.466   6.453
 9169POPC   C2B53516  41.623  23.444   6.753
 9169POPC   C3B53517  41.658  23.515   7.053
 9169POPC   C4B53518  41.637  23.472   7.353
 9170POPC   NC353519  17.531  16.004   5.553
 9170POPC   PO453520  17.533  15.913   5.853
 9170POPC   GL153521  17.548  16.002   6.153
 9170POPC   GL253522  17.475  15.856   6.153
 9170POPC   C1A53523  17.470  15.964   6.453
 9170POPC   D2A53524  17.460  15.925   6.753
 9170POPC   C3A53525  17.497  15.924   7.053
 9170POPC   C4A53526  17.519  15.964   7.353
 9170POPC   C1B53527  17.371  15.776   6.453
 9170POPC   C2B53528  17.394  15.720   6.753
 9170POPC   C3B53529  17.371  15.764   7.053
 9170POPC   C4B53530  17.319  15.710   7.353
 9171POPC   NC353531  22.905  35.303   5.553
 9171POPC   PO453532  22.905  35.398   5.853
 9171POPC   GL153533  22.924  35.305   6.153
 9171POPC   GL253534  22.981  35.258   6.153
 9171POPC   C1A53535  22.905  35.306   6.453
 9171POPC   D2A53536  22.983  35.388   6.753
 9171POPC   C3A53537  22.986  35.373   7.053
 9171POPC   C4A53538  22.915  35.390   7.353
 9171POPC   C1B53539  23.035  35.096   6.453
 9171POPC   C2B53540  23.039  35.106   6.753
 9171POPC   C3B53541  22.983  35.142   7.053
 9171POPC   C4B53542  22.961  35.156   7.353
 9172POPC   NC353543  43.073   8.961   5.553
 9172POPC   PO453544  43.149   8.980   5.853
 9172POPC   GL153545  43.153   8.944   6.153
 9172POPC   GL253546  43.074   9.053   6.153
 9172POPC   C1A53547  43.102   8.927   6.453
 9172POPC   D2A53548  43.066   9.006   6.753
 9172POPC   C3A53549  43.100   8.970   7.053
 9172POPC   C4A53550  43.132   9.005   7.353
 9172POPC   C1B53551  43.158   9.263   6.453
 9172POPC   C2B53552  43.104   9.249   6.753
 9172POPC   C3B53553  43.145   9.225   7.053
 9172POPC   C4B53554  43.166   9.188   7.353
 9173POPC   NC353555  40.793  26.031   5.553
 9173POPC   PO453556  40.775  26.065   5.853
 9173POPC   GL153557  40.813  26.078   6.153
 9173POPC   GL253558  40.616  25.978   6.153
 9173POPC   C1A53559  40.745  26.071   6.453
 9173POPC   D2A53560  40.770  26.063   6.753
 9173POPC   C3A53561  40.757  26.052   7.053
 9173POPC   C4A53562  40.753  26.072   7.353
 9173POPC   C1B53563  40.520  25.974   6.453
 9173POPC   C2B53564  40.543  25.930   6.753
 9173POPC   C3B53565  40.581  26.010   7.053
 9173POPC   C4B53566  40.583  25.985   7.353
 9174POPC   NC353567  36.161   1.212   5.553
 9174POPC   PO453568  36.084   1.231   5.853
 9174POPC   GL153569  36.102   1.262   6.153
 9174POPC   GL253570  35.997   1.230   6.153
 9174POPC   C1A53571  36.118   1.229   6.453
 9174POPC   D2A53572  36.149   1.188   6.753
 9174POPC   C3A53573  36.115   1.246   7.053
 9174POPC   C4A53574  36.106   1.168   7.353
 9174POPC   C1B53575  35.914   1.324   6.453
 9174POPC   C2B53576  35.878   1.377   6.753
 9174POPC   C3B53577  35.900   1.300   7.053
 9174POPC   C4B53578  35.941   1.294   7.353
 9175POPC   NC353579  10.503   4.349   5.553
 9175POPC   PO453580  10.523   4.292   5.853
 9175POPC   GL153581  10.474   4.320   6.153
 9175POPC   GL253582  10.494   4.487   6.153
 9175POPC   C1A53583  10.481   4.289   6.453
 9175POPC   D2A53584  10.538   4.342   6.753
 9175POPC   C3A53585  10.571   4.309   7.053
 9175POPC   C4A53586  10.492   4.345   7.353
 9175POPC   C1B53587  10.535   4.614   6.453
 9175POPC   C2B53588  10.504   4.600   6.753
 9175POPC   C3B53589  10.568   4.580   7.053
 9175POPC   C4B53590  10.584   4.591   7.353
 9176POPC   NC353591  29.942   3.575   5.553
 9176POPC   PO453592  29.880   3.576   5.853
 9176POPC   GL153593  29.882   3.585   6.153
 9176POPC   GL253594  30.069   3.598   6.153
 9176POPC   C1A53595  29.895   3.574   6.453
 9176POPC   D2A53596  29.886   3.565   6.753
 9176POPC   C3A53597  29.878   3.523   7.053
 9176POPC   C4A53598  29.948   3.557   7.353
 9176POPC   C1B53599  30.086   3.709   6.453
 9176POPC   C2B53600  30.127   3.685   6.753
 9176POPC   C3B53601  30.169   3.703   7.053
 9176POPC   C4B53602  30.104   3.654   7.353
 9177POPC   NC353603  41.559  11.315   5.553
 9177POPC   PO453604  41.548  11.321   5.853
 9177POPC   GL153605  41.598  11.294   6.153
 9177POPC   GL253606  41.701  11.315   6.153
 9177POPC   C1A53607  41.572  11.304   6.453
 9177POPC   D2A53608  41.527  11.270   6.753
 9177POPC   C3A53609  41.568  11.266   7.053
 9177POPC   C4A53610  41.569  11.289   7.353
 9177POPC   C1B53611  41.854  11.236   6.453
 9177POPC   C2B53612  41.815  11.290   6.753
 9177POPC   C3B53613  41.763  11.268   7.053
 9177POPC   C4B53614  41.818  11.246   7.353
 9178POPC   NC353615  15.177   0.442   5.553
 9178POPC   PO453616  15.215   0.403   5.853
 9178POPC   GL153617  15.205   0.436   6.153
 9178POPC   GL253618  15.109   0.472   6.153
 9178POPC   C1A53619  15.204   0.446   6.453
 9178POPC   D2A53620  15.210   0.445   6.753
 9178POPC   C3A53621  15.208   0.487   7.053
 9178POPC   C4A53622  15.218   0.439   7.353
 9178POPC   C1B53623  15.033   0.575   6.453
 9178POPC   C2B53624  15.034   0.630   6.753
 9178POPC   C3B53625  14.982   0.581   7.053
 9178POPC   C4B53626  15.038   0.647   7.353
 9179POPC   NC353627  24.458   5.858   5.553
 9179POPC   PO453628  24.524   5.852   5.853
 9179POPC   GL153629  24.503   5.843   6.153
 9179POPC   GL253630  24.392   5.990   6.153
 9179POPC   C1A53631  24.445   5.914   6.453
 9179POPC   D2A53632  24.497   5.865   6.753
 9179POPC   C3A53633  24.464   5.869   7.053
 9179POPC   C4A53634  24.539   5.902   7.353
 9179POPC   C1B53635  24.357   6.121   6.453
 9179POPC   C2B53636  24.386   6.116   6.753
 9179POPC   C3B53637  24.325   6.042   7.053
 9179POPC   C4B53638  24.357   6.056   7.353
 9180POPC   NC353639  36.949  11.336   5.553
 9180POPC   PO453640  36.880  11.264   5.853
 9180POPC   GL153641  36.867  11.253   6.153
 9180POPC   GL253642  36.986  11.308   6.153
 9180POPC   C1A53643  36.870  11.295   6.453
 9180POPC   D2A53644  36.865  11.291   6.753
 9180POPC   C3A53645  36.874  11.320   7.053
 9180POPC   C4A53646  36.854  11.308   7.353
 9180POPC   C1B53647  37.139  11.430   6.453
 9180POPC   C2B53648  37.147  11.408   6.753
 9180POPC   C3B53649  37.182  11.349   7.053
 9180POPC   C4B53650  37.139  11.427   7.353
 9181POPC   NC353651  18.307  24.487   5.553
 9181POPC   PO453652  18.321  24.445   5.853
 9181POPC   GL153653  18.323  24.519   6.153
 9181POPC   GL253654  18.430  24.418   6.153
 9181POPC   C1A53655  18.258  24.476   6.453
 9181POPC   D2A53656  18.317  24.526   6.753
 9181POPC   C3A53657  18.307  24.445   7.053
 9181POPC   C4A53658  18.331  24.462   7.353
 9181POPC   C1B53659  18.483  24.411   6.453
 9181POPC   C2B53660  18.472  24.417   6.753
 9181POPC   C3B53661  18.528  24.408   7.053
 9181POPC   C4B53662  18.478  24.399   7.353
 9182POPC   NC353663  35.389   8.972   5.553
 9182POPC   PO453664  35.389   9.010   5.853
 9182POPC   GL153665  35.387   9.019   6.153
 9182POPC   GL253666  35.270   9.021   6.153
 9182POPC   C1A53667  35.378   8.989   6.453
 9182POPC   D2A53668  35.310   9.011   6.753
 9182POPC   C3A53669  35.386   8.961   7.053
 9182POPC   C4A53670  35.384   8.966   7.353
 9182POPC   C1B53671  35.058   8.988   6.453
 9182POPC   C2B53672  35.096   9.020   6.753
 9182POPC   C3B53673  35.065   8.953   7.053
 9182POPC   C4B53674  35.138   9.012   7.353
 9183POPC   NC353675  12.882  33.074   5.553
 9183POPC   PO453676  12.889  33.038   5.853
 9183POPC   GL153677  12.808  32.991   6.153
 9183POPC   GL253678  12.926  33.033   6.153
 9183POPC   C1A53679  12.810  33.011   6.453
 9183POPC   D2A53680  12.898  32.985   6.753
 9183POPC   C3A53681  12.826  33.040   7.053
 9183POPC   C4A53682  12.866  33.022   7.353
 9183POPC   C1B53683  13.061  33.122   6.453
 9183POPC   C2B53684  13.038  33.139   6.753
 9183POPC   C3B53685  13.040  33.169   7.053
 9183POPC   C4B53686  13.033  33.098   7.353
 9184POPC   NC353687  26.030  40.046   5.553
 9184POPC   PO453688  26.076  39.977   5.853
 9184POPC   GL153689  26.005  40.002   6.153
 9184POPC   GL253690  25.976  39.920   6.153
 9184POPC   C1A53691  26.085  40.024   6.453
 9184POPC   D2A53692  26.078  39.979   6.753
 9184POPC   C3A53693  26.086  39.993   7.053
 9184POPC   C4A53694  26.019  40.034   7.353
 9184POPC   C1B53695  25.891  39.827   6.453
 9184POPC   C2B53696  25.874  39.802   6.753
 9184POPC   C3B53697  25.844  39.803   7.053
 9184POPC   C4B53698  25.824  39.806   7.353
 9185POPC   NC353699   8.222  27.611   5.553
 9185POPC   PO453700   8.200  27.618   5.853
 9185POPC   GL153701   8.149  27.578   6.153
 9185POPC   GL253702   8.098  27.617   6.153
 9185POPC   C1A53703   8.177  27.595   6.453
 9185POPC   D2A53704   8.212  27.559   6.753
 9185POPC   C3A53705   8.199  27.638   7.053
 9185POPC   C4A53706   8.160  27.553   7.353
 9185POPC   C1B53707   7.912  27.632   6.453
 9185POPC   C2B53708   7.969  27.641   6.753
 9185POPC   C3B53709   7.989  27.715   7.053
 9185POPC   C4B53710   7.948  27.680   7.353
 9186POPC   NC353711   6.657  31.434   5.553
 9186POPC   PO453712   6.604  31.449   5.853
 9186POPC   GL153713   6.615  31.480   6.153
 9186POPC   GL253714   6.754  31.403   6.153
 9186POPC   C1A53715   6.671  31.508   6.453
 9186POPC   D2A53716   6.606  31.486   6.753
 9186POPC   C3A53717   6.597  31.481   7.053
 9186POPC   C4A53718   6.672  31.467   7.353
 9186POPC   C1B53719   6.831  31.346   6.453
 9186POPC   C2B53720   6.807  31.264   6.753
 9186POPC   C3B53721   6.860  31.254   7.053
 9186POPC   C4B53722   6.851  31.274   7.353
 9187POPC   NC353723  37.708  14.433   5.553
 9187POPC   PO453724  37.719  14.435   5.853
 9187POPC   GL153725  37.669  14.387   6.153
 9187POPC   GL253726  37.547  14.378   6.153
 9187POPC   C1A53727  37.723  14.369   6.453
 9187POPC   D2A53728  37.644  14.425   6.753
 9187POPC   C3A53729  37.711  14.364   7.053
 9187POPC   C4A53730  37.672  14.425   7.353
 9187POPC   C1B53731  37.430  14.438   6.453
 9187POPC   C2B53732  37.465  14.427   6.753
 9187POPC   C3B53733  37.393  14.461   7.053
 9187POPC   C4B53734  37.408  14.443   7.353
 9188POPC   NC353735  14.359   9.726   5.553
 9188POPC   PO453736  14.409   9.792   5.853
 9188POPC   GL153737  14.449   9.746   6.153
 9188POPC   GL253738  14.292   9.665   6.153
 9188POPC   C1A53739  14.451   9.723   6.453
 9188POPC   D2A53740  14.357   9.735   6.753
 9188POPC   C3A53741  14.380   9.721   7.053
 9188POPC   C4A53742  14.417   9.767   7.353
 9188POPC   C1B53743  14.283   9.570   6.453
 9188POPC   C2B53744  14.246   9.487   6.753
 9188POPC   C3B53745  14.242   9.555   7.053
 9188POPC   C4B53746  14.299   9.556   7.353
 9189POPC   NC353747  11.325  22.913   5.553
 9189POPC   PO453748  11.291  22.953   5.853
 9189POPC   GL153749  11.257  22.980   6.153
 9189POPC   GL253750  11.331  22.835   6.153
 9189POPC   C1A53751  11.322  22.916   6.453
 9189POPC   D2A53752  11.346  22.978   6.753
 9189POPC   C3A53753  11.275  22.967   7.053
 9189POPC   C4A53754  11.335  22.946   7.353
 9189POPC   C1B53755  11.379  22.657   6.453
 9189POPC   C2B53756  11.371  22.736   6.753
 9189POPC   C3B53757  11.291  22.727   7.053
 9189POPC   C4B53758  11.314  22.666   7.353
 9190POPC   NC353759  19.009  14.443   5.553
 9190POPC   PO453760  19.035  14.444   5.853
 9190POPC   GL153761  19.022  14.367   6.153
 9190POPC   GL253762  18.967  14.386   6.153
 9190POPC   C1A53763  19.075  14.400   6.453
 9190POPC   D2A53764  19.017  14.360   6.753
 9190POPC   C3A53765  19.093  14.372   7.053
 9190POPC   C4A53766  19.012  14.364   7.353
 9190POPC   C1B53767  18.774  14.425   6.453
 9190POPC   C2B53768  18.774  14.392   6.753
 9190POPC   C3B53769  18.858  14.395   7.053
 9190POPC   C4B53770  18.806  14.361   7.353
 9191POPC   NC353771  42.333   5.916   5.553
 9191POPC   PO453772  42.382   5.841   5.853
 9191POPC   GL153773  42.287   5.841   6.153
 9191POPC   GL253774  42.414   5.852   6.153
 9191POPC   C1A53775  42.334   5.869   6.453
 9191POPC   D2A53776  42.370   5.830   6.753
 9191POPC   C3A53777  42.287   5.842   7.053
 9191POPC   C4A53778  42.376   5.850   7.353
 9191POPC   C1B53779  42.578   5.893   6.453
 9191POPC   C2B53780  42.563   5.853   6.753
 9191POPC   C3B53781  42.537   5.870   7.053
 9191POPC   C4B53782  42.570   5.819   7.353
 9192POPC   NC353783  24.491  36.155   5.553
 9192POPC   PO453784  24.516  36.154   5.853
 9192POPC   GL153785  24.478  36.127   6.153
 9192POPC   GL253786  24.637  36.188   6.153
 9192POPC   C1A53787  24.497  36.167   6.453
 9192POPC   D2A53788  24.446  36.129   6.753
 9192POPC   C3A53789  24.516  36.148   7.053
 9192POPC   C4A53790  24.500  36.136   7.353
 9192POPC   C1B53791  24.663  36.280   6.453
 9192POPC   C2B53792  24.675  36.302   6.753
 9192POPC   C3B53793  24.752  36.283   7.053
 9192POPC   C4B53794  24.661  36.287   7.353
 9193POPC   NC353795  12.055  29.908   5.553
 9193POPC   PO453796  12.121  29.921   5.853
 9193POPC   GL153797  12.118  29.945   6.153
 9193POPC   GL253798  12.015  29.824   6.153
 9193POPC   C1A53799  12.114  29.915   6.453
 9193POPC   D2A53800  12.089  29.911   6.753
 9193POPC   C3A53801  12.067  29.921   7.053
 9193POPC   C4A53802  12.108  29.893   7.353
 9193POPC   C1B53803  11.881  29.741   6.453
 9193POPC   C2B53804  11.934  29.733   6.753
 9193POPC   C3B53805  11.886  29.712   7.053
 9193POPC   C4B53806  11.899  29.749   7.353
 9194POPC   NC353807   6.647  37.671   5.553
 9194POPC   PO453808   6.660  37.680   5.853
 9194POPC   GL153809   6.632  37.676   6.153
 9194POPC   GL253810   6.510  37.791   6.153
 9194POPC   C1A53811   6.618  37.646   6.453
 9194POPC   D2A53812   6.655  37.664   6.753
 9194POPC   C3A53813   6.635  37.641   7.053
 9194POPC   C4A53814   6.617  37.654   7.353
 9194POPC   C1B53815   6.459  37.869   6.453
 9194POPC   C2B53816   6.419  37.874   6.753
 9194POPC   C3B53817   6.471  37.831   7.053
 9194POPC   C4B53818   6.483  37.850   7.353
 9195POPC   NC353819  28.391  40.023   5.553
 9195POPC   PO453820  28.350  39.981   5.853
 9195POPC   GL153821  28.384  39.983   6.153
 9195POPC   GL253822  28.309  40.074   6.153
 9195POPC   C1A53823  28.324  40.041   6.453
 9195POPC   D2A53824  28.365  40.033   6.753
 9195POPC   C3A53825  28.382  40.016   7.053
 9195POPC   C4A53826  28.331  39.964   7.353
 9195POPC   C1B53827  28.205  40.143   6.453
 9195POPC   C2B53828  28.222  40.148   6.753
 9195POPC   C3B53829  28.187  40.167   7.053
 9195POPC   C4B53830  28.219  40.155   7.353
 9196POPC   NC353831  13.625   1.168   5.553
 9196POPC   PO453832  13.582   1.244   5.853
 9196POPC   GL153833  13.653   1.215   6.153
 9196POPC   GL253834  13.547   1.223   6.153
 9196POPC   C1A53835  13.651   1.211   6.453
 9196POPC   D2A53836  13.631   1.235   6.753
 9196POPC   C3A53837  13.676   1.264   7.053
 9196POPC   C4A53838  13.662   1.179   7.353
 9196POPC   C1B53839  13.431   1.273   6.453
 9196POPC   C2B53840  13.349   1.344   6.753
 9196POPC   C3B53841  13.369   1.260   7.053
 9196POPC   C4B53842  13.419   1.316   7.353
 9197POPC   NC353843  33.021  36.855   5.553
 9197POPC   PO453844  33.003  36.915   5.853
 9197POPC   GL153845  33.034  36.948   6.153
 9197POPC   GL253846  33.074  37.034   6.153
 9197POPC   C1A53847  33.030  36.876   6.453
 9197POPC   D2A53848  32.999  36.889   6.753
 9197POPC   C3A53849  33.066  36.901   7.053
 9197POPC   C4A53850  33.065  36.878   7.353
 9197POPC   C1B53851  33.223  37.056   6.453
 9197POPC   C2B53852  33.180  37.057   6.753
 9197POPC   C3B53853  33.232  37.040   7.053
 9197POPC   C4B53854  33.160  37.127   7.353
 9198POPC   NC353855  25.289   9.774   5.553
 9198POPC   PO453856  25.243   9.736   5.853
 9198POPC   GL153857  25.283   9.720   6.153
 9198POPC   GL253858  25.361   9.652   6.153
 9198POPC   C1A53859  25.233   9.761   6.453
 9198POPC   D2A53860  25.218   9.759   6.753
 9198POPC   C3A53861  25.305   9.769   7.053
 9198POPC   C4A53862  25.245   9.798   7.353
 9198POPC   C1B53863  25.336   9.478   6.453
 9198POPC   C2B53864  25.412   9.502   6.753
 9198POPC   C3B53865  25.338   9.519   7.053
 9198POPC   C4B53866  25.410   9.538   7.353
 9199POPC   NC353867  30.670  31.432   5.553
 9199POPC   PO453868  30.685  31.487   5.853
 9199POPC   GL153869  30.685  31.475   6.153
 9199POPC   GL253870  30.574  31.501   6.153
 9199POPC   C1A53871  30.704  31.446   6.453
 9199POPC   D2A53872  30.661  31.487   6.753
 9199POPC   C3A53873  30.715  31.457   7.053
 9199POPC   C4A53874  30.682  31.473   7.353
 9199POPC   C1B53875  30.453  31.431   6.453
 9199POPC   C2B53876  30.407  31.463   6.753
 9199POPC   C3B53877  30.416  31.520   7.053
 9199POPC   C4B53878  30.448  31.516   7.353
 9200POPC   NC353879  28.413  44.614   5.553
 9200POPC   PO453880  28.354  44.645   5.853
 9200POPC   GL153881  28.397  44.709   6.153
 9200POPC   GL253882  28.332  44.498   6.153
 9200POPC   C1A53883  28.401  44.688   6.453
 9200POPC   D2A53884  28.398  44.614   6.753
 9200POPC   C3A53885  28.346  44.705   7.053
 9200POPC   C4A53886  28.406  44.701   7.353
 9200POPC   C1B53887  28.376  44.451   6.453
 9200POPC   C2B53888  28.286  44.418   6.753
 9200POPC   C3B53889  28.375  44.462   7.053
 9200POPC   C4B53890  28.374  44.403   7.353
 9201POPC   NC353891  38.477  35.350   5.553
 9201POPC   PO453892  38.417  35.360   5.853
 9201POPC   GL153893  38.415  35.374   6.153
 9201POPC   GL253894  38.483  35.485   6.153
 9201POPC   C1A53895  38.434  35.397   6.453
 9201POPC   D2A53896  38.504  35.382   6.753
 9201POPC   C3A53897  38.504  35.338   7.053
 9201POPC   C4A53898  38.496  35.371   7.353
 9201POPC   C1B53899  38.610  35.567   6.453
 9201POPC   C2B53900  38.547  35.595   6.753
 9201POPC   C3B53901  38.619  35.579   7.053
 9201POPC   C4B53902  38.577  35.581   7.353
 9202POPC   NC353903  15.957   5.874   5.553
 9202POPC   PO453904  15.960   5.918   5.853
 9202POPC   GL153905  15.988   5.859   6.153
 9202POPC   GL253906  15.903   5.990   6.153
 9202POPC   C1A53907  15.932   5.847   6.453
 9202POPC   D2A53908  15.971   5.851   6.753
 9202POPC   C3A53909  15.931   5.917   7.053
 9202POPC   C4A53910  15.978   5.861   7.353
 9202POPC   C1B53911  15.824   6.087   6.453
 9202POPC   C2B53912  15.788   6.029   6.753
 9202POPC   C3B53913  15.825   6.049   7.053
 9202POPC   C4B53914  15.854   6.044   7.353
 9203POPC   NC353915  12.107   3.551   5.553
 9203POPC   PO453916  12.099   3.493   5.853
 9203POPC   GL153917  12.086   3.563   6.153
 9203POPC   GL253918  12.026   3.581   6.153
 9203POPC   C1A53919  12.112   3.529   6.453
 9203POPC   D2A53920  12.056   3.573   6.753
 9203POPC   C3A53921  12.118   3.512   7.053
 9203POPC   C4A53922  12.030   3.590   7.353
 9203POPC   C1B53923  11.857   3.664   6.453
 9203POPC   C2B53924  11.933   3.726   6.753
 9203POPC   C3B53925  11.906   3.719   7.053
 9203POPC   C4B53926  11.907   3.672   7.353
 9204POPC   NC353927  10.565   6.600   5.553
 9204POPC   PO453928  10.561   6.616   5.853
 9204POPC   GL153929  10.499   6.663   6.153
 9204POPC   GL253930  10.611   6.804   6.153
 9204POPC   C1A53931  10.531   6.677   6.453
 9204POPC   D2A53932  10.563   6.631   6.753
 9204POPC   C3A53933  10.552   6.693   7.053
 9204POPC   C4A53934  10.560   6.618   7.353
 9204POPC   C1B53935  10.632   6.890   6.453
 9204POPC   C2B53936  10.563   6.911   6.753
 9204POPC   C3B53937  10.593   6.907   7.053
 9204POPC   C4B53938  10.565   6.864   7.353
 9205POPC   NC353939  39.210   3.566   5.553
 9205POPC   PO453940  39.255   3.534   5.853
 9205POPC   GL153941  39.228   3.534   6.153
 9205POPC   GL253942  39.091   3.466   6.153
 9205POPC   C1A53943  39.260   3.491   6.453
 9205POPC   D2A53944  39.231   3.523   6.753
 9205POPC   C3A53945  39.183   3.537   7.053
 9205POPC   C4A53946  39.185   3.508   7.353
 9205POPC   C1B53947  39.006   3.355   6.453
 9205POPC   C2B53948  38.981   3.446   6.753
 9205POPC   C3B53949  39.038   3.402   7.053
 9205POPC   C4B53950  39.005   3.435   7.353
 9206POPC   NC353951   9.737  36.104   5.553
 9206POPC   PO453952   9.778  36.114   5.853
 9206POPC   GL153953   9.736  36.154   6.153
 9206POPC   GL253954   9.885  36.221   6.153
 9206POPC   C1A53955   9.753  36.122   6.453
 9206POPC   D2A53956   9.775  36.114   6.753
 9206POPC   C3A53957   9.732  36.123   7.053
 9206POPC   C4A53958   9.758  36.082   7.353
 9206POPC   C1B53959   9.956  36.238   6.453
 9206POPC   C2B53960   9.932  36.189   6.753
 9206POPC   C3B53961   9.940  36.219   7.053
 9206POPC   C4B53962   9.976  36.201   7.353
 9207POPC   NC353963  34.621   8.211   5.553
 9207POPC   PO453964  34.613   8.230   5.853
 9207POPC   GL153965  34.620   8.159   6.153
 9207POPC   GL253966  34.656   8.086   6.153
 9207POPC   C1A53967  34.616   8.149   6.453
 9207POPC   D2A53968  34.532   8.158   6.753
 9207POPC   C3A53969  34.619   8.201   7.053
 9207POPC   C4A53970  34.575   8.234   7.353
 9207POPC   C1B53971  34.774   8.099   6.453
 9207POPC   C2B53972  34.754   8.064   6.753
 9207POPC   C3B53973  34.755   8.089   7.053
 9207POPC   C4B53974  34.748   8.099   7.353
 9208POPC   NC353975  17.484  12.055   5.553
 9208POPC   PO453976  17.495  12.046   5.853
 9208POPC   GL153977  17.474  12.084   6.153
 9208POPC   GL253978  17.674  12.059   6.153
 9208POPC   C1A53979  17.535  12.086   6.453
 9208POPC   D2A53980  17.521  12.027   6.753
 9208POPC   C3A53981  17.498  12.119   7.053
 9208POPC   C4A53982  17.489  12.056   7.353
 9208POPC   C1B53983  17.739  11.952   6.453
 9208POPC   C2B53984  17.754  12.008   6.753
 9208POPC   C3B53985  17.731  12.003   7.053
 9208POPC   C4B53986  17.704  12.040   7.353
 9209POPC   NC353987  36.879  17.504   5.553
 9209POPC   PO453988  36.929  17.499   5.853
 9209POPC   GL153989  36.912  17.482   6.153
 9209POPC   GL253990  36.866  17.649   6.153
 9209POPC   C1A53991  36.931  17.496   6.453
 9209POPC   D2A53992  36.929  17.491   6.753
 9209POPC   C3A53993  36.885  17.516   7.053
 9209POPC   C4A53994  36.858  17.525   7.353
 9209POPC   C1B53995  36.927  17.720   6.453
 9209POPC   C2B53996  36.914  17.748   6.753
 9209POPC   C3B53997  36.960  17.779   7.053
 9209POPC   C4B53998  36.969  17.755   7.353
 9210POPC   NC353999  21.348  12.843   5.553
 9210POPC   PO454000  21.351  12.863   5.853
 9210POPC   GL154001  21.393  12.831   6.153
 9210POPC   GL254002  21.442  12.747   6.153
 9210POPC   C1A54003  21.346  12.892   6.453
 9210POPC   D2A54004  21.371  12.869   6.753
 9210POPC   C3A54005  21.398  12.835   7.053
 9210POPC   C4A54006  21.424  12.894   7.353
 9210POPC   C1B54007  21.595  12.668   6.453
 9210POPC   C2B54008  21.523  12.659   6.753
 9210POPC   C3B54009  21.605  12.633   7.053
 9210POPC   C4B54010  21.566  12.695   7.353
 9211POPC   NC354011   8.185  38.453   5.553
 9211POPC   PO454012   8.171  38.471   5.853
 9211POPC   GL154013   8.232  38.442   6.153
 9211POPC   GL254014   8.056  38.442   6.153
 9211POPC   C1A54015   8.188  38.447   6.453
 9211POPC   D2A54016   8.182  38.465   6.753
 9211POPC   C3A54017   8.167  38.438   7.053
 9211POPC   C4A54018   8.237  38.498   7.353
 9211POPC   C1B54019   7.931  38.339   6.453
 9211POPC   C2B54020   7.987  38.335   6.753
 9211POPC   C3B54021   7.924  38.332   7.053
 9211POPC   C4B54022   7.973  38.368   7.353
 9212POPC   NC354023  39.251  19.033   5.553
 9212POPC   PO454024  39.193  19.040   5.853
 9212POPC   GL154025  39.228  19.107   6.153
 9212POPC   GL254026  39.075  19.001   6.153
 9212POPC   C1A54027  39.218  19.017   6.453
 9212POPC   D2A54028  39.236  19.099   6.753
 9212POPC   C3A54029  39.255  19.022   7.053
 9212POPC   C4A54030  39.249  19.075   7.353
 9212POPC   C1B54031  38.959  18.975   6.453
 9212POPC   C2B54032  39.011  18.944   6.753
 9212POPC   C3B54033  39.004  18.943   7.053
 9212POPC   C4B54034  39.036  18.948   7.353
 9213POPC   NC354035  14.419  43.893   5.553
 9213POPC   PO454036  14.393  43.887   5.853
 9213POPC   GL154037  14.445  43.897   6.153
 9213POPC   GL254038  14.290  43.964   6.153
 9213POPC   C1A54039  14.365  43.903   6.453
 9213POPC   D2A54040  14.389  43.879   6.753
 9213POPC   C3A54041  14.442  43.859   7.053
 9213POPC   C4A54042  14.382  43.890   7.353
 9213POPC   C1B54043  14.193  43.978   6.453
 9213POPC   C2B54044  14.133  44.017   6.753
 9213POPC   C3B54045  14.138  44.006   7.053
 9213POPC   C4B54046  14.167  44.043   7.353
 9214POPC   NC354047  26.028  35.377   5.553
 9214POPC   PO454048  26.062  35.353   5.853
 9214POPC   GL154049  26.080  35.335   6.153
 9214POPC   GL254050  25.961  35.217   6.153
 9214POPC   C1A54051  26.077  35.365   6.453
 9214POPC   D2A54052  26.020  35.307   6.753
 9214POPC   C3A54053  26.012  35.327   7.053
 9214POPC   C4A54054  25.996  35.399   7.353
 9214POPC   C1B54055  25.960  35.157   6.453
 9214POPC   C2B54056  25.919  35.151   6.753
 9214POPC   C3B54057  25.970  35.164   7.053
 9214POPC   C4B54058  25.874  35.085   7.353
 9215POPC   NC354059  16.702   5.861   5.553
 9215POPC   PO454060  16.755   5.901   5.853
 9215POPC   GL154061  16.744   5.894   6.153
 9215POPC   GL254062  16.767   6.008   6.153
 9215POPC   C1A54063  16.699   5.899   6.453
 9215POPC   D2A54064  16.691   5.823   6.753
 9215POPC   C3A54065  16.722   5.885   7.053
 9215POPC   C4A54066  16.774   5.876   7.353
 9215POPC   C1B54067  16.804   6.135   6.453
 9215POPC   C2B54068  16.758   6.116   6.753
 9215POPC   C3B54069  16.816   6.110   7.053
 9215POPC   C4B54070  16.751   6.104   7.353
 9216POPC   NC354071  29.954   7.437   5.553
 9216POPC   PO454072  29.945   7.381   5.853
 9216POPC   GL154073  29.940   7.440   6.153
 9216POPC   GL254074  29.995   7.494   6.153
 9216POPC   C1A54075  29.934   7.395   6.453
 9216POPC   D2A54076  29.936   7.408   6.753
 9216POPC   C3A54077  29.884   7.415   7.053
 9216POPC   C4A54078  29.905   7.393   7.353
 9216POPC   C1B54079  30.159   7.521   6.453
 9216POPC   C2B54080  30.101   7.589   6.753
 9216POPC   C3B54081  30.184   7.553   7.053
 9216POPC   C4B54082  30.092   7.536   7.353
 9217POPC   NC354083  44.661  26.777   5.553
 9217POPC   PO454084  44.704  26.812   5.853
 9217POPC   GL154085  44.678  26.816   6.153
 9217POPC   GL254086  44.542  26.707   6.153
 9217POPC   C1A54087  44.633  26.820   6.453
 9217POPC   D2A54088  44.684  26.828   6.753
 9217POPC   C3A54089  44.690  26.801   7.053
 9217POPC   C4A54090  44.661  26.786   7.353
 9217POPC   C1B54091  44.505  26.664   6.453
 9217POPC   C2B54092  44.482  26.695   6.753
 9217POPC   C3B54093  44.425  26.635   7.053
 9217POPC   C4B54094  44.490  26.656   7.353
 9218POPC   NC354095  24.513  15.991   5.553
 9218POPC   PO454096  24.509  15.982   5.853
 9218POPC   GL154097  24.530  15.986   6.153
 9218POPC   GL254098  24.585  15.999   6.153
 9218POPC   C1A54099  24.440  15.971   6.453
 9218POPC   D2A54100  24.514  15.956   6.753
 9218POPC   C3A54101  24.476  15.942   7.053
 9218POPC   C4A54102  24.467  15.942   7.353
 9218POPC   C1B54103  24.761  15.944   6.453
 9218POPC   C2B54104  24.696  15.992   6.753
 9218POPC   C3B54105  24.715  16.014   7.053
 9218POPC   C4B54106  24.711  15.951   7.353
 9219POPC   NC354107  37.703  44.627   5.553
 9219POPC   PO454108  37.719  44.616   5.853
 9219POPC   GL154109  37.679  44.617   6.153
 9219POPC   GL254110  37.575  44.560   6.153
 9219POPC   C1A54111  37.716  44.628   6.453
 9219POPC   D2A54112  37.696  44.703   6.753
 9219POPC   C3A54113  37.717  44.704   7.053
 9219POPC   C4A54114  37.717  44.655   7.353
 9219POPC   C1B54115  37.465  44.537   6.453
 9219POPC   C2B54116  37.502  44.549   6.753
 9219POPC   C3B54117  37.428  44.522   7.053
 9219POPC   C4B54118  37.516  44.561   7.353
 9220POPC   NC354119  10.514  43.893   5.553
 9220POPC   PO454120  10.555  43.841   5.853
 9220POPC   GL154121  10.502  43.841   6.153
 9220POPC   GL254122  10.463  43.969   6.153
 9220POPC   C1A54123  10.557  43.851   6.453
 9220POPC   D2A54124  10.497  43.880   6.753
 9220POPC   C3A54125  10.566  43.854   7.053
 9220POPC   C4A54126  10.517  43.878   7.353
 9220POPC   C1B54127  10.369  44.125   6.453
 9220POPC   C2B54128  10.333  44.057   6.753
 9220POPC   C3B54129  10.415  44.094   7.053
 9220POPC   C4B54130  10.354  44.061   7.353
 9221POPC   NC354131  43.854  15.197   5.553
 9221POPC   PO454132  43.854  15.205   5.853
 9221POPC   GL154133  43.882  15.170   6.153
 9221POPC   GL254134  43.834  15.016   6.153
 9221POPC   C1A54135  43.918  15.180   6.453
 9221POPC   D2A54136  43.927  15.146   6.753
 9221POPC   C3A54137  43.850  15.228   7.053
 9221POPC   C4A54138  43.907  15.213   7.353
 9221POPC   C1B54139  43.887  14.921   6.453
 9221POPC   C2B54140  43.880  14.913   6.753
 9221POPC   C3B54141  43.893  14.891   7.053
 9221POPC   C4B54142  43.804  14.920   7.353
 9222POPC   NC354143  33.758  43.104   5.553
 9222POPC   PO454144  33.764  43.090   5.853
 9222POPC   GL154145  33.788  43.077   6.153
 9222POPC   GL254146  33.968  43.065   6.153
 9222POPC   C1A54147  33.802  43.141   6.453
 9222POPC   D2A54148  33.836  43.095   6.753
 9222POPC   C3A54149  33.774  43.135   7.053
 9222POPC   C4A54150  33.831  43.075   7.353
 9222POPC   C1B54151  34.063  43.067   6.453
 9222POPC   C2B54152  34.055  43.050   6.753
 9222POPC   C3B54153  34.083  43.061   7.053
 9222POPC   C4B54154  34.038  43.082   7.353
 9223POPC   NC354155  37.704  33.774   5.553
 9223POPC   PO454156  37.692  33.843   5.853
 9223POPC   GL154157  37.647  33.822   6.153
 9223POPC   GL254158  37.787  33.864   6.153
 9223POPC   C1A54159  37.711  33.765   6.453
 9223POPC   D2A54160  37.712  33.792   6.753
 9223POPC   C3A54161  37.668  33.802   7.053
 9223POPC   C4A54162  37.724  33.817   7.353
 9223POPC   C1B54163  37.881  33.872   6.453
 9223POPC   C2B54164  37.905  33.812   6.753
 9223POPC   C3B54165  37.939  33.831   7.053
 9223POPC   C4B54166  37.949  33.860   7.353
 9224POPC   NC354167  18.294  12.030   5.553
 9224POPC   PO454168  18.263  12.111   5.853
 9224POPC   GL154169  18.246  12.065   6.153
 9224POPC   GL254170  18.421  12.177   6.153
 9224POPC   C1A54171  18.239  12.026   6.453
 9224POPC   D2A54172  18.257  12.037   6.753
 9224POPC   C3A54173  18.240  12.084   7.053
 9224POPC   C4A54174  18.315  12.054   7.353
 9224POPC   C1B54175  18.466  12.227   6.453
 9224POPC   C2B54176  18.465  12.217   6.753
 9224POPC   C3B54177  18.539  12.162   7.053
 9224POPC   C4B54178  18.454  12.228   7.353
 9225POPC   NC354179   1.220  18.287   5.553
 9225POPC   PO454180   1.213  18.268   5.853
 9225POPC   GL154181   1.206  18.330   6.153
 9225POPC   GL254182   1.092  18.155   6.153
 9225POPC   C1A54183   1.223  18.251   6.453
 9225POPC   D2A54184   1.175  18.254   6.753
 9225POPC   C3A54185   1.228  18.249   7.053
 9225POPC   C4A54186   1.193  18.239   7.353
 9225POPC   C1B54187   1.029  18.139   6.453
 9225POPC   C2B54188   1.039  18.131   6.753
 9225POPC   C3B54189   1.043  18.166   7.053
 9225POPC   C4B54190   1.020  18.152   7.353
 9226POPC   NC354191  28.365  14.422   5.553
 9226POPC   PO454192  28.370  14.396   5.853
 9226POPC   GL154193  28.368  14.406   6.153
 9226POPC   GL254194  28.380  14.537   6.153
 9226POPC   C1A54195  28.396  14.415   6.453
 9226POPC   D2A54196  28.353  14.429   6.753
 9226POPC   C3A54197  28.396  14.444   7.053
 9226POPC   C4A54198  28.418  14.419   7.353
 9226POPC   C1B54199  28.341  14.631   6.453
 9226POPC   C2B54200  28.289  14.689   6.753
 9226POPC   C3B54201  28.278  14.605   7.053
 9226POPC   C4B54202  28.293  14.621   7.353
 9227POPC   NC354203  12.095  28.382   5.553
 9227POPC   PO454204  12.091  28.406   5.853
 9227POPC   GL154205  12.093  28.343   6.153
 9227POPC   GL254206  12.093  28.197   6.153
 9227POPC   C1A54207  12.101  28.367   6.453
 9227POPC   D2A54208  12.112  28.349   6.753
 9227POPC   C3A54209  12.121  28.323   7.053
 9227POPC   C4A54210  12.103  28.407   7.353
 9227POPC   C1B54211  12.037  28.142   6.453
 9227POPC   C2B54212  12.093  28.141   6.753
 9227POPC   C3B54213  12.052  28.123   7.053
 9227POPC   C4B54214  12.109  28.141   7.353
 9228POPC   NC354215  30.729  29.891   5.553
 9228POPC   PO454216  30.735  29.886   5.853
 9228POPC   GL154217  30.699  29.970   6.153
 9228POPC   GL254218  30.849  29.926   6.153
 9228POPC   C1A54219  30.658  29.882   6.453
 9228POPC   D2A54220  30.703  29.965   6.753
 9228POPC   C3A54221  30.694  29.872   7.053
 9228POPC   C4A54222  30.729  29.966   7.353
 9228POPC   C1B54223  30.922  29.966   6.453
 9228POPC   C2B54224  30.966  29.921   6.753
 9228POPC   C3B54225  30.987  29.877   7.053
 9228POPC   C4B54226  30.919  29.930   7.353
 9229POPC   NC354227  36.930  13.593   5.553
 9229POPC   PO454228  36.899  13.620   5.853
 9229POPC   GL154229  36.896  13.610   6.153
 9229POPC   GL254230  36.978  13.652   6.153
 9229POPC   C1A54231  36.898  13.649   6.453
 9229POPC   D2A54232  36.928  13.608   6.753
 9229POPC   C3A54233  36.876  13.658   7.053
 9229POPC   C4A54234  36.875  13.635   7.353
 9229POPC   C1B54235  37.074  13.703   6.453
 9229POPC   C2B54236  37.108  13.751   6.753
 9229POPC   C3B54237  37.127  13.738   7.053
 9229POPC   C4B54238  37.143  13.769   7.353
 9230POPC   NC354239   1.999  25.271   5.553
 9230POPC   PO454240   1.976  25.264   5.853
 9230POPC   GL154241   2.016  25.220   6.153
 9230POPC   GL254242   2.087  25.321   6.153
 9230POPC   C1A54243   2.039  25.291   6.453
 9230POPC   D2A54244   2.017  25.312   6.753
 9230POPC   C3A54245   1.985  25.225   7.053
 9230POPC   C4A54246   2.035  25.297   7.353
 9230POPC   C1B54247   2.265  25.255   6.453
 9230POPC   C2B54248   2.284  25.304   6.753
 9230POPC   C3B54249   2.242  25.278   7.053
 9230POPC   C4B54250   2.205  25.315   7.353
 9231POPC   NC354251   1.975  15.172   5.553
 9231POPC   PO454252   2.000  15.159   5.853
 9231POPC   GL154253   1.996  15.228   6.153
 9231POPC   GL254254   1.940  15.034   6.153
 9231POPC   C1A54255   1.958  15.211   6.453
 9231POPC   D2A54256   1.960  15.177   6.753
 9231POPC   C3A54257   2.017  15.192   7.053
 9231POPC   C4A54258   2.020  15.157   7.353
 9231POPC   C1B54259   1.921  14.988   6.453
 9231POPC   C2B54260   1.900  14.997   6.753
 9231POPC   C3B54261   1.859  14.943   7.053
 9231POPC   C4B54262   1.864  14.959   7.353
 9232POPC   NC354263  38.472   5.854   5.553
 9232POPC   PO454264  38.411   5.849   5.853
 9232POPC   GL154265  38.498   5.899   6.153
 9232POPC   GL254266  38.298   5.845   6.153
 9232POPC   C1A54267  38.443   5.840   6.453
 9232POPC   D2A54268  38.497   5.846   6.753
 9232POPC   C3A54269  38.431   5.867   7.053
 9232POPC   C4A54270  38.411   5.827   7.353
 9232POPC   C1B54271  38.253   5.799   6.453
 9232POPC   C2B54272  38.230   5.790   6.753
 9232POPC   C3B54273  38.220   5.810   7.053
 9232POPC   C4B54274  38.252   5.781   7.353
 9233POPC   NC354275  30.662  17.491   5.553
 9233POPC   PO454276  30.669  17.499   5.853
 9233POPC   GL154277  30.730  17.544   6.153
 9233POPC   GL254278  30.805  17.570   6.153
 9233POPC   C1A54279  30.697  17.533   6.453
 9233POPC   D2A54280  30.745  17.530   6.753
 9233POPC   C3A54281  30.735  17.485   7.053
 9233POPC   C4A54282  30.710  17.531   7.353
 9233POPC   C1B54283  30.831  17.731   6.453
 9233POPC   C2B54284  30.838  17.724   6.753
 9233POPC   C3B54285  30.880  17.697   7.053
 9233POPC   C4B54286  30.824  17.702   7.353
 9234POPC   NC354287  39.990  16.748   5.553
 9234POPC   PO454288  40.033  16.750   5.853
 9234POPC   GL154289  39.999  16.721   6.153
 9234POPC   GL254290  40.135  16.784   6.153
 9234POPC   C1A54291  40.010  16.765   6.453
 9234POPC   D2A54292  39.981  16.704   6.753
 9234POPC   C3A54293  40.046  16.708   7.053
 9234POPC   C4A54294  40.018  16.758   7.353
 9234POPC   C1B54295  40.167  16.881   6.453
 9234POPC   C2B54296  40.141  16.871   6.753
 9234POPC   C3B54297  40.205  16.932   7.053
 9234POPC   C4B54298  40.156  16.940   7.353
 9235POPC   NC354299  25.231  10.525   5.553
 9235POPC   PO454300  25.296  10.572   5.853
 9235POPC   GL154301  25.235  10.530   6.153
 9235POPC   GL254302  25.279  10.403   6.153
 9235POPC   C1A54303  25.222  10.540   6.453
 9235POPC   D2A54304  25.238  10.476   6.753
 9235POPC   C3A54305  25.291  10.488   7.053
 9235POPC   C4A54306  25.309  10.564   7.353
 9235POPC   C1B54307  25.285  10.237   6.453
 9235POPC   C2B54308  25.264  10.234   6.753
 9235POPC   C3B54309  25.285  10.251   7.053
 9235POPC   C4B54310  25.250  10.239   7.353
 9236POPC   NC354311  42.293  26.847   5.553
 9236POPC   PO454312  42.292  26.800   5.853
 9236POPC   GL154313  42.380  26.793   6.153
 9236POPC   GL254314  42.287  26.672   6.153
 9236POPC   C1A54315  42.364  26.789   6.453
 9236POPC   D2A54316  42.323  26.800   6.753
 9236POPC   C3A54317  42.309  26.808   7.053
 9236POPC   C4A54318  42.372  26.797   7.353
 9236POPC   C1B54319  42.267  26.526   6.453
 9236POPC   C2B54320  42.329  26.538   6.753
 9236POPC   C3B54321  42.252  26.617   7.053
 9236POPC   C4B54322  42.258  26.553   7.353
 9237POPC   NC354323  33.827   2.723   5.553
 9237POPC   PO454324  33.814   2.781   5.853
 9237POPC   GL154325  33.842   2.743   6.153
 9237POPC   GL254326  33.867   2.619   6.153
 9237POPC   C1A54327  33.838   2.739   6.453
 9237POPC   D2A54328  33.849   2.814   6.753
 9237POPC   C3A54329  33.758   2.743   7.053
 9237POPC   C4A54330  33.780   2.778   7.353
 9237POPC   C1B54331  33.856   2.543   6.453
 9237POPC   C2B54332  33.823   2.541   6.753
 9237POPC   C3B54333  33.877   2.529   7.053
 9237POPC   C4B54334  33.861   2.502   7.353
 9238POPC   NC354335  22.892  22.906   5.553
 9238POPC   PO454336  22.909  22.941   5.853
 9238POPC   GL154337  22.899  22.941   6.153
 9238POPC   GL254338  22.922  23.086   6.153
 9238POPC   C1A54339  22.891  22.935   6.453
 9238POPC   D2A54340  22.943  22.964   6.753
 9238POPC   C3A54341  22.889  22.908   7.053
 9238POPC   C4A54342  22.939  22.940   7.353
 9238POPC   C1B54343  22.888  23.199   6.453
 9238POPC   C2B54344  22.873  23.200   6.753
 9238POPC   C3B54345  22.875  23.200   7.053
 9238POPC   C4B54346  22.905  23.193   7.353
 9239POPC   NC354347  22.941   1.205   5.553
 9239POPC   PO454348  22.954   1.222   5.853
 9239POPC   GL154349  22.970   1.254   6.153
 9239POPC   GL254350  22.999   1.295   6.153
 9239POPC   C1A54351  22.924   1.225   6.453
 9239POPC   D2A54352  22.911   1.236   6.753
 9239POPC   C3A54353  22.958   1.169   7.053
 9239POPC   C4A54354  22.942   1.230   7.353
 9239POPC   C1B54355  23.072   1.485   6.453
 9239POPC   C2B54356  23.054   1.450   6.753
 9239POPC   C3B54357  23.064   1.431   7.053
 9239POPC   C4B54358  23.068   1.430   7.353
 9240POPC   NC354359   0.402   8.178   5.553
 9240POPC   PO454360   0.394   8.212   5.853
 9240POPC   GL154361   0.427   8.221   6.153
 9240POPC   GL254362   0.417   8.362   6.153
 9240POPC   C1A54363   0.452   8.185   6.453
 9240POPC   D2A54364   0.409   8.215   6.753
 9240POPC   C3A54365   0.453   8.202   7.053
 9240POPC   C4A54366   0.485   8.240   7.353
 9240POPC   C1B54367   0.398   8.446   6.453
 9240POPC   C2B54368   0.410   8.396   6.753
 9240POPC   C3B54369   0.380   8.435   7.053
 9240POPC   C4B54370   0.434   8.453   7.353
 9241POPC   NC354371  30.714  41.540   5.553
 9241POPC   PO454372  30.704  41.588   5.853
 9241POPC   GL154373  30.649  41.549   6.153
 9241POPC   GL254374  30.680  41.695   6.153
 9241POPC   C1A54375  30.672  41.571   6.453
 9241POPC   D2A54376  30.690  41.557   6.753
 9241POPC   C3A54377  30.733  41.577   7.053
 9241POPC   C4A54378  30.709  41.539   7.353
 9241POPC   C1B54379  30.583  41.765   6.453
 9241POPC   C2B54380  30.641  41.781   6.753
 9241POPC   C3B54381  30.556  41.752   7.053
 9241POPC   C4B54382  30.586  41.835   7.353
 9242POPC   NC354383   2.730  22.932   5.553
 9242POPC   PO454384   2.741  22.982   5.853
 9242POPC   GL154385   2.739  22.976   6.153
 9242POPC   GL254386   2.826  23.049   6.153
 9242POPC   C1A54387   2.756  22.950   6.453
 9242POPC   D2A54388   2.774  22.902   6.753
 9242POPC   C3A54389   2.810  22.962   7.053
 9242POPC   C4A54390   2.774  22.896   7.353
 9242POPC   C1B54391   3.000  23.134   6.453
 9242POPC   C2B54392   2.921  23.070   6.753
 9242POPC   C3B54393   2.966  23.136   7.053
 9242POPC   C4B54394   2.928  23.075   7.353
 9243POPC   NC354395  19.045  26.087   5.553
 9243POPC   PO454396  19.036  26.088   5.853
 9243POPC   GL154397  19.087  26.002   6.153
 9243POPC   GL254398  18.976  26.163   6.153
 9243POPC   C1A54399  19.048  26.039   6.453
 9243POPC   D2A54400  19.066  26.029   6.753
 9243POPC   C3A54401  19.091  26.051   7.053
 9243POPC   C4A54402  19.016  26.060   7.353
 9243POPC   C1B54403  19.003  26.309   6.453
 9243POPC   C2B54404  18.998  26.306   6.753
 9243POPC   C3B54405  18.938  26.300   7.053
 9243POPC   C4B54406  18.928  26.267   7.353
 9244POPC   NC354407  24.489  26.820   5.553
 9244POPC   PO454408  24.519  26.866   5.853
 9244POPC   GL154409  24.536  26.772   6.153
 9244POPC   GL254410  24.426  26.921   6.153
 9244POPC   C1A54411  24.478  26.832   6.453
 9244POPC   D2A54412  24.535  26.805   6.753
 9244POPC   C3A54413  24.477  26.771   7.053
 9244POPC   C4A54414  24.510  26.782   7.353
 9244POPC   C1B54415  24.456  27.035   6.453
 9244POPC   C2B54416  24.445  27.018   6.753
 9244POPC   C3B54417  24.439  27.043   7.053
 9244POPC   C4B54418  24.433  27.097   7.353
 9245POPC   NC354419  24.484  26.054   5.553
 9245POPC   PO454420  24.514  26.056   5.853
 9245POPC   GL154421  24.448  26.006   6.153
 9245POPC   GL254422  24.383  26.113   6.153
 9245POPC   C1A54423  24.449  26.006   6.453
 9245POPC   D2A54424  24.480  26.070   6.753
 9245POPC   C3A54425  24.472  26.069   7.053
 9245POPC   C4A54426  24.461  26.053   7.353
 9245POPC   C1B54427  24.327  26.255   6.453
 9245POPC   C2B54428  24.379  26.248   6.753
 9245POPC   C3B54429  24.379  26.247   7.053
 9245POPC   C4B54430  24.393  26.275   7.353
 9246POPC   NC354431   7.374  12.812   5.553
 9246POPC   PO454432   7.414  12.882   5.853
 9246POPC   GL154433   7.390  12.876   6.153
 9246POPC   GL254434   7.368  13.010   6.153
 9246POPC   C1A54435   7.402  12.857   6.453
 9246POPC   D2A54436   7.374  12.881   6.753
 9246POPC   C3A54437   7.398  12.898   7.053
 9246POPC   C4A54438   7.422  12.806   7.353
 9246POPC   C1B54439   7.327  13.089   6.453
 9246POPC   C2B54440   7.366  13.105   6.753
 9246POPC   C3B54441   7.364  13.096   7.053
 9246POPC   C4B54442   7.377  13.112   7.353
 9247POPC   NC354443  34.600  26.071   5.553
 9247POPC   PO454444  34.534  26.075   5.853
 9247POPC   GL154445  34.620  26.025   6.153
 9247POPC   GL254446  34.646  25.934   6.153
 9247POPC   C1A54447  34.549  26.020   6.453
 9247POPC   D2A54448  34.606  26.013   6.753
 9247POPC   C3A54449  34.619  26.038   7.053
 9247POPC   C4A54450  34.566  26.088   7.353
 9247POPC   C1B54451  34.681  25.823   6.453
 9247POPC   C2B54452  34.624  25.781   6.753
 9247POPC   C3B54453  34.671  25.827   7.053
 9247POPC   C4B54454  34.652  25.817   7.353
 9248POPC   NC354455  44.619  43.867   5.553
 9248POPC   PO454456  44.689  43.899   5.853
 9248POPC   GL154457  44.615  43.857   6.153
 9248POPC   GL254458  44.618  43.737   6.153
 9248POPC   C1A54459  44.694  43.924   6.453
 9248POPC   D2A54460  44.698  43.924   6.753
 9248POPC   C3A54461  44.692  43.901   7.053
 9248POPC   C4A54462  44.688  43.903   7.353
 9248POPC   C1B54463  44.566  43.607   6.453
 9248POPC   C2B54464  44.553  43.680   6.753
 9248POPC   C3B54465  44.569  43.695   7.053
 9248POPC   C4B54466  44.579  43.682   7.353
 9249POPC   NC354467  17.498   6.693   5.553
 9249POPC   PO454468  17.488   6.626   5.853
 9249POPC   GL154469  17.499   6.605   6.153
 9249POPC   GL254470  17.624   6.551   6.153
 9249POPC   C1A54471  17.476   6.651   6.453
 9249POPC   D2A54472  17.471   6.670   6.753
 9249POPC   C3A54473  17.545   6.613   7.053
 9249POPC   C4A54474  17.467   6.645   7.353
 9249POPC   C1B54475  17.700   6.498   6.453
 9249POPC   C2B54476  17.732   6.569   6.753
 9249POPC   C3B54477  17.757   6.515   7.053
 9249POPC   C4B54478  17.720   6.499   7.353
 9250POPC   NC354479  26.828  28.377   5.553
 9250POPC   PO454480  26.862  28.374   5.853
 9250POPC   GL154481  26.767  28.325   6.153
 9250POPC   GL254482  26.856  28.294   6.153
 9250POPC   C1A54483  26.788  28.352   6.453
 9250POPC   D2A54484  26.846  28.352   6.753
 9250POPC   C3A54485  26.774  28.362   7.053
 9250POPC   C4A54486  26.861  28.336   7.353
 9250POPC   C1B54487  26.885  28.131   6.453
 9250POPC   C2B54488  26.827  28.123   6.753
 9250POPC   C3B54489  26.822  28.123   7.053
 9250POPC   C4B54490  26.848  28.140   7.353
 9251POPC   NC354491  16.710  26.840   5.553
 9251POPC   PO454492  16.742  26.827   5.853
 9251POPC   GL154493  16.690  26.832   6.153
 9251POPC   GL254494  16.824  26.811   6.153
 9251POPC   C1A54495  16.716  26.807   6.453
 9251POPC   D2A54496  16.682  26.843   6.753
 9251POPC   C3A54497  16.718  26.809   7.053
 9251POPC   C4A54498  16.766  26.796   7.353
 9251POPC   C1B54499  16.996  26.883   6.453
 9251POPC   C2B54500  16.928  26.878   6.753
 9251POPC   C3B54501  16.946  26.929   7.053
 9251POPC   C4B54502  16.983  26.895   7.353
 9252POPC   NC354503  41.534  15.981   5.553
 9252POPC   PO454504  41.514  15.914   5.853
 9252POPC   GL154505  41.559  15.956   6.153
 9252POPC   GL254506  41.430  16.015   6.153
 9252POPC   C1A54507  41.578  15.958   6.453
 9252POPC   D2A54508  41.509  15.926   6.753
 9252POPC   C3A54509  41.522  15.941   7.053
 9252POPC   C4A54510  41.561  15.968   7.353
 9252POPC   C1B54511  41.328  16.047   6.453
 9252POPC   C2B54512  41.300  16.063   6.753
 9252POPC   C3B54513  41.366  16.083   7.053
 9252POPC   C4B54514  41.390  16.049   7.353
 9253POPC   NC354515   7.378  36.886   5.553
 9253POPC   PO454516   7.453  36.912   5.853
 9253POPC   GL154517   7.409  36.929   6.153
 9253POPC   GL254518   7.282  36.893   6.153
 9253POPC   C1A54519   7.398  36.865   6.453
 9253POPC   D2A54520   7.454  36.936   6.753
 9253POPC   C3A54521   7.380  36.902   7.053
 9253POPC   C4A54522   7.415  36.937   7.353
 9253POPC   C1B54523   7.209  36.790   6.453
 9253POPC   C2B54524   7.198  36.819   6.753
 9253POPC   C3B54525   7.179  36.860   7.053
 9253POPC   C4B54526   7.158  36.867   7.353
 9254POPC   NC354527  39.970  35.335   5.553
 9254POPC   PO454528  40.016  35.383   5.853
 9254POPC   GL154529  39.981  35.400   6.153
 9254POPC   GL254530  40.046  35.243   6.153
 9254POPC   C1A54531  40.036  35.326   6.453
 9254POPC   D2A54532  40.055  35.361   6.753
 9254POPC   C3A54533  40.008  35.359   7.053
 9254POPC   C4A54534  40.037  35.322   7.353
 9254POPC   C1B54535  40.098  35.103   6.453
 9254POPC   C2B54536  40.083  35.138   6.753
 9254POPC   C3B54537  40.109  35.095   7.053
 9254POPC   C4B54538  40.082  35.133   7.353
 9255POPC   NC354539  43.861  43.086   5.553
 9255POPC   PO454540  43.844  43.073   5.853
 9255POPC   GL154541  43.851  43.142   6.153
 9255POPC   GL254542  44.020  43.055   6.153
 9255POPC   C1A54543  43.862  43.096   6.453
 9255POPC   D2A54544  43.846  43.092   6.753
 9255POPC   C3A54545  43.874  43.065   7.053
 9255POPC   C4A54546  43.935  43.098   7.353
 9255POPC   C1B54547  44.104  42.974   6.453
 9255POPC   C2B54548  44.110  42.939   6.753
 9255POPC   C3B54549  44.117  42.927   7.053
 9255POPC   C4B54550  44.085  42.954   7.353
 9256POPC   NC354551   5.141  17.513   5.553
 9256POPC   PO454552   5.129  17.516   5.853
 9256POPC   GL154553   5.109  17.502   6.153
 9256POPC   GL254554   5.229  17.606   6.153
 9256POPC   C1A54555   5.123  17.486   6.453
 9256POPC   D2A54556   5.129  17.554   6.753
 9256POPC   C3A54557   5.109  17.518   7.053
 9256POPC   C4A54558   5.069  17.522   7.353
 9256POPC   C1B54559   5.254  17.696   6.453
 9256POPC   C2B54560   5.305  17.712   6.753
 9256POPC   C3B54561   5.312  17.648   7.053
 9256POPC   C4B54562   5.243  17.674   7.353
 9257POPC   NC354563  35.367  19.061   5.553
 9257POPC   PO454564  35.371  19.077   5.853
 9257POPC   GL154565  35.319  19.104   6.153
 9257POPC   GL254566  35.398  18.983   6.153
 9257POPC   C1A54567  35.367  19.019   6.453
 9257POPC   D2A54568  35.377  19.015   6.753
 9257POPC   C3A54569  35.356  19.089   7.053
 9257POPC   C4A54570  35.371  19.074   7.353
 9257POPC   C1B54571  35.508  18.866   6.453
 9257POPC   C2B54572  35.480  18.903   6.753
 9257POPC   C3B54573  35.498  18.881   7.053
 9257POPC   C4B54574  35.555  18.921   7.353
 9258POPC   NC354575  25.997  40.802   5.553
 9258POPC   PO454576  26.084  40.801   5.853
 9258POPC   GL154577  26.015  40.799   6.153
 9258POPC   GL254578  26.185  40.759   6.153
 9258POPC   C1A54579  26.037  40.738   6.453
 9258POPC   D2A54580  26.022  40.754   6.753
 9258POPC   C3A54581  26.034  40.796   7.053
 9258POPC   C4A54582  26.089  40.814   7.353
 9258POPC   C1B54583  26.316  40.772   6.453
 9258POPC   C2B54584  26.306  40.811   6.753
 9258POPC   C3B54585  26.338  40.789   7.053
 9258POPC   C4B54586  26.292  40.826   7.353
 9259POPC   NC354587  38.457  17.514   5.553
 9259POPC   PO454588  38.489  17.486   5.853
 9259POPC   GL154589  38.501  17.540   6.153
 9259POPC   GL254590  38.325  17.432   6.153
 9259POPC   C1A54591  38.456  17.519   6.453
 9259POPC   D2A54592  38.435  17.497   6.753
 9259POPC   C3A54593  38.468  17.458   7.053
 9259POPC   C4A54594  38.424  17.493   7.353
 9259POPC   C1B54595  38.223  17.400   6.453
 9259POPC   C2B54596  38.229  17.409   6.753
 9259POPC   C3B54597  38.240  17.421   7.053
 9259POPC   C4B54598  38.217  17.415   7.353
 9260POPC   NC354599  40.772  32.275   5.553
 9260POPC   PO454600  40.799  32.247   5.853
 9260POPC   GL154601  40.807  32.235   6.153
 9260POPC   GL254602  40.870  32.295   6.153
 9260POPC   C1A54603  40.735  32.211   6.453
 9260POPC   D2A54604  40.739  32.255   6.753
 9260POPC   C3A54605  40.758  32.258   7.053
 9260POPC   C4A54606  40.737  32.255   7.353
 9260POPC   C1B54607  40.983  32.422   6.453
 9260POPC   C2B54608  41.035  32.411   6.753
 9260POPC   C3B54609  40.970  32.403   7.053
 9260POPC   C4B54610  41.017  32.385   7.353
 9261POPC   NC354611  40.021  11.324   5.553
 9261POPC   PO454612  40.049  11.268   5.853
 9261POPC   GL154613  39.990  11.268   6.153
 9261POPC   GL254614  39.935  11.249   6.153
 9261POPC   C1A54615  39.979  11.319   6.453
 9261POPC   D2A54616  39.978  11.350   6.753
 9261POPC   C3A54617  39.973  11.338   7.053
 9261POPC   C4A54618  39.961  11.290   7.353
 9261POPC   C1B54619  39.760  11.168   6.453
 9261POPC   C2B54620  39.811  11.182   6.753
 9261POPC   C3B54621  39.750  11.157   7.053
 9261POPC   C4B54622  39.818  11.223   7.353
 9262POPC   NC354623  32.250  33.068   5.553
 9262POPC   PO454624  32.256  33.011   5.853
 9262POPC   GL154625  32.296  32.981   6.153
 9262POPC   GL254626  32.367  33.038   6.153
 9262POPC   C1A54627  32.287  33.057   6.453
 9262POPC   D2A54628  32.242  32.976   6.753
 9262POPC   C3A54629  32.234  33.056   7.053
 9262POPC   C4A54630  32.284  33.010   7.353
 9262POPC   C1B54631  32.483  33.067   6.453
 9262POPC   C2B54632  32.439  33.140   6.753
 9262POPC   C3B54633  32.481  33.084   7.053
 9262POPC   C4B54634  32.515  33.074   7.353
 9263POPC   NC354635  22.164  14.354   5.553
 9263POPC   PO454636  22.202  14.392   5.853
 9263POPC   GL154637  22.189  14.439   6.153
 9263POPC   GL254638  22.225  14.299   6.153
 9263POPC   C1A54639  22.190  14.418   6.453
 9263POPC   D2A54640  22.203  14.377   6.753
 9263POPC   C3A54641  22.138  14.428   7.053
 9263POPC   C4A54642  22.203  14.368   7.353
 9263POPC   C1B54643  22.291  14.211   6.453
 9263POPC   C2B54644  22.256  14.224   6.753
 9263POPC   C3B54645  22.280  14.166   7.053
 9263POPC   C4B54646  22.249  14.180   7.353
 9264POPC   NC354647  10.535  36.086   5.553
 9264POPC   PO454648  10.538  36.094   5.853
 9264POPC   GL154649  10.505  36.175   6.153
 9264POPC   GL254650  10.637  36.151   6.153
 9264POPC   C1A54651  10.561  36.131   6.453
 9264POPC   D2A54652  10.518  36.131   6.753
 9264POPC   C3A54653  10.476  36.150   7.053
 9264POPC   C4A54654  10.498  36.126   7.353
 9264POPC   C1B54655  10.759  36.186   6.453
 9264POPC   C2B54656  10.739  36.199   6.753
 9264POPC   C3B54657  10.745  36.172   7.053
 9264POPC   C4B54658  10.735  36.205   7.353
 9265POPC   NC354659  15.944   6.603   5.553
 9265POPC   PO454660  15.968   6.628   5.853
 9265POPC   GL154661  15.953   6.633   6.153
 9265POPC   GL254662  15.783   6.654   6.153
 9265POPC   C1A54663  15.928   6.602   6.453
 9265POPC   D2A54664  15.984   6.634   6.753
 9265POPC   C3A54665  15.923   6.637   7.053
 9265POPC   C4A54666  15.996   6.688   7.353
 9265POPC   C1B54667  15.752   6.612   6.453
 9265POPC   C2B54668  15.705   6.556   6.753
 9265POPC   C3B54669  15.730   6.569   7.053
 9265POPC   C4B54670  15.748   6.576   7.353
 9266POPC   NC354671  22.968  42.312   5.553
 9266POPC   PO454672  22.946  42.377   5.853
 9266POPC   GL154673  22.964  42.347   6.153
 9266POPC   GL254674  22.789  42.290   6.153
 9266POPC   C1A54675  22.972  42.341   6.453
 9266POPC   D2A54676  22.899  42.371   6.753
 9266POPC   C3A54677  22.972  42.348   7.053
 9266POPC   C4A54678  22.918  42.332   7.353
 9266POPC   C1B54679  22.734  42.345   6.453
 9266POPC   C2B54680  22.680  42.331   6.753
 9266POPC   C3B54681  22.725  42.317   7.053
 9266POPC   C4B54682  22.671  42.320   7.353
 9267POPC   NC354683  22.187  28.387   5.553
 9267POPC   PO454684  22.181  28.365   5.853
 9267POPC   GL154685  22.181  28.393   6.153
 9267POPC   GL254686  22.047  28.395   6.153
 9267POPC   C1A54687  22.162  28.416   6.453
 9267POPC   D2A54688  22.184  28.405   6.753
 9267POPC   C3A54689  22.179  28.340   7.053
 9267POPC   C4A54690  22.131  28.405   7.353
 9267POPC   C1B54691  21.935  28.442   6.453
 9267POPC   C2B54692  21.896  28.443   6.753
 9267POPC   C3B54693  21.910  28.409   7.053
 9267POPC   C4B54694  21.953  28.423   7.353
 9268POPC   NC354695  42.371  30.647   5.553
 9268POPC   PO454696  42.304  30.744   5.853
 9268POPC   GL154697  42.342  30.741   6.153
 9268POPC   GL254698  42.343  30.864   6.153
 9268POPC   C1A54699  42.312  30.677   6.453
 9268POPC   D2A54700  42.353  30.738   6.753
 9268POPC   C3A54701  42.372  30.679   7.053
 9268POPC   C4A54702  42.309  30.656   7.353
 9268POPC   C1B54703  42.374  30.899   6.453
 9268POPC   C2B54704  42.358  30.891   6.753
 9268POPC   C3B54705  42.391  30.919   7.053
 9268POPC   C4B54706  42.399  30.973   7.353
 9269POPC   NC354707  19.105  42.313   5.553
 9269POPC   PO454708  19.033  42.381   5.853
 9269POPC   GL154709  19.098  42.307   6.153
 9269POPC   GL254710  18.928  42.375   6.153
 9269POPC   C1A54711  19.032  42.352   6.453
 9269POPC   D2A54712  19.041  42.355   6.753
 9269POPC   C3A54713  19.018  42.363   7.053
 9269POPC   C4A54714  19.082  42.364   7.353
 9269POPC   C1B54715  18.839  42.450   6.453
 9269POPC   C2B54716  18.868  42.483   6.753
 9269POPC   C3B54717  18.915  42.491   7.053
 9269POPC   C4B54718  18.873  42.476   7.353
 9270POPC   NC354719   7.461  14.364   5.553
 9270POPC   PO454720   7.439  14.413   5.853
 9270POPC   GL154721   7.377  14.366   6.153
 9270POPC   GL254722   7.420  14.535   6.153
 9270POPC   C1A54723   7.400  14.363   6.453
 9270POPC   D2A54724   7.390  14.368   6.753
 9270POPC   C3A54725   7.422  14.393   7.053
 9270POPC   C4A54726   7.440  14.403   7.353
 9270POPC   C1B54727   7.368  14.630   6.453
 9270POPC   C2B54728   7.353  14.621   6.753
 9270POPC   C3B54729   7.379  14.644   7.053
 9270POPC   C4B54730   7.364  14.645   7.353
 9271POPC   NC354731  28.351  15.157   5.553
 9271POPC   PO454732  28.357  15.195   5.853
 9271POPC   GL154733  28.349  15.228   6.153
 9271POPC   GL254734  28.334  15.274   6.153
 9271POPC   C1A54735  28.371  15.160   6.453
 9271POPC   D2A54736  28.352  15.163   6.753
 9271POPC   C3A54737  28.361  15.146   7.053
 9271POPC   C4A54738  28.373  15.229   7.353
 9271POPC   C1B54739  28.346  15.449   6.453
 9271POPC   C2B54740  28.360  15.445   6.753
 9271POPC   C3B54741  28.368  15.435   7.053
 9271POPC   C4B54742  28.386  15.453   7.353
 9272POPC   NC354743  21.339  33.046   5.553
 9272POPC   PO454744  21.428  33.058   5.853
 9272POPC   GL154745  21.436  33.055   6.153
 9272POPC   GL254746  21.312  33.027   6.153
 9272POPC   C1A54747  21.344  33.031   6.453
 9272POPC   D2A54748  21.378  33.014   6.753
 9272POPC   C3A54749  21.417  33.032   7.053
 9272POPC   C4A54750  21.430  33.026   7.353
 9272POPC   C1B54751  21.149  33.095   6.453
 9272POPC   C2B54752  21.193  33.127   6.753
 9272POPC   C3B54753  21.115  33.100   7.053
 9272POPC   C4B54754  21.167  33.130   7.353
 9273POPC   NC354755  29.132  16.717   5.553
 9273POPC   PO454756  29.157  16.688   5.853
 9273POPC   GL154757  29.181  16.707   6.153
 9273POPC   GL254758  29.108  16.831   6.153
 9273POPC   C1A54759  29.116  16.755   6.453
 9273POPC   D2A54760  29.107  16.746   6.753
 9273POPC   C3A54761  29.150  16.741   7.053
 9273POPC   C4A54762  29.119  16.701   7.353
 9273POPC   C1B54763  28.963  16.896   6.453
 9273POPC   C2B54764  28.963  16.947   6.753
 9273POPC   C3B54765  28.989  16.936   7.053
 9273POPC   C4B54766  29.050  16.901   7.353
 9274POPC   NC354767   5.116  20.628   5.553
 9274POPC   PO454768   5.114  20.649   5.853
 9274POPC   GL154769   5.138  20.612   6.153
 9274POPC   GL254770   5.054  20.722   6.153
 9274POPC   C1A54771   5.092  20.586   6.453
 9274POPC   D2A54772   5.077  20.618   6.753
 9274POPC   C3A54773   5.059  20.592   7.053
 9274POPC   C4A54774   5.132  20.574   7.353
 9274POPC   C1B54775   4.880  20.838   6.453
 9274POPC   C2B54776   4.899  20.792   6.753
 9274POPC   C3B54777   4.928  20.742   7.053
 9274POPC   C4B54778   4.919  20.802   7.353
 9275POPC   NC354779  19.014  16.752   5.553
 9275POPC   PO454780  19.103  16.767   5.853
 9275POPC   GL154781  19.022  16.726   6.153
 9275POPC   GL254782  18.940  16.620   6.153
 9275POPC   C1A54783  19.096  16.740   6.453
 9275POPC   D2A54784  19.024  16.713   6.753
 9275POPC   C3A54785  19.102  16.743   7.053
 9275POPC   C4A54786  19.087  16.733   7.353
 9275POPC   C1B54787  18.897  16.611   6.453
 9275POPC   C2B54788  18.903  16.580   6.753
 9275POPC   C3B54789  18.883  16.539   7.053
 9275POPC   C4B54790  18.827  16.596   7.353
 9276POPC   NC354791   8.167  40.023   5.553
 9276POPC   PO454792   8.203  39.982   5.853
 9276POPC   GL154793   8.197  40.011   6.153
 9276POPC   GL254794   8.213  39.860   6.153
 9276POPC   C1A54795   8.204  40.003   6.453
 9276POPC   D2A54796   8.196  40.047   6.753
 9276POPC   C3A54797   8.162  40.011   7.053
 9276POPC   C4A54798   8.150  40.016   7.353
 9276POPC   C1B54799   8.204  39.721   6.453
 9276POPC   C2B54800   8.228  39.711   6.753
 9276POPC   C3B54801   8.177  39.736   7.053
 9276POPC   C4B54802   8.220  39.711   7.353
 9277POPC   NC354803  24.483   0.432   5.553
 9277POPC   PO454804  24.450   0.454   5.853
 9277POPC   GL154805  24.511   0.415   6.153
 9277POPC   GL254806  24.335   0.478   6.153
 9277POPC   C1A54807  24.507   0.466   6.453
 9277POPC   D2A54808  24.444   0.433   6.753
 9277POPC   C3A54809  24.520   0.423   7.053
 9277POPC   C4A54810  24.465   0.418   7.353
 9277POPC   C1B54811  24.263   0.489   6.453
 9277POPC   C2B54812  24.235   0.473   6.753
 9277POPC   C3B54813  24.234   0.529   7.053
 9277POPC   C4B54814  24.225   0.505   7.353
 9278POPC   NC354815  15.915  44.655   5.553
 9278POPC   PO454816  15.964  44.679   5.853
 9278POPC   GL154817  15.998  44.625   6.153
 9278POPC   GL254818  15.956  44.515   6.153
 9278POPC   C1A54819  15.966  44.692   6.453
 9278POPC   D2A54820  15.917  44.643   6.753
 9278POPC   C3A54821  15.924  44.637   7.053
 9278POPC   C4A54822  15.998  44.708   7.353
 9278POPC   C1B54823  15.862  44.427   6.453
 9278POPC   C2B54824  15.873  44.398   6.753
 9278POPC   C3B54825  15.869  44.432   7.053
 9278POPC   C4B54826  15.885  44.397   7.353
 9279POPC   NC354827  17.551  21.356   5.553
 9279POPC   PO454828  17.497  21.396   5.853
 9279POPC   GL154829  17.512  21.388   6.153
 9279POPC   GL254830  17.532  21.246   6.153
 9279POPC   C1A54831  17.502  21.418   6.453
 9279POPC   D2A54832  17.461  21.430   6.753
 9279POPC   C3A54833  17.463  21.393   7.053
 9279POPC   C4A54834  17.540  21.348   7.353
 9279POPC   C1B54835  17.658  21.193   6.453
 9279POPC   C2B54836  17.576  21.176   6.753
 9279POPC   C3B54837  17.647  21.194   7.053
 9279POPC   C4B54838  17.613  21.147   7.353
 9280POPC   NC354839  43.905  20.629   5.553
 9280POPC   PO454840  43.889  20.646   5.853
 9280POPC   GL154841  43.882  20.585   6.153
 9280POPC   GL254842  43.861  20.730   6.153
 9280POPC   C1A54843  43.930  20.602   6.453
 9280POPC   D2A54844  43.932  20.653   6.753
 9280POPC   C3A54845  43.841  20.569   7.053
 9280POPC   C4A54846  43.878  20.588   7.353
 9280POPC   C1B54847  43.727  20.866   6.453
 9280POPC   C2B54848  43.758  20.826   6.753
 9280POPC   C3B54849  43.823  20.867   7.053
 9280POPC   C4B54850  43.774  20.825   7.353
 9281POPC   NC354851  36.120  16.682   5.553
 9281POPC   PO454852  36.162  16.709   5.853
 9281POPC   GL154853  36.134  16.685   6.153
 9281POPC   GL254854  35.984  16.658   6.153
 9281POPC   C1A54855  36.136  16.707   6.453
 9281POPC   D2A54856  36.118  16.780   6.753
 9281POPC   C3A54857  36.092  16.682   7.053
 9281POPC   C4A54858  36.097  16.683   7.353
 9281POPC   C1B54859  35.877  16.632   6.453
 9281POPC   C2B54860  35.854  16.616   6.753
 9281POPC   C3B54861  35.897  16.614   7.053
 9281POPC   C4B54862  35.922  16.695   7.353
 9282POPC   NC354863  39.985   8.960   5.553
 9282POPC   PO454864  39.998   8.949   5.853
 9282POPC   GL154865  40.020   9.018   6.153
 9282POPC   GL254866  39.884   9.075   6.153
 9282POPC   C1A54867  40.031   9.002   6.453
 9282POPC   D2A54868  40.005   8.986   6.753
 9282POPC   C3A54869  40.029   8.957   7.053
 9282POPC   C4A54870  39.983   9.010   7.353
 9282POPC   C1B54871  39.900   9.192   6.453
 9282POPC   C2B54872  39.855   9.145   6.753
 9282POPC   C3B54873  39.875   9.196   7.053
 9282POPC   C4B54874  39.870   9.143   7.353
 9283POPC   NC354875   8.150  26.056   5.553
 9283POPC   PO454876   8.224  26.055   5.853
 9283POPC   GL154877   8.154  26.004   6.153
 9283POPC   GL254878   8.300  26.009   6.153
 9283POPC   C1A54879   8.156  25.993   6.453
 9283POPC   D2A54880   8.233  26.041   6.753
 9283POPC   C3A54881   8.165  26.030   7.053
 9283POPC   C4A54882   8.150  26.032   7.353
 9283POPC   C1B54883   8.401  26.004   6.453
 9283POPC   C2B54884   8.410  25.983   6.753
 9283POPC   C3B54885   8.449  25.985   7.053
 9283POPC   C4B54886   8.455  25.987   7.353
 9284POPC   NC354887  15.922  20.660   5.553
 9284POPC   PO454888  15.989  20.630   5.853
 9284POPC   GL154889  15.967  20.615   6.153
 9284POPC   GL254890  15.869  20.559   6.153
 9284POPC   C1A54891  15.989  20.594   6.453
 9284POPC   D2A54892  15.919  20.587   6.753
 9284POPC   C3A54893  15.918  20.598   7.053
 9284POPC   C4A54894  15.954  20.657   7.353
 9284POPC   C1B54895  15.708  20.585   6.453
 9284POPC   C2B54896  15.704  20.562   6.753
 9284POPC   C3B54897  15.725  20.530   7.053
 9284POPC   C4B54898  15.684  20.559   7.353
 9285POPC   NC354899   1.218  10.545   5.553
 9285POPC   PO454900   1.167  10.549   5.853
 9285POPC   GL154901   1.243  10.556   6.153
 9285POPC   GL254902   1.165  10.354   6.153
 9285POPC   C1A54903   1.174  10.571   6.453
 9285POPC   D2A54904   1.240  10.566   6.753
 9285POPC   C3A54905   1.198  10.533   7.053
 9285POPC   C4A54906   1.210  10.518   7.353
 9285POPC   C1B54907   1.175  10.324   6.453
 9285POPC   C2B54908   1.159  10.282   6.753
 9285POPC   C3B54909   1.177  10.272   7.053
 9285POPC   C4B54910   1.221  10.255   7.353
 9286POPC   NC354911   3.591  37.672   5.553
 9286POPC   PO454912   3.577  37.648   5.853
 9286POPC   GL154913   3.535  37.692   6.153
 9286POPC   GL254914   3.436  37.767   6.153
 9286POPC   C1A54915   3.557  37.665   6.453
 9286POPC   D2A54916   3.496  37.654   6.753
 9286POPC   C3A54917   3.569  37.648   7.053
 9286POPC   C4A54918   3.498  37.676   7.353
 9286POPC   C1B54919   3.374  37.861   6.453
 9286POPC   C2B54920   3.370  37.783   6.753
 9286POPC   C3B54921   3.312  37.771   7.053
 9286POPC   C4B54922   3.309  37.823   7.353
 9287POPC   NC354923  21.354  39.220   5.553
 9287POPC   PO454924  21.391  39.193   5.853
 9287POPC   GL154925  21.361  39.182   6.153
 9287POPC   GL254926  21.273  39.154   6.153
 9287POPC   C1A54927  21.389  39.225   6.453
 9287POPC   D2A54928  21.341  39.213   6.753
 9287POPC   C3A54929  21.401  39.247   7.053
 9287POPC   C4A54930  21.395  39.249   7.353
 9287POPC   C1B54931  21.269  39.051   6.453
 9287POPC   C2B54932  21.241  39.047   6.753
 9287POPC   C3B54933  21.208  39.002   7.053
 9287POPC   C4B54934  21.224  39.019   7.353
 9288POPC   NC354935  17.529  20.632   5.553
 9288POPC   PO454936  17.543  20.619   5.853
 9288POPC   GL154937  17.472  20.620   6.153
 9288POPC   GL254938  17.418  20.766   6.153
 9288POPC   C1A54939  17.518  20.575   6.453
 9288POPC   D2A54940  17.484  20.586   6.753
 9288POPC   C3A54941  17.546  20.609   7.053
 9288POPC   C4A54942  17.498  20.609   7.353
 9288POPC   C1B54943  17.408  20.844   6.453
 9288POPC   C2B54944  17.357  20.849   6.753
 9288POPC   C3B54945  17.370  20.807   7.053
 9288POPC   C4B54946  17.373  20.815   7.353
 9289POPC   NC354947   7.393   3.557   5.553
 9289POPC   PO454948   7.408   3.558   5.853
 9289POPC   GL154949   7.428   3.557   6.153
 9289POPC   GL254950   7.573   3.628   6.153
 9289POPC   C1A54951   7.453   3.590   6.453
 9289POPC   D2A54952   7.393   3.572   6.753
 9289POPC   C3A54953   7.380   3.580   7.053
 9289POPC   C4A54954   7.393   3.520   7.353
 9289POPC   C1B54955   7.634   3.603   6.453
 9289POPC   C2B54956   7.650   3.625   6.753
 9289POPC   C3B54957   7.653   3.593   7.053
 9289POPC   C4B54958   7.663   3.659   7.353
 9290POPC   NC354959  42.349   1.216   5.553
 9290POPC   PO454960  42.352   1.177   5.853
 9290POPC   GL154961  42.372   1.239   6.153
 9290POPC   GL254962  42.318   1.127   6.153
 9290POPC   C1A54963  42.347   1.200   6.453
 9290POPC   D2A54964  42.305   1.185   6.753
 9290POPC   C3A54965  42.309   1.194   7.053
 9290POPC   C4A54966  42.356   1.183   7.353
 9290POPC   C1B54967  42.366   0.996   6.453
 9290POPC   C2B54968  42.340   0.965   6.753
 9290POPC   C3B54969  42.289   0.966   7.053
 9290POPC   C4B54970  42.340   0.940   7.353
 9291POPC   NC354971   3.533  36.122   5.553
 9291POPC   PO454972   3.552  36.150   5.853
 9291POPC   GL154973   3.564  36.165   6.153
 9291POPC   GL254974   3.639  36.057   6.153
 9291POPC   C1A54975   3.567  36.104   6.453
 9291POPC   D2A54976   3.510  36.101   6.753
 9291POPC   C3A54977   3.549  36.143   7.053
 9291POPC   C4A54978   3.517  36.125   7.353
 9291POPC   C1B54979   3.670  35.939   6.453
 9291POPC   C2B54980   3.683  35.907   6.753
 9291POPC   C3B54981   3.753  35.940   7.053
 9291POPC   C4B54982   3.710  35.920   7.353
 9292POPC   NC354983  29.156  36.081   5.553
 9292POPC   PO454984  29.185  36.137   5.853
 9292POPC   GL154985  29.106  36.127   6.153
 9292POPC   GL254986  29.012  36.105   6.153
 9292POPC   C1A54987  29.132  36.173   6.453
 9292POPC   D2A54988  29.148  36.116   6.753
 9292POPC   C3A54989  29.160  36.085   7.053
 9292POPC   C4A54990  29.100  36.149   7.353
 9292POPC   C1B54991  28.921  36.023   6.453
 9292POPC   C2B54992  28.900  35.992   6.753
 9292POPC   C3B54993  28.920  36.008   7.053
 9292POPC   C4B54994  28.881  36.000   7.353
 9293POPC   NC354995  19.807  42.317   5.553
 9293POPC   PO454996  19.808  42.369   5.853
 9293POPC   GL154997  19.792  42.320   6.153
 9293POPC   GL254998  19.931  42.219   6.153
 9293POPC   C1A54999  19.879  42.317   6.453
 9293POPC   D2A55000  19.817  42.330   6.753
 9293POPC   C3A55001  19.805  42.302   7.053
 9293POPC   C4A55002  19.839  42.286   7.353
 9293POPC   C1B55003  19.983  42.186   6.453
 9293POPC   C2B55004  19.966  42.141   6.753
 9293POPC   C3B55005  20.037  42.143   7.053
 9293POPC   C4B55006  19.974  42.158   7.353
 9294POPC   NC355007   5.847  42.323   5.553
 9294POPC   PO455008   5.860  42.332   5.853
 9294POPC   GL155009   5.865  42.306   6.153
 9294POPC   GL255010   5.927  42.246   6.153
 9294POPC   C1A55011   5.834  42.310   6.453
 9294POPC   D2A55012   5.846  42.301   6.753
 9294POPC   C3A55013   5.880  42.381   7.053
 9294POPC   C4A55014   5.821  42.340   7.353
 9294POPC   C1B55015   6.002  42.165   6.453
 9294POPC   C2B55016   6.031  42.084   6.753
 9294POPC   C3B55017   6.004  42.099   7.053
 9294POPC   C4B55018   6.008  42.151   7.353
 9295POPC   NC355019  44.647   7.387   5.553
 9295POPC   PO455020  44.619   7.399   5.853
 9295POPC   GL155021  44.678   7.377   6.153
 9295POPC   GL255022  44.558   7.551   6.153
 9295POPC   C1A55023  44.701   7.430   6.453
 9295POPC   D2A55024  44.707   7.459   6.753
 9295POPC   C3A55025  44.695   7.453   7.053
 9295POPC   C4A55026  44.689   7.381   7.353
 9295POPC   C1B55027  44.478   7.650   6.453
 9295POPC   C2B55028  44.534   7.615   6.753
 9295POPC   C3B55029  44.519   7.614   7.053
 9295POPC   C4B55030  44.509   7.590   7.353
 9296POPC   NC355031   6.674   9.738   5.553
 9296POPC   PO455032   6.671   9.720   5.853
 9296POPC   GL155033   6.656   9.758   6.153
 9296POPC   GL255034   6.564   9.737   6.153
 9296POPC   C1A55035   6.651   9.713   6.453
 9296POPC   D2A55036   6.674   9.783   6.753
 9296POPC   C3A55037   6.607   9.752   7.053
 9296POPC   C4A55038   6.600   9.701   7.353
 9296POPC   C1B55039   6.382   9.690   6.453
 9296POPC   C2B55040   6.375   9.672   6.753
 9296POPC   C3B55041   6.385   9.706   7.053
 9296POPC   C4B55042   6.381   9.676   7.353
 9297POPC   NC355043  13.587  23.679   5.553
 9297POPC   PO455044  13.637  23.724   5.853
 9297POPC   GL155045  13.656  23.727   6.153
 9297POPC   GL255046  13.579  23.604   6.153
 9297POPC   C1A55047  13.606  23.738   6.453
 9297POPC   D2A55048  13.655  23.666   6.753
 9297POPC   C3A55049  13.649  23.686   7.053
 9297POPC   C4A55050  13.640  23.738   7.353
 9297POPC   C1B55051  13.542  23.500   6.453
 9297POPC   C2B55052  13.569  23.481   6.753
 9297POPC   C3B55053  13.540  23.480   7.053
 9297POPC   C4B55054  13.499  23.446   7.353
 9298POPC   NC355055  33.046  29.958   5.553
 9298POPC   PO455056  33.055  29.946   5.853
 9298POPC   GL155057  32.984  29.940   6.153
 9298POPC   GL255058  32.981  29.856   6.153
 9298POPC   C1A55059  33.051  29.965   6.453
 9298POPC   D2A55060  33.030  29.889   6.753
 9298POPC   C3A55061  33.065  29.900   7.053
 9298POPC   C4A55062  33.020  29.945   7.353
 9298POPC   C1B55063  32.920  29.728   6.453
 9298POPC   C2B55064  32.966  29.679   6.753
 9298POPC   C3B55065  32.929  29.713   7.053
 9298POPC   C4B55066  32.931  29.674   7.353
 9299POPC   NC355067  21.411  21.435   5.553
 9299POPC   PO455068  21.363  21.425   5.853
 9299POPC   GL155069  21.419  21.358   6.153
 9299POPC   GL255070  21.338  21.495   6.153
 9299POPC   C1A55071  21.419  21.374   6.453
 9299POPC   D2A55072  21.423  21.357   6.753
 9299POPC   C3A55073  21.406  21.398   7.053
 9299POPC   C4A55074  21.363  21.415   7.353
 9299POPC   C1B55075  21.268  21.542   6.453
 9299POPC   C2B55076  21.204  21.596   6.753
 9299POPC   C3B55077  21.230  21.624   7.053
 9299POPC   C4B55078  21.271  21.619   7.353
 9300POPC   NC355079  43.067   5.836   5.553
 9300POPC   PO455080  43.117   5.846   5.853
 9300POPC   GL155081  43.142   5.871   6.153
 9300POPC   GL255082  43.096   5.758   6.153
 9300POPC   C1A55083  43.155   5.905   6.453
 9300POPC   D2A55084  43.110   5.871   6.753
 9300POPC   C3A55085  43.117   5.899   7.053
 9300POPC   C4A55086  43.091   5.859   7.353
 9300POPC   C1B55087  43.156   5.663   6.453
 9300POPC   C2B55088  43.201   5.603   6.753
 9300POPC   C3B55089  43.174   5.665   7.053
 9300POPC   C4B55090  43.152   5.601   7.353
 9301POPC   NC355091  20.561  41.560   5.553
 9301POPC   PO455092  20.651  41.585   5.853
 9301POPC   GL155093  20.617  41.576   6.153
 9301POPC   GL255094  20.746  41.482   6.153
 9301POPC   C1A55095  20.650  41.597   6.453
 9301POPC   D2A55096  20.627  41.564   6.753
 9301POPC   C3A55097  20.573  41.528   7.053
 9301POPC   C4A55098  20.568  41.534   7.353
 9301POPC   C1B55099  20.830  41.425   6.453
 9301POPC   C2B55100  20.792  41.460   6.753
 9301POPC   C3B55101  20.837  41.478   7.053
 9301POPC   C4B55102  20.793  41.472   7.353
 9302POPC   NC355103  28.401  42.373   5.553
 9302POPC   PO455104  28.391  42.364   5.853
 9302POPC   GL155105  28.350  42.302   6.153
 9302POPC   GL255106  28.414  42.168   6.153
 9302POPC   C1A55107  28.409  42.368   6.453
 9302POPC   D2A55108  28.401  42.331   6.753
 9302POPC   C3A55109  28.378  42.326   7.053
 9302POPC   C4A55110  28.363  42.340   7.353
 9302POPC   C1B55111  28.397  42.064   6.453
 9302POPC   C2B55112  28.371  42.058   6.753
 9302POPC   C3B55113  28.450  42.059   7.053
 9302POPC   C4B55114  28.406  42.060   7.353
 9303POPC   NC355115   3.551  14.397   5.553
 9303POPC   PO455116   3.508  14.446   5.853
 9303POPC   GL155117   3.497  14.449   6.153
 9303POPC   GL255118   3.590  14.573   6.153
 9303POPC   C1A55119   3.539  14.384   6.453
 9303POPC   D2A55120   3.558  14.434   6.753
 9303POPC   C3A55121   3.574  14.432   7.053
 9303POPC   C4A55122   3.583  14.392   7.353
 9303POPC   C1B55123   3.566  14.677   6.453
 9303POPC   C2B55124   3.647  14.696   6.753
 9303POPC   C3B55125   3.600  14.607   7.053
 9303POPC   C4B55126   3.651  14.639   7.353
 9304POPC   NC355127  35.365  36.154   5.553
 9304POPC   PO455128  35.363  36.161   5.853
 9304POPC   GL155129  35.339  36.117   6.153
 9304POPC   GL255130  35.490  36.218   6.153
 9304POPC   C1A55131  35.362  36.083   6.453
 9304POPC   D2A55132  35.306  36.087   6.753
 9304POPC   C3A55133  35.322  36.128   7.053
 9304POPC   C4A55134  35.380  36.112   7.353
 9304POPC   C1B55135  35.514  36.226   6.453
 9304POPC   C2B55136  35.563  36.265   6.753
 9304POPC   C3B55137  35.544  36.291   7.053
 9304POPC   C4B55138  35.544  36.260   7.353
 9305POPC   NC355139  17.514   2.749   5.553
 9305POPC   PO455140  17.476   2.728   5.853
 9305POPC   GL155141  17.516   2.752   6.153
 9305POPC   GL255142  17.627   2.765   6.153
 9305POPC   C1A55143  17.526   2.739   6.453
 9305POPC   D2A55144  17.468   2.757   6.753
 9305POPC   C3A55145  17.538   2.787   7.053
 9305POPC   C4A55146  17.470   2.793   7.353
 9305POPC   C1B55147  17.774   2.707   6.453
 9305POPC   C2B55148  17.746   2.732   6.753
 9305POPC   C3B55149  17.783   2.710   7.053
 9305POPC   C4B55150  17.746   2.667   7.353
 9306POPC   NC355151  24.526  29.883   5.553
 9306POPC   PO455152  24.471  29.944   5.853
 9306POPC   GL155153  24.510  29.946   6.153
 9306POPC   GL255154  24.368  29.879   6.153
 9306POPC   C1A55155  24.455  29.943   6.453
 9306POPC   D2A55156  24.445  29.948   6.753
 9306POPC   C3A55157  24.529  29.960   7.053
 9306POPC   C4A55158  24.454  29.924   7.353
 9306POPC   C1B55159  24.322  29.758   6.453
 9306POPC   C2B55160  24.295  29.721   6.753
 9306POPC   C3B55161  24.260  29.752   7.053
 9306POPC   C4B55162  24.265  29.782   7.353
 9307POPC   NC355163  19.879  17.514   5.553
 9307POPC   PO455164  19.879  17.554   5.853
 9307POPC   GL155165  19.862  17.500   6.153
 9307POPC   GL255166  19.897  17.655   6.153
 9307POPC   C1A55167  19.866  17.545   6.453
 9307POPC   D2A55168  19.827  17.543   6.753
 9307POPC   C3A55169  19.881  17.475   7.053
 9307POPC   C4A55170  19.787  17.530   7.353
 9307POPC   C1B55171  19.923  17.747   6.453
 9307POPC   C2B55172  20.000  17.723   6.753
 9307POPC   C3B55173  19.945  17.761   7.053
 9307POPC   C4B55174  19.938  17.717   7.353
 9308POPC   NC355175  17.496  17.514   5.553
 9308POPC   PO455176  17.466  17.478   5.853
 9308POPC   GL155177  17.514  17.488   6.153
 9308POPC   GL255178  17.608  17.456   6.153
 9308POPC   C1A55179  17.475  17.546   6.453
 9308POPC   D2A55180  17.521  17.514   6.753
 9308POPC   C3A55181  17.490  17.540   7.053
 9308POPC   C4A55182  17.525  17.536   7.353
 9308POPC   C1B55183  17.785  17.410   6.453
 9308POPC   C2B55184  17.724  17.457   6.753
 9308POPC   C3B55185  17.691  17.371   7.053
 9308POPC   C4B55186  17.705  17.393   7.353
 9309POPC   NC355187  22.955  19.847   5.553
 9309POPC   PO455188  22.923  19.802   5.853
 9309POPC   GL155189  22.926  19.802   6.153
 9309POPC   GL255190  23.082  19.935   6.153
 9309POPC   C1A55191  22.909  19.866   6.453
 9309POPC   D2A55192  22.925  19.815   6.753
 9309POPC   C3A55193  22.979  19.877   7.053
 9309POPC   C4A55194  22.929  19.857   7.353
 9309POPC   C1B55195  23.120  19.978   6.453
 9309POPC   C2B55196  23.177  19.908   6.753
 9309POPC   C3B55197  23.206  19.967   7.053
 9309POPC   C4B55198  23.119  19.908   7.353
 9310POPC   NC355199  16.001  16.763   5.553
 9310POPC   PO455200  15.976  16.697   5.853
 9310POPC   GL155201  16.003  16.741   6.153
 9310POPC   GL255202  16.028  16.835   6.153
 9310POPC   C1A55203  15.909  16.733   6.453
 9310POPC   D2A55204  15.973  16.689   6.753
 9310POPC   C3A55205  15.962  16.700   7.053
 9310POPC   C4A55206  15.996  16.752   7.353
 9310POPC   C1B55207  16.133  16.880   6.453
 9310POPC   C2B55208  16.197  16.869   6.753
 9310POPC   C3B55209  16.162  16.895   7.053
 9310POPC   C4B55210  16.177  16.894   7.353
 9311POPC   NC355211  15.143  28.360   5.553
 9311POPC   PO455212  15.184  28.383   5.853
 9311POPC   GL155213  15.170  28.384   6.153
 9311POPC   GL255214  15.273  28.217   6.153
 9311POPC   C1A55215  15.164  28.329   6.453
 9311POPC   D2A55216  15.143  28.340   6.753
 9311POPC   C3A55217  15.138  28.347   7.053
 9311POPC   C4A55218  15.141  28.333   7.353
 9311POPC   C1B55219  15.294  28.191   6.453
 9311POPC   C2B55220  15.318  28.186   6.753
 9311POPC   C3B55221  15.245  28.174   7.053
 9311POPC   C4B55222  15.318  28.103   7.353
 9312POPC   NC355223   8.947  10.540   5.553
 9312POPC   PO455224   8.985  10.506   5.853
 9312POPC   GL155225   9.009  10.511   6.153
 9312POPC   GL255226   9.064  10.435   6.153
 9312POPC   C1A55227   8.947  10.544   6.453
 9312POPC   D2A55228   9.003  10.520   6.753
 9312POPC   C3A55229   8.963  10.486   7.053
 9312POPC   C4A55230   8.938  10.561   7.353
 9312POPC   C1B55231   9.138  10.418   6.453
 9312POPC   C2B55232   9.170  10.343   6.753
 9312POPC   C3B55233   9.159  10.355   7.053
 9312POPC   C4B55234   9.220  10.352   7.353
 9313POPC   NC355235  20.659  19.804   5.553
 9313POPC   PO455236  20.587  19.811   5.853
 9313POPC   GL155237  20.594  19.789   6.153
 9313POPC   GL255238  20.610  19.947   6.153
 9313POPC   C1A55239  20.581  19.824   6.453
 9313POPC   D2A55240  20.615  19.856   6.753
 9313POPC   C3A55241  20.602  19.835   7.053
 9313POPC   C4A55242  20.652  19.821   7.353
 9313POPC   C1B55243  20.556  20.069   6.453
 9313POPC   C2B55244  20.579  20.040   6.753
 9313POPC   C3B55245  20.592  20.132   7.053
 9313POPC   C4B55246  20.546  20.075   7.353
 9314POPC   NC355247  13.613  27.615   5.553
 9314POPC   PO455248  13.617  27.580   5.853
 9314POPC   GL155249  13.650  27.638   6.153
 9314POPC   GL255250  13.693  27.571   6.153
 9314POPC   C1A55251  13.663  27.636   6.453
 9314POPC   D2A55252  13.673  27.612   6.753
 9314POPC   C3A55253  13.670  27.634   7.053
 9314POPC   C4A55254  13.666  27.609   7.353
 9314POPC   C1B55255  13.869  27.496   6.453
 9314POPC   C2B55256  13.869  27.417   6.753
 9314POPC   C3B55257  13.815  27.451   7.053
 9314POPC   C4B55258  13.835  27.488   7.353
 9315POPC   NC355259  36.891  22.942   5.553
 9315POPC   PO455260  36.952  22.950   5.853
 9315POPC   GL155261  36.880  22.910   6.153
 9315POPC   GL255262  37.008  22.899   6.153
 9315POPC   C1A55263  36.912  22.893   6.453
 9315POPC   D2A55264  36.912  22.935   6.753
 9315POPC   C3A55265  36.929  22.930   7.053
 9315POPC   C4A55266  36.874  22.956   7.353
 9315POPC   C1B55267  37.165  22.903   6.453
 9315POPC   C2B55268  37.157  22.932   6.753
 9315POPC   C3B55269  37.184  22.849   7.053
 9315POPC   C4B55270  37.156  22.930   7.353
 9316POPC   NC355271  29.188  12.121   5.553
 9316POPC   PO455272  29.163  12.121   5.853
 9316POPC   GL155273  29.102  12.072   6.153
 9316POPC   GL255274  29.129  11.965   6.153
 9316POPC   C1A55275  29.175  12.067   6.453
 9316POPC   D2A55276  29.153  12.076   6.753
 9316POPC   C3A55277  29.178  12.072   7.053
 9316POPC   C4A55278  29.135  12.096   7.353
 9316POPC   C1B55279  29.184  11.867   6.453
 9316POPC   C2B55280  29.181  11.800   6.753
 9316POPC   C3B55281  29.146  11.794   7.053
 9316POPC   C4B55282  29.148  11.787   7.353
 9317POPC   NC355283   3.513   5.904   5.553
 9317POPC   PO455284   3.584   5.900   5.853
 9317POPC   GL155285   3.493   5.847   6.153
 9317POPC   GL255286   3.575   5.980   6.153
 9317POPC   C1A55287   3.555   5.899   6.453
 9317POPC   D2A55288   3.543   5.864   6.753
 9317POPC   C3A55289   3.558   5.879   7.053
 9317POPC   C4A55290   3.565   5.827   7.353
 9317POPC   C1B55291   3.560   6.081   6.453
 9317POPC   C2B55292   3.546   6.111   6.753
 9317POPC   C3B55293   3.540   6.131   7.053
 9317POPC   C4B55294   3.613   6.081   7.353
 9318POPC   NC355295  26.017   7.402   5.553
 9318POPC   PO455296  26.027   7.374   5.853
 9318POPC   GL155297  26.008   7.436   6.153
 9318POPC   GL255298  26.095   7.337   6.153
 9318POPC   C1A55299  26.056   7.389   6.453
 9318POPC   D2A55300  26.027   7.404   6.753
 9318POPC   C3A55301  26.088   7.454   7.053
 9318POPC   C4A55302  26.076   7.457   7.353
 9318POPC   C1B55303  26.192   7.188   6.453
 9318POPC   C2B55304  26.248   7.233   6.753
 9318POPC   C3B55305  26.247   7.264   7.053
 9318POPC   C4B55306  26.179   7.223   7.353
 9319POPC   NC355307   1.993  37.634   5.553
 9319POPC   PO455308   2.014  37.688   5.853
 9319POPC   GL155309   2.019  37.680   6.153
 9319POPC   GL255310   2.131  37.683   6.153
 9319POPC   C1A55311   2.005  37.715   6.453
 9319POPC   D2A55312   2.026  37.636   6.753
 9319POPC   C3A55313   1.956  37.702   7.053
 9319POPC   C4A55314   2.021  37.669   7.353
 9319POPC   C1B55315   2.239  37.675   6.453
 9319POPC   C2B55316   2.278  37.639   6.753
 9319POPC   C3B55317   2.240  37.668   7.053
 9319POPC   C4B55318   2.200  37.671   7.353
 9320POPC   NC355319   8.979  27.633   5.553
 9320POPC   PO455320   9.014  27.643   5.853
 9320POPC   GL155321   8.952  27.550   6.153
 9320POPC   GL255322   8.948  27.739   6.153
 9320POPC   C1A55323   8.947  27.643   6.453
 9320POPC   D2A55324   8.992  27.631   6.753
 9320POPC   C3A55325   8.954  27.637   7.053
 9320POPC   C4A55326   9.014  27.564   7.353
 9320POPC   C1B55327   8.948  27.817   6.453
 9320POPC   C2B55328   8.974  27.794   6.753
 9320POPC   C3B55329   8.956  27.882   7.053
 9320POPC   C4B55330   8.986  27.834   7.353
 9321POPC   NC355331  12.846   1.240   5.553
 9321POPC   PO455332  12.831   1.236   5.853
 9321POPC   GL155333  12.853   1.263   6.153
 9321POPC   GL255334  12.782   1.306   6.153
 9321POPC   C1A55335  12.886   1.168   6.453
 9321POPC   D2A55336  12.836   1.176   6.753
 9321POPC   C3A55337  12.881   1.191   7.053
 9321POPC   C4A55338  12.881   1.251   7.353
 9321POPC   C1B55339  12.650   1.333   6.453
 9321POPC   C2B55340  12.636   1.356   6.753
 9321POPC   C3B55341  12.629   1.335   7.053
 9321POPC   C4B55342  12.716   1.417   7.353
 9322POPC   NC355343  13.673  34.581   5.553
 9322POPC   PO455344  13.592  34.550   5.853
 9322POPC   GL155345  13.593  34.551   6.153
 9322POPC   GL255346  13.677  34.513   6.153
 9322POPC   C1A55347  13.657  34.607   6.453
 9322POPC   D2A55348  13.673  34.529   6.753
 9322POPC   C3A55349  13.670  34.539   7.053
 9322POPC   C4A55350  13.664  34.549   7.353
 9322POPC   C1B55351  13.775  34.328   6.453
 9322POPC   C2B55352  13.746  34.364   6.753
 9322POPC   C3B55353  13.743  34.375   7.053
 9322POPC   C4B55354  13.751  34.325   7.353
 9323POPC   NC355355  12.889  26.832   5.553
 9323POPC   PO455356  12.846  26.814   5.853
 9323POPC   GL155357  12.820  26.787   6.153
 9323POPC   GL255358  12.970  26.866   6.153
 9323POPC   C1A55359  12.826  26.801   6.453
 9323POPC   D2A55360  12.839  26.790   6.753
 9323POPC   C3A55361  12.826  26.866   7.053
 9323POPC   C4A55362  12.813  26.820   7.353
 9323POPC   C1B55363  13.067  26.901   6.453
 9323POPC   C2B55364  13.111  26.918   6.753
 9323POPC   C3B55365  13.073  26.938   7.053
 9323POPC   C4B55366  13.116  26.898   7.353
 9324POPC   NC355367  42.309   6.693   5.553
 9324POPC   PO455368  42.378   6.641   5.853
 9324POPC   GL155369  42.305   6.645   6.153
 9324POPC   GL255370  42.228   6.755   6.153
 9324POPC   C1A55371  42.362   6.632   6.453
 9324POPC   D2A55372  42.308   6.639   6.753
 9324POPC   C3A55373  42.337   6.615   7.053
 9324POPC   C4A55374  42.303   6.686   7.353
 9324POPC   C1B55375  42.160   6.834   6.453
 9324POPC   C2B55376  42.155   6.815   6.753
 9324POPC   C3B55377  42.213   6.827   7.053
 9324POPC   C4B55378  42.158   6.831   7.353
 9325POPC   NC355379   1.222  13.675   5.553
 9325POPC   PO455380   1.206  13.652   5.853
 9325POPC   GL155381   1.259  13.655   6.153
 9325POPC   GL255382   1.249  13.730   6.153
 9325POPC   C1A55383   1.229  13.631   6.453
 9325POPC   D2A55384   1.235  13.642   6.753
 9325POPC   C3A55385   1.195  13.656   7.053
 9325POPC   C4A55386   1.238  13.647   7.353
 9325POPC   C1B55387   1.287  13.899   6.453
 9325POPC   C2B55388   1.268  13.827   6.753
 9325POPC   C3B55389   1.338  13.857   7.053
 9325POPC   C4B55390   1.304  13.904   7.353
 9326POPC   NC355391  22.164  37.649   5.553
 9326POPC   PO455392  22.151  37.710   5.853
 9326POPC   GL155393  22.181  37.641   6.153
 9326POPC   GL255394  22.276  37.744   6.153
 9326POPC   C1A55395  22.156  37.657   6.453
 9326POPC   D2A55396  22.183  37.672   6.753
 9326POPC   C3A55397  22.197  37.661   7.053
 9326POPC   C4A55398  22.148  37.678   7.353
 9326POPC   C1B55399  22.414  37.865   6.453
 9326POPC   C2B55400  22.376  37.810   6.753
 9326POPC   C3B55401  22.358  37.856   7.053
 9326POPC   C4B55402  22.396  37.800   7.353
 9327POPC   NC355403  12.083  15.171   5.553
 9327POPC   PO455404  12.060  15.209   5.853
 9327POPC   GL155405  12.096  15.194   6.153
 9327POPC   GL255406  11.980  15.162   6.153
 9327POPC   C1A55407  12.117  15.208   6.453
 9327POPC   D2A55408  12.075  15.211   6.753
 9327POPC   C3A55409  12.088  15.216   7.053
 9327POPC   C4A55410  12.074  15.166   7.353
 9327POPC   C1B55411  11.872  15.198   6.453
 9327POPC   C2B55412  11.853  15.188   6.753
 9327POPC   C3B55413  11.786  15.151   7.053
 9327POPC   C4B55414  11.862  15.197   7.353
 9328POPC   NC355415  44.685  32.217   5.553
 9328POPC   PO455416  44.629  32.211   5.853
 9328POPC   GL155417  44.650  32.201   6.153
 9328POPC   GL255418  44.586  32.227   6.153
 9328POPC   C1A55419  44.674  32.210   6.453
 9328POPC   D2A55420  44.695  32.253   6.753
 9328POPC   C3A55421  44.640  32.284   7.053
 9328POPC   C4A55422  44.659  32.251   7.353
 9328POPC   C1B55423  44.382  32.241   6.453
 9328POPC   C2B55424  44.451  32.210   6.753
 9328POPC   C3B55425  44.437  32.270   7.053
 9328POPC   C4B55426  44.443  32.208   7.353
 9329POPC   NC355427  40.761  12.079   5.553
 9329POPC   PO455428  40.734  12.088   5.853
 9329POPC   GL155429  40.766  12.090   6.153
 9329POPC   GL255430  40.784  11.981   6.153
 9329POPC   C1A55431  40.749  12.110   6.453
 9329POPC   D2A55432  40.767  12.124   6.753
 9329POPC   C3A55433  40.752  12.094   7.053
 9329POPC   C4A55434  40.820  12.112   7.353
 9329POPC   C1B55435  40.778  11.866   6.453
 9329POPC   C2B55436  40.724  11.878   6.753
 9329POPC   C3B55437  40.725  11.805   7.053
 9329POPC   C4B55438  40.772  11.835   7.353
 9330POPC   NC355439   5.918  14.374   5.553
 9330POPC   PO455440   5.842  14.386   5.853
 9330POPC   GL155441   5.859  14.401   6.153
 9330POPC   GL255442   5.854  14.555   6.153
 9330POPC   C1A55443   5.840  14.372   6.453
 9330POPC   D2A55444   5.823  14.406   6.753
 9330POPC   C3A55445   5.889  14.412   7.053
 9330POPC   C4A55446   5.899  14.444   7.353
 9330POPC   C1B55447   5.805  14.615   6.453
 9330POPC   C2B55448   5.774  14.675   6.753
 9330POPC   C3B55449   5.821  14.659   7.053
 9330POPC   C4B55450   5.771  14.681   7.353
 9331POPC   NC355451   5.826  29.100   5.553
 9331POPC   PO455452   5.882  29.143   5.853
 9331POPC   GL155453   5.870  29.169   6.153
 9331POPC   GL255454   5.732  29.131   6.153
 9331POPC   C1A55455   5.820  29.104   6.453
 9331POPC   D2A55456   5.843  29.163   6.753
 9331POPC   C3A55457   5.870  29.152   7.053
 9331POPC   C4A55458   5.882  29.167   7.353
 9331POPC   C1B55459   5.610  29.186   6.453
 9331POPC   C2B55460   5.644  29.185   6.753
 9331POPC   C3B55461   5.650  29.195   7.053
 9331POPC   C4B55462   5.606  29.155   7.353
 9332POPC   NC355463   9.701  23.721   5.553
 9332POPC   PO455464   9.774  23.734   5.853
 9332POPC   GL155465   9.762  23.734   6.153
 9332POPC   GL255466   9.808  23.556   6.153
 9332POPC   C1A55467   9.736  23.762   6.453
 9332POPC   D2A55468   9.787  23.742   6.753
 9332POPC   C3A55469   9.724  23.698   7.053
 9332POPC   C4A55470   9.776  23.748   7.353
 9332POPC   C1B55471   9.730  23.436   6.453
 9332POPC   C2B55472   9.739  23.489   6.753
 9332POPC   C3B55473   9.822  23.477   7.053
 9332POPC   C4B55474   9.795  23.421   7.353
 9333POPC   NC355475  18.293  36.867   5.553
 9333POPC   PO455476  18.278  36.923   5.853
 9333POPC   GL155477  18.259  36.951   6.153
 9333POPC   GL255478  18.334  36.953   6.153
 9333POPC   C1A55479  18.267  36.943   6.453
 9333POPC   D2A55480  18.257  36.891   6.753
 9333POPC   C3A55481  18.262  36.908   7.053
 9333POPC   C4A55482  18.322  36.881   7.353
 9333POPC   C1B55483  18.431  37.088   6.453
 9333POPC   C2B55484  18.467  37.033   6.753
 9333POPC   C3B55485  18.478  37.060   7.053
 9333POPC   C4B55486  18.449  37.078   7.353
 9334POPC   NC355487  20.582  23.722   5.553
 9334POPC   PO455488  20.614  23.733   5.853
 9334POPC   GL155489  20.632  23.703   6.153
 9334POPC   GL255490  20.528  23.776   6.153
 9334POPC   C1A55491  20.642  23.719   6.453
 9334POPC   D2A55492  20.654  23.739   6.753
 9334POPC   C3A55493  20.653  23.675   7.053
 9334POPC   C4A55494  20.615  23.730   7.353
 9334POPC   C1B55495  20.351  23.809   6.453
 9334POPC   C2B55496  20.363  23.854   6.753
 9334POPC   C3B55497  20.338  23.824   7.053
 9334POPC   C4B55498  20.390  23.786   7.353
 9335POPC   NC355499  31.439  21.366   5.553
 9335POPC   PO455500  31.486  21.422   5.853
 9335POPC   GL155501  31.459  21.356   6.153
 9335POPC   GL255502  31.620  21.323   6.153
 9335POPC   C1A55503  31.445  21.410   6.453
 9335POPC   D2A55504  31.449  21.362   6.753
 9335POPC   C3A55505  31.500  21.347   7.053
 9335POPC   C4A55506  31.457  21.389   7.353
 9335POPC   C1B55507  31.631  21.283   6.453
 9335POPC   C2B55508  31.715  21.275   6.753
 9335POPC   C3B55509  31.664  21.217   7.053
 9335POPC   C4B55510  31.706  21.286   7.353
 9336POPC   NC355511   9.774  15.919   5.553
 9336POPC   PO455512   9.762  15.945   5.853
 9336POPC   GL155513   9.728  16.000   6.153
 9336POPC   GL255514   9.805  15.901   6.153
 9336POPC   C1A55515   9.791  15.998   6.453
 9336POPC   D2A55516   9.732  15.968   6.753
 9336POPC   C3A55517   9.778  15.940   7.053
 9336POPC   C4A55518   9.773  15.919   7.353
 9336POPC   C1B55519   9.981  15.761   6.453
 9336POPC   C2B55520   9.952  15.790   6.753
 9336POPC   C3B55521   9.922  15.764   7.053
 9336POPC   C4B55522   9.893  15.821   7.353
 9337POPC   NC355523  42.321  22.982   5.553
 9337POPC   PO455524  42.338  22.971   5.853
 9337POPC   GL155525  42.285  22.962   6.153
 9337POPC   GL255526  42.431  22.990   6.153
 9337POPC   C1A55527  42.313  22.913   6.453
 9337POPC   D2A55528  42.314  22.919   6.753
 9337POPC   C3A55529  42.362  22.962   7.053
 9337POPC   C4A55530  42.289  22.899   7.353
 9337POPC   C1B55531  42.442  23.155   6.453
 9337POPC   C2B55532  42.532  23.168   6.753
 9337POPC   C3B55533  42.501  23.111   7.053
 9337POPC   C4B55534  42.525  23.130   7.353
 9338POPC   NC355535  10.501  11.272   5.553
 9338POPC   PO455536  10.518  11.317   5.853
 9338POPC   GL155537  10.574  11.291   6.153
 9338POPC   GL255538  10.496  11.468   6.153
 9338POPC   C1A55539  10.498  11.270   6.453
 9338POPC   D2A55540  10.491  11.273   6.753
 9338POPC   C3A55541  10.514  11.259   7.053
 9338POPC   C4A55542  10.559  11.276   7.353
 9338POPC   C1B55543  10.431  11.514   6.453
 9338POPC   C2B55544  10.463  11.540   6.753
 9338POPC   C3B55545  10.433  11.501   7.053
 9338POPC   C4B55546  10.485  11.504   7.353
 9339POPC   NC355547  31.458   2.733   5.553
 9339POPC   PO455548  31.450   2.737   5.853
 9339POPC   GL155549  31.483   2.773   6.153
 9339POPC   GL255550  31.567   2.715   6.153
 9339POPC   C1A55551  31.513   2.750   6.453
 9339POPC   D2A55552  31.452   2.755   6.753
 9339POPC   C3A55553  31.432   2.804   7.053
 9339POPC   C4A55554  31.506   2.803   7.353
 9339POPC   C1B55555  31.726   2.604   6.453
 9339POPC   C2B55556  31.636   2.593   6.753
 9339POPC   C3B55557  31.656   2.598   7.053
 9339POPC   C4B55558  31.729   2.631   7.353
 9340POPC   NC355559  21.401  22.114   5.553
 9340POPC   PO455560  21.390  22.185   5.853
 9340POPC   GL155561  21.387  22.196   6.153
 9340POPC   GL255562  21.498  22.062   6.153
 9340POPC   C1A55563  21.371  22.203   6.453
 9340POPC   D2A55564  21.376  22.117   6.753
 9340POPC   C3A55565  21.423  22.142   7.053
 9340POPC   C4A55566  21.349  22.153   7.353
 9340POPC   C1B55567  21.588  21.966   6.453
 9340POPC   C2B55568  21.531  21.965   6.753
 9340POPC   C3B55569  21.591  22.040   7.053
 9340POPC   C4B55570  21.593  21.986   7.353
 9341POPC   NC355571  37.719   5.068   5.553
 9341POPC   PO455572  37.707   5.102   5.853
 9341POPC   GL155573  37.656   5.052   6.153
 9341POPC   GL255574  37.807   5.111   6.153
 9341POPC   C1A55575  37.669   5.053   6.453
 9341POPC   D2A55576  37.710   5.076   6.753
 9341POPC   C3A55577  37.716   5.050   7.053
 9341POPC   C4A55578  37.632   5.108   7.353
 9341POPC   C1B55579  37.888   5.035   6.453
 9341POPC   C2B55580  37.946   5.013   6.753
 9341POPC   C3B55581  37.961   5.021   7.053
 9341POPC   C4B55582  37.958   5.016   7.353
 9342POPC   NC355583  25.235  28.415   5.553
 9342POPC   PO455584  25.269  28.394   5.853
 9342POPC   GL155585  25.264  28.338   6.153
 9342POPC   GL255586  25.274  28.199   6.153
 9342POPC   C1A55587  25.253  28.326   6.453
 9342POPC   D2A55588  25.238  28.344   6.753
 9342POPC   C3A55589  25.283  28.324   7.053
 9342POPC   C4A55590  25.312  28.397   7.353
 9342POPC   C1B55591  25.287  28.118   6.453
 9342POPC   C2B55592  25.194  28.163   6.753
 9342POPC   C3B55593  25.280  28.170   7.053
 9342POPC   C4B55594  25.201  28.114   7.353
 9343POPC   NC355595  42.379  25.273   5.553
 9343POPC   PO455596  42.373  25.236   5.853
 9343POPC   GL155597  42.363  25.249   6.153
 9343POPC   GL255598  42.424  25.158   6.153
 9343POPC   C1A55599  42.313  25.267   6.453
 9343POPC   D2A55600  42.295  25.270   6.753
 9343POPC   C3A55601  42.357  25.258   7.053
 9343POPC   C4A55602  42.310  25.270   7.353
 9343POPC   C1B55603  42.535  25.095   6.453
 9343POPC   C2B55604  42.522  25.118   6.753
 9343POPC   C3B55605  42.536  25.105   7.053
 9343POPC   C4B55606  42.520  25.060   7.353
 9344POPC   NC355607  35.380  43.098   5.553
 9344POPC   PO455608  35.374  43.137   5.853
 9344POPC   GL155609  35.303  43.085   6.153
 9344POPC   GL255610  35.445  43.180   6.153
 9344POPC   C1A55611  35.329  43.072   6.453
 9344POPC   D2A55612  35.328  43.066   6.753
 9344POPC   C3A55613  35.308  43.134   7.053
 9344POPC   C4A55614  35.372  43.070   7.353
 9344POPC   C1B55615  35.494  43.293   6.453
 9344POPC   C2B55616  35.482  43.301   6.753
 9344POPC   C3B55617  35.443  43.358   7.053
 9344POPC   C4B55618  35.523  43.357   7.353
 9345POPC   NC355619   6.630   5.903   5.553
 9345POPC   PO455620   6.660   5.892   5.853
 9345POPC   GL155621   6.626   5.902   6.153
 9345POPC   GL255622   6.489   5.848   6.153
 9345POPC   C1A55623   6.654   5.867   6.453
 9345POPC   D2A55624   6.660   5.873   6.753
 9345POPC   C3A55625   6.664   5.892   7.053
 9345POPC   C4A55626   6.692   5.873   7.353
 9345POPC   C1B55627   6.371   5.927   6.453
 9345POPC   C2B55628   6.388   5.907   6.753
 9345POPC   C3B55629   6.411   5.840   7.053
 9345POPC   C4B55630   6.397   5.854   7.353
 9346POPC   NC355631  25.244   8.196   5.553
 9346POPC   PO455632  25.274   8.180   5.853
 9346POPC   GL155633  25.261   8.171   6.153
 9346POPC   GL255634  25.135   8.285   6.153
 9346POPC   C1A55635  25.220   8.152   6.453
 9346POPC   D2A55636  25.263   8.244   6.753
 9346POPC   C3A55637  25.246   8.201   7.053
 9346POPC   C4A55638  25.257   8.151   7.353
 9346POPC   C1B55639  25.085   8.291   6.453
 9346POPC   C2B55640  25.015   8.323   6.753
 9346POPC   C3B55641  25.029   8.334   7.053
 9346POPC   C4B55642  25.091   8.296   7.353
 9347POPC   NC355643  36.094  20.597   5.553
 9347POPC   PO455644  36.088  20.570   5.853
 9347POPC   GL155645  36.168  20.572   6.153
 9347POPC   GL255646  35.985  20.583   6.153
 9347POPC   C1A55647  36.108  20.652   6.453
 9347POPC   D2A55648  36.177  20.585   6.753
 9347POPC   C3A55649  36.157  20.583   7.053
 9347POPC   C4A55650  36.113  20.577   7.353
 9347POPC   C1B55651  35.889  20.601   6.453
 9347POPC   C2B55652  35.853  20.614   6.753
 9347POPC   C3B55653  35.917  20.593   7.053
 9347POPC   C4B55654  35.871  20.589   7.353
 9348POPC   NC355655   5.103  21.410   5.553
 9348POPC   PO455656   5.134  21.381   5.853
 9348POPC   GL155657   5.098  21.352   6.153
 9348POPC   GL255658   4.989  21.332   6.153
 9348POPC   C1A55659   5.059  21.340   6.453
 9348POPC   D2A55660   5.086  21.376   6.753
 9348POPC   C3A55661   5.053  21.394   7.053
 9348POPC   C4A55662   5.137  21.364   7.353
 9348POPC   C1B55663   4.962  21.174   6.453
 9348POPC   C2B55664   4.970  21.157   6.753
 9348POPC   C3B55665   4.957  21.170   7.053
 9348POPC   C4B55666   4.925  21.233   7.353
 9349POPC   NC355667  19.870  22.165   5.553
 9349POPC   PO455668  19.875  22.143   5.853
 9349POPC   GL155669  19.788  22.194   6.153
 9349POPC   GL255670  19.898  22.270   6.153
 9349POPC   C1A55671  19.818  22.185   6.453
 9349POPC   D2A55672  19.861  22.178   6.753
 9349POPC   C3A55673  19.871  22.180   7.053
 9349POPC   C4A55674  19.803  22.115   7.353
 9349POPC   C1B55675  19.911  22.408   6.453
 9349POPC   C2B55676  19.873  22.391   6.753
 9349POPC   C3B55677  19.858  22.427   7.053
 9349POPC   C4B55678  19.868  22.383   7.353
 9350POPC   NC355679  26.030   9.764   5.553
 9350POPC   PO455680  26.073   9.797   5.853
 9350POPC   GL155681  26.027   9.750   6.153
 9350POPC   GL255682  25.965   9.878   6.153
 9350POPC   C1A55683  26.028   9.713   6.453
 9350POPC   D2A55684  26.061   9.735   6.753
 9350POPC   C3A55685  26.067   9.703   7.053
 9350POPC   C4A55686  26.073   9.743   7.353
 9350POPC   C1B55687  25.902   9.887   6.453
 9350POPC   C2B55688  25.871   9.903   6.753
 9350POPC   C3B55689  25.858   9.951   7.053
 9350POPC   C4B55690  25.814   9.908   7.353
 9351POPC   NC355691  15.177  17.538   5.553
 9351POPC   PO455692  15.228  17.466   5.853
 9351POPC   GL155693  15.192  17.472   6.153
 9351POPC   GL255694  15.038  17.453   6.153
 9351POPC   C1A55695  15.174  17.490   6.453
 9351POPC   D2A55696  15.131  17.554   6.753
 9351POPC   C3A55697  15.164  17.509   7.053
 9351POPC   C4A55698  15.211  17.519   7.353
 9351POPC   C1B55699  14.932  17.471   6.453
 9351POPC   C2B55700  14.964  17.433   6.753
 9351POPC   C3B55701  14.978  17.444   7.053
 9351POPC   C4B55702  14.917  17.398   7.353
 9352POPC   NC355703  40.056  36.900   5.553
 9352POPC   PO455704  39.986  36.854   5.853
 9352POPC   GL155705  40.041  36.867   6.153
 9352POPC   GL255706  40.081  36.994   6.153
 9352POPC   C1A55707  39.961  36.909   6.453
 9352POPC   D2A55708  40.000  36.867   6.753
 9352POPC   C3A55709  40.048  36.942   7.053
 9352POPC   C4A55710  39.971  36.854   7.353
 9352POPC   C1B55711  40.071  37.102   6.453
 9352POPC   C2B55712  40.027  37.145   6.753
 9352POPC   C3B55713  40.054  37.127   7.053
 9352POPC   C4B55714  40.026  37.154   7.353
 9353POPC   NC355715   9.748  38.494   5.553
 9353POPC   PO455716   9.787  38.495   5.853
 9353POPC   GL155717   9.764  38.419   6.153
 9353POPC   GL255718   9.643  38.343   6.153
 9353POPC   C1A55719   9.720  38.409   6.453
 9353POPC   D2A55720   9.746  38.458   6.753
 9353POPC   C3A55721   9.720  38.448   7.053
 9353POPC   C4A55722   9.747  38.464   7.353
 9353POPC   C1B55723   9.600  38.345   6.453
 9353POPC   C2B55724   9.541  38.299   6.753
 9353POPC   C3B55725   9.551  38.282   7.053
 9353POPC   C4B55726   9.570  38.253   7.353
 9354POPC   NC355727  38.409  28.340   5.553
 9354POPC   PO455728  38.429  28.380   5.853
 9354POPC   GL155729  38.461  28.397   6.153
 9354POPC   GL255730  38.582  28.377   6.153
 9354POPC   C1A55731  38.475  28.338   6.453
 9354POPC   D2A55732  38.416  28.373   6.753
 9354POPC   C3A55733  38.443  28.342   7.053
 9354POPC   C4A55734  38.461  28.412   7.353
 9354POPC   C1B55735  38.725  28.366   6.453
 9354POPC   C2B55736  38.696  28.322   6.753
 9354POPC   C3B55737  38.671  28.400   7.053
 9354POPC   C4B55738  38.683  28.329   7.353
 9355POPC   NC355739  18.292  19.020   5.553
 9355POPC   PO455740  18.306  19.067   5.853
 9355POPC   GL155741  18.233  19.027   6.153
 9355POPC   GL255742  18.260  19.124   6.153
 9355POPC   C1A55743  18.319  19.039   6.453
 9355POPC   D2A55744  18.235  19.053   6.753
 9355POPC   C3A55745  18.323  19.083   7.053
 9355POPC   C4A55746  18.299  19.084   7.353
 9355POPC   C1B55747  18.106  19.286   6.453
 9355POPC   C2B55748  18.118  19.226   6.753
 9355POPC   C3B55749  18.116  19.292   7.053
 9355POPC   C4B55750  18.193  19.268   7.353
 9356POPC   NC355751  33.822   7.429   5.553
 9356POPC   PO455752  33.827   7.371   5.853
 9356POPC   GL155753  33.812   7.437   6.153
 9356POPC   GL255754  33.751   7.528   6.153
 9356POPC   C1A55755  33.836   7.451   6.453
 9356POPC   D2A55756  33.774   7.397   6.753
 9356POPC   C3A55757  33.815   7.422   7.053
 9356POPC   C4A55758  33.767   7.448   7.353
 9356POPC   C1B55759  33.734   7.679   6.453
 9356POPC   C2B55760  33.717   7.665   6.753
 9356POPC   C3B55761  33.734   7.687   7.053
 9356POPC   C4B55762  33.774   7.702   7.353
 9357POPC   NC355763  32.226  22.184   5.553
 9357POPC   PO455764  32.286  22.206   5.853
 9357POPC   GL155765  32.238  22.144   6.153
 9357POPC   GL255766  32.334  22.086   6.153
 9357POPC   C1A55767  32.279  22.189   6.453
 9357POPC   D2A55768  32.284  22.158   6.753
 9357POPC   C3A55769  32.238  22.164   7.053
 9357POPC   C4A55770  32.218  22.177   7.353
 9357POPC   C1B55771  32.313  21.960   6.453
 9357POPC   C2B55772  32.377  21.980   6.753
 9357POPC   C3B55773  32.404  21.892   7.053
 9357POPC   C4B55774  32.364  21.931   7.353
 9358POPC   NC355775  31.441  36.100   5.553
 9358POPC   PO455776  31.500  36.131   5.853
 9358POPC   GL155777  31.522  36.116   6.153
 9358POPC   GL255778  31.517  36.022   6.153
 9358POPC   C1A55779  31.509  36.165   6.453
 9358POPC   D2A55780  31.487  36.118   6.753
 9358POPC   C3A55781  31.440  36.131   7.053
 9358POPC   C4A55782  31.522  36.147   7.353
 9358POPC   C1B55783  31.596  35.899   6.453
 9358POPC   C2B55784  31.625  35.967   6.753
 9358POPC   C3B55785  31.652  35.899   7.053
 9358POPC   C4B55786  31.635  35.881   7.353
 9359POPC   NC355787  43.887  38.447   5.553
 9359POPC   PO455788  43.909  38.418   5.853
 9359POPC   GL155789  43.877  38.410   6.153
 9359POPC   GL255790  43.805  38.322   6.153
 9359POPC   C1A55791  43.893  38.470   6.453
 9359POPC   D2A55792  43.893  38.485   6.753
 9359POPC   C3A55793  43.875  38.416   7.053
 9359POPC   C4A55794  43.931  38.460   7.353
 9359POPC   C1B55795  43.728  38.280   6.453
 9359POPC   C2B55796  43.704  38.231   6.753
 9359POPC   C3B55797  43.758  38.231   7.053
 9359POPC   C4B55798  43.749  38.216   7.353
 9360POPC   NC355799   3.516  26.837   5.553
 9360POPC   PO455800   3.546  26.829   5.853
 9360POPC   GL155801   3.497  26.783   6.153
 9360POPC   GL255802   3.529  26.923   6.153
 9360POPC   C1A55803   3.538  26.803   6.453
 9360POPC   D2A55804   3.585  26.821   6.753
 9360POPC   C3A55805   3.516  26.848   7.053
 9360POPC   C4A55806   3.564  26.811   7.353
 9360POPC   C1B55807   3.596  27.044   6.453
 9360POPC   C2B55808   3.618  27.066   6.753
 9360POPC   C3B55809   3.592  27.096   7.053
 9360POPC   C4B55810   3.613  27.098   7.353
 9361POPC   NC355811  44.645   3.501   5.553
 9361POPC   PO455812  44.648   3.577   5.853
 9361POPC   GL155813  44.615   3.497   6.153
 9361POPC   GL255814  44.719   3.664   6.153
 9361POPC   C1A55815  44.699   3.536   6.453
 9361POPC   D2A55816  44.691   3.561   6.753
 9361POPC   C3A55817  44.636   3.574   7.053
 9361POPC   C4A55818  44.673   3.524   7.353
 9361POPC   C1B55819  44.821   3.748   6.453
 9361POPC   C2B55820  44.821   3.745   6.753
 9361POPC   C3B55821  44.761   3.720   7.053
 9361POPC   C4B55822  44.770   3.780   7.353
 9362POPC   NC355823   0.429   4.297   5.553
 9362POPC   PO455824   0.416   4.269   5.853
 9362POPC   GL155825   0.451   4.289   6.153
 9362POPC   GL255826   0.444   4.231   6.153
 9362POPC   C1A55827   0.392   4.361   6.453
 9362POPC   D2A55828   0.414   4.316   6.753
 9362POPC   C3A55829   0.466   4.343   7.053
 9362POPC   C4A55830   0.393   4.351   7.353
 9362POPC   C1B55831   0.543   4.105   6.453
 9362POPC   C2B55832   0.479   4.100   6.753
 9362POPC   C3B55833   0.505   4.100   7.053
 9362POPC   C4B55834   0.467   4.094   7.353
 9363POPC   NC355835  15.975  35.390   5.553
 9363POPC   PO455836  15.936  35.379   5.853
 9363POPC   GL155837  15.981  35.337   6.153
 9363POPC   GL255838  15.963  35.261   6.153
 9363POPC   C1A55839  15.966  35.323   6.453
 9363POPC   D2A55840  15.909  35.331   6.753
 9363POPC   C3A55841  15.930  35.374   7.053
 9363POPC   C4A55842  15.911  35.313   7.353
 9363POPC   C1B55843  15.873  35.149   6.453
 9363POPC   C2B55844  15.965  35.098   6.753
 9363POPC   C3B55845  15.957  35.140   7.053
 9363POPC   C4B55846  15.948  35.073   7.353
 9364POPC   NC355847  39.278   9.722   5.553
 9364POPC   PO455848  39.246   9.722   5.853
 9364POPC   GL155849  39.258   9.713   6.153
 9364POPC   GL255850  39.309   9.802   6.153
 9364POPC   C1A55851  39.245   9.721   6.453
 9364POPC   D2A55852  39.262   9.711   6.753
 9364POPC   C3A55853  39.257   9.776   7.053
 9364POPC   C4A55854  39.189   9.718   7.353
 9364POPC   C1B55855  39.351   9.908   6.453
 9364POPC   C2B55856  39.364   9.971   6.753
 9364POPC   C3B55857  39.414   9.917   7.053
 9364POPC   C4B55858  39.378   9.956   7.353
 9365POPC   NC355859  43.905  25.262   5.553
 9365POPC   PO455860  43.901  25.289   5.853
 9365POPC   GL155861  43.897  25.272   6.153
 9365POPC   GL255862  44.046  25.257   6.153
 9365POPC   C1A55863  43.890  25.275   6.453
 9365POPC   D2A55864  43.905  25.295   6.753
 9365POPC   C3A55865  43.865  25.223   7.053
 9365POPC   C4A55866  43.909  25.230   7.353
 9365POPC   C1B55867  44.150  25.176   6.453
 9365POPC   C2B55868  44.109  25.174   6.753
 9365POPC   C3B55869  44.101  25.152   7.053
 9365POPC   C4B55870  44.106  25.126   7.353
 9366POPC   NC355871   8.983   1.204   5.553
 9366POPC   PO455872   8.929   1.238   5.853
 9366POPC   GL155873   9.003   1.184   6.153
 9366POPC   GL255874   9.042   1.155   6.153
 9366POPC   C1A55875   8.969   1.203   6.453
 9366POPC   D2A55876   9.022   1.174   6.753
 9366POPC   C3A55877   9.004   1.258   7.053
 9366POPC   C4A55878   8.952   1.242   7.353
 9366POPC   C1B55879   9.232   1.085   6.453
 9366POPC   C2B55880   9.252   1.151   6.753
 9366POPC   C3B55881   9.216   1.091   7.053
 9366POPC   C4B55882   9.197   1.082   7.353
 9367POPC   NC355883  11.280   0.476   5.553
 9367POPC   PO455884  11.331   0.465   5.853
 9367POPC   GL155885  11.275   0.400   6.153
 9367POPC   GL255886  11.268   0.349   6.153
 9367POPC   C1A55887  11.323   0.397   6.453
 9367POPC   D2A55888  11.273   0.445   6.753
 9367POPC   C3A55889  11.250   0.442   7.053
 9367POPC   C4A55890  11.306   0.474   7.353
 9367POPC   C1B55891  11.324   0.162   6.453
 9367POPC   C2B55892  11.274   0.158   6.753
 9367POPC   C3B55893  11.305   0.154   7.053
 9367POPC   C4B55894  11.349   0.234   7.353
 9368POPC   NC355895  18.277  22.200   5.553
 9368POPC   PO455896  18.292  22.134   5.853
 9368POPC   GL155897  18.236  22.183   6.153
 9368POPC   GL255898  18.280  22.298   6.153
 9368POPC   C1A55899  18.308  22.148   6.453
 9368POPC   D2A55900  18.248  22.156   6.753
 9368POPC   C3A55901  18.243  22.159   7.053
 9368POPC   C4A55902  18.327  22.143   7.353
 9368POPC   C1B55903  18.215  22.352   6.453
 9368POPC   C2B55904  18.170  22.373   6.753
 9368POPC   C3B55905  18.191  22.368   7.053
 9368POPC   C4B55906  18.237  22.435   7.353
 9369POPC   NC355907  16.751  20.605   5.553
 9369POPC   PO455908  16.733  20.582   5.853
 9369POPC   GL155909  16.704  20.581   6.153
 9369POPC   GL255910  16.851  20.606   6.153
 9369POPC   C1A55911  16.705  20.652   6.453
 9369POPC   D2A55912  16.718  20.575   6.753
 9369POPC   C3A55913  16.764  20.660   7.053
 9369POPC   C4A55914  16.705  20.576   7.353
 9369POPC   C1B55915  16.917  20.498   6.453
 9369POPC   C2B55916  16.939  20.491   6.753
 9369POPC   C3B55917  16.975  20.523   7.053
 9369POPC   C4B55918  16.992  20.504   7.353
 9370POPC   NC355919  43.849  11.319   5.553
 9370POPC   PO455920  43.906  11.343   5.853
 9370POPC   GL155921  43.838  11.294   6.153
 9370POPC   GL255922  43.987  11.424   6.153
 9370POPC   C1A55923  43.919  11.317   6.453
 9370POPC   D2A55924  43.851  11.254   6.753
 9370POPC   C3A55925  43.882  11.325   7.053
 9370POPC   C4A55926  43.907  11.323   7.353
 9370POPC   C1B55927  44.057  11.428   6.453
 9370POPC   C2B55928  44.095  11.482   6.753
 9370POPC   C3B55929  44.118  11.478   7.053
 9370POPC   C4B55930  44.105  11.414   7.353
 9371POPC   NC355931  23.674  27.555   5.553
 9371POPC   PO455932  23.690  27.634   5.853
 9371POPC   GL155933  23.746  27.559   6.153
 9371POPC   GL255934  23.580  27.598   6.153
 9371POPC   C1A55935  23.700  27.592   6.453
 9371POPC   D2A55936  23.685  27.555   6.753
 9371POPC   C3A55937  23.707  27.622   7.053
 9371POPC   C4A55938  23.665  27.577   7.353
 9371POPC   C1B55939  23.427  27.615   6.453
 9371POPC   C2B55940  23.448  27.614   6.753
 9371POPC   C3B55941  23.421  27.663   7.053
 9371POPC   C4B55942  23.433  27.599   7.353
 9372POPC   NC355943  16.763  16.777   5.553
 9372POPC   PO455944  16.707  16.749   5.853
 9372POPC   GL155945  16.687  16.742   6.153
 9372POPC   GL255946  16.796  16.695   6.153
 9372POPC   C1A55947  16.759  16.775   6.453
 9372POPC   D2A55948  16.716  16.730   6.753
 9372POPC   C3A55949  16.773  16.695   7.053
 9372POPC   C4A55950  16.684  16.728   7.353
 9372POPC   C1B55951  16.979  16.612   6.453
 9372POPC   C2B55952  16.975  16.592   6.753
 9372POPC   C3B55953  16.962  16.604   7.053
 9372POPC   C4B55954  16.946  16.652   7.353
 9373POPC   NC355955  40.742   9.774   5.553
 9373POPC   PO455956  40.784   9.745   5.853
 9373POPC   GL155957  40.754   9.757   6.153
 9373POPC   GL255958  40.716   9.585   6.153
 9373POPC   C1A55959  40.795   9.744   6.453
 9373POPC   D2A55960  40.817   9.780   6.753
 9373POPC   C3A55961  40.830   9.741   7.053
 9373POPC   C4A55962  40.825   9.769   7.353
 9373POPC   C1B55963  40.723   9.525   6.453
 9373POPC   C2B55964  40.697   9.528   6.753
 9373POPC   C3B55965  40.711   9.501   7.053
 9373POPC   C4B55966  40.775   9.513   7.353
 9374POPC   NC355967  40.833  17.529   5.553
 9374POPC   PO455968  40.749  17.498   5.853
 9374POPC   GL155969  40.820  17.554   6.153
 9374POPC   GL255970  40.719  17.408   6.153
 9374POPC   C1A55971  40.756  17.512   6.453
 9374POPC   D2A55972  40.808  17.481   6.753
 9374POPC   C3A55973  40.814  17.548   7.053
 9374POPC   C4A55974  40.763  17.470   7.353
 9374POPC   C1B55975  40.663  17.298   6.453
 9374POPC   C2B55976  40.726  17.284   6.753
 9374POPC   C3B55977  40.643  17.273   7.053
 9374POPC   C4B55978  40.728  17.268   7.353
 9375POPC   NC355979  39.257  20.659   5.553
 9375POPC   PO455980  39.247  20.565   5.853
 9375POPC   GL155981  39.266  20.647   6.153
 9375POPC   GL255982  39.260  20.698   6.153
 9375POPC   C1A55983  39.187  20.584   6.453
 9375POPC   D2A55984  39.264  20.591   6.753
 9375POPC   C3A55985  39.201  20.628   7.053
 9375POPC   C4A55986  39.279  20.658   7.353
 9375POPC   C1B55987  39.255  20.846   6.453
 9375POPC   C2B55988  39.345  20.847   6.753
 9375POPC   C3B55989  39.277  20.857   7.053
 9375POPC   C4B55990  39.256  20.880   7.353
 9376POPC   NC355991  26.050  12.811   5.553
 9376POPC   PO455992  26.086  12.805   5.853
 9376POPC   GL155993  26.060  12.870   6.153
 9376POPC   GL255994  25.908  12.805   6.153
 9376POPC   C1A55995  26.065  12.840   6.453
 9376POPC   D2A55996  26.058  12.890   6.753
 9376POPC   C3A55997  26.072  12.815   7.053
 9376POPC   C4A55998  26.064  12.881   7.353
 9376POPC   C1B55999  25.898  12.689   6.453
 9376POPC   C2B56000  25.826  12.671   6.753
 9376POPC   C3B56001  25.831  12.673   7.053
 9376POPC   C4B56002  25.800  12.729   7.353
 9377POPC   NC356003  22.949  41.529   5.553
 9377POPC   PO456004  22.942  41.549   5.853
 9377POPC   GL156005  22.975  41.567   6.153
 9377POPC   GL256006  22.884  41.661   6.153
 9377POPC   C1A56007  22.957  41.596   6.453
 9377POPC   D2A56008  22.893  41.528   6.753
 9377POPC   C3A56009  22.981  41.595   7.053
 9377POPC   C4A56010  22.964  41.551   7.353
 9377POPC   C1B56011  22.851  41.743   6.453
 9377POPC   C2B56012  22.859  41.757   6.753
 9377POPC   C3B56013  22.827  41.792   7.053
 9377POPC   C4B56014  22.837  41.765   7.353
 9378POPC   NC356015  30.654  43.146   5.553
 9378POPC   PO456016  30.651  43.127   5.853
 9378POPC   GL156017  30.706  43.079   6.153
 9378POPC   GL256018  30.770  43.136   6.153
 9378POPC   C1A56019  30.684  43.115   6.453
 9378POPC   D2A56020  30.690  43.079   6.753
 9378POPC   C3A56021  30.704  43.063   7.053
 9378POPC   C4A56022  30.728  43.071   7.353
 9378POPC   C1B56023  30.979  43.131   6.453
 9378POPC   C2B56024  30.970  43.130   6.753
 9378POPC   C3B56025  30.947  43.158   7.053
 9378POPC   C4B56026  30.901  43.215   7.353
 9379POPC   NC356027   8.210  12.812   5.553
 9379POPC   PO456028   8.163  12.884   5.853
 9379POPC   GL156029   8.221  12.832   6.153
 9379POPC   GL256030   8.313  12.973   6.153
 9379POPC   C1A56031   8.233  12.809   6.453
 9379POPC   D2A56032   8.220  12.883   6.753
 9379POPC   C3A56033   8.210  12.870   7.053
 9379POPC   C4A56034   8.187  12.883   7.353
 9379POPC   C1B56035   8.325  13.030   6.453
 9379POPC   C2B56036   8.301  13.042   6.753
 9379POPC   C3B56037   8.334  13.039   7.053
 9379POPC   C4B56038   8.364  13.009   7.353
 9380POPC   NC356039  17.481   8.193   5.553
 9380POPC   PO456040  17.473   8.237   5.853
 9380POPC   GL156041  17.488   8.180   6.153
 9380POPC   GL256042  17.379   8.072   6.153
 9380POPC   C1A56043  17.530   8.201   6.453
 9380POPC   D2A56044  17.515   8.246   6.753
 9380POPC   C3A56045  17.538   8.177   7.053
 9380POPC   C4A56046  17.470   8.198   7.353
 9380POPC   C1B56047  17.310   7.963   6.453
 9380POPC   C2B56048  17.332   8.035   6.753
 9380POPC   C3B56049  17.351   7.958   7.053
 9380POPC   C4B56050  17.317   8.029   7.353
 9381POPC   NC356051   4.313  24.533   5.553
 9381POPC   PO456052   4.270  24.508   5.853
 9381POPC   GL156053   4.288  24.490   6.153
 9381POPC   GL256054   4.407  24.403   6.153
 9381POPC   C1A56055   4.360  24.535   6.453
 9381POPC   D2A56056   4.360  24.482   6.753
 9381POPC   C3A56057   4.281  24.515   7.053
 9381POPC   C4A56058   4.295  24.453   7.353
 9381POPC   C1B56059   4.580  24.360   6.453
 9381POPC   C2B56060   4.542  24.355   6.753
 9381POPC   C3B56061   4.581  24.412   7.053
 9381POPC   C4B56062   4.585  24.353   7.353
 9382POPC   NC356063   2.754   8.241   5.553
 9382POPC   PO456064   2.786   8.216   5.853
 9382POPC   GL156065   2.750   8.178   6.153
 9382POPC   GL256066   2.662   8.310   6.153
 9382POPC   C1A56067   2.782   8.215   6.453
 9382POPC   D2A56068   2.721   8.149   6.753
 9382POPC   C3A56069   2.719   8.231   7.053
 9382POPC   C4A56070   2.794   8.176   7.353
 9382POPC   C1B56071   2.523   8.320   6.453
 9382POPC   C2B56072   2.536   8.311   6.753
 9382POPC   C3B56073   2.545   8.385   7.053
 9382POPC   C4B56074   2.567   8.347   7.353
 9383POPC   NC356075  31.494   1.962   5.553
 9383POPC   PO456076  31.486   1.997   5.853
 9383POPC   GL156077  31.457   1.999   6.153
 9383POPC   GL256078  31.637   2.005   6.153
 9383POPC   C1A56079  31.495   1.949   6.453
 9383POPC   D2A56080  31.490   1.970   6.753
 9383POPC   C3A56081  31.471   2.025   7.053
 9383POPC   C4A56082  31.477   1.958   7.353
 9383POPC   C1B56083  31.719   1.990   6.453
 9383POPC   C2B56084  31.734   1.989   6.753
 9383POPC   C3B56085  31.742   1.925   7.053
 9383POPC   C4B56086  31.741   1.937   7.353
 9384POPC   NC356087   4.311  36.906   5.553
 9384POPC   PO456088   4.309  36.926   5.853
 9384POPC   GL156089   4.333  36.887   6.153
 9384POPC   GL256090   4.178  36.976   6.153
 9384POPC   C1A56091   4.332  36.896   6.453
 9384POPC   D2A56092   4.351  36.928   6.753
 9384POPC   C3A56093   4.361  36.906   7.053
 9384POPC   C4A56094   4.350  36.900   7.353
 9384POPC   C1B56095   4.122  37.009   6.453
 9384POPC   C2B56096   4.074  36.996   6.753
 9384POPC   C3B56097   4.054  36.934   7.053
 9384POPC   C4B56098   4.097  37.023   7.353
 9385POPC   NC356099   0.413  35.353   5.553
 9385POPC   PO456100   0.456  35.319   5.853
 9385POPC   GL156101   0.398  35.350   6.153
 9385POPC   GL256102   0.425  35.440   6.153
 9385POPC   C1A56103   0.471  35.382   6.453
 9385POPC   D2A56104   0.480  35.396   6.753
 9385POPC   C3A56105   0.448  35.347   7.053
 9385POPC   C4A56106   0.471  35.352   7.353
 9385POPC   C1B56107   0.376  35.556   6.453
 9385POPC   C2B56108   0.320  35.566   6.753
 9385POPC   C3B56109   0.354  35.571   7.053
 9385POPC   C4B56110   0.345  35.581   7.353
 9386POPC   NC356111  34.553   7.461   5.553
 9386POPC   PO456112  34.533   7.469   5.853
 9386POPC   GL156113  34.618   7.393   6.153
 9386POPC   GL256114  34.423   7.455   6.153
 9386POPC   C1A56115  34.582   7.390   6.453
 9386POPC   D2A56116  34.615   7.448   6.753
 9386POPC   C3A56117  34.526   7.371   7.053
 9386POPC   C4A56118  34.576   7.471   7.353
 9386POPC   C1B56119  34.395   7.513   6.453
 9386POPC   C2B56120  34.366   7.530   6.753
 9386POPC   C3B56121  34.360   7.483   7.053
 9386POPC   C4B56122  34.357   7.550   7.353
 9387POPC   NC356123  22.169  42.381   5.553
 9387POPC   PO456124  22.174  42.301   5.853
 9387POPC   GL156125  22.143  42.353   6.153
 9387POPC   GL256126  22.152  42.246   6.153
 9387POPC   C1A56127  22.147  42.348   6.453
 9387POPC   D2A56128  22.163  42.355   6.753
 9387POPC   C3A56129  22.163  42.370   7.053
 9387POPC   C4A56130  22.142  42.379   7.353
 9387POPC   C1B56131  22.187  42.055   6.453
 9387POPC   C2B56132  22.136  42.037   6.753
 9387POPC   C3B56133  22.167  42.085   7.053
 9387POPC   C4B56134  22.128  42.109   7.353
 9388POPC   NC356135  36.088  14.410   5.553
 9388POPC   PO456136  36.112  14.409   5.853
 9388POPC   GL156137  36.119  14.395   6.153
 9388POPC   GL256138  36.103  14.529   6.153
 9388POPC   C1A56139  36.097  14.384   6.453
 9388POPC   D2A56140  36.080  14.402   6.753
 9388POPC   C3A56141  36.125  14.362   7.053
 9388POPC   C4A56142  36.152  14.453   7.353
 9388POPC   C1B56143  36.033  14.647   6.453
 9388POPC   C2B56144  36.079  14.608   6.753
 9388POPC   C3B56145  36.088  14.675   7.053
 9388POPC   C4B56146  36.040  14.630   7.353
 9389POPC   NC356147  15.954  15.948   5.553
 9389POPC   PO456148  15.947  15.976   5.853
 9389POPC   GL156149  15.952  15.968   6.153
 9389POPC   GL256150  16.038  16.096   6.153
 9389POPC   C1A56151  15.999  15.968   6.453
 9389POPC   D2A56152  15.985  15.990   6.753
 9389POPC   C3A56153  15.963  15.938   7.053
 9389POPC   C4A56154  15.972  15.934   7.353
 9389POPC   C1B56155  16.130  16.160   6.453
 9389POPC   C2B56156  16.124  16.130   6.753
 9389POPC   C3B56157  16.105  16.119   7.053
 9389POPC   C4B56158  16.111  16.194   7.353
 9390POPC   NC356159  16.722  42.370   5.553
 9390POPC   PO456160  16.768  42.338   5.853
 9390POPC   GL156161  16.760  42.354   6.153
 9390POPC   GL256162  16.732  42.499   6.153
 9390POPC   C1A56163  16.728  42.352   6.453
 9390POPC   D2A56164  16.725  42.341   6.753
 9390POPC   C3A56165  16.772  42.384   7.053
 9390POPC   C4A56166  16.740  42.323   7.353
 9390POPC   C1B56167  16.838  42.546   6.453
 9390POPC   C2B56168  16.822  42.535   6.753
 9390POPC   C3B56169  16.755  42.605   7.053
 9390POPC   C4B56170  16.773  42.577   7.353
 9391POPC   NC356171  30.743  15.933   5.553
 9391POPC   PO456172  30.674  15.981   5.853
 9391POPC   GL156173  30.726  15.938   6.153
 9391POPC   GL256174  30.625  15.824   6.153
 9391POPC   C1A56175  30.693  16.001   6.453
 9391POPC   D2A56176  30.655  15.953   6.753
 9391POPC   C3A56177  30.695  15.943   7.053
 9391POPC   C4A56178  30.697  15.932   7.353
 9391POPC   C1B56179  30.669  15.669   6.453
 9391POPC   C2B56180  30.605  15.759   6.753
 9391POPC   C3B56181  30.629  15.711   7.053
 9391POPC   C4B56182  30.606  15.684   7.353
 9392POPC   NC356183  34.548  19.067   5.553
 9392POPC   PO456184  34.605  19.072   5.853
 9392POPC   GL156185  34.544  19.056   6.153
 9392POPC   GL256186  34.702  19.150   6.153
 9392POPC   C1A56187  34.610  19.082   6.453
 9392POPC   D2A56188  34.589  19.039   6.753
 9392POPC   C3A56189  34.600  19.063   7.053
 9392POPC   C4A56190  34.598  19.049   7.353
 9392POPC   C1B56191  34.780  19.220   6.453
 9392POPC   C2B56192  34.761  19.247   6.753
 9392POPC   C3B56193  34.709  19.277   7.053
 9392POPC   C4B56194  34.769  19.195   7.353
 9393POPC   NC356195   9.721  21.353   5.553
 9393POPC   PO456196   9.735  21.344   5.853
 9393POPC   GL156197   9.790  21.395   6.153
 9393POPC   GL256198   9.698  21.528   6.153
 9393POPC   C1A56199   9.794  21.422   6.453
 9393POPC   D2A56200   9.781  21.377   6.753
 9393POPC   C3A56201   9.744  21.396   7.053
 9393POPC   C4A56202   9.749  21.365   7.353
 9393POPC   C1B56203   9.729  21.665   6.453
 9393POPC   C2B56204   9.745  21.600   6.753
 9393POPC   C3B56205   9.763  21.601   7.053
 9393POPC   C4B56206   9.755  21.653   7.353
 9394POPC   NC356207   9.775  37.693   5.553
 9394POPC   PO456208   9.724  37.701   5.853
 9394POPC   GL156209   9.758  37.693   6.153
 9394POPC   GL256210   9.805  37.572   6.153
 9394POPC   C1A56211   9.760  37.721   6.453
 9394POPC   D2A56212   9.713  37.693   6.753
 9394POPC   C3A56213   9.770  37.660   7.053
 9394POPC   C4A56214   9.725  37.668   7.353
 9394POPC   C1B56215   9.984  37.501   6.453
 9394POPC   C2B56216   9.962  37.500   6.753
 9394POPC   C3B56217   9.952  37.484   7.053
 9394POPC   C4B56218   9.926  37.548   7.353
 9395POPC   NC356219  31.455  42.304   5.553
 9395POPC   PO456220  31.481  42.332   5.853
 9395POPC   GL156221  31.429  42.380   6.153
 9395POPC   GL256222  31.588  42.261   6.153
 9395POPC   C1A56223  31.519  42.373   6.453
 9395POPC   D2A56224  31.441  42.346   6.753
 9395POPC   C3A56225  31.445  42.289   7.053
 9395POPC   C4A56226  31.457  42.325   7.353
 9395POPC   C1B56227  31.642  42.142   6.453
 9395POPC   C2B56228  31.636  42.157   6.753
 9395POPC   C3B56229  31.590  42.178   7.053
 9395POPC   C4B56230  31.632  42.113   7.353
 9396POPC   NC356231  18.258   9.788   5.553
 9396POPC   PO456232  18.303   9.794   5.853
 9396POPC   GL156233  18.274   9.731   6.153
 9396POPC   GL256234  18.254   9.819   6.153
 9396POPC   C1A56235  18.247   9.777   6.453
 9396POPC   D2A56236  18.304   9.784   6.753
 9396POPC   C3A56237  18.275   9.739   7.053
 9396POPC   C4A56238  18.315   9.774   7.353
 9396POPC   C1B56239  18.170   9.922   6.453
 9396POPC   C2B56240  18.108   9.918   6.753
 9396POPC   C3B56241  18.183   9.943   7.053
 9396POPC   C4B56242  18.110   9.990   7.353
 9397POPC   NC356243  20.577   0.444   5.553
 9397POPC   PO456244  20.641   0.484   5.853
 9397POPC   GL156245  20.607   0.441   6.153
 9397POPC   GL256246  20.595   0.337   6.153
 9397POPC   C1A56247  20.594   0.410   6.453
 9397POPC   D2A56248  20.638   0.403   6.753
 9397POPC   C3A56249  20.608   0.426   7.053
 9397POPC   C4A56250  20.616   0.468   7.353
 9397POPC   C1B56251  20.467   0.268   6.453
 9397POPC   C2B56252  20.440   0.232   6.753
 9397POPC   C3B56253  20.456   0.235   7.053
 9397POPC   C4B56254  20.478   0.267   7.353
 9398POPC   NC356255  17.460  24.451   5.553
 9398POPC   PO456256  17.557  24.468   5.853
 9398POPC   GL156257  17.508  24.451   6.153
 9398POPC   GL256258  17.411  24.520   6.153
 9398POPC   C1A56259  17.478  24.483   6.453
 9398POPC   D2A56260  17.462  24.458   6.753
 9398POPC   C3A56261  17.501  24.529   7.053
 9398POPC   C4A56262  17.521  24.482   7.353
 9398POPC   C1B56263  17.214  24.517   6.453
 9398POPC   C2B56264  17.224  24.549   6.753
 9398POPC   C3B56265  17.272  24.556   7.053
 9398POPC   C4B56266  17.286  24.512   7.353
 9399POPC   NC356267  30.674  19.827   5.553
 9399POPC   PO456268  30.668  19.864   5.853
 9399POPC   GL156269  30.670  19.839   6.153
 9399POPC   GL256270  30.809  19.771   6.153
 9399POPC   C1A56271  30.715  19.793   6.453
 9399POPC   D2A56272  30.693  19.796   6.753
 9399POPC   C3A56273  30.673  19.879   7.053
 9399POPC   C4A56274  30.707  19.841   7.353
 9399POPC   C1B56275  30.942  19.758   6.453
 9399POPC   C2B56276  30.933  19.699   6.753
 9399POPC   C3B56277  30.871  19.708   7.053
 9399POPC   C4B56278  30.961  19.756   7.353
 9400POPC   NC356279  19.842   2.010   5.553
 9400POPC   PO456280  19.845   2.023   5.853
 9400POPC   GL156281  19.834   2.021   6.153
 9400POPC   GL256282  19.806   1.831   6.153
 9400POPC   C1A56283  19.812   1.944   6.453
 9400POPC   D2A56284  19.814   1.967   6.753
 9400POPC   C3A56285  19.798   1.962   7.053
 9400POPC   C4A56286  19.859   2.014   7.353
 9400POPC   C1B56287  19.743   1.719   6.453
 9400POPC   C2B56288  19.765   1.723   6.753
 9400POPC   C3B56289  19.789   1.779   7.053
 9400POPC   C4B56290  19.834   1.782   7.353
 9401POPC   NC356291  12.899  12.858   5.553
 9401POPC   PO456292  12.817  12.839   5.853
 9401POPC   GL156293  12.876  12.866   6.153
 9401POPC   GL256294  12.954  12.812   6.153
 9401POPC   C1A56295  12.814  12.856   6.453
 9401POPC   D2A56296  12.888  12.891   6.753
 9401POPC   C3A56297  12.839  12.865   7.053
 9401POPC   C4A56298  12.851  12.877   7.353
 9401POPC   C1B56299  13.118  12.779   6.453
 9401POPC   C2B56300  13.074  12.819   6.753
 9401POPC   C3B56301  13.130  12.780   7.053
 9401POPC   C4B56302  13.116  12.786   7.353
 9402POPC   NC356303  34.575   5.102   5.553
 9402POPC   PO456304  34.562   5.084   5.853
 9402POPC   GL156305  34.552   5.070   6.153
 9402POPC   GL256306  34.681   5.155   6.153
 9402POPC   C1A56307  34.593   5.141   6.453
 9402POPC   D2A56308  34.556   5.126   6.753
 9402POPC   C3A56309  34.621   5.121   7.053
 9402POPC   C4A56310  34.611   5.062   7.353
 9402POPC   C1B56311  34.852   5.157   6.453
 9402POPC   C2B56312  34.813   5.118   6.753
 9402POPC   C3B56313  34.797   5.189   7.053
 9402POPC   C4B56314  34.859   5.170   7.353
 9403POPC   NC356315  14.432   1.236   5.553
 9403POPC   PO456316  14.417   1.233   5.853
 9403POPC   GL156317  14.444   1.204   6.153
 9403POPC   GL256318  14.532   1.088   6.153
 9403POPC   C1A56319  14.359   1.182   6.453
 9403POPC   D2A56320  14.448   1.230   6.753
 9403POPC   C3A56321  14.356   1.177   7.053
 9403POPC   C4A56322  14.359   1.257   7.353
 9403POPC   C1B56323  14.638   1.079   6.453
 9403POPC   C2B56324  14.628   1.067   6.753
 9403POPC   C3B56325  14.599   1.010   7.053
 9403POPC   C4B56326  14.574   1.075   7.353
 9404POPC   NC356327   1.951  27.636   5.553
 9404POPC   PO456328   1.990  27.611   5.853
 9404POPC   GL156329   1.978  27.624   6.153
 9404POPC   GL256330   2.048  27.475   6.153
 9404POPC   C1A56331   2.023  27.589   6.453
 9404POPC   D2A56332   2.005  27.559   6.753
 9404POPC   C3A56333   2.013  27.572   7.053
 9404POPC   C4A56334   1.997  27.633   7.353
 9404POPC   C1B56335   2.032  27.408   6.453
 9404POPC   C2B56336   2.082  27.328   6.753
 9404POPC   C3B56337   2.055  27.399   7.053
 9404POPC   C4B56338   2.121  27.394   7.353
 9405POPC   NC356339  43.116   5.123   5.553
 9405POPC   PO456340  43.081   5.122   5.853
 9405POPC   GL156341  43.066   5.067   6.153
 9405POPC   GL256342  43.176   4.964   6.153
 9405POPC   C1A56343  43.107   5.140   6.453
 9405POPC   D2A56344  43.065   5.141   6.753
 9405POPC   C3A56345  43.079   5.100   7.053
 9405POPC   C4A56346  43.150   5.073   7.353
 9405POPC   C1B56347  43.258   4.895   6.453
 9405POPC   C2B56348  43.345   4.928   6.753
 9405POPC   C3B56349  43.301   4.959   7.053
 9405POPC   C4B56350  43.346   4.950   7.353
 9406POPC   NC356351  15.950   0.448   5.553
 9406POPC   PO456352  15.924   0.464   5.853
 9406POPC   GL156353  15.983   0.465   6.153
 9406POPC   GL256354  15.902   0.472   6.153
 9406POPC   C1A56355  15.939   0.485   6.453
 9406POPC   D2A56356  15.971   0.473   6.753
 9406POPC   C3A56357  15.993   0.430   7.053
 9406POPC   C4A56358  15.950   0.392   7.353
 9406POPC   C1B56359  15.778   0.586   6.453
 9406POPC   C2B56360  15.776   0.569   6.753
 9406POPC   C3B56361  15.785   0.610   7.053
 9406POPC   C4B56362  15.712   0.542   7.353
 9407POPC   NC356363   4.313  16.727   5.553
 9407POPC   PO456364   4.336  16.768   5.853
 9407POPC   GL156365   4.293  16.771   6.153
 9407POPC   GL256366   4.200  16.747   6.153
 9407POPC   C1A56367   4.354  16.770   6.453
 9407POPC   D2A56368   4.308  16.757   6.753
 9407POPC   C3A56369   4.304  16.780   7.053
 9407POPC   C4A56370   4.276  16.687   7.353
 9407POPC   C1B56371   4.088  16.862   6.453
 9407POPC   C2B56372   4.078  16.884   6.753
 9407POPC   C3B56373   4.127  16.813   7.053
 9407POPC   C4B56374   4.080  16.880   7.353
 9408POPC   NC356375  30.663  16.765   5.553
 9408POPC   PO456376  30.706  16.754   5.853
 9408POPC   GL156377  30.655  16.764   6.153
 9408POPC   GL256378  30.866  16.742   6.153
 9408POPC   C1A56379  30.726  16.749   6.453
 9408POPC   D2A56380  30.734  16.704   6.753
 9408POPC   C3A56381  30.713  16.759   7.053
 9408POPC   C4A56382  30.674  16.705   7.353
 9408POPC   C1B56383  30.990  16.768   6.453
 9408POPC   C2B56384  30.909  16.679   6.753
 9408POPC   C3B56385  30.926  16.727   7.053
 9408POPC   C4B56386  30.911  16.682   7.353
 9409POPC   NC356387  29.963  44.627   5.553
 9409POPC   PO456388  29.909  44.707   5.853
 9409POPC   GL156389  29.915  44.670   6.153
 9409POPC   GL256390  29.979  44.526   6.153
 9409POPC   C1A56391  29.922  44.674   6.453
 9409POPC   D2A56392  29.914  44.695   6.753
 9409POPC   C3A56393  29.877  44.652   7.053
 9409POPC   C4A56394  29.957  44.650   7.353
 9409POPC   C1B56395  29.984  44.438   6.453
 9409POPC   C2B56396  29.989  44.376   6.753
 9409POPC   C3B56397  30.010  44.442   7.053
 9409POPC   C4B56398  30.052  44.433   7.353
 9410POPC   NC356399   7.433  19.796   5.553
 9410POPC   PO456400   7.465  19.825   5.853
 9410POPC   GL156401   7.459  19.805   6.153
 9410POPC   GL256402   7.489  19.883   6.153
 9410POPC   C1A56403   7.427  19.820   6.453
 9410POPC   D2A56404   7.378  19.837   6.753
 9410POPC   C3A56405   7.448  19.861   7.053
 9410POPC   C4A56406   7.375  19.855   7.353
 9410POPC   C1B56407   7.647  19.969   6.453
 9410POPC   C2B56408   7.591  19.973   6.753
 9410POPC   C3B56409   7.610  20.008   7.053
 9410POPC   C4B56410   7.645  19.957   7.353
 9411POPC   NC356411  15.199   4.331   5.553
 9411POPC   PO456412  15.221   4.276   5.853
 9411POPC   GL156413  15.143   4.330   6.153
 9411POPC   GL256414  15.297   4.415   6.153
 9411POPC   C1A56415  15.218   4.298   6.453
 9411POPC   D2A56416  15.208   4.343   6.753
 9411POPC   C3A56417  15.228   4.304   7.053
 9411POPC   C4A56418  15.140   4.295   7.353
 9411POPC   C1B56419  15.327   4.564   6.453
 9411POPC   C2B56420  15.316   4.563   6.753
 9411POPC   C3B56421  15.322   4.482   7.053
 9411POPC   C4B56422  15.350   4.536   7.353
 9412POPC   NC356423   0.482  32.204   5.553
 9412POPC   PO456424   0.431  32.274   5.853
 9412POPC   GL156425   0.434  32.250   6.153
 9412POPC   GL256426   0.512  32.191   6.153
 9412POPC   C1A56427   0.390  32.213   6.453
 9412POPC   D2A56428   0.433  32.209   6.753
 9412POPC   C3A56429   0.408  32.285   7.053
 9412POPC   C4A56430   0.456  32.252   7.353
 9412POPC   C1B56431   0.531  32.015   6.453
 9412POPC   C2B56432   0.534  32.010   6.753
 9412POPC   C3B56433   0.598  32.044   7.053
 9412POPC   C4B56434   0.547  32.011   7.353
 9413POPC   NC356435  36.895   4.356   5.553
 9413POPC   PO456436  36.907   4.327   5.853
 9413POPC   GL156437  36.866   4.292   6.153
 9413POPC   GL256438  36.952   4.438   6.153
 9413POPC   C1A56439  36.875   4.275   6.453
 9413POPC   D2A56440  36.920   4.290   6.753
 9413POPC   C3A56441  36.862   4.328   7.053
 9413POPC   C4A56442  36.901   4.363   7.353
 9413POPC   C1B56443  36.898   4.564   6.453
 9413POPC   C2B56444  36.924   4.525   6.753
 9413POPC   C3B56445  36.980   4.558   7.053
 9413POPC   C4B56446  36.966   4.600   7.353
 9414POPC   NC356447  42.295  12.108   5.553
 9414POPC   PO456448  42.338  12.043   5.853
 9414POPC   GL156449  42.292  12.095   6.153
 9414POPC   GL256450  42.307  12.158   6.153
 9414POPC   C1A56451  42.328  12.068   6.453
 9414POPC   D2A56452  42.349  12.105   6.753
 9414POPC   C3A56453  42.322  12.067   7.053
 9414POPC   C4A56454  42.381  12.033   7.353
 9414POPC   C1B56455  42.162  12.290   6.453
 9414POPC   C2B56456  42.222  12.315   6.753
 9414POPC   C3B56457  42.238  12.278   7.053
 9414POPC   C4B56458  42.245  12.318   7.353
 9415POPC   NC356459  26.087  13.652   5.553
 9415POPC   PO456460  26.025  13.617   5.853
 9415POPC   GL156461  25.994  13.643   6.153
 9415POPC   GL256462  26.017  13.549   6.153
 9415POPC   C1A56463  25.998  13.608   6.453
 9415POPC   D2A56464  26.026  13.660   6.753
 9415POPC   C3A56465  26.037  13.674   7.053
 9415POPC   C4A56466  26.060  13.648   7.353
 9415POPC   C1B56467  26.114  13.349   6.453
 9415POPC   C2B56468  26.071  13.426   6.753
 9415POPC   C3B56469  26.063  13.423   7.053
 9415POPC   C4B56470  26.023  13.420   7.353
 9416POPC   NC356471  39.191  24.482   5.553
 9416POPC   PO456472  39.207  24.527   5.853
 9416POPC   GL156473  39.222  24.455   6.153
 9416POPC   GL256474  39.308  24.582   6.153
 9416POPC   C1A56475  39.215  24.498   6.453
 9416POPC   D2A56476  39.217  24.535   6.753
 9416POPC   C3A56477  39.262  24.453   7.053
 9416POPC   C4A56478  39.241  24.490   7.353
 9416POPC   C1B56479  39.271  24.766   6.453
 9416POPC   C2B56480  39.274  24.694   6.753
 9416POPC   C3B56481  39.321  24.753   7.053
 9416POPC   C4B56482  39.361  24.715   7.353
 9417POPC   NC356483  28.376  29.150   5.553
 9417POPC   PO456484  28.388  29.126   5.853
 9417POPC   GL156485  28.353  29.153   6.153
 9417POPC   GL256486  28.287  29.091   6.153
 9417POPC   C1A56487  28.417  29.144   6.453
 9417POPC   D2A56488  28.365  29.106   6.753
 9417POPC   C3A56489  28.349  29.181   7.053
 9417POPC   C4A56490  28.366  29.099   7.353
 9417POPC   C1B56491  28.126  29.015   6.453
 9417POPC   C2B56492  28.194  29.016   6.753
 9417POPC   C3B56493  28.123  29.060   7.053
 9417POPC   C4B56494  28.179  29.079   7.353
 9418POPC   NC356495   6.646  26.056   5.553
 9418POPC   PO456496   6.667  26.007   5.853
 9418POPC   GL156497   6.611  26.005   6.153
 9418POPC   GL256498   6.688  26.151   6.153
 9418POPC   C1A56499   6.652  26.073   6.453
 9418POPC   D2A56500   6.666  26.046   6.753
 9418POPC   C3A56501   6.662  26.077   7.053
 9418POPC   C4A56502   6.628  26.053   7.353
 9418POPC   C1B56503   6.644  26.316   6.453
 9418POPC   C2B56504   6.619  26.259   6.753
 9418POPC   C3B56505   6.693  26.306   7.053
 9418POPC   C4B56506   6.628  26.253   7.353
 9419POPC   NC356507  20.646  28.371   5.553
 9419POPC   PO456508  20.621  28.394   5.853
 9419POPC   GL156509  20.571  28.417   6.153
 9419POPC   GL256510  20.528  28.305   6.153
 9419POPC   C1A56511  20.636  28.378   6.453
 9419POPC   D2A56512  20.643  28.326   6.753
 9419POPC   C3A56513  20.570  28.413   7.053
 9419POPC   C4A56514  20.605  28.414   7.353
 9419POPC   C1B56515  20.490  28.182   6.453
 9419POPC   C2B56516  20.419  28.173   6.753
 9419POPC   C3B56517  20.456  28.141   7.053
 9419POPC   C4B56518  20.457  28.164   7.353
 9420POPC   NC356519  32.981  35.332   5.553
 9420POPC   PO456520  33.028  35.326   5.853
 9420POPC   GL156521  33.016  35.394   6.153
 9420POPC   GL256522  33.175  35.275   6.153
 9420POPC   C1A56523  33.009  35.337   6.453
 9420POPC   D2A56524  33.005  35.339   6.753
 9420POPC   C3A56525  33.056  35.371   7.053
 9420POPC   C4A56526  33.065  35.368   7.353
 9420POPC   C1B56527  33.221  35.324   6.453
 9420POPC   C2B56528  33.219  35.270   6.753
 9420POPC   C3B56529  33.272  35.298   7.053
 9420POPC   C4B56530  33.275  35.307   7.353
 9421POPC   NC356531  22.935  29.942   5.553
 9421POPC   PO456532  22.926  29.876   5.853
 9421POPC   GL156533  22.896  29.891   6.153
 9421POPC   GL256534  22.873  29.774   6.153
 9421POPC   C1A56535  22.910  29.888   6.453
 9421POPC   D2A56536  22.972  29.908   6.753
 9421POPC   C3A56537  22.984  29.927   7.053
 9421POPC   C4A56538  22.945  29.908   7.353
 9421POPC   C1B56539  22.833  29.640   6.453
 9421POPC   C2B56540  22.843  29.723   6.753
 9421POPC   C3B56541  22.855  29.717   7.053
 9421POPC   C4B56542  22.864  29.715   7.353
 9422POPC   NC356543   2.796  19.045   5.553
 9422POPC   PO456544   2.779  19.012   5.853
 9422POPC   GL156545   2.780  19.013   6.153
 9422POPC   GL256546   2.735  18.896   6.153
 9422POPC   C1A56547   2.752  19.019   6.453
 9422POPC   D2A56548   2.735  19.067   6.753
 9422POPC   C3A56549   2.768  19.026   7.053
 9422POPC   C4A56550   2.743  19.041   7.353
 9422POPC   C1B56551   2.687  18.842   6.453
 9422POPC   C2B56552   2.672  18.865   6.753
 9422POPC   C3B56553   2.750  18.776   7.053
 9422POPC   C4B56554   2.726  18.823   7.353
 9423POPC   NC356555  43.070  33.059   5.553
 9423POPC   PO456556  43.106  32.995   5.853
 9423POPC   GL156557  43.135  33.041   6.153
 9423POPC   GL256558  43.153  33.143   6.153
 9423POPC   C1A56559  43.077  33.010   6.453
 9423POPC   D2A56560  43.092  33.045   6.753
 9423POPC   C3A56561  43.150  33.062   7.053
 9423POPC   C4A56562  43.107  32.977   7.353
 9423POPC   C1B56563  43.197  33.313   6.453
 9423POPC   C2B56564  43.141  33.312   6.753
 9423POPC   C3B56565  43.196  33.233   7.053
 9423POPC   C4B56566  43.168  33.314   7.353
 9424POPC   NC356567  43.151  11.338   5.553
 9424POPC   PO456568  43.130  11.311   5.853
 9424POPC   GL156569  43.112  11.311   6.153
 9424POPC   GL256570  42.980  11.307   6.153
 9424POPC   C1A56571  43.074  11.284   6.453
 9424POPC   D2A56572  43.085  11.324   6.753
 9424POPC   C3A56573  43.103  11.343   7.053
 9424POPC   C4A56574  43.135  11.327   7.353
 9424POPC   C1B56575  42.877  11.302   6.453
 9424POPC   C2B56576  42.868  11.251   6.753
 9424POPC   C3B56577  42.868  11.224   7.053
 9424POPC   C4B56578  42.826  11.301   7.353
 9425POPC   NC356579   8.181  43.077   5.553
 9425POPC   PO456580   8.215  43.112   5.853
 9425POPC   GL156581   8.148  43.113   6.153
 9425POPC   GL256582   8.192  43.214   6.153
 9425POPC   C1A56583   8.225  43.116   6.453
 9425POPC   D2A56584   8.228  43.141   6.753
 9425POPC   C3A56585   8.209  43.101   7.053
 9425POPC   C4A56586   8.173  43.092   7.353
 9425POPC   C1B56587   8.134  43.314   6.453
 9425POPC   C2B56588   8.148  43.345   6.753
 9425POPC   C3B56589   8.176  43.405   7.053
 9425POPC   C4B56590   8.148  43.376   7.353
 9426POPC   NC356591  36.874   7.415   5.553
 9426POPC   PO456592  36.929   7.448   5.853
 9426POPC   GL156593  36.942   7.412   6.153
 9426POPC   GL256594  36.783   7.429   6.153
 9426POPC   C1A56595  36.887   7.402   6.453
 9426POPC   D2A56596  36.922   7.422   6.753
 9426POPC   C3A56597  36.934   7.470   7.053
 9426POPC   C4A56598  36.928   7.416   7.353
 9426POPC   C1B56599  36.681   7.445   6.453
 9426POPC   C2B56600  36.671   7.442   6.753
 9426POPC   C3B56601  36.699   7.425   7.053
 9426POPC   C4B56602  36.669   7.380   7.353
 9427POPC   NC356603  19.821  41.559   5.553
 9427POPC   PO456604  19.802  41.519   5.853
 9427POPC   GL156605  19.851  41.561   6.153
 9427POPC   GL256606  19.744  41.577   6.153
 9427POPC   C1A56607  19.794  41.568   6.453
 9427POPC   D2A56608  19.882  41.551   6.753
 9427POPC   C3A56609  19.861  41.587   7.053
 9427POPC   C4A56610  19.866  41.571   7.353
 9427POPC   C1B56611  19.651  41.668   6.453
 9427POPC   C2B56612  19.600  41.666   6.753
 9427POPC   C3B56613  19.614  41.643   7.053
 9427POPC   C4B56614  19.588  41.655   7.353
 9428POPC   NC356615  42.303  38.437   5.553
 9428POPC   PO456616  42.293  38.455   5.853
 9428POPC   GL156617  42.327  38.465   6.153
 9428POPC   GL256618  42.441  38.455   6.153
 9428POPC   C1A56619  42.293  38.500   6.453
 9428POPC   D2A56620  42.316  38.460   6.753
 9428POPC   C3A56621  42.286  38.497   7.053
 9428POPC   C4A56622  42.358  38.452   7.353
 9428POPC   C1B56623  42.614  38.522   6.453
 9428POPC   C2B56624  42.536  38.506   6.753
 9428POPC   C3B56625  42.617  38.514   7.053
 9428POPC   C4B56626  42.610  38.509   7.353
 9429POPC   NC356627  19.067  26.848   5.553
 9429POPC   PO456628  19.105  26.822   5.853
 9429POPC   GL156629  19.108  26.846   6.153
 9429POPC   GL256630  19.094  26.691   6.153
 9429POPC   C1A56631  19.081  26.781   6.453
 9429POPC   D2A56632  19.011  26.850   6.753
 9429POPC   C3A56633  19.095  26.862   7.053
 9429POPC   C4A56634  19.039  26.852   7.353
 9429POPC   C1B56635  19.106  26.622   6.453
 9429POPC   C2B56636  19.126  26.541   6.753
 9429POPC   C3B56637  19.139  26.565   7.053
 9429POPC   C4B56638  19.193  26.616   7.353
 9430POPC   NC356639  15.935   5.129   5.553
 9430POPC   PO456640  15.999   5.126   5.853
 9430POPC   GL156641  15.993   5.061   6.153
 9430POPC   GL256642  16.048   5.089   6.153
 9430POPC   C1A56643  15.995   5.087   6.453
 9430POPC   D2A56644  15.983   5.054   6.753
 9430POPC   C3A56645  15.948   5.068   7.053
 9430POPC   C4A56646  15.917   5.050   7.353
 9430POPC   C1B56647  16.158   5.077   6.453
 9430POPC   C2B56648  16.203   5.092   6.753
 9430POPC   C3B56649  16.235   5.072   7.053
 9430POPC   C4B56650  16.218   5.075   7.353
 9431POPC   NC356651  26.082   8.984   5.553
 9431POPC   PO456652  25.997   8.996   5.853
 9431POPC   GL156653  26.012   8.944   6.153
 9431POPC   GL256654  26.195   8.989   6.153
 9431POPC   C1A56655  26.036   9.016   6.453
 9431POPC   D2A56656  26.006   8.929   6.753
 9431POPC   C3A56657  26.079   9.016   7.053
 9431POPC   C4A56658  25.992   8.928   7.353
 9431POPC   C1B56659  26.231   9.139   6.453
 9431POPC   C2B56660  26.296   9.101   6.753
 9431POPC   C3B56661  26.271   9.076   7.053
 9431POPC   C4B56662  26.282   9.093   7.353
 9432POPC   NC356663   1.187  42.287   5.553
 9432POPC   PO456664   1.209  42.331   5.853
 9432POPC   GL156665   1.226  42.366   6.153
 9432POPC   GL256666   1.302  42.326   6.153
 9432POPC   C1A56667   1.250  42.303   6.453
 9432POPC   D2A56668   1.228  42.314   6.753
 9432POPC   C3A56669   1.252  42.367   7.053
 9432POPC   C4A56670   1.190  42.300   7.353
 9432POPC   C1B56671   1.413  42.262   6.453
 9432POPC   C2B56672   1.490  42.207   6.753
 9432POPC   C3B56673   1.490  42.236   7.053
 9432POPC   C4B56674   1.400  42.233   7.353
 9433POPC   NC356675  25.257  20.613   5.553
 9433POPC   PO456676  25.288  20.574   5.853
 9433POPC   GL156677  25.301  20.593   6.153
 9433POPC   GL256678  25.382  20.459   6.153
 9433POPC   C1A56679  25.274  20.633   6.453
 9433POPC   D2A56680  25.230  20.640   6.753
 9433POPC   C3A56681  25.261  20.627   7.053
 9433POPC   C4A56682  25.237  20.613   7.353
 9433POPC   C1B56683  25.385  20.381   6.453
 9433POPC   C2B56684  25.423  20.453   6.753
 9433POPC   C3B56685  25.409  20.410   7.053
 9433POPC   C4B56686  25.437  20.358   7.353
 9434POPC   NC356687  18.241  43.853   5.553
 9434POPC   PO456688  18.303  43.859   5.853
 9434POPC   GL156689  18.332  43.842   6.153
 9434POPC   GL256690  18.302  43.958   6.153
 9434POPC   C1A56691  18.256  43.850   6.453
 9434POPC   D2A56692  18.330  43.863   6.753
 9434POPC   C3A56693  18.244  43.914   7.053
 9434POPC   C4A56694  18.238  43.905   7.353
 9434POPC   C1B56695  18.339  44.084   6.453
 9434POPC   C2B56696  18.414  44.081   6.753
 9434POPC   C3B56697  18.393  44.154   7.053
 9434POPC   C4B56698  18.383  44.083   7.353
 9435POPC   NC356699  31.466  39.213   5.553
 9435POPC   PO456700  31.509  39.226   5.853
 9435POPC   GL156701  31.511  39.189   6.153
 9435POPC   GL256702  31.397  39.191   6.153
 9435POPC   C1A56703  31.435  39.242   6.453
 9435POPC   D2A56704  31.437  39.203   6.753
 9435POPC   C3A56705  31.520  39.216   7.053
 9435POPC   C4A56706  31.521  39.202   7.353
 9435POPC   C1B56707  31.219  39.103   6.453
 9435POPC   C2B56708  31.235  39.111   6.753
 9435POPC   C3B56709  31.299  39.057   7.053
 9435POPC   C4B56710  31.293  39.118   7.353
 9436POPC   NC356711  44.709  33.002   5.553
 9436POPC   PO456712  44.671  33.073   5.853
 9436POPC   GL156713  44.631  33.026   6.153
 9436POPC   GL256714  44.558  32.864   6.153
 9436POPC   C1A56715  44.707  33.051   6.453
 9436POPC   D2A56716  44.639  32.984   6.753
 9436POPC   C3A56717  44.712  33.052   7.053
 9436POPC   C4A56718  44.649  33.032   7.353
 9436POPC   C1B56719  44.547  32.760   6.453
 9436POPC   C2B56720  44.550  32.755   6.753
 9436POPC   C3B56721  44.575  32.755   7.053
 9436POPC   C4B56722  44.580  32.797   7.353
 9437POPC   NC356723  22.903  43.089   5.553
 9437POPC   PO456724  22.924  43.098   5.853
 9437POPC   GL156725  22.926  43.133   6.153
 9437POPC   GL256726  23.013  43.180   6.153
 9437POPC   C1A56727  22.928  43.066   6.453
 9437POPC   D2A56728  22.976  43.123   6.753
 9437POPC   C3A56729  22.955  43.087   7.053
 9437POPC   C4A56730  22.947  43.110   7.353
 9437POPC   C1B56731  23.159  43.267   6.453
 9437POPC   C2B56732  23.192  43.275   6.753
 9437POPC   C3B56733  23.185  43.286   7.053
 9437POPC   C4B56734  23.127  43.203   7.353
 9438POPC   NC356735  43.888   9.002   5.553
 9438POPC   PO456736  43.892   8.990   5.853
 9438POPC   GL156737  43.927   8.959   6.153
 9438POPC   GL256738  43.893   8.884   6.153
 9438POPC   C1A56739  43.872   8.935   6.453
 9438POPC   D2A56740  43.930   8.978   6.753
 9438POPC   C3A56741  43.872   8.998   7.053
 9438POPC   C4A56742  43.912   8.948   7.353
 9438POPC   C1B56743  43.971   8.709   6.453
 9438POPC   C2B56744  43.936   8.768   6.753
 9438POPC   C3B56745  43.986   8.773   7.053
 9438POPC   C4B56746  43.987   8.720   7.353
 9439POPC   NC356747  17.513  43.129   5.553
 9439POPC   PO456748  17.465  43.140   5.853
 9439POPC   GL156749  17.530  43.064   6.153
 9439POPC   GL256750  17.599  43.025   6.153
 9439POPC   C1A56751  17.485  43.131   6.453
 9439POPC   D2A56752  17.493  43.099   6.753
 9439POPC   C3A56753  17.504  43.150   7.053
 9439POPC   C4A56754  17.516  43.093   7.353
 9439POPC   C1B56755  17.691  42.946   6.453
 9439POPC   C2B56756  17.604  42.856   6.753
 9439POPC   C3B56757  17.680  42.933   7.053
 9439POPC   C4B56758  17.653  42.902   7.353
 9440POPC   NC356759  25.313  19.086   5.553
 9440POPC   PO456760  25.233  19.015   5.853
 9440POPC   GL156761  25.286  19.057   6.153
 9440POPC   GL256762  25.238  18.991   6.153
 9440POPC   C1A56763  25.244  19.098   6.453
 9440POPC   D2A56764  25.255  19.023   6.753
 9440POPC   C3A56765  25.281  19.061   7.053
 9440POPC   C4A56766  25.238  19.014   7.353
 9440POPC   C1B56767  25.151  18.887   6.453
 9440POPC   C2B56768  25.135  18.871   6.753
 9440POPC   C3B56769  25.115  18.871   7.053
 9440POPC   C4B56770  25.141  18.828   7.353
 9441POPC   NC356771   6.640  21.337   5.553
 9441POPC   PO456772   6.682  21.366   5.853
 9441POPC   GL156773   6.687  21.406   6.153
 9441POPC   GL256774   6.725  21.296   6.153
 9441POPC   C1A56775   6.637  21.410   6.453
 9441POPC   D2A56776   6.607  21.390   6.753
 9441POPC   C3A56777   6.599  21.346   7.053
 9441POPC   C4A56778   6.641  21.364   7.353
 9441POPC   C1B56779   6.668  21.179   6.453
 9441POPC   C2B56780   6.752  21.152   6.753
 9441POPC   C3B56781   6.671  21.110   7.053
 9441POPC   C4B56782   6.713  21.192   7.353
 9442POPC   NC356783  20.576   1.194   5.553
 9442POPC   PO456784  20.574   1.240   5.853
 9442POPC   GL156785  20.640   1.201   6.153
 9442POPC   GL256786  20.685   1.278   6.153
 9442POPC   C1A56787  20.640   1.228   6.453
 9442POPC   D2A56788  20.612   1.237   6.753
 9442POPC   C3A56789  20.640   1.226   7.053
 9442POPC   C4A56790  20.622   1.210   7.353
 9442POPC   C1B56791  20.866   1.299   6.453
 9442POPC   C2B56792  20.826   1.285   6.753
 9442POPC   C3B56793  20.867   1.320   7.053
 9442POPC   C4B56794  20.850   1.303   7.353
 9443POPC   NC356795  34.561  26.782   5.553
 9443POPC   PO456796  34.603  26.857   5.853
 9443POPC   GL156797  34.620  26.840   6.153
 9443POPC   GL256798  34.656  26.964   6.153
 9443POPC   C1A56799  34.600  26.803   6.453
 9443POPC   D2A56800  34.610  26.791   6.753
 9443POPC   C3A56801  34.613  26.803   7.053
 9443POPC   C4A56802  34.553  26.786   7.353
 9443POPC   C1B56803  34.636  27.047   6.453
 9443POPC   C2B56804  34.635  27.070   6.753
 9443POPC   C3B56805  34.700  27.036   7.053
 9443POPC   C4B56806  34.623  27.033   7.353
 9444POPC   NC356807   9.769  41.526   5.553
 9444POPC   PO456808   9.701  41.517   5.853
 9444POPC   GL156809   9.784  41.582   6.153
 9444POPC   GL256810   9.705  41.454   6.153
 9444POPC   C1A56811   9.750  41.565   6.453
 9444POPC   D2A56812   9.784  41.553   6.753
 9444POPC   C3A56813   9.718  41.585   7.053
 9444POPC   C4A56814   9.712  41.559   7.353
 9444POPC   C1B56815   9.775  41.296   6.453
 9444POPC   C2B56816   9.683  41.301   6.753
 9444POPC   C3B56817   9.706  41.315   7.053
 9444POPC   C4B56818   9.691  41.286   7.353
 9445POPC   NC356819  16.769  19.068   5.553
 9445POPC   PO456820  16.739  19.020   5.853
 9445POPC   GL156821  16.712  19.020   6.153
 9445POPC   GL256822  16.763  18.943   6.153
 9445POPC   C1A56823  16.715  19.043   6.453
 9445POPC   D2A56824  16.702  19.098   6.753
 9445POPC   C3A56825  16.734  19.058   7.053
 9445POPC   C4A56826  16.757  19.035   7.353
 9445POPC   C1B56827  16.738  18.855   6.453
 9445POPC   C2B56828  16.732  18.804   6.753
 9445POPC   C3B56829  16.730  18.847   7.053
 9445POPC   C4B56830  16.763  18.801   7.353
 9446POPC   NC356831   5.879  13.619   5.553
 9446POPC   PO456832   5.885  13.671   5.853
 9446POPC   GL156833   5.870  13.623   6.153
 9446POPC   GL256834   5.979  13.633   6.153
 9446POPC   C1A56835   5.840  13.660   6.453
 9446POPC   D2A56836   5.869  13.602   6.753
 9446POPC   C3A56837   5.828  13.634   7.053
 9446POPC   C4A56838   5.863  13.610   7.353
 9446POPC   C1B56839   6.075  13.676   6.453
 9446POPC   C2B56840   6.081  13.717   6.753
 9446POPC   C3B56841   6.159  13.709   7.053
 9446POPC   C4B56842   6.102  13.643   7.353
 9447POPC   NC356843  10.562   2.800   5.553
 9447POPC   PO456844  10.527   2.745   5.853
 9447POPC   GL156845  10.534   2.767   6.153
 9447POPC   GL256846  10.631   2.799   6.153
 9447POPC   C1A56847  10.505   2.804   6.453
 9447POPC   D2A56848  10.493   2.758   6.753
 9447POPC   C3A56849  10.507   2.757   7.053
 9447POPC   C4A56850  10.554   2.755   7.353
 9447POPC   C1B56851  10.754   2.914   6.453
 9447POPC   C2B56852  10.739   2.920   6.753
 9447POPC   C3B56853  10.693   2.952   7.053
 9447POPC   C4B56854  10.688   2.925   7.353
 9448POPC   NC356855   8.966  15.919   5.553
 9448POPC   PO456856   9.004  15.974   5.853
 9448POPC   GL156857   8.976  15.958   6.153
 9448POPC   GL256858   8.940  15.872   6.153
 9448POPC   C1A56859   8.924  15.928   6.453
 9448POPC   D2A56860   8.954  15.991   6.753
 9448POPC   C3A56861   8.979  15.999   7.053
 9448POPC   C4A56862   8.998  15.992   7.353
 9448POPC   C1B56863   8.802  15.716   6.453
 9448POPC   C2B56864   8.794  15.716   6.753
 9448POPC   C3B56865   8.825  15.719   7.053
 9448POPC   C4B56866   8.833  15.749   7.353
 9449POPC   NC356867  32.988  19.028   5.553
 9449POPC   PO456868  32.994  19.042   5.853
 9449POPC   GL156869  33.043  19.054   6.153
 9449POPC   GL256870  32.948  19.141   6.153
 9449POPC   C1A56871  33.031  19.071   6.453
 9449POPC   D2A56872  32.981  19.020   6.753
 9449POPC   C3A56873  32.989  19.088   7.053
 9449POPC   C4A56874  33.010  19.056   7.353
 9449POPC   C1B56875  32.841  19.213   6.453
 9449POPC   C2B56876  32.866  19.218   6.753
 9449POPC   C3B56877  32.824  19.247   7.053
 9449POPC   C4B56878  32.837  19.204   7.353
 9450POPC   NC356879   2.802   1.239   5.553
 9450POPC   PO456880   2.788   1.255   5.853
 9450POPC   GL156881   2.756   1.228   6.153
 9450POPC   GL256882   2.724   1.317   6.153
 9450POPC   C1A56883   2.753   1.246   6.453
 9450POPC   D2A56884   2.779   1.199   6.753
 9450POPC   C3A56885   2.725   1.210   7.053
 9450POPC   C4A56886   2.746   1.218   7.353
 9450POPC   C1B56887   2.687   1.417   6.453
 9450POPC   C2B56888   2.746   1.432   6.753
 9450POPC   C3B56889   2.734   1.485   7.053
 9450POPC   C4B56890   2.653   1.438   7.353
 9451POPC   NC356891  11.288  12.069   5.553
 9451POPC   PO456892  11.260  12.059   5.853
 9451POPC   GL156893  11.294  12.079   6.153
 9451POPC   GL256894  11.342  11.953   6.153
 9451POPC   C1A56895  11.340  12.038   6.453
 9451POPC   D2A56896  11.285  12.117   6.753
 9451POPC   C3A56897  11.308  12.072   7.053
 9451POPC   C4A56898  11.267  12.039   7.353
 9451POPC   C1B56899  11.424  11.885   6.453
 9451POPC   C2B56900  11.445  11.872   6.753
 9451POPC   C3B56901  11.472  11.874   7.053
 9451POPC   C4B56902  11.482  11.911   7.353
 9452POPC   NC356903  42.295  42.375   5.553
 9452POPC   PO456904  42.345  42.371   5.853
 9452POPC   GL156905  42.353  42.337   6.153
 9452POPC   GL256906  42.283  42.284   6.153
 9452POPC   C1A56907  42.292  42.362   6.453
 9452POPC   D2A56908  42.294  42.298   6.753
 9452POPC   C3A56909  42.378  42.316   7.053
 9452POPC   C4A56910  42.349  42.309   7.353
 9452POPC   C1B56911  42.163  42.138   6.453
 9452POPC   C2B56912  42.172  42.142   6.753
 9452POPC   C3B56913  42.164  42.116   7.053
 9452POPC   C4B56914  42.176  42.132   7.353
 9453POPC   NC356915  26.844  12.828   5.553
 9453POPC   PO456916  26.843  12.859   5.853
 9453POPC   GL156917  26.853  12.811   6.153
 9453POPC   GL256918  26.735  12.862   6.153
 9453POPC   C1A56919  26.845  12.805   6.453
 9453POPC   D2A56920  26.775  12.813   6.753
 9453POPC   C3A56921  26.776  12.808   7.053
 9453POPC   C4A56922  26.838  12.855   7.353
 9453POPC   C1B56923  26.581  12.760   6.453
 9453POPC   C2B56924  26.545  12.791   6.753
 9453POPC   C3B56925  26.604  12.761   7.053
 9453POPC   C4B56926  26.605  12.802   7.353
 9454POPC   NC356927  22.898   3.546   5.553
 9454POPC   PO456928  22.969   3.496   5.853
 9454POPC   GL156929  22.958   3.518   6.153
 9454POPC   GL256930  23.049   3.571   6.153
 9454POPC   C1A56931  22.921   3.563   6.453
 9454POPC   D2A56932  22.977   3.554   6.753
 9454POPC   C3A56933  22.959   3.524   7.053
 9454POPC   C4A56934  22.907   3.527   7.353
 9454POPC   C1B56935  23.144   3.621   6.453
 9454POPC   C2B56936  23.165   3.608   6.753
 9454POPC   C3B56937  23.230   3.622   7.053
 9454POPC   C4B56938  23.208   3.593   7.353
 9455POPC   NC356939  40.773   2.020   5.553
 9455POPC   PO456940  40.766   1.987   5.853
 9455POPC   GL156941  40.746   1.972   6.153
 9455POPC   GL256942  40.713   1.947   6.153
 9455POPC   C1A56943  40.832   1.950   6.453
 9455POPC   D2A56944  40.824   2.005   6.753
 9455POPC   C3A56945  40.771   2.026   7.053
 9455POPC   C4A56946  40.796   2.020   7.353
 9455POPC   C1B56947  40.595   1.813   6.453
 9455POPC   C2B56948  40.582   1.831   6.753
 9455POPC   C3B56949  40.653   1.820   7.053
 9455POPC   C4B56950  40.654   1.857   7.353
 9456POPC   NC356951   1.988  39.987   5.553
 9456POPC   PO456952   2.003  40.009   5.853
 9456POPC   GL156953   1.949  40.041   6.153
 9456POPC   GL256954   2.035  39.852   6.153
 9456POPC   C1A56955   2.006  40.002   6.453
 9456POPC   D2A56956   1.969  40.032   6.753
 9456POPC   C3A56957   2.024  40.025   7.053
 9456POPC   C4A56958   1.948  40.032   7.353
 9456POPC   C1B56959   2.108  39.747   6.453
 9456POPC   C2B56960   2.043  39.726   6.753
 9456POPC   C3B56961   2.028  39.761   7.053
 9456POPC   C4B56962   2.045  39.769   7.353
 9457POPC   NC356963   9.723   6.657   5.553
 9457POPC   PO456964   9.796   6.660   5.853
 9457POPC   GL156965   9.726   6.651   6.153
 9457POPC   GL256966   9.906   6.709   6.153
 9457POPC   C1A56967   9.716   6.693   6.453
 9457POPC   D2A56968   9.722   6.678   6.753
 9457POPC   C3A56969   9.762   6.666   7.053
 9457POPC   C4A56970   9.770   6.689   7.353
 9457POPC   C1B56971   9.943   6.730   6.453
 9457POPC   C2B56972   9.976   6.706   6.753
 9457POPC   C3B56973  10.032   6.696   7.053
 9457POPC   C4B56974   9.999   6.710   7.353
 9458POPC   NC356975  10.567  44.618   5.553
 9458POPC   PO456976  10.520  44.624   5.853
 9458POPC   GL156977  10.512  44.628   6.153
 9458POPC   GL256978  10.473  44.545   6.153
 9458POPC   C1A56979  10.555  44.699   6.453
 9458POPC   D2A56980  10.492  44.690   6.753
 9458POPC   C3A56981  10.519  44.678   7.053
 9458POPC   C4A56982  10.523  44.697   7.353
 9458POPC   C1B56983  10.461  44.463   6.453
 9458POPC   C2B56984  10.422  44.435   6.753
 9458POPC   C3B56985  10.430  44.439   7.053
 9458POPC   C4B56986  10.438  44.408   7.353
 9459POPC   NC356987  26.039  26.782   5.553
 9459POPC   PO456988  26.020  26.794   5.853
 9459POPC   GL156989  26.020  26.785   6.153
 9459POPC   GL256990  26.115  26.696   6.153
 9459POPC   C1A56991  26.004  26.773   6.453
 9459POPC   D2A56992  26.091  26.814   6.753
 9459POPC   C3A56993  26.026  26.823   7.053
 9459POPC   C4A56994  26.089  26.861   7.353
 9459POPC   C1B56995  26.236  26.586   6.453
 9459POPC   C2B56996  26.197  26.624   6.753
 9459POPC   C3B56997  26.198  26.629   7.053
 9459POPC   C4B56998  26.173  26.645   7.353
 9460POPC   NC356999   8.943  13.635   5.553
 9460POPC   PO457000   8.984  13.600   5.853
 9460POPC   GL157001   8.989  13.669   6.153
 9460POPC   GL257002   9.078  13.669   6.153
 9460POPC   C1A57003   8.965  13.677   6.453
 9460POPC   D2A57004   8.976  13.642   6.753
 9460POPC   C3A57005   8.976  13.672   7.053
 9460POPC   C4A57006   9.014  13.651   7.353
 9460POPC   C1B57007   9.259  13.652   6.453
 9460POPC   C2B57008   9.205  13.632   6.753
 9460POPC   C3B57009   9.187  13.639   7.053
 9460POPC   C4B57010   9.259  13.619   7.353
 9461POPC   NC357011   1.248  19.836   5.553
 9461POPC   PO457012   1.218  19.863   5.853
 9461POPC   GL157013   1.206  19.838   6.153
 9461POPC   GL257014   1.330  19.880   6.153
 9461POPC   C1A57015   1.174  19.822   6.453
 9461POPC   D2A57016   1.259  19.838   6.753
 9461POPC   C3A57017   1.242  19.833   7.053
 9461POPC   C4A57018   1.250  19.842   7.353
 9461POPC   C1B57019   1.426  19.900   6.453
 9461POPC   C2B57020   1.440  19.849   6.753
 9461POPC   C3B57021   1.434  19.843   7.053
 9461POPC   C4B57022   1.454  19.861   7.353
 9462POPC   NC357023  41.557  15.207   5.553
 9462POPC   PO457024  41.547  15.151   5.853
 9462POPC   GL157025  41.595  15.184   6.153
 9462POPC   GL257026  41.503  15.245   6.153
 9462POPC   C1A57027  41.513  15.130   6.453
 9462POPC   D2A57028  41.589  15.199   6.753
 9462POPC   C3A57029  41.574  15.225   7.053
 9462POPC   C4A57030  41.550  15.161   7.353
 9462POPC   C1B57031  41.475  15.414   6.453
 9462POPC   C2B57032  41.443  15.372   6.753
 9462POPC   C3B57033  41.428  15.417   7.053
 9462POPC   C4B57034  41.413  15.408   7.353
 9463POPC   NC357035   7.456  25.222   5.553
 9463POPC   PO457036   7.382  25.309   5.853
 9463POPC   GL157037   7.403  25.236   6.153
 9463POPC   GL257038   7.532  25.163   6.153
 9463POPC   C1A57039   7.395  25.309   6.453
 9463POPC   D2A57040   7.412  25.230   6.753
 9463POPC   C3A57041   7.375  25.276   7.053
 9463POPC   C4A57042   7.395  25.243   7.353
 9463POPC   C1B57043   7.597  25.026   6.453
 9463POPC   C2B57044   7.582  25.007   6.753
 9463POPC   C3B57045   7.530  25.038   7.053
 9463POPC   C4B57046   7.595  25.028   7.353
 9464POPC   NC357047  18.323  16.734   5.553
 9464POPC   PO457048  18.278  16.695   5.853
 9464POPC   GL157049  18.324  16.691   6.153
 9464POPC   GL257050  18.206  16.697   6.153
 9464POPC   C1A57051  18.269  16.743   6.453
 9464POPC   D2A57052  18.250  16.686   6.753
 9464POPC   C3A57053  18.326  16.751   7.053
 9464POPC   C4A57054  18.318  16.734   7.353
 9464POPC   C1B57055  18.027  16.720   6.453
 9464POPC   C2B57056  18.005  16.695   6.753
 9464POPC   C3B57057  18.074  16.705   7.053
 9464POPC   C4B57058  18.031  16.695   7.353
 9465POPC   NC357059  38.501   4.316   5.553
 9465POPC   PO457060  38.425   4.306   5.853
 9465POPC   GL157061  38.492   4.315   6.153
 9465POPC   GL257062  38.350   4.397   6.153
 9465POPC   C1A57063  38.494   4.353   6.453
 9465POPC   D2A57064  38.409   4.359   6.753
 9465POPC   C3A57065  38.414   4.342   7.053
 9465POPC   C4A57066  38.442   4.300   7.353
 9465POPC   C1B57067  38.380   4.568   6.453
 9465POPC   C2B57068  38.294   4.487   6.753
 9465POPC   C3B57069  38.299   4.490   7.053
 9465POPC   C4B57070  38.289   4.490   7.353
 9466POPC   NC357071   4.319  19.095   5.553
 9466POPC   PO457072   4.322  19.043   5.853
 9466POPC   GL157073   4.353  19.030   6.153
 9466POPC   GL257074   4.223  19.064   6.153
 9466POPC   C1A57075   4.345  19.062   6.453
 9466POPC   D2A57076   4.356  19.033   6.753
 9466POPC   C3A57077   4.357  19.030   7.053
 9466POPC   C4A57078   4.357  19.085   7.353
 9466POPC   C1B57079   4.102  19.013   6.453
 9466POPC   C2B57080   4.103  19.033   6.753
 9466POPC   C3B57081   4.116  19.055   7.053
 9466POPC   C4B57082   4.043  19.074   7.353
 9467POPC   NC357083  18.235  34.535   5.553
 9467POPC   PO457084  18.300  34.540   5.853
 9467POPC   GL157085  18.242  34.565   6.153
 9467POPC   GL257086  18.237  34.737   6.153
 9467POPC   C1A57087  18.273  34.565   6.453
 9467POPC   D2A57088  18.331  34.554   6.753
 9467POPC   C3A57089  18.306  34.597   7.053
 9467POPC   C4A57090  18.242  34.569   7.353
 9467POPC   C1B57091  18.173  34.820   6.453
 9467POPC   C2B57092  18.222  34.846   6.753
 9467POPC   C3B57093  18.224  34.837   7.053
 9467POPC   C4B57094  18.233  34.795   7.353
 9468POPC   NC357095  43.860   7.384   5.553
 9468POPC   PO457096  43.891   7.434   5.853
 9468POPC   GL157097  43.841   7.455   6.153
 9468POPC   GL257098  44.046   7.415   6.153
 9468POPC   C1A57099  43.900   7.450   6.453
 9468POPC   D2A57100  43.934   7.441   6.753
 9468POPC   C3A57101  43.876   7.437   7.053
 9468POPC   C4A57102  43.903   7.420   7.353
 9468POPC   C1B57103  44.131   7.313   6.453
 9468POPC   C2B57104  44.109   7.304   6.753
 9468POPC   C3B57105  44.147   7.363   7.053
 9468POPC   C4B57106  44.123   7.311   7.353
 9469POPC   NC357107  15.182  26.028   5.553
 9469POPC   PO457108  15.188  26.048   5.853
 9469POPC   GL157109  15.183  26.063   6.153
 9469POPC   GL257110  15.068  25.972   6.153
 9469POPC   C1A57111  15.180  26.045   6.453
 9469POPC   D2A57112  15.159  26.000   6.753
 9469POPC   C3A57113  15.166  26.007   7.053
 9469POPC   C4A57114  15.201  26.042   7.353
 9469POPC   C1B57115  15.002  25.882   6.453
 9469POPC   C2B57116  14.934  25.904   6.753
 9469POPC   C3B57117  14.949  25.865   7.053
 9469POPC   C4B57118  15.013  25.912   7.353
 9470POPC   NC357119  24.446  39.207   5.553
 9470POPC   PO457120  24.488  39.244   5.853
 9470POPC   GL157121  24.484  39.243   6.153
 9470POPC   GL257122  24.551  39.270   6.153
 9470POPC   C1A57123  24.489  39.276   6.453
 9470POPC   D2A57124  24.443  39.265   6.753
 9470POPC   C3A57125  24.484  39.243   7.053
 9470POPC   C4A57126  24.519  39.251   7.353
 9470POPC   C1B57127  24.682  39.395   6.453
 9470POPC   C2B57128  24.673  39.397   6.753
 9470POPC   C3B57129  24.727  39.379   7.053
 9470POPC   C4B57130  24.694  39.420   7.353
 9471POPC   NC357131  34.609  25.224   5.553
 9471POPC   PO457132  34.533  25.295   5.853
 9471POPC   GL157133  34.562  25.279   6.153
 9471POPC   GL257134  34.485  25.350   6.153
 9471POPC   C1A57135  34.620  25.301   6.453
 9471POPC   D2A57136  34.617  25.304   6.753
 9471POPC   C3A57137  34.589  25.292   7.053
 9471POPC   C4A57138  34.623  25.259   7.353
 9471POPC   C1B57139  34.372  25.352   6.453
 9471POPC   C2B57140  34.349  25.307   6.753
 9471POPC   C3B57141  34.331  25.308   7.053
 9471POPC   C4B57142  34.300  25.355   7.353
 9472POPC   NC357143  38.456  25.230   5.553
 9472POPC   PO457144  38.503  25.280   5.853
 9472POPC   GL157145  38.505  25.247   6.153
 9472POPC   GL257146  38.417  25.347   6.153
 9472POPC   C1A57147  38.471  25.295   6.453
 9472POPC   D2A57148  38.468  25.315   6.753
 9472POPC   C3A57149  38.433  25.235   7.053
 9472POPC   C4A57150  38.422  25.230   7.353
 9472POPC   C1B57151  38.356  25.520   6.453
 9472POPC   C2B57152  38.393  25.549   6.753
 9472POPC   C3B57153  38.342  25.459   7.053
 9472POPC   C4B57154  38.396  25.456   7.353
 9473POPC   NC357155  36.145  21.367   5.553
 9473POPC   PO457156  36.124  21.359   5.853
 9473POPC   GL157157  36.103  21.347   6.153
 9473POPC   GL257158  36.238  21.377   6.153
 9473POPC   C1A57159  36.148  21.363   6.453
 9473POPC   D2A57160  36.134  21.434   6.753
 9473POPC   C3A57161  36.098  21.343   7.053
 9473POPC   C4A57162  36.140  21.432   7.353
 9473POPC   C1B57163  36.388  21.372   6.453
 9473POPC   C2B57164  36.353  21.376   6.753
 9473POPC   C3B57165  36.353  21.365   7.053
 9473POPC   C4B57166  36.365  21.301   7.353
 9474POPC   NC357167  30.680   7.385   5.553
 9474POPC   PO457168  30.694   7.428   5.853
 9474POPC   GL157169  30.671   7.447   6.153
 9474POPC   GL257170  30.824   7.531   6.153
 9474POPC   C1A57171  30.746   7.382   6.453
 9474POPC   D2A57172  30.668   7.439   6.753
 9474POPC   C3A57173  30.715   7.403   7.053
 9474POPC   C4A57174  30.703   7.446   7.353
 9474POPC   C1B57175  30.921   7.555   6.453
 9474POPC   C2B57176  30.902   7.561   6.753
 9474POPC   C3B57177  30.944   7.513   7.053
 9474POPC   C4B57178  30.909   7.529   7.353
 9475POPC   NC357179   4.316  36.087   5.553
 9475POPC   PO457180   4.348  36.141   5.853
 9475POPC   GL157181   4.335  36.148   6.153
 9475POPC   GL257182   4.171  36.093   6.153
 9475POPC   C1A57183   4.351  36.085   6.453
 9475POPC   D2A57184   4.346  36.118   6.753
 9475POPC   C3A57185   4.315  36.112   7.053
 9475POPC   C4A57186   4.347  36.144   7.353
 9475POPC   C1B57187   4.058  36.040   6.453
 9475POPC   C2B57188   4.103  36.037   6.753
 9475POPC   C3B57189   4.077  36.039   7.053
 9475POPC   C4B57190   4.058  36.048   7.353
 9476POPC   NC357191  23.709   0.397   5.553
 9476POPC   PO457192  23.696   0.470   5.853
 9476POPC   GL157193  23.717   0.415   6.153
 9476POPC   GL257194  23.788   0.547   6.153
 9476POPC   C1A57195  23.704   0.478   6.453
 9476POPC   D2A57196  23.737   0.413   6.753
 9476POPC   C3A57197  23.748   0.396   7.053
 9476POPC   C4A57198  23.674   0.481   7.353
 9476POPC   C1B57199  23.935   0.586   6.453
 9476POPC   C2B57200  23.927   0.630   6.753
 9476POPC   C3B57201  23.877   0.575   7.053
 9476POPC   C4B57202  23.887   0.568   7.353
 9477POPC   NC357203  19.844  29.195   5.553
 9477POPC   PO457204  19.811  29.165   5.853
 9477POPC   GL157205  19.809  29.155   6.153
 9477POPC   GL257206  19.958  29.155   6.153
 9477POPC   C1A57207  19.825  29.154   6.453
 9477POPC   D2A57208  19.869  29.160   6.753
 9477POPC   C3A57209  19.850  29.156   7.053
 9477POPC   C4A57210  19.864  29.125   7.353
 9477POPC   C1B57211  20.054  29.074   6.453
 9477POPC   C2B57212  20.048  29.104   6.753
 9477POPC   C3B57213  20.031  29.037   7.053
 9477POPC   C4B57214  20.059  29.046   7.353
 9478POPC   NC357215   7.404  15.923   5.553
 9478POPC   PO457216   7.383  15.927   5.853
 9478POPC   GL157217   7.390  15.911   6.153
 9478POPC   GL257218   7.473  15.839   6.153
 9478POPC   C1A57219   7.437  16.000   6.453
 9478POPC   D2A57220   7.387  15.988   6.753
 9478POPC   C3A57221   7.417  15.937   7.053
 9478POPC   C4A57222   7.377  15.984   7.353
 9478POPC   C1B57223   7.501  15.740   6.453
 9478POPC   C2B57224   7.426  15.689   6.753
 9478POPC   C3B57225   7.494  15.760   7.053
 9478POPC   C4B57226   7.501  15.732   7.353
 9479POPC   NC357227  34.614  39.274   5.553
 9479POPC   PO457228  34.549  39.224   5.853
 9479POPC   GL157229  34.611  39.202   6.153
 9479POPC   GL257230  34.492  39.191   6.153
 9479POPC   C1A57231  34.595  39.194   6.453
 9479POPC   D2A57232  34.531  39.279   6.753
 9479POPC   C3A57233  34.613  39.202   7.053
 9479POPC   C4A57234  34.605  39.231   7.353
 9479POPC   C1B57235  34.296  39.217   6.453
 9479POPC   C2B57236  34.329  39.200   6.753
 9479POPC   C3B57237  34.282  39.182   7.053
 9479POPC   C4B57238  34.286  39.174   7.353
 9480POPC   NC357239  18.271   5.108   5.553
 9480POPC   PO457240  18.245   5.067   5.853
 9480POPC   GL157241  18.328   5.142   6.153
 9480POPC   GL257242  18.227   4.996   6.153
 9480POPC   C1A57243  18.234   5.097   6.453
 9480POPC   D2A57244  18.301   5.113   6.753
 9480POPC   C3A57245  18.304   5.085   7.053
 9480POPC   C4A57246  18.238   5.087   7.353
 9480POPC   C1B57247  18.236   4.840   6.453
 9480POPC   C2B57248  18.227   4.828   6.753
 9480POPC   C3B57249  18.165   4.847   7.053
 9480POPC   C4B57250  18.207   4.867   7.353
 9481POPC   NC357251  26.003   8.158   5.553
 9481POPC   PO457252  26.022   8.173   5.853
 9481POPC   GL157253  26.056   8.156   6.153
 9481POPC   GL257254  26.009   8.282   6.153
 9481POPC   C1A57255  26.061   8.171   6.453
 9481POPC   D2A57256  25.992   8.203   6.753
 9481POPC   C3A57257  26.040   8.161   7.053
 9481POPC   C4A57258  26.020   8.218   7.353
 9481POPC   C1B57259  25.932   8.384   6.453
 9481POPC   C2B57260  25.951   8.384   6.753
 9481POPC   C3B57261  25.951   8.397   7.053
 9481POPC   C4B57262  25.945   8.476   7.353
 9482POPC   NC357263  33.818   0.395   5.553
 9482POPC   PO457264  33.811   0.466   5.853
 9482POPC   GL157265  33.783   0.400   6.153
 9482POPC   GL257266  33.811   0.602   6.153
 9482POPC   C1A57267  33.817   0.428   6.453
 9482POPC   D2A57268  33.833   0.443   6.753
 9482POPC   C3A57269  33.768   0.487   7.053
 9482POPC   C4A57270  33.819   0.466   7.353
 9482POPC   C1B57271  33.930   0.697   6.453
 9482POPC   C2B57272  33.889   0.688   6.753
 9482POPC   C3B57273  33.861   0.662   7.053
 9482POPC   C4B57274  33.950   0.658   7.353
 9483POPC   NC357275   1.968  26.830   5.553
 9483POPC   PO457276   1.986  26.801   5.853
 9483POPC   GL157277   1.963  26.852   6.153
 9483POPC   GL257278   2.130  26.843   6.153
 9483POPC   C1A57279   2.027  26.777   6.453
 9483POPC   D2A57280   1.979  26.821   6.753
 9483POPC   C3A57281   1.947  26.778   7.053
 9483POPC   C4A57282   1.996  26.851   7.353
 9483POPC   C1B57283   2.264  26.914   6.453
 9483POPC   C2B57284   2.226  26.901   6.753
 9483POPC   C3B57285   2.202  26.934   7.053
 9483POPC   C4B57286   2.251  26.925   7.353
 9484POPC   NC357287  35.396   5.132   5.553
 9484POPC   PO457288  35.366   5.121   5.853
 9484POPC   GL157289  35.384   5.052   6.153
 9484POPC   GL257290  35.273   5.085   6.153
 9484POPC   C1A57291  35.338   5.058   6.453
 9484POPC   D2A57292  35.375   5.110   6.753
 9484POPC   C3A57293  35.364   5.062   7.053
 9484POPC   C4A57294  35.316   5.087   7.353
 9484POPC   C1B57295  35.135   5.078   6.453
 9484POPC   C2B57296  35.143   5.030   6.753
 9484POPC   C3B57297  35.151   5.051   7.053
 9484POPC   C4B57298  35.127   5.044   7.353
 9485POPC   NC357299  42.330  27.545   5.553
 9485POPC   PO457300  42.371  27.585   5.853
 9485POPC   GL157301  42.302  27.547   6.153
 9485POPC   GL257302  42.235  27.572   6.153
 9485POPC   C1A57303  42.352  27.546   6.453
 9485POPC   D2A57304  42.359  27.599   6.753
 9485POPC   C3A57305  42.374  27.627   7.053
 9485POPC   C4A57306  42.301  27.622   7.353
 9485POPC   C1B57307  42.098  27.619   6.453
 9485POPC   C2B57308  42.133  27.659   6.753
 9485POPC   C3B57309  42.049  27.592   7.053
 9485POPC   C4B57310  42.134  27.654   7.353
 9486POPC   NC357311   0.452  13.604   5.553
 9486POPC   PO457312   0.434  13.650   5.853
 9486POPC   GL157313   0.430  13.646   6.153
 9486POPC   GL257314   0.370  13.464   6.153
 9486POPC   C1A57315   0.466  13.648   6.453
 9486POPC   D2A57316   0.394  13.665   6.753
 9486POPC   C3A57317   0.484  13.580   7.053
 9486POPC   C4A57318   0.416  13.652   7.353
 9486POPC   C1B57319   0.416  13.370   6.453
 9486POPC   C2B57320   0.356  13.356   6.753
 9486POPC   C3B57321   0.342  13.426   7.053
 9486POPC   C4B57322   0.365  13.423   7.353
 9487POPC   NC357323   0.424  23.669   5.553
 9487POPC   PO457324   0.483  23.758   5.853
 9487POPC   GL157325   0.404  23.696   6.153
 9487POPC   GL257326   0.356  23.815   6.153
 9487POPC   C1A57327   0.406  23.675   6.453
 9487POPC   D2A57328   0.472  23.688   6.753
 9487POPC   C3A57329   0.436  23.752   7.053
 9487POPC   C4A57330   0.403  23.716   7.353
 9487POPC   C1B57331   0.373  23.914   6.453
 9487POPC   C2B57332   0.353  23.954   6.753
 9487POPC   C3B57333   0.322  23.951   7.053
 9487POPC   C4B57334   0.324  23.921   7.353
 9488POPC   NC357335  15.201  30.683   5.553
 9488POPC   PO457336  15.152  30.701   5.853
 9488POPC   GL157337  15.197  30.743   6.153
 9488POPC   GL257338  15.248  30.726   6.153
 9488POPC   C1A57339  15.140  30.669   6.453
 9488POPC   D2A57340  15.161  30.738   6.753
 9488POPC   C3A57341  15.226  30.696   7.053
 9488POPC   C4A57342  15.224  30.659   7.353
 9488POPC   C1B57343  15.452  30.755   6.453
 9488POPC   C2B57344  15.455  30.780   6.753
 9488POPC   C3B57345  15.459  30.826   7.053
 9488POPC   C4B57346  15.461  30.812   7.353
 9489POPC   NC357347  22.129  22.205   5.553
 9489POPC   PO457348  22.192  22.177   5.853
 9489POPC   GL157349  22.123  22.182   6.153
 9489POPC   GL257350  22.210  22.268   6.153
 9489POPC   C1A57351  22.162  22.191   6.453
 9489POPC   D2A57352  22.202  22.148   6.753
 9489POPC   C3A57353  22.195  22.136   7.053
 9489POPC   C4A57354  22.204  22.158   7.353
 9489POPC   C1B57355  22.184  22.455   6.453
 9489POPC   C2B57356  22.208  22.450   6.753
 9489POPC   C3B57357  22.152  22.393   7.053
 9489POPC   C4B57358  22.151  22.427   7.353
 9490POPC   NC357359  43.856  34.548   5.553
 9490POPC   PO457360  43.847  34.570   5.853
 9490POPC   GL157361  43.932  34.577   6.153
 9490POPC   GL257362  43.789  34.548   6.153
 9490POPC   C1A57363  43.871  34.550   6.453
 9490POPC   D2A57364  43.927  34.559   6.753
 9490POPC   C3A57365  43.848  34.613   7.053
 9490POPC   C4A57366  43.936  34.588   7.353
 9490POPC   C1B57367  43.689  34.376   6.453
 9490POPC   C2B57368  43.701  34.383   6.753
 9490POPC   C3B57369  43.720  34.438   7.053
 9490POPC   C4B57370  43.716  34.465   7.353
 9491POPC   NC357371   1.940  18.303   5.553
 9491POPC   PO457372   1.962  18.278   5.853
 9491POPC   GL157373   2.003  18.291   6.153
 9491POPC   GL257374   2.083  18.404   6.153
 9491POPC   C1A57375   2.014  18.242   6.453
 9491POPC   D2A57376   1.993  18.305   6.753
 9491POPC   C3A57377   1.961  18.309   7.053
 9491POPC   C4A57378   2.027  18.297   7.353
 9491POPC   C1B57379   2.210  18.434   6.453
 9491POPC   C2B57380   2.181  18.508   6.753
 9491POPC   C3B57381   2.112  18.490   7.053
 9491POPC   C4B57382   2.176  18.450   7.353
 9492POPC   NC357383  26.782  36.854   5.553
 9492POPC   PO457384  26.850  36.896   5.853
 9492POPC   GL157385  26.830  36.944   6.153
 9492POPC   GL257386  26.697  36.901   6.153
 9492POPC   C1A57387  26.782  36.881   6.453
 9492POPC   D2A57388  26.861  36.879   6.753
 9492POPC   C3A57389  26.812  36.919   7.053
 9492POPC   C4A57390  26.845  36.948   7.353
 9492POPC   C1B57391  26.618  36.974   6.453
 9492POPC   C2B57392  26.589  37.024   6.753
 9492POPC   C3B57393  26.562  37.013   7.053
 9492POPC   C4B57394  26.553  37.007   7.353
 9493POPC   NC357395   5.049  43.888   5.553
 9493POPC   PO457396   5.118  43.842   5.853
 9493POPC   GL157397   5.123  43.923   6.153
 9493POPC   GL257398   5.028  43.792   6.153
 9493POPC   C1A57399   5.102  43.904   6.453
 9493POPC   D2A57400   5.112  43.851   6.753
 9493POPC   C3A57401   5.092  43.910   7.053
 9493POPC   C4A57402   5.102  43.911   7.353
 9493POPC   C1B57403   4.951  43.676   6.453
 9493POPC   C2B57404   4.933  43.674   6.753
 9493POPC   C3B57405   5.003  43.721   7.053
 9493POPC   C4B57406   4.931  43.701   7.353
 9494POPC   NC357407  37.647   1.260   5.553
 9494POPC   PO457408  37.679   1.193   5.853
 9494POPC   GL157409  37.708   1.169   6.153
 9494POPC   GL257410  37.555   1.207   6.153
 9494POPC   C1A57411  37.689   1.194   6.453
 9494POPC   D2A57412  37.655   1.165   6.753
 9494POPC   C3A57413  37.677   1.262   7.053
 9494POPC   C4A57414  37.654   1.212   7.353
 9494POPC   C1B57415  37.444   1.136   6.453
 9494POPC   C2B57416  37.478   1.125   6.753
 9494POPC   C3B57417  37.399   1.193   7.053
 9494POPC   C4B57418  37.424   1.146   7.353
 9495POPC   NC357419  17.556  42.344   5.553
 9495POPC   PO457420  17.539  42.314   5.853
 9495POPC   GL157421  17.466  42.297   6.153
 9495POPC   GL257422  17.569  42.422   6.153
 9495POPC   C1A57423  17.532  42.318   6.453
 9495POPC   D2A57424  17.526  42.328   6.753
 9495POPC   C3A57425  17.496  42.348   7.053
 9495POPC   C4A57426  17.544  42.352   7.353
 9495POPC   C1B57427  17.588  42.554   6.453
 9495POPC   C2B57428  17.538  42.550   6.753
 9495POPC   C3B57429  17.554  42.548   7.053
 9495POPC   C4B57430  17.532  42.532   7.353
 9496POPC   NC357431   6.653  38.502   5.553
 9496POPC   PO457432   6.610  38.461   5.853
 9496POPC   GL157433   6.647  38.423   6.153
 9496POPC   GL257434   6.586  38.384   6.153
 9496POPC   C1A57435   6.682  38.486   6.453
 9496POPC   D2A57436   6.683  38.444   6.753
 9496POPC   C3A57437   6.625  38.407   7.053
 9496POPC   C4A57438   6.695  38.477   7.353
 9496POPC   C1B57439   6.537  38.187   6.453
 9496POPC   C2B57440   6.511  38.220   6.753
 9496POPC   C3B57441   6.544  38.252   7.053
 9496POPC   C4B57442   6.590  38.258   7.353
 9497POPC   NC357443   5.116  13.668   5.553
 9497POPC   PO457444   5.048  13.616   5.853
 9497POPC   GL157445   5.142  13.668   6.153
 9497POPC   GL257446   5.085  13.766   6.153
 9497POPC   C1A57447   5.089  13.590   6.453
 9497POPC   D2A57448   5.078  13.649   6.753
 9497POPC   C3A57449   5.057  13.597   7.053
 9497POPC   C4A57450   5.072  13.652   7.353
 9497POPC   C1B57451   5.042  13.867   6.453
 9497POPC   C2B57452   5.019  13.831   6.753
 9497POPC   C3B57453   5.023  13.899   7.053
 9497POPC   C4B57454   5.060  13.829   7.353
 9498POPC   NC357455  12.839  43.857   5.553
 9498POPC   PO457456  12.897  43.902   5.853
 9498POPC   GL157457  12.884  43.927   6.153
 9498POPC   GL257458  12.932  43.997   6.153
 9498POPC   C1A57459  12.841  43.897   6.453
 9498POPC   D2A57460  12.864  43.851   6.753
 9498POPC   C3A57461  12.840  43.853   7.053
 9498POPC   C4A57462  12.895  43.872   7.353
 9498POPC   C1B57463  13.001  44.108   6.453
 9498POPC   C2B57464  13.017  44.094   6.753
 9498POPC   C3B57465  12.946  44.110   7.053
 9498POPC   C4B57466  12.946  44.085   7.353
 9499POPC   NC357467  15.227  29.099   5.553
 9499POPC   PO457468  15.212  29.165   5.853
 9499POPC   GL157469  15.229  29.106   6.153
 9499POPC   GL257470  15.021  29.213   6.153
 9499POPC   C1A57471  15.221  29.183   6.453
 9499POPC   D2A57472  15.158  29.190   6.753
 9499POPC   C3A57473  15.195  29.162   7.053
 9499POPC   C4A57474  15.180  29.175   7.353
 9499POPC   C1B57475  14.938  29.235   6.453
 9499POPC   C2B57476  14.984  29.278   6.753
 9499POPC   C3B57477  14.962  29.213   7.053
 9499POPC   C4B57478  14.964  29.254   7.353
 9500POPC   NC357479   7.394  41.590   5.553
 9500POPC   PO457480   7.390  41.538   5.853
 9500POPC   GL157481   7.429  41.523   6.153
 9500POPC   GL257482   7.558  41.548   6.153
 9500POPC   C1A57483   7.433  41.573   6.453
 9500POPC   D2A57484   7.463  41.576   6.753
 9500POPC   C3A57485   7.466  41.549   7.053
 9500POPC   C4A57486   7.460  41.518   7.353
 9500POPC   C1B57487   7.635  41.622   6.453
 9500POPC   C2B57488   7.677  41.551   6.753
 9500POPC   C3B57489   7.649  41.606   7.053
 9500POPC   C4B57490   7.701  41.609   7.353
 9501POPC   NC357491  32.264   7.441   5.553
 9501POPC   PO457492  32.267   7.407   5.853
 9501POPC   GL157493  32.239   7.390   6.153
 9501POPC   GL257494  32.321   7.454   6.153
 9501POPC   C1A57495  32.224   7.389   6.453
 9501POPC   D2A57496  32.237   7.379   6.753
 9501POPC   C3A57497  32.271   7.388   7.053
 9501POPC   C4A57498  32.286   7.402   7.353
 9501POPC   C1B57499  32.430   7.511   6.453
 9501POPC   C2B57500  32.449   7.512   6.753
 9501POPC   C3B57501  32.450   7.498   7.053
 9501POPC   C4B57502  32.475   7.561   7.353
 9502POPC   NC357503   8.193  44.619   5.553
 9502POPC   PO457504   8.202  44.637   5.853
 9502POPC   GL157505   8.170  44.656   6.153
 9502POPC   GL257506   8.212  44.783   6.153
 9502POPC   C1A57507   8.161  44.651   6.453
 9502POPC   D2A57508   8.149  44.679   6.753
 9502POPC   C3A57509   8.202  44.703   7.053
 9502POPC   C4A57510   8.163  44.643   7.353
 9502POPC   C1B57511   8.241  44.863   6.453
 9502POPC   C2B57512   8.180  44.940   6.753
 9502POPC   C3B57513   8.258  44.879   7.053
 9502POPC   C4B57514   8.184  44.919   7.353
 9503POPC   NC357515  39.272  14.387   5.553
 9503POPC   PO457516  39.213  14.438   5.853
 9503POPC   GL157517  39.183  14.448   6.153
 9503POPC   GL257518  39.087  14.492   6.153
 9503POPC   C1A57519  39.275  14.413   6.453
 9503POPC   D2A57520  39.279  14.371   6.753
 9503POPC   C3A57521  39.246  14.406   7.053
 9503POPC   C4A57522  39.203  14.419   7.353
 9503POPC   C1B57523  38.980  14.518   6.453
 9503POPC   C2B57524  38.984  14.511   6.753
 9503POPC   C3B57525  39.034  14.473   7.053
 9503POPC   C4B57526  38.977  14.469   7.353
 9504POPC   NC357527  15.994  22.163   5.553
 9504POPC   PO457528  15.957  22.178   5.853
 9504POPC   GL157529  15.937  22.138   6.153
 9504POPC   GL257530  15.960  22.053   6.153
 9504POPC   C1A57531  15.993  22.131   6.453
 9504POPC   D2A57532  15.907  22.173   6.753
 9504POPC   C3A57533  15.991  22.121   7.053
 9504POPC   C4A57534  15.933  22.133   7.353
 9504POPC   C1B57535  15.903  21.942   6.453
 9504POPC   C2B57536  15.935  21.968   6.753
 9504POPC   C3B57537  15.927  21.944   7.053
 9504POPC   C4B57538  15.934  21.906   7.353
 9505POPC   NC357539   3.566   4.304   5.553
 9505POPC   PO457540   3.505   4.346   5.853
 9505POPC   GL157541   3.541   4.278   6.153
 9505POPC   GL257542   3.639   4.325   6.153
 9505POPC   C1A57543   3.554   4.365   6.453
 9505POPC   D2A57544   3.576   4.293   6.753
 9505POPC   C3A57545   3.546   4.360   7.053
 9505POPC   C4A57546   3.548   4.315   7.353
 9505POPC   C1B57547   3.732   4.289   6.453
 9505POPC   C2B57548   3.820   4.291   6.753
 9505POPC   C3B57549   3.809   4.291   7.053
 9505POPC   C4B57550   3.792   4.196   7.353
 9506POPC   NC357551  31.515  20.609   5.553
 9506POPC   PO457552  31.440  20.626   5.853
 9506POPC   GL157553  31.454  20.639   6.153
 9506POPC   GL257554  31.629  20.659   6.153
 9506POPC   C1A57555  31.469  20.639   6.453
 9506POPC   D2A57556  31.454  20.624   6.753
 9506POPC   C3A57557  31.433  20.623   7.053
 9506POPC   C4A57558  31.424  20.568   7.353
 9506POPC   C1B57559  31.702  20.696   6.453
 9506POPC   C2B57560  31.669  20.710   6.753
 9506POPC   C3B57561  31.673  20.736   7.053
 9506POPC   C4B57562  31.664  20.696   7.353
 9507POPC   NC357563   9.740   5.918   5.553
 9507POPC   PO457564   9.770   5.915   5.853
 9507POPC   GL157565   9.707   5.832   6.153
 9507POPC   GL257566   9.674   5.908   6.153
 9507POPC   C1A57567   9.733   5.874   6.453
 9507POPC   D2A57568   9.714   5.819   6.753
 9507POPC   C3A57569   9.777   5.894   7.053
 9507POPC   C4A57570   9.756   5.918   7.353
 9507POPC   C1B57571   9.554   6.068   6.453
 9507POPC   C2B57572   9.564   6.008   6.753
 9507POPC   C3B57573   9.529   6.034   7.053
 9507POPC   C4B57574   9.540   6.062   7.353
 9508POPC   NC357575  35.357  16.690   5.553
 9508POPC   PO457576  35.340  16.753   5.853
 9508POPC   GL157577  35.365  16.745   6.153
 9508POPC   GL257578  35.449  16.717   6.153
 9508POPC   C1A57579  35.379  16.777   6.453
 9508POPC   D2A57580  35.378  16.704   6.753
 9508POPC   C3A57581  35.399  16.720   7.053
 9508POPC   C4A57582  35.398  16.751   7.353
 9508POPC   C1B57583  35.607  16.707   6.453
 9508POPC   C2B57584  35.628  16.739   6.753
 9508POPC   C3B57585  35.582  16.734   7.053
 9508POPC   C4B57586  35.599  16.762   7.353
 9509POPC   NC357587  19.018  15.204   5.553
 9509POPC   PO457588  19.072  15.203   5.853
 9509POPC   GL157589  19.053  15.187   6.153
 9509POPC   GL257590  19.118  15.048   6.153
 9509POPC   C1A57591  19.066  15.185   6.453
 9509POPC   D2A57592  19.057  15.202   6.753
 9509POPC   C3A57593  19.107  15.147   7.053
 9509POPC   C4A57594  19.021  15.200   7.353
 9509POPC   C1B57595  19.161  14.954   6.453
 9509POPC   C2B57596  19.145  15.006   6.753
 9509POPC   C3B57597  19.177  14.934   7.053
 9509POPC   C4B57598  19.225  14.964   7.353
 9510POPC   NC357599  29.184   1.211   5.553
 9510POPC   PO457600  29.143   1.232   5.853
 9510POPC   GL157601  29.099   1.168   6.153
 9510POPC   GL257602  29.044   1.128   6.153
 9510POPC   C1A57603  29.154   1.259   6.453
 9510POPC   D2A57604  29.147   1.166   6.753
 9510POPC   C3A57605  29.098   1.216   7.053
 9510POPC   C4A57606  29.134   1.226   7.353
 9510POPC   C1B57607  29.050   1.003   6.453
 9510POPC   C2B57608  29.013   1.033   6.753
 9510POPC   C3B57609  28.969   0.969   7.053
 9510POPC   C4B57610  29.032   1.054   7.353
 9511POPC   NC357611  43.890   1.971   5.553
 9511POPC   PO457612  43.899   1.975   5.853
 9511POPC   GL157613  43.846   2.029   6.153
 9511POPC   GL257614  43.850   1.876   6.153
 9511POPC   C1A57615  43.885   2.030   6.453
 9511POPC   D2A57616  43.874   2.000   6.753
 9511POPC   C3A57617  43.914   1.965   7.053
 9511POPC   C4A57618  43.886   1.971   7.353
 9511POPC   C1B57619  43.867   1.776   6.453
 9511POPC   C2B57620  43.887   1.748   6.753
 9511POPC   C3B57621  43.804   1.723   7.053
 9511POPC   C4B57622  43.884   1.792   7.353
 9512POPC   NC357623  26.074  11.338   5.553
 9512POPC   PO457624  26.045  11.348   5.853
 9512POPC   GL157625  26.025  11.265   6.153
 9512POPC   GL257626  26.044  11.461   6.153
 9512POPC   C1A57627  26.065  11.255   6.453
 9512POPC   D2A57628  26.085  11.342   6.753
 9512POPC   C3A57629  26.046  11.308   7.053
 9512POPC   C4A57630  26.014  11.308   7.353
 9512POPC   C1B57631  26.019  11.536   6.453
 9512POPC   C2B57632  26.065  11.582   6.753
 9512POPC   C3B57633  26.016  11.571   7.053
 9512POPC   C4B57634  26.016  11.508   7.353
 9513POPC   NC357635  30.683   1.205   5.553
 9513POPC   PO457636  30.723   1.171   5.853
 9513POPC   GL157637  30.741   1.228   6.153
 9513POPC   GL257638  30.663   1.366   6.153
 9513POPC   C1A57639  30.653   1.225   6.453
 9513POPC   D2A57640  30.726   1.170   6.753
 9513POPC   C3A57641  30.679   1.165   7.053
 9513POPC   C4A57642  30.670   1.231   7.353
 9513POPC   C1B57643  30.564   1.414   6.453
 9513POPC   C2B57644  30.555   1.459   6.753
 9513POPC   C3B57645  30.511   1.455   7.053
 9513POPC   C4B57646  30.582   1.410   7.353
 9514POPC   NC357647  32.985  20.613   5.553
 9514POPC   PO457648  32.983  20.597   5.853
 9514POPC   GL157649  33.060  20.641   6.153
 9514POPC   GL257650  32.973  20.659   6.153
 9514POPC   C1A57651  33.070  20.564   6.453
 9514POPC   D2A57652  33.034  20.591   6.753
 9514POPC   C3A57653  33.070  20.650   7.053
 9514POPC   C4A57654  33.033  20.658   7.353
 9514POPC   C1B57655  32.878  20.752   6.453
 9514POPC   C2B57656  32.874  20.821   6.753
 9514POPC   C3B57657  32.850  20.752   7.053
 9514POPC   C4B57658  32.869  20.758   7.353
 9515POPC   NC357659  17.493  29.875   5.553
 9515POPC   PO457660  17.538  29.967   5.853
 9515POPC   GL157661  17.479  29.871   6.153
 9515POPC   GL257662  17.413  29.909   6.153
 9515POPC   C1A57663  17.530  29.964   6.453
 9515POPC   D2A57664  17.534  29.943   6.753
 9515POPC   C3A57665  17.519  29.905   7.053
 9515POPC   C4A57666  17.464  29.958   7.353
 9515POPC   C1B57667  17.313  29.838   6.453
 9515POPC   C2B57668  17.242  29.865   6.753
 9515POPC   C3B57669  17.306  29.806   7.053
 9515POPC   C4B57670  17.277  29.864   7.353
 9516POPC   NC357671  34.564  34.609   5.553
 9516POPC   PO457672  34.580  34.623   5.853
 9516POPC   GL157673  34.566  34.599   6.153
 9516POPC   GL257674  34.501  34.531   6.153
 9516POPC   C1A57675  34.610  34.579   6.453
 9516POPC   D2A57676  34.582  34.603   6.753
 9516POPC   C3A57677  34.595  34.528   7.053
 9516POPC   C4A57678  34.572  34.563   7.353
 9516POPC   C1B57679  34.356  34.510   6.453
 9516POPC   C2B57680  34.316  34.565   6.753
 9516POPC   C3B57681  34.313  34.580   7.053
 9516POPC   C4B57682  34.373  34.557   7.353
 9517POPC   NC357683  18.323  30.661   5.553
 9517POPC   PO457684  18.266  30.740   5.853
 9517POPC   GL157685  18.234  30.733   6.153
 9517POPC   GL257686  18.422  30.585   6.153
 9517POPC   C1A57687  18.283  30.702   6.453
 9517POPC   D2A57688  18.257  30.712   6.753
 9517POPC   C3A57689  18.318  30.652   7.053
 9517POPC   C4A57690  18.302  30.737   7.353
 9517POPC   C1B57691  18.416  30.493   6.453
 9517POPC   C2B57692  18.504  30.552   6.753
 9517POPC   C3B57693  18.504  30.496   7.053
 9517POPC   C4B57694  18.499  30.560   7.353
 9518POPC   NC357695   2.798  11.274   5.553
 9518POPC   PO457696   2.787  11.317   5.853
 9518POPC   GL157697   2.814  11.317   6.153
 9518POPC   GL257698   2.760  11.129   6.153
 9518POPC   C1A57699   2.731  11.325   6.453
 9518POPC   D2A57700   2.739  11.322   6.753
 9518POPC   C3A57701   2.726  11.288   7.053
 9518POPC   C4A57702   2.801  11.334   7.353
 9518POPC   C1B57703   2.786  11.089   6.453
 9518POPC   C2B57704   2.758  11.030   6.753
 9518POPC   C3B57705   2.770  11.043   7.053
 9518POPC   C4B57706   2.779  11.012   7.353
 9519POPC   NC357707   4.271   9.734   5.553
 9519POPC   PO457708   4.321   9.760   5.853
 9519POPC   GL157709   4.333   9.795   6.153
 9519POPC   GL257710   4.240   9.819   6.153
 9519POPC   C1A57711   4.345   9.735   6.453
 9519POPC   D2A57712   4.276   9.764   6.753
 9519POPC   C3A57713   4.319   9.775   7.053
 9519POPC   C4A57714   4.342   9.731   7.353
 9519POPC   C1B57715   4.258   9.962   6.453
 9519POPC   C2B57716   4.230   9.965   6.753
 9519POPC   C3B57717   4.197   9.954   7.053
 9519POPC   C4B57718   4.161   9.946   7.353
 9520POPC   NC357719   9.010  42.375   5.553
 9520POPC   PO457720   8.995  42.346   5.853
 9520POPC   GL157721   9.010  42.373   6.153
 9520POPC   GL257722   8.870  42.342   6.153
 9520POPC   C1A57723   8.931  42.310   6.453
 9520POPC   D2A57724   8.977  42.298   6.753
 9520POPC   C3A57725   9.019  42.356   7.053
 9520POPC   C4A57726   8.986  42.309   7.353
 9520POPC   C1B57727   8.770  42.321   6.453
 9520POPC   C2B57728   8.722  42.332   6.753
 9520POPC   C3B57729   8.683  42.321   7.053
 9520POPC   C4B57730   8.680  42.307   7.353
 9521POPC   NC357731   5.131  29.928   5.553
 9521POPC   PO457732   5.131  29.900   5.853
 9521POPC   GL157733   5.112  29.905   6.153
 9521POPC   GL257734   5.191  29.862   6.153
 9521POPC   C1A57735   5.107  29.888   6.453
 9521POPC   D2A57736   5.103  29.942   6.753
 9521POPC   C3A57737   5.122  29.916   7.053
 9521POPC   C4A57738   5.098  29.933   7.353
 9521POPC   C1B57739   5.267  29.739   6.453
 9521POPC   C2B57740   5.249  29.787   6.753
 9521POPC   C3B57741   5.328  29.765   7.053
 9521POPC   C4B57742   5.307  29.736   7.353
 9522POPC   NC357743  29.192  43.082   5.553
 9522POPC   PO457744  29.108  43.101   5.853
 9522POPC   GL157745  29.103  43.129   6.153
 9522POPC   GL257746  28.992  43.053   6.153
 9522POPC   C1A57747  29.155  43.067   6.453
 9522POPC   D2A57748  29.182  43.087   6.753
 9522POPC   C3A57749  29.119  43.153   7.053
 9522POPC   C4A57750  29.149  43.076   7.353
 9522POPC   C1B57751  28.891  42.957   6.453
 9522POPC   C2B57752  28.876  42.959   6.753
 9522POPC   C3B57753  28.883  42.959   7.053
 9522POPC   C4B57754  28.887  43.041   7.353
 9523POPC   NC357755  27.617  43.077   5.553
 9523POPC   PO457756  27.606  43.082   5.853
 9523POPC   GL157757  27.638  43.107   6.153
 9523POPC   GL257758  27.596  43.197   6.153
 9523POPC   C1A57759  27.603  43.114   6.453
 9523POPC   D2A57760  27.548  43.132   6.753
 9523POPC   C3A57761  27.546  43.141   7.053
 9523POPC   C4A57762  27.570  43.096   7.353
 9523POPC   C1B57763  27.673  43.328   6.453
 9523POPC   C2B57764  27.736  43.342   6.753
 9523POPC   C3B57765  27.646  43.364   7.053
 9523POPC   C4B57766  27.648  43.338   7.353
 9524POPC   NC357767  39.258  29.128   5.553
 9524POPC   PO457768  39.251  29.099   5.853
 9524POPC   GL157769  39.239  29.164   6.153
 9524POPC   GL257770  39.373  29.108   6.153
 9524POPC   C1A57771  39.230  29.161   6.453
 9524POPC   D2A57772  39.256  29.112   6.753
 9524POPC   C3A57773  39.234  29.129   7.053
 9524POPC   C4A57774  39.194  29.156   7.353
 9524POPC   C1B57775  39.480  29.049   6.453
 9524POPC   C2B57776  39.518  29.108   6.753
 9524POPC   C3B57777  39.518  29.108   7.053
 9524POPC   C4B57778  39.463  29.047   7.353
 9525POPC   NC357779  37.670  10.544   5.553
 9525POPC   PO457780  37.692  10.516   5.853
 9525POPC   GL157781  37.711  10.558   6.153
 9525POPC   GL257782  37.601  10.385   6.153
 9525POPC   C1A57783  37.713  10.543   6.453
 9525POPC   D2A57784  37.647  10.515   6.753
 9525POPC   C3A57785  37.692  10.515   7.053
 9525POPC   C4A57786  37.720  10.509   7.353
 9525POPC   C1B57787  37.493  10.384   6.453
 9525POPC   C2B57788  37.537  10.299   6.753
 9525POPC   C3B57789  37.477  10.291   7.053
 9525POPC   C4B57790  37.504  10.305   7.353
 9526POPC   NC357791   1.192  28.392   5.553
 9526POPC   PO457792   1.183  28.347   5.853
 9526POPC   GL157793   1.211  28.382   6.153
 9526POPC   GL257794   1.309  28.390   6.153
 9526POPC   C1A57795   1.208  28.374   6.453
 9526POPC   D2A57796   1.191  28.340   6.753
 9526POPC   C3A57797   1.226  28.406   7.053
 9526POPC   C4A57798   1.261  28.381   7.353
 9526POPC   C1B57799   1.418  28.445   6.453
 9526POPC   C2B57800   1.414  28.452   6.753
 9526POPC   C3B57801   1.388  28.510   7.053
 9526POPC   C4B57802   1.395  28.476   7.353
 9527POPC   NC357803  19.855  31.476   5.553
 9527POPC   PO457804  19.876  31.425   5.853
 9527POPC   GL157805  19.871  31.447   6.153
 9527POPC   GL257806  19.773  31.558   6.153
 9527POPC   C1A57807  19.864  31.469   6.453
 9527POPC   D2A57808  19.865  31.465   6.753
 9527POPC   C3A57809  19.838  31.489   7.053
 9527POPC   C4A57810  19.835  31.468   7.353
 9527POPC   C1B57811  19.748  31.698   6.453
 9527POPC   C2B57812  19.763  31.677   6.753
 9527POPC   C3B57813  19.683  31.684   7.053
 9527POPC   C4B57814  19.687  31.740   7.353
 9528POPC   NC357815  17.548   4.278   5.553
 9528POPC   PO457816  17.477   4.285   5.853
 9528POPC   GL157817  17.523   4.296   6.153
 9528POPC   GL257818  17.415   4.262   6.153
 9528POPC   C1A57819  17.503   4.341   6.453
 9528POPC   D2A57820  17.459   4.343   6.753
 9528POPC   C3A57821  17.532   4.295   7.053
 9528POPC   C4A57822  17.535   4.273   7.353
 9528POPC   C1B57823  17.396   4.148   6.453
 9528POPC   C2B57824  17.392   4.138   6.753
 9528POPC   C3B57825  17.411   4.142   7.053
 9528POPC   C4B57826  17.357   4.094   7.353
 9529POPC   NC357827  19.067  34.587   5.553
 9529POPC   PO457828  19.073  34.538   5.853
 9529POPC   GL157829  19.108  34.576   6.153
 9529POPC   GL257830  19.168  34.567   6.153
 9529POPC   C1A57831  19.048  34.557   6.453
 9529POPC   D2A57832  19.037  34.553   6.753
 9529POPC   C3A57833  19.046  34.597   7.053
 9529POPC   C4A57834  19.057  34.552   7.353
 9529POPC   C1B57835  19.244  34.478   6.453
 9529POPC   C2B57836  19.267  34.507   6.753
 9529POPC   C3B57837  19.323  34.457   7.053
 9529POPC   C4B57838  19.309  34.509   7.353
 9530POPC   NC357839   5.855  12.804   5.553
 9530POPC   PO457840   5.837  12.878   5.853
 9530POPC   GL157841   5.871  12.901   6.153
 9530POPC   GL257842   5.914  12.744   6.153
 9530POPC   C1A57843   5.908  12.836   6.453
 9530POPC   D2A57844   5.883  12.881   6.753
 9530POPC   C3A57845   5.832  12.887   7.053
 9530POPC   C4A57846   5.884  12.888   7.353
 9530POPC   C1B57847   5.886  12.660   6.453
 9530POPC   C2B57848   5.947  12.630   6.753
 9530POPC   C3B57849   5.953  12.627   7.053
 9530POPC   C4B57850   5.911  12.578   7.353
 9531POPC   NC357851  38.436  36.871   5.553
 9531POPC   PO457852  38.475  36.916   5.853
 9531POPC   GL157853  38.417  36.922   6.153
 9531POPC   GL257854  38.414  36.773   6.153
 9531POPC   C1A57855  38.453  36.910   6.453
 9531POPC   D2A57856  38.477  36.912   6.753
 9531POPC   C3A57857  38.427  36.881   7.053
 9531POPC   C4A57858  38.505  36.912   7.353
 9531POPC   C1B57859  38.294  36.735   6.453
 9531POPC   C2B57860  38.380  36.644   6.753
 9531POPC   C3B57861  38.369  36.717   7.053
 9531POPC   C4B57862  38.285  36.705   7.353
 9532POPC   NC357863  34.557  22.915   5.553
 9532POPC   PO457864  34.600  22.982   5.853
 9532POPC   GL157865  34.581  22.942   6.153
 9532POPC   GL257866  34.447  23.056   6.153
 9532POPC   C1A57867  34.582  22.932   6.453
 9532POPC   D2A57868  34.607  22.908   6.753
 9532POPC   C3A57869  34.533  22.917   7.053
 9532POPC   C4A57870  34.580  22.902   7.353
 9532POPC   C1B57871  34.354  23.115   6.453
 9532POPC   C2B57872  34.350  23.044   6.753
 9532POPC   C3B57873  34.405  23.104   7.053
 9532POPC   C4B57874  34.324  23.067   7.353
 9533POPC   NC357875  32.985  29.144   5.553
 9533POPC   PO457876  33.051  29.156   5.853
 9533POPC   GL157877  33.073  29.136   6.153
 9533POPC   GL257878  33.143  29.192   6.153
 9533POPC   C1A57879  33.068  29.111   6.453
 9533POPC   D2A57880  33.058  29.148   6.753
 9533POPC   C3A57881  33.057  29.132   7.053
 9533POPC   C4A57882  32.993  29.188   7.353
 9533POPC   C1B57883  33.265  29.191   6.453
 9533POPC   C2B57884  33.280  29.186   6.753
 9533POPC   C3B57885  33.293  29.152   7.053
 9533POPC   C4B57886  33.278  29.183   7.353
 9534POPC   NC357887  38.447  10.489   5.553
 9534POPC   PO457888  38.458  10.502   5.853
 9534POPC   GL157889  38.492  10.526   6.153
 9534POPC   GL257890  38.287  10.509   6.153
 9534POPC   C1A57891  38.409  10.544   6.453
 9534POPC   D2A57892  38.488  10.535   6.753
 9534POPC   C3A57893  38.420  10.487   7.053
 9534POPC   C4A57894  38.486  10.483   7.353
 9534POPC   C1B57895  38.189  10.485   6.453
 9534POPC   C2B57896  38.199  10.523   6.753
 9534POPC   C3B57897  38.166  10.506   7.053
 9534POPC   C4B57898  38.225  10.470   7.353
 9535POPC   NC357899  43.105  25.293   5.553
 9535POPC   PO457900  43.153  25.260   5.853
 9535POPC   GL157901  43.081  25.274   6.153
 9535POPC   GL257902  43.121  25.180   6.153
 9535POPC   C1A57903  43.147  25.224   6.453
 9535POPC   D2A57904  43.129  25.271   6.753
 9535POPC   C3A57905  43.136  25.230   7.053
 9535POPC   C4A57906  43.088  25.269   7.353
 9535POPC   C1B57907  43.088  25.002   6.453
 9535POPC   C2B57908  43.034  25.025   6.753
 9535POPC   C3B57909  43.082  25.030   7.053
 9535POPC   C4B57910  43.000  25.007   7.353
 9536POPC   NC357911   2.005  20.601   5.553
 9536POPC   PO457912   2.031  20.597   5.853
 9536POPC   GL157913   1.969  20.634   6.153
 9536POPC   GL257914   2.000  20.474   6.153
 9536POPC   C1A57915   1.968  20.648   6.453
 9536POPC   D2A57916   1.944  20.596   6.753
 9536POPC   C3A57917   2.006  20.635   7.053
 9536POPC   C4A57918   1.954  20.582   7.353
 9536POPC   C1B57919   2.043  20.398   6.453
 9536POPC   C2B57920   2.052  20.336   6.753
 9536POPC   C3B57921   2.055  20.385   7.053
 9536POPC   C4B57922   2.126  20.370   7.353
 9537POPC   NC357923   0.466   9.788   5.553
 9537POPC   PO457924   0.424   9.771   5.853
 9537POPC   GL157925   0.438   9.739   6.153
 9537POPC   GL257926   0.421   9.848   6.153
 9537POPC   C1A57927   0.448   9.726   6.453
 9537POPC   D2A57928   0.418   9.720   6.753
 9537POPC   C3A57929   0.394   9.716   7.053
 9537POPC   C4A57930   0.392   9.719   7.353
 9537POPC   C1B57931   0.454  10.018   6.453
 9537POPC   C2B57932   0.408  10.013   6.753
 9537POPC   C3B57933   0.465   9.977   7.053
 9537POPC   C4B57934   0.436  10.024   7.353
 9538POPC   NC357935  44.668  28.386   5.553
 9538POPC   PO457936  44.662  28.373   5.853
 9538POPC   GL157937  44.692  28.394   6.153
 9538POPC   GL257938  44.668  28.471   6.153
 9538POPC   C1A57939  44.616  28.348   6.453
 9538POPC   D2A57940  44.695  28.388   6.753
 9538POPC   C3A57941  44.635  28.371   7.053
 9538POPC   C4A57942  44.644  28.354   7.353
 9538POPC   C1B57943  44.562  28.655   6.453
 9538POPC   C2B57944  44.625  28.594   6.753
 9538POPC   C3B57945  44.641  28.576   7.053
 9538POPC   C4B57946  44.574  28.608   7.353
 9539POPC   NC357947  36.854  32.238   5.553
 9539POPC   PO457948  36.899  32.248   5.853
 9539POPC   GL157949  36.940  32.234   6.153
 9539POPC   GL257950  36.935  32.401   6.153
 9539POPC   C1A57951  36.896  32.250   6.453
 9539POPC   D2A57952  36.933  32.203   6.753
 9539POPC   C3A57953  36.878  32.275   7.053
 9539POPC   C4A57954  36.938  32.296   7.353
 9539POPC   C1B57955  37.031  32.461   6.453
 9539POPC   C2B57956  37.048  32.423   6.753
 9539POPC   C3B57957  37.027  32.471   7.053
 9539POPC   C4B57958  37.088  32.451   7.353
 9540POPC   NC357959   8.939  39.989   5.553
 9540POPC   PO457960   9.018  40.049   5.853
 9540POPC   GL157961   8.956  40.014   6.153
 9540POPC   GL257962   9.136  39.995   6.153
 9540POPC   C1A57963   9.010  40.040   6.453
 9540POPC   D2A57964   8.993  40.032   6.753
 9540POPC   C3A57965   9.013  40.019   7.053
 9540POPC   C4A57966   8.963  40.000   7.353
 9540POPC   C1B57967   9.225  40.063   6.453
 9540POPC   C2B57968   9.261  40.025   6.753
 9540POPC   C3B57969   9.252  40.109   7.053
 9540POPC   C4B57970   9.229  40.093   7.353
 9541POPC   NC357971  37.635   5.868   5.553
 9541POPC   PO457972  37.656   5.830   5.853
 9541POPC   GL157973  37.666   5.911   6.153
 9541POPC   GL257974  37.727   5.957   6.153
 9541POPC   C1A57975  37.644   5.918   6.453
 9541POPC   D2A57976  37.662   5.849   6.753
 9541POPC   C3A57977  37.709   5.822   7.053
 9541POPC   C4A57978  37.706   5.885   7.353
 9541POPC   C1B57979  37.693   6.086   6.453
 9541POPC   C2B57980  37.729   6.075   6.753
 9541POPC   C3B57981  37.653   6.160   7.053
 9541POPC   C4B57982  37.654   6.070   7.353
 9542POPC   NC357983  19.011  32.236   5.553
 9542POPC   PO457984  19.083  32.243   5.853
 9542POPC   GL157985  19.027  32.257   6.153
 9542POPC   GL257986  19.034  32.135   6.153
 9542POPC   C1A57987  19.039  32.285   6.453
 9542POPC   D2A57988  19.019  32.288   6.753
 9542POPC   C3A57989  19.071  32.287   7.053
 9542POPC   C4A57990  19.069  32.291   7.353
 9542POPC   C1B57991  19.030  32.047   6.453
 9542POPC   C2B57992  19.076  31.983   6.753
 9542POPC   C3B57993  19.090  31.971   7.053
 9542POPC   C4B57994  19.099  32.015   7.353
 9543POPC   NC357995  22.176   1.213   5.553
 9543POPC   PO457996  22.130   1.243   5.853
 9543POPC   GL157997  22.186   1.246   6.153
 9543POPC   GL257998  22.043   1.218   6.153
 9543POPC   C1A57999  22.181   1.261   6.453
 9543POPC   D2A58000  22.160   1.177   6.753
 9543POPC   C3A58001  22.167   1.253   7.053
 9543POPC   C4A58002  22.127   1.233   7.353
 9543POPC   C1B58003  21.953   1.179   6.453
 9543POPC   C2B58004  21.881   1.213   6.753
 9543POPC   C3B58005  21.902   1.207   7.053
 9543POPC   C4B58006  21.869   1.219   7.353
 9544POPC   NC358007  24.447  22.942   5.553
 9544POPC   PO458008  24.535  22.983   5.853
 9544POPC   GL158009  24.513  22.894   6.153
 9544POPC   GL258010  24.460  22.818   6.153
 9544POPC   C1A58011  24.477  22.926   6.453
 9544POPC   D2A58012  24.496  22.955   6.753
 9544POPC   C3A58013  24.454  22.975   7.053
 9544POPC   C4A58014  24.453  22.915   7.353
 9544POPC   C1B58015  24.462  22.720   6.453
 9544POPC   C2B58016  24.435  22.707   6.753
 9544POPC   C3B58017  24.440  22.729   7.053
 9544POPC   C4B58018  24.436  22.740   7.353
 9545POPC   NC358019  21.381  41.567   5.553
 9545POPC   PO458020  21.373  41.578   5.853
 9545POPC   GL158021  21.354  41.520   6.153
 9545POPC   GL258022  21.404  41.724   6.153
 9545POPC   C1A58023  21.345  41.572   6.453
 9545POPC   D2A58024  21.357  41.571   6.753
 9545POPC   C3A58025  21.363  41.548   7.053
 9545POPC   C4A58026  21.434  41.604   7.353
 9545POPC   C1B58027  21.403  41.818   6.453
 9545POPC   C2B58028  21.423  41.775   6.753
 9545POPC   C3B58029  21.386  41.819   7.053
 9545POPC   C4B58030  21.359  41.773   7.353
 9546POPC   NC358031  13.595  26.780   5.553
 9546POPC   PO458032  13.593  26.768   5.853
 9546POPC   GL158033  13.640  26.769   6.153
 9546POPC   GL258034  13.637  26.685   6.153
 9546POPC   C1A58035  13.676  26.821   6.453
 9546POPC   D2A58036  13.633  26.853   6.753
 9546POPC   C3A58037  13.675  26.776   7.053
 9546POPC   C4A58038  13.633  26.796   7.353
 9546POPC   C1B58039  13.520  26.596   6.453
 9546POPC   C2B58040  13.595  26.627   6.753
 9546POPC   C3B58041  13.579  26.589   7.053
 9546POPC   C4B58042  13.517  26.576   7.353
 9547POPC   NC358043  36.922   6.607   5.553
 9547POPC   PO458044  36.895   6.667   5.853
 9547POPC   GL158045  36.863   6.599   6.153
 9547POPC   GL258046  36.960   6.528   6.153
 9547POPC   C1A58047  36.944   6.666   6.453
 9547POPC   D2A58048  36.892   6.658   6.753
 9547POPC   C3A58049  36.938   6.683   7.053
 9547POPC   C4A58050  36.950   6.651   7.353
 9547POPC   C1B58051  37.108   6.450   6.453
 9547POPC   C2B58052  37.053   6.512   6.753
 9547POPC   C3B58053  37.093   6.520   7.053
 9547POPC   C4B58054  37.054   6.434   7.353
 9548POPC   NC358055  19.024  33.751   5.553
 9548POPC   PO458056  19.011  33.846   5.853
 9548POPC   GL158057  19.077  33.778   6.153
 9548POPC   GL258058  19.054  33.972   6.153
 9548POPC   C1A58059  19.086  33.782   6.453
 9548POPC   D2A58060  19.032  33.794   6.753
 9548POPC   C3A58061  19.016  33.832   7.053
 9548POPC   C4A58062  19.038  33.769   7.353
 9548POPC   C1B58063  19.005  34.094   6.453
 9548POPC   C2B58064  19.038  34.005   6.753
 9548POPC   C3B58065  19.079  34.080   7.053
 9548POPC   C4B58066  19.017  34.046   7.353
 9549POPC   NC358067   1.165   0.434   5.553
 9549POPC   PO458068   1.260   0.467   5.853
 9549POPC   GL158069   1.251   0.413   6.153
 9549POPC   GL258070   1.071   0.395   6.153
 9549POPC   C1A58071   1.231   0.389   6.453
 9549POPC   D2A58072   1.254   0.461   6.753
 9549POPC   C3A58073   1.209   0.454   7.053
 9549POPC   C4A58074   1.213   0.474   7.353
 9549POPC   C1B58075   0.994   0.460   6.453
 9549POPC   C2B58076   0.915   0.389   6.753
 9549POPC   C3B58077   0.987   0.438   7.053
 9549POPC   C4B58078   0.921   0.397   7.353
 9550POPC   NC358079   5.103  19.870   5.553
 9550POPC   PO458080   5.102  19.839   5.853
 9550POPC   GL158081   5.119  19.884   6.153
 9550POPC   GL258082   5.041  19.700   6.153
 9550POPC   C1A58083   5.093  19.836   6.453
 9550POPC   D2A58084   5.108  19.794   6.753
 9550POPC   C3A58085   5.123  19.842   7.053
 9550POPC   C4A58086   5.060  19.866   7.353
 9550POPC   C1B58087   4.930  19.665   6.453
 9550POPC   C2B58088   4.985  19.663   6.753
 9550POPC   C3B58089   4.936  19.599   7.053
 9550POPC   C4B58090   4.960  19.604   7.353
 9551POPC   NC358091  44.632   0.437   5.553
 9551POPC   PO458092  44.639   0.402   5.853
 9551POPC   GL158093  44.689   0.429   6.153
 9551POPC   GL258094  44.518   0.412   6.153
 9551POPC   C1A58095  44.689   0.444   6.453
 9551POPC   D2A58096  44.655   0.407   6.753
 9551POPC   C3A58097  44.657   0.456   7.053
 9551POPC   C4A58098  44.632   0.424   7.353
 9551POPC   C1B58099  44.394   0.418   6.453
 9551POPC   C2B58100  44.450   0.362   6.753
 9551POPC   C3B58101  44.435   0.404   7.053
 9551POPC   C4B58102  44.420   0.379   7.353
 9552POPC   NC358103  15.952  25.242   5.553
 9552POPC   PO458104  15.954  25.272   5.853
 9552POPC   GL158105  15.930  25.239   6.153
 9552POPC   GL258106  15.857  25.273   6.153
 9552POPC   C1A58107  15.932  25.290   6.453
 9552POPC   D2A58108  15.967  25.293   6.753
 9552POPC   C3A58109  15.925  25.287   7.053
 9552POPC   C4A58110  15.990  25.301   7.353
 9552POPC   C1B58111  15.763  25.237   6.453
 9552POPC   C2B58112  15.727  25.167   6.753
 9552POPC   C3B58113  15.701  25.181   7.053
 9552POPC   C4B58114  15.710  25.219   7.353
 9553POPC   NC358115   3.581  13.591   5.553
 9553POPC   PO458116   3.558  13.645   5.853
 9553POPC   GL158117   3.535  13.596   6.153
 9553POPC   GL258118   3.424  13.622   6.153
 9553POPC   C1A58119   3.498  13.674   6.453
 9553POPC   D2A58120   3.568  13.602   6.753
 9553POPC   C3A58121   3.553  13.602   7.053
 9553POPC   C4A58122   3.559  13.639   7.353
 9553POPC   C1B58123   3.339  13.527   6.453
 9553POPC   C2B58124   3.297  13.544   6.753
 9553POPC   C3B58125   3.313  13.520   7.053
 9553POPC   C4B58126   3.301  13.493   7.353
 9554POPC   NC358127  36.121   7.398   5.553
 9554POPC   PO458128  36.143   7.445   5.853
 9554POPC   GL158129  36.162   7.470   6.153
 9554POPC   GL258130  36.192   7.349   6.153
 9554POPC   C1A58131  36.167   7.408   6.453
 9554POPC   D2A58132  36.123   7.401   6.753
 9554POPC   C3A58133  36.120   7.445   7.053
 9554POPC   C4A58134  36.161   7.383   7.353
 9554POPC   C1B58135  36.190   7.155   6.453
 9554POPC   C2B58136  36.170   7.170   6.753
 9554POPC   C3B58137  36.227   7.162   7.053
 9554POPC   C4B58138  36.201   7.137   7.353
 9555POPC   NC358139  22.963  33.046   5.553
 9555POPC   PO458140  22.955  33.056   5.853
 9555POPC   GL158141  22.889  32.990   6.153
 9555POPC   GL258142  23.066  33.030   6.153
 9555POPC   C1A58143  22.892  33.046   6.453
 9555POPC   D2A58144  22.963  33.017   6.753
 9555POPC   C3A58145  22.981  33.050   7.053
 9555POPC   C4A58146  22.904  33.010   7.353
 9555POPC   C1B58147  23.214  33.005   6.453
 9555POPC   C2B58148  23.166  33.024   6.753
 9555POPC   C3B58149  23.215  32.985   7.053
 9555POPC   C4B58150  23.236  33.034   7.353
 9556POPC   NC358151  43.066  38.474   5.553
 9556POPC   PO458152  43.096  38.487   5.853
 9556POPC   GL158153  43.154  38.424   6.153
 9556POPC   GL258154  43.225  38.356   6.153
 9556POPC   C1A58155  43.082  38.468   6.453
 9556POPC   D2A58156  43.140  38.444   6.753
 9556POPC   C3A58157  43.159  38.504   7.053
 9556POPC   C4A58158  43.072  38.453   7.353
 9556POPC   C1B58159  43.311  38.299   6.453
 9556POPC   C2B58160  43.349  38.352   6.753
 9556POPC   C3B58161  43.341  38.285   7.053
 9556POPC   C4B58162  43.369  38.370   7.353
 9557POPC   NC358163  19.811  11.328   5.553
 9557POPC   PO458164  19.815  11.334   5.853
 9557POPC   GL158165  19.814  11.309   6.153
 9557POPC   GL258166  19.898  11.239   6.153
 9557POPC   C1A58167  19.816  11.294   6.453
 9557POPC   D2A58168  19.800  11.302   6.753
 9557POPC   C3A58169  19.878  11.268   7.053
 9557POPC   C4A58170  19.869  11.310   7.353
 9557POPC   C1B58171  19.987  11.062   6.453
 9557POPC   C2B58172  20.015  11.055   6.753
 9557POPC   C3B58173  19.927  11.107   7.053
 9557POPC   C4B58174  19.971  11.092   7.353
 9558POPC   NC358175  41.555  33.820   5.553
 9558POPC   PO458176  41.577  33.788   5.853
 9558POPC   GL158177  41.559  33.799   6.153
 9558POPC   GL258178  41.696  33.775   6.153
 9558POPC   C1A58179  41.568  33.848   6.453
 9558POPC   D2A58180  41.516  33.824   6.753
 9558POPC   C3A58181  41.542  33.843   7.053
 9558POPC   C4A58182  41.607  33.844   7.353
 9558POPC   C1B58183  41.753  33.720   6.453
 9558POPC   C2B58184  41.783  33.658   6.753
 9558POPC   C3B58185  41.804  33.661   7.053
 9558POPC   C4B58186  41.753  33.752   7.353
 9559POPC   NC358187   5.824   6.677   5.553
 9559POPC   PO458188   5.893   6.675   5.853
 9559POPC   GL158189   5.903   6.636   6.153
 9559POPC   GL258190   5.760   6.671   6.153
 9559POPC   C1A58191   5.885   6.679   6.453
 9559POPC   D2A58192   5.859   6.673   6.753
 9559POPC   C3A58193   5.824   6.636   7.053
 9559POPC   C4A58194   5.881   6.683   7.353
 9559POPC   C1B58195   5.602   6.623   6.453
 9559POPC   C2B58196   5.669   6.620   6.753
 9559POPC   C3B58197   5.587   6.644   7.053
 9559POPC   C4B58198   5.623   6.684   7.353
 9560POPC   NC358199  12.062  26.053   5.553
 9560POPC   PO458200  12.114  26.016   5.853
 9560POPC   GL158201  12.057  26.070   6.153
 9560POPC   GL258202  12.150  25.905   6.153
 9560POPC   C1A58203  12.112  26.033   6.453
 9560POPC   D2A58204  12.100  25.994   6.753
 9560POPC   C3A58205  12.041  26.060   7.053
 9560POPC   C4A58206  12.067  26.027   7.353
 9560POPC   C1B58207  12.145  25.799   6.453
 9560POPC   C2B58208  12.094  25.813   6.753
 9560POPC   C3B58209  12.167  25.787   7.053
 9560POPC   C4B58210  12.125  25.806   7.353
 9561POPC   NC358211   1.979  22.157   5.553
 9561POPC   PO458212   2.019  22.192   5.853
 9561POPC   GL158213   2.037  22.187   6.153
 9561POPC   GL258214   2.058  22.185   6.153
 9561POPC   C1A58215   1.997  22.152   6.453
 9561POPC   D2A58216   1.950  22.113   6.753
 9561POPC   C3A58217   1.968  22.132   7.053
 9561POPC   C4A58218   2.011  22.150   7.353
 9561POPC   C1B58219   2.220  22.305   6.453
 9561POPC   C2B58220   2.201  22.296   6.753
 9561POPC   C3B58221   2.210  22.265   7.053
 9561POPC   C4B58222   2.252  22.313   7.353
 9562POPC   NC358223  40.770  28.356   5.553
 9562POPC   PO458224  40.779  28.411   5.853
 9562POPC   GL158225  40.779  28.418   6.153
 9562POPC   GL258226  40.673  28.330   6.153
 9562POPC   C1A58227  40.739  28.348   6.453
 9562POPC   D2A58228  40.752  28.369   6.753
 9562POPC   C3A58229  40.785  28.408   7.053
 9562POPC   C4A58230  40.820  28.415   7.353
 9562POPC   C1B58231  40.582  28.353   6.453
 9562POPC   C2B58232  40.534  28.341   6.753
 9562POPC   C3B58233  40.515  28.393   7.053
 9562POPC   C4B58234  40.568  28.318   7.353
 9563POPC   NC358235  16.000  26.826   5.553
 9563POPC   PO458236  15.980  26.866   5.853
 9563POPC   GL158237  15.911  26.769   6.153
 9563POPC   GL258238  16.017  26.784   6.153
 9563POPC   C1A58239  15.950  26.832   6.453
 9563POPC   D2A58240  15.909  26.791   6.753
 9563POPC   C3A58241  15.923  26.779   7.053
 9563POPC   C4A58242  15.910  26.802   7.353
 9563POPC   C1B58243  16.149  26.695   6.453
 9563POPC   C2B58244  16.153  26.666   6.753
 9563POPC   C3B58245  16.218  26.677   7.053
 9563POPC   C4B58246  16.168  26.660   7.353
 9564POPC   NC358247  41.519  22.159   5.553
 9564POPC   PO458248  41.523  22.132   5.853
 9564POPC   GL158249  41.541  22.129   6.153
 9564POPC   GL258250  41.543  22.298   6.153
 9564POPC   C1A58251  41.604  22.142   6.453
 9564POPC   D2A58252  41.564  22.193   6.753
 9564POPC   C3A58253  41.606  22.192   7.053
 9564POPC   C4A58254  41.534  22.136   7.353
 9564POPC   C1B58255  41.620  22.446   6.453
 9564POPC   C2B58256  41.636  22.432   6.753
 9564POPC   C3B58257  41.665  22.379   7.053
 9564POPC   C4B58258  41.662  22.432   7.353
 9565POPC   NC358259  32.283  14.401   5.553
 9565POPC   PO458260  32.225  14.405   5.853
 9565POPC   GL158261  32.204  14.430   6.153
 9565POPC   GL258262  32.149  14.513   6.153
 9565POPC   C1A58263  32.229  14.440   6.453
 9565POPC   D2A58264  32.253  14.435   6.753
 9565POPC   C3A58265  32.271  14.396   7.053
 9565POPC   C4A58266  32.272  14.357   7.353
 9565POPC   C1B58267  32.139  14.615   6.453
 9565POPC   C2B58268  32.127  14.650   6.753
 9565POPC   C3B58269  32.107  14.591   7.053
 9565POPC   C4B58270  32.123  14.636   7.353
 9566POPC   NC358271  38.444   8.192   5.553
 9566POPC   PO458272  38.448   8.163   5.853
 9566POPC   GL158273  38.406   8.231   6.153
 9566POPC   GL258274  38.473   8.324   6.153
 9566POPC   C1A58275  38.475   8.241   6.453
 9566POPC   D2A58276  38.487   8.224   6.753
 9566POPC   C3A58277  38.434   8.175   7.053
 9566POPC   C4A58278  38.441   8.147   7.353
 9566POPC   C1B58279  38.529   8.450   6.453
 9566POPC   C2B58280  38.467   8.400   6.753
 9566POPC   C3B58281  38.478   8.484   7.053
 9566POPC   C4B58282  38.493   8.440   7.353
 9567POPC   NC358283   5.883  40.782   5.553
 9567POPC   PO458284   5.914  40.782   5.853
 9567POPC   GL158285   5.907  40.798   6.153
 9567POPC   GL258286   5.981  40.749   6.153
 9567POPC   C1A58287   5.899  40.746   6.453
 9567POPC   D2A58288   5.904  40.825   6.753
 9567POPC   C3A58289   5.842  40.819   7.053
 9567POPC   C4A58290   5.895  40.825   7.353
 9567POPC   C1B58291   6.129  40.683   6.453
 9567POPC   C2B58292   6.088  40.652   6.753
 9567POPC   C3B58293   6.138  40.678   7.053
 9567POPC   C4B58294   6.090  40.714   7.353
 9568POPC   NC358295  26.807  17.484   5.553
 9568POPC   PO458296  26.833  17.473   5.853
 9568POPC   GL158297  26.846  17.466   6.153
 9568POPC   GL258298  26.845  17.443   6.153
 9568POPC   C1A58299  26.834  17.508   6.453
 9568POPC   D2A58300  26.843  17.461   6.753
 9568POPC   C3A58301  26.834  17.495   7.053
 9568POPC   C4A58302  26.797  17.540   7.353
 9568POPC   C1B58303  26.973  17.260   6.453
 9568POPC   C2B58304  27.021  17.310   6.753
 9568POPC   C3B58305  26.975  17.342   7.053
 9568POPC   C4B58306  27.015  17.315   7.353
 9569POPC   NC358307   5.919   3.562   5.553
 9569POPC   PO458308   5.854   3.559   5.853
 9569POPC   GL158309   5.885   3.493   6.153
 9569POPC   GL258310   5.866   3.473   6.153
 9569POPC   C1A58311   5.820   3.578   6.453
 9569POPC   D2A58312   5.862   3.555   6.753
 9569POPC   C3A58313   5.887   3.566   7.053
 9569POPC   C4A58314   5.851   3.548   7.353
 9569POPC   C1B58315   5.722   3.324   6.453
 9569POPC   C2B58316   5.789   3.303   6.753
 9569POPC   C3B58317   5.778   3.327   7.053
 9569POPC   C4B58318   5.777   3.348   7.353
 9570POPC   NC358319   2.734  40.024   5.553
 9570POPC   PO458320   2.741  39.974   5.853
 9570POPC   GL158321   2.754  40.015   6.153
 9570POPC   GL258322   2.781  39.925   6.153
 9570POPC   C1A58323   2.769  39.997   6.453
 9570POPC   D2A58324   2.798  39.958   6.753
 9570POPC   C3A58325   2.814  39.994   7.053
 9570POPC   C4A58326   2.734  40.028   7.353
 9570POPC   C1B58327   2.827  39.734   6.453
 9570POPC   C2B58328   2.773  39.718   6.753
 9570POPC   C3B58329   2.830  39.730   7.053
 9570POPC   C4B58330   2.855  39.748   7.353
 9571POPC   NC358331  43.139  42.346   5.553
 9571POPC   PO458332  43.133  42.306   5.853
 9571POPC   GL158333  43.070  42.297   6.153
 9571POPC   GL258334  43.164  42.212   6.153
 9571POPC   C1A58335  43.127  42.336   6.453
 9571POPC   D2A58336  43.072  42.364   6.753
 9571POPC   C3A58337  43.064  42.337   7.053
 9571POPC   C4A58338  43.141  42.345   7.353
 9571POPC   C1B58339  43.219  42.067   6.453
 9571POPC   C2B58340  43.219  42.123   6.753
 9571POPC   C3B58341  43.265  42.076   7.053
 9571POPC   C4B58342  43.272  42.090   7.353
 9572POPC   NC358343   2.018  35.347   5.553
 9572POPC   PO458344   1.947  35.330   5.853
 9572POPC   GL158345   1.994  35.378   6.153
 9572POPC   GL258346   1.912  35.454   6.153
 9572POPC   C1A58347   2.035  35.308   6.453
 9572POPC   D2A58348   1.980  35.387   6.753
 9572POPC   C3A58349   2.008  35.365   7.053
 9572POPC   C4A58350   2.004  35.338   7.353
 9572POPC   C1B58351   1.827  35.494   6.453
 9572POPC   C2B58352   1.814  35.510   6.753
 9572POPC   C3B58353   1.861  35.525   7.053
 9572POPC   C4B58354   1.785  35.536   7.353
 9573POPC   NC358355  40.761  22.202   5.553
 9573POPC   PO458356  40.815  22.155   5.853
 9573POPC   GL158357  40.797  22.208   6.153
 9573POPC   GL258358  40.849  22.068   6.153
 9573POPC   C1A58359  40.757  22.212   6.453
 9573POPC   D2A58360  40.821  22.195   6.753
 9573POPC   C3A58361  40.813  22.206   7.053
 9573POPC   C4A58362  40.828  22.205   7.353
 9573POPC   C1B58363  40.860  21.913   6.453
 9573POPC   C2B58364  40.906  21.990   6.753
 9573POPC   C3B58365  40.871  21.917   7.053
 9573POPC   C4B58366  40.858  21.954   7.353
 9574POPC   NC358367  31.491   5.072   5.553
 9574POPC   PO458368  31.472   5.078   5.853
 9574POPC   GL158369  31.482   5.063   6.153
 9574POPC   GL258370  31.328   5.168   6.153
 9574POPC   C1A58371  31.503   5.141   6.453
 9574POPC   D2A58372  31.428   5.057   6.753
 9574POPC   C3A58373  31.444   5.137   7.053
 9574POPC   C4A58374  31.435   5.136   7.353
 9574POPC   C1B58375  31.247   5.290   6.453
 9574POPC   C2B58376  31.264   5.212   6.753
 9574POPC   C3B58377  31.296   5.212   7.053
 9574POPC   C4B58378  31.275   5.236   7.353
 9575POPC   NC358379  41.530   8.234   5.553
 9575POPC   PO458380  41.577   8.154   5.853
 9575POPC   GL158381  41.534   8.218   6.153
 9575POPC   GL258382  41.405   8.260   6.153
 9575POPC   C1A58383  41.585   8.200   6.453
 9575POPC   D2A58384  41.509   8.165   6.753
 9575POPC   C3A58385  41.535   8.207   7.053
 9575POPC   C4A58386  41.571   8.217   7.353
 9575POPC   C1B58387  41.333   8.299   6.453
 9575POPC   C2B58388  41.340   8.346   6.753
 9575POPC   C3B58389  41.315   8.353   7.053
 9575POPC   C4B58390  41.373   8.335   7.353
 9576POPC   NC358391  16.707   0.447   5.553
 9576POPC   PO458392  16.749   0.425   5.853
 9576POPC   GL158393  16.682   0.474   6.153
 9576POPC   GL258394  16.792   0.307   6.153
 9576POPC   C1A58395  16.769   0.461   6.453
 9576POPC   D2A58396  16.702   0.402   6.753
 9576POPC   C3A58397  16.728   0.444   7.053
 9576POPC   C4A58398  16.731   0.416   7.353
 9576POPC   C1B58399  16.866   0.267   6.453
 9576POPC   C2B58400  16.830   0.174   6.753
 9576POPC   C3B58401  16.854   0.195   7.053
 9576POPC   C4B58402  16.898   0.184   7.353
 9577POPC   NC358403  36.098   8.202   5.553
 9577POPC   PO458404  36.136   8.211   5.853
 9577POPC   GL158405  36.148   8.219   6.153
 9577POPC   GL258406  36.110   8.126   6.153
 9577POPC   C1A58407  36.140   8.200   6.453
 9577POPC   D2A58408  36.158   8.192   6.753
 9577POPC   C3A58409  36.163   8.187   7.053
 9577POPC   C4A58410  36.081   8.239   7.353
 9577POPC   C1B58411  36.088   7.944   6.453
 9577POPC   C2B58412  36.046   7.975   6.753
 9577POPC   C3B58413  36.093   7.953   7.053
 9577POPC   C4B58414  36.005   7.944   7.353
 9578POPC   NC358415  29.151  20.564   5.553
 9578POPC   PO458416  29.144  20.581   5.853
 9578POPC   GL158417  29.172  20.652   6.153
 9578POPC   GL258418  29.290  20.535   6.153
 9578POPC   C1A58419  29.146  20.580   6.453
 9578POPC   D2A58420  29.110  20.582   6.753
 9578POPC   C3A58421  29.114  20.569   7.053
 9578POPC   C4A58422  29.174  20.636   7.353
 9578POPC   C1B58423  29.350  20.468   6.453
 9578POPC   C2B58424  29.359  20.461   6.753
 9578POPC   C3B58425  29.334  20.549   7.053
 9578POPC   C4B58426  29.421  20.490   7.353
 9579POPC   NC358427  12.035   1.993   5.553
 9579POPC   PO458428  12.069   1.980   5.853
 9579POPC   GL158429  12.036   1.964   6.153
 9579POPC   GL258430  12.050   1.860   6.153
 9579POPC   C1A58431  12.063   2.028   6.453
 9579POPC   D2A58432  12.099   1.996   6.753
 9579POPC   C3A58433  12.045   1.944   7.053
 9579POPC   C4A58434  12.077   1.961   7.353
 9579POPC   C1B58435  11.913   1.738   6.453
 9579POPC   C2B58436  11.958   1.759   6.753
 9579POPC   C3B58437  12.004   1.767   7.053
 9579POPC   C4B58438  11.985   1.745   7.353
 9580POPC   NC358439  11.336   8.962   5.553
 9580POPC   PO458440  11.313   8.945   5.853
 9580POPC   GL158441  11.328   9.014   6.153
 9580POPC   GL258442  11.390   8.855   6.153
 9580POPC   C1A58443  11.342   8.979   6.453
 9580POPC   D2A58444  11.292   8.964   6.753
 9580POPC   C3A58445  11.308   9.003   7.053
 9580POPC   C4A58446  11.343   9.003   7.353
 9580POPC   C1B58447  11.383   8.757   6.453
 9580POPC   C2B58448  11.370   8.713   6.753
 9580POPC   C3B58449  11.351   8.702   7.053
 9580POPC   C4B58450  11.360   8.774   7.353
 9581POPC   NC358451   0.451  26.067   5.553
 9581POPC   PO458452   0.449  26.001   5.853
 9581POPC   GL158453   0.425  26.048   6.153
 9581POPC   GL258454   0.335  25.935   6.153
 9581POPC   C1A58455   0.395  26.054   6.453
 9581POPC   D2A58456   0.410  25.999   6.753
 9581POPC   C3A58457   0.461  26.089   7.053
 9581POPC   C4A58458   0.462  26.002   7.353
 9581POPC   C1B58459   0.292  25.801   6.453
 9581POPC   C2B58460   0.349  25.788   6.753
 9581POPC   C3B58461   0.293  25.836   7.053
 9581POPC   C4B58462   0.315  25.775   7.353
 9582POPC   NC358463  40.770  13.675   5.553
 9582POPC   PO458464  40.759  13.579   5.853
 9582POPC   GL158465  40.790  13.591   6.153
 9582POPC   GL258466  40.750  13.492   6.153
 9582POPC   C1A58467  40.807  13.663   6.453
 9582POPC   D2A58468  40.764  13.625   6.753
 9582POPC   C3A58469  40.821  13.620   7.053
 9582POPC   C4A58470  40.826  13.671   7.353
 9582POPC   C1B58471  40.760  13.331   6.453
 9582POPC   C2B58472  40.819  13.383   6.753
 9582POPC   C3B58473  40.818  13.396   7.053
 9582POPC   C4B58474  40.735  13.372   7.353
 9583POPC   NC358475  33.839  19.023   5.553
 9583POPC   PO458476  33.795  19.089   5.853
 9583POPC   GL158477  33.825  19.102   6.153
 9583POPC   GL258478  33.952  19.082   6.153
 9583POPC   C1A58479  33.819  19.018   6.453
 9583POPC   D2A58480  33.813  19.052   6.753
 9583POPC   C3A58481  33.788  19.021   7.053
 9583POPC   C4A58482  33.779  19.106   7.353
 9583POPC   C1B58483  34.051  19.156   6.453
 9583POPC   C2B58484  34.044  19.211   6.753
 9583POPC   C3B58485  34.030  19.180   7.053
 9583POPC   C4B58486  34.065  19.198   7.353
 9584POPC   NC358487  19.026  27.583   5.553
 9584POPC   PO458488  19.062  27.582   5.853
 9584POPC   GL158489  19.076  27.590   6.153
 9584POPC   GL258490  19.060  27.508   6.153
 9584POPC   C1A58491  19.018  27.573   6.453
 9584POPC   D2A58492  19.079  27.617   6.753
 9584POPC   C3A58493  19.059  27.585   7.053
 9584POPC   C4A58494  19.084  27.576   7.353
 9584POPC   C1B58495  19.037  27.370   6.453
 9584POPC   C2B58496  19.025  27.337   6.753
 9584POPC   C3B58497  18.991  27.370   7.053
 9584POPC   C4B58498  19.022  27.377   7.353
 9585POPC   NC358499  18.264   0.442   5.553
 9585POPC   PO458500  18.268   0.480   5.853
 9585POPC   GL158501  18.272   0.416   6.153
 9585POPC   GL258502  18.386   0.420   6.153
 9585POPC   C1A58503  18.286   0.429   6.453
 9585POPC   D2A58504  18.323   0.472   6.753
 9585POPC   C3A58505  18.234   0.468   7.053
 9585POPC   C4A58506  18.287   0.412   7.353
 9585POPC   C1B58507  18.491   0.449   6.453
 9585POPC   C2B58508  18.567   0.500   6.753
 9585POPC   C3B58509  18.493   0.438   7.053
 9585POPC   C4B58510  18.485   0.434   7.353
 9586POPC   NC358511  44.668  37.716   5.553
 9586POPC   PO458512  44.661  37.656   5.853
 9586POPC   GL158513  44.650  37.669   6.153
 9586POPC   GL258514  44.538  37.646   6.153
 9586POPC   C1A58515  44.627  37.715   6.453
 9586POPC   D2A58516  44.678  37.644   6.753
 9586POPC   C3A58517  44.682  37.674   7.053
 9586POPC   C4A58518  44.675  37.651   7.353
 9586POPC   C1B58519  44.450  37.711   6.453
 9586POPC   C2B58520  44.382  37.643   6.753
 9586POPC   C3B58521  44.409  37.622   7.053
 9586POPC   C4B58522  44.409  37.624   7.353
 9587POPC   NC358523  26.780  42.359   5.553
 9587POPC   PO458524  26.798  42.310   5.853
 9587POPC   GL158525  26.834  42.324   6.153
 9587POPC   GL258526  26.976  42.339   6.153
 9587POPC   C1A58527  26.847  42.348   6.453
 9587POPC   D2A58528  26.867  42.380   6.753
 9587POPC   C3A58529  26.858  42.291   7.053
 9587POPC   C4A58530  26.811  42.347   7.353
 9587POPC   C1B58531  27.072  42.330   6.453
 9587POPC   C2B58532  27.031  42.352   6.753
 9587POPC   C3B58533  27.036  42.348   7.053
 9587POPC   C4B58534  27.030  42.427   7.353
 9588POPC   NC358535   8.197  19.010   5.553
 9588POPC   PO458536   8.151  19.033   5.853
 9588POPC   GL158537   8.152  19.013   6.153
 9588POPC   GL258538   8.120  19.101   6.153
 9588POPC   C1A58539   8.231  19.099   6.453
 9588POPC   D2A58540   8.200  19.083   6.753
 9588POPC   C3A58541   8.246  19.064   7.053
 9588POPC   C4A58542   8.193  19.066   7.353
 9588POPC   C1B58543   7.963  19.220   6.453
 9588POPC   C2B58544   8.041  19.238   6.753
 9588POPC   C3B58545   7.983  19.228   7.053
 9588POPC   C4B58546   8.032  19.239   7.353
 9589POPC   NC358547   0.396  39.259   5.553
 9589POPC   PO458548   0.452  39.259   5.853
 9589POPC   GL158549   0.414  39.272   6.153
 9589POPC   GL258550   0.306  39.342   6.153
 9589POPC   C1A58551   0.396  39.185   6.453
 9589POPC   D2A58552   0.482  39.280   6.753
 9589POPC   C3A58553   0.395  39.191   7.053
 9589POPC   C4A58554   0.457  39.205   7.353
 9589POPC   C1B58555   0.237  39.433   6.453
 9589POPC   C2B58556   0.269  39.445   6.753
 9589POPC   C3B58557   0.230  39.425   7.053
 9589POPC   C4B58558   0.311  39.426   7.353
 9590POPC   NC358559  18.263  33.811   5.553
 9590POPC   PO458560  18.309  33.806   5.853
 9590POPC   GL158561  18.260  33.803   6.153
 9590POPC   GL258562  18.344  33.863   6.153
 9590POPC   C1A58563  18.236  33.842   6.453
 9590POPC   D2A58564  18.275  33.752   6.753
 9590POPC   C3A58565  18.296  33.833   7.053
 9590POPC   C4A58566  18.321  33.831   7.353
 9590POPC   C1B58567  18.459  33.994   6.453
 9590POPC   C2B58568  18.517  33.904   6.753
 9590POPC   C3B58569  18.506  33.977   7.053
 9590POPC   C4B58570  18.490  33.916   7.353
 9591POPC   NC358571   5.141  26.814   5.553
 9591POPC   PO458572   5.118  26.801   5.853
 9591POPC   GL158573   5.107  26.805   6.153
 9591POPC   GL258574   5.014  26.866   6.153
 9591POPC   C1A58575   5.113  26.845   6.453
 9591POPC   D2A58576   5.065  26.840   6.753
 9591POPC   C3A58577   5.103  26.830   7.053
 9591POPC   C4A58578   5.122  26.812   7.353
 9591POPC   C1B58579   4.882  26.993   6.453
 9591POPC   C2B58580   4.902  26.985   6.753
 9591POPC   C3B58581   4.876  26.963   7.053
 9591POPC   C4B58582   4.942  27.017   7.353
 9592POPC   NC358583  41.537  35.342   5.553
 9592POPC   PO458584  41.531  35.380   5.853
 9592POPC   GL158585  41.529  35.315   6.153
 9592POPC   GL258586  41.493  35.405   6.153
 9592POPC   C1A58587  41.603  35.323   6.453
 9592POPC   D2A58588  41.530  35.388   6.753
 9592POPC   C3A58589  41.599  35.304   7.053
 9592POPC   C4A58590  41.578  35.382   7.353
 9592POPC   C1B58591  41.375  35.504   6.453
 9592POPC   C2B58592  41.349  35.505   6.753
 9592POPC   C3B58593  41.392  35.527   7.053
 9592POPC   C4B58594  41.298  35.462   7.353
 9593POPC   NC358595   0.457  31.506   5.553
 9593POPC   PO458596   0.475  31.494   5.853
 9593POPC   GL158597   0.462  31.517   6.153
 9593POPC   GL258598   0.394  31.318   6.153
 9593POPC   C1A58599   0.391  31.436   6.453
 9593POPC   D2A58600   0.404  31.466   6.753
 9593POPC   C3A58601   0.451  31.460   7.053
 9593POPC   C4A58602   0.404  31.496   7.353
 9593POPC   C1B58603   0.367  31.253   6.453
 9593POPC   C2B58604   0.384  31.200   6.753
 9593POPC   C3B58605   0.375  31.256   7.053
 9593POPC   C4B58606   0.357  31.216   7.353
 9594POPC   NC358607   0.419  17.553   5.553
 9594POPC   PO458608   0.430  17.482   5.853
 9594POPC   GL158609   0.421  17.536   6.153
 9594POPC   GL258610   0.583  17.427   6.153
 9594POPC   C1A58611   0.415  17.465   6.453
 9594POPC   D2A58612   0.462  17.540   6.753
 9594POPC   C3A58613   0.456  17.554   7.053
 9594POPC   C4A58614   0.483  17.464   7.353
 9594POPC   C1B58615   0.695  17.458   6.453
 9594POPC   C2B58616   0.644  17.411   6.753
 9594POPC   C3B58617   0.671  17.391   7.053
 9594POPC   C4B58618   0.707  17.418   7.353
 9595POPC   NC358619   7.387   1.951   5.553
 9595POPC   PO458620   7.406   1.992   5.853
 9595POPC   GL158621   7.418   2.025   6.153
 9595POPC   GL258622   7.383   1.930   6.153
 9595POPC   C1A58623   7.405   2.039   6.453
 9595POPC   D2A58624   7.470   1.988   6.753
 9595POPC   C3A58625   7.454   1.958   7.053
 9595POPC   C4A58626   7.415   1.955   7.353
 9595POPC   C1B58627   7.285   1.775   6.453
 9595POPC   C2B58628   7.317   1.738   6.753
 9595POPC   C3B58629   7.261   1.779   7.053
 9595POPC   C4B58630   7.278   1.770   7.353
 9596POPC   NC358631  10.557   3.529   5.553
 9596POPC   PO458632  10.519   3.526   5.853
 9596POPC   GL158633  10.548   3.499   6.153
 9596POPC   GL258634  10.620   3.551   6.153
 9596POPC   C1A58635  10.506   3.528   6.453
 9596POPC   D2A58636  10.521   3.533   6.753
 9596POPC   C3A58637  10.475   3.495   7.053
 9596POPC   C4A58638  10.548   3.557   7.353
 9596POPC   C1B58639  10.812   3.649   6.453
 9596POPC   C2B58640  10.790   3.590   6.753
 9596POPC   C3B58641  10.751   3.644   7.053
 9596POPC   C4B58642  10.799   3.619   7.353
 9597POPC   NC358643  19.023  41.580   5.553
 9597POPC   PO458644  19.025  41.513   5.853
 9597POPC   GL158645  19.035  41.510   6.153
 9597POPC   GL258646  19.053  41.463   6.153
 9597POPC   C1A58647  19.022  41.607   6.453
 9597POPC   D2A58648  19.061  41.604   6.753
 9597POPC   C3A58649  19.037  41.579   7.053
 9597POPC   C4A58650  19.077  41.530   7.353
 9597POPC   C1B58651  19.093  41.368   6.453
 9597POPC   C2B58652  19.148  41.325   6.753
 9597POPC   C3B58653  19.109  41.359   7.053
 9597POPC   C4B58654  19.166  41.327   7.353
 9598POPC   NC358655  33.775  37.700   5.553
 9598POPC   PO458656  33.798  37.685   5.853
 9598POPC   GL158657  33.758  37.679   6.153
 9598POPC   GL258658  33.869  37.716   6.153
 9598POPC   C1A58659  33.795  37.662   6.453
 9598POPC   D2A58660  33.847  37.719   6.753
 9598POPC   C3A58661  33.762  37.678   7.053
 9598POPC   C4A58662  33.775  37.653   7.353
 9598POPC   C1B58663  33.974  37.857   6.453
 9598POPC   C2B58664  34.059  37.789   6.753
 9598POPC   C3B58665  34.033  37.787   7.053
 9598POPC   C4B58666  34.035  37.774   7.353
 9599POPC   NC358667   2.811  44.615   5.553
 9599POPC   PO458668   2.760  44.709   5.853
 9599POPC   GL158669   2.781  44.619   6.153
 9599POPC   GL258670   2.776  44.813   6.153
 9599POPC   C1A58671   2.716  44.641   6.453
 9599POPC   D2A58672   2.807  44.645   6.753
 9599POPC   C3A58673   2.755  44.624   7.053
 9599POPC   C4A58674   2.751  44.682   7.353
 9599POPC   C1B58675   2.887  44.849   6.453
 9599POPC   C2B58676   2.905  44.922   6.753
 9599POPC   C3B58677   2.821  44.843   7.053
 9599POPC   C4B58678   2.820  44.915   7.353
 9600POPC   NC358679   1.200  32.258   5.553
 9600POPC   PO458680   1.254  32.200   5.853
 9600POPC   GL158681   1.187  32.238   6.153
 9600POPC   GL258682   1.362  32.369   6.153
 9600POPC   C1A58683   1.181  32.291   6.453
 9600POPC   D2A58684   1.192  32.270   6.753
 9600POPC   C3A58685   1.195  32.211   7.053
 9600POPC   C4A58686   1.240  32.263   7.353
 9600POPC   C1B58687   1.446  32.366   6.453
 9600POPC   C2B58688   1.423  32.425   6.753
 9600POPC   C3B58689   1.445  32.379   7.053
 9600POPC   C4B58690   1.468  32.385   7.353
 9601POPC   NC358691  40.760  34.609   5.553
 9601POPC   PO458692  40.827  34.533   5.853
 9601POPC   GL158693  40.803  34.578   6.153
 9601POPC   GL258694  40.669  34.545   6.153
 9601POPC   C1A58695  40.808  34.624   6.453
 9601POPC   D2A58696  40.741  34.527   6.753
 9601POPC   C3A58697  40.784  34.626   7.053
 9601POPC   C4A58698  40.762  34.586   7.353
 9601POPC   C1B58699  40.548  34.543   6.453
 9601POPC   C2B58700  40.506  34.489   6.753
 9601POPC   C3B58701  40.530  34.563   7.053
 9601POPC   C4B58702  40.566  34.559   7.353
 9602POPC   NC358703  20.626  24.518   5.553
 9602POPC   PO458704  20.629  24.503   5.853
 9602POPC   GL158705  20.572  24.519   6.153
 9602POPC   GL258706  20.508  24.609   6.153
 9602POPC   C1A58707  20.611  24.453   6.453
 9602POPC   D2A58708  20.651  24.511   6.753
 9602POPC   C3A58709  20.655  24.456   7.053
 9602POPC   C4A58710  20.643  24.479   7.353
 9602POPC   C1B58711  20.477  24.707   6.453
 9602POPC   C2B58712  20.440  24.671   6.753
 9602POPC   C3B58713  20.441  24.645   7.053
 9602POPC   C4B58714  20.433  24.714   7.353
 9603POPC   NC358715  22.949  34.583   5.553
 9603POPC   PO458716  22.891  34.590   5.853
 9603POPC   GL158717  22.982  34.623   6.153
 9603POPC   GL258718  22.947  34.704   6.153
 9603POPC   C1A58719  22.905  34.561   6.453
 9603POPC   D2A58720  22.981  34.534   6.753
 9603POPC   C3A58721  22.963  34.621   7.053
 9603POPC   C4A58722  22.928  34.605   7.353
 9603POPC   C1B58723  23.055  34.780   6.453
 9603POPC   C2B58724  23.077  34.806   6.753
 9603POPC   C3B58725  23.050  34.789   7.053
 9603POPC   C4B58726  23.009  34.765   7.353
 9604POPC   NC358727   5.091  40.737   5.553
 9604POPC   PO458728   5.055  40.752   5.853
 9604POPC   GL158729   5.136  40.798   6.153
 9604POPC   GL258730   5.204  40.830   6.153
 9604POPC   C1A58731   5.095  40.742   6.453
 9604POPC   D2A58732   5.134  40.798   6.753
 9604POPC   C3A58733   5.110  40.823   7.053
 9604POPC   C4A58734   5.079  40.751   7.353
 9604POPC   C1B58735   5.259  40.963   6.453
 9604POPC   C2B58736   5.304  40.968   6.753
 9604POPC   C3B58737   5.269  40.977   7.053
 9604POPC   C4B58738   5.262  40.947   7.353
 9605POPC   NC358739   5.074   2.023   5.553
 9605POPC   PO458740   5.056   2.016   5.853
 9605POPC   GL158741   5.089   1.948   6.153
 9605POPC   GL258742   5.017   1.846   6.153
 9605POPC   C1A58743   5.057   2.021   6.453
 9605POPC   D2A58744   5.120   2.022   6.753
 9605POPC   C3A58745   5.138   2.020   7.053
 9605POPC   C4A58746   5.117   1.985   7.353
 9605POPC   C1B58747   5.034   1.737   6.453
 9605POPC   C2B58748   5.063   1.732   6.753
 9605POPC   C3B58749   5.056   1.712   7.053
 9605POPC   C4B58750   4.992   1.774   7.353
 9606POPC   NC358751  23.672  31.459   5.553
 9606POPC   PO458752  23.724  31.471   5.853
 9606POPC   GL158753  23.677  31.488   6.153
 9606POPC   GL258754  23.631  31.357   6.153
 9606POPC   C1A58755  23.750  31.443   6.453
 9606POPC   D2A58756  23.670  31.494   6.753
 9606POPC   C3A58757  23.735  31.480   7.053
 9606POPC   C4A58758  23.672  31.472   7.353
 9606POPC   C1B58759  23.656  31.236   6.453
 9606POPC   C2B58760  23.606  31.257   6.753
 9606POPC   C3B58761  23.642  31.219   7.053
 9606POPC   C4B58762  23.568  31.248   7.353
 9607POPC   NC358763  42.316  43.158   5.553
 9607POPC   PO458764  42.359  43.150   5.853
 9607POPC   GL158765  42.324  43.125   6.153
 9607POPC   GL258766  42.477  43.102   6.153
 9607POPC   C1A58767  42.367  43.139   6.453
 9607POPC   D2A58768  42.334  43.106   6.753
 9607POPC   C3A58769  42.322  43.092   7.053
 9607POPC   C4A58770  42.325  43.125   7.353
 9607POPC   C1B58771  42.558  43.073   6.453
 9607POPC   C2B58772  42.625  43.152   6.753
 9607POPC   C3B58773  42.558  43.074   7.053
 9607POPC   C4B58774  42.607  43.113   7.353
 9608POPC   NC358775  25.997  36.884   5.553
 9608POPC   PO458776  26.018  36.864   5.853
 9608POPC   GL158777  26.037  36.892   6.153
 9608POPC   GL258778  25.948  36.829   6.153
 9608POPC   C1A58779  26.048  36.882   6.453
 9608POPC   D2A58780  26.053  36.928   6.753
 9608POPC   C3A58781  26.015  36.899   7.053
 9608POPC   C4A58782  25.993  36.952   7.353
 9608POPC   C1B58783  25.811  36.821   6.453
 9608POPC   C2B58784  25.826  36.826   6.753
 9608POPC   C3B58785  25.830  36.848   7.053
 9608POPC   C4B58786  25.803  36.764   7.353
 9609POPC   NC358787  40.043  26.061   5.553
 9609POPC   PO458788  39.994  26.006   5.853
 9609POPC   GL158789  40.004  26.007   6.153
 9609POPC   GL258790  40.103  25.982   6.153
 9609POPC   C1A58791  39.969  25.997   6.453
 9609POPC   D2A58792  39.968  25.991   6.753
 9609POPC   C3A58793  40.050  26.072   7.053
 9609POPC   C4A58794  40.054  26.076   7.353
 9609POPC   C1B58795  40.214  25.871   6.453
 9609POPC   C2B58796  40.181  25.871   6.753
 9609POPC   C3B58797  40.213  25.873   7.053
 9609POPC   C4B58798  40.262  25.903   7.353
 9610POPC   NC358799  26.789  20.625   5.553
 9610POPC   PO458800  26.771  20.632   5.853
 9610POPC   GL158801  26.847  20.603   6.153
 9610POPC   GL258802  26.941  20.713   6.153
 9610POPC   C1A58803  26.846  20.626   6.453
 9610POPC   D2A58804  26.818  20.574   6.753
 9610POPC   C3A58805  26.812  20.654   7.053
 9610POPC   C4A58806  26.792  20.634   7.353
 9610POPC   C1B58807  27.017  20.819   6.453
 9610POPC   C2B58808  27.019  20.781   6.753
 9610POPC   C3B58809  27.035  20.785   7.053
 9610POPC   C4B58810  26.984  20.743   7.353
 9611POPC   NC358811   4.272   5.074   5.553
 9611POPC   PO458812   4.299   5.077   5.853
 9611POPC   GL158813   4.295   5.122   6.153
 9611POPC   GL258814   4.312   5.219   6.153
 9611POPC   C1A58815   4.340   5.143   6.453
 9611POPC   D2A58816   4.364   5.095   6.753
 9611POPC   C3A58817   4.359   5.135   7.053
 9611POPC   C4A58818   4.361   5.051   7.353
 9611POPC   C1B58819   4.320   5.303   6.453
 9611POPC   C2B58820   4.249   5.346   6.753
 9611POPC   C3B58821   4.294   5.293   7.053
 9611POPC   C4B58822   4.303   5.351   7.353
 9612POPC   NC358823   9.006  41.570   5.553
 9612POPC   PO458824   8.924  41.586   5.853
 9612POPC   GL158825   8.953  41.536   6.153
 9612POPC   GL258826   9.027  41.438   6.153
 9612POPC   C1A58827   9.020  41.509   6.453
 9612POPC   D2A58828   8.928  41.598   6.753
 9612POPC   C3A58829   9.017  41.603   7.053
 9612POPC   C4A58830   8.935  41.527   7.353
 9612POPC   C1B58831   9.127  41.318   6.453
 9612POPC   C2B58832   9.144  41.357   6.753
 9612POPC   C3B58833   9.111  41.372   7.053
 9612POPC   C4B58834   9.141  41.385   7.353
 9613POPC   NC358835  25.292  39.262   5.553
 9613POPC   PO458836  25.238  39.228   5.853
 9613POPC   GL158837  25.222  39.261   6.153
 9613POPC   GL258838  25.182  39.079   6.153
 9613POPC   C1A58839  25.278  39.208   6.453
 9613POPC   D2A58840  25.263  39.228   6.753
 9613POPC   C3A58841  25.279  39.227   7.053
 9613POPC   C4A58842  25.286  39.266   7.353
 9613POPC   C1B58843  25.196  39.009   6.453
 9613POPC   C2B58844  25.165  39.033   6.753
 9613POPC   C3B58845  25.186  38.952   7.053
 9613POPC   C4B58846  25.157  39.032   7.353
 9614POPC   NC358847  12.851   0.485   5.553
 9614POPC   PO458848  12.853   0.433   5.853
 9614POPC   GL158849  12.853   0.394   6.153
 9614POPC   GL258850  12.724   0.431   6.153
 9614POPC   C1A58851  12.838   0.455   6.453
 9614POPC   D2A58852  12.803   0.417   6.753
 9614POPC   C3A58853  12.835   0.444   7.053
 9614POPC   C4A58854  12.845   0.437   7.353
 9614POPC   C1B58855  12.588   0.470   6.453
 9614POPC   C2B58856  12.615   0.385   6.753
 9614POPC   C3B58857  12.566   0.436   7.053
 9614POPC   C4B58858  12.574   0.427   7.353
 9615POPC   NC358859  11.250  15.155   5.553
 9615POPC   PO458860  11.346  15.198   5.853
 9615POPC   GL158861  11.276  15.163   6.153
 9615POPC   GL258862  11.361  15.041   6.153
 9615POPC   C1A58863  11.289  15.175   6.453
 9615POPC   D2A58864  11.258  15.160   6.753
 9615POPC   C3A58865  11.304  15.214   7.053
 9615POPC   C4A58866  11.308  15.188   7.353
 9615POPC   C1B58867  11.391  14.927   6.453
 9615POPC   C2B58868  11.357  14.899   6.753
 9615POPC   C3B58869  11.371  14.904   7.053
 9615POPC   C4B58870  11.406  14.924   7.353
 9616POPC   NC358871   9.724  24.538   5.553
 9616POPC   PO458872   9.789  24.504   5.853
 9616POPC   GL158873   9.738  24.459   6.153
 9616POPC   GL258874   9.704  24.355   6.153
 9616POPC   C1A58875   9.795  24.476   6.453
 9616POPC   D2A58876   9.722  24.464   6.753
 9616POPC   C3A58877   9.705  24.477   7.053
 9616POPC   C4A58878   9.725  24.462   7.353
 9616POPC   C1B58879   9.547  24.333   6.453
 9616POPC   C2B58880   9.548  24.320   6.753
 9616POPC   C3B58881   9.592  24.304   7.053
 9616POPC   C4B58882   9.606  24.333   7.353
 9617POPC   NC358883  37.656  12.891   5.553
 9617POPC   PO458884  37.687  12.873   5.853
 9617POPC   GL158885  37.654  12.843   6.153
 9617POPC   GL258886  37.819  12.823   6.153
 9617POPC   C1A58887  37.666  12.877   6.453
 9617POPC   D2A58888  37.636  12.836   6.753
 9617POPC   C3A58889  37.718  12.808   7.053
 9617POPC   C4A58890  37.663  12.873   7.353
 9617POPC   C1B58891  37.879  12.705   6.453
 9617POPC   C2B58892  37.858  12.717   6.753
 9617POPC   C3B58893  37.844  12.680   7.053
 9617POPC   C4B58894  37.919  12.725   7.353
 9618POPC   NC358895   0.403  41.565   5.553
 9618POPC   PO458896   0.389  41.544   5.853
 9618POPC   GL158897   0.426  41.548   6.153
 9618POPC   GL258898   0.411  41.392   6.153
 9618POPC   C1A58899   0.457  41.606   6.453
 9618POPC   D2A58900   0.485  41.541   6.753
 9618POPC   C3A58901   0.438  41.585   7.053
 9618POPC   C4A58902   0.437  41.565   7.353
 9618POPC   C1B58903   0.440  41.269   6.453
 9618POPC   C2B58904   0.355  41.266   6.753
 9618POPC   C3B58905   0.393  41.302   7.053
 9618POPC   C4B58906   0.355  41.321   7.353
 9619POPC   NC358907  35.392  26.778   5.553
 9619POPC   PO458908  35.309  26.810   5.853
 9619POPC   GL158909  35.386  26.807   6.153
 9619POPC   GL258910  35.409  26.735   6.153
 9619POPC   C1A58911  35.394  26.828   6.453
 9619POPC   D2A58912  35.312  26.852   6.753
 9619POPC   C3A58913  35.360  26.839   7.053
 9619POPC   C4A58914  35.387  26.778   7.353
 9619POPC   C1B58915  35.410  26.532   6.453
 9619POPC   C2B58916  35.417  26.542   6.753
 9619POPC   C3B58917  35.419  26.535   7.053
 9619POPC   C4B58918  35.392  26.531   7.353
 9620POPC   NC358919  32.246  18.302   5.553
 9620POPC   PO458920  32.279  18.287   5.853
 9620POPC   GL158921  32.275  18.298   6.153
 9620POPC   GL258922  32.307  18.225   6.153
 9620POPC   C1A58923  32.288  18.287   6.453
 9620POPC   D2A58924  32.235  18.327   6.753
 9620POPC   C3A58925  32.243  18.277   7.053
 9620POPC   C4A58926  32.256  18.237   7.353
 9620POPC   C1B58927  32.443  18.114   6.453
 9620POPC   C2B58928  32.429  18.092   6.753
 9620POPC   C3B58929  32.465  18.134   7.053
 9620POPC   C4B58930  32.410  18.176   7.353
 9621POPC   NC358931   8.996  14.438   5.553
 9621POPC   PO458932   8.945  14.355   5.853
 9621POPC   GL158933   8.992  14.422   6.153
 9621POPC   GL258934   8.885  14.316   6.153
 9621POPC   C1A58935   8.946  14.423   6.453
 9621POPC   D2A58936   8.966  14.389   6.753
 9621POPC   C3A58937   8.955  14.411   7.053
 9621POPC   C4A58938   8.931  14.362   7.353
 9621POPC   C1B58939   8.705  14.314   6.453
 9621POPC   C2B58940   8.695  14.313   6.753
 9621POPC   C3B58941   8.712  14.334   7.053
 9621POPC   C4B58942   8.701  14.341   7.353
 9622POPC   NC358943  43.080  41.571   5.553
 9622POPC   PO458944  43.122  41.515   5.853
 9622POPC   GL158945  43.092  41.582   6.153
 9622POPC   GL258946  43.210  41.646   6.153
 9622POPC   C1A58947  43.072  41.521   6.453
 9622POPC   D2A58948  43.142  41.513   6.753
 9622POPC   C3A58949  43.094  41.562   7.053
 9622POPC   C4A58950  43.093  41.516   7.353
 9622POPC   C1B58951  43.302  41.643   6.453
 9622POPC   C2B58952  43.337  41.688   6.753
 9622POPC   C3B58953  43.276  41.694   7.053
 9622POPC   C4B58954  43.286  41.710   7.353
 9623POPC   NC358955  15.961  22.924   5.553
 9623POPC   PO458956  15.926  22.969   5.853
 9623POPC   GL158957  15.954  22.914   6.153
 9623POPC   GL258958  15.836  22.885   6.153
 9623POPC   C1A58959  15.985  22.983   6.453
 9623POPC   D2A58960  15.941  22.913   6.753
 9623POPC   C3A58961  15.953  22.973   7.053
 9623POPC   C4A58962  15.925  22.981   7.353
 9623POPC   C1B58963  15.765  22.785   6.453
 9623POPC   C2B58964  15.821  22.740   6.753
 9623POPC   C3B58965  15.771  22.747   7.053
 9623POPC   C4B58966  15.753  22.710   7.353
 9624POPC   NC358967  18.326   7.420   5.553
 9624POPC   PO458968  18.276   7.406   5.853
 9624POPC   GL158969  18.238   7.466   6.153
 9624POPC   GL258970  18.165   7.532   6.153
 9624POPC   C1A58971  18.315   7.417   6.453
 9624POPC   D2A58972  18.257   7.437   6.753
 9624POPC   C3A58973  18.237   7.441   7.053
 9624POPC   C4A58974  18.332   7.431   7.353
 9624POPC   C1B58975  18.098   7.529   6.453
 9624POPC   C2B58976  18.082   7.512   6.753
 9624POPC   C3B58977  18.071   7.538   7.053
 9624POPC   C4B58978  18.069   7.551   7.353
 9625POPC   NC358979  36.140   2.726   5.553
 9625POPC   PO458980  36.113   2.807   5.853
 9625POPC   GL158981  36.094   2.788   6.153
 9625POPC   GL258982  35.990   2.817   6.153
 9625POPC   C1A58983  36.116   2.814   6.453
 9625POPC   D2A58984  36.170   2.737   6.753
 9625POPC   C3A58985  36.171   2.779   7.053
 9625POPC   C4A58986  36.099   2.749   7.353
 9625POPC   C1B58987  35.859   2.822   6.453
 9625POPC   C2B58988  35.869   2.854   6.753
 9625POPC   C3B58989  35.874   2.877   7.053
 9625POPC   C4B58990  35.849   2.808   7.353
 9626POPC   NC358991  22.208  15.956   5.553
 9626POPC   PO458992  22.119  15.990   5.853
 9626POPC   GL158993  22.144  15.971   6.153
 9626POPC   GL258994  22.297  15.925   6.153
 9626POPC   C1A58995  22.120  15.991   6.453
 9626POPC   D2A58996  22.121  15.933   6.753
 9626POPC   C3A58997  22.157  15.925   7.053
 9626POPC   C4A58998  22.148  15.990   7.353
 9626POPC   C1B58999  22.369  15.917   6.453
 9626POPC   C2B59000  22.373  15.855   6.753
 9626POPC   C3B59001  22.371  15.890   7.053
 9626POPC   C4B59002  22.369  15.862   7.353
 9627POPC   NC359003  21.339   4.276   5.553
 9627POPC   PO459004  21.357   4.289   5.853
 9627POPC   GL159005  21.338   4.359   6.153
 9627POPC   GL259006  21.520   4.264   6.153
 9627POPC   C1A59007  21.409   4.350   6.453
 9627POPC   D2A59008  21.422   4.304   6.753
 9627POPC   C3A59009  21.340   4.351   7.053
 9627POPC   C4A59010  21.355   4.309   7.353
 9627POPC   C1B59011  21.658   4.252   6.453
 9627POPC   C2B59012  21.602   4.171   6.753
 9627POPC   C3B59013  21.651   4.222   7.053
 9627POPC   C4B59014  21.622   4.249   7.353
 9628POPC   NC359015   3.551  12.120   5.553
 9628POPC   PO459016   3.560  12.088   5.853
 9628POPC   GL159017   3.539  12.065   6.153
 9628POPC   GL259018   3.535  11.976   6.153
 9628POPC   C1A59019   3.511  12.047   6.453
 9628POPC   D2A59020   3.498  12.089   6.753
 9628POPC   C3A59021   3.512  12.067   7.053
 9628POPC   C4A59022   3.520  12.032   7.353
 9628POPC   C1B59023   3.586  11.869   6.453
 9628POPC   C2B59024   3.573  11.843   6.753
 9628POPC   C3B59025   3.623  11.813   7.053
 9628POPC   C4B59026   3.586  11.844   7.353
 9629POPC   NC359027   5.826  21.429   5.553
 9629POPC   PO459028   5.909  21.362   5.853
 9629POPC   GL159029   5.863  21.411   6.153
 9629POPC   GL259030   5.759  21.515   6.153
 9629POPC   C1A59031   5.885  21.363   6.453
 9629POPC   D2A59032   5.842  21.380   6.753
 9629POPC   C3A59033   5.840  21.418   7.053
 9629POPC   C4A59034   5.845  21.375   7.353
 9629POPC   C1B59035   5.711  21.606   6.453
 9629POPC   C2B59036   5.708  21.604   6.753
 9629POPC   C3B59037   5.730  21.554   7.053
 9629POPC   C4B59038   5.651  21.562   7.353
 9630POPC   NC359039  39.254  34.618   5.553
 9630POPC   PO459040  39.228  34.585   5.853
 9630POPC   GL159041  39.273  34.609   6.153
 9630POPC   GL259042  39.188  34.447   6.153
 9630POPC   C1A59043  39.279  34.583   6.453
 9630POPC   D2A59044  39.211  34.593   6.753
 9630POPC   C3A59045  39.255  34.622   7.053
 9630POPC   C4A59046  39.186  34.626   7.353
 9630POPC   C1B59047  38.998  34.379   6.453
 9630POPC   C2B59048  39.089  34.442   6.753
 9630POPC   C3B59049  39.023  34.431   7.053
 9630POPC   C4B59050  39.079  34.389   7.353
 9631POPC   NC359051   0.391   6.650   5.553
 9631POPC   PO459052   0.403   6.643   5.853
 9631POPC   GL159053   0.413   6.621   6.153
 9631POPC   GL259054   0.523   6.558   6.153
 9631POPC   C1A59055   0.445   6.607   6.453
 9631POPC   D2A59056   0.466   6.680   6.753
 9631POPC   C3A59057   0.464   6.616   7.053
 9631POPC   C4A59058   0.442   6.655   7.353
 9631POPC   C1B59059   0.560   6.463   6.453
 9631POPC   C2B59060   0.601   6.485   6.753
 9631POPC   C3B59061   0.570   6.465   7.053
 9631POPC   C4B59062   0.610   6.423   7.353
 9632POPC   NC359063  23.693  12.813   5.553
 9632POPC   PO459064  23.710  12.879   5.853
 9632POPC   GL159065  23.763  12.839   6.153
 9632POPC   GL259066  23.840  12.761   6.153
 9632POPC   C1A59067  23.708  12.831   6.453
 9632POPC   D2A59068  23.699  12.835   6.753
 9632POPC   C3A59069  23.673  12.811   7.053
 9632POPC   C4A59070  23.668  12.890   7.353
 9632POPC   C1B59071  23.930  12.653   6.453
 9632POPC   C2B59072  23.876  12.681   6.753
 9632POPC   C3B59073  23.933  12.724   7.053
 9632POPC   C4B59074  23.862  12.708   7.353
 9633POPC   NC359075  19.815  29.964   5.553
 9633POPC   PO459076  19.853  29.934   5.853
 9633POPC   GL159077  19.839  29.881   6.153
 9633POPC   GL259078  19.934  30.057   6.153
 9633POPC   C1A59079  19.850  29.939   6.453
 9633POPC   D2A59080  19.875  29.967   6.753
 9633POPC   C3A59081  19.825  29.900   7.053
 9633POPC   C4A59082  19.857  29.920   7.353
 9633POPC   C1B59083  19.974  30.135   6.453
 9633POPC   C2B59084  20.007  30.133   6.753
 9633POPC   C3B59085  20.022  30.163   7.053
 9633POPC   C4B59086  19.944  30.111   7.353
 9634POPC   NC359087  39.201   1.944   5.553
 9634POPC   PO459088  39.232   1.980   5.853
 9634POPC   GL159089  39.196   2.002   6.153
 9634POPC   GL259090  39.322   2.063   6.153
 9634POPC   C1A59091  39.258   1.979   6.453
 9634POPC   D2A59092  39.262   1.980   6.753
 9634POPC   C3A59093  39.214   2.027   7.053
 9634POPC   C4A59094  39.235   1.973   7.353
 9634POPC   C1B59095  39.487   2.069   6.453
 9634POPC   C2B59096  39.425   2.098   6.753
 9634POPC   C3B59097  39.513   2.022   7.053
 9634POPC   C4B59098  39.443   2.095   7.353
 9635POPC   NC359099  30.704  26.810   5.553
 9635POPC   PO459100  30.698  26.857   5.853
 9635POPC   GL159101  30.728  26.770   6.153
 9635POPC   GL259102  30.752  26.856   6.153
 9635POPC   C1A59103  30.738  26.777   6.453
 9635POPC   D2A59104  30.693  26.839   6.753
 9635POPC   C3A59105  30.706  26.777   7.053
 9635POPC   C4A59106  30.742  26.795   7.353
 9635POPC   C1B59107  30.826  26.996   6.453
 9635POPC   C2B59108  30.915  26.948   6.753
 9635POPC   C3B59109  30.907  26.977   7.053
 9635POPC   C4B59110  30.867  26.991   7.353
 9636POPC   NC359111   4.350  22.163   5.553
 9636POPC   PO459112   4.299  22.210   5.853
 9636POPC   GL159113   4.342  22.204   6.153
 9636POPC   GL259114   4.203  22.063   6.153
 9636POPC   C1A59115   4.326  22.137   6.453
 9636POPC   D2A59116   4.300  22.135   6.753
 9636POPC   C3A59117   4.333  22.170   7.053
 9636POPC   C4A59118   4.330  22.139   7.353
 9636POPC   C1B59119   4.087  22.015   6.453
 9636POPC   C2B59120   4.136  21.996   6.753
 9636POPC   C3B59121   4.143  22.006   7.053
 9636POPC   C4B59122   4.056  22.064   7.353
 9637POPC   NC359123  21.407  25.235   5.553
 9637POPC   PO459124  21.338  25.272   5.853
 9637POPC   GL159125  21.360  25.252   6.153
 9637POPC   GL259126  21.374  25.394   6.153
 9637POPC   C1A59127  21.358  25.274   6.453
 9637POPC   D2A59128  21.344  25.223   6.753
 9637POPC   C3A59129  21.345  25.272   7.053
 9637POPC   C4A59130  21.384  25.294   7.353
 9637POPC   C1B59131  21.376  25.503   6.453
 9637POPC   C2B59132  21.352  25.523   6.753
 9637POPC   C3B59133  21.415  25.475   7.053
 9637POPC   C4B59134  21.385  25.472   7.353
 9638POPC   NC359135   5.880  19.106   5.553
 9638POPC   PO459136   5.870  19.077   5.853
 9638POPC   GL159137   5.885  19.090   6.153
 9638POPC   GL259138   5.839  18.983   6.153
 9638POPC   C1A59139   5.826  19.019   6.453
 9638POPC   D2A59140   5.890  19.060   6.753
 9638POPC   C3A59141   5.860  19.107   7.053
 9638POPC   C4A59142   5.918  19.011   7.353
 9638POPC   C1B59143   5.732  18.860   6.453
 9638POPC   C2B59144   5.756  18.862   6.753
 9638POPC   C3B59145   5.762  18.878   7.053
 9638POPC   C4B59146   5.739  18.825   7.353
 9639POPC   NC359147   0.395  28.329   5.553
 9639POPC   PO459148   0.399  28.322   5.853
 9639POPC   GL159149   0.417  28.364   6.153
 9639POPC   GL259150   0.354  28.360   6.153
 9639POPC   C1A59151   0.464  28.347   6.453
 9639POPC   D2A59152   0.435  28.413   6.753
 9639POPC   C3A59153   0.399  28.356   7.053
 9639POPC   C4A59154   0.441  28.352   7.353
 9639POPC   C1B59155   0.172  28.382   6.453
 9639POPC   C2B59156   0.153  28.352   6.753
 9639POPC   C3B59157   0.153  28.358   7.053
 9639POPC   C4B59158   0.227  28.406   7.353
 9640POPC   NC359159  10.571  40.017   5.553
 9640POPC   PO459160  10.500  40.023   5.853
 9640POPC   GL159161  10.546  39.976   6.153
 9640POPC   GL259162  10.660  40.106   6.153
 9640POPC   C1A59163  10.502  39.965   6.453
 9640POPC   D2A59164  10.523  39.965   6.753
 9640POPC   C3A59165  10.525  40.006   7.053
 9640POPC   C4A59166  10.512  40.042   7.353
 9640POPC   C1B59167  10.730  40.150   6.453
 9640POPC   C2B59168  10.714  40.104   6.753
 9640POPC   C3B59169  10.798  40.129   7.053
 9640POPC   C4B59170  10.793  40.140   7.353
 9641POPC   NC359171  36.951  25.992   5.553
 9641POPC   PO459172  36.858  26.035   5.853
 9641POPC   GL159173  36.944  26.040   6.153
 9641POPC   GL259174  36.982  26.185   6.153
 9641POPC   C1A59175  36.938  26.066   6.453
 9641POPC   D2A59176  36.901  25.992   6.753
 9641POPC   C3A59177  36.934  26.007   7.053
 9641POPC   C4A59178  36.863  25.992   7.353
 9641POPC   C1B59179  37.023  26.223   6.453
 9641POPC   C2B59180  37.032  26.246   6.753
 9641POPC   C3B59181  36.987  26.270   7.053
 9641POPC   C4B59182  37.043  26.234   7.353
 9642POPC   NC359183   1.226  39.234   5.553
 9642POPC   PO459184   1.237  39.191   5.853
 9642POPC   GL159185   1.235  39.266   6.153
 9642POPC   GL259186   1.069  39.252   6.153
 9642POPC   C1A59187   1.170  39.277   6.453
 9642POPC   D2A59188   1.214  39.210   6.753
 9642POPC   C3A59189   1.195  39.183   7.053
 9642POPC   C4A59190   1.188  39.188   7.353
 9642POPC   C1B59191   0.928  39.243   6.453
 9642POPC   C2B59192   0.969  39.309   6.753
 9642POPC   C3B59193   0.972  39.269   7.053
 9642POPC   C4B59194   0.992  39.273   7.353
 9643POPC   NC359195  36.150  30.689   5.553
 9643POPC   PO459196  36.149  30.742   5.853
 9643POPC   GL159197  36.128  30.672   6.153
 9643POPC   GL259198  36.070  30.781   6.153
 9643POPC   C1A59199  36.126  30.743   6.453
 9643POPC   D2A59200  36.163  30.706   6.753
 9643POPC   C3A59201  36.158  30.665   7.053
 9643POPC   C4A59202  36.138  30.677   7.353
 9643POPC   C1B59203  36.150  30.950   6.453
 9643POPC   C2B59204  36.091  30.976   6.753
 9643POPC   C3B59205  36.112  30.920   7.053
 9643POPC   C4B59206  36.148  30.976   7.353
 9644POPC   NC359207   5.108  18.287   5.553
 9644POPC   PO459208   5.127  18.265   5.853
 9644POPC   GL159209   5.044  18.262   6.153
 9644POPC   GL259210   5.216  18.370   6.153
 9644POPC   C1A59211   5.108  18.274   6.453
 9644POPC   D2A59212   5.050  18.289   6.753
 9644POPC   C3A59213   5.100  18.291   7.053
 9644POPC   C4A59214   5.140  18.269   7.353
 9644POPC   C1B59215   5.329  18.461   6.453
 9644POPC   C2B59216   5.242  18.447   6.753
 9644POPC   C3B59217   5.255  18.419   7.053
 9644POPC   C4B59218   5.316  18.482   7.353
 9645POPC   NC359219  16.005  18.280   5.553
 9645POPC   PO459220  15.936  18.286   5.853
 9645POPC   GL159221  15.981  18.261   6.153
 9645POPC   GL259222  15.894  18.322   6.153
 9645POPC   C1A59223  15.905  18.298   6.453
 9645POPC   D2A59224  15.934  18.322   6.753
 9645POPC   C3A59225  15.983  18.291   7.053
 9645POPC   C4A59226  15.912  18.273   7.353
 9645POPC   C1B59227  15.704  18.376   6.453
 9645POPC   C2B59228  15.719  18.418   6.753
 9645POPC   C3B59229  15.783  18.407   7.053
 9645POPC   C4B59230  15.726  18.449   7.353
 9646POPC   NC359231   6.677  42.369   5.553
 9646POPC   PO459232   6.664  42.318   5.853
 9646POPC   GL159233   6.620  42.303   6.153
 9646POPC   GL259234   6.671  42.229   6.153
 9646POPC   C1A59235   6.641  42.308   6.453
 9646POPC   D2A59236   6.685  42.315   6.753
 9646POPC   C3A59237   6.662  42.341   7.053
 9646POPC   C4A59238   6.651  42.324   7.353
 9646POPC   C1B59239   6.750  42.120   6.453
 9646POPC   C2B59240   6.736  42.128   6.753
 9646POPC   C3B59241   6.693  42.138   7.053
 9646POPC   C4B59242   6.732  42.088   7.353
 9647POPC   NC359243  36.152  31.503   5.553
 9647POPC   PO459244  36.156  31.484   5.853
 9647POPC   GL159245  36.084  31.481   6.153
 9647POPC   GL259246  36.150  31.398   6.153
 9647POPC   C1A59247  36.095  31.513   6.453
 9647POPC   D2A59248  36.135  31.481   6.753
 9647POPC   C3A59249  36.142  31.439   7.053
 9647POPC   C4A59250  36.147  31.457   7.353
 9647POPC   C1B59251  36.069  31.188   6.453
 9647POPC   C2B59252  36.122  31.195   6.753
 9647POPC   C3B59253  36.044  31.237   7.053
 9647POPC   C4B59254  36.063  31.206   7.353
 9648POPC   NC359255  21.381  13.610   5.553
 9648POPC   PO459256  21.355  13.676   5.853
 9648POPC   GL159257  21.413  13.667   6.153
 9648POPC   GL259258  21.330  13.745   6.153
 9648POPC   C1A59259  21.402  13.604   6.453
 9648POPC   D2A59260  21.376  13.658   6.753
 9648POPC   C3A59261  21.337  13.647   7.053
 9648POPC   C4A59262  21.374  13.597   7.353
 9648POPC   C1B59263  21.214  13.775   6.453
 9648POPC   C2B59264  21.183  13.846   6.753
 9648POPC   C3B59265  21.205  13.768   7.053
 9648POPC   C4B59266  21.229  13.764   7.353
 9649POPC   NC359267  40.034  33.071   5.553
 9649POPC   PO459268  39.989  33.046   5.853
 9649POPC   GL159269  39.985  33.069   6.153
 9649POPC   GL259270  40.089  33.050   6.153
 9649POPC   C1A59271  39.965  33.023   6.453
 9649POPC   D2A59272  39.980  33.027   6.753
 9649POPC   C3A59273  39.959  33.037   7.053
 9649POPC   C4A59274  40.024  33.028   7.353
 9649POPC   C1B59275  40.256  32.956   6.453
 9649POPC   C2B59276  40.215  32.992   6.753
 9649POPC   C3B59277  40.257  32.973   7.053
 9649POPC   C4B59278  40.265  33.001   7.353
 9650POPC   NC359279   7.435  20.567   5.553
 9650POPC   PO459280   7.445  20.649   5.853
 9650POPC   GL159281   7.459  20.578   6.153
 9650POPC   GL259282   7.356  20.682   6.153
 9650POPC   C1A59283   7.423  20.574   6.453
 9650POPC   D2A59284   7.375  20.648   6.753
 9650POPC   C3A59285   7.427  20.621   7.053
 9650POPC   C4A59286   7.409  20.569   7.353
 9650POPC   C1B59287   7.284  20.811   6.453
 9650POPC   C2B59288   7.243  20.783   6.753
 9650POPC   C3B59289   7.211  20.755   7.053
 9650POPC   C4B59290   7.204  20.776   7.353
 9651POPC   NC359291  25.257  27.553   5.553
 9651POPC   PO459292  25.216  27.580   5.853
 9651POPC   GL159293  25.241  27.632   6.153
 9651POPC   GL259294  25.432  27.557   6.153
 9651POPC   C1A59295  25.240  27.547   6.453
 9651POPC   D2A59296  25.252  27.555   6.753
 9651POPC   C3A59297  25.223  27.580   7.053
 9651POPC   C4A59298  25.232  27.550   7.353
 9651POPC   C1B59299  25.473  27.478   6.453
 9651POPC   C2B59300  25.466  27.481   6.753
 9651POPC   C3B59301  25.479  27.565   7.053
 9651POPC   C4B59302  25.536  27.528   7.353
 9652POPC   NC359303   1.990  34.571   5.553
 9652POPC   PO459304   1.948  34.622   5.853
 9652POPC   GL159305   1.976  34.561   6.153
 9652POPC   GL259306   1.946  34.436   6.153
 9652POPC   C1A59307   1.994  34.530   6.453
 9652POPC   D2A59308   1.954  34.599   6.753
 9652POPC   C3A59309   2.004  34.539   7.053
 9652POPC   C4A59310   1.962  34.582   7.353
 9652POPC   C1B59311   1.924  34.375   6.453
 9652POPC   C2B59312   1.884  34.362   6.753
 9652POPC   C3B59313   1.913  34.329   7.053
 9652POPC   C4B59314   1.917  34.357   7.353
 9653POPC   NC359315   2.039  43.846   5.553
 9653POPC   PO459316   2.000  43.887   5.853
 9653POPC   GL159317   1.953  43.899   6.153
 9653POPC   GL259318   2.128  43.856   6.153
 9653POPC   C1A59319   1.969  43.933   6.453
 9653POPC   D2A59320   2.006  43.907   6.753
 9653POPC   C3A59321   1.976  43.864   7.053
 9653POPC   C4A59322   1.992  43.866   7.353
 9653POPC   C1B59323   2.198  43.848   6.453
 9653POPC   C2B59324   2.210  43.797   6.753
 9653POPC   C3B59325   2.252  43.816   7.053
 9653POPC   C4B59326   2.254  43.772   7.353
 9654POPC   NC359327  34.608  37.664   5.553
 9654POPC   PO459328  34.559  37.715   5.853
 9654POPC   GL159329  34.595  37.643   6.153
 9654POPC   GL259330  34.704  37.649   6.153
 9654POPC   C1A59331  34.589  37.660   6.453
 9654POPC   D2A59332  34.582  37.686   6.753
 9654POPC   C3A59333  34.538  37.681   7.053
 9654POPC   C4A59334  34.587  37.716   7.353
 9654POPC   C1B59335  34.796  37.722   6.453
 9654POPC   C2B59336  34.825  37.765   6.753
 9654POPC   C3B59337  34.827  37.681   7.053
 9654POPC   C4B59338  34.804  37.697   7.353
 9655POPC   NC359339  10.518   1.258   5.553
 9655POPC   PO459340  10.507   1.256   5.853
 9655POPC   GL159341  10.565   1.181   6.153
 9655POPC   GL259342  10.530   1.310   6.153
 9655POPC   C1A59343  10.523   1.219   6.453
 9655POPC   D2A59344  10.493   1.194   6.753
 9655POPC   C3A59345  10.545   1.233   7.053
 9655POPC   C4A59346  10.517   1.240   7.353
 9655POPC   C1B59347  10.524   1.470   6.453
 9655POPC   C2B59348  10.486   1.467   6.753
 9655POPC   C3B59349  10.521   1.498   7.053
 9655POPC   C4B59350  10.468   1.488   7.353
 9656POPC   NC359351  21.393  34.603   5.553
 9656POPC   PO459352  21.347  34.558   5.853
 9656POPC   GL159353  21.399  34.620   6.153
 9656POPC   GL259354  21.249  34.484   6.153
 9656POPC   C1A59355  21.349  34.565   6.453
 9656POPC   D2A59356  21.394  34.570   6.753
 9656POPC   C3A59357  21.368  34.608   7.053
 9656POPC   C4A59358  21.365  34.564   7.353
 9656POPC   C1B59359  21.160  34.466   6.453
 9656POPC   C2B59360  21.139  34.470   6.753
 9656POPC   C3B59361  21.199  34.436   7.053
 9656POPC   C4B59362  21.151  34.449   7.353
 9657POPC   NC359363  22.188  39.252   5.553
 9657POPC   PO459364  22.145  39.238   5.853
 9657POPC   GL159365  22.143  39.280   6.153
 9657POPC   GL259366  22.294  39.343   6.153
 9657POPC   C1A59367  22.145  39.210   6.453
 9657POPC   D2A59368  22.202  39.222   6.753
 9657POPC   C3A59369  22.147  39.196   7.053
 9657POPC   C4A59370  22.165  39.261   7.353
 9657POPC   C1B59371  22.359  39.444   6.453
 9657POPC   C2B59372  22.347  39.357   6.753
 9657POPC   C3B59373  22.323  39.413   7.053
 9657POPC   C4B59374  22.316  39.449   7.353
 9658POPC   NC359375  43.909  21.435   5.553
 9658POPC   PO459376  43.870  21.404   5.853
 9658POPC   GL159377  43.902  21.410   6.153
 9658POPC   GL259378  43.884  21.529   6.153
 9658POPC   C1A59379  43.882  21.380   6.453
 9658POPC   D2A59380  43.918  21.383   6.753
 9658POPC   C3A59381  43.860  21.366   7.053
 9658POPC   C4A59382  43.901  21.349   7.353
 9658POPC   C1B59383  43.887  21.608   6.453
 9658POPC   C2B59384  43.892  21.631   6.753
 9658POPC   C3B59385  43.834  21.601   7.053
 9658POPC   C4B59386  43.796  21.634   7.353
 9659POPC   NC359387   1.237  12.833   5.553
 9659POPC   PO459388   1.171  12.830   5.853
 9659POPC   GL159389   1.255  12.840   6.153
 9659POPC   GL259390   1.238  12.733   6.153
 9659POPC   C1A59391   1.175  12.862   6.453
 9659POPC   D2A59392   1.196  12.804   6.753
 9659POPC   C3A59393   1.250  12.820   7.053
 9659POPC   C4A59394   1.216  12.876   7.353
 9659POPC   C1B59395   1.330  12.580   6.453
 9659POPC   C2B59396   1.297  12.665   6.753
 9659POPC   C3B59397   1.338  12.666   7.053
 9659POPC   C4B59398   1.339  12.586   7.353
 9660POPC   NC359399   8.926  12.808   5.553
 9660POPC   PO459400   9.009  12.850   5.853
 9660POPC   GL159401   8.993  12.901   6.153
 9660POPC   GL259402   8.874  12.970   6.153
 9660POPC   C1A59403   8.949  12.845   6.453
 9660POPC   D2A59404   8.962  12.881   6.753
 9660POPC   C3A59405   8.942  12.869   7.053
 9660POPC   C4A59406   8.924  12.833   7.353
 9660POPC   C1B59407   8.795  13.034   6.453
 9660POPC   C2B59408   8.768  12.948   6.753
 9660POPC   C3B59409   8.730  12.955   7.053
 9660POPC   C4B59410   8.738  13.013   7.353
 9661POPC   NC359411  19.851  43.135   5.553
 9661POPC   PO459412  19.879  43.139   5.853
 9661POPC   GL159413  19.800  43.071   6.153
 9661POPC   GL259414  19.915  42.947   6.153
 9661POPC   C1A59415  19.837  43.122   6.453
 9661POPC   D2A59416  19.867  43.078   6.753
 9661POPC   C3A59417  19.801  43.124   7.053
 9661POPC   C4A59418  19.877  43.136   7.353
 9661POPC   C1B59419  19.922  42.834   6.453
 9661POPC   C2B59420  19.937  42.913   6.753
 9661POPC   C3B59421  19.948  42.893   7.053
 9661POPC   C4B59422  19.937  42.835   7.353
 9662POPC   NC359423  36.936  20.660   5.553
 9662POPC   PO459424  36.875  20.576   5.853
 9662POPC   GL159425  36.904  20.641   6.153
 9662POPC   GL259426  36.833  20.675   6.153
 9662POPC   C1A59427  36.935  20.596   6.453
 9662POPC   D2A59428  36.940  20.640   6.753
 9662POPC   C3A59429  36.925  20.645   7.053
 9662POPC   C4A59430  36.914  20.618   7.353
 9662POPC   C1B59431  36.709  20.683   6.453
 9662POPC   C2B59432  36.629  20.708   6.753
 9662POPC   C3B59433  36.688  20.736   7.053
 9662POPC   C4B59434  36.700  20.676   7.353
 9663POPC   NC359435  39.231  33.767   5.553
 9663POPC   PO459436  39.269  33.797   5.853
 9663POPC   GL159437  39.271  33.777   6.153
 9663POPC   GL259438  39.321  33.929   6.153
 9663POPC   C1A59439  39.245  33.812   6.453
 9663POPC   D2A59440  39.186  33.794   6.753
 9663POPC   C3A59441  39.229  33.752   7.053
 9663POPC   C4A59442  39.276  33.781   7.353
 9663POPC   C1B59443  39.339  34.005   6.453
 9663POPC   C2B59444  39.292  33.996   6.753
 9663POPC   C3B59445  39.322  34.007   7.053
 9663POPC   C4B59446  39.354  34.053   7.353
 9664POPC   NC359447   1.234  29.916   5.553
 9664POPC   PO459448   1.238  29.900   5.853
 9664POPC   GL159449   1.226  29.881   6.153
 9664POPC   GL259450   1.101  29.858   6.153
 9664POPC   C1A59451   1.188  29.948   6.453
 9664POPC   D2A59452   1.252  29.956   6.753
 9664POPC   C3A59453   1.183  29.965   7.053
 9664POPC   C4A59454   1.167  29.873   7.353
 9664POPC   C1B59455   0.987  29.793   6.453
 9664POPC   C2B59456   0.936  29.815   6.753
 9664POPC   C3B59457   0.996  29.785   7.053
 9664POPC   C4B59458   0.982  29.834   7.353
 9665POPC   NC359459  36.935  10.481   5.553
 9665POPC   PO459460  36.921  10.481   5.853
 9665POPC   GL159461  36.919  10.507   6.153
 9665POPC   GL259462  36.823  10.635   6.153
 9665POPC   C1A59463  36.863  10.523   6.453
 9665POPC   D2A59464  36.903  10.535   6.753
 9665POPC   C3A59465  36.943  10.475   7.053
 9665POPC   C4A59466  36.952  10.481   7.353
 9665POPC   C1B59467  36.657  10.639   6.453
 9665POPC   C2B59468  36.646  10.694   6.753
 9665POPC   C3B59469  36.734  10.655   7.053
 9665POPC   C4B59470  36.639  10.691   7.353
 9666POPC   NC359471  23.676  43.846   5.553
 9666POPC   PO459472  23.723  43.923   5.853
 9666POPC   GL159473  23.670  43.889   6.153
 9666POPC   GL259474  23.636  43.820   6.153
 9666POPC   C1A59475  23.680  43.839   6.453
 9666POPC   D2A59476  23.689  43.884   6.753
 9666POPC   C3A59477  23.737  43.879   7.053
 9666POPC   C4A59478  23.716  43.844   7.353
 9666POPC   C1B59479  23.449  43.858   6.453
 9666POPC   C2B59480  23.467  43.767   6.753
 9666POPC   C3B59481  23.443  43.855   7.053
 9666POPC   C4B59482  23.509  43.841   7.353
 9667POPC   NC359483  39.192  26.784   5.553
 9667POPC   PO459484  39.272  26.781   5.853
 9667POPC   GL159485  39.230  26.823   6.153
 9667POPC   GL259486  39.209  26.982   6.153
 9667POPC   C1A59487  39.228  26.845   6.453
 9667POPC   D2A59488  39.253  26.848   6.753
 9667POPC   C3A59489  39.220  26.775   7.053
 9667POPC   C4A59490  39.275  26.805   7.353
 9667POPC   C1B59491  39.209  27.053   6.453
 9667POPC   C2B59492  39.187  27.022   6.753
 9667POPC   C3B59493  39.230  27.023   7.053
 9667POPC   C4B59494  39.212  27.038   7.353
 9668POPC   NC359495  27.612  16.741   5.553
 9668POPC   PO459496  27.544  16.770   5.853
 9668POPC   GL159497  27.581  16.775   6.153
 9668POPC   GL259498  27.739  16.736   6.153
 9668POPC   C1A59499  27.642  16.728   6.453
 9668POPC   D2A59500  27.576  16.738   6.753
 9668POPC   C3A59501  27.614  16.711   7.053
 9668POPC   C4A59502  27.597  16.723   7.353
 9668POPC   C1B59503  27.784  16.774   6.453
 9668POPC   C2B59504  27.825  16.809   6.753
 9668POPC   C3B59505  27.814  16.767   7.053
 9668POPC   C4B59506  27.783  16.851   7.353
 9669POPC   NC359507  15.923  28.341   5.553
 9669POPC   PO459508  15.985  28.365   5.853
 9669POPC   GL159509  15.988  28.402   6.153
 9669POPC   GL259510  16.110  28.389   6.153
 9669POPC   C1A59511  15.997  28.384   6.453
 9669POPC   D2A59512  15.970  28.409   6.753
 9669POPC   C3A59513  16.004  28.322   7.053
 9669POPC   C4A59514  15.995  28.356   7.353
 9669POPC   C1B59515  16.201  28.527   6.453
 9669POPC   C2B59516  16.205  28.460   6.753
 9669POPC   C3B59517  16.175  28.481   7.053
 9669POPC   C4B59518  16.121  28.484   7.353
 9670POPC   NC359519  38.409  21.380   5.553
 9670POPC   PO459520  38.422  21.429   5.853
 9670POPC   GL159521  38.415  21.418   6.153
 9670POPC   GL259522  38.513  21.516   6.153
 9670POPC   C1A59523  38.500  21.421   6.453
 9670POPC   D2A59524  38.503  21.409   6.753
 9670POPC   C3A59525  38.501  21.428   7.053
 9670POPC   C4A59526  38.481  21.353   7.353
 9670POPC   C1B59527  38.498  21.596   6.453
 9670POPC   C2B59528  38.524  21.583   6.753
 9670POPC   C3B59529  38.502  21.595   7.053
 9670POPC   C4B59530  38.476  21.647   7.353
 9671POPC   NC359531   1.244  33.785   5.553
 9671POPC   PO459532   1.168  33.814   5.853
 9671POPC   GL159533   1.235  33.825   6.153
 9671POPC   GL259534   1.110  33.892   6.153
 9671POPC   C1A59535   1.193  33.771   6.453
 9671POPC   D2A59536   1.211  33.850   6.753
 9671POPC   C3A59537   1.204  33.787   7.053
 9671POPC   C4A59538   1.235  33.788   7.353
 9671POPC   C1B59539   1.011  33.960   6.453
 9671POPC   C2B59540   1.003  33.962   6.753
 9671POPC   C3B59541   0.998  33.995   7.053
 9671POPC   C4B59542   1.036  33.989   7.353
 9672POPC   NC359543   8.241  22.184   5.553
 9672POPC   PO459544   8.159  22.139   5.853
 9672POPC   GL159545   8.163  22.167   6.153
 9672POPC   GL259546   8.348  22.100   6.153
 9672POPC   C1A59547   8.243  22.120   6.453
 9672POPC   D2A59548   8.173  22.174   6.753
 9672POPC   C3A59549   8.224  22.154   7.053
 9672POPC   C4A59550   8.166  22.148   7.353
 9672POPC   C1B59551   8.390  22.108   6.453
 9672POPC   C2B59552   8.406  22.131   6.753
 9672POPC   C3B59553   8.465  22.128   7.053
 9672POPC   C4B59554   8.389  22.078   7.353
 9673POPC   NC359555   5.069  42.365   5.553
 9673POPC   PO459556   5.114  42.365   5.853
 9673POPC   GL159557   5.079  42.328   6.153
 9673POPC   GL259558   4.965  42.304   6.153
 9673POPC   C1A59559   5.088  42.361   6.453
 9673POPC   D2A59560   5.099  42.368   6.753
 9673POPC   C3A59561   5.051  42.332   7.053
 9673POPC   C4A59562   5.108  42.348   7.353
 9673POPC   C1B59563   4.932  42.197   6.453
 9673POPC   C2B59564   4.907  42.175   6.753
 9673POPC   C3B59565   4.844  42.216   7.053
 9673POPC   C4B59566   4.930  42.227   7.353
 9674POPC   NC359567  10.542  16.761   5.553
 9674POPC   PO459568  10.476  16.684   5.853
 9674POPC   GL159569  10.481  16.709   6.153
 9674POPC   GL259570  10.560  16.838   6.153
 9674POPC   C1A59571  10.565  16.707   6.453
 9674POPC   D2A59572  10.563  16.734   6.753
 9674POPC   C3A59573  10.498  16.720   7.053
 9674POPC   C4A59574  10.546  16.716   7.353
 9674POPC   C1B59575  10.570  16.944   6.453
 9674POPC   C2B59576  10.563  17.021   6.753
 9674POPC   C3B59577  10.522  16.957   7.053
 9674POPC   C4B59578  10.559  17.004   7.353
 9675POPC   NC359579  14.448  15.985   5.553
 9675POPC   PO459580  14.354  15.968   5.853
 9675POPC   GL159581  14.417  15.919   6.153
 9675POPC   GL259582  14.325  15.868   6.153
 9675POPC   C1A59583  14.364  15.925   6.453
 9675POPC   D2A59584  14.443  15.947   6.753
 9675POPC   C3A59585  14.423  15.939   7.053
 9675POPC   C4A59586  14.452  15.952   7.353
 9675POPC   C1B59587  14.239  15.806   6.453
 9675POPC   C2B59588  14.237  15.818   6.753
 9675POPC   C3B59589  14.169  15.771   7.053
 9675POPC   C4B59590  14.220  15.869   7.353
 9676POPC   NC359591  25.307  17.557   5.553
 9676POPC   PO459592  25.297  17.474   5.853
 9676POPC   GL159593  25.237  17.488   6.153
 9676POPC   GL259594  25.391  17.489   6.153
 9676POPC   C1A59595  25.311  17.458   6.453
 9676POPC   D2A59596  25.313  17.521   6.753
 9676POPC   C3A59597  25.275  17.493   7.053
 9676POPC   C4A59598  25.286  17.502   7.353
 9676POPC   C1B59599  25.503  17.383   6.453
 9676POPC   C2B59600  25.502  17.362   6.753
 9676POPC   C3B59601  25.499  17.397   7.053
 9676POPC   C4B59602  25.524  17.380   7.353
 9677POPC   NC359603  31.434  35.391   5.553
 9677POPC   PO459604  31.482  35.354   5.853
 9677POPC   GL159605  31.484  35.339   6.153
 9677POPC   GL259606  31.594  35.476   6.153
 9677POPC   C1A59607  31.456  35.379   6.453
 9677POPC   D2A59608  31.502  35.329   6.753
 9677POPC   C3A59609  31.455  35.353   7.053
 9677POPC   C4A59610  31.485  35.314   7.353
 9677POPC   C1B59611  31.702  35.518   6.453
 9677POPC   C2B59612  31.684  35.551   6.753
 9677POPC   C3B59613  31.705  35.527   7.053
 9677POPC   C4B59614  31.641  35.521   7.353
 9678POPC   NC359615  21.386  37.710   5.553
 9678POPC   PO459616  21.375  37.704   5.853
 9678POPC   GL159617  21.425  37.647   6.153
 9678POPC   GL259618  21.544  37.736   6.153
 9678POPC   C1A59619  21.379  37.694   6.453
 9678POPC   D2A59620  21.341  37.653   6.753
 9678POPC   C3A59621  21.435  37.693   7.053
 9678POPC   C4A59622  21.375  37.662   7.353
 9678POPC   C1B59623  21.606  37.776   6.453
 9678POPC   C2B59624  21.563  37.782   6.753
 9678POPC   C3B59625  21.630  37.749   7.053
 9678POPC   C4B59626  21.637  37.792   7.353
 9679POPC   NC359627  43.875  42.346   5.553
 9679POPC   PO459628  43.863  42.364   5.853
 9679POPC   GL159629  43.916  42.380   6.153
 9679POPC   GL259630  43.920  42.249   6.153
 9679POPC   C1A59631  43.895  42.366   6.453
 9679POPC   D2A59632  43.849  42.333   6.753
 9679POPC   C3A59633  43.879  42.382   7.053
 9679POPC   C4A59634  43.863  42.301   7.353
 9679POPC   C1B59635  43.915  42.041   6.453
 9679POPC   C2B59636  43.832  42.080   6.753
 9679POPC   C3B59637  43.897  42.065   7.053
 9679POPC   C4B59638  43.864  42.067   7.353
 9680POPC   NC359639  38.413  31.481   5.553
 9680POPC   PO459640  38.443  31.505   5.853
 9680POPC   GL159641  38.428  31.482   6.153
 9680POPC   GL259642  38.515  31.308   6.153
 9680POPC   C1A59643  38.486  31.432   6.453
 9680POPC   D2A59644  38.463  31.442   6.753
 9680POPC   C3A59645  38.413  31.471   7.053
 9680POPC   C4A59646  38.470  31.521   7.353
 9680POPC   C1B59647  38.518  31.182   6.453
 9680POPC   C2B59648  38.492  31.238   6.753
 9680POPC   C3B59649  38.474  31.275   7.053
 9680POPC   C4B59650  38.557  31.272   7.353
 9681POPC   NC359651  37.655  19.808   5.553
 9681POPC   PO459652  37.696  19.813   5.853
 9681POPC   GL159653  37.649  19.788   6.153
 9681POPC   GL259654  37.607  19.916   6.153
 9681POPC   C1A59655  37.708  19.809   6.453
 9681POPC   D2A59656  37.658  19.865   6.753
 9681POPC   C3A59657  37.700  19.874   7.053
 9681POPC   C4A59658  37.640  19.883   7.353
 9681POPC   C1B59659  37.602  20.070   6.453
 9681POPC   C2B59660  37.574  20.071   6.753
 9681POPC   C3B59661  37.620  20.062   7.053
 9681POPC   C4B59662  37.546  20.098   7.353
 9682POPC   NC359663  40.780  33.020   5.553
 9682POPC   PO459664  40.751  33.069   5.853
 9682POPC   GL159665  40.775  33.037   6.153
 9682POPC   GL259666  40.883  33.085   6.153
 9682POPC   C1A59667  40.738  33.012   6.453
 9682POPC   D2A59668  40.806  33.056   6.753
 9682POPC   C3A59669  40.739  33.064   7.053
 9682POPC   C4A59670  40.817  33.031   7.353
 9682POPC   C1B59671  41.004  33.217   6.453
 9682POPC   C2B59672  40.967  33.139   6.753
 9682POPC   C3B59673  41.032  33.171   7.053
 9682POPC   C4B59674  41.020  33.187   7.353
 9683POPC   NC359675  39.273  10.561   5.553
 9683POPC   PO459676  39.269  10.526   5.853
 9683POPC   GL159677  39.208  10.496   6.153
 9683POPC   GL259678  39.091  10.472   6.153
 9683POPC   C1A59679  39.223  10.491   6.453
 9683POPC   D2A59680  39.251  10.571   6.753
 9683POPC   C3A59681  39.276  10.496   7.053
 9683POPC   C4A59682  39.184  10.565   7.353
 9683POPC   C1B59683  39.077  10.357   6.453
 9683POPC   C2B59684  39.072  10.379   6.753
 9683POPC   C3B59685  39.005  10.399   7.053
 9683POPC   C4B59686  39.066  10.367   7.353
 9684POPC   NC359687  32.998  39.183   5.553
 9684POPC   PO459688  33.069  39.208   5.853
 9684POPC   GL159689  33.001  39.272   6.153
 9684POPC   GL259690  33.044  39.084   6.153
 9684POPC   C1A59691  33.045  39.261   6.453
 9684POPC   D2A59692  32.984  39.267   6.753
 9684POPC   C3A59693  32.998  39.260   7.053
 9684POPC   C4A59694  33.061  39.207   7.353
 9684POPC   C1B59695  33.089  39.030   6.453
 9684POPC   C2B59696  33.069  39.031   6.753
 9684POPC   C3B59697  33.085  38.999   7.053
 9684POPC   C4B59698  33.045  39.025   7.353
 9685POPC   NC359699  34.622  44.633   5.553
 9685POPC   PO459700  34.597  44.659   5.853
 9685POPC   GL159701  34.535  44.623   6.153
 9685POPC   GL259702  34.453  44.701   6.153
 9685POPC   C1A59703  34.529  44.618   6.453
 9685POPC   D2A59704  34.615  44.675   6.753
 9685POPC   C3A59705  34.593  44.674   7.053
 9685POPC   C4A59706  34.567  44.619   7.353
 9685POPC   C1B59707  34.296  44.640   6.453
 9685POPC   C2B59708  34.295  44.634   6.753
 9685POPC   C3B59709  34.282  44.673   7.053
 9685POPC   C4B59710  34.308  44.678   7.353
 9686POPC   NC359711  40.014  10.572   5.553
 9686POPC   PO459712  39.965  10.557   5.853
 9686POPC   GL159713  40.000  10.547   6.153
 9686POPC   GL259714  39.884  10.542   6.153
 9686POPC   C1A59715  39.973  10.521   6.453
 9686POPC   D2A59716  40.013  10.497   6.753
 9686POPC   C3A59717  39.962  10.565   7.053
 9686POPC   C4A59718  40.010  10.526   7.353
 9686POPC   C1B59719  39.762  10.612   6.453
 9686POPC   C2B59720  39.792  10.608   6.753
 9686POPC   C3B59721  39.771  10.611   7.053
 9686POPC   C4B59722  39.747  10.627   7.353
 9687POPC   NC359723  43.844   6.670   5.553
 9687POPC   PO459724  43.886   6.628   5.853
 9687POPC   GL159725  43.897   6.661   6.153
 9687POPC   GL259726  44.016   6.560   6.153
 9687POPC   C1A59727  43.908   6.666   6.453
 9687POPC   D2A59728  43.920   6.679   6.753
 9687POPC   C3A59729  43.933   6.638   7.053
 9687POPC   C4A59730  43.876   6.614   7.353
 9687POPC   C1B59731  44.071   6.475   6.453
 9687POPC   C2B59732  44.093   6.463   6.753
 9687POPC   C3B59733  44.137   6.542   7.053
 9687POPC   C4B59734  44.093   6.511   7.353
 9688POPC   NC359735   1.960  12.857   5.553
 9688POPC   PO459736   1.992  12.883   5.853
 9688POPC   GL159737   1.998  12.893   6.153
 9688POPC   GL259738   1.867  12.879   6.153
 9688POPC   C1A59739   2.037  12.806   6.453
 9688POPC   D2A59740   1.960  12.806   6.753
 9688POPC   C3A59741   2.024  12.835   7.053
 9688POPC   C4A59742   1.976  12.832   7.353
 9688POPC   C1B59743   1.697  12.847   6.453
 9688POPC   C2B59744   1.699  12.790   6.753
 9688POPC   C3B59745   1.735  12.789   7.053
 9688POPC   C4B59746   1.741  12.862   7.353
 9689POPC   NC359747   3.532  26.027   5.553
 9689POPC   PO459748   3.514  26.066   5.853
 9689POPC   GL159749   3.509  26.059   6.153
 9689POPC   GL259750   3.403  26.089   6.153
 9689POPC   C1A59751   3.547  26.061   6.453
 9689POPC   D2A59752   3.545  26.049   6.753
 9689POPC   C3A59753   3.518  26.085   7.053
 9689POPC   C4A59754   3.555  26.024   7.353
 9689POPC   C1B59755   3.327  26.248   6.453
 9689POPC   C2B59756   3.366  26.195   6.753
 9689POPC   C3B59757   3.359  26.238   7.053
 9689POPC   C4B59758   3.347  26.206   7.353
 9690POPC   NC359759  44.655  14.440   5.553
 9690POPC   PO459760  44.659  14.354   5.853
 9690POPC   GL159761  44.645  14.397   6.153
 9690POPC   GL259762  44.596  14.242   6.153
 9690POPC   C1A59763  44.705  14.410   6.453
 9690POPC   D2A59764  44.676  14.380   6.753
 9690POPC   C3A59765  44.653  14.424   7.053
 9690POPC   C4A59766  44.702  14.400   7.353
 9690POPC   C1B59767  44.529  14.160   6.453
 9690POPC   C2B59768  44.571  14.228   6.753
 9690POPC   C3B59769  44.600  14.192   7.053
 9690POPC   C4B59770  44.600  14.219   7.353
 9691POPC   NC359771   5.870  16.693   5.553
 9691POPC   PO459772   5.865  16.776   5.853
 9691POPC   GL159773   5.873  16.721   6.153
 9691POPC   GL259774   5.840  16.626   6.153
 9691POPC   C1A59775   5.884  16.760   6.453
 9691POPC   D2A59776   5.847  16.710   6.753
 9691POPC   C3A59777   5.857  16.762   7.053
 9691POPC   C4A59778   5.829  16.728   7.353
 9691POPC   C1B59779   5.740  16.469   6.453
 9691POPC   C2B59780   5.760  16.516   6.753
 9691POPC   C3B59781   5.724  16.504   7.053
 9691POPC   C4B59782   5.792  16.495   7.353
 9692POPC   NC359783   4.332  26.833   5.553
 9692POPC   PO459784   4.336  26.811   5.853
 9692POPC   GL159785   4.347  26.793   6.153
 9692POPC   GL259786   4.345  26.934   6.153
 9692POPC   C1A59787   4.298  26.841   6.453
 9692POPC   D2A59788   4.281  26.845   6.753
 9692POPC   C3A59789   4.349  26.832   7.053
 9692POPC   C4A59790   4.345  26.825   7.353
 9692POPC   C1B59791   4.270  27.107   6.453
 9692POPC   C2B59792   4.289  27.056   6.753
 9692POPC   C3B59793   4.257  27.051   7.053
 9692POPC   C4B59794   4.344  27.112   7.353
 9693POPC   NC359795   1.192   9.794   5.553
 9693POPC   PO459796   1.170   9.704   5.853
 9693POPC   GL159797   1.212   9.718   6.153
 9693POPC   GL259798   1.136   9.764   6.153
 9693POPC   C1A59799   1.247   9.735   6.453
 9693POPC   D2A59800   1.234   9.737   6.753
 9693POPC   C3A59801   1.236   9.759   7.053
 9693POPC   C4A59802   1.190   9.792   7.353
 9693POPC   C1B59803   1.008   9.741   6.453
 9693POPC   C2B59804   0.994   9.716   6.753
 9693POPC   C3B59805   0.986   9.693   7.053
 9693POPC   C4B59806   0.989   9.735   7.353
 9694POPC   NC359807  33.066  32.297   5.553
 9694POPC   PO459808  32.978  32.271   5.853
 9694POPC   GL159809  33.028  32.278   6.153
 9694POPC   GL259810  33.031  32.324   6.153
 9694POPC   C1A59811  33.036  32.224   6.453
 9694POPC   D2A59812  33.061  32.297   6.753
 9694POPC   C3A59813  33.027  32.255   7.053
 9694POPC   C4A59814  33.017  32.242   7.353
 9694POPC   C1B59815  32.968  32.480   6.453
 9694POPC   C2B59816  32.986  32.493   6.753
 9694POPC   C3B59817  32.976  32.459   7.053
 9694POPC   C4B59818  32.968  32.481   7.353
 9695POPC   NC359819   6.662  40.736   5.553
 9695POPC   PO459820   6.693  40.824   5.853
 9695POPC   GL159821   6.619  40.755   6.153
 9695POPC   GL259822   6.639  40.885   6.153
 9695POPC   C1A59823   6.611  40.765   6.453
 9695POPC   D2A59824   6.659  40.824   6.753
 9695POPC   C3A59825   6.657  40.780   7.053
 9695POPC   C4A59826   6.601  40.789   7.353
 9695POPC   C1B59827   6.626  41.000   6.453
 9695POPC   C2B59828   6.540  41.029   6.753
 9695POPC   C3B59829   6.536  41.012   7.053
 9695POPC   C4B59830   6.624  41.041   7.353
 9696POPC   NC359831  11.312   2.716   5.553
 9696POPC   PO459832  11.311   2.784   5.853
 9696POPC   GL159833  11.296   2.724   6.153
 9696POPC   GL259834  11.192   2.695   6.153
 9696POPC   C1A59835  11.299   2.739   6.453
 9696POPC   D2A59836  11.315   2.771   6.753
 9696POPC   C3A59837  11.262   2.795   7.053
 9696POPC   C4A59838  11.344   2.726   7.353
 9696POPC   C1B59839  11.073   2.691   6.453
 9696POPC   C2B59840  11.051   2.645   6.753
 9696POPC   C3B59841  11.066   2.704   7.053
 9696POPC   C4B59842  11.065   2.641   7.353
 9697POPC   NC359843  42.295  18.327   5.553
 9697POPC   PO459844  42.368  18.292   5.853
 9697POPC   GL159845  42.374  18.312   6.153
 9697POPC   GL259846  42.250  18.433   6.153
 9697POPC   C1A59847  42.345  18.262   6.453
 9697POPC   D2A59848  42.365  18.296   6.753
 9697POPC   C3A59849  42.314  18.311   7.053
 9697POPC   C4A59850  42.299  18.290   7.353
 9697POPC   C1B59851  42.244  18.504   6.453
 9697POPC   C2B59852  42.266  18.529   6.753
 9697POPC   C3B59853  42.221  18.531   7.053
 9697POPC   C4B59854  42.202  18.502   7.353
 9698POPC   NC359855  35.387  29.943   5.553
 9698POPC   PO459856  35.303  29.921   5.853
 9698POPC   GL159857  35.380  29.901   6.153
 9698POPC   GL259858  35.435  29.980   6.153
 9698POPC   C1A59859  35.345  29.899   6.453
 9698POPC   D2A59860  35.325  29.928   6.753
 9698POPC   C3A59861  35.342  29.887   7.053
 9698POPC   C4A59862  35.330  29.890   7.353
 9698POPC   C1B59863  35.620  30.087   6.453
 9698POPC   C2B59864  35.551  30.002   6.753
 9698POPC   C3B59865  35.570  29.996   7.053
 9698POPC   C4B59866  35.607  29.993   7.353
 9699POPC   NC359867  36.143  27.602   5.553
 9699POPC   PO459868  36.165  27.613   5.853
 9699POPC   GL159869  36.168  27.545   6.153
 9699POPC   GL259870  36.280  27.562   6.153
 9699POPC   C1A59871  36.119  27.642   6.453
 9699POPC   D2A59872  36.172  27.551   6.753
 9699POPC   C3A59873  36.090  27.595   7.053
 9699POPC   C4A59874  36.112  27.610   7.353
 9699POPC   C1B59875  36.331  27.453   6.453
 9699POPC   C2B59876  36.386  27.497   6.753
 9699POPC   C3B59877  36.334  27.529   7.053
 9699POPC   C4B59878  36.387  27.522   7.353
 9700POPC   NC359879  36.090  15.998   5.553
 9700POPC   PO459880  36.176  15.914   5.853
 9700POPC   GL159881  36.150  15.979   6.153
 9700POPC   GL259882  36.221  15.998   6.153
 9700POPC   C1A59883  36.122  15.996   6.453
 9700POPC   D2A59884  36.126  15.977   6.753
 9700POPC   C3A59885  36.109  15.988   7.053
 9700POPC   C4A59886  36.103  15.910   7.353
 9700POPC   C1B59887  36.391  16.073   6.453
 9700POPC   C2B59888  36.345  16.041   6.753
 9700POPC   C3B59889  36.327  15.992   7.053
 9700POPC   C4B59890  36.369  16.033   7.353
 9701POPC   NC359891  32.987   0.458   5.553
 9701POPC   PO459892  32.994   0.413   5.853
 9701POPC   GL159893  33.000   0.408   6.153
 9701POPC   GL259894  33.164   0.386   6.153
 9701POPC   C1A59895  33.025   0.485   6.453
 9701POPC   D2A59896  33.020   0.482   6.753
 9701POPC   C3A59897  32.988   0.401   7.053
 9701POPC   C4A59898  33.070   0.408   7.353
 9701POPC   C1B59899  33.262   0.304   6.453
 9701POPC   C2B59900  33.246   0.277   6.753
 9701POPC   C3B59901  33.207   0.245   7.053
 9701POPC   C4B59902  33.207   0.282   7.353
 9702POPC   NC359903  28.352  19.859   5.553
 9702POPC   PO459904  28.407  19.820   5.853
 9702POPC   GL159905  28.417  19.873   6.153
 9702POPC   GL259906  28.412  19.959   6.153
 9702POPC   C1A59907  28.390  19.787   6.453
 9702POPC   D2A59908  28.363  19.856   6.753
 9702POPC   C3A59909  28.370  19.818   7.053
 9702POPC   C4A59910  28.328  19.848   7.353
 9702POPC   C1B59911  28.338  20.071   6.453
 9702POPC   C2B59912  28.373  20.083   6.753
 9702POPC   C3B59913  28.377  20.074   7.053
 9702POPC   C4B59914  28.386  20.104   7.353
 9703POPC   NC359915  32.240  40.821   5.553
 9703POPC   PO459916  32.281  40.804   5.853
 9703POPC   GL159917  32.282  40.773   6.153
 9703POPC   GL259918  32.251  40.862   6.153
 9703POPC   C1A59919  32.219  40.810   6.453
 9703POPC   D2A59920  32.279  40.816   6.753
 9703POPC   C3A59921  32.265  40.824   7.053
 9703POPC   C4A59922  32.278  40.802   7.353
 9703POPC   C1B59923  32.306  41.061   6.453
 9703POPC   C2B59924  32.317  41.006   6.753
 9703POPC   C3B59925  32.337  41.041   7.053
 9703POPC   C4B59926  32.376  41.021   7.353
 9704POPC   NC359927   6.632   4.366   5.553
 9704POPC   PO459928   6.636   4.277   5.853
 9704POPC   GL159929   6.630   4.292   6.153
 9704POPC   GL259930   6.802   4.283   6.153
 9704POPC   C1A59931   6.605   4.304   6.453
 9704POPC   D2A59932   6.643   4.327   6.753
 9704POPC   C3A59933   6.695   4.346   7.053
 9704POPC   C4A59934   6.661   4.313   7.353
 9704POPC   C1B59935   6.893   4.228   6.453
 9704POPC   C2B59936   6.928   4.281   6.753
 9704POPC   C3B59937   6.870   4.238   7.053
 9704POPC   C4B59938   6.872   4.314   7.353
 9705POPC   NC359939  26.001   0.485   5.553
 9705POPC   PO459940  26.005   0.417   5.853
 9705POPC   GL159941  26.015   0.401   6.153
 9705POPC   GL259942  25.936   0.526   6.153
 9705POPC   C1A59943  26.015   0.416   6.453
 9705POPC   D2A59944  26.080   0.428   6.753
 9705POPC   C3A59945  26.083   0.394   7.053
 9705POPC   C4A59946  26.072   0.460   7.353
 9705POPC   C1B59947  25.825   0.582   6.453
 9705POPC   C2B59948  25.820   0.540   6.753
 9705POPC   C3B59949  25.828   0.576   7.053
 9705POPC   C4B59950  25.838   0.570   7.353
 9706POPC   NC359951  20.653  14.382   5.553
 9706POPC   PO459952  20.578  14.417   5.853
 9706POPC   GL159953  20.649  14.361   6.153
 9706POPC   GL259954  20.716  14.337   6.153
 9706POPC   C1A59955  20.642  14.424   6.453
 9706POPC   D2A59956  20.652  14.372   6.753
 9706POPC   C3A59957  20.634  14.398   7.053
 9706POPC   C4A59958  20.607  14.387   7.353
 9706POPC   C1B59959  20.727  14.174   6.453
 9706POPC   C2B59960  20.821  14.208   6.753
 9706POPC   C3B59961  20.803  14.207   7.053
 9706POPC   C4B59962  20.787  14.172   7.353
 9707POPC   NC359963  36.897  33.751   5.553
 9707POPC   PO459964  36.908  33.822   5.853
 9707POPC   GL159965  36.905  33.841   6.153
 9707POPC   GL259966  36.802  33.959   6.153
 9707POPC   C1A59967  36.880  33.795   6.453
 9707POPC   D2A59968  36.874  33.792   6.753
 9707POPC   C3A59969  36.924  33.780   7.053
 9707POPC   C4A59970  36.890  33.792   7.353
 9707POPC   C1B59971  36.806  34.053   6.453
 9707POPC   C2B59972  36.800  33.979   6.753
 9707POPC   C3B59973  36.745  34.027   7.053
 9707POPC   C4B59974  36.759  33.980   7.353
 9708POPC   NC359975  20.636  33.041   5.553
 9708POPC   PO459976  20.643  33.036   5.853
 9708POPC   GL159977  20.600  32.977   6.153
 9708POPC   GL259978  20.508  33.094   6.153
 9708POPC   C1A59979  20.592  33.039   6.453
 9708POPC   D2A59980  20.594  32.987   6.753
 9708POPC   C3A59981  20.574  32.999   7.053
 9708POPC   C4A59982  20.656  33.039   7.353
 9708POPC   C1B59983  20.404  33.086   6.453
 9708POPC   C2B59984  20.394  33.130   6.753
 9708POPC   C3B59985  20.400  33.082   7.053
 9708POPC   C4B59986  20.384  33.130   7.353
 9709POPC   NC359987  36.106  32.201   5.553
 9709POPC   PO459988  36.145  32.257   5.853
 9709POPC   GL159989  36.130  32.207   6.153
 9709POPC   GL259990  36.074  32.098   6.153
 9709POPC   C1A59991  36.150  32.281   6.453
 9709POPC   D2A59992  36.167  32.270   6.753
 9709POPC   C3A59993  36.142  32.261   7.053
 9709POPC   C4A59994  36.160  32.213   7.353
 9709POPC   C1B59995  36.060  31.971   6.453
 9709POPC   C2B59996  36.045  31.969   6.753
 9709POPC   C3B59997  36.047  32.043   7.053
 9709POPC   C4B59998  36.087  32.016   7.353
 9710POPC   NC359999  15.191  26.778   5.553
 9710POPC   PO460000  15.190  26.818   5.853
 9710POPC   GL160001  15.216  26.807   6.153
 9710POPC   GL260002  15.255  26.892   6.153
 9710POPC   C1A60003  15.165  26.825   6.453
 9710POPC   D2A60004  15.157  26.822   6.753
 9710POPC   C3A60005  15.147  26.829   7.053
 9710POPC   C4A60006  15.151  26.768   7.353
 9710POPC   C1B60007  15.307  27.085   6.453
 9710POPC   C2B60008  15.242  27.090   6.753
 9710POPC   C3B60009  15.252  27.017   7.053
 9710POPC   C4B60010  15.230  27.097   7.353
 9711POPC   NC360011  42.295   2.717   5.553
 9711POPC   PO460012  42.293   2.747   5.853
 9711POPC   GL160013  42.332   2.720   6.153
 9711POPC   GL260014  42.499   2.836   6.153
 9711POPC   C1A60015  42.285   2.746   6.453
 9711POPC   D2A60016  42.354   2.797   6.753
 9711POPC   C3A60017  42.294   2.735   7.053
 9711POPC   C4A60018  42.365   2.747   7.353
 9711POPC   C1B60019  42.576   2.877   6.453
 9711POPC   C2B60020  42.601   2.829   6.753
 9711POPC   C3B60021  42.537   2.825   7.053
 9711POPC   C4B60022  42.585   2.842   7.353
 9712POPC   NC360023  23.672  32.981   5.553
 9712POPC   PO460024  23.672  32.977   5.853
 9712POPC   GL160025  23.723  32.988   6.153
 9712POPC   GL260026  23.861  33.113   6.153
 9712POPC   C1A60027  23.741  33.014   6.453
 9712POPC   D2A60028  23.685  32.985   6.753
 9712POPC   C3A60029  23.750  33.027   7.053
 9712POPC   C4A60030  23.680  32.987   7.353
 9712POPC   C1B60031  23.982  33.162   6.453
 9712POPC   C2B60032  23.897  33.109   6.753
 9712POPC   C3B60033  23.968  33.116   7.053
 9712POPC   C4B60034  23.945  33.122   7.353
 9713POPC   NC360035  33.834  43.862   5.553
 9713POPC   PO460036  33.801  43.929   5.853
 9713POPC   GL160037  33.762  43.890   6.153
 9713POPC   GL260038  33.659  43.892   6.153
 9713POPC   C1A60039  33.800  43.905   6.453
 9713POPC   D2A60040  33.802  43.870   6.753
 9713POPC   C3A60041  33.783  43.900   7.053
 9713POPC   C4A60042  33.783  43.867   7.353
 9713POPC   C1B60043  33.603  43.909   6.453
 9713POPC   C2B60044  33.540  43.955   6.753
 9713POPC   C3B60045  33.567  43.944   7.053
 9713POPC   C4B60046  33.504  43.920   7.353
 9714POPC   NC360047  36.096  11.300   5.553
 9714POPC   PO460048  36.161  11.310   5.853
 9714POPC   GL160049  36.104  11.303   6.153
 9714POPC   GL260050  35.996  11.424   6.153
 9714POPC   C1A60051  36.144  11.340   6.453
 9714POPC   D2A60052  36.095  11.289   6.753
 9714POPC   C3A60053  36.117  11.289   7.053
 9714POPC   C4A60054  36.160  11.346   7.353
 9714POPC   C1B60055  35.921  11.472   6.453
 9714POPC   C2B60056  35.895  11.480   6.753
 9714POPC   C3B60057  35.899  11.422   7.053
 9714POPC   C4B60058  35.900  11.486   7.353
 9715POPC   NC360059   6.653  36.173   5.553
 9715POPC   PO460060   6.611  36.103   5.853
 9715POPC   GL160061   6.661  36.133   6.153
 9715POPC   GL260062   6.741  36.192   6.153
 9715POPC   C1A60063   6.614  36.125   6.453
 9715POPC   D2A60064   6.615  36.167   6.753
 9715POPC   C3A60065   6.665  36.140   7.053
 9715POPC   C4A60066   6.655  36.129   7.353
 9715POPC   C1B60067   6.724  36.323   6.453
 9715POPC   C2B60068   6.796  36.353   6.753
 9715POPC   C3B60069   6.759  36.338   7.053
 9715POPC   C4B60070   6.734  36.321   7.353
 9716POPC   NC360071   0.410  11.256   5.553
 9716POPC   PO460072   0.450  11.311   5.853
 9716POPC   GL160073   0.405  11.274   6.153
 9716POPC   GL260074   0.351  11.370   6.153
 9716POPC   C1A60075   0.464  11.289   6.453
 9716POPC   D2A60076   0.411  11.312   6.753
 9716POPC   C3A60077   0.388  11.346   7.053
 9716POPC   C4A60078   0.407  11.288   7.353
 9716POPC   C1B60079   0.274  11.457   6.453
 9716POPC   C2B60080   0.226  11.435   6.753
 9716POPC   C3B60081   0.256  11.462   7.053
 9716POPC   C4B60082   0.235  11.412   7.353
 9717POPC   NC360083  11.315  25.221   5.553
 9717POPC   PO460084  11.272  25.230   5.853
 9717POPC   GL160085  11.318  25.223   6.153
 9717POPC   GL260086  11.167  25.385   6.153
 9717POPC   C1A60087  11.283  25.272   6.453
 9717POPC   D2A60088  11.304  25.273   6.753
 9717POPC   C3A60089  11.267  25.297   7.053
 9717POPC   C4A60090  11.256  25.313   7.353
 9717POPC   C1B60091  11.102  25.372   6.453
 9717POPC   C2B60092  11.144  25.403   6.753
 9717POPC   C3B60093  11.084  25.373   7.053
 9717POPC   C4B60094  11.115  25.377   7.353
 9718POPC   NC360095  18.318   2.728   5.553
 9718POPC   PO460096  18.295   2.744   5.853
 9718POPC   GL160097  18.297   2.745   6.153
 9718POPC   GL260098  18.450   2.766   6.153
 9718POPC   C1A60099  18.269   2.749   6.453
 9718POPC   D2A60100  18.268   2.727   6.753
 9718POPC   C3A60101  18.278   2.811   7.053
 9718POPC   C4A60102  18.237   2.755   7.353
 9718POPC   C1B60103  18.511   2.818   6.453
 9718POPC   C2B60104  18.555   2.793   6.753
 9718POPC   C3B60105  18.525   2.792   7.053
 9718POPC   C4B60106  18.488   2.813   7.353
 9719POPC   NC360107  16.756  24.513   5.553
 9719POPC   PO460108  16.743  24.455   5.853
 9719POPC   GL160109  16.718  24.466   6.153
 9719POPC   GL260110  16.686  24.601   6.153
 9719POPC   C1A60111  16.780  24.454   6.453
 9719POPC   D2A60112  16.754  24.468   6.753
 9719POPC   C3A60113  16.754  24.532   7.053
 9719POPC   C4A60114  16.758  24.478   7.353
 9719POPC   C1B60115  16.634  24.653   6.453
 9719POPC   C2B60116  16.605  24.677   6.753
 9719POPC   C3B60117  16.645  24.703   7.053
 9719POPC   C4B60118  16.619  24.750   7.353
 9720POPC   NC360119  17.515  30.735   5.553
 9720POPC   PO460120  17.556  30.699   5.853
 9720POPC   GL160121  17.488  30.722   6.153
 9720POPC   GL260122  17.390  30.654   6.153
 9720POPC   C1A60123  17.481  30.724   6.453
 9720POPC   D2A60124  17.479  30.733   6.753
 9720POPC   C3A60125  17.508  30.723   7.053
 9720POPC   C4A60126  17.464  30.735   7.353
 9720POPC   C1B60127  17.286  30.702   6.453
 9720POPC   C2B60128  17.290  30.658   6.753
 9720POPC   C3B60129  17.292  30.703   7.053
 9720POPC   C4B60130  17.302  30.668   7.353
 9721POPC   NC360131   7.381   9.798   5.553
 9721POPC   PO460132   7.372   9.753   5.853
 9721POPC   GL160133   7.463   9.772   6.153
 9721POPC   GL260134   7.472   9.615   6.153
 9721POPC   C1A60135   7.454   9.786   6.453
 9721POPC   D2A60136   7.456   9.702   6.753
 9721POPC   C3A60137   7.467   9.749   7.053
 9721POPC   C4A60138   7.429   9.735   7.353
 9721POPC   C1B60139   7.548   9.503   6.453
 9721POPC   C2B60140   7.466   9.489   6.753
 9721POPC   C3B60141   7.504   9.555   7.053
 9721POPC   C4B60142   7.475   9.519   7.353
 9722POPC   NC360143  23.709  32.286   5.553
 9722POPC   PO460144  23.699  32.284   5.853
 9722POPC   GL160145  23.734  32.214   6.153
 9722POPC   GL260146  23.683  32.389   6.153
 9722POPC   C1A60147  23.759  32.246   6.453
 9722POPC   D2A60148  23.737  32.296   6.753
 9722POPC   C3A60149  23.701  32.247   7.053
 9722POPC   C4A60150  23.723  32.199   7.353
 9722POPC   C1B60151  23.678  32.538   6.453
 9722POPC   C2B60152  23.726  32.529   6.753
 9722POPC   C3B60153  23.725  32.539   7.053
 9722POPC   C4B60154  23.698  32.505   7.353
 9723POPC   NC360155  13.627  24.480   5.553
 9723POPC   PO460156  13.666  24.485   5.853
 9723POPC   GL160157  13.609  24.536   6.153
 9723POPC   GL260158  13.525  24.546   6.153
 9723POPC   C1A60159  13.578  24.529   6.453
 9723POPC   D2A60160  13.667  24.470   6.753
 9723POPC   C3A60161  13.612  24.456   7.053
 9723POPC   C4A60162  13.629  24.493   7.353
 9723POPC   C1B60163  13.427  24.591   6.453
 9723POPC   C2B60164  13.414  24.627   6.753
 9723POPC   C3B60165  13.437  24.649   7.053
 9723POPC   C4B60166  13.421  24.654   7.353
 9724POPC   NC360167  37.642  22.125   5.553
 9724POPC   PO460168  37.697  22.118   5.853
 9724POPC   GL160169  37.705  22.141   6.153
 9724POPC   GL260170  37.571  22.111   6.153
 9724POPC   C1A60171  37.689  22.178   6.453
 9724POPC   D2A60172  37.697  22.184   6.753
 9724POPC   C3A60173  37.681  22.199   7.053
 9724POPC   C4A60174  37.708  22.170   7.353
 9724POPC   C1B60175  37.423  22.148   6.453
 9724POPC   C2B60176  37.388  22.065   6.753
 9724POPC   C3B60177  37.403  22.145   7.053
 9724POPC   C4B60178  37.472  22.083   7.353
 9725POPC   NC360179  22.135  40.813   5.553
 9725POPC   PO460180  22.211  40.816   5.853
 9725POPC   GL160181  22.162  40.814   6.153
 9725POPC   GL260182  22.037  40.775   6.153
 9725POPC   C1A60183  22.142  40.810   6.453
 9725POPC   D2A60184  22.201  40.735   6.753
 9725POPC   C3A60185  22.116  40.814   7.053
 9725POPC   C4A60186  22.162  40.822   7.353
 9725POPC   C1B60187  21.937  40.649   6.453
 9725POPC   C2B60188  21.933  40.637   6.753
 9725POPC   C3B60189  21.950  40.671   7.053
 9725POPC   C4B60190  21.899  40.716   7.353
 9726POPC   NC360191  37.708   9.763   5.553
 9726POPC   PO460192  37.689   9.751   5.853
 9726POPC   GL160193  37.702   9.739   6.153
 9726POPC   GL260194  37.802   9.822   6.153
 9726POPC   C1A60195  37.698   9.739   6.453
 9726POPC   D2A60196  37.659   9.765   6.753
 9726POPC   C3A60197  37.724   9.773   7.053
 9726POPC   C4A60198  37.695   9.734   7.353
 9726POPC   C1B60199  37.803   9.929   6.453
 9726POPC   C2B60200  37.823   9.964   6.753
 9726POPC   C3B60201  37.857   9.899   7.053
 9726POPC   C4B60202  37.893   9.937   7.353
 9727POPC   NC360203  34.590  27.598   5.553
 9727POPC   PO460204  34.615  27.639   5.853
 9727POPC   GL160205  34.574  27.619   6.153
 9727POPC   GL260206  34.537  27.487   6.153
 9727POPC   C1A60207  34.575  27.553   6.453
 9727POPC   D2A60208  34.535  27.577   6.753
 9727POPC   C3A60209  34.554  27.619   7.053
 9727POPC   C4A60210  34.578  27.567   7.353
 9727POPC   C1B60211  34.542  27.318   6.453
 9727POPC   C2B60212  34.539  27.324   6.753
 9727POPC   C3B60213  34.565  27.365   7.053
 9727POPC   C4B60214  34.605  27.388   7.353
 9728POPC   NC360215  32.297  23.738   5.553
 9728POPC   PO460216  32.229  23.758   5.853
 9728POPC   GL160217  32.206  23.721   6.153
 9728POPC   GL260218  32.165  23.772   6.153
 9728POPC   C1A60219  32.229  23.725   6.453
 9728POPC   D2A60220  32.285  23.748   6.753
 9728POPC   C3A60221  32.219  23.758   7.053
 9728POPC   C4A60222  32.236  23.706   7.353
 9728POPC   C1B60223  32.058  23.879   6.453
 9728POPC   C2B60224  32.058  23.864   6.753
 9728POPC   C3B60225  32.089  23.883   7.053
 9728POPC   C4B60226  32.095  23.902   7.353
 9729POPC   NC360227  35.332  15.201   5.553
 9729POPC   PO460228  35.349  15.147   5.853
 9729POPC   GL160229  35.326  15.185   6.153
 9729POPC   GL260230  35.465  15.318   6.153
 9729POPC   C1A60231  35.316  15.178   6.453
 9729POPC   D2A60232  35.378  15.208   6.753
 9729POPC   C3A60233  35.320  15.144   7.053
 9729POPC   C4A60234  35.340  15.179   7.353
 9729POPC   C1B60235  35.565  15.382   6.453
 9729POPC   C2B60236  35.508  15.323   6.753
 9729POPC   C3B60237  35.537  15.355   7.053
 9729POPC   C4B60238  35.507  15.399   7.353
 9730POPC   NC360239   2.029  16.722   5.553
 9730POPC   PO460240   2.022  16.708   5.853
 9730POPC   GL160241   1.949  16.780   6.153
 9730POPC   GL260242   1.978  16.641   6.153
 9730POPC   C1A60243   2.000  16.721   6.453
 9730POPC   D2A60244   1.995  16.710   6.753
 9730POPC   C3A60245   2.030  16.745   7.053
 9730POPC   C4A60246   2.039  16.737   7.353
 9730POPC   C1B60247   1.996  16.452   6.453
 9730POPC   C2B60248   2.000  16.436   6.753
 9730POPC   C3B60249   2.033  16.521   7.053
 9730POPC   C4B60250   2.021  16.531   7.353
 9731POPC   NC360251  17.458   3.586   5.553
 9731POPC   PO460252  17.475   3.550   5.853
 9731POPC   GL160253  17.535   3.571   6.153
 9731POPC   GL260254  17.614   3.652   6.153
 9731POPC   C1A60255  17.504   3.569   6.453
 9731POPC   D2A60256  17.517   3.517   6.753
 9731POPC   C3A60257  17.475   3.564   7.053
 9731POPC   C4A60258  17.465   3.551   7.353
 9731POPC   C1B60259  17.759   3.710   6.453
 9731POPC   C2B60260  17.667   3.688   6.753
 9731POPC   C3B60261  17.752   3.651   7.053
 9731POPC   C4B60262  17.669   3.650   7.353
 9732POPC   NC360263  10.532   7.398   5.553
 9732POPC   PO460264  10.571   7.411   5.853
 9732POPC   GL160265  10.514   7.381   6.153
 9732POPC   GL260266  10.531   7.265   6.153
 9732POPC   C1A60267  10.500   7.377   6.453
 9732POPC   D2A60268  10.554   7.438   6.753
 9732POPC   C3A60269  10.540   7.463   7.053
 9732POPC   C4A60270  10.511   7.438   7.353
 9732POPC   C1B60271  10.522   7.170   6.453
 9732POPC   C2B60272  10.559   7.158   6.753
 9732POPC   C3B60273  10.492   7.156   7.053
 9732POPC   C4B60274  10.473   7.158   7.353
 9733POPC   NC360275   5.075  33.057   5.553
 9733POPC   PO460276   5.119  33.071   5.853
 9733POPC   GL160277   5.072  32.980   6.153
 9733POPC   GL260278   5.006  32.954   6.153
 9733POPC   C1A60279   5.048  33.002   6.453
 9733POPC   D2A60280   5.063  32.979   6.753
 9733POPC   C3A60281   5.059  33.008   7.053
 9733POPC   C4A60282   5.065  33.065   7.353
 9733POPC   C1B60283   4.935  32.809   6.453
 9733POPC   C2B60284   4.982  32.872   6.753
 9733POPC   C3B60285   4.976  32.783   7.053
 9733POPC   C4B60286   4.900  32.856   7.353
 9734POPC   NC360287   8.224   5.084   5.553
 9734POPC   PO460288   8.180   5.115   5.853
 9734POPC   GL160289   8.245   5.046   6.153
 9734POPC   GL260290   8.109   5.209   6.153
 9734POPC   C1A60291   8.149   5.070   6.453
 9734POPC   D2A60292   8.209   5.082   6.753
 9734POPC   C3A60293   8.159   5.098   7.053
 9734POPC   C4A60294   8.220   5.054   7.353
 9734POPC   C1B60295   7.988   5.257   6.453
 9734POPC   C2B60296   8.038   5.205   6.753
 9734POPC   C3B60297   7.985   5.241   7.053
 9734POPC   C4B60298   7.986   5.203   7.353
 9735POPC   NC360299   7.387  13.648   5.553
 9735POPC   PO460300   7.455  13.627   5.853
 9735POPC   GL160301   7.454  13.652   6.153
 9735POPC   GL260302   7.349  13.540   6.153
 9735POPC   C1A60303   7.379  13.593   6.453
 9735POPC   D2A60304   7.377  13.592   6.753
 9735POPC   C3A60305   7.452  13.630   7.053
 9735POPC   C4A60306   7.398  13.668   7.353
 9735POPC   C1B60307   7.157  13.494   6.453
 9735POPC   C2B60308   7.184  13.508   6.753
 9735POPC   C3B60309   7.215  13.547   7.053
 9735POPC   C4B60310   7.195  13.572   7.353
 9736POPC   NC360311  19.788  21.389   5.553
 9736POPC   PO460312  19.876  21.381   5.853
 9736POPC   GL160313  19.839  21.386   6.153
 9736POPC   GL260314  19.729  21.384   6.153
 9736POPC   C1A60315  19.824  21.367   6.453
 9736POPC   D2A60316  19.797  21.384   6.753
 9736POPC   C3A60317  19.841  21.374   7.053
 9736POPC   C4A60318  19.877  21.422   7.353
 9736POPC   C1B60319  19.582  21.467   6.453
 9736POPC   C2B60320  19.624  21.447   6.753
 9736POPC   C3B60321  19.631  21.424   7.053
 9736POPC   C4B60322  19.556  21.466   7.353
 9737POPC   NC360323  34.559  15.161   5.553
 9737POPC   PO460324  34.602  15.204   5.853
 9737POPC   GL160325  34.625  15.227   6.153
 9737POPC   GL260326  34.629  15.257   6.153
 9737POPC   C1A60327  34.598  15.206   6.453
 9737POPC   D2A60328  34.595  15.140   6.753
 9737POPC   C3A60329  34.616  15.134   7.053
 9737POPC   C4A60330  34.562  15.214   7.353
 9737POPC   C1B60331  34.743  15.390   6.453
 9737POPC   C2B60332  34.663  15.417   6.753
 9737POPC   C3B60333  34.675  15.415   7.053
 9737POPC   C4B60334  34.704  15.399   7.353
 9738POPC   NC360335  17.478  40.735   5.553
 9738POPC   PO460336  17.465  40.760   5.853
 9738POPC   GL160337  17.471  40.746   6.153
 9738POPC   GL260338  17.418  40.782   6.153
 9738POPC   C1A60339  17.521  40.827   6.453
 9738POPC   D2A60340  17.508  40.816   6.753
 9738POPC   C3A60341  17.464  40.778   7.053
 9738POPC   C4A60342  17.492  40.757   7.353
 9738POPC   C1B60343  17.216  40.843   6.453
 9738POPC   C2B60344  17.237  40.845   6.753
 9738POPC   C3B60345  17.218  40.788   7.053
 9738POPC   C4B60346  17.294  40.782   7.353
 9739POPC   NC360347  35.395   7.420   5.553
 9739POPC   PO460348  35.396   7.381   5.853
 9739POPC   GL160349  35.392   7.399   6.153
 9739POPC   GL260350  35.286   7.312   6.153
 9739POPC   C1A60351  35.397   7.443   6.453
 9739POPC   D2A60352  35.342   7.385   6.753
 9739POPC   C3A60353  35.358   7.434   7.053
 9739POPC   C4A60354  35.306   7.381   7.353
 9739POPC   C1B60355  35.223   7.244   6.453
 9739POPC   C2B60356  35.191   7.265   6.753
 9739POPC   C3B60357  35.217   7.265   7.053
 9739POPC   C4B60358  35.214   7.244   7.353
 9740POPC   NC360359  39.975  17.497   5.553
 9740POPC   PO460360  40.009  17.524   5.853
 9740POPC   GL160361  39.986  17.528   6.153
 9740POPC   GL260362  39.941  17.626   6.153
 9740POPC   C1A60363  40.052  17.475   6.453
 9740POPC   D2A60364  39.982  17.501   6.753
 9740POPC   C3A60365  39.982  17.495   7.053
 9740POPC   C4A60366  40.019  17.531   7.353
 9740POPC   C1B60367  39.960  17.760   6.453
 9740POPC   C2B60368  39.948  17.803   6.753
 9740POPC   C3B60369  39.925  17.742   7.053
 9740POPC   C4B60370  39.927  17.744   7.353
 9741POPC   NC360371   2.737   2.794   5.553
 9741POPC   PO460372   2.731   2.730   5.853
 9741POPC   GL160373   2.786   2.797   6.153
 9741POPC   GL260374   2.866   2.780   6.153
 9741POPC   C1A60375   2.780   2.783   6.453
 9741POPC   D2A60376   2.769   2.724   6.753
 9741POPC   C3A60377   2.787   2.780   7.053
 9741POPC   C4A60378   2.790   2.755   7.353
 9741POPC   C1B60379   3.010   2.819   6.453
 9741POPC   C2B60380   2.989   2.826   6.753
 9741POPC   C3B60381   3.007   2.803   7.053
 9741POPC   C4B60382   3.023   2.823   7.353
 9742POPC   NC360383   1.243  21.363   5.553
 9742POPC   PO460384   1.180  21.435   5.853
 9742POPC   GL160385   1.183  21.410   6.153
 9742POPC   GL260386   1.105  21.397   6.153
 9742POPC   C1A60387   1.174  21.417   6.453
 9742POPC   D2A60388   1.164  21.353   6.753
 9742POPC   C3A60389   1.181  21.384   7.053
 9742POPC   C4A60390   1.165  21.414   7.353
 9742POPC   C1B60391   0.965  21.389   6.453
 9742POPC   C2B60392   0.996  21.393   6.753
 9742POPC   C3B60393   0.944  21.406   7.053
 9742POPC   C4B60394   0.958  21.383   7.353
 9743POPC   NC360395  20.594  35.366   5.553
 9743POPC   PO460396  20.591  35.341   5.853
 9743POPC   GL160397  20.587  35.375   6.153
 9743POPC   GL260398  20.712  35.258   6.153
 9743POPC   C1A60399  20.621  35.302   6.453
 9743POPC   D2A60400  20.596  35.313   6.753
 9743POPC   C3A60401  20.613  35.356   7.053
 9743POPC   C4A60402  20.590  35.393   7.353
 9743POPC   C1B60403  20.816  35.185   6.453
 9743POPC   C2B60404  20.858  35.195   6.753
 9743POPC   C3B60405  20.785  35.182   7.053
 9743POPC   C4B60406  20.817  35.194   7.353
 9744POPC   NC360407  17.468   0.439   5.553
 9744POPC   PO460408  17.532   0.411   5.853
 9744POPC   GL160409  17.525   0.398   6.153
 9744POPC   GL260410  17.612   0.475   6.153
 9744POPC   C1A60411  17.486   0.417   6.453
 9744POPC   D2A60412  17.466   0.472   6.753
 9744POPC   C3A60413  17.476   0.424   7.053
 9744POPC   C4A60414  17.514   0.424   7.353
 9744POPC   C1B60415  17.678   0.526   6.453
 9744POPC   C2B60416  17.701   0.522   6.753
 9744POPC   C3B60417  17.711   0.563   7.053
 9744POPC   C4B60418  17.701   0.537   7.353
 9745POPC   NC360419  29.132  41.566   5.553
 9745POPC   PO460420  29.173  41.528   5.853
 9745POPC   GL160421  29.166  41.560   6.153
 9745POPC   GL260422  29.080  41.588   6.153
 9745POPC   C1A60423  29.126  41.535   6.453
 9745POPC   D2A60424  29.101  41.571   6.753
 9745POPC   C3A60425  29.193  41.554   7.053
 9745POPC   C4A60426  29.136  41.607   7.353
 9745POPC   C1B60427  28.889  41.640   6.453
 9745POPC   C2B60428  28.942  41.669   6.753
 9745POPC   C3B60429  28.883  41.667   7.053
 9745POPC   C4B60430  28.975  41.715   7.353
 9746POPC   NC360431  43.872   0.409   5.553
 9746POPC   PO460432  43.842   0.406   5.853
 9746POPC   GL160433  43.890   0.433   6.153
 9746POPC   GL260434  43.931   0.548   6.153
 9746POPC   C1A60435  43.934   0.440   6.453
 9746POPC   D2A60436  43.844   0.444   6.753
 9746POPC   C3A60437  43.902   0.420   7.053
 9746POPC   C4A60438  43.880   0.436   7.353
 9746POPC   C1B60439  44.110   0.603   6.453
 9746POPC   C2B60440  44.126   0.599   6.753
 9746POPC   C3B60441  44.085   0.613   7.053
 9746POPC   C4B60442  44.057   0.632   7.353
 9747POPC   NC360443  36.908  19.812   5.553
 9747POPC   PO460444  36.947  19.829   5.853
 9747POPC   GL160445  36.937  19.840   6.153
 9747POPC   GL260446  37.034  19.769   6.153
 9747POPC   C1A60447  36.860  19.818   6.453
 9747POPC   D2A60448  36.931  19.810   6.753
 9747POPC   C3A60449  36.927  19.876   7.053
 9747POPC   C4A60450  36.938  19.806   7.353
 9747POPC   C1B60451  37.169  19.765   6.453
 9747POPC   C2B60452  37.181  19.721   6.753
 9747POPC   C3B60453  37.107  19.803   7.053
 9747POPC   C4B60454  37.167  19.771   7.353
 9748POPC   NC360455  38.457  15.160   5.553
 9748POPC   PO460456  38.451  15.184   5.853
 9748POPC   GL160457  38.454  15.163   6.153
 9748POPC   GL260458  38.599  15.203   6.153
 9748POPC   C1A60459  38.467  15.143   6.453
 9748POPC   D2A60460  38.415  15.198   6.753
 9748POPC   C3A60461  38.502  15.142   7.053
 9748POPC   C4A60462  38.495  15.185   7.353
 9748POPC   C1B60463  38.644  15.281   6.453
 9748POPC   C2B60464  38.653  15.316   6.753
 9748POPC   C3B60465  38.641  15.361   7.053
 9748POPC   C4B60466  38.643  15.374   7.353
 9749POPC   NC360467   8.244  43.856   5.553
 9749POPC   PO460468   8.213  43.920   5.853
 9749POPC   GL160469   8.161  43.842   6.153
 9749POPC   GL260470   8.265  43.940   6.153
 9749POPC   C1A60471   8.200  43.904   6.453
 9749POPC   D2A60472   8.179  43.883   6.753
 9749POPC   C3A60473   8.161  43.915   7.053
 9749POPC   C4A60474   8.196  43.857   7.353
 9749POPC   C1B60475   8.401  44.106   6.453
 9749POPC   C2B60476   8.398  44.069   6.753
 9749POPC   C3B60477   8.387  44.020   7.053
 9749POPC   C4B60478   8.395  44.069   7.353
 9750POPC   NC360479   4.314  13.665   5.553
 9750POPC   PO460480   4.271  13.629   5.853
 9750POPC   GL160481   4.310  13.614   6.153
 9750POPC   GL260482   4.355  13.704   6.153
 9750POPC   C1A60483   4.298  13.602   6.453
 9750POPC   D2A60484   4.327  13.665   6.753
 9750POPC   C3A60485   4.360  13.633   7.053
 9750POPC   C4A60486   4.311  13.616   7.353
 9750POPC   C1B60487   4.414  13.852   6.453
 9750POPC   C2B60488   4.437  13.847   6.753
 9750POPC   C3B60489   4.470  13.826   7.053
 9750POPC   C4B60490   4.447  13.869   7.353
 9751POPC   NC360491  32.283   2.759   5.553
 9751POPC   PO460492  32.212   2.722   5.853
 9751POPC   GL160493  32.253   2.718   6.153
 9751POPC   GL260494  32.285   2.593   6.153
 9751POPC   C1A60495  32.251   2.727   6.453
 9751POPC   D2A60496  32.232   2.742   6.753
 9751POPC   C3A60497  32.219   2.749   7.053
 9751POPC   C4A60498  32.247   2.760   7.353
 9751POPC   C1B60499  32.271   2.550   6.453
 9751POPC   C2B60500  32.207   2.542   6.753
 9751POPC   C3B60501  32.266   2.521   7.053
 9751POPC   C4B60502  32.273   2.541   7.353
 9752POPC   NC360503   3.529  40.818   5.553
 9752POPC   PO460504   3.576  40.772   5.853
 9752POPC   GL160505   3.555  40.831   6.153
 9752POPC   GL260506   3.649  40.638   6.153
 9752POPC   C1A60507   3.550  40.735   6.453
 9752POPC   D2A60508   3.492  40.788   6.753
 9752POPC   C3A60509   3.493  40.815   7.053
 9752POPC   C4A60510   3.528  40.801   7.353
 9752POPC   C1B60511   3.720  40.590   6.453
 9752POPC   C2B60512   3.719  40.569   6.753
 9752POPC   C3B60513   3.717  40.561   7.053
 9752POPC   C4B60514   3.727  40.556   7.353
 9753POPC   NC360515  17.507  34.532   5.553
 9753POPC   PO460516  17.491  34.552   5.853
 9753POPC   GL160517  17.555  34.594   6.153
 9753POPC   GL260518  17.582  34.647   6.153
 9753POPC   C1A60519  17.506  34.559   6.453
 9753POPC   D2A60520  17.532  34.584   6.753
 9753POPC   C3A60521  17.518  34.548   7.053
 9753POPC   C4A60522  17.487  34.537   7.353
 9753POPC   C1B60523  17.730  34.706   6.453
 9753POPC   C2B60524  17.718  34.685   6.753
 9753POPC   C3B60525  17.721  34.690   7.053
 9753POPC   C4B60526  17.677  34.721   7.353
 9754POPC   NC360527   9.752  36.869   5.553
 9754POPC   PO460528   9.797  36.872   5.853
 9754POPC   GL160529   9.739  36.921   6.153
 9754POPC   GL260530   9.732  36.799   6.153
 9754POPC   C1A60531   9.742  36.905   6.453
 9754POPC   D2A60532   9.734  36.936   6.753
 9754POPC   C3A60533   9.787  36.907   7.053
 9754POPC   C4A60534   9.783  36.896   7.353
 9754POPC   C1B60535   9.804  36.705   6.453
 9754POPC   C2B60536   9.775  36.672   6.753
 9754POPC   C3B60537   9.835  36.621   7.053
 9754POPC   C4B60538   9.767  36.700   7.353
 9755POPC   NC360539  31.476  16.770   5.553
 9755POPC   PO460540  31.461  16.737   5.853
 9755POPC   GL160541  31.467  16.702   6.153
 9755POPC   GL260542  31.423  16.676   6.153
 9755POPC   C1A60543  31.451  16.723   6.453
 9755POPC   D2A60544  31.495  16.699   6.753
 9755POPC   C3A60545  31.493  16.685   7.053
 9755POPC   C4A60546  31.430  16.704   7.353
 9755POPC   C1B60547  31.284  16.626   6.453
 9755POPC   C2B60548  31.274  16.626   6.753
 9755POPC   C3B60549  31.308  16.544   7.053
 9755POPC   C4B60550  31.306  16.594   7.353
 9756POPC   NC360551  44.705  39.963   5.553
 9756POPC   PO460552  44.654  40.027   5.853
 9756POPC   GL160553  44.680  40.020   6.153
 9756POPC   GL260554  44.696  40.146   6.153
 9756POPC   C1A60555  44.647  40.012   6.453
 9756POPC   D2A60556  44.705  39.998   6.753
 9756POPC   C3A60557  44.704  40.033   7.053
 9756POPC   C4A60558  44.672  40.039   7.353
 9756POPC   C1B60559  44.755  40.265   6.453
 9756POPC   C2B60560  44.787  40.272   6.753
 9756POPC   C3B60561  44.811  40.262   7.053
 9756POPC   C4B60562  44.746  40.218   7.353
 9757POPC   NC360563  33.802  12.855   5.553
 9757POPC   PO460564  33.829  12.873   5.853
 9757POPC   GL160565  33.758  12.854   6.153
 9757POPC   GL260566  33.841  12.720   6.153
 9757POPC   C1A60567  33.833  12.815   6.453
 9757POPC   D2A60568  33.837  12.852   6.753
 9757POPC   C3A60569  33.792  12.854   7.053
 9757POPC   C4A60570  33.765  12.877   7.353
 9757POPC   C1B60571  33.860  12.620   6.453
 9757POPC   C2B60572  33.874  12.608   6.753
 9757POPC   C3B60573  33.897  12.650   7.053
 9757POPC   C4B60574  33.858  12.616   7.353
 9758POPC   NC360575  40.016   4.333   5.553
 9758POPC   PO460576  40.050   4.330   5.853
 9758POPC   GL160577  39.962   4.297   6.153
 9758POPC   GL260578  39.985   4.242   6.153
 9758POPC   C1A60579  39.976   4.272   6.453
 9758POPC   D2A60580  39.978   4.287   6.753
 9758POPC   C3A60581  40.034   4.268   7.053
 9758POPC   C4A60582  39.969   4.357   7.353
 9758POPC   C1B60583  39.937   4.094   6.453
 9758POPC   C2B60584  39.905   4.037   6.753
 9758POPC   C3B60585  39.944   4.085   7.053
 9758POPC   C4B60586  39.905   4.058   7.353
 9759POPC   NC360587  17.461  28.349   5.553
 9759POPC   PO460588  17.510  28.404   5.853
 9759POPC   GL160589  17.522  28.375   6.153
 9759POPC   GL260590  17.655  28.336   6.153
 9759POPC   C1A60591  17.480  28.369   6.453
 9759POPC   D2A60592  17.475  28.338   6.753
 9759POPC   C3A60593  17.548  28.323   7.053
 9759POPC   C4A60594  17.481  28.330   7.353
 9759POPC   C1B60595  17.705  28.285   6.453
 9759POPC   C2B60596  17.720  28.258   6.753
 9759POPC   C3B60597  17.770  28.278   7.053
 9759POPC   C4B60598  17.742  28.251   7.353
 9760POPC   NC360599  19.821  19.106   5.553
 9760POPC   PO460600  19.797  19.040   5.853
 9760POPC   GL160601  19.844  19.097   6.153
 9760POPC   GL260602  19.691  19.026   6.153
 9760POPC   C1A60603  19.785  19.102   6.453
 9760POPC   D2A60604  19.822  19.094   6.753
 9760POPC   C3A60605  19.833  19.077   7.053
 9760POPC   C4A60606  19.845  19.027   7.353
 9760POPC   C1B60607  19.574  19.021   6.453
 9760POPC   C2B60608  19.600  18.988   6.753
 9760POPC   C3B60609  19.585  19.000   7.053
 9760POPC   C4B60610  19.569  19.035   7.353
 9761POPC   NC360611   1.986  15.984   5.553
 9761POPC   PO460612   1.964  15.956   5.853
 9761POPC   GL160613   2.017  15.977   6.153
 9761POPC   GL260614   1.989  16.105   6.153
 9761POPC   C1A60615   2.025  15.907   6.453
 9761POPC   D2A60616   1.945  15.945   6.753
 9761POPC   C3A60617   2.015  15.923   7.053
 9761POPC   C4A60618   1.968  15.956   7.353
 9761POPC   C1B60619   1.965  16.226   6.453
 9761POPC   C2B60620   1.952  16.251   6.753
 9761POPC   C3B60621   2.000  16.204   7.053
 9761POPC   C4B60622   2.033  16.201   7.353
 9762POPC   NC360623   0.449  22.132   5.553
 9762POPC   PO460624   0.463  22.145   5.853
 9762POPC   GL160625   0.395  22.210   6.153
 9762POPC   GL260626   0.391  22.259   6.153
 9762POPC   C1A60627   0.408  22.202   6.453
 9762POPC   D2A60628   0.456  22.166   6.753
 9762POPC   C3A60629   0.446  22.136   7.053
 9762POPC   C4A60630   0.433  22.139   7.353
 9762POPC   C1B60631   0.261  22.365   6.453
 9762POPC   C2B60632   0.280  22.408   6.753
 9762POPC   C3B60633   0.331  22.383   7.053
 9762POPC   C4B60634   0.272  22.385   7.353
 9763POPC   NC360635   3.585   7.388   5.553
 9763POPC   PO460636   3.505   7.417   5.853
 9763POPC   GL160637   3.540   7.430   6.153
 9763POPC   GL260638   3.640   7.395   6.153
 9763POPC   C1A60639   3.534   7.437   6.453
 9763POPC   D2A60640   3.535   7.403   6.753
 9763POPC   C3A60641   3.534   7.451   7.053
 9763POPC   C4A60642   3.534   7.375   7.353
 9763POPC   C1B60643   3.758   7.306   6.453
 9763POPC   C2B60644   3.719   7.331   6.753
 9763POPC   C3B60645   3.778   7.273   7.053
 9763POPC   C4B60646   3.761   7.355   7.353
 9764POPC   NC360647  26.855  14.416   5.553
 9764POPC   PO460648  26.814  14.370   5.853
 9764POPC   GL160649  26.804  14.425   6.153
 9764POPC   GL260650  26.953  14.505   6.153
 9764POPC   C1A60651  26.784  14.360   6.453
 9764POPC   D2A60652  26.808  14.450   6.753
 9764POPC   C3A60653  26.846  14.417   7.053
 9764POPC   C4A60654  26.812  14.379   7.353
 9764POPC   C1B60655  27.023  14.545   6.453
 9764POPC   C2B60656  27.022  14.531   6.753
 9764POPC   C3B60657  27.011  14.515   7.053
 9764POPC   C4B60658  26.973  14.527   7.353
 9765POPC   NC360659  36.919  15.926   5.553
 9765POPC   PO460660  36.937  15.965   5.853
 9765POPC   GL160661  36.916  15.944   6.153
 9765POPC   GL260662  36.807  16.056   6.153
 9765POPC   C1A60663  36.930  15.940   6.453
 9765POPC   D2A60664  36.945  15.938   6.753
 9765POPC   C3A60665  36.936  15.949   7.053
 9765POPC   C4A60666  36.861  15.943   7.353
 9765POPC   C1B60667  36.653  16.037   6.453
 9765POPC   C2B60668  36.687  16.115   6.753
 9765POPC   C3B60669  36.733  16.028   7.053
 9765POPC   C4B60670  36.672  16.031   7.353
 9766POPC   NC360671   7.450  29.113   5.553
 9766POPC   PO460672   7.391  29.147   5.853
 9766POPC   GL160673   7.414  29.154   6.153
 9766POPC   GL260674   7.339  29.126   6.153
 9766POPC   C1A60675   7.387  29.103   6.453
 9766POPC   D2A60676   7.383  29.148   6.753
 9766POPC   C3A60677   7.379  29.139   7.053
 9766POPC   C4A60678   7.374  29.114   7.353
 9766POPC   C1B60679   7.174  29.027   6.453
 9766POPC   C2B60680   7.220  29.010   6.753
 9766POPC   C3B60681   7.185  28.999   7.053
 9766POPC   C4B60682   7.151  29.006   7.353
 9767POPC   NC360683  16.774   8.233   5.553
 9767POPC   PO460684  16.704   8.149   5.853
 9767POPC   GL160685  16.725   8.222   6.153
 9767POPC   GL260686  16.569   8.198   6.153
 9767POPC   C1A60687  16.696   8.213   6.453
 9767POPC   D2A60688  16.684   8.152   6.753
 9767POPC   C3A60689  16.699   8.169   7.053
 9767POPC   C4A60690  16.717   8.232   7.353
 9767POPC   C1B60691  16.527   8.294   6.453
 9767POPC   C2B60692  16.464   8.303   6.753
 9767POPC   C3B60693  16.477   8.310   7.053
 9767POPC   C4B60694  16.503   8.336   7.353
 9768POPC   NC360695   1.959  22.949   5.553
 9768POPC   PO460696   1.966  22.898   5.853
 9768POPC   GL160697   1.970  22.979   6.153
 9768POPC   GL260698   1.961  23.055   6.153
 9768POPC   C1A60699   2.013  22.921   6.453
 9768POPC   D2A60700   1.954  22.927   6.753
 9768POPC   C3A60701   2.005  22.933   7.053
 9768POPC   C4A60702   2.027  22.946   7.353
 9768POPC   C1B60703   2.044  23.233   6.453
 9768POPC   C2B60704   2.041  23.179   6.753
 9768POPC   C3B60705   1.994  23.238   7.053
 9768POPC   C4B60706   2.043  23.209   7.353
 9769POPC   NC360707  43.125  19.087   5.553
 9769POPC   PO460708  43.153  19.107   5.853
 9769POPC   GL160709  43.146  19.013   6.153
 9769POPC   GL260710  43.166  19.133   6.153
 9769POPC   C1A60711  43.081  19.021   6.453
 9769POPC   D2A60712  43.099  19.024   6.753
 9769POPC   C3A60713  43.101  19.083   7.053
 9769POPC   C4A60714  43.082  19.077   7.353
 9769POPC   C1B60715  43.257  19.263   6.453
 9769POPC   C2B60716  43.270  19.259   6.753
 9769POPC   C3B60717  43.290  19.226   7.053
 9769POPC   C4B60718  43.277  19.234   7.353
 9770POPC   NC360719   5.834   2.781   5.553
 9770POPC   PO460720   5.869   2.728   5.853
 9770POPC   GL160721   5.895   2.725   6.153
 9770POPC   GL260722   5.792   2.869   6.153
 9770POPC   C1A60723   5.855   2.731   6.453
 9770POPC   D2A60724   5.896   2.736   6.753
 9770POPC   C3A60725   5.831   2.777   7.053
 9770POPC   C4A60726   5.847   2.791   7.353
 9770POPC   C1B60727   5.772   3.002   6.453
 9770POPC   C2B60728   5.719   3.020   6.753
 9770POPC   C3B60729   5.744   2.964   7.053
 9770POPC   C4B60730   5.782   2.941   7.353
 9771POPC   NC360731  13.630  29.902   5.553
 9771POPC   PO460732  13.626  29.950   5.853
 9771POPC   GL160733  13.668  29.932   6.153
 9771POPC   GL260734  13.564  30.047   6.153
 9771POPC   C1A60735  13.666  29.874   6.453
 9771POPC   D2A60736  13.670  29.941   6.753
 9771POPC   C3A60737  13.629  29.901   7.053
 9771POPC   C4A60738  13.641  29.968   7.353
 9771POPC   C1B60739  13.421  30.032   6.453
 9771POPC   C2B60740  13.388  30.065   6.753
 9771POPC   C3B60741  13.433  30.088   7.053
 9771POPC   C4B60742  13.450  30.073   7.353
 9772POPC   NC360743  22.933  28.330   5.553
 9772POPC   PO460744  22.891  28.414   5.853
 9772POPC   GL160745  22.959  28.408   6.153
 9772POPC   GL260746  23.034  28.236   6.153
 9772POPC   C1A60747  22.915  28.339   6.453
 9772POPC   D2A60748  22.970  28.389   6.753
 9772POPC   C3A60749  22.967  28.371   7.053
 9772POPC   C4A60750  22.974  28.392   7.353
 9772POPC   C1B60751  23.099  28.223   6.453
 9772POPC   C2B60752  23.108  28.185   6.753
 9772POPC   C3B60753  23.150  28.186   7.053
 9772POPC   C4B60754  23.070  28.153   7.353
 9773POPC   NC360755  33.047  15.937   5.553
 9773POPC   PO460756  33.009  15.908   5.853
 9773POPC   GL160757  33.029  15.984   6.153
 9773POPC   GL260758  33.125  16.032   6.153
 9773POPC   C1A60759  32.995  15.983   6.453
 9773POPC   D2A60760  33.056  15.908   6.753
 9773POPC   C3A60761  32.991  15.928   7.053
 9773POPC   C4A60762  33.009  16.003   7.353
 9773POPC   C1B60763  33.194  16.051   6.453
 9773POPC   C2B60764  33.268  16.071   6.753
 9773POPC   C3B60765  33.242  16.107   7.053
 9773POPC   C4B60766  33.256  16.072   7.353
 9774POPC   NC360767  19.813  32.254   5.553
 9774POPC   PO460768  19.791  32.290   5.853
 9774POPC   GL160769  19.831  32.273   6.153
 9774POPC   GL260770  19.944  32.251   6.153
 9774POPC   C1A60771  19.785  32.248   6.453
 9774POPC   D2A60772  19.874  32.209   6.753
 9774POPC   C3A60773  19.822  32.241   7.053
 9774POPC   C4A60774  19.793  32.209   7.353
 9774POPC   C1B60775  20.086  32.226   6.453
 9774POPC   C2B60776  20.030  32.213   6.753
 9774POPC   C3B60777  20.035  32.160   7.053
 9774POPC   C4B60778  20.036  32.191   7.353
 9775POPC   NC360779  31.455   0.457   5.553
 9775POPC   PO460780  31.425   0.460   5.853
 9775POPC   GL160781  31.486   0.442   6.153
 9775POPC   GL260782  31.601   0.444   6.153
 9775POPC   C1A60783  31.516   0.467   6.453
 9775POPC   D2A60784  31.479   0.410   6.753
 9775POPC   C3A60785  31.491   0.389   7.053
 9775POPC   C4A60786  31.475   0.455   7.353
 9775POPC   C1B60787  31.744   0.449   6.453
 9775POPC   C2B60788  31.731   0.500   6.753
 9775POPC   C3B60789  31.758   0.490   7.053
 9775POPC   C4B60790  31.730   0.461   7.353
 9776POPC   NC360791  43.113  22.130   5.553
 9776POPC   PO460792  43.151  22.130   5.853
 9776POPC   GL160793  43.065  22.133   6.153
 9776POPC   GL260794  42.968  22.130   6.153
 9776POPC   C1A60795  43.145  22.143   6.453
 9776POPC   D2A60796  43.149  22.179   6.753
 9776POPC   C3A60797  43.073  22.124   7.053
 9776POPC   C4A60798  43.142  22.186   7.353
 9776POPC   C1B60799  42.904  22.172   6.453
 9776POPC   C2B60800  42.832  22.150   6.753
 9776POPC   C3B60801  42.827  22.155   7.053
 9776POPC   C4B60802  42.825  22.121   7.353
 9777POPC   NC360803  31.437  28.335   5.553
 9777POPC   PO460804  31.509  28.411   5.853
 9777POPC   GL160805  31.428  28.356   6.153
 9777POPC   GL260806  31.583  28.275   6.153
 9777POPC   C1A60807  31.472  28.401   6.453
 9777POPC   D2A60808  31.457  28.382   6.753
 9777POPC   C3A60809  31.434  28.323   7.053
 9777POPC   C4A60810  31.495  28.392   7.353
 9777POPC   C1B60811  31.654  28.238   6.453
 9777POPC   C2B60812  31.691  28.304   6.753
 9777POPC   C3B60813  31.654  28.263   7.053
 9777POPC   C4B60814  31.660  28.261   7.353
 9778POPC   NC360815  40.829   8.972   5.553
 9778POPC   PO460816  40.746   8.997   5.853
 9778POPC   GL160817  40.798   9.021   6.153
 9778POPC   GL260818  40.785   9.106   6.153
 9778POPC   C1A60819  40.790   8.962   6.453
 9778POPC   D2A60820  40.797   8.984   6.753
 9778POPC   C3A60821  40.766   9.004   7.053
 9778POPC   C4A60822  40.739   8.943   7.353
 9778POPC   C1B60823  40.735   9.239   6.453
 9778POPC   C2B60824  40.765   9.260   6.753
 9778POPC   C3B60825  40.746   9.224   7.053
 9778POPC   C4B60826  40.706   9.246   7.353
 9779POPC   NC360827  21.433   0.473   5.553
 9779POPC   PO460828  21.364   0.442   5.853
 9779POPC   GL160829  21.345   0.461   6.153
 9779POPC   GL260830  21.494   0.389   6.153
 9779POPC   C1A60831  21.369   0.476   6.453
 9779POPC   D2A60832  21.366   0.401   6.753
 9779POPC   C3A60833  21.432   0.403   7.053
 9779POPC   C4A60834  21.362   0.481   7.353
 9779POPC   C1B60835  21.563   0.223   6.453
 9779POPC   C2B60836  21.554   0.281   6.753
 9779POPC   C3B60837  21.529   0.263   7.053
 9779POPC   C4B60838  21.523   0.206   7.353
 9780POPC   NC360839  36.911  34.556   5.553
 9780POPC   PO460840  36.871  34.546   5.853
 9780POPC   GL160841  36.916  34.554   6.153
 9780POPC   GL260842  36.776  34.603   6.153
 9780POPC   C1A60843  36.911  34.615   6.453
 9780POPC   D2A60844  36.856  34.591   6.753
 9780POPC   C3A60845  36.912  34.621   7.053
 9780POPC   C4A60846  36.911  34.527   7.353
 9780POPC   C1B60847  36.616  34.556   6.453
 9780POPC   C2B60848  36.701  34.492   6.753
 9780POPC   C3B60849  36.658  34.568   7.053
 9780POPC   C4B60850  36.671  34.543   7.353
 9781POPC   NC360851  33.792  25.275   5.553
 9781POPC   PO460852  33.805  25.275   5.853
 9781POPC   GL160853  33.819  25.235   6.153
 9781POPC   GL260854  33.879  25.347   6.153
 9781POPC   C1A60855  33.753  25.251   6.453
 9781POPC   D2A60856  33.766  25.273   6.753
 9781POPC   C3A60857  33.771  25.276   7.053
 9781POPC   C4A60858  33.839  25.301   7.353
 9781POPC   C1B60859  33.982  25.408   6.453
 9781POPC   C2B60860  33.922  25.456   6.753
 9781POPC   C3B60861  33.925  25.483   7.053
 9781POPC   C4B60862  33.930  25.478   7.353
 9782POPC   NC360863   6.635  43.109   5.553
 9782POPC   PO460864   6.642  43.120   5.853
 9782POPC   GL160865   6.663  43.098   6.153
 9782POPC   GL260866   6.533  43.013   6.153
 9782POPC   C1A60867   6.663  43.091   6.453
 9782POPC   D2A60868   6.691  43.086   6.753
 9782POPC   C3A60869   6.691  43.139   7.053
 9782POPC   C4A60870   6.627  43.119   7.353
 9782POPC   C1B60871   6.540  42.863   6.453
 9782POPC   C2B60872   6.522  42.892   6.753
 9782POPC   C3B60873   6.506  42.876   7.053
 9782POPC   C4B60874   6.507  42.960   7.353
 9783POPC   NC360875  32.295  36.914   5.553
 9783POPC   PO460876  32.221  36.911   5.853
 9783POPC   GL160877  32.220  36.923   6.153
 9783POPC   GL260878  32.163  36.833   6.153
 9783POPC   C1A60879  32.213  36.949   6.453
 9783POPC   D2A60880  32.220  36.939   6.753
 9783POPC   C3A60881  32.205  36.886   7.053
 9783POPC   C4A60882  32.243  36.883   7.353
 9783POPC   C1B60883  31.961  36.824   6.453
 9783POPC   C2B60884  32.045  36.845   6.753
 9783POPC   C3B60885  32.036  36.812   7.053
 9783POPC   C4B60886  31.974  36.832   7.353
 9784POPC   NC360887   5.833  22.125   5.553
 9784POPC   PO460888   5.886  22.115   5.853
 9784POPC   GL160889   5.832  22.163   6.153
 9784POPC   GL260890   5.730  22.109   6.153
 9784POPC   C1A60891   5.863  22.114   6.453
 9784POPC   D2A60892   5.906  22.184   6.753
 9784POPC   C3A60893   5.875  22.211   7.053
 9784POPC   C4A60894   5.848  22.201   7.353
 9784POPC   C1B60895   5.605  22.164   6.453
 9784POPC   C2B60896   5.655  22.072   6.753
 9784POPC   C3B60897   5.594  22.132   7.053
 9784POPC   C4B60898   5.660  22.086   7.353
 9785POPC   NC360899  39.980  23.675   5.553
 9785POPC   PO460900  40.027  23.703   5.853
 9785POPC   GL160901  40.048  23.717   6.153
 9785POPC   GL260902  39.957  23.853   6.153
 9785POPC   C1A60903  39.962  23.753   6.453
 9785POPC   D2A60904  40.052  23.739   6.753
 9785POPC   C3A60905  39.991  23.692   7.053
 9785POPC   C4A60906  39.970  23.689   7.353
 9785POPC   C1B60907  39.855  23.911   6.453
 9785POPC   C2B60908  39.854  23.957   6.753
 9785POPC   C3B60909  39.937  23.902   7.053
 9785POPC   C4B60910  39.853  23.948   7.353
 9786POPC   NC360911  38.423  32.284   5.553
 9786POPC   PO460912  38.442  32.229   5.853
 9786POPC   GL160913  38.442  32.233   6.153
 9786POPC   GL260914  38.568  32.330   6.153
 9786POPC   C1A60915  38.430  32.231   6.453
 9786POPC   D2A60916  38.450  32.223   6.753
 9786POPC   C3A60917  38.475  32.265   7.053
 9786POPC   C4A60918  38.412  32.233   7.353
 9786POPC   C1B60919  38.652  32.396   6.453
 9786POPC   C2B60920  38.696  32.379   6.753
 9786POPC   C3B60921  38.693  32.451   7.053
 9786POPC   C4B60922  38.684  32.407   7.353
 9787POPC   NC360923  15.193   5.138   5.553
 9787POPC   PO460924  15.216   5.107   5.853
 9787POPC   GL160925  15.201   5.045   6.153
 9787POPC   GL260926  15.293   5.072   6.153
 9787POPC   C1A60927  15.152   5.064   6.453
 9787POPC   D2A60928  15.149   5.112   6.753
 9787POPC   C3A60929  15.224   5.096   7.053
 9787POPC   C4A60930  15.150   5.068   7.353
 9787POPC   C1B60931  15.458   4.954   6.453
 9787POPC   C2B60932  15.387   5.022   6.753
 9787POPC   C3B60933  15.385   4.959   7.053
 9787POPC   C4B60934  15.412   4.996   7.353
 9788POPC   NC360935  32.214  15.946   5.553
 9788POPC   PO460936  32.199  16.000   5.853
 9788POPC   GL160937  32.249  15.949   6.153
 9788POPC   GL260938  32.334  15.947   6.153
 9788POPC   C1A60939  32.209  15.914   6.453
 9788POPC   D2A60940  32.295  15.984   6.753
 9788POPC   C3A60941  32.219  15.932   7.053
 9788POPC   C4A60942  32.211  15.980   7.353
 9788POPC   C1B60943  32.463  16.047   6.453
 9788POPC   C2B60944  32.445  16.030   6.753
 9788POPC   C3B60945  32.453  16.002   7.053
 9788POPC   C4B60946  32.464  15.970   7.353
 9789POPC   NC360947  15.130  36.102   5.553
 9789POPC   PO460948  15.171  36.131   5.853
 9789POPC   GL160949  15.155  36.124   6.153
 9789POPC   GL260950  15.097  36.020   6.153
 9789POPC   C1A60951  15.159  36.129   6.453
 9789POPC   D2A60952  15.210  36.173   6.753
 9789POPC   C3A60953  15.204  36.085   7.053
 9789POPC   C4A60954  15.213  36.150   7.353
 9789POPC   C1B60955  14.984  35.971   6.453
 9789POPC   C2B60956  15.044  35.976   6.753
 9789POPC   C3B60957  14.987  35.927   7.053
 9789POPC   C4B60958  15.002  35.927   7.353
 9790POPC   NC360959  17.545  35.333   5.553
 9790POPC   PO460960  17.463  35.305   5.853
 9790POPC   GL160961  17.552  35.349   6.153
 9790POPC   GL260962  17.388  35.419   6.153
 9790POPC   C1A60963  17.553  35.325   6.453
 9790POPC   D2A60964  17.539  35.387   6.753
 9790POPC   C3A60965  17.518  35.352   7.053
 9790POPC   C4A60966  17.501  35.350   7.353
 9790POPC   C1B60967  17.219  35.417   6.453
 9790POPC   C2B60968  17.216  35.367   6.753
 9790POPC   C3B60969  17.251  35.411   7.053
 9790POPC   C4B60970  17.279  35.379   7.353
 9791POPC   NC360971  16.749   9.769   5.553
 9791POPC   PO460972  16.746   9.730   5.853
 9791POPC   GL160973  16.744   9.781   6.153
 9791POPC   GL260974  16.599   9.831   6.153
 9791POPC   C1A60975  16.776   9.770   6.453
 9791POPC   D2A60976  16.744   9.715   6.753
 9791POPC   C3A60977  16.717   9.784   7.053
 9791POPC   C4A60978  16.707   9.788   7.353
 9791POPC   C1B60979  16.529   9.838   6.453
 9791POPC   C2B60980  16.543   9.908   6.753
 9791POPC   C3B60981  16.476   9.855   7.053
 9791POPC   C4B60982  16.492   9.890   7.353
 9792POPC   NC360983  41.561   3.551   5.553
 9792POPC   PO460984  41.585   3.536   5.853
 9792POPC   GL160985  41.604   3.581   6.153
 9792POPC   GL260986  41.540   3.714   6.153
 9792POPC   C1A60987  41.544   3.550   6.453
 9792POPC   D2A60988  41.516   3.501   6.753
 9792POPC   C3A60989  41.569   3.548   7.053
 9792POPC   C4A60990  41.519   3.504   7.353
 9792POPC   C1B60991  41.588   3.796   6.453
 9792POPC   C2B60992  41.582   3.793   6.753
 9792POPC   C3B60993  41.604   3.782   7.053
 9792POPC   C4B60994  41.589   3.764   7.353
 9793POPC   NC360995  32.978  26.024   5.553
 9793POPC   PO460996  33.023  26.058   5.853
 9793POPC   GL160997  33.053  26.062   6.153
 9793POPC   GL260998  32.987  25.904   6.153
 9793POPC   C1A60999  33.023  26.049   6.453
 9793POPC   D2A61000  32.977  26.029   6.753
 9793POPC   C3A61001  33.007  26.000   7.053
 9793POPC   C4A61002  33.035  26.078   7.353
 9793POPC   C1B61003  32.909  25.830   6.453
 9793POPC   C2B61004  32.954  25.775   6.753
 9793POPC   C3B61005  32.908  25.838   7.053
 9793POPC   C4B61006  32.934  25.808   7.353
 9794POPC   NC361007  16.003  32.289   5.553
 9794POPC   PO461008  15.964  32.242   5.853
 9794POPC   GL161009  15.954  32.298   6.153
 9794POPC   GL261010  15.904  32.082   6.153
 9794POPC   C1A61011  15.989  32.294   6.453
 9794POPC   D2A61012  15.938  32.217   6.753
 9794POPC   C3A61013  15.962  32.274   7.053
 9794POPC   C4A61014  15.960  32.249   7.353
 9794POPC   C1B61015  15.858  31.972   6.453
 9794POPC   C2B61016  15.890  32.038   6.753
 9794POPC   C3B61017  15.893  32.008   7.053
 9794POPC   C4B61018  15.865  32.014   7.353
 9795POPC   NC361019   0.425  15.148   5.553
 9795POPC   PO461020   0.486  15.168   5.853
 9795POPC   GL161021   0.412  15.220   6.153
 9795POPC   GL261022   0.473  15.085   6.153
 9795POPC   C1A61023   0.440  15.165   6.453
 9795POPC   D2A61024   0.468  15.178   6.753
 9795POPC   C3A61025   0.436  15.133   7.053
 9795POPC   C4A61026   0.468  15.175   7.353
 9795POPC   C1B61027   0.617  14.997   6.453
 9795POPC   C2B61028   0.560  14.962   6.753
 9795POPC   C3B61029   0.639  15.020   7.053
 9795POPC   C4B61030   0.575  14.987   7.353
 9796POPC   NC361031  17.511  22.113   5.553
 9796POPC   PO461032  17.492  22.154   5.853
 9796POPC   GL161033  17.551  22.137   6.153
 9796POPC   GL261034  17.628  22.253   6.153
 9796POPC   C1A61035  17.552  22.162   6.453
 9796POPC   D2A61036  17.540  22.207   6.753
 9796POPC   C3A61037  17.523  22.196   7.053
 9796POPC   C4A61038  17.535  22.172   7.353
 9796POPC   C1B61039  17.670  22.368   6.453
 9796POPC   C2B61040  17.733  22.347   6.753
 9796POPC   C3B61041  17.668  22.328   7.053
 9796POPC   C4B61042  17.705  22.331   7.353
 9797POPC   NC361043  21.428   2.733   5.553
 9797POPC   PO461044  21.415   2.797   5.853
 9797POPC   GL161045  21.385   2.793   6.153
 9797POPC   GL261046  21.514   2.823   6.153
 9797POPC   C1A61047  21.348   2.735   6.453
 9797POPC   D2A61048  21.370   2.745   6.753
 9797POPC   C3A61049  21.360   2.732   7.053
 9797POPC   C4A61050  21.399   2.756   7.353
 9797POPC   C1B61051  21.574   2.900   6.453
 9797POPC   C2B61052  21.581   2.894   6.753
 9797POPC   C3B61053  21.612   2.944   7.053
 9797POPC   C4B61054  21.534   2.947   7.353
 9798POPC   NC361055   7.423  22.170   5.553
 9798POPC   PO461056   7.461  22.155   5.853
 9798POPC   GL161057   7.393  22.192   6.153
 9798POPC   GL261058   7.493  22.067   6.153
 9798POPC   C1A61059   7.385  22.200   6.453
 9798POPC   D2A61060   7.382  22.194   6.753
 9798POPC   C3A61061   7.430  22.131   7.053
 9798POPC   C4A61062   7.436  22.206   7.353
 9798POPC   C1B61063   7.597  21.929   6.453
 9798POPC   C2B61064   7.556  21.992   6.753
 9798POPC   C3B61065   7.586  21.959   7.053
 9798POPC   C4B61066   7.539  21.953   7.353
 9799POPC   NC361067  32.990  17.513   5.553
 9799POPC   PO461068  33.059  17.467   5.853
 9799POPC   GL161069  33.049  17.514   6.153
 9799POPC   GL261070  33.121  17.506   6.153
 9799POPC   C1A61071  32.995  17.507   6.453
 9799POPC   D2A61072  33.015  17.503   6.753
 9799POPC   C3A61073  33.034  17.555   7.053
 9799POPC   C4A61074  33.015  17.525   7.353
 9799POPC   C1B61075  33.297  17.552   6.453
 9799POPC   C2B61076  33.237  17.551   6.753
 9799POPC   C3B61077  33.271  17.572   7.053
 9799POPC   C4B61078  33.221  17.567   7.353
 9800POPC   NC361079  36.857   0.451   5.553
 9800POPC   PO461080  36.952   0.443   5.853
 9800POPC   GL161081  36.907   0.400   6.153
 9800POPC   GL261082  36.923   0.318   6.153
 9800POPC   C1A61083  36.891   0.436   6.453
 9800POPC   D2A61084  36.888   0.410   6.753
 9800POPC   C3A61085  36.875   0.393   7.053
 9800POPC   C4A61086  36.874   0.475   7.353
 9800POPC   C1B61087  37.018   0.263   6.453
 9800POPC   C2B61088  37.042   0.236   6.753
 9800POPC   C3B61089  37.055   0.263   7.053
 9800POPC   C4B61090  37.011   0.230   7.353
 9801POPC   NC361091  36.146  34.555   5.553
 9801POPC   PO461092  36.079  34.572   5.853
 9801POPC   GL161093  36.099  34.590   6.153
 9801POPC   GL261094  36.030  34.615   6.153
 9801POPC   C1A61095  36.119  34.594   6.453
 9801POPC   D2A61096  36.118  34.595   6.753
 9801POPC   C3A61097  36.167  34.599   7.053
 9801POPC   C4A61098  36.175  34.576   7.353
 9801POPC   C1B61099  35.863  34.654   6.453
 9801POPC   C2B61100  35.856  34.660   6.753
 9801POPC   C3B61101  35.879  34.623   7.053
 9801POPC   C4B61102  35.858  34.662   7.353
 9802POPC   NC361103   3.503  12.866   5.553
 9802POPC   PO461104   3.558  12.818   5.853
 9802POPC   GL161105   3.518  12.840   6.153
 9802POPC   GL261106   3.506  12.938   6.153
 9802POPC   C1A61107   3.590  12.893   6.453
 9802POPC   D2A61108   3.550  12.809   6.753
 9802POPC   C3A61109   3.556  12.806   7.053
 9802POPC   C4A61110   3.563  12.886   7.353
 9802POPC   C1B61111   3.563  13.124   6.453
 9802POPC   C2B61112   3.553  13.130   6.753
 9802POPC   C3B61113   3.573  13.127   7.053
 9802POPC   C4B61114   3.592  13.075   7.353
 9803POPC   NC361115  32.251  22.909   5.553
 9803POPC   PO461116  32.297  22.913   5.853
 9803POPC   GL161117  32.244  22.939   6.153
 9803POPC   GL261118  32.114  23.030   6.153
 9803POPC   C1A61119  32.219  22.953   6.453
 9803POPC   D2A61120  32.222  22.894   6.753
 9803POPC   C3A61121  32.223  22.987   7.053
 9803POPC   C4A61122  32.277  22.901   7.353
 9803POPC   C1B61123  32.048  23.133   6.453
 9803POPC   C2B61124  32.025  23.137   6.753
 9803POPC   C3B61125  32.059  23.104   7.053
 9803POPC   C4B61126  32.005  23.103   7.353
 9804POPC   NC361127   4.303  17.472   5.553
 9804POPC   PO461128   4.353  17.491   5.853
 9804POPC   GL161129   4.367  17.466   6.153
 9804POPC   GL261130   4.389  17.486   6.153
 9804POPC   C1A61131   4.289  17.524   6.453
 9804POPC   D2A61132   4.347  17.540   6.753
 9804POPC   C3A61133   4.327  17.548   7.053
 9804POPC   C4A61134   4.322  17.537   7.353
 9804POPC   C1B61135   4.573  17.386   6.453
 9804POPC   C2B61136   4.497  17.407   6.753
 9804POPC   C3B61137   4.524  17.380   7.053
 9804POPC   C4B61138   4.524  17.361   7.353
 9805POPC   NC361139  36.942   2.034   5.553
 9805POPC   PO461140  36.873   1.962   5.853
 9805POPC   GL161141  36.948   1.968   6.153
 9805POPC   GL261142  37.012   1.853   6.153
 9805POPC   C1A61143  36.909   1.943   6.453
 9805POPC   D2A61144  36.950   2.000   6.753
 9805POPC   C3A61145  36.868   1.948   7.053
 9805POPC   C4A61146  36.861   2.023   7.353
 9805POPC   C1B61147  36.988   1.748   6.453
 9805POPC   C2B61148  37.017   1.761   6.753
 9805POPC   C3B61149  37.017   1.761   7.053
 9805POPC   C4B61150  37.015   1.822   7.353
 9806POPC   NC361151  40.055  28.378   5.553
 9806POPC   PO461152  40.007  28.351   5.853
 9806POPC   GL161153  40.048  28.369   6.153
 9806POPC   GL261154  40.022  28.504   6.153
 9806POPC   C1A61155  39.963  28.386   6.453
 9806POPC   D2A61156  40.027  28.410   6.753
 9806POPC   C3A61157  39.994  28.327   7.053
 9806POPC   C4A61158  40.037  28.356   7.353
 9806POPC   C1B61159  40.124  28.620   6.453
 9806POPC   C2B61160  40.174  28.635   6.753
 9806POPC   C3B61161  40.112  28.594   7.053
 9806POPC   C4B61162  40.115  28.616   7.353
 9807POPC   NC361163  22.155  24.466   5.553
 9807POPC   PO461164  22.137  24.511   5.853
 9807POPC   GL161165  22.123  24.528   6.153
 9807POPC   GL261166  22.215  24.385   6.153
 9807POPC   C1A61167  22.204  24.471   6.453
 9807POPC   D2A61168  22.129  24.512   6.753
 9807POPC   C3A61169  22.164  24.486   7.053
 9807POPC   C4A61170  22.127  24.465   7.353
 9807POPC   C1B61171  22.331  24.380   6.453
 9807POPC   C2B61172  22.407  24.374   6.753
 9807POPC   C3B61173  22.379  24.362   7.053
 9807POPC   C4B61174  22.367  24.351   7.353
 9808POPC   NC361175  12.897  44.706   5.553
 9808POPC   PO461176  12.879  44.648   5.853
 9808POPC   GL161177  12.843  44.678   6.153
 9808POPC   GL261178  12.917  44.711   6.153
 9808POPC   C1A61179  12.851  44.637   6.453
 9808POPC   D2A61180  12.851  44.685   6.753
 9808POPC   C3A61181  12.878  44.636   7.053
 9808POPC   C4A61182  12.833  44.623   7.353
 9808POPC   C1B61183  12.995  44.793   6.453
 9808POPC   C2B61184  13.000  44.833   6.753
 9808POPC   C3B61185  13.059  44.840   7.053
 9808POPC   C4B61186  13.012  44.835   7.353
 9809POPC   NC361187  23.746  10.538   5.553
 9809POPC   PO461188  23.669  10.480   5.853
 9809POPC   GL161189  23.706  10.538   6.153
 9809POPC   GL261190  23.856  10.476   6.153
 9809POPC   C1A61191  23.679  10.543   6.453
 9809POPC   D2A61192  23.700  10.566   6.753
 9809POPC   C3A61193  23.699  10.481   7.053
 9809POPC   C4A61194  23.755  10.554   7.353
 9809POPC   C1B61195  23.924  10.516   6.453
 9809POPC   C2B61196  23.935  10.480   6.753
 9809POPC   C3B61197  23.953  10.528   7.053
 9809POPC   C4B61198  23.916  10.481   7.353
 9810POPC   NC361199  33.798  31.427   5.553
 9810POPC   PO461200  33.842  31.507   5.853
 9810POPC   GL161201  33.839  31.450   6.153
 9810POPC   GL261202  33.668  31.411   6.153
 9810POPC   C1A61203  33.776  31.515   6.453
 9810POPC   D2A61204  33.832  31.450   6.753
 9810POPC   C3A61205  33.811  31.496   7.053
 9810POPC   C4A61206  33.834  31.516   7.353
 9810POPC   C1B61207  33.536  31.396   6.453
 9810POPC   C2B61208  33.552  31.348   6.753
 9810POPC   C3B61209  33.514  31.392   7.053
 9810POPC   C4B61210  33.537  31.371   7.353
 9811POPC   NC361211   5.102  25.315   5.553
 9811POPC   PO461212   5.051  25.285   5.853
 9811POPC   GL161213   5.074  25.274   6.153
 9811POPC   GL261214   5.179  25.252   6.153
 9811POPC   C1A61215   5.095  25.253   6.453
 9811POPC   D2A61216   5.075  25.252   6.753
 9811POPC   C3A61217   5.105  25.300   7.053
 9811POPC   C4A61218   5.094  25.243   7.353
 9811POPC   C1B61219   5.372  25.265   6.453
 9811POPC   C2B61220   5.332  25.333   6.753
 9811POPC   C3B61221   5.378  25.277   7.053
 9811POPC   C4B61222   5.362  25.331   7.353
 9812POPC   NC361223  23.755  24.477   5.553
 9812POPC   PO461224  23.713  24.464   5.853
 9812POPC   GL161225  23.699  24.445   6.153
 9812POPC   GL261226  23.558  24.484   6.153
 9812POPC   C1A61227  23.706  24.493   6.453
 9812POPC   D2A61228  23.705  24.480   6.753
 9812POPC   C3A61229  23.688  24.462   7.053
 9812POPC   C4A61230  23.754  24.532   7.353
 9812POPC   C1B61231  23.446  24.380   6.453
 9812POPC   C2B61232  23.515  24.375   6.753
 9812POPC   C3B61233  23.481  24.425   7.053
 9812POPC   C4B61234  23.436  24.401   7.353
 9813POPC   NC361235  19.848  24.524   5.553
 9813POPC   PO461236  19.882  24.502   5.853
 9813POPC   GL161237  19.811  24.525   6.153
 9813POPC   GL261238  19.698  24.556   6.153
 9813POPC   C1A61239  19.829  24.512   6.453
 9813POPC   D2A61240  19.808  24.525   6.753
 9813POPC   C3A61241  19.807  24.451   7.053
 9813POPC   C4A61242  19.829  24.497   7.353
 9813POPC   C1B61243  19.666  24.611   6.453
 9813POPC   C2B61244  19.599  24.647   6.753
 9813POPC   C3B61245  19.666  24.629   7.053
 9813POPC   C4B61246  19.624  24.657   7.353
 9814POPC   NC361247  17.518  23.736   5.553
 9814POPC   PO461248  17.483  23.699   5.853
 9814POPC   GL161249  17.493  23.697   6.153
 9814POPC   GL261250  17.547  23.546   6.153
 9814POPC   C1A61251  17.538  23.667   6.453
 9814POPC   D2A61252  17.503  23.690   6.753
 9814POPC   C3A61253  17.538  23.737   7.053
 9814POPC   C4A61254  17.520  23.699   7.353
 9814POPC   C1B61255  17.519  23.463   6.453
 9814POPC   C2B61256  17.491  23.508   6.753
 9814POPC   C3B61257  17.513  23.479   7.053
 9814POPC   C4B61258  17.501  23.475   7.353
 9815POPC   NC361259  31.508   7.468   5.553
 9815POPC   PO461260  31.459   7.439   5.853
 9815POPC   GL161261  31.428   7.432   6.153
 9815POPC   GL261262  31.376   7.491   6.153
 9815POPC   C1A61263  31.435   7.433   6.453
 9815POPC   D2A61264  31.425   7.439   6.753
 9815POPC   C3A61265  31.521   7.382   7.053
 9815POPC   C4A61266  31.473   7.458   7.353
 9815POPC   C1B61267  31.245   7.451   6.453
 9815POPC   C2B61268  31.218   7.512   6.753
 9815POPC   C3B61269  31.186   7.484   7.053
 9815POPC   C4B61270  31.247   7.487   7.353
 9816POPC   NC361271  36.894   1.235   5.553
 9816POPC   PO461272  36.936   1.172   5.853
 9816POPC   GL161273  36.938   1.209   6.153
 9816POPC   GL261274  37.005   1.289   6.153
 9816POPC   C1A61275  36.934   1.186   6.453
 9816POPC   D2A61276  36.868   1.196   6.753
 9816POPC   C3A61277  36.944   1.204   7.053
 9816POPC   C4A61278  36.953   1.199   7.353
 9816POPC   C1B61279  37.040   1.345   6.453
 9816POPC   C2B61280  37.043   1.414   6.753
 9816POPC   C3B61281  37.057   1.406   7.053
 9816POPC   C4B61282  37.134   1.349   7.353
 9817POPC   NC361283  15.990  36.171   5.553
 9817POPC   PO461284  15.969  36.163   5.853
 9817POPC   GL161285  15.914  36.111   6.153
 9817POPC   GL261286  15.911  36.280   6.153
 9817POPC   C1A61287  15.908  36.116   6.453
 9817POPC   D2A61288  15.947  36.151   6.753
 9817POPC   C3A61289  15.980  36.124   7.053
 9817POPC   C4A61290  15.955  36.145   7.353
 9817POPC   C1B61291  15.949  36.419   6.453
 9817POPC   C2B61292  15.914  36.369   6.753
 9817POPC   C3B61293  15.949  36.410   7.053
 9817POPC   C4B61294  15.976  36.333   7.353
 9818POPC   NC361295  15.159  33.065   5.553
 9818POPC   PO461296  15.141  33.058   5.853
 9818POPC   GL161297  15.156  32.982   6.153
 9818POPC   GL261298  15.347  33.069   6.153
 9818POPC   C1A61299  15.197  33.012   6.453
 9818POPC   D2A61300  15.209  33.066   6.753
 9818POPC   C3A61301  15.170  33.042   7.053
 9818POPC   C4A61302  15.210  33.042   7.353
 9818POPC   C1B61303  15.413  33.028   6.453
 9818POPC   C2B61304  15.462  33.029   6.753
 9818POPC   C3B61305  15.376  33.107   7.053
 9818POPC   C4B61306  15.413  33.036   7.353
 9819POPC   NC361307  23.757  15.949   5.553
 9819POPC   PO461308  23.713  15.933   5.853
 9819POPC   GL161309  23.664  15.924   6.153
 9819POPC   GL261310  23.782  15.795   6.153
 9819POPC   C1A61311  23.738  15.945   6.453
 9819POPC   D2A61312  23.717  15.941   6.753
 9819POPC   C3A61313  23.696  15.952   7.053
 9819POPC   C4A61314  23.743  15.994   7.353
 9819POPC   C1B61315  23.775  15.734   6.453
 9819POPC   C2B61316  23.731  15.720   6.753
 9819POPC   C3B61317  23.724  15.682   7.053
 9819POPC   C4B61318  23.765  15.723   7.353
 9820POPC   NC361319  23.679  41.584   5.553
 9820POPC   PO461320  23.670  41.577   5.853
 9820POPC   GL161321  23.743  41.571   6.153
 9820POPC   GL261322  23.545  41.618   6.153
 9820POPC   C1A61323  23.755  41.512   6.453
 9820POPC   D2A61324  23.762  41.535   6.753
 9820POPC   C3A61325  23.685  41.563   7.053
 9820POPC   C4A61326  23.745  41.527   7.353
 9820POPC   C1B61327  23.501  41.654   6.453
 9820POPC   C2B61328  23.479  41.620   6.753
 9820POPC   C3B61329  23.442  41.607   7.053
 9820POPC   C4B61330  23.424  41.667   7.353
 9821POPC   NC361331  41.571  38.487   5.553
 9821POPC   PO461332  41.545  38.461   5.853
 9821POPC   GL161333  41.604  38.437   6.153
 9821POPC   GL261334  41.516  38.377   6.153
 9821POPC   C1A61335  41.554  38.480   6.453
 9821POPC   D2A61336  41.599  38.448   6.753
 9821POPC   C3A61337  41.544  38.445   7.053
 9821POPC   C4A61338  41.520  38.409   7.353
 9821POPC   C1B61339  41.358  38.265   6.453
 9821POPC   C2B61340  41.392  38.265   6.753
 9821POPC   C3B61341  41.426  38.227   7.053
 9821POPC   C4B61342  41.399  38.236   7.353
 9822POPC   NC361343   5.055   1.183   5.553
 9822POPC   PO461344   5.085   1.254   5.853
 9822POPC   GL161345   5.143   1.203   6.153
 9822POPC   GL261346   5.244   1.156   6.153
 9822POPC   C1A61347   5.059   1.215   6.453
 9822POPC   D2A61348   5.112   1.237   6.753
 9822POPC   C3A61349   5.120   1.264   7.053
 9822POPC   C4A61350   5.059   1.206   7.353
 9822POPC   C1B61351   5.289   1.139   6.453
 9822POPC   C2B61352   5.321   1.168   6.753
 9822POPC   C3B61353   5.354   1.197   7.053
 9822POPC   C4B61354   5.323   1.133   7.353
 9823POPC   NC361355  19.085  25.237   5.553
 9823POPC   PO461356  19.084  25.249   5.853
 9823POPC   GL161357  19.098  25.314   6.153
 9823POPC   GL261358  19.139  25.307   6.153
 9823POPC   C1A61359  19.099  25.285   6.453
 9823POPC   D2A61360  19.010  25.238   6.753
 9823POPC   C3A61361  19.068  25.271   7.053
 9823POPC   C4A61362  19.049  25.255   7.353
 9823POPC   C1B61363  19.278  25.263   6.453
 9823POPC   C2B61364  19.339  25.286   6.753
 9823POPC   C3B61365  19.327  25.266   7.053
 9823POPC   C4B61366  19.289  25.248   7.353
 9824POPC   NC361367  14.446  26.813   5.553
 9824POPC   PO461368  14.448  26.820   5.853
 9824POPC   GL161369  14.419  26.803   6.153
 9824POPC   GL261370  14.332  26.824   6.153
 9824POPC   C1A61371  14.405  26.783   6.453
 9824POPC   D2A61372  14.409  26.784   6.753
 9824POPC   C3A61373  14.428  26.853   7.053
 9824POPC   C4A61374  14.393  26.790   7.353
 9824POPC   C1B61375  14.216  26.865   6.453
 9824POPC   C2B61376  14.132  26.922   6.753
 9824POPC   C3B61377  14.157  26.945   7.053
 9824POPC   C4B61378  14.194  26.913   7.353
 9825POPC   NC361379  21.391  44.704   5.553
 9825POPC   PO461380  21.370  44.684   5.853
 9825POPC   GL161381  21.350  44.638   6.153
 9825POPC   GL261382  21.536  44.664   6.153
 9825POPC   C1A61383  21.373  44.622   6.453
 9825POPC   D2A61384  21.384  44.618   6.753
 9825POPC   C3A61385  21.344  44.699   7.053
 9825POPC   C4A61386  21.431  44.659   7.353
 9825POPC   C1B61387  21.666  44.621   6.453
 9825POPC   C2B61388  21.654  44.627   6.753
 9825POPC   C3B61389  21.643  44.616   7.053
 9825POPC   C4B61390  21.657  44.574   7.353
 9826POPC   NC361391   1.203  43.152   5.553
 9826POPC   PO461392   1.174  43.085   5.853
 9826POPC   GL161393   1.197  43.149   6.153
 9826POPC   GL261394   1.062  43.216   6.153
 9826POPC   C1A61395   1.249  43.107   6.453
 9826POPC   D2A61396   1.254  43.106   6.753
 9826POPC   C3A61397   1.226  43.132   7.053
 9826POPC   C4A61398   1.244  43.122   7.353
 9826POPC   C1B61399   1.020  43.244   6.453
 9826POPC   C2B61400   1.041  43.224   6.753
 9826POPC   C3B61401   0.966  43.278   7.053
 9826POPC   C4B61402   1.021  43.298   7.353
 9827POPC   NC361403  41.523  34.534   5.553
 9827POPC   PO461404  41.580  34.590   5.853
 9827POPC   GL161405  41.546  34.562   6.153
 9827POPC   GL261406  41.450  34.630   6.153
 9827POPC   C1A61407  41.587  34.569   6.453
 9827POPC   D2A61408  41.527  34.619   6.753
 9827POPC   C3A61409  41.533  34.539   7.053
 9827POPC   C4A61410  41.550  34.555   7.353
 9827POPC   C1B61411  41.389  34.754   6.453
 9827POPC   C2B61412  41.303  34.710   6.753
 9827POPC   C3B61413  41.391  34.706   7.053
 9827POPC   C4B61414  41.347  34.744   7.353
 9828POPC   NC361415  23.680  42.361   5.553
 9828POPC   PO461416  23.697  42.332   5.853
 9828POPC   GL161417  23.726  42.333   6.153
 9828POPC   GL261418  23.649  42.215   6.153
 9828POPC   C1A61419  23.758  42.358   6.453
 9828POPC   D2A61420  23.678  42.382   6.753
 9828POPC   C3A61421  23.763  42.306   7.053
 9828POPC   C4A61422  23.745  42.334   7.353
 9828POPC   C1B61423  23.695  42.056   6.453
 9828POPC   C2B61424  23.655  42.123   6.753
 9828POPC   C3B61425  23.677  42.099   7.053
 9828POPC   C4B61426  23.673  42.122   7.353
 9829POPC   NC361427   1.963  33.062   5.553
 9829POPC   PO461428   1.982  32.978   5.853
 9829POPC   GL161429   2.030  33.035   6.153
 9829POPC   GL261430   2.043  33.166   6.153
 9829POPC   C1A61431   1.974  33.048   6.453
 9829POPC   D2A61432   1.988  33.060   6.753
 9829POPC   C3A61433   2.002  33.059   7.053
 9829POPC   C4A61434   2.032  33.060   7.353
 9829POPC   C1B61435   2.063  33.299   6.453
 9829POPC   C2B61436   2.097  33.286   6.753
 9829POPC   C3B61437   2.120  33.242   7.053
 9829POPC   C4B61438   2.063  33.218   7.353
 9830POPC   NC361439  25.236  23.716   5.553
 9830POPC   PO461440  25.294  23.664   5.853
 9830POPC   GL161441  25.304  23.674   6.153
 9830POPC   GL261442  25.282  23.607   6.153
 9830POPC   C1A61443  25.234  23.681   6.453
 9830POPC   D2A61444  25.219  23.735   6.753
 9830POPC   C3A61445  25.228  23.691   7.053
 9830POPC   C4A61446  25.253  23.721   7.353
 9830POPC   C1B61447  25.427  23.499   6.453
 9830POPC   C2B61448  25.422  23.490   6.753
 9830POPC   C3B61449  25.399  23.451   7.053
 9830POPC   C4B61450  25.433  23.484   7.353
 9831POPC   NC361451  43.848   8.210   5.553
 9831POPC   PO461452  43.936   8.163   5.853
 9831POPC   GL161453  43.929   8.221   6.153
 9831POPC   GL261454  43.934   8.105   6.153
 9831POPC   C1A61455  43.902   8.182   6.453
 9831POPC   D2A61456  43.895   8.167   6.753
 9831POPC   C3A61457  43.928   8.179   7.053
 9831POPC   C4A61458  43.895   8.158   7.353
 9831POPC   C1B61459  44.061   7.986   6.453
 9831POPC   C2B61460  44.025   8.035   6.753
 9831POPC   C3B61461  44.059   8.028   7.053
 9831POPC   C4B61462  44.043   8.044   7.353
 9832POPC   NC361463  22.944  43.843   5.553
 9832POPC   PO461464  22.970  43.900   5.853
 9832POPC   GL161465  22.945  43.845   6.153
 9832POPC   GL261466  22.914  43.730   6.153
 9832POPC   C1A61467  22.936  43.842   6.453
 9832POPC   D2A61468  22.902  43.865   6.753
 9832POPC   C3A61469  22.983  43.863   7.053
 9832POPC   C4A61470  22.965  43.882   7.353
 9832POPC   C1B61471  22.849  43.631   6.453
 9832POPC   C2B61472  22.904  43.648   6.753
 9832POPC   C3B61473  22.851  43.614   7.053
 9832POPC   C4B61474  22.912  43.634   7.353
 9833POPC   NC361475  41.604   5.138   5.553
 9833POPC   PO461476  41.602   5.084   5.853
 9833POPC   GL161477  41.587   5.089   6.153
 9833POPC   GL261478  41.658   5.107   6.153
 9833POPC   C1A61479  41.608   5.097   6.453
 9833POPC   D2A61480  41.594   5.087   6.753
 9833POPC   C3A61481  41.578   5.105   7.053
 9833POPC   C4A61482  41.513   5.100   7.353
 9833POPC   C1B61483  41.778   5.119   6.453
 9833POPC   C2B61484  41.814   5.044   6.753
 9833POPC   C3B61485  41.760   5.049   7.053
 9833POPC   C4B61486  41.768   5.060   7.353
 9834POPC   NC361487  12.033  35.391   5.553
 9834POPC   PO461488  12.054  35.321   5.853
 9834POPC   GL161489  12.091  35.393   6.153
 9834POPC   GL261490  12.209  35.363   6.153
 9834POPC   C1A61491  12.075  35.335   6.453
 9834POPC   D2A61492  12.040  35.395   6.753
 9834POPC   C3A61493  12.083  35.355   7.053
 9834POPC   C4A61494  12.073  35.391   7.353
 9834POPC   C1B61495  12.368  35.353   6.453
 9834POPC   C2B61496  12.299  35.363   6.753
 9834POPC   C3B61497  12.367  35.379   7.053
 9834POPC   C4B61498  12.293  35.384   7.353
 9835POPC   NC361499  25.300  37.700   5.553
 9835POPC   PO461500  25.286  37.655   5.853
 9835POPC   GL161501  25.304  37.728   6.153
 9835POPC   GL261502  25.182  37.825   6.153
 9835POPC   C1A61503  25.291  37.715   6.453
 9835POPC   D2A61504  25.244  37.689   6.753
 9835POPC   C3A61505  25.222  37.719   7.053
 9835POPC   C4A61506  25.249  37.667   7.353
 9835POPC   C1B61507  25.139  37.954   6.453
 9835POPC   C2B61508  25.183  37.889   6.753
 9835POPC   C3B61509  25.180  37.949   7.053
 9835POPC   C4B61510  25.146  37.906   7.353
 9836POPC   NC361511  19.022  44.649   5.553
 9836POPC   PO461512  19.014  44.656   5.853
 9836POPC   GL161513  19.057  44.660   6.153
 9836POPC   GL261514  18.972  44.680   6.153
 9836POPC   C1A61515  19.019  44.640   6.453
 9836POPC   D2A61516  19.024  44.612   6.753
 9836POPC   C3A61517  19.018  44.699   7.053
 9836POPC   C4A61518  19.058  44.616   7.353
 9836POPC   C1B61519  18.828  44.636   6.453
 9836POPC   C2B61520  18.805  44.671   6.753
 9836POPC   C3B61521  18.801  44.651   7.053
 9836POPC   C4B61522  18.764  44.686   7.353
 9837POPC   NC361523  26.838  37.716   5.553
 9837POPC   PO461524  26.862  37.729   5.853
 9837POPC   GL161525  26.768  37.678   6.153
 9837POPC   GL261526  26.856  37.733   6.153
 9837POPC   C1A61527  26.798  37.692   6.453
 9837POPC   D2A61528  26.800  37.705   6.753
 9837POPC   C3A61529  26.814  37.699   7.053
 9837POPC   C4A61530  26.837  37.716   7.353
 9837POPC   C1B61531  26.967  37.915   6.453
 9837POPC   C2B61532  26.930  37.879   6.753
 9837POPC   C3B61533  26.949  37.909   7.053
 9837POPC   C4B61534  26.961  37.911   7.353
 9838POPC   NC361535  37.662  18.249   5.553
 9838POPC   PO461536  37.713  18.259   5.853
 9838POPC   GL161537  37.686  18.301   6.153
 9838POPC   GL261538  37.750  18.362   6.153
 9838POPC   C1A61539  37.633  18.277   6.453
 9838POPC   D2A61540  37.701  18.251   6.753
 9838POPC   C3A61541  37.718  18.298   7.053
 9838POPC   C4A61542  37.712  18.317   7.353
 9838POPC   C1B61543  37.896  18.416   6.453
 9838POPC   C2B61544  37.880  18.406   6.753
 9838POPC   C3B61545  37.842  18.423   7.053
 9838POPC   C4B61546  37.912  18.433   7.353
 9839POPC   NC361547  37.708  22.932   5.553
 9839POPC   PO461548  37.661  22.903   5.853
 9839POPC   GL161549  37.645  22.891   6.153
 9839POPC   GL261550  37.661  23.036   6.153
 9839POPC   C1A61551  37.679  22.957   6.453
 9839POPC   D2A61552  37.652  22.963   6.753
 9839POPC   C3A61553  37.706  22.906   7.053
 9839POPC   C4A61554  37.655  22.910   7.353
 9839POPC   C1B61555  37.757  23.151   6.453
 9839POPC   C2B61556  37.700  23.139   6.753
 9839POPC   C3B61557  37.697  23.178   7.053
 9839POPC   C4B61558  37.741  23.175   7.353
 9840POPC   NC361559  43.130  24.492   5.553
 9840POPC   PO461560  43.113  24.510   5.853
 9840POPC   GL161561  43.084  24.521   6.153
 9840POPC   GL261562  42.989  24.472   6.153
 9840POPC   C1A61563  43.094  24.524   6.453
 9840POPC   D2A61564  43.157  24.517   6.753
 9840POPC   C3A61565  43.074  24.525   7.053
 9840POPC   C4A61566  43.090  24.525   7.353
 9840POPC   C1B61567  42.872  24.480   6.453
 9840POPC   C2B61568  42.888  24.549   6.753
 9840POPC   C3B61569  42.885  24.466   7.053
 9840POPC   C4B61570  42.907  24.497   7.353
 9841POPC   NC361571   2.021  19.051   5.553
 9841POPC   PO461572   2.009  19.035   5.853
 9841POPC   GL161573   2.009  19.074   6.153
 9841POPC   GL261574   2.006  19.159   6.153
 9841POPC   C1A61575   1.940  19.087   6.453
 9841POPC   D2A61576   2.016  19.081   6.753
 9841POPC   C3A61577   2.017  19.068   7.053
 9841POPC   C4A61578   2.007  19.084   7.353
 9841POPC   C1B61579   2.126  19.299   6.453
 9841POPC   C2B61580   2.085  19.244   6.753
 9841POPC   C3B61581   2.106  19.315   7.053
 9841POPC   C4B61582   2.083  19.306   7.353
 9842POPC   NC361583  21.350   3.559   5.553
 9842POPC   PO461584  21.346   3.587   5.853
 9842POPC   GL161585  21.358   3.584   6.153
 9842POPC   GL261586  21.257   3.581   6.153
 9842POPC   C1A61587  21.344   3.591   6.453
 9842POPC   D2A61588  21.410   3.579   6.753
 9842POPC   C3A61589  21.363   3.582   7.053
 9842POPC   C4A61590  21.375   3.527   7.353
 9842POPC   C1B61591  21.210   3.755   6.453
 9842POPC   C2B61592  21.151   3.659   6.753
 9842POPC   C3B61593  21.230   3.675   7.053
 9842POPC   C4B61594  21.179   3.658   7.353
 9843POPC   NC361595   2.743  37.633   5.553
 9843POPC   PO461596   2.786  37.678   5.853
 9843POPC   GL161597   2.781  37.669   6.153
 9843POPC   GL261598   2.645  37.634   6.153
 9843POPC   C1A61599   2.759  37.644   6.453
 9843POPC   D2A61600   2.756  37.710   6.753
 9843POPC   C3A61601   2.761  37.678   7.053
 9843POPC   C4A61602   2.740  37.672   7.353
 9843POPC   C1B61603   2.524  37.548   6.453
 9843POPC   C2B61604   2.526  37.496   6.753
 9843POPC   C3B61605   2.595  37.553   7.053
 9843POPC   C4B61606   2.600  37.496   7.353
 9844POPC   NC361607  11.333  36.167   5.553
 9844POPC   PO461608  11.324  36.170   5.853
 9844POPC   GL161609  11.288  36.172   6.153
 9844POPC   GL261610  11.222  36.011   6.153
 9844POPC   C1A61611  11.265  36.094   6.453
 9844POPC   D2A61612  11.313  36.127   6.753
 9844POPC   C3A61613  11.303  36.083   7.053
 9844POPC   C4A61614  11.255  36.081   7.353
 9844POPC   C1B61615  11.109  35.908   6.453
 9844POPC   C2B61616  11.141  35.971   6.753
 9844POPC   C3B61617  11.111  35.978   7.053
 9844POPC   C4B61618  11.129  35.907   7.353
 9845POPC   NC361619  36.167  29.872   5.553
 9845POPC   PO461620  36.149  29.923   5.853
 9845POPC   GL161621  36.127  29.915   6.153
 9845POPC   GL261622  36.015  29.913   6.153
 9845POPC   C1A61623  36.127  29.964   6.453
 9845POPC   D2A61624  36.143  29.916   6.753
 9845POPC   C3A61625  36.116  29.968   7.053
 9845POPC   C4A61626  36.103  29.920   7.353
 9845POPC   C1B61627  35.890  29.788   6.453
 9845POPC   C2B61628  35.914  29.870   6.753
 9845POPC   C3B61629  35.843  29.847   7.053
 9845POPC   C4B61630  35.941  29.803   7.353
 9846POPC   NC361631  26.864  41.600   5.553
 9846POPC   PO461632  26.846  41.514   5.853
 9846POPC   GL161633  26.819  41.598   6.153
 9846POPC   GL261634  26.681  41.647   6.153
 9846POPC   C1A61635  26.802  41.521   6.453
 9846POPC   D2A61636  26.822  41.600   6.753
 9846POPC   C3A61637  26.858  41.561   7.053
 9846POPC   C4A61638  26.866  41.573   7.353
 9846POPC   C1B61639  26.566  41.668   6.453
 9846POPC   C2B61640  26.535  41.595   6.753
 9846POPC   C3B61641  26.548  41.684   7.053
 9846POPC   C4B61642  26.619  41.681   7.353
 9847POPC   NC361643   5.900  33.848   5.553
 9847POPC   PO461644   5.853  33.848   5.853
 9847POPC   GL161645   5.855  33.750   6.153
 9847POPC   GL261646   5.937  33.867   6.153
 9847POPC   C1A61647   5.822  33.800   6.453
 9847POPC   D2A61648   5.830  33.796   6.753
 9847POPC   C3A61649   5.856  33.784   7.053
 9847POPC   C4A61650   5.897  33.822   7.353
 9847POPC   C1B61651   6.047  34.024   6.453
 9847POPC   C2B61652   5.992  34.009   6.753
 9847POPC   C3B61653   6.005  34.009   7.053
 9847POPC   C4B61654   5.990  34.049   7.353
 9848POPC   NC361655  16.765  33.819   5.553
 9848POPC   PO461656  16.768  33.815   5.853
 9848POPC   GL161657  16.763  33.835   6.153
 9848POPC   GL261658  16.746  33.930   6.153
 9848POPC   C1A61659  16.754  33.824   6.453
 9848POPC   D2A61660  16.721  33.758   6.753
 9848POPC   C3A61661  16.736  33.758   7.053
 9848POPC   C4A61662  16.695  33.850   7.353
 9848POPC   C1B61663  16.893  34.065   6.453
 9848POPC   C2B61664  16.847  33.972   6.753
 9848POPC   C3B61665  16.896  34.010   7.053
 9848POPC   C4B61666  16.809  34.038   7.353
 9849POPC   NC361667  12.052   0.466   5.553
 9849POPC   PO461668  12.071   0.458   5.853
 9849POPC   GL161669  12.047   0.478   6.153
 9849POPC   GL261670  11.945   0.542   6.153
 9849POPC   C1A61671  12.123   0.426   6.453
 9849POPC   D2A61672  12.058   0.409   6.753
 9849POPC   C3A61673  12.092   0.422   7.053
 9849POPC   C4A61674  12.120   0.411   7.353
 9849POPC   C1B61675  11.863   0.617   6.453
 9849POPC   C2B61676  11.887   0.609   6.753
 9849POPC   C3B61677  11.839   0.589   7.053
 9849POPC   C4B61678  11.856   0.574   7.353
 9850POPC   NC361679  12.078  24.487   5.553
 9850POPC   PO461680  12.051  24.457   5.853
 9850POPC   GL161681  12.090  24.499   6.153
 9850POPC   GL261682  11.942  24.547   6.153
 9850POPC   C1A61683  12.120  24.497   6.453
 9850POPC   D2A61684  12.094  24.475   6.753
 9850POPC   C3A61685  12.037  24.468   7.053
 9850POPC   C4A61686  12.047  24.464   7.353
 9850POPC   C1B61687  11.809  24.558   6.453
 9850POPC   C2B61688  11.862  24.565   6.753
 9850POPC   C3B61689  11.807  24.597   7.053
 9850POPC   C4B61690  11.881  24.556   7.353
 9851POPC   NC361691  30.706  27.614   5.553
 9851POPC   PO461692  30.741  27.637   5.853
 9851POPC   GL161693  30.653  27.570   6.153
 9851POPC   GL261694  30.622  27.626   6.153
 9851POPC   C1A61695  30.654  27.572   6.453
 9851POPC   D2A61696  30.708  27.583   6.753
 9851POPC   C3A61697  30.735  27.643   7.053
 9851POPC   C4A61698  30.713  27.583   7.353
 9851POPC   C1B61699  30.482  27.658   6.453
 9851POPC   C2B61700  30.434  27.620   6.753
 9851POPC   C3B61701  30.451  27.683   7.053
 9851POPC   C4B61702  30.448  27.619   7.353
 9852POPC   NC361703  42.285  23.743   5.553
 9852POPC   PO461704  42.285  23.675   5.853
 9852POPC   GL161705  42.285  23.725   6.153
 9852POPC   GL261706  42.298  23.843   6.153
 9852POPC   C1A61707  42.351  23.691   6.453
 9852POPC   D2A61708  42.370  23.758   6.753
 9852POPC   C3A61709  42.358  23.682   7.053
 9852POPC   C4A61710  42.359  23.703   7.353
 9852POPC   C1B61711  42.284  23.931   6.453
 9852POPC   C2B61712  42.346  23.987   6.753
 9852POPC   C3B61713  42.322  23.995   7.053
 9852POPC   C4B61714  42.257  24.010   7.353
 9853POPC   NC361715  12.826  24.507   5.553
 9853POPC   PO461716  12.840  24.494   5.853
 9853POPC   GL161717  12.816  24.494   6.153
 9853POPC   GL261718  12.887  24.348   6.153
 9853POPC   C1A61719  12.863  24.507   6.453
 9853POPC   D2A61720  12.874  24.512   6.753
 9853POPC   C3A61721  12.874  24.450   7.053
 9853POPC   C4A61722  12.840  24.495   7.353
 9853POPC   C1B61723  13.044  24.267   6.453
 9853POPC   C2B61724  12.978  24.313   6.753
 9853POPC   C3B61725  13.022  24.320   7.053
 9853POPC   C4B61726  12.990  24.333   7.353
 9854POPC   NC361727  44.711  29.097   5.553
 9854POPC   PO461728  44.627  29.110   5.853
 9854POPC   GL161729  44.701  29.111   6.153
 9854POPC   GL261730  44.542  29.128   6.153
 9854POPC   C1A61731  44.619  29.187   6.453
 9854POPC   D2A61732  44.701  29.146   6.753
 9854POPC   C3A61733  44.638  29.177   7.053
 9854POPC   C4A61734  44.665  29.138   7.353
 9854POPC   C1B61735  44.383  29.217   6.453
 9854POPC   C2B61736  44.369  29.209   6.753
 9854POPC   C3B61737  44.404  29.143   7.053
 9854POPC   C4B61738  44.451  29.156   7.353
 9855POPC   NC361739  35.387  22.926   5.553
 9855POPC   PO461740  35.389  22.985   5.853
 9855POPC   GL161741  35.342  22.960   6.153
 9855POPC   GL261742  35.282  22.885   6.153
 9855POPC   C1A61743  35.343  22.902   6.453
 9855POPC   D2A61744  35.304  22.978   6.753
 9855POPC   C3A61745  35.310  22.987   7.053
 9855POPC   C4A61746  35.311  22.921   7.353
 9855POPC   C1B61747  35.107  22.814   6.453
 9855POPC   C2B61748  35.165  22.823   6.753
 9855POPC   C3B61749  35.184  22.796   7.053
 9855POPC   C4B61750  35.129  22.795   7.353
 9856POPC   NC361751   2.744   4.315   5.553
 9856POPC   PO461752   2.736   4.361   5.853
 9856POPC   GL161753   2.748   4.287   6.153
 9856POPC   GL261754   2.668   4.266   6.153
 9856POPC   C1A61755   2.769   4.345   6.453
 9856POPC   D2A61756   2.762   4.315   6.753
 9856POPC   C3A61757   2.770   4.349   7.053
 9856POPC   C4A61758   2.746   4.322   7.353
 9856POPC   C1B61759   2.518   4.204   6.453
 9856POPC   C2B61760   2.571   4.182   6.753
 9856POPC   C3B61761   2.542   4.269   7.053
 9856POPC   C4B61762   2.574   4.226   7.353
 9857POPC   NC361763  27.576  29.890   5.553
 9857POPC   PO461764  27.570  29.880   5.853
 9857POPC   GL161765  27.630  29.919   6.153
 9857POPC   GL261766  27.763  29.925   6.153
 9857POPC   C1A61767  27.586  29.930   6.453
 9857POPC   D2A61768  27.634  29.954   6.753
 9857POPC   C3A61769  27.565  29.892   7.053
 9857POPC   C4A61770  27.551  29.918   7.353
 9857POPC   C1B61771  27.839  29.932   6.453
 9857POPC   C2B61772  27.875  29.922   6.753
 9857POPC   C3B61773  27.815  29.981   7.053
 9857POPC   C4B61774  27.840  29.914   7.353
 9858POPC   NC361775  14.375   2.021   5.553
 9858POPC   PO461776  14.434   2.013   5.853
 9858POPC   GL161777  14.370   2.033   6.153
 9858POPC   GL261778  14.335   1.936   6.153
 9858POPC   C1A61779  14.443   1.945   6.453
 9858POPC   D2A61780  14.446   1.974   6.753
 9858POPC   C3A61781  14.401   1.998   7.053
 9858POPC   C4A61782  14.362   1.945   7.353
 9858POPC   C1B61783  14.242   1.817   6.453
 9858POPC   C2B61784  14.232   1.796   6.753
 9858POPC   C3B61785  14.239   1.818   7.053
 9858POPC   C4B61786  14.229   1.788   7.353
 9859POPC   NC361787   7.429   0.487   5.553
 9859POPC   PO461788   7.387   0.479   5.853
 9859POPC   GL161789   7.406   0.450   6.153
 9859POPC   GL261790   7.322   0.357   6.153
 9859POPC   C1A61791   7.402   0.402   6.453
 9859POPC   D2A61792   7.428   0.468   6.753
 9859POPC   C3A61793   7.431   0.479   7.053
 9859POPC   C4A61794   7.431   0.412   7.353
 9859POPC   C1B61795   7.257   0.187   6.453
 9859POPC   C2B61796   7.309   0.197   6.753
 9859POPC   C3B61797   7.323   0.222   7.053
 9859POPC   C4B61798   7.304   0.211   7.353
 9860POPC   NC361799  43.861  14.355   5.553
 9860POPC   PO461800  43.901  14.406   5.853
 9860POPC   GL161801  43.878  14.409   6.153
 9860POPC   GL261802  44.033  14.485   6.153
 9860POPC   C1A61803  43.923  14.425   6.453
 9860POPC   D2A61804  43.924  14.390   6.753
 9860POPC   C3A61805  43.867  14.426   7.053
 9860POPC   C4A61806  43.926  14.369   7.353
 9860POPC   C1B61807  44.104  14.564   6.453
 9860POPC   C2B61808  44.120  14.531   6.753
 9860POPC   C3B61809  44.112  14.607   7.053
 9860POPC   C4B61810  44.069  14.521   7.353
 9861POPC   NC361811  12.822  42.350   5.553
 9861POPC   PO461812  12.870  42.293   5.853
 9861POPC   GL161813  12.895  42.293   6.153
 9861POPC   GL261814  12.717  42.252   6.153
 9861POPC   C1A61815  12.840  42.307   6.453
 9861POPC   D2A61816  12.897  42.285   6.753
 9861POPC   C3A61817  12.880  42.315   7.053
 9861POPC   C4A61818  12.892  42.344   7.353
 9861POPC   C1B61819  12.618  42.238   6.453
 9861POPC   C2B61820  12.674  42.184   6.753
 9861POPC   C3B61821  12.672  42.234   7.053
 9861POPC   C4B61822  12.604  42.190   7.353
 9862POPC   NC361823   6.643  14.371   5.553
 9862POPC   PO461824   6.615  14.373   5.853
 9862POPC   GL161825   6.609  14.423   6.153
 9862POPC   GL261826   6.561  14.350   6.153
 9862POPC   C1A61827   6.664  14.387   6.453
 9862POPC   D2A61828   6.666  14.404   6.753
 9862POPC   C3A61829   6.673  14.432   7.053
 9862POPC   C4A61830   6.688  14.399   7.353
 9862POPC   C1B61831   6.380  14.318   6.453
 9862POPC   C2B61832   6.410  14.290   6.753
 9862POPC   C3B61833   6.391  14.327   7.053
 9862POPC   C4B61834   6.358  14.323   7.353
 9863POPC   NC361835  31.435  36.861   5.553
 9863POPC   PO461836  31.466  36.931   5.853
 9863POPC   GL161837  31.461  36.895   6.153
 9863POPC   GL261838  31.553  36.890   6.153
 9863POPC   C1A61839  31.509  36.934   6.453
 9863POPC   D2A61840  31.446  36.950   6.753
 9863POPC   C3A61841  31.461  36.902   7.053
 9863POPC   C4A61842  31.451  36.872   7.353
 9863POPC   C1B61843  31.757  36.910   6.453
 9863POPC   C2B61844  31.743  36.852   6.753
 9863POPC   C3B61845  31.757  36.862   7.053
 9863POPC   C4B61846  31.674  36.856   7.353
 9864POPC   NC361847   5.856  34.580   5.553
 9864POPC   PO461848   5.890  34.547   5.853
 9864POPC   GL161849   5.825  34.597   6.153
 9864POPC   GL261850   5.783  34.612   6.153
 9864POPC   C1A61851   5.825  34.610   6.453
 9864POPC   D2A61852   5.877  34.582   6.753
 9864POPC   C3A61853   5.835  34.622   7.053
 9864POPC   C4A61854   5.846  34.616   7.353
 9864POPC   C1B61855   5.630  34.658   6.453
 9864POPC   C2B61856   5.662  34.629   6.753
 9864POPC   C3B61857   5.585  34.611   7.053
 9864POPC   C4B61858   5.601  34.634   7.353
 9865POPC   NC361859  20.609  31.474   5.553
 9865POPC   PO461860  20.636  31.493   5.853
 9865POPC   GL161861  20.608  31.520   6.153
 9865POPC   GL261862  20.620  31.625   6.153
 9865POPC   C1A61863  20.589  31.468   6.453
 9865POPC   D2A61864  20.618  31.515   6.753
 9865POPC   C3A61865  20.600  31.464   7.053
 9865POPC   C4A61866  20.608  31.425   7.353
 9865POPC   C1B61867  20.752  31.666   6.453
 9865POPC   C2B61868  20.748  31.742   6.753
 9865POPC   C3B61869  20.679  31.690   7.053
 9865POPC   C4B61870  20.736  31.662   7.353
 9866POPC   NC361871   2.798  29.967   5.553
 9866POPC   PO461872   2.794  29.938   5.853
 9866POPC   GL161873   2.721  29.876   6.153
 9866POPC   GL261874   2.851  30.004   6.153
 9866POPC   C1A61875   2.725  29.922   6.453
 9866POPC   D2A61876   2.804  29.965   6.753
 9866POPC   C3A61877   2.778  29.941   7.053
 9866POPC   C4A61878   2.802  29.898   7.353
 9866POPC   C1B61879   2.955  30.009   6.453
 9866POPC   C2B61880   2.997  30.101   6.753
 9866POPC   C3B61881   3.025  30.104   7.053
 9866POPC   C4B61882   3.011  30.033   7.353
 9867POPC   NC361883  22.209   4.325   5.553
 9867POPC   PO461884  22.171   4.313   5.853
 9867POPC   GL161885  22.204   4.314   6.153
 9867POPC   GL261886  22.323   4.333   6.153
 9867POPC   C1A61887  22.132   4.325   6.453
 9867POPC   D2A61888  22.144   4.320   6.753
 9867POPC   C3A61889  22.137   4.322   7.053
 9867POPC   C4A61890  22.144   4.276   7.353
 9867POPC   C1B61891  22.446   4.265   6.453
 9867POPC   C2B61892  22.459   4.308   6.753
 9867POPC   C3B61893  22.362   4.273   7.053
 9867POPC   C4B61894  22.412   4.323   7.353
 9868POPC   NC361895  17.541  22.911   5.553
 9868POPC   PO461896  17.530  22.961   5.853
 9868POPC   GL161897  17.502  22.900   6.153
 9868POPC   GL261898  17.392  23.048   6.153
 9868POPC   C1A61899  17.507  22.969   6.453
 9868POPC   D2A61900  17.517  22.928   6.753
 9868POPC   C3A61901  17.520  22.954   7.053
 9868POPC   C4A61902  17.511  22.969   7.353
 9868POPC   C1B61903  17.405  23.153   6.453
 9868POPC   C2B61904  17.368  23.142   6.753
 9868POPC   C3B61905  17.388  23.152   7.053
 9868POPC   C4B61906  17.339  23.125   7.353
 9869POPC   NC361907  21.433  43.885   5.553
 9869POPC   PO461908  21.422  43.858   5.853
 9869POPC   GL161909  21.430  43.892   6.153
 9869POPC   GL261910  21.326  43.773   6.153
 9869POPC   C1A61911  21.398  43.917   6.453
 9869POPC   D2A61912  21.386  43.914   6.753
 9869POPC   C3A61913  21.377  43.929   7.053
 9869POPC   C4A61914  21.428  43.915   7.353
 9869POPC   C1B61915  21.185  43.718   6.453
 9869POPC   C2B61916  21.148  43.716   6.753
 9869POPC   C3B61917  21.214  43.714   7.053
 9869POPC   C4B61918  21.164  43.737   7.353
 9870POPC   NC361919  43.874  28.385   5.553
 9870POPC   PO461920  43.837  28.350   5.853
 9870POPC   GL161921  43.858  28.367   6.153
 9870POPC   GL261922  43.837  28.198   6.153
 9870POPC   C1A61923  43.847  28.403   6.453
 9870POPC   D2A61924  43.839  28.331   6.753
 9870POPC   C3A61925  43.837  28.391   7.053
 9870POPC   C4A61926  43.848  28.346   7.353
 9870POPC   C1B61927  43.853  28.154   6.453
 9870POPC   C2B61928  43.912  28.167   6.753
 9870POPC   C3B61929  43.836  28.109   7.053
 9870POPC   C4B61930  43.829  28.109   7.353
 9871POPC   NC361931  24.501  32.233   5.553
 9871POPC   PO461932  24.514  32.293   5.853
 9871POPC   GL161933  24.451  32.203   6.153
 9871POPC   GL261934  24.389  32.323   6.153
 9871POPC   C1A61935  24.452  32.250   6.453
 9871POPC   D2A61936  24.499  32.285   6.753
 9871POPC   C3A61937  24.481  32.285   7.053
 9871POPC   C4A61938  24.483  32.275   7.353
 9871POPC   C1B61939  24.309  32.330   6.453
 9871POPC   C2B61940  24.280  32.356   6.753
 9871POPC   C3B61941  24.286  32.400   7.053
 9871POPC   C4B61942  24.286  32.414   7.353
 9872POPC   NC361943  22.974   0.480   5.553
 9872POPC   PO461944  22.925   0.403   5.853
 9872POPC   GL161945  22.955   0.466   6.153
 9872POPC   GL261946  22.904   0.609   6.153
 9872POPC   C1A61947  22.906   0.461   6.453
 9872POPC   D2A61948  22.985   0.406   6.753
 9872POPC   C3A61949  22.973   0.424   7.053
 9872POPC   C4A61950  22.899   0.440   7.353
 9872POPC   C1B61951  22.923   0.681   6.453
 9872POPC   C2B61952  22.954   0.656   6.753
 9872POPC   C3B61953  22.973   0.657   7.053
 9872POPC   C4B61954  22.914   0.726   7.353
 9873POPC   NC361955  41.569  19.097   5.553
 9873POPC   PO461956  41.578  19.037   5.853
 9873POPC   GL161957  41.534  19.053   6.153
 9873POPC   GL261958  41.591  19.172   6.153
 9873POPC   C1A61959  41.513  19.065   6.453
 9873POPC   D2A61960  41.526  19.058   6.753
 9873POPC   C3A61961  41.535  19.015   7.053
 9873POPC   C4A61962  41.564  19.018   7.353
 9873POPC   C1B61963  41.498  19.308   6.453
 9873POPC   C2B61964  41.572  19.317   6.753
 9873POPC   C3B61965  41.556  19.333   7.053
 9873POPC   C4B61966  41.544  19.313   7.353
 9874POPC   NC361967  26.010  15.148   5.553
 9874POPC   PO461968  26.050  15.227   5.853
 9874POPC   GL161969  26.049  15.179   6.153
 9874POPC   GL261970  26.159  15.126   6.153
 9874POPC   C1A61971  26.081  15.194   6.453
 9874POPC   D2A61972  26.036  15.200   6.753
 9874POPC   C3A61973  25.994  15.170   7.053
 9874POPC   C4A61974  26.082  15.184   7.353
 9874POPC   C1B61975  26.177  14.975   6.453
 9874POPC   C2B61976  26.179  14.990   6.753
 9874POPC   C3B61977  26.236  15.005   7.053
 9874POPC   C4B61978  26.204  15.001   7.353
 9875POPC   NC361979  15.942   3.578   5.553
 9875POPC   PO461980  15.920   3.493   5.853
 9875POPC   GL161981  15.966   3.556   6.153
 9875POPC   GL261982  16.058   3.639   6.153
 9875POPC   C1A61983  16.000   3.577   6.453
 9875POPC   D2A61984  15.964   3.532   6.753
 9875POPC   C3A61985  15.945   3.493   7.053
 9875POPC   C4A61986  15.967   3.501   7.353
 9875POPC   C1B61987  16.193   3.694   6.453
 9875POPC   C2B61988  16.153   3.629   6.753
 9875POPC   C3B61989  16.182   3.648   7.053
 9875POPC   C4B61990  16.228   3.618   7.353
 9876POPC   NC361991  21.339  38.433   5.553
 9876POPC   PO461992  21.435  38.421   5.853
 9876POPC   GL161993  21.409  38.427   6.153
 9876POPC   GL261994  21.310  38.367   6.153
 9876POPC   C1A61995  21.407  38.456   6.453
 9876POPC   D2A61996  21.396  38.463   6.753
 9876POPC   C3A61997  21.353  38.421   7.053
 9876POPC   C4A61998  21.420  38.460   7.353
 9876POPC   C1B61999  21.227  38.235   6.453
 9876POPC   C2B62000  21.303  38.198   6.753
 9876POPC   C3B62001  21.217  38.247   7.053
 9876POPC   C4B62002  21.259  38.201   7.353
 9877POPC   NC362003  22.144  16.780   5.553
 9877POPC   PO462004  22.145  16.746   5.853
 9877POPC   GL162005  22.132  16.727   6.153
 9877POPC   GL262006  22.098  16.812   6.153
 9877POPC   C1A62007  22.193  16.728   6.453
 9877POPC   D2A62008  22.171  16.693   6.753
 9877POPC   C3A62009  22.138  16.748   7.053
 9877POPC   C4A62010  22.127  16.747   7.353
 9877POPC   C1B62011  22.092  16.962   6.453
 9877POPC   C2B62012  22.040  16.953   6.753
 9877POPC   C3B62013  22.078  16.967   7.053
 9877POPC   C4B62014  22.027  16.995   7.353
 9878POPC   NC362015  19.794  13.614   5.553
 9878POPC   PO462016  19.882  13.665   5.853
 9878POPC   GL162017  19.870  13.633   6.153
 9878POPC   GL262018  19.904  13.656   6.153
 9878POPC   C1A62019  19.850  13.578   6.453
 9878POPC   D2A62020  19.836  13.602   6.753
 9878POPC   C3A62021  19.877  13.648   7.053
 9878POPC   C4A62022  19.802  13.614   7.353
 9878POPC   C1B62023  20.088  13.709   6.453
 9878POPC   C2B62024  20.046  13.699   6.753
 9878POPC   C3B62025  20.050  13.684   7.053
 9878POPC   C4B62026  20.089  13.689   7.353
 9879POPC   NC362027  43.921  44.701   5.553
 9879POPC   PO462028  43.932  44.640   5.853
 9879POPC   GL162029  43.909  44.671   6.153
 9879POPC   GL262030  43.984  44.729   6.153
 9879POPC   C1A62031  43.845  44.682   6.453
 9879POPC   D2A62032  43.909  44.700   6.753
 9879POPC   C3A62033  43.876  44.626   7.053
 9879POPC   C4A62034  43.909  44.709   7.353
 9879POPC   C1B62035  44.001  44.904   6.453
 9879POPC   C2B62036  44.092  44.825   6.753
 9879POPC   C3B62037  44.086  44.863   7.053
 9879POPC   C4B62038  44.082  44.869   7.353
 9880POPC   NC362039  31.492   5.867   5.553
 9880POPC   PO462040  31.484   5.848   5.853
 9880POPC   GL162041  31.447   5.853   6.153
 9880POPC   GL262042  31.440   5.780   6.153
 9880POPC   C1A62043  31.481   5.837   6.453
 9880POPC   D2A62044  31.456   5.898   6.753
 9880POPC   C3A62045  31.479   5.839   7.053
 9880POPC   C4A62046  31.491   5.823   7.353
 9880POPC   C1B62047  31.411   5.605   6.453
 9880POPC   C2B62048  31.491   5.574   6.753
 9880POPC   C3B62049  31.434   5.655   7.053
 9880POPC   C4B62050  31.498   5.612   7.353
 9881POPC   NC362051   1.995   2.723   5.553
 9881POPC   PO462052   2.032   2.718   5.853
 9881POPC   GL162053   2.008   2.772   6.153
 9881POPC   GL262054   1.926   2.681   6.153
 9881POPC   C1A62055   2.037   2.812   6.453
 9881POPC   D2A62056   2.018   2.814   6.753
 9881POPC   C3A62057   1.941   2.810   7.053
 9881POPC   C4A62058   1.973   2.771   7.353
 9881POPC   C1B62059   1.802   2.563   6.453
 9881POPC   C2B62060   1.834   2.560   6.753
 9881POPC   C3B62061   1.792   2.518   7.053
 9881POPC   C4B62062   1.821   2.575   7.353
 9882POPC   NC362063  24.498  37.645   5.553
 9882POPC   PO462064  24.507  37.686   5.853
 9882POPC   GL162065  24.467  37.725   6.153
 9882POPC   GL262066  24.414  37.786   6.153
 9882POPC   C1A62067  24.476  37.699   6.453
 9882POPC   D2A62068  24.487  37.721   6.753
 9882POPC   C3A62069  24.520  37.674   7.053
 9882POPC   C4A62070  24.513  37.702   7.353
 9882POPC   C1B62071  24.366  37.877   6.453
 9882POPC   C2B62072  24.347  37.822   6.753
 9882POPC   C3B62073  24.273  37.888   7.053
 9882POPC   C4B62074  24.354  37.880   7.353
 9883POPC   NC362075  29.120   0.413   5.553
 9883POPC   PO462076  29.169   0.481   5.853
 9883POPC   GL162077  29.117   0.397   6.153
 9883POPC   GL262078  29.209   0.557   6.153
 9883POPC   C1A62079  29.136   0.448   6.453
 9883POPC   D2A62080  29.154   0.423   6.753
 9883POPC   C3A62081  29.189   0.445   7.053
 9883POPC   C4A62082  29.107   0.388   7.353
 9883POPC   C1B62083  29.367   0.561   6.453
 9883POPC   C2B62084  29.345   0.625   6.753
 9883POPC   C3B62085  29.317   0.595   7.053
 9883POPC   C4B62086  29.355   0.545   7.353
 9884POPC   NC362087  39.188  11.290   5.553
 9884POPC   PO462088  39.207  11.304   5.853
 9884POPC   GL162089  39.267  11.308   6.153
 9884POPC   GL262090  39.179  11.390   6.153
 9884POPC   C1A62091  39.272  11.316   6.453
 9884POPC   D2A62092  39.209  11.288   6.753
 9884POPC   C3A62093  39.235  11.296   7.053
 9884POPC   C4A62094  39.204  11.267   7.353
 9884POPC   C1B62095  39.062  11.517   6.453
 9884POPC   C2B62096  39.049  11.485   6.753
 9884POPC   C3B62097  39.102  11.457   7.053
 9884POPC   C4B62098  39.048  11.521   7.353
 9885POPC   NC362099  43.100  43.851   5.553
 9885POPC   PO462100  43.069  43.899   5.853
 9885POPC   GL162101  43.115  43.848   6.153
 9885POPC   GL262102  42.995  43.805   6.153
 9885POPC   C1A62103  43.088  43.931   6.453
 9885POPC   D2A62104  43.084  43.890   6.753
 9885POPC   C3A62105  43.154  43.848   7.053
 9885POPC   C4A62106  43.145  43.906   7.353
 9885POPC   C1B62107  42.998  43.668   6.453
 9885POPC   C2B62108  42.967  43.685   6.753
 9885POPC   C3B62109  43.014  43.657   7.053
 9885POPC   C4B62110  42.922  43.648   7.353
 9886POPC   NC362111  25.299  40.786   5.553
 9886POPC   PO462112  25.267  40.787   5.853
 9886POPC   GL162113  25.308  40.796   6.153
 9886POPC   GL262114  25.290  40.650   6.153
 9886POPC   C1A62115  25.216  40.777   6.453
 9886POPC   D2A62116  25.276  40.738   6.753
 9886POPC   C3A62117  25.265  40.756   7.053
 9886POPC   C4A62118  25.309  40.752   7.353
 9886POPC   C1B62119  25.346  40.594   6.453
 9886POPC   C2B62120  25.340  40.503   6.753
 9886POPC   C3B62121  25.364  40.584   7.053
 9886POPC   C4B62122  25.304  40.505   7.353
 9887POPC   NC362123  12.900  29.125   5.553
 9887POPC   PO462124  12.826  29.116   5.853
 9887POPC   GL162125  12.838  29.140   6.153
 9887POPC   GL262126  12.737  29.039   6.153
 9887POPC   C1A62127  12.895  29.177   6.453
 9887POPC   D2A62128  12.876  29.163   6.753
 9887POPC   C3A62129  12.823  29.096   7.053
 9887POPC   C4A62130  12.902  29.120   7.353
 9887POPC   C1B62131  12.658  29.005   6.453
 9887POPC   C2B62132  12.677  29.016   6.753
 9887POPC   C3B62133  12.706  28.943   7.053
 9887POPC   C4B62134  12.676  29.028   7.353
 9888POPC   NC362135  34.580   0.464   5.553
 9888POPC   PO462136  34.577   0.431   5.853
 9888POPC   GL162137  34.547   0.412   6.153
 9888POPC   GL262138  34.620   0.585   6.153
 9888POPC   C1A62139  34.578   0.486   6.453
 9888POPC   D2A62140  34.530   0.391   6.753
 9888POPC   C3A62141  34.532   0.397   7.053
 9888POPC   C4A62142  34.602   0.401   7.353
 9888POPC   C1B62143  34.573   0.713   6.453
 9888POPC   C2B62144  34.655   0.686   6.753
 9888POPC   C3B62145  34.579   0.698   7.053
 9888POPC   C4B62146  34.627   0.640   7.353
 9889POPC   NC362147  28.365  15.919   5.553
 9889POPC   PO462148  28.395  15.995   5.853
 9889POPC   GL162149  28.365  16.002   6.153
 9889POPC   GL262150  28.301  15.865   6.153
 9889POPC   C1A62151  28.371  16.002   6.453
 9889POPC   D2A62152  28.415  15.994   6.753
 9889POPC   C3A62153  28.364  15.995   7.053
 9889POPC   C4A62154  28.362  15.919   7.353
 9889POPC   C1B62155  28.188  15.808   6.453
 9889POPC   C2B62156  28.196  15.775   6.753
 9889POPC   C3B62157  28.185  15.764   7.053
 9889POPC   C4B62158  28.241  15.796   7.353
 9890POPC   NC362159  37.688   4.290   5.553
 9890POPC   PO462160  37.683   4.349   5.853
 9890POPC   GL162161  37.632   4.336   6.153
 9890POPC   GL262162  37.628   4.434   6.153
 9890POPC   C1A62163  37.635   4.339   6.453
 9890POPC   D2A62164  37.698   4.289   6.753
 9890POPC   C3A62165  37.697   4.331   7.053
 9890POPC   C4A62166  37.668   4.304   7.353
 9890POPC   C1B62167  37.579   4.570   6.453
 9890POPC   C2B62168  37.627   4.515   6.753
 9890POPC   C3B62169  37.580   4.588   7.053
 9890POPC   C4B62170  37.596   4.568   7.353
 9891POPC   NC362171  38.448  15.943   5.553
 9891POPC   PO462172  38.487  15.987   5.853
 9891POPC   GL162173  38.479  15.950   6.153
 9891POPC   GL262174  38.358  16.036   6.153
 9891POPC   C1A62175  38.443  15.985   6.453
 9891POPC   D2A62176  38.431  15.917   6.753
 9891POPC   C3A62177  38.445  15.938   7.053
 9891POPC   C4A62178  38.464  16.002   7.353
 9891POPC   C1B62179  38.234  16.104   6.453
 9891POPC   C2B62180  38.183  16.033   6.753
 9891POPC   C3B62181  38.225  16.108   7.053
 9891POPC   C4B62182  38.235  16.102   7.353
 9892POPC   NC362183   3.513  22.160   5.553
 9892POPC   PO462184   3.528  22.143   5.853
 9892POPC   GL162185   3.516  22.189   6.153
 9892POPC   GL262186   3.660  22.168   6.153
 9892POPC   C1A62187   3.571  22.149   6.453
 9892POPC   D2A62188   3.514  22.173   6.753
 9892POPC   C3A62189   3.517  22.187   7.053
 9892POPC   C4A62190   3.545  22.143   7.353
 9892POPC   C1B62191   3.812  22.257   6.453
 9892POPC   C2B62192   3.734  22.216   6.753
 9892POPC   C3B62193   3.816  22.275   7.053
 9892POPC   C4B62194   3.735  22.230   7.353
 9893POPC   NC362195  11.253   8.234   5.553
 9893POPC   PO462196  11.329   8.150   5.853
 9893POPC   GL162197  11.342   8.152   6.153
 9893POPC   GL262198  11.427   8.149   6.153
 9893POPC   C1A62199  11.251   8.235   6.453
 9893POPC   D2A62200  11.303   8.169   6.753
 9893POPC   C3A62201  11.289   8.166   7.053
 9893POPC   C4A62202  11.251   8.186   7.353
 9893POPC   C1B62203  11.545   8.050   6.453
 9893POPC   C2B62204  11.541   8.009   6.753
 9893POPC   C3B62205  11.544   8.041   7.053
 9893POPC   C4B62206  11.453   8.073   7.353
 9894POPC   NC362207   6.600  17.529   5.553
 9894POPC   PO462208   6.620  17.531   5.853
 9894POPC   GL162209   6.607  17.525   6.153
 9894POPC   GL262210   6.746  17.606   6.153
 9894POPC   C1A62211   6.673  17.487   6.453
 9894POPC   D2A62212   6.692  17.550   6.753
 9894POPC   C3A62213   6.670  17.486   7.053
 9894POPC   C4A62214   6.691  17.493   7.353
 9894POPC   C1B62215   6.784  17.650   6.453
 9894POPC   C2B62216   6.796  17.681   6.753
 9894POPC   C3B62217   6.792  17.653   7.053
 9894POPC   C4B62218   6.817  17.627   7.353
 9895POPC   NC362219  40.032  19.048   5.553
 9895POPC   PO462220  39.965  19.040   5.853
 9895POPC   GL162221  40.026  19.020   6.153
 9895POPC   GL262222  39.967  18.983   6.153
 9895POPC   C1A62223  40.044  19.034   6.453
 9895POPC   D2A62224  39.991  19.094   6.753
 9895POPC   C3A62225  40.036  19.103   7.053
 9895POPC   C4A62226  39.970  19.031   7.353
 9895POPC   C1B62227  39.925  18.776   6.453
 9895POPC   C2B62228  40.014  18.850   6.753
 9895POPC   C3B62229  39.959  18.787   7.053
 9895POPC   C4B62230  39.984  18.841   7.353
 9896POPC   NC362231  32.219  31.485   5.553
 9896POPC   PO462232  32.224  31.512   5.853
 9896POPC   GL162233  32.253  31.433   6.153
 9896POPC   GL262234  32.341  31.562   6.153
 9896POPC   C1A62235  32.236  31.518   6.453
 9896POPC   D2A62236  32.204  31.477   6.753
 9896POPC   C3A62237  32.287  31.429   7.053
 9896POPC   C4A62238  32.225  31.451   7.353
 9896POPC   C1B62239  32.458  31.566   6.453
 9896POPC   C2B62240  32.448  31.638   6.753
 9896POPC   C3B62241  32.425  31.569   7.053
 9896POPC   C4B62242  32.438  31.548   7.353
 9897POPC   NC362243  36.884  36.085   5.553
 9897POPC   PO462244  36.937  36.155   5.853
 9897POPC   GL162245  36.883  36.139   6.153
 9897POPC   GL262246  36.880  36.215   6.153
 9897POPC   C1A62247  36.911  36.096   6.453
 9897POPC   D2A62248  36.925  36.170   6.753
 9897POPC   C3A62249  36.914  36.151   7.053
 9897POPC   C4A62250  36.935  36.110   7.353
 9897POPC   C1B62251  36.789  36.362   6.453
 9897POPC   C2B62252  36.848  36.395   6.753
 9897POPC   C3B62253  36.835  36.356   7.053
 9897POPC   C4B62254  36.840  36.314   7.353
 9898POPC   NC362255  35.309  26.016   5.553
 9898POPC   PO462256  35.337  26.070   5.853
 9898POPC   GL162257  35.349  26.042   6.153
 9898POPC   GL262258  35.427  26.175   6.153
 9898POPC   C1A62259  35.319  26.033   6.453
 9898POPC   D2A62260  35.355  25.993   6.753
 9898POPC   C3A62261  35.373  26.015   7.053
 9898POPC   C4A62262  35.386  26.016   7.353
 9898POPC   C1B62263  35.402  26.282   6.453
 9898POPC   C2B62264  35.486  26.285   6.753
 9898POPC   C3B62265  35.419  26.257   7.053
 9898POPC   C4B62266  35.404  26.281   7.353
 9899POPC   NC362267  44.676  35.352   5.553
 9899POPC   PO462268  44.678  35.400   5.853
 9899POPC   GL162269  44.697  35.320   6.153
 9899POPC   GL262270  44.640  35.436   6.153
 9899POPC   C1A62271  44.692  35.369   6.453
 9899POPC   D2A62272  44.686  35.384   6.753
 9899POPC   C3A62273  44.699  35.363   7.053
 9899POPC   C4A62274  44.635  35.341   7.353
 9899POPC   C1B62275  44.629  35.599   6.453
 9899POPC   C2B62276  44.650  35.610   6.753
 9899POPC   C3B62277  44.598  35.614   7.053
 9899POPC   C4B62278  44.652  35.620   7.353
 9900POPC   NC362279  16.724  19.801   5.553
 9900POPC   PO462280  16.778  19.819   5.853
 9900POPC   GL162281  16.689  19.856   6.153
 9900POPC   GL262282  16.712  19.917   6.153
 9900POPC   C1A62283  16.755  19.849   6.453
 9900POPC   D2A62284  16.745  19.790   6.753
 9900POPC   C3A62285  16.737  19.876   7.053
 9900POPC   C4A62286  16.754  19.824   7.353
 9900POPC   C1B62287  16.754  20.076   6.453
 9900POPC   C2B62288  16.730  20.037   6.753
 9900POPC   C3B62289  16.750  20.129   7.053
 9900POPC   C4B62290  16.753  20.068   7.353
 9901POPC   NC362291  36.924  36.895   5.553
 9901POPC   PO462292  36.908  36.918   5.853
 9901POPC   GL162293  36.920  36.930   6.153
 9901POPC   GL262294  37.044  36.970   6.153
 9901POPC   C1A62295  36.886  36.859   6.453
 9901POPC   D2A62296  36.906  36.871   6.753
 9901POPC   C3A62297  36.946  36.946   7.053
 9901POPC   C4A62298  36.931  36.857   7.353
 9901POPC   C1B62299  37.111  37.038   6.453
 9901POPC   C2B62300  37.166  37.020   6.753
 9901POPC   C3B62301  37.097  37.048   7.053
 9901POPC   C4B62302  37.127  37.057   7.353
 9902POPC   NC362303  40.048  36.091   5.553
 9902POPC   PO462304  40.043  36.173   5.853
 9902POPC   GL162305  40.026  36.142   6.153
 9902POPC   GL262306  39.997  35.969   6.153
 9902POPC   C1A62307  39.982  36.113   6.453
 9902POPC   D2A62308  39.962  36.097   6.753
 9902POPC   C3A62309  40.055  36.121   7.053
 9902POPC   C4A62310  40.039  36.135   7.353
 9902POPC   C1B62311  39.938  35.948   6.453
 9902POPC   C2B62312  39.950  35.890   6.753
 9902POPC   C3B62313  39.954  35.908   7.053
 9902POPC   C4B62314  39.906  35.869   7.353
 9903POPC   NC362315  33.829  18.308   5.553
 9903POPC   PO462316  33.814  18.289   5.853
 9903POPC   GL162317  33.805  18.240   6.153
 9903POPC   GL262318  33.836  18.377   6.153
 9903POPC   C1A62319  33.819  18.315   6.453
 9903POPC   D2A62320  33.837  18.283   6.753
 9903POPC   C3A62321  33.801  18.250   7.053
 9903POPC   C4A62322  33.782  18.259   7.353
 9903POPC   C1B62323  33.834  18.520   6.453
 9903POPC   C2B62324  33.825  18.571   6.753
 9903POPC   C3B62325  33.785  18.542   7.053
 9903POPC   C4B62326  33.828  18.516   7.353
 9904POPC   NC362327  37.694  19.040   5.553
 9904POPC   PO462328  37.658  19.105   5.853
 9904POPC   GL162329  37.696  19.056   6.153
 9904POPC   GL262330  37.737  18.908   6.153
 9904POPC   C1A62331  37.723  19.088   6.453
 9904POPC   D2A62332  37.694  19.016   6.753
 9904POPC   C3A62333  37.713  19.099   7.053
 9904POPC   C4A62334  37.680  19.081   7.353
 9904POPC   C1B62335  37.821  18.791   6.453
 9904POPC   C2B62336  37.784  18.878   6.753
 9904POPC   C3B62337  37.810  18.866   7.053
 9904POPC   C4B62338  37.773  18.810   7.353
 9905POPC   NC362339  19.868   0.462   5.553
 9905POPC   PO462340  19.844   0.486   5.853
 9905POPC   GL162341  19.838   0.463   6.153
 9905POPC   GL262342  19.712   0.442   6.153
 9905POPC   C1A62343  19.804   0.401   6.453
 9905POPC   D2A62344  19.878   0.449   6.753
 9905POPC   C3A62345  19.788   0.456   7.053
 9905POPC   C4A62346  19.818   0.465   7.353
 9905POPC   C1B62347  19.580   0.453   6.453
 9905POPC   C2B62348  19.562   0.424   6.753
 9905POPC   C3B62349  19.635   0.403   7.053
 9905POPC   C4B62350  19.573   0.367   7.353
 9906POPC   NC362351   7.461  43.926   5.553
 9906POPC   PO462352   7.398  43.870   5.853
 9906POPC   GL162353   7.453  43.906   6.153
 9906POPC   GL262354   7.341  43.996   6.153
 9906POPC   C1A62355   7.458  43.907   6.453
 9906POPC   D2A62356   7.466  43.922   6.753
 9906POPC   C3A62357   7.409  43.887   7.053
 9906POPC   C4A62358   7.379  43.872   7.353
 9906POPC   C1B62359   7.219  44.086   6.453
 9906POPC   C2B62360   7.236  44.118   6.753
 9906POPC   C3B62361   7.286  44.089   7.053
 9906POPC   C4B62362   7.303  44.092   7.353
 9907POPC   NC362363   1.234  31.508   5.553
 9907POPC   PO462364   1.187  31.471   5.853
 9907POPC   GL162365   1.204  31.494   6.153
 9907POPC   GL262366   1.208  31.600   6.153
 9907POPC   C1A62367   1.207  31.440   6.453
 9907POPC   D2A62368   1.200  31.440   6.753
 9907POPC   C3A62369   1.244  31.481   7.053
 9907POPC   C4A62370   1.258  31.500   7.353
 9907POPC   C1B62371   1.332  31.707   6.453
 9907POPC   C2B62372   1.273  31.746   6.753
 9907POPC   C3B62373   1.334  31.733   7.053
 9907POPC   C4B62374   1.315  31.738   7.353
 9908POPC   NC362375  33.062  16.742   5.553
 9908POPC   PO462376  33.000  16.695   5.853
 9908POPC   GL162377  33.034  16.762   6.153
 9908POPC   GL262378  33.044  16.900   6.153
 9908POPC   C1A62379  33.008  16.714   6.453
 9908POPC   D2A62380  33.071  16.766   6.753
 9908POPC   C3A62381  33.008  16.683   7.053
 9908POPC   C4A62382  33.058  16.746   7.353
 9908POPC   C1B62383  33.080  16.984   6.453
 9908POPC   C2B62384  33.104  16.994   6.753
 9908POPC   C3B62385  33.041  16.951   7.053
 9908POPC   C4B62386  33.063  16.974   7.353
 9909POPC   NC362387  12.077  25.280   5.553
 9909POPC   PO462388  12.061  25.228   5.853
 9909POPC   GL162389  12.040  25.255   6.153
 9909POPC   GL262390  12.141  25.098   6.153
 9909POPC   C1A62391  12.043  25.313   6.453
 9909POPC   D2A62392  12.043  25.290   6.753
 9909POPC   C3A62393  12.031  25.254   7.053
 9909POPC   C4A62394  12.052  25.301   7.353
 9909POPC   C1B62395  12.169  25.035   6.453
 9909POPC   C2B62396  12.106  24.979   6.753
 9909POPC   C3B62397  12.099  25.060   7.053
 9909POPC   C4B62398  12.162  25.057   7.353
 9910POPC   NC362399  34.620  17.476   5.553
 9910POPC   PO462400  34.609  17.501   5.853
 9910POPC   GL162401  34.572  17.504   6.153
 9910POPC   GL262402  34.582  17.645   6.153
 9910POPC   C1A62403  34.577  17.468   6.453
 9910POPC   D2A62404  34.553  17.488   6.753
 9910POPC   C3A62405  34.626  17.525   7.053
 9910POPC   C4A62406  34.555  17.539   7.353
 9910POPC   C1B62407  34.593  17.730   6.453
 9910POPC   C2B62408  34.631  17.747   6.753
 9910POPC   C3B62409  34.604  17.754   7.053
 9910POPC   C4B62410  34.623  17.780   7.353
 9911POPC   NC362411  23.719  36.114   5.553
 9911POPC   PO462412  23.709  36.103   5.853
 9911POPC   GL162413  23.715  36.100   6.153
 9911POPC   GL262414  23.748  36.052   6.153
 9911POPC   C1A62415  23.714  36.125   6.453
 9911POPC   D2A62416  23.692  36.172   6.753
 9911POPC   C3A62417  23.681  36.094   7.053
 9911POPC   C4A62418  23.738  36.155   7.353
 9911POPC   C1B62419  23.696  35.918   6.453
 9911POPC   C2B62420  23.672  35.888   6.753
 9911POPC   C3B62421  23.654  35.850   7.053
 9911POPC   C4B62422  23.694  35.912   7.353
 9912POPC   NC362423  31.430  38.424   5.553
 9912POPC   PO462424  31.430  38.410   5.853
 9912POPC   GL162425  31.486  38.454   6.153
 9912POPC   GL262426  31.406  38.299   6.153
 9912POPC   C1A62427  31.511  38.461   6.453
 9912POPC   D2A62428  31.509  38.408   6.753
 9912POPC   C3A62429  31.425  38.492   7.053
 9912POPC   C4A62430  31.430  38.452   7.353
 9912POPC   C1B62431  31.368  38.209   6.453
 9912POPC   C2B62432  31.423  38.258   6.753
 9912POPC   C3B62433  31.375  38.195   7.053
 9912POPC   C4B62434  31.419  38.237   7.353
 9913POPC   NC362435   2.732  18.291   5.553
 9913POPC   PO462436   2.735  18.305   5.853
 9913POPC   GL162437   2.769  18.255   6.153
 9913POPC   GL262438   2.772  18.411   6.153
 9913POPC   C1A62439   2.732  18.312   6.453
 9913POPC   D2A62440   2.738  18.259   6.753
 9913POPC   C3A62441   2.808  18.316   7.053
 9913POPC   C4A62442   2.723  18.309   7.353
 9913POPC   C1B62443   2.803  18.573   6.453
 9913POPC   C2B62444   2.785  18.568   6.753
 9913POPC   C3B62445   2.837  18.490   7.053
 9913POPC   C4B62446   2.785  18.518   7.353
 9914POPC   NC362447  23.676  13.666   5.553
 9914POPC   PO462448  23.676  13.656   5.853
 9914POPC   GL162449  23.760  13.616   6.153
 9914POPC   GL262450  23.866  13.688   6.153
 9914POPC   C1A62451  23.707  13.610   6.453
 9914POPC   D2A62452  23.759  13.604   6.753
 9914POPC   C3A62453  23.715  13.594   7.053
 9914POPC   C4A62454  23.739  13.606   7.353
 9914POPC   C1B62455  23.899  13.743   6.453
 9914POPC   C2B62456  23.929  13.749   6.753
 9914POPC   C3B62457  23.959  13.773   7.053
 9914POPC   C4B62458  23.972  13.711   7.353
 9915POPC   NC362459  15.143  32.278   5.553
 9915POPC   PO462460  15.216  32.276   5.853
 9915POPC   GL162461  15.156  32.252   6.153
 9915POPC   GL262462  15.339  32.197   6.153
 9915POPC   C1A62463  15.185  32.298   6.453
 9915POPC   D2A62464  15.151  32.289   6.753
 9915POPC   C3A62465  15.201  32.275   7.053
 9915POPC   C4A62466  15.131  32.207   7.353
 9915POPC   C1B62467  15.413  32.247   6.453
 9915POPC   C2B62468  15.422  32.176   6.753
 9915POPC   C3B62469  15.387  32.197   7.053
 9915POPC   C4B62470  15.402  32.259   7.353
 9916POPC   NC362471  41.596  29.950   5.553
 9916POPC   PO462472  41.583  29.940   5.853
 9916POPC   GL162473  41.540  29.943   6.153
 9916POPC   GL262474  41.458  29.845   6.153
 9916POPC   C1A62475  41.575  29.926   6.453
 9916POPC   D2A62476  41.533  29.906   6.753
 9916POPC   C3A62477  41.523  29.891   7.053
 9916POPC   C4A62478  41.548  29.970   7.353
 9916POPC   C1B62479  41.407  29.803   6.453
 9916POPC   C2B62480  41.329  29.786   6.753
 9916POPC   C3B62481  41.401  29.750   7.053
 9916POPC   C4B62482  41.346  29.729   7.353
 9917POPC   NC362483   5.135  16.736   5.553
 9917POPC   PO462484   5.143  16.773   5.853
 9917POPC   GL162485   5.096  16.682   6.153
 9917POPC   GL262486   5.124  16.595   6.153
 9917POPC   C1A62487   5.075  16.733   6.453
 9917POPC   D2A62488   5.068  16.695   6.753
 9917POPC   C3A62489   5.123  16.768   7.053
 9917POPC   C4A62490   5.140  16.773   7.353
 9917POPC   C1B62491   5.222  16.480   6.453
 9917POPC   C2B62492   5.218  16.467   6.753
 9917POPC   C3B62493   5.201  16.512   7.053
 9917POPC   C4B62494   5.234  16.555   7.353
 9918POPC   NC362495  34.582  40.779   5.553
 9918POPC   PO462496  34.570  40.767   5.853
 9918POPC   GL162497  34.618  40.815   6.153
 9918POPC   GL262498  34.485  40.776   6.153
 9918POPC   C1A62499  34.608  40.793   6.453
 9918POPC   D2A62500  34.575  40.812   6.753
 9918POPC   C3A62501  34.554  40.795   7.053
 9918POPC   C4A62502  34.527  40.746   7.353
 9918POPC   C1B62503  34.304  40.812   6.453
 9918POPC   C2B62504  34.311  40.858   6.753
 9918POPC   C3B62505  34.318  40.895   7.053
 9918POPC   C4B62506  34.367  40.855   7.353
 9919POPC   NC362507  29.920  29.927   5.553
 9919POPC   PO462508  29.952  29.950   5.853
 9919POPC   GL162509  29.933  29.935   6.153
 9919POPC   GL262510  29.920  30.037   6.153
 9919POPC   C1A62511  29.894  29.951   6.453
 9919POPC   D2A62512  29.969  29.968   6.753
 9919POPC   C3A62513  29.947  29.939   7.053
 9919POPC   C4A62514  29.939  29.889   7.353
 9919POPC   C1B62515  29.942  30.197   6.453
 9919POPC   C2B62516  29.957  30.200   6.753
 9919POPC   C3B62517  30.024  30.178   7.053
 9919POPC   C4B62518  30.002  30.154   7.353
 9920POPC   NC362519  20.651  44.710   5.553
 9920POPC   PO462520  20.601  44.623   5.853
 9920POPC   GL162521  20.598  44.655   6.153
 9920POPC   GL262522  20.557  44.590   6.153
 9920POPC   C1A62523  20.659  44.629   6.453
 9920POPC   D2A62524  20.628  44.616   6.753
 9920POPC   C3A62525  20.648  44.649   7.053
 9920POPC   C4A62526  20.640  44.697   7.353
 9920POPC   C1B62527  20.483  44.430   6.453
 9920POPC   C2B62528  20.402  44.490   6.753
 9920POPC   C3B62529  20.390  44.479   7.053
 9920POPC   C4B62530  20.391  44.446   7.353
 9921POPC   NC362531   6.659  12.819   5.553
 9921POPC   PO462532   6.627  12.860   5.853
 9921POPC   GL162533   6.630  12.830   6.153
 9921POPC   GL262534   6.533  12.786   6.153
 9921POPC   C1A62535   6.660  12.840   6.453
 9921POPC   D2A62536   6.649  12.855   6.753
 9921POPC   C3A62537   6.666  12.805   7.053
 9921POPC   C4A62538   6.597  12.879   7.353
 9921POPC   C1B62539   6.448  12.824   6.453
 9921POPC   C2B62540   6.415  12.809   6.753
 9921POPC   C3B62541   6.442  12.767   7.053
 9921POPC   C4B62542   6.454  12.764   7.353
 9922POPC   NC362543  43.094   6.665   5.553
 9922POPC   PO462544  43.119   6.611   5.853
 9922POPC   GL162545  43.137   6.649   6.153
 9922POPC   GL262546  43.264   6.568   6.153
 9922POPC   C1A62547  43.082   6.688   6.453
 9922POPC   D2A62548  43.157   6.676   6.753
 9922POPC   C3A62549  43.063   6.641   7.053
 9922POPC   C4A62550  43.147   6.630   7.353
 9922POPC   C1B62551  43.289   6.472   6.453
 9922POPC   C2B62552  43.346   6.504   6.753
 9922POPC   C3B62553  43.356   6.486   7.053
 9922POPC   C4B62554  43.312   6.543   7.353
 9923POPC   NC362555  39.188  12.091   5.553
 9923POPC   PO462556  39.222  12.125   5.853
 9923POPC   GL162557  39.230  12.033   6.153
 9923POPC   GL262558  39.351  12.123   6.153
 9923POPC   C1A62559  39.187  12.102   6.453
 9923POPC   D2A62560  39.205  12.070   6.753
 9923POPC   C3A62561  39.246  12.089   7.053
 9923POPC   C4A62562  39.254  12.103   7.353
 9923POPC   C1B62563  39.441  12.170   6.453
 9923POPC   C2B62564  39.515  12.154   6.753
 9923POPC   C3B62565  39.492  12.131   7.053
 9923POPC   C4B62566  39.477  12.140   7.353
 9924POPC   NC362567   4.278  42.310   5.553
 9924POPC   PO462568   4.337  42.379   5.853
 9924POPC   GL162569   4.332  42.327   6.153
 9924POPC   GL262570   4.440  42.337   6.153
 9924POPC   C1A62571   4.279  42.354   6.453
 9924POPC   D2A62572   4.344  42.338   6.753
 9924POPC   C3A62573   4.279  42.331   7.053
 9924POPC   C4A62574   4.316  42.342   7.353
 9924POPC   C1B62575   4.521  42.324   6.453
 9924POPC   C2B62576   4.551  42.372   6.753
 9924POPC   C3B62577   4.545  42.391   7.053
 9924POPC   C4B62578   4.530  42.337   7.353
 9925POPC   NC362579  44.633  33.829   5.553
 9925POPC   PO462580  44.708  33.850   5.853
 9925POPC   GL162581  44.711  33.845   6.153
 9925POPC   GL262582  44.713  33.716   6.153
 9925POPC   C1A62583  44.708  33.750   6.453
 9925POPC   D2A62584  44.691  33.844   6.753
 9925POPC   C3A62585  44.693  33.753   7.053
 9925POPC   C4A62586  44.629  33.810   7.353
 9925POPC   C1B62587  44.682  33.528   6.453
 9925POPC   C2B62588  44.728  33.576   6.753
 9925POPC   C3B62589  44.670  33.559   7.053
 9925POPC   C4B62590  44.712  33.605   7.353
 9926POPC   NC362591  23.679   4.311   5.553
 9926POPC   PO462592  23.689   4.360   5.853
 9926POPC   GL162593  23.710   4.330   6.153
 9926POPC   GL262594  23.579   4.377   6.153
 9926POPC   C1A62595  23.763   4.277   6.453
 9926POPC   D2A62596  23.743   4.323   6.753
 9926POPC   C3A62597  23.747   4.356   7.053
 9926POPC   C4A62598  23.703   4.339   7.353
 9926POPC   C1B62599  23.481   4.497   6.453
 9926POPC   C2B62600  23.518   4.503   6.753
 9926POPC   C3B62601  23.533   4.461   7.053
 9926POPC   C4B62602  23.473   4.489   7.353
 9927POPC   NC362603  24.508  41.521   5.553
 9927POPC   PO462604  24.479  41.592   5.853
 9927POPC   GL162605  24.489  41.546   6.153
 9927POPC   GL262606  24.352  41.488   6.153
 9927POPC   C1A62607  24.465  41.563   6.453
 9927POPC   D2A62608  24.489  41.595   6.753
 9927POPC   C3A62609  24.536  41.518   7.053
 9927POPC   C4A62610  24.450  41.512   7.353
 9927POPC   C1B62611  24.297  41.474   6.453
 9927POPC   C2B62612  24.286  41.457   6.753
 9927POPC   C3B62613  24.235  41.376   7.053
 9927POPC   C4B62614  24.277  41.423   7.353
 9928POPC   NC362615  26.792  18.327   5.553
 9928POPC   PO462616  26.858  18.292   5.853
 9928POPC   GL162617  26.786  18.282   6.153
 9928POPC   GL262618  26.985  18.296   6.153
 9928POPC   C1A62619  26.860  18.267   6.453
 9928POPC   D2A62620  26.770  18.327   6.753
 9928POPC   C3A62621  26.812  18.255   7.053
 9928POPC   C4A62622  26.838  18.268   7.353
 9928POPC   C1B62623  27.035  18.275   6.453
 9928POPC   C2B62624  27.056  18.276   6.753
 9928POPC   C3B62625  27.066  18.332   7.053
 9928POPC   C4B62626  27.017  18.254   7.353
 9929POPC   NC362627  12.861  10.535   5.553
 9929POPC   PO462628  12.810  10.534   5.853
 9929POPC   GL162629  12.876  10.561   6.153
 9929POPC   GL262630  12.952  10.554   6.153
 9929POPC   C1A62631  12.814  10.546   6.453
 9929POPC   D2A62632  12.894  10.527   6.753
 9929POPC   C3A62633  12.886  10.556   7.053
 9929POPC   C4A62634  12.829  10.529   7.353
 9929POPC   C1B62635  13.089  10.534   6.453
 9929POPC   C2B62636  13.089  10.590   6.753
 9929POPC   C3B62637  13.096  10.606   7.053
 9929POPC   C4B62638  13.123  10.539   7.353
 9930POPC   NC362639  33.766  16.683   5.553
 9930POPC   PO462640  33.826  16.696   5.853
 9930POPC   GL162641  33.773  16.721   6.153
 9930POPC   GL262642  33.717  16.830   6.153
 9930POPC   C1A62643  33.755  16.761   6.453
 9930POPC   D2A62644  33.758  16.707   6.753
 9930POPC   C3A62645  33.772  16.766   7.053
 9930POPC   C4A62646  33.831  16.744   7.353
 9930POPC   C1B62647  33.629  16.937   6.453
 9930POPC   C2B62648  33.654  16.883   6.753
 9930POPC   C3B62649  33.617  16.869   7.053
 9930POPC   C4B62650  33.627  16.934   7.353
 9931POPC   NC362651   2.815  34.568   5.553
 9931POPC   PO462652   2.808  34.606   5.853
 9931POPC   GL162653   2.786  34.581   6.153
 9931POPC   GL262654   2.643  34.451   6.153
 9931POPC   C1A62655   2.757  34.528   6.453
 9931POPC   D2A62656   2.775  34.560   6.753
 9931POPC   C3A62657   2.788  34.584   7.053
 9931POPC   C4A62658   2.746  34.556   7.353
 9931POPC   C1B62659   2.602  34.371   6.453
 9931POPC   C2B62660   2.580  34.436   6.753
 9931POPC   C3B62661   2.570  34.359   7.053
 9931POPC   C4B62662   2.604  34.389   7.353
 9932POPC   NC362663  41.528  36.080   5.553
 9932POPC   PO462664  41.572  36.085   5.853
 9932POPC   GL162665  41.536  36.106   6.153
 9932POPC   GL262666  41.486  36.031   6.153
 9932POPC   C1A62667  41.550  36.171   6.453
 9932POPC   D2A62668  41.607  36.169   6.753
 9932POPC   C3A62669  41.533  36.167   7.053
 9932POPC   C4A62670  41.573  36.128   7.353
 9932POPC   C1B62671  41.440  35.948   6.453
 9932POPC   C2B62672  41.479  35.909   6.753
 9932POPC   C3B62673  41.475  35.889   7.053
 9932POPC   C4B62674  41.401  35.930   7.353
 9933POPC   NC362675   2.754  14.362   5.553
 9933POPC   PO462676   2.759  14.370   5.853
 9933POPC   GL162677   2.717  14.413   6.153
 9933POPC   GL262678   2.654  14.374   6.153
 9933POPC   C1A62679   2.721  14.442   6.453
 9933POPC   D2A62680   2.756  14.386   6.753
 9933POPC   C3A62681   2.759  14.354   7.053
 9933POPC   C4A62682   2.760  14.393   7.353
 9933POPC   C1B62683   2.538  14.214   6.453
 9933POPC   C2B62684   2.581  14.283   6.753
 9933POPC   C3B62685   2.562  14.229   7.053
 9933POPC   C4B62686   2.576  14.261   7.353
 9934POPC   NC362687  40.774  44.627   5.553
 9934POPC   PO462688  40.748  44.679   5.853
 9934POPC   GL162689  40.738  44.634   6.153
 9934POPC   GL262690  40.829  44.526   6.153
 9934POPC   C1A62691  40.744  44.612   6.453
 9934POPC   D2A62692  40.822  44.651   6.753
 9934POPC   C3A62693  40.793  44.692   7.053
 9934POPC   C4A62694  40.822  44.655   7.353
 9934POPC   C1B62695  40.809  44.402   6.453
 9934POPC   C2B62696  40.806  44.460   6.753
 9934POPC   C3B62697  40.839  44.443   7.053
 9934POPC   C4B62698  40.829  44.435   7.353
 9935POPC   NC362699  41.578  33.015   5.553
 9935POPC   PO462700  41.588  33.037   5.853
 9935POPC   GL162701  41.602  33.067   6.153
 9935POPC   GL262702  41.522  33.138   6.153
 9935POPC   C1A62703  41.521  33.056   6.453
 9935POPC   D2A62704  41.519  33.039   6.753
 9935POPC   C3A62705  41.524  33.035   7.053
 9935POPC   C4A62706  41.539  33.054   7.353
 9935POPC   C1B62707  41.494  33.279   6.453
 9935POPC   C2B62708  41.494  33.266   6.753
 9935POPC   C3B62709  41.548  33.256   7.053
 9935POPC   C4B62710  41.516  33.263   7.353
 9936POPC   NC362711  39.973   5.081   5.553
 9936POPC   PO462712  40.002   5.075   5.853
 9936POPC   GL162713  39.960   5.078   6.153
 9936POPC   GL262714  39.968   5.252   6.153
 9936POPC   C1A62715  40.045   5.103   6.453
 9936POPC   D2A62716  39.976   5.107   6.753
 9936POPC   C3A62717  39.960   5.083   7.053
 9936POPC   C4A62718  40.017   5.093   7.353
 9936POPC   C1B62719  39.985   5.307   6.453
 9936POPC   C2B62720  39.994   5.385   6.753
 9936POPC   C3B62721  39.937   5.314   7.053
 9936POPC   C4B62722  39.961   5.334   7.353
 9937POPC   NC362723  43.885  12.113   5.553
 9937POPC   PO462724  43.871  12.055   5.853
 9937POPC   GL162725  43.872  12.055   6.153
 9937POPC   GL262726  43.807  12.177   6.153
 9937POPC   C1A62727  43.898  12.085   6.453
 9937POPC   D2A62728  43.912  12.073   6.753
 9937POPC   C3A62729  43.904  12.094   7.053
 9937POPC   C4A62730  43.846  12.032   7.353
 9937POPC   C1B62731  43.712  12.298   6.453
 9937POPC   C2B62732  43.701  12.228   6.753
 9937POPC   C3B62733  43.758  12.292   7.053
 9937POPC   C4B62734  43.763  12.262   7.353
 9938POPC   NC362735  29.132  37.727   5.553
 9938POPC   PO462736  29.105  37.683   5.853
 9938POPC   GL162737  29.193  37.717   6.153
 9938POPC   GL262738  29.235  37.762   6.153
 9938POPC   C1A62739  29.144  37.717   6.453
 9938POPC   D2A62740  29.146  37.676   6.753
 9938POPC   C3A62741  29.137  37.708   7.053
 9938POPC   C4A62742  29.115  37.653   7.353
 9938POPC   C1B62743  29.249  37.940   6.453
 9938POPC   C2B62744  29.256  37.855   6.753
 9938POPC   C3B62745  29.236  37.943   7.053
 9938POPC   C4B62746  29.285  37.946   7.353
 9939POPC   NC362747   1.214  33.005   5.553
 9939POPC   PO462748   1.250  32.993   5.853
 9939POPC   GL162749   1.254  32.979   6.153
 9939POPC   GL262750   1.196  32.943   6.153
 9939POPC   C1A62751   1.208  33.058   6.453
 9939POPC   D2A62752   1.191  32.989   6.753
 9939POPC   C3A62753   1.256  33.005   7.053
 9939POPC   C4A62754   1.230  33.000   7.353
 9939POPC   C1B62755   1.225  32.824   6.453
 9939POPC   C2B62756   1.215  32.819   6.753
 9939POPC   C3B62757   1.262  32.761   7.053
 9939POPC   C4B62758   1.246  32.748   7.353
 9940POPC   NC362759  25.246  12.869   5.553
 9940POPC   PO462760  25.217  12.882   5.853
 9940POPC   GL162761  25.306  12.855   6.153
 9940POPC   GL262762  25.100  12.876   6.153
 9940POPC   C1A62763  25.243  12.886   6.453
 9940POPC   D2A62764  25.293  12.901   6.753
 9940POPC   C3A62765  25.283  12.847   7.053
 9940POPC   C4A62766  25.240  12.901   7.353
 9940POPC   C1B62767  24.999  12.787   6.453
 9940POPC   C2B62768  24.983  12.864   6.753
 9940POPC   C3B62769  25.043  12.796   7.053
 9940POPC   C4B62770  25.022  12.861   7.353
 9941POPC   NC362771  31.463  39.982   5.553
 9941POPC   PO462772  31.492  40.009   5.853
 9941POPC   GL162773  31.461  39.984   6.153
 9941POPC   GL262774  31.530  40.086   6.153
 9941POPC   C1A62775  31.451  39.962   6.453
 9941POPC   D2A62776  31.517  39.996   6.753
 9941POPC   C3A62777  31.474  39.982   7.053
 9941POPC   C4A62778  31.502  39.970   7.353
 9941POPC   C1B62779  31.577  40.244   6.453
 9941POPC   C2B62780  31.597  40.222   6.753
 9941POPC   C3B62781  31.572  40.184   7.053
 9941POPC   C4B62782  31.584  40.260   7.353
 9942POPC   NC362783  44.673  43.084   5.553
 9942POPC   PO462784  44.619  43.137   5.853
 9942POPC   GL162785  44.700  43.118   6.153
 9942POPC   GL262786  44.648  42.949   6.153
 9942POPC   C1A62787  44.674  43.126   6.453
 9942POPC   D2A62788  44.672  43.113   6.753
 9942POPC   C3A62789  44.666  43.143   7.053
 9942POPC   C4A62790  44.651  43.144   7.353
 9942POPC   C1B62791  44.667  42.906   6.453
 9942POPC   C2B62792  44.681  42.884   6.753
 9942POPC   C3B62793  44.638  42.858   7.053
 9942POPC   C4B62794  44.677  42.823   7.353
 9943POPC   NC362795  19.056  33.061   5.553
 9943POPC   PO462796  19.056  33.039   5.853
 9943POPC   GL162797  19.075  33.014   6.153
 9943POPC   GL262798  19.020  33.178   6.153
 9943POPC   C1A62799  19.032  33.007   6.453
 9943POPC   D2A62800  19.052  33.062   6.753
 9943POPC   C3A62801  19.038  33.072   7.053
 9943POPC   C4A62802  19.084  33.064   7.353
 9943POPC   C1B62803  18.945  33.283   6.453
 9943POPC   C2B62804  18.970  33.206   6.753
 9943POPC   C3B62805  18.973  33.257   7.053
 9943POPC   C4B62806  18.953  33.229   7.353
 9944POPC   NC362807  33.795  29.958   5.553
 9944POPC   PO462808  33.806  29.908   5.853
 9944POPC   GL162809  33.770  29.913   6.153
 9944POPC   GL262810  33.738  29.831   6.153
 9944POPC   C1A62811  33.767  29.899   6.453
 9944POPC   D2A62812  33.764  29.887   6.753
 9944POPC   C3A62813  33.799  29.956   7.053
 9944POPC   C4A62814  33.807  29.919   7.353
 9944POPC   C1B62815  33.783  29.679   6.453
 9944POPC   C2B62816  33.807  29.654   6.753
 9944POPC   C3B62817  33.745  29.693   7.053
 9944POPC   C4B62818  33.732  29.707   7.353
 9945POPC   NC362819  40.772   0.434   5.553
 9945POPC   PO462820  40.787   0.426   5.853
 9945POPC   GL162821  40.805   0.468   6.153
 9945POPC   GL262822  40.657   0.409   6.153
 9945POPC   C1A62823  40.792   0.388   6.453
 9945POPC   D2A62824  40.794   0.421   6.753
 9945POPC   C3A62825  40.735   0.401   7.053
 9945POPC   C4A62826  40.759   0.449   7.353
 9945POPC   C1B62827  40.555   0.370   6.453
 9945POPC   C2B62828  40.584   0.368   6.753
 9945POPC   C3B62829  40.553   0.333   7.053
 9945POPC   C4B62830  40.521   0.353   7.353
 9946POPC   NC362831   2.022   9.699   5.553
 9946POPC   PO462832   2.026   9.794   5.853
 9946POPC   GL162833   1.997   9.728   6.153
 9946POPC   GL262834   1.916   9.723   6.153
 9946POPC   C1A62835   1.969   9.720   6.453
 9946POPC   D2A62836   1.966   9.723   6.753
 9946POPC   C3A62837   1.975   9.798   7.053
 9946POPC   C4A62838   1.960   9.737   7.353
 9946POPC   C1B62839   1.782   9.627   6.453
 9946POPC   C2B62840   1.794   9.638   6.753
 9946POPC   C3B62841   1.754   9.679   7.053
 9946POPC   C4B62842   1.817   9.676   7.353
 9947POPC   NC362843  40.022  15.202   5.553
 9947POPC   PO462844  40.023  15.145   5.853
 9947POPC   GL162845  39.988  15.147   6.153
 9947POPC   GL262846  40.034  15.287   6.153
 9947POPC   C1A62847  40.053  15.180   6.453
 9947POPC   D2A62848  40.053  15.161   6.753
 9947POPC   C3A62849  40.004  15.194   7.053
 9947POPC   C4A62850  39.993  15.137   7.353
 9947POPC   C1B62851  40.011  15.469   6.453
 9947POPC   C2B62852  40.065  15.426   6.753
 9947POPC   C3B62853  40.000  15.386   7.053
 9947POPC   C4B62854  39.973  15.436   7.353
 9948POPC   NC362855  25.250  31.475   5.553
 9948POPC   PO462856  25.253  31.512   5.853
 9948POPC   GL162857  25.270  31.502   6.153
 9948POPC   GL262858  25.149  31.468   6.153
 9948POPC   C1A62859  25.239  31.423   6.453
 9948POPC   D2A62860  25.223  31.509   6.753
 9948POPC   C3A62861  25.222  31.459   7.053
 9948POPC   C4A62862  25.250  31.501   7.353
 9948POPC   C1B62863  25.052  31.364   6.453
 9948POPC   C2B62864  25.009  31.394   6.753
 9948POPC   C3B62865  25.071  31.434   7.053
 9948POPC   C4B62866  25.043  31.345   7.353
 9949POPC   NC362867  22.953  36.944   5.553
 9949POPC   PO462868  22.899  36.877   5.853
 9949POPC   GL162869  22.943  36.926   6.153
 9949POPC   GL262870  22.925  36.807   6.153
 9949POPC   C1A62871  22.980  36.896   6.453
 9949POPC   D2A62872  22.949  36.925   6.753
 9949POPC   C3A62873  22.974  36.938   7.053
 9949POPC   C4A62874  22.947  36.933   7.353
 9949POPC   C1B62875  22.959  36.609   6.453
 9949POPC   C2B62876  22.954  36.661   6.753
 9949POPC   C3B62877  22.918  36.636   7.053
 9949POPC   C4B62878  22.967  36.702   7.353
 9950POPC   NC362879  36.854   9.717   5.553
 9950POPC   PO462880  36.939   9.782   5.853
 9950POPC   GL162881  36.944   9.757   6.153
 9950POPC   GL262882  36.842   9.797   6.153
 9950POPC   C1A62883  36.931   9.783   6.453
 9950POPC   D2A62884  36.894   9.708   6.753
 9950POPC   C3A62885  36.938   9.735   7.053
 9950POPC   C4A62886  36.948   9.743   7.353
 9950POPC   C1B62887  36.649   9.895   6.453
 9950POPC   C2B62888  36.718   9.931   6.753
 9950POPC   C3B62889  36.662   9.874   7.053
 9950POPC   C4B62890  36.661   9.927   7.353
 9951POPC   NC362891  21.391  16.751   5.553
 9951POPC   PO462892  21.368  16.758   5.853
 9951POPC   GL162893  21.431  16.732   6.153
 9951POPC   GL262894  21.365  16.626   6.153
 9951POPC   C1A62895  21.399  16.695   6.453
 9951POPC   D2A62896  21.361  16.763   6.753
 9951POPC   C3A62897  21.376  16.731   7.053
 9951POPC   C4A62898  21.370  16.704   7.353
 9951POPC   C1B62899  21.290  16.498   6.453
 9951POPC   C2B62900  21.258  16.456   6.753
 9951POPC   C3B62901  21.273  16.540   7.053
 9951POPC   C4B62902  21.294  16.548   7.353
 9952POPC   NC362903  24.516  13.652   5.553
 9952POPC   PO462904  24.457  13.588   5.853
 9952POPC   GL162905  24.443  13.667   6.153
 9952POPC   GL262906  24.625  13.658   6.153
 9952POPC   C1A62907  24.536  13.649   6.453
 9952POPC   D2A62908  24.516  13.581   6.753
 9952POPC   C3A62909  24.527  13.669   7.053
 9952POPC   C4A62910  24.532  13.617   7.353
 9952POPC   C1B62911  24.748  13.736   6.453
 9952POPC   C2B62912  24.669  13.752   6.753
 9952POPC   C3B62913  24.664  13.718   7.053
 9952POPC   C4B62914  24.734  13.739   7.353
 9953POPC   NC362915  16.735   4.367   5.553
 9953POPC   PO462916  16.731   4.301   5.853
 9953POPC   GL162917  16.761   4.304   6.153
 9953POPC   GL262918  16.640   4.241   6.153
 9953POPC   C1A62919  16.749   4.363   6.453
 9953POPC   D2A62920  16.735   4.339   6.753
 9953POPC   C3A62921  16.718   4.320   7.053
 9953POPC   C4A62922  16.700   4.353   7.353
 9953POPC   C1B62923  16.496   4.175   6.453
 9953POPC   C2B62924  16.521   4.147   6.753
 9953POPC   C3B62925  16.545   4.150   7.053
 9953POPC   C4B62926  16.500   4.112   7.353
 9954POPC   NC362927   3.501  43.862   5.553
 9954POPC   PO462928   3.558  43.889   5.853
 9954POPC   GL162929   3.534  43.935   6.153
 9954POPC   GL262930   3.708  43.953   6.153
 9954POPC   C1A62931   3.515  43.918   6.453
 9954POPC   D2A62932   3.517  43.856   6.753
 9954POPC   C3A62933   3.541  43.846   7.053
 9954POPC   C4A62934   3.510  43.891   7.353
 9954POPC   C1B62935   3.777  43.927   6.453
 9954POPC   C2B62936   3.774  43.916   6.753
 9954POPC   C3B62937   3.765  43.945   7.053
 9954POPC   C4B62938   3.740  43.945   7.353
 9955POPC   NC362939  40.026   2.034   5.553
 9955POPC   PO462940  40.033   1.984   5.853
 9955POPC   GL162941  40.038   2.039   6.153
 9955POPC   GL262942  39.884   2.055   6.153
 9955POPC   C1A62943  39.984   1.950   6.453
 9955POPC   D2A62944  40.038   2.026   6.753
 9955POPC   C3A62945  40.030   1.953   7.053
 9955POPC   C4A62946  40.021   2.023   7.353
 9955POPC   C1B62947  39.773   2.159   6.453
 9955POPC   C2B62948  39.796   2.113   6.753
 9955POPC   C3B62949  39.792   2.134   7.053
 9955POPC   C4B62950  39.801   2.145   7.353
 9956POPC   NC362951  11.336  43.917   5.553
 9956POPC   PO462952  11.256  43.930   5.853
 9956POPC   GL162953  11.284  43.852   6.153
 9956POPC   GL262954  11.397  43.962   6.153
 9956POPC   C1A62955  11.339  43.909   6.453
 9956POPC   D2A62956  11.336  43.882   6.753
 9956POPC   C3A62957  11.288  43.919   7.053
 9956POPC   C4A62958  11.273  43.936   7.353
 9956POPC   C1B62959  11.490  44.114   6.453
 9956POPC   C2B62960  11.505  44.039   6.753
 9956POPC   C3B62961  11.428  44.130   7.053
 9956POPC   C4B62962  11.497  44.055   7.353
 9957POPC   NC362963  13.639   0.396   5.553
 9957POPC   PO462964  13.600   0.480   5.853
 9957POPC   GL162965  13.584   0.424   6.153
 9957POPC   GL262966  13.684   0.374   6.153
 9957POPC   C1A62967  13.615   0.421   6.453
 9957POPC   D2A62968  13.620   0.449   6.753
 9957POPC   C3A62969  13.597   0.404   7.053
 9957POPC   C4A62970  13.648   0.447   7.353
 9957POPC   C1B62971  13.735   0.204   6.453
 9957POPC   C2B62972  13.743   0.200   6.753
 9957POPC   C3B62973  13.702   0.241   7.053
 9957POPC   C4B62974  13.729   0.236   7.353
 9958POPC   NC362975  38.429  33.808   5.553
 9958POPC   PO462976  38.456  33.829   5.853
 9958POPC   GL162977  38.419  33.820   6.153
 9958POPC   GL262978  38.383  33.932   6.153
 9958POPC   C1A62979  38.415  33.787   6.453
 9958POPC   D2A62980  38.426  33.794   6.753
 9958POPC   C3A62981  38.431  33.758   7.053
 9958POPC   C4A62982  38.452  33.827   7.353
 9958POPC   C1B62983  38.426  34.080   6.453
 9958POPC   C2B62984  38.435  34.085   6.753
 9958POPC   C3B62985  38.401  34.006   7.053
 9958POPC   C4B62986  38.396  34.013   7.353
 9959POPC   NC362987  19.027  37.681   5.553
 9959POPC   PO462988  19.072  37.727   5.853
 9959POPC   GL162989  19.080  37.662   6.153
 9959POPC   GL262990  19.173  37.718   6.153
 9959POPC   C1A62991  19.021  37.729   6.453
 9959POPC   D2A62992  19.103  37.646   6.753
 9959POPC   C3A62993  19.052  37.708   7.053
 9959POPC   C4A62994  19.050  37.701   7.353
 9959POPC   C1B62995  19.348  37.784   6.453
 9959POPC   C2B62996  19.301  37.721   6.753
 9959POPC   C3B62997  19.253  37.781   7.053
 9959POPC   C4B62998  19.290  37.719   7.353
 9960POPC   NC362999   1.236   1.985   5.553
 9960POPC   PO463000   1.239   2.009   5.853
 9960POPC   GL163001   1.229   2.021   6.153
 9960POPC   GL263002   1.273   1.832   6.153
 9960POPC   C1A63003   1.176   1.954   6.453
 9960POPC   D2A63004   1.221   2.013   6.753
 9960POPC   C3A63005   1.182   1.998   7.053
 9960POPC   C4A63006   1.167   2.021   7.353
 9960POPC   C1B63007   1.216   1.718   6.453
 9960POPC   C2B63008   1.243   1.760   6.753
 9960POPC   C3B63009   1.237   1.721   7.053
 9960POPC   C4B63010   1.235   1.794   7.353
 9961POPC   NC363011  34.609  43.070   5.553
 9961POPC   PO463012  34.602  43.097   5.853
 9961POPC   GL163013  34.527  43.087   6.153
 9961POPC   GL263014  34.443  43.029   6.153
 9961POPC   C1A63015  34.528  43.113   6.453
 9961POPC   D2A63016  34.532  43.066   6.753
 9961POPC   C3A63017  34.619  43.091   7.053
 9961POPC   C4A63018  34.607  43.095   7.353
 9961POPC   C1B63019  34.351  42.991   6.453
 9961POPC   C2B63020  34.340  43.050   6.753
 9961POPC   C3B63021  34.313  43.076   7.053
 9961POPC   C4B63022  34.352  43.082   7.353
 9962POPC   NC363023  33.750  17.551   5.553
 9962POPC   PO463024  33.763  17.529   5.853
 9962POPC   GL163025  33.754  17.510   6.153
 9962POPC   GL263026  33.645  17.496   6.153
 9962POPC   C1A63027  33.787  17.470   6.453
 9962POPC   D2A63028  33.792  17.512   6.753
 9962POPC   C3A63029  33.849  17.487   7.053
 9962POPC   C4A63030  33.789  17.552   7.353
 9962POPC   C1B63031  33.570  17.495   6.453
 9962POPC   C2B63032  33.547  17.448   6.753
 9962POPC   C3B63033  33.542  17.457   7.053
 9962POPC   C4B63034  33.564  17.512   7.353
 9963POPC   NC363035  31.465  17.465   5.553
 9963POPC   PO463036  31.463  17.516   5.853
 9963POPC   GL163037  31.498  17.506   6.153
 9963POPC   GL263038  31.581  17.523   6.153
 9963POPC   C1A63039  31.491  17.548   6.453
 9963POPC   D2A63040  31.488  17.511   6.753
 9963POPC   C3A63041  31.470  17.530   7.053
 9963POPC   C4A63042  31.468  17.540   7.353
 9963POPC   C1B63043  31.735  17.546   6.453
 9963POPC   C2B63044  31.705  17.521   6.753
 9963POPC   C3B63045  31.694  17.499   7.053
 9963POPC   C4B63046  31.681  17.503   7.353
 9964POPC   NC363047   7.454  11.347   5.553
 9964POPC   PO463048   7.387  11.316   5.853
 9964POPC   GL163049   7.424  11.346   6.153
 9964POPC   GL263050   7.444  11.213   6.153
 9964POPC   C1A63051   7.425  11.270   6.453
 9964POPC   D2A63052   7.419  11.277   6.753
 9964POPC   C3A63053   7.443  11.273   7.053
 9964POPC   C4A63054   7.455  11.349   7.353
 9964POPC   C1B63055   7.456  11.082   6.453
 9964POPC   C2B63056   7.457  11.066   6.753
 9964POPC   C3B63057   7.437  11.002   7.053
 9964POPC   C4B63058   7.429  11.058   7.353
 9965POPC   NC363059  41.580  24.457   5.553
 9965POPC   PO463060  41.509  24.464   5.853
 9965POPC   GL163061  41.559  24.528   6.153
 9965POPC   GL263062  41.642  24.564   6.153
 9965POPC   C1A63063  41.530  24.468   6.453
 9965POPC   D2A63064  41.557  24.524   6.753
 9965POPC   C3A63065  41.525  24.474   7.053
 9965POPC   C4A63066  41.574  24.480   7.353
 9965POPC   C1B63067  41.715  24.665   6.453
 9965POPC   C2B63068  41.736  24.653   6.753
 9965POPC   C3B63069  41.766  24.647   7.053
 9965POPC   C4B63070  41.776  24.696   7.353
 9966POPC   NC363071  33.801  35.359   5.553
 9966POPC   PO463072  33.771  35.323   5.853
 9966POPC   GL163073  33.834  35.371   6.153
 9966POPC   GL263074  33.874  35.395   6.153
 9966POPC   C1A63075  33.841  35.325   6.453
 9966POPC   D2A63076  33.789  35.304   6.753
 9966POPC   C3A63077  33.811  35.383   7.053
 9966POPC   C4A63078  33.812  35.343   7.353
 9966POPC   C1B63079  34.031  35.439   6.453
 9966POPC   C2B63080  33.989  35.468   6.753
 9966POPC   C3B63081  34.075  35.498   7.053
 9966POPC   C4B63082  34.076  35.486   7.353
 9967POPC   NC363083   1.206  30.736   5.553
 9967POPC   PO463084   1.232  30.654   5.853
 9967POPC   GL163085   1.263  30.697   6.153
 9967POPC   GL263086   1.274  30.570   6.153
 9967POPC   C1A63087   1.199  30.692   6.453
 9967POPC   D2A63088   1.253  30.726   6.753
 9967POPC   C3A63089   1.227  30.702   7.053
 9967POPC   C4A63090   1.205  30.691   7.353
 9967POPC   C1B63091   1.335  30.450   6.453
 9967POPC   C2B63092   1.314  30.436   6.753
 9967POPC   C3B63093   1.334  30.508   7.053
 9967POPC   C4B63094   1.373  30.491   7.353
 9968POPC   NC363095  12.121   9.785   5.553
 9968POPC   PO463096  12.034   9.721   5.853
 9968POPC   GL163097  12.027   9.742   6.153
 9968POPC   GL263098  12.222   9.781   6.153
 9968POPC   C1A63099  12.056   9.796   6.453
 9968POPC   D2A63100  12.066   9.757   6.753
 9968POPC   C3A63101  12.030   9.784   7.053
 9968POPC   C4A63102  12.026   9.755   7.353
 9968POPC   C1B63103  12.320   9.857   6.453
 9968POPC   C2B63104  12.249   9.863   6.753
 9968POPC   C3B63105  12.320   9.905   7.053
 9968POPC   C4B63106  12.311   9.866   7.353
 9969POPC   NC363107  23.746   3.548   5.553
 9969POPC   PO463108  23.684   3.501   5.853
 9969POPC   GL163109  23.729   3.511   6.153
 9969POPC   GL263110  23.695   3.430   6.153
 9969POPC   C1A63111  23.759   3.587   6.453
 9969POPC   D2A63112  23.750   3.505   6.753
 9969POPC   C3A63113  23.677   3.525   7.053
 9969POPC   C4A63114  23.744   3.551   7.353
 9969POPC   C1B63115  23.756   3.288   6.453
 9969POPC   C2B63116  23.741   3.317   6.753
 9969POPC   C3B63117  23.764   3.283   7.053
 9969POPC   C4B63118  23.738   3.271   7.353
 9970POPC   NC363119   1.953  26.013   5.553
 9970POPC   PO463120   1.948  26.057   5.853
 9970POPC   GL163121   1.951  26.037   6.153
 9970POPC   GL263122   1.962  26.158   6.153
 9970POPC   C1A63123   1.944  26.005   6.453
 9970POPC   D2A63124   1.953  26.047   6.753
 9970POPC   C3A63125   1.961  26.029   7.053
 9970POPC   C4A63126   2.036  26.014   7.353
 9970POPC   C1B63127   1.891  26.311   6.453
 9970POPC   C2B63128   1.911  26.248   6.753
 9970POPC   C3B63129   1.856  26.274   7.053
 9970POPC   C4B63130   1.895  26.294   7.353
 9971POPC   NC363131  19.100  36.136   5.553
 9971POPC   PO463132  19.021  36.161   5.853
 9971POPC   GL163133  19.066  36.101   6.153
 9971POPC   GL263134  19.016  36.000   6.153
 9971POPC   C1A63135  19.092  36.162   6.453
 9971POPC   D2A63136  19.080  36.153   6.753
 9971POPC   C3A63137  19.030  36.089   7.053
 9971POPC   C4A63138  19.038  36.123   7.353
 9971POPC   C1B63139  19.030  35.871   6.453
 9971POPC   C2B63140  19.022  35.891   6.753
 9971POPC   C3B63141  19.080  35.851   7.053
 9971POPC   C4B63142  19.041  35.883   7.353
 9972POPC   NC363143  41.578  28.382   5.553
 9972POPC   PO463144  41.526  28.349   5.853
 9972POPC   GL163145  41.578  28.330   6.153
 9972POPC   GL263146  41.689  28.437   6.153
 9972POPC   C1A63147  41.606  28.398   6.453
 9972POPC   D2A63148  41.572  28.361   6.753
 9972POPC   C3A63149  41.594  28.359   7.053
 9972POPC   C4A63150  41.566  28.347   7.353
 9972POPC   C1B63151  41.732  28.473   6.453
 9972POPC   C2B63152  41.742  28.513   6.753
 9972POPC   C3B63153  41.806  28.488   7.053
 9972POPC   C4B63154  41.713  28.501   7.353
 9973POPC   NC363155  22.947  24.478   5.553
 9973POPC   PO463156  22.945  24.445   5.853
 9973POPC   GL163157  22.913  24.507   6.153
 9973POPC   GL263158  22.862  24.377   6.153
 9973POPC   C1A63159  22.912  24.530   6.453
 9973POPC   D2A63160  22.974  24.453   6.753
 9973POPC   C3A63161  22.934  24.449   7.053
 9973POPC   C4A63162  22.948  24.460   7.353
 9973POPC   C1B63163  22.848  24.209   6.453
 9973POPC   C2B63164  22.895  24.297   6.753
 9973POPC   C3B63165  22.874  24.208   7.053
 9973POPC   C4B63166  22.805  24.242   7.353
 9974POPC   NC363167   9.739  43.837   5.553
 9974POPC   PO463168   9.739  43.918   5.853
 9974POPC   GL163169   9.789  43.921   6.153
 9974POPC   GL263170   9.658  43.796   6.153
 9974POPC   C1A63171   9.786  43.863   6.453
 9974POPC   D2A63172   9.759  43.928   6.753
 9974POPC   C3A63173   9.759  43.869   7.053
 9974POPC   C4A63174   9.776  43.914   7.353
 9974POPC   C1B63175   9.575  43.691   6.453
 9974POPC   C2B63176   9.646  43.662   6.753
 9974POPC   C3B63177   9.565  43.638   7.053
 9974POPC   C4B63178   9.585  43.660   7.353
 9975POPC   NC363179   5.100  36.093   5.553
 9975POPC   PO463180   5.089  36.116   5.853
 9975POPC   GL163181   5.080  36.117   6.153
 9975POPC   GL263182   5.117  36.033   6.153
 9975POPC   C1A63183   5.069  36.118   6.453
 9975POPC   D2A63184   5.051  36.112   6.753
 9975POPC   C3A63185   5.090  36.113   7.053
 9975POPC   C4A63186   5.095  36.104   7.353
 9975POPC   C1B63187   5.255  35.892   6.453
 9975POPC   C2B63188   5.206  35.882   6.753
 9975POPC   C3B63189   5.239  35.901   7.053
 9975POPC   C4B63190   5.227  35.915   7.353
 9976POPC   NC363191   0.428   8.944   5.553
 9976POPC   PO463192   0.423   8.924   5.853
 9976POPC   GL163193   0.453   9.001   6.153
 9976POPC   GL263194   0.597   9.020   6.153
 9976POPC   C1A63195   0.413   9.006   6.453
 9976POPC   D2A63196   0.448   8.959   6.753
 9976POPC   C3A63197   0.430   9.018   7.053
 9976POPC   C4A63198   0.437   8.977   7.353
 9976POPC   C1B63199   0.667   8.981   6.453
 9976POPC   C2B63200   0.659   8.975   6.753
 9976POPC   C3B63201   0.704   8.966   7.053
 9976POPC   C4B63202   0.640   9.007   7.353
 9977POPC   NC363203  35.358  34.531   5.553
 9977POPC   PO463204  35.303  34.611   5.853
 9977POPC   GL163205  35.305  34.542   6.153
 9977POPC   GL263206  35.225  34.528   6.153
 9977POPC   C1A63207  35.377  34.553   6.453
 9977POPC   D2A63208  35.329  34.535   6.753
 9977POPC   C3A63209  35.358  34.605   7.053
 9977POPC   C4A63210  35.378  34.567   7.353
 9977POPC   C1B63211  35.179  34.383   6.453
 9977POPC   C2B63212  35.157  34.447   6.753
 9977POPC   C3B63213  35.151  34.372   7.053
 9977POPC   C4B63214  35.168  34.438   7.353
 9978POPC   NC363215  26.779  36.102   5.553
 9978POPC   PO463216  26.769  36.153   5.853
 9978POPC   GL163217  26.861  36.131   6.153
 9978POPC   GL263218  26.903  36.227   6.153
 9978POPC   C1A63219  26.813  36.167   6.453
 9978POPC   D2A63220  26.840  36.108   6.753
 9978POPC   C3A63221  26.852  36.151   7.053
 9978POPC   C4A63222  26.853  36.083   7.353
 9978POPC   C1B63223  26.974  36.400   6.453
 9978POPC   C2B63224  26.886  36.366   6.753
 9978POPC   C3B63225  26.967  36.392   7.053
 9978POPC   C4B63226  26.953  36.347   7.353
 9979POPC   NC363227   8.230  36.142   5.553
 9979POPC   PO463228   8.209  36.091   5.853
 9979POPC   GL163229   8.168  36.154   6.153
 9979POPC   GL263230   8.360  36.211   6.153
 9979POPC   C1A63231   8.229  36.102   6.453
 9979POPC   D2A63232   8.246  36.117   6.753
 9979POPC   C3A63233   8.245  36.086   7.053
 9979POPC   C4A63234   8.157  36.095   7.353
 9979POPC   C1B63235   8.412  36.268   6.453
 9979POPC   C2B63236   8.419  36.197   6.753
 9979POPC   C3B63237   8.411  36.238   7.053
 9979POPC   C4B63238   8.449  36.192   7.353
 9980POPC   NC363239  33.834  33.027   5.553
 9980POPC   PO463240  33.759  33.043   5.853
 9980POPC   GL163241  33.756  32.981   6.153
 9980POPC   GL263242  33.869  32.956   6.153
 9980POPC   C1A63243  33.773  33.029   6.453
 9980POPC   D2A63244  33.803  33.055   6.753
 9980POPC   C3A63245  33.762  32.976   7.053
 9980POPC   C4A63246  33.767  32.992   7.353
 9980POPC   C1B63247  33.959  32.839   6.453
 9980POPC   C2B63248  33.963  32.849   6.753
 9980POPC   C3B63249  34.025  32.877   7.053
 9980POPC   C4B63250  33.965  32.906   7.353
 9981POPC   NC363251   5.068   8.205   5.553
 9981POPC   PO463252   5.057   8.165   5.853
 9981POPC   GL163253   5.134   8.155   6.153
 9981POPC   GL263254   5.007   8.115   6.153
 9981POPC   C1A63255   5.080   8.155   6.453
 9981POPC   D2A63256   5.070   8.157   6.753
 9981POPC   C3A63257   5.078   8.206   7.053
 9981POPC   C4A63258   5.098   8.155   7.353
 9981POPC   C1B63259   4.823   8.109   6.453
 9981POPC   C2B63260   4.902   8.167   6.753
 9981POPC   C3B63261   4.874   8.135   7.053
 9981POPC   C4B63262   4.811   8.087   7.353
 9982POPC   NC363263   8.930   9.774   5.553
 9982POPC   PO463264   8.993   9.730   5.853
 9982POPC   GL163265   8.991   9.764   6.153
 9982POPC   GL263266   8.846   9.767   6.153
 9982POPC   C1A63267   8.964   9.775   6.453
 9982POPC   D2A63268   8.960   9.784   6.753
 9982POPC   C3A63269   8.962   9.798   7.053
 9982POPC   C4A63270   8.997   9.746   7.353
 9982POPC   C1B63271   8.688   9.829   6.453
 9982POPC   C2B63272   8.717   9.788   6.753
 9982POPC   C3B63273   8.716   9.776   7.053
 9982POPC   C4B63274   8.747   9.825   7.353
 9983POPC   NC363275  43.874  43.838   5.553
 9983POPC   PO463276  43.870  43.911   5.853
 9983POPC   GL163277  43.910  43.917   6.153
 9983POPC   GL263278  43.810  44.038   6.153
 9983POPC   C1A63279  43.864  43.838   6.453
 9983POPC   D2A63280  43.893  43.866   6.753
 9983POPC   C3A63281  43.899  43.891   7.053
 9983POPC   C4A63282  43.873  43.883   7.353
 9983POPC   C1B63283  43.809  44.131   6.453
 9983POPC   C2B63284  43.795  44.059   6.753
 9983POPC   C3B63285  43.751  44.104   7.053
 9983POPC   C4B63286  43.792  44.141   7.353
 9984POPC   NC363287  42.381  31.468   5.553
 9984POPC   PO463288  42.352  31.498   5.853
 9984POPC   GL163289  42.360  31.447   6.153
 9984POPC   GL263290  42.255  31.349   6.153
 9984POPC   C1A63291  42.373  31.497   6.453
 9984POPC   D2A63292  42.302  31.502   6.753
 9984POPC   C3A63293  42.297  31.455   7.053
 9984POPC   C4A63294  42.360  31.470   7.353
 9984POPC   C1B63295  42.282  31.274   6.453
 9984POPC   C2B63296  42.306  31.191   6.753
 9984POPC   C3B63297  42.236  31.197   7.053
 9984POPC   C4B63298  42.306  31.249   7.353
 9985POPC   NC363299  15.172   5.890   5.553
 9985POPC   PO463300  15.133   5.864   5.853
 9985POPC   GL163301  15.165   5.895   6.153
 9985POPC   GL263302  15.255   5.947   6.153
 9985POPC   C1A63303  15.204   5.849   6.453
 9985POPC   D2A63304  15.144   5.865   6.753
 9985POPC   C3A63305  15.142   5.829   7.053
 9985POPC   C4A63306  15.154   5.918   7.353
 9985POPC   C1B63307  15.407   6.048   6.453
 9985POPC   C2B63308  15.347   5.991   6.753
 9985POPC   C3B63309  15.340   6.063   7.053
 9985POPC   C4B63310  15.330   5.997   7.353
 9986POPC   NC363311  32.992  22.206   5.553
 9986POPC   PO463312  33.059  22.168   5.853
 9986POPC   GL163313  33.028  22.148   6.153
 9986POPC   GL263314  33.140  22.119   6.153
 9986POPC   C1A63315  33.029  22.205   6.453
 9986POPC   D2A63316  33.071  22.190   6.753
 9986POPC   C3A63317  33.005  22.116   7.053
 9986POPC   C4A63318  33.004  22.123   7.353
 9986POPC   C1B63319  33.262  22.145   6.453
 9986POPC   C2B63320  33.268  22.087   6.753
 9986POPC   C3B63321  33.282  22.115   7.053
 9986POPC   C4B63322  33.271  22.091   7.353
 9987POPC   NC363323  31.441  37.682   5.553
 9987POPC   PO463324  31.515  37.714   5.853
 9987POPC   GL163325  31.438  37.666   6.153
 9987POPC   GL263326  31.611  37.780   6.153
 9987POPC   C1A63327  31.468  37.631   6.453
 9987POPC   D2A63328  31.452  37.694   6.753
 9987POPC   C3A63329  31.480  37.655   7.053
 9987POPC   C4A63330  31.451  37.702   7.353
 9987POPC   C1B63331  31.707  37.845   6.453
 9987POPC   C2B63332  31.699  37.891   6.753
 9987POPC   C3B63333  31.620  37.890   7.053
 9987POPC   C4B63334  31.661  37.806   7.353
 9988POPC   NC363335  11.305   3.567   5.553
 9988POPC   PO463336  11.349   3.516   5.853
 9988POPC   GL163337  11.333   3.522   6.153
 9988POPC   GL263338  11.187   3.408   6.153
 9988POPC   C1A63339  11.337   3.498   6.453
 9988POPC   D2A63340  11.321   3.500   6.753
 9988POPC   C3A63341  11.286   3.508   7.053
 9988POPC   C4A63342  11.315   3.581   7.353
 9988POPC   C1B63343  11.145   3.377   6.453
 9988POPC   C2B63344  11.143   3.354   6.753
 9988POPC   C3B63345  11.115   3.401   7.053
 9988POPC   C4B63346  11.113   3.329   7.353
 9989POPC   NC363347   8.945  44.669   5.553
 9989POPC   PO463348   8.924  44.708   5.853
 9989POPC   GL163349   9.005  44.644   6.153
 9989POPC   GL263350   9.050  44.569   6.153
 9989POPC   C1A63351   8.997  44.635   6.453
 9989POPC   D2A63352   8.999  44.624   6.753
 9989POPC   C3A63353   8.971  44.676   7.053
 9989POPC   C4A63354   8.944  44.671   7.353
 9989POPC   C1B63355   9.229  44.536   6.453
 9989POPC   C2B63356   9.174  44.581   6.753
 9989POPC   C3B63357   9.204  44.568   7.053
 9989POPC   C4B63358   9.143  44.502   7.353
 9990POPC   NC363359  39.268  19.855   5.553
 9990POPC   PO463360  39.244  19.795   5.853
 9990POPC   GL163361  39.249  19.828   6.153
 9990POPC   GL263362  39.125  19.803   6.153
 9990POPC   C1A63363  39.250  19.800   6.453
 9990POPC   D2A63364  39.239  19.810   6.753
 9990POPC   C3A63365  39.266  19.876   7.053
 9990POPC   C4A63366  39.274  19.827   7.353
 9990POPC   C1B63367  39.029  19.790   6.453
 9990POPC   C2B63368  38.994  19.813   6.753
 9990POPC   C3B63369  38.968  19.786   7.053
 9990POPC   C4B63370  39.002  19.801   7.353
 9991POPC   NC363371   1.204  40.008   5.553
 9991POPC   PO463372   1.207  40.055   5.853
 9991POPC   GL163373   1.209  40.004   6.153
 9991POPC   GL263374   1.125  39.918   6.153
 9991POPC   C1A63375   1.240  40.002   6.453
 9991POPC   D2A63376   1.209  40.041   6.753
 9991POPC   C3A63377   1.263  39.985   7.053
 9991POPC   C4A63378   1.249  40.036   7.353
 9991POPC   C1B63379   1.001  39.887   6.453
 9991POPC   C2B63380   0.997  39.966   6.753
 9991POPC   C3B63381   0.956  39.960   7.053
 9991POPC   C4B63382   1.019  39.901   7.353
 9992POPC   NC363383  37.645  26.048   5.553
 9992POPC   PO463384  37.707  26.064   5.853
 9992POPC   GL163385  37.672  26.037   6.153
 9992POPC   GL263386  37.756  25.878   6.153
 9992POPC   C1A63387  37.668  26.015   6.453
 9992POPC   D2A63388  37.681  26.078   6.753
 9992POPC   C3A63389  37.635  26.039   7.053
 9992POPC   C4A63390  37.658  26.002   7.353
 9992POPC   C1B63391  37.793  25.767   6.453
 9992POPC   C2B63392  37.776  25.763   6.753
 9992POPC   C3B63393  37.710  25.849   7.053
 9992POPC   C4B63394  37.798  25.849   7.353
 9993POPC   NC363395  29.916  36.884   5.553
 9993POPC   PO463396  29.897  36.880   5.853
 9993POPC   GL163397  29.957  36.940   6.153
 9993POPC   GL263398  29.925  36.791   6.153
 9993POPC   C1A63399  29.928  36.919   6.453
 9993POPC   D2A63400  29.942  36.915   6.753
 9993POPC   C3A63401  29.893  36.870   7.053
 9993POPC   C4A63402  29.952  36.885   7.353
 9993POPC   C1B63403  30.031  36.631   6.453
 9993POPC   C2B63404  29.977  36.713   6.753
 9993POPC   C3B63405  29.978  36.705   7.053
 9993POPC   C4B63406  30.045  36.625   7.353
 9994POPC   NC363407  30.705   8.232   5.553
 9994POPC   PO463408  30.706   8.216   5.853
 9994POPC   GL163409  30.729   8.148   6.153
 9994POPC   GL263410  30.550   8.166   6.153
 9994POPC   C1A63411  30.743   8.226   6.453
 9994POPC   D2A63412  30.697   8.157   6.753
 9994POPC   C3A63413  30.736   8.155   7.053
 9994POPC   C4A63414  30.648   8.174   7.353
 9994POPC   C1B63415  30.434   8.168   6.453
 9994POPC   C2B63416  30.450   8.187   6.753
 9994POPC   C3B63417  30.422   8.155   7.053
 9994POPC   C4B63418  30.444   8.093   7.353
 9995POPC   NC363419  15.938   1.958   5.553
 9995POPC   PO463420  16.005   1.992   5.853
 9995POPC   GL163421  15.956   1.984   6.153
 9995POPC   GL263422  15.937   1.897   6.153
 9995POPC   C1A63423  15.918   2.027   6.453
 9995POPC   D2A63424  15.920   2.015   6.753
 9995POPC   C3A63425  15.933   2.019   7.053
 9995POPC   C4A63426  15.934   2.008   7.353
 9995POPC   C1B63427  15.887   1.733   6.453
 9995POPC   C2B63428  15.911   1.783   6.753
 9995POPC   C3B63429  15.905   1.803   7.053
 9995POPC   C4B63430  15.813   1.722   7.353
 9996POPC   NC363431  24.489  16.730   5.553
 9996POPC   PO463432  24.509  16.756   5.853
 9996POPC   GL163433  24.528  16.720   6.153
 9996POPC   GL263434  24.556  16.620   6.153
 9996POPC   C1A63435  24.492  16.716   6.453
 9996POPC   D2A63436  24.462  16.745   6.753
 9996POPC   C3A63437  24.458  16.749   7.053
 9996POPC   C4A63438  24.449  16.758   7.353
 9996POPC   C1B63439  24.580  16.469   6.453
 9996POPC   C2B63440  24.565  16.450   6.753
 9996POPC   C3B63441  24.540  16.536   7.053
 9996POPC   C4B63442  24.563  16.509   7.353
 9997POPC   NC363443  32.252  38.477   5.553
 9997POPC   PO463444  32.273  38.453   5.853
 9997POPC   GL163445  32.290  38.446   6.153
 9997POPC   GL263446  32.075  38.446   6.153
 9997POPC   C1A63447  32.219  38.455   6.453
 9997POPC   D2A63448  32.286  38.501   6.753
 9997POPC   C3A63449  32.255  38.495   7.053
 9997POPC   C4A63450  32.232  38.413   7.353
 9997POPC   C1B63451  31.986  38.411   6.453
 9997POPC   C2B63452  31.980  38.385   6.753
 9997POPC   C3B63453  31.962  38.422   7.053
 9997POPC   C4B63454  31.985  38.391   7.353
 9998POPC   NC363455  10.524  22.911   5.553
 9998POPC   PO463456  10.527  22.895   5.853
 9998POPC   GL163457  10.540  22.973   6.153
 9998POPC   GL263458  10.446  22.940   6.153
 9998POPC   C1A63459  10.491  22.960   6.453
 9998POPC   D2A63460  10.493  22.913   6.753
 9998POPC   C3A63461  10.559  22.941   7.053
 9998POPC   C4A63462  10.504  22.979   7.353
 9998POPC   C1B63463  10.316  23.042   6.453
 9998POPC   C2B63464  10.318  22.977   6.753
 9998POPC   C3B63465  10.288  23.035   7.053
 9998POPC   C4B63466  10.248  22.989   7.353
 9999POPC   NC363467   0.472  10.556   5.553
 9999POPC   PO463468   0.445  10.527   5.853
 9999POPC   GL163469   0.466  10.556   6.153
 9999POPC   GL263470   0.354  10.535   6.153
 9999POPC   C1A63471   0.461  10.541   6.453
 9999POPC   D2A63472   0.463  10.522   6.753
 9999POPC   C3A63473   0.486  10.478   7.053
 9999POPC   C4A63474   0.406  10.547   7.353
 9999POPC   C1B63475   0.159  10.470   6.453
 9999POPC   C2B63476   0.210  10.454   6.753
 9999POPC   C3B63477   0.172  10.469   7.053
 9999POPC   C4B63478   0.236  10.496   7.353
10000POPC   NC363479  22.895  25.271   5.553
10000POPC   PO463480  22.954  25.240   5.853
10000POPC   GL163481  22.954  25.315   6.153
10000POPC   GL263482  22.982  25.149   6.153
10000POPC   C1A63483  22.895  25.217   6.453
10000POPC   D2A63484  22.944  25.246   6.753
10000POPC   C3A63485  22.913  25.253   7.053
10000POPC   C4A63486  22.908  25.309   7.353
10000POPC   C1B63487  22.979  25.000   6.453
10000POPC   C2B63488  22.908  25.020   6.753
10000POPC   C3B63489  22.945  25.060   7.053
10000POPC   C4B63490  22.911  24.986   7.353
10001POPC   NC363491  43.925  22.130   5.553
10001POPC   PO463492  43.898  22.132   5.853
10001POPC   GL163493  43.910  22.194   6.153
10001POPC   GL263494  43.962  22.310   6.153
10001POPC   C1A63495  43.877  22.156   6.453
10001POPC   D2A63496  43.858  22.151   6.753
10001POPC   C3A63497  43.931  22.198   7.053
10001POPC   C4A63498  43.885  22.211   7.353
10001POPC   C1B63499  43.915  22.396   6.453
10001POPC   C2B63500  43.958  22.391   6.753
10001POPC   C3B63501  43.946  22.364   7.053
10001POPC   C4B63502  43.971  22.366   7.353
10002POPC   NC363503   3.576   9.766   5.553
10002POPC   PO463504   3.591   9.756   5.853
10002POPC   GL163505   3.522   9.743   6.153
10002POPC   GL263506   3.602   9.852   6.153
10002POPC   C1A63507   3.589   9.782   6.453
10002POPC   D2A63508   3.492   9.798   6.753
10002POPC   C3A63509   3.568   9.755   7.053
10002POPC   C4A63510   3.498   9.714   7.353
10002POPC   C1B63511   3.610   9.952   6.453
10002POPC   C2B63512   3.624   9.985   6.753
10002POPC   C3B63513   3.617  10.009   7.053
10002POPC   C4B63514   3.662  10.007   7.353
10003POPC   NC363515   6.681  20.596   5.553
10003POPC   PO463516   6.681  20.602   5.853
10003POPC   GL163517   6.595  20.582   6.153
10003POPC   GL263518   6.700  20.711   6.153
10003POPC   C1A63519   6.638  20.566   6.453
10003POPC   D2A63520   6.668  20.563   6.753
10003POPC   C3A63521   6.639  20.582   7.053
10003POPC   C4A63522   6.609  20.591   7.353
10003POPC   C1B63523   6.832  20.831   6.453
10003POPC   C2B63524   6.876  20.792   6.753
10003POPC   C3B63525   6.852  20.806   7.053
10003POPC   C4B63526   6.875  20.742   7.353
10004POPC   NC363527  14.426  29.177   5.553
10004POPC   PO463528  14.412  29.143   5.853
10004POPC   GL163529  14.392  29.098   6.153
10004POPC   GL263530  14.509  29.007   6.153
10004POPC   C1A63531  14.356  29.156   6.453
10004POPC   D2A63532  14.441  29.194   6.753
10004POPC   C3A63533  14.370  29.175   7.053
10004POPC   C4A63534  14.434  29.142   7.353
10004POPC   C1B63535  14.514  28.911   6.453
10004POPC   C2B63536  14.581  28.971   6.753
10004POPC   C3B63537  14.572  28.978   7.053
10004POPC   C4B63538  14.529  28.929   7.353
10005POPC   NC363539  39.209  26.018   5.553
10005POPC   PO463540  39.266  26.018   5.853
10005POPC   GL163541  39.260  25.997   6.153
10005POPC   GL263542  39.230  26.169   6.153
10005POPC   C1A63543  39.182  26.005   6.453
10005POPC   D2A63544  39.219  26.025   6.753
10005POPC   C3A63545  39.242  26.023   7.053
10005POPC   C4A63546  39.185  26.073   7.353
10005POPC   C1B63547  39.146  26.326   6.453
10005POPC   C2B63548  39.191  26.300   6.753
10005POPC   C3B63549  39.184  26.319   7.053
10005POPC   C4B63550  39.200  26.290   7.353
10006POPC   NC363551  14.370   8.985   5.553
10006POPC   PO463552  14.441   8.997   5.853
10006POPC   GL163553  14.363   8.924   6.153
10006POPC   GL263554  14.371   9.054   6.153
10006POPC   C1A63555  14.370   8.947   6.453
10006POPC   D2A63556  14.368   8.997   6.753
10006POPC   C3A63557  14.406   8.996   7.053
10006POPC   C4A63558  14.426   8.934   7.353
10006POPC   C1B63559  14.289   9.210   6.453
10006POPC   C2B63560  14.292   9.165   6.753
10006POPC   C3B63561  14.259   9.164   7.053
10006POPC   C4B63562  14.255   9.204   7.353
10007POPC   NC363563  36.873  19.027   5.553
10007POPC   PO463564  36.923  19.089   5.853
10007POPC   GL163565  36.900  19.079   6.153
10007POPC   GL263566  36.733  19.108   6.153
10007POPC   C1A63567  36.882  19.094   6.453
10007POPC   D2A63568  36.904  19.026   6.753
10007POPC   C3A63569  36.939  19.104   7.053
10007POPC   C4A63570  36.931  19.108   7.353
10007POPC   C1B63571  36.637  19.083   6.453
10007POPC   C2B63572  36.635  19.056   6.753
10007POPC   C3B63573  36.690  19.068   7.053
10007POPC   C4B63574  36.706  19.121   7.353
10008POPC   NC363575  25.253  36.090   5.553
10008POPC   PO463576  25.244  36.113   5.853
10008POPC   GL163577  25.285  36.166   6.153
10008POPC   GL263578  25.186  36.071   6.153
10008POPC   C1A63579  25.306  36.136   6.453
10008POPC   D2A63580  25.303  36.130   6.753
10008POPC   C3A63581  25.222  36.159   7.053
10008POPC   C4A63582  25.264  36.146   7.353
10008POPC   C1B63583  25.097  35.918   6.453
10008POPC   C2B63584  25.050  35.918   6.753
10008POPC   C3B63585  25.032  35.949   7.053
10008POPC   C4B63586  25.125  35.914   7.353
10009POPC   NC363587   4.292  12.061   5.553
10009POPC   PO463588   4.283  12.089   5.853
10009POPC   GL163589   4.313  12.126   6.153
10009POPC   GL263590   4.381  12.228   6.153
10009POPC   C1A63591   4.300  12.109   6.453
10009POPC   D2A63592   4.316  12.074   6.753
10009POPC   C3A63593   4.321  12.105   7.053
10009POPC   C4A63594   4.285  12.108   7.353
10009POPC   C1B63595   4.479  12.277   6.453
10009POPC   C2B63596   4.486  12.305   6.753
10009POPC   C3B63597   4.402  12.317   7.053
10009POPC   C4B63598   4.456  12.260   7.353
10010POPC   NC363599  43.063  12.057   5.553
10010POPC   PO463600  43.114  12.093   5.853
10010POPC   GL163601  43.155  12.082   6.153
10010POPC   GL263602  43.062  11.928   6.153
10010POPC   C1A63603  43.072  12.049   6.453
10010POPC   D2A63604  43.130  12.099   6.753
10010POPC   C3A63605  43.098  12.070   7.053
10010POPC   C4A63606  43.107  12.084   7.353
10010POPC   C1B63607  42.973  11.879   6.453
10010POPC   C2B63608  43.015  11.847   6.753
10010POPC   C3B63609  42.992  11.838   7.053
10010POPC   C4B63610  42.969  11.835   7.353
10011POPC   NC363611   1.227  16.684   5.553
10011POPC   PO463612   1.188  16.746   5.853
10011POPC   GL163613   1.205  16.699   6.153
10011POPC   GL263614   1.297  16.721   6.153
10011POPC   C1A63615   1.180  16.729   6.453
10011POPC   D2A63616   1.186  16.699   6.753
10011POPC   C3A63617   1.186  16.753   7.053
10011POPC   C4A63618   1.248  16.752   7.353
10011POPC   C1B63619   1.474  16.725   6.453
10011POPC   C2B63620   1.492  16.636   6.753
10011POPC   C3B63621   1.412  16.711   7.053
10011POPC   C4B63622   1.432  16.720   7.353
10012POPC   NC363623  17.471   5.139   5.553
10012POPC   PO463624  17.506   5.141   5.853
10012POPC   GL163625  17.480   5.140   6.153
10012POPC   GL263626  17.629   5.158   6.153
10012POPC   C1A63627  17.535   5.053   6.453
10012POPC   D2A63628  17.483   5.105   6.753
10012POPC   C3A63629  17.531   5.133   7.053
10012POPC   C4A63630  17.520   5.082   7.353
10012POPC   C1B63631  17.740   5.100   6.453
10012POPC   C2B63632  17.802   5.087   6.753
10012POPC   C3B63633  17.804   5.096   7.053
10012POPC   C4B63634  17.750   5.138   7.353
10013POPC   NC363635  13.668  22.925   5.553
10013POPC   PO463636  13.642  22.916   5.853
10013POPC   GL163637  13.638  22.965   6.153
10013POPC   GL263638  13.685  23.087   6.153
10013POPC   C1A63639  13.663  22.975   6.453
10013POPC   D2A63640  13.634  22.977   6.753
10013POPC   C3A63641  13.656  22.902   7.053
10013POPC   C4A63642  13.676  22.894   7.353
10013POPC   C1B63643  13.732  23.179   6.453
10013POPC   C2B63644  13.724  23.115   6.753
10013POPC   C3B63645  13.775  23.101   7.053
10013POPC   C4B63646  13.805  23.108   7.353
10014POPC   NC363647  33.759   2.012   5.553
10014POPC   PO463648  33.825   1.971   5.853
10014POPC   GL163649  33.788   1.998   6.153
10014POPC   GL263650  33.662   1.987   6.153
10014POPC   C1A63651  33.774   2.010   6.453
10014POPC   D2A63652  33.759   1.971   6.753
10014POPC   C3A63653  33.777   2.034   7.053
10014POPC   C4A63654  33.805   1.942   7.353
10014POPC   C1B63655  33.580   1.946   6.453
10014POPC   C2B63656  33.568   2.005   6.753
10014POPC   C3B63657  33.597   1.988   7.053
10014POPC   C4B63658  33.539   1.985   7.353
10015POPC   NC363659  20.594  36.861   5.553
10015POPC   PO463660  20.597  36.874   5.853
10015POPC   GL163661  20.653  36.931   6.153
10015POPC   GL263662  20.718  36.956   6.153
10015POPC   C1A63663  20.638  36.926   6.453
10015POPC   D2A63664  20.588  36.919   6.753
10015POPC   C3A63665  20.614  36.939   7.053
10015POPC   C4A63666  20.651  36.886   7.353
10015POPC   C1B63667  20.795  37.008   6.453
10015POPC   C2B63668  20.867  37.060   6.753
10015POPC   C3B63669  20.845  37.054   7.053
10015POPC   C4B63670  20.835  36.999   7.353
10016POPC   NC363671  22.200  43.894   5.553
10016POPC   PO463672  22.206  43.848   5.853
10016POPC   GL163673  22.171  43.907   6.153
10016POPC   GL263674  22.242  43.882   6.153
10016POPC   C1A63675  22.140  43.916   6.453
10016POPC   D2A63676  22.142  43.838   6.753
10016POPC   C3A63677  22.183  43.924   7.053
10016POPC   C4A63678  22.203  43.922   7.353
10016POPC   C1B63679  22.387  43.796   6.453
10016POPC   C2B63680  22.414  43.793   6.753
10016POPC   C3B63681  22.440  43.860   7.053
10016POPC   C4B63682  22.441  43.843   7.353
10017POPC   NC363683   9.706  43.116   5.553
10017POPC   PO463684   9.770  43.063   5.853
10017POPC   GL163685   9.749  43.109   6.153
10017POPC   GL263686   9.771  43.241   6.153
10017POPC   C1A63687   9.708  43.071   6.453
10017POPC   D2A63688   9.716  43.094   6.753
10017POPC   C3A63689   9.761  43.158   7.053
10017POPC   C4A63690   9.718  43.149   7.353
10017POPC   C1B63691   9.854  43.362   6.453
10017POPC   C2B63692   9.801  43.326   6.753
10017POPC   C3B63693   9.899  43.289   7.053
10017POPC   C4B63694   9.854  43.300   7.353
10018POPC   NC363695  37.711  32.268   5.553
10018POPC   PO463696  37.664  32.208   5.853
10018POPC   GL163697  37.633  32.257   6.153
10018POPC   GL263698  37.568  32.267   6.153
10018POPC   C1A63699  37.694  32.261   6.453
10018POPC   D2A63700  37.719  32.262   6.753
10018POPC   C3A63701  37.648  32.293   7.053
10018POPC   C4A63702  37.673  32.249   7.353
10018POPC   C1B63703  37.466  32.225   6.453
10018POPC   C2B63704  37.444  32.210   6.753
10018POPC   C3B63705  37.474  32.255   7.053
10018POPC   C4B63706  37.454  32.266   7.353
10019POPC   NC363707  36.164   5.850   5.553
10019POPC   PO463708  36.107   5.881   5.853
10019POPC   GL163709  36.148   5.905   6.153
10019POPC   GL263710  36.225   5.830   6.153
10019POPC   C1A63711  36.168   5.867   6.453
10019POPC   D2A63712  36.150   5.840   6.753
10019POPC   C3A63713  36.152   5.864   7.053
10019POPC   C4A63714  36.098   5.823   7.353
10019POPC   C1B63715  36.351   5.842   6.453
10019POPC   C2B63716  36.408   5.803   6.753
10019POPC   C3B63717  36.394   5.784   7.053
10019POPC   C4B63718  36.368   5.797   7.353
10020POPC   NC363719  28.357  12.077   5.553
10020POPC   PO463720  28.355  12.045   5.853
10020POPC   GL163721  28.396  12.111   6.153
10020POPC   GL263722  28.375  12.198   6.153
10020POPC   C1A63723  28.387  12.106   6.453
10020POPC   D2A63724  28.336  12.030   6.753
10020POPC   C3A63725  28.342  12.116   7.053
10020POPC   C4A63726  28.399  12.085   7.353
10020POPC   C1B63727  28.434  12.257   6.453
10020POPC   C2B63728  28.512  12.286   6.753
10020POPC   C3B63729  28.448  12.254   7.053
10020POPC   C4B63730  28.440  12.348   7.353
10021POPC   NC363731   2.001   6.659   5.553
10021POPC   PO463732   2.037   6.677   5.853
10021POPC   GL163733   1.979   6.683   6.153
10021POPC   GL263734   1.853   6.761   6.153
10021POPC   C1A63735   1.984   6.606   6.453
10021POPC   D2A63736   1.966   6.679   6.753
10021POPC   C3A63737   2.019   6.605   7.053
10021POPC   C4A63738   2.018   6.679   7.353
10021POPC   C1B63739   1.803   6.777   6.453
10021POPC   C2B63740   1.795   6.784   6.753
10021POPC   C3B63741   1.770   6.853   7.053
10021POPC   C4B63742   1.844   6.807   7.353
10022POPC   NC363743  33.810  26.040   5.553
10022POPC   PO463744  33.790  26.042   5.853
10022POPC   GL163745  33.805  25.993   6.153
10022POPC   GL263746  33.705  25.942   6.153
10022POPC   C1A63747  33.777  26.082   6.453
10022POPC   D2A63748  33.834  26.013   6.753
10022POPC   C3A63749  33.843  26.066   7.053
10022POPC   C4A63750  33.823  26.040   7.353
10022POPC   C1B63751  33.562  25.878   6.453
10022POPC   C2B63752  33.584  25.910   6.753
10022POPC   C3B63753  33.574  25.852   7.053
10022POPC   C4B63754  33.622  25.939   7.353
10023POPC   NC363755   9.757   3.530   5.553
10023POPC   PO463756   9.740   3.512   5.853
10023POPC   GL163757   9.789   3.526   6.153
10023POPC   GL263758   9.839   3.502   6.153
10023POPC   C1A63759   9.784   3.530   6.453
10023POPC   D2A63760   9.793   3.550   6.753
10023POPC   C3A63761   9.790   3.563   7.053
10023POPC   C4A63762   9.722   3.500   7.353
10023POPC   C1B63763  10.009   3.499   6.453
10023POPC   C2B63764   9.977   3.439   6.753
10023POPC   C3B63765  10.024   3.413   7.053
10023POPC   C4B63766   9.947   3.465   7.353
10024POPC   NC363767   3.541  44.711   5.553
10024POPC   PO463768   3.582  44.654   5.853
10024POPC   GL163769   3.574  44.679   6.153
10024POPC   GL263770   3.485  44.736   6.153
10024POPC   C1A63771   3.536  44.650   6.453
10024POPC   D2A63772   3.518  44.615   6.753
10024POPC   C3A63773   3.555  44.650   7.053
10024POPC   C4A63774   3.568  44.635   7.353
10024POPC   C1B63775   3.410  44.893   6.453
10024POPC   C2B63776   3.407  44.877   6.753
10024POPC   C3B63777   3.386  44.855   7.053
10024POPC   C4B63778   3.456  44.888   7.353
10025POPC   NC363779  44.663   5.896   5.553
10025POPC   PO463780  44.677   5.825   5.853
10025POPC   GL163781  44.645   5.888   6.153
10025POPC   GL263782  44.626   5.732   6.153
10025POPC   C1A63783  44.676   5.902   6.453
10025POPC   D2A63784  44.676   5.917   6.753
10025POPC   C3A63785  44.670   5.895   7.053
10025POPC   C4A63786  44.621   5.862   7.353
10025POPC   C1B63787  44.585   5.657   6.453
10025POPC   C2B63788  44.617   5.660   6.753
10025POPC   C3B63789  44.619   5.618   7.053
10025POPC   C4B63790  44.630   5.625   7.353
10026POPC   NC363791  24.512   1.207   5.553
10026POPC   PO463792  24.441   1.242   5.853
10026POPC   GL163793  24.459   1.209   6.153
10026POPC   GL263794  24.440   1.348   6.153
10026POPC   C1A63795  24.451   1.187   6.453
10026POPC   D2A63796  24.486   1.218   6.753
10026POPC   C3A63797  24.454   1.244   7.053
10026POPC   C4A63798  24.457   1.182   7.353
10026POPC   C1B63799  24.385   1.490   6.453
10026POPC   C2B63800  24.408   1.463   6.753
10026POPC   C3B63801  24.415   1.413   7.053
10026POPC   C4B63802  24.404   1.451   7.353
10027POPC   NC363803   8.197  12.030   5.553
10027POPC   PO463804   8.176  12.116   5.853
10027POPC   GL163805   8.230  12.073   6.153
10027POPC   GL263806   8.152  11.969   6.153
10027POPC   C1A63807   8.191  12.084   6.453
10027POPC   D2A63808   8.173  12.074   6.753
10027POPC   C3A63809   8.177  12.042   7.053
10027POPC   C4A63810   8.158  12.066   7.353
10027POPC   C1B63811   8.001  11.903   6.453
10027POPC   C2B63812   8.007  11.844   6.753
10027POPC   C3B63813   8.091  11.846   7.053
10027POPC   C4B63814   7.998  11.884   7.353
10028POPC   NC363815  31.445   1.212   5.553
10028POPC   PO463816  31.508   1.223   5.853
10028POPC   GL163817  31.479   1.194   6.153
10028POPC   GL263818  31.525   1.046   6.153
10028POPC   C1A63819  31.489   1.258   6.453
10028POPC   D2A63820  31.468   1.171   6.753
10028POPC   C3A63821  31.501   1.177   7.053
10028POPC   C4A63822  31.425   1.247   7.353
10028POPC   C1B63823  31.563   0.948   6.453
10028POPC   C2B63824  31.574   0.963   6.753
10028POPC   C3B63825  31.555   1.017   7.053
10028POPC   C4B63826  31.562   0.962   7.353
10029POPC   NC363827  36.085  42.369   5.553
10029POPC   PO463828  36.101  42.363   5.853
10029POPC   GL163829  36.174  42.384   6.153
10029POPC   GL263830  36.207  42.465   6.153
10029POPC   C1A63831  36.150  42.312   6.453
10029POPC   D2A63832  36.172  42.290   6.753
10029POPC   C3A63833  36.108  42.365   7.053
10029POPC   C4A63834  36.160  42.286   7.353
10029POPC   C1B63835  36.233  42.577   6.453
10029POPC   C2B63836  36.244  42.532   6.753
10029POPC   C3B63837  36.246  42.500   7.053
10029POPC   C4B63838  36.242  42.565   7.353
10030POPC   NC363839  32.247  29.876   5.553
10030POPC   PO463840  32.242  29.896   5.853
10030POPC   GL163841  32.214  29.895   6.153
10030POPC   GL263842  32.138  30.041   6.153
10030POPC   C1A63843  32.218  29.872   6.453
10030POPC   D2A63844  32.243  29.942   6.753
10030POPC   C3A63845  32.240  29.884   7.053
10030POPC   C4A63846  32.261  29.935   7.353
10030POPC   C1B63847  32.035  30.114   6.453
10030POPC   C2B63848  32.006  30.036   6.753
10030POPC   C3B63849  32.096  30.093   7.053
10030POPC   C4B63850  32.058  30.041   7.353
10031POPC   NC363851  37.708   2.804   5.553
10031POPC   PO463852  37.725   2.733   5.853
10031POPC   GL163853  37.679   2.752   6.153
10031POPC   GL263854  37.563   2.694   6.153
10031POPC   C1A63855  37.728   2.813   6.453
10031POPC   D2A63856  37.722   2.717   6.753
10031POPC   C3A63857  37.711   2.789   7.053
10031POPC   C4A63858  37.645   2.815   7.353
10031POPC   C1B63859  37.406   2.731   6.453
10031POPC   C2B63860  37.450   2.770   6.753
10031POPC   C3B63861  37.391   2.718   7.053
10031POPC   C4B63862  37.401   2.749   7.353
10032POPC   NC363863  22.971  20.581   5.553
10032POPC   PO463864  22.981  20.628   5.853
10032POPC   GL163865  22.945  20.646   6.153
10032POPC   GL263866  23.005  20.745   6.153
10032POPC   C1A63867  22.942  20.651   6.453
10032POPC   D2A63868  22.913  20.647   6.753
10032POPC   C3A63869  22.984  20.640   7.053
10032POPC   C4A63870  22.918  20.657   7.353
10032POPC   C1B63871  23.112  20.809   6.453
10032POPC   C2B63872  23.054  20.823   6.753
10032POPC   C3B63873  23.089  20.796   7.053
10032POPC   C4B63874  23.067  20.852   7.353
10033POPC   NC363875  12.809   6.683   5.553
10033POPC   PO463876  12.877   6.636   5.853
10033POPC   GL163877  12.821   6.688   6.153
10033POPC   GL263878  12.708   6.571   6.153
10033POPC   C1A63879  12.842   6.641   6.453
10033POPC   D2A63880  12.884   6.644   6.753
10033POPC   C3A63881  12.882   6.676   7.053
10033POPC   C4A63882  12.856   6.691   7.353
10033POPC   C1B63883  12.651   6.470   6.453
10033POPC   C2B63884  12.658   6.523   6.753
10033POPC   C3B63885  12.676   6.492   7.053
10033POPC   C4B63886  12.682   6.521   7.353
10034POPC   NC363887  26.011  39.201   5.553
10034POPC   PO463888  26.061  39.188   5.853
10034POPC   GL163889  26.016  39.188   6.153
10034POPC   GL263890  25.883  39.205   6.153
10034POPC   C1A63891  26.056  39.187   6.453
10034POPC   D2A63892  25.995  39.221   6.753
10034POPC   C3A63893  26.044  39.230   7.053
10034POPC   C4A63894  26.044  39.183   7.353
10034POPC   C1B63895  25.784  39.114   6.453
10034POPC   C2B63896  25.833  39.099   6.753
10034POPC   C3B63897  25.761  39.111   7.053
10034POPC   C4B63898  25.795  39.153   7.353
10035POPC   NC363899  33.064  19.816   5.553
10035POPC   PO463900  33.028  19.856   5.853
10035POPC   GL163901  32.996  19.791   6.153
10035POPC   GL263902  33.087  19.735   6.153
10035POPC   C1A63903  32.986  19.876   6.453
10035POPC   D2A63904  33.013  19.843   6.753
10035POPC   C3A63905  33.068  19.872   7.053
10035POPC   C4A63906  33.021  19.826   7.353
10035POPC   C1B63907  33.282  19.730   6.453
10035POPC   C2B63908  33.213  19.697   6.753
10035POPC   C3B63909  33.265  19.731   7.053
10035POPC   C4B63910  33.278  19.728   7.353
10036POPC   NC363911  44.632  36.870   5.553
10036POPC   PO463912  44.641  36.859   5.853
10036POPC   GL163913  44.651  36.947   6.153
10036POPC   GL263914  44.527  36.939   6.153
10036POPC   C1A63915  44.696  36.917   6.453
10036POPC   D2A63916  44.681  36.857   6.753
10036POPC   C3A63917  44.648  36.870   7.053
10036POPC   C4A63918  44.621  36.891   7.353
10036POPC   C1B63919  44.373  36.936   6.453
10036POPC   C2B63920  44.435  36.888   6.753
10036POPC   C3B63921  44.364  36.894   7.053
10036POPC   C4B63922  44.420  36.954   7.353
10037POPC   NC363923   9.755   0.437   5.553
10037POPC   PO463924   9.747   0.459   5.853
10037POPC   GL163925   9.718   0.422   6.153
10037POPC   GL263926   9.719   0.531   6.153
10037POPC   C1A63927   9.727   0.391   6.453
10037POPC   D2A63928   9.775   0.394   6.753
10037POPC   C3A63929   9.797   0.470   7.053
10037POPC   C4A63930   9.738   0.478   7.353
10037POPC   C1B63931   9.638   0.655   6.453
10037POPC   C2B63932   9.646   0.625   6.753
10037POPC   C3B63933   9.581   0.690   7.053
10037POPC   C4B63934   9.656   0.689   7.353
10038POPC   NC363935  25.286   1.978   5.553
10038POPC   PO463936  25.256   1.994   5.853
10038POPC   GL163937  25.260   1.996   6.153
10038POPC   GL263938  25.337   1.904   6.153
10038POPC   C1A63939  25.291   2.039   6.453
10038POPC   D2A63940  25.297   1.978   6.753
10038POPC   C3A63941  25.227   2.016   7.053
10038POPC   C4A63942  25.251   1.990   7.353
10038POPC   C1B63943  25.360   1.710   6.453
10038POPC   C2B63944  25.310   1.732   6.753
10038POPC   C3B63945  25.331   1.784   7.053
10038POPC   C4B63946  25.328   1.736   7.353
10039POPC   NC363947  43.107  26.829   5.553
10039POPC   PO463948  43.108  26.771   5.853
10039POPC   GL163949  43.069  26.788   6.153
10039POPC   GL263950  43.076  26.763   6.153
10039POPC   C1A63951  43.143  26.832   6.453
10039POPC   D2A63952  43.155  26.857   6.753
10039POPC   C3A63953  43.101  26.790   7.053
10039POPC   C4A63954  43.085  26.830   7.353
10039POPC   C1B63955  42.979  26.660   6.453
10039POPC   C2B63956  43.006  26.572   6.753
10039POPC   C3B63957  42.957  26.599   7.053
10039POPC   C4B63958  42.938  26.580   7.353
10040POPC   NC363959  28.370  18.320   5.553
10040POPC   PO463960  28.419  18.252   5.853
10040POPC   GL163961  28.409  18.325   6.153
10040POPC   GL263962  28.294  18.204   6.153
10040POPC   C1A63963  28.366  18.296   6.453
10040POPC   D2A63964  28.392  18.245   6.753
10040POPC   C3A63965  28.417  18.320   7.053
10040POPC   C4A63966  28.405  18.325   7.353
10040POPC   C1B63967  28.154  18.214   6.453
10040POPC   C2B63968  28.158  18.222   6.753
10040POPC   C3B63969  28.143  18.158   7.053
10040POPC   C4B63970  28.178  18.163   7.353
10041POPC   NC363971  30.706  40.816   5.553
10041POPC   PO463972  30.740  40.769   5.853
10041POPC   GL163973  30.742  40.772   6.153
10041POPC   GL263974  30.826  40.823   6.153
10041POPC   C1A63975  30.649  40.772   6.453
10041POPC   D2A63976  30.708  40.821   6.753
10041POPC   C3A63977  30.709  40.831   7.053
10041POPC   C4A63978  30.661  40.759   7.353
10041POPC   C1B63979  30.968  40.739   6.453
10041POPC   C2B63980  30.928  40.819   6.753
10041POPC   C3B63981  30.992  40.745   7.053
10041POPC   C4B63982  30.965  40.800   7.353
10042POPC   NC363983  16.682  26.015   5.553
10042POPC   PO463984  16.706  25.997   5.853
10042POPC   GL163985  16.683  26.039   6.153
10042POPC   GL263986  16.602  25.987   6.153
10042POPC   C1A63987  16.775  26.082   6.453
10042POPC   D2A63988  16.766  26.014   6.753
10042POPC   C3A63989  16.753  26.083   7.053
10042POPC   C4A63990  16.761  26.039   7.353
10042POPC   C1B63991  16.527  25.975   6.453
10042POPC   C2B63992  16.517  25.990   6.753
10042POPC   C3B63993  16.508  25.975   7.053
10042POPC   C4B63994  16.462  26.008   7.353
10043POPC   NC363995  12.058  36.151   5.553
10043POPC   PO463996  12.054  36.145   5.853
10043POPC   GL163997  12.097  36.136   6.153
10043POPC   GL263998  11.993  35.988   6.153
10043POPC   C1A63999  12.107  36.140   6.453
10043POPC   D2A64000  12.122  36.153   6.753
10043POPC   C3A64001  12.066  36.177   7.053
10043POPC   C4A64002  12.050  36.149   7.353
10043POPC   C1B64003  11.952  35.937   6.453
10043POPC   C2B64004  11.975  35.896   6.753
10043POPC   C3B64005  11.948  35.935   7.053
10043POPC   C4B64006  12.003  35.858   7.353
10044POPC   NC364007   3.570   2.775   5.553
10044POPC   PO464008   3.525   2.757   5.853
10044POPC   GL164009   3.546   2.748   6.153
10044POPC   GL264010   3.568   2.688   6.153
10044POPC   C1A64011   3.546   2.801   6.453
10044POPC   D2A64012   3.495   2.730   6.753
10044POPC   C3A64013   3.520   2.757   7.053
10044POPC   C4A64014   3.556   2.796   7.353
10044POPC   C1B64015   3.590   2.562   6.453
10044POPC   C2B64016   3.660   2.565   6.753
10044POPC   C3B64017   3.599   2.503   7.053
10044POPC   C4B64018   3.653   2.497   7.353
10045POPC   NC364019  35.303  25.276   5.553
10045POPC   PO464020  35.330  25.220   5.853
10045POPC   GL164021  35.365  25.238   6.153
10045POPC   GL264022  35.349  25.429   6.153
10045POPC   C1A64023  35.362  25.298   6.453
10045POPC   D2A64024  35.396  25.241   6.753
10045POPC   C3A64025  35.401  25.265   7.053
10045POPC   C4A64026  35.377  25.311   7.353
10045POPC   C1B64027  35.383  25.490   6.453
10045POPC   C2B64028  35.418  25.548   6.753
10045POPC   C3B64029  35.378  25.466   7.053
10045POPC   C4B64030  35.402  25.507   7.353
10046POPC   NC364031  14.415   0.392   5.553
10046POPC   PO464032  14.408   0.447   5.853
10046POPC   GL164033  14.437   0.474   6.153
10046POPC   GL264034  14.571   0.455   6.153
10046POPC   C1A64035  14.385   0.468   6.453
10046POPC   D2A64036  14.359   0.475   6.753
10046POPC   C3A64037  14.391   0.451   7.053
10046POPC   C4A64038  14.397   0.394   7.353
10046POPC   C1B64039  14.659   0.449   6.453
10046POPC   C2B64040  14.662   0.418   6.753
10046POPC   C3B64041  14.688   0.401   7.053
10046POPC   C4B64042  14.614   0.422   7.353
10047POPC   NC364043  44.673  15.979   5.553
10047POPC   PO464044  44.675  15.993   5.853
10047POPC   GL164045  44.614  15.917   6.153
10047POPC   GL264046  44.738  15.872   6.153
10047POPC   C1A64047  44.649  15.962   6.453
10047POPC   D2A64048  44.680  15.971   6.753
10047POPC   C3A64049  44.639  15.971   7.053
10047POPC   C4A64050  44.614  15.910   7.353
10047POPC   C1B64051  44.932  15.879   6.453
10047POPC   C2B64052  44.880  15.891   6.753
10047POPC   C3B64053  44.890  15.830   7.053
10047POPC   C4B64054  44.876  15.894   7.353
10048POPC   NC364055  15.178  20.650   5.553
10048POPC   PO464056  15.168  20.637   5.853
10048POPC   GL164057  15.145  20.586   6.153
10048POPC   GL264058  15.273  20.552   6.153
10048POPC   C1A64059  15.206  20.597   6.453
10048POPC   D2A64060  15.146  20.583   6.753
10048POPC   C3A64061  15.224  20.591   7.053
10048POPC   C4A64062  15.172  20.655   7.353
10048POPC   C1B64063  15.399  20.425   6.453
10048POPC   C2B64064  15.349  20.408   6.753
10048POPC   C3B64065  15.345  20.488   7.053
10048POPC   C4B64066  15.325  20.472   7.353
10049POPC   NC364067  14.399  25.253   5.553
10049POPC   PO464068  14.449  25.224   5.853
10049POPC   GL164069  14.439  25.226   6.153
10049POPC   GL264070  14.386  25.130   6.153
10049POPC   C1A64071  14.373  25.297   6.453
10049POPC   D2A64072  14.413  25.223   6.753
10049POPC   C3A64073  14.362  25.265   7.053
10049POPC   C4A64074  14.391  25.237   7.353
10049POPC   C1B64075  14.404  25.059   6.453
10049POPC   C2B64076  14.379  25.008   6.753
10049POPC   C3B64077  14.447  25.053   7.053
10049POPC   C4B64078  14.432  24.994   7.353
10050POPC   NC364079  14.452   6.646   5.553
10050POPC   PO464080  14.379   6.639   5.853
10050POPC   GL164081  14.354   6.664   6.153
10050POPC   GL264082  14.393   6.719   6.153
10050POPC   C1A64083  14.406   6.654   6.453
10050POPC   D2A64084  14.405   6.647   6.753
10050POPC   C3A64085  14.429   6.626   7.053
10050POPC   C4A64086  14.443   6.646   7.353
10050POPC   C1B64087  14.477   6.929   6.453
10050POPC   C2B64088  14.458   6.850   6.753
10050POPC   C3B64089  14.435   6.892   7.053
10050POPC   C4B64090  14.426   6.875   7.353
10051POPC   NC364091  33.830  15.208   5.553
10051POPC   PO464092  33.778  15.214   5.853
10051POPC   GL164093  33.800  15.161   6.153
10051POPC   GL264094  33.714  15.120   6.153
10051POPC   C1A64095  33.821  15.217   6.453
10051POPC   D2A64096  33.800  15.132   6.753
10051POPC   C3A64097  33.775  15.199   7.053
10051POPC   C4A64098  33.822  15.192   7.353
10051POPC   C1B64099  33.576  15.018   6.453
10051POPC   C2B64100  33.615  15.063   6.753
10051POPC   C3B64101  33.622  15.028   7.053
10051POPC   C4B64102  33.561  14.989   7.353
10052POPC   NC364103  13.659  33.755   5.553
10052POPC   PO464104  13.587  33.827   5.853
10052POPC   GL164105  13.647  33.750   6.153
10052POPC   GL264106  13.487  33.762   6.153
10052POPC   C1A64107  13.655  33.802   6.453
10052POPC   D2A64108  13.631  33.802   6.753
10052POPC   C3A64109  13.595  33.802   7.053
10052POPC   C4A64110  13.588  33.816   7.353
10052POPC   C1B64111  13.398  33.804   6.453
10052POPC   C2B64112  13.422  33.752   6.753
10052POPC   C3B64113  13.388  33.767   7.053
10052POPC   C4B64114  13.340  33.750   7.353
10053POPC   NC364115  41.550  31.454   5.553
10053POPC   PO464116  41.560  31.476   5.853
10053POPC   GL164117  41.609  31.519   6.153
10053POPC   GL264118  41.534  31.549   6.153
10053POPC   C1A64119  41.607  31.455   6.453
10053POPC   D2A64120  41.524  31.500   6.753
10053POPC   C3A64121  41.519  31.522   7.053
10053POPC   C4A64122  41.598  31.441   7.353
10053POPC   C1B64123  41.457  31.698   6.453
10053POPC   C2B64124  41.455  31.720   6.753
10053POPC   C3B64125  41.525  31.763   7.053
10053POPC   C4B64126  41.472  31.706   7.353
10054POPC   NC364127  15.190  16.763   5.553
10054POPC   PO464128  15.189  16.738   5.853
10054POPC   GL164129  15.141  16.687   6.153
10054POPC   GL264130  15.241  16.837   6.153
10054POPC   C1A64131  15.214  16.689   6.453
10054POPC   D2A64132  15.159  16.718   6.753
10054POPC   C3A64133  15.204  16.776   7.053
10054POPC   C4A64134  15.192  16.739   7.353
10054POPC   C1B64135  15.261  16.993   6.453
10054POPC   C2B64136  15.268  16.980   6.753
10054POPC   C3B64137  15.310  16.987   7.053
10054POPC   C4B64138  15.279  16.971   7.353
10055POPC   NC364139  35.326   4.288   5.553
10055POPC   PO464140  35.320   4.362   5.853
10055POPC   GL164141  35.303   4.276   6.153
10055POPC   GL264142  35.262   4.240   6.153
10055POPC   C1A64143  35.398   4.359   6.453
10055POPC   D2A64144  35.324   4.310   6.753
10055POPC   C3A64145  35.342   4.296   7.053
10055POPC   C4A64146  35.307   4.279   7.353
10055POPC   C1B64147  35.084   4.233   6.453
10055POPC   C2B64148  35.156   4.215   6.753
10055POPC   C3B64149  35.143   4.303   7.053
10055POPC   C4B64150  35.066   4.253   7.353
10056POPC   NC364151   5.885  28.387   5.553
10056POPC   PO464152   5.901  28.377   5.853
10056POPC   GL164153   5.828  28.375   6.153
10056POPC   GL264154   6.043  28.347   6.153
10056POPC   C1A64155   5.878  28.360   6.453
10056POPC   D2A64156   5.868  28.347   6.753
10056POPC   C3A64157   5.916  28.333   7.053
10056POPC   C4A64158   5.833  28.335   7.353
10056POPC   C1B64159   6.086  28.383   6.453
10056POPC   C2B64160   6.118  28.391   6.753
10056POPC   C3B64161   6.142  28.334   7.053
10056POPC   C4B64162   6.161  28.402   7.353
10057POPC   NC364163  23.720  17.533   5.553
10057POPC   PO464164  23.717  17.500   5.853
10057POPC   GL164165  23.702  17.475   6.153
10057POPC   GL264166  23.644  17.500   6.153
10057POPC   C1A64167  23.675  17.529   6.453
10057POPC   D2A64168  23.754  17.530   6.753
10057POPC   C3A64169  23.715  17.466   7.053
10057POPC   C4A64170  23.682  17.485   7.353
10057POPC   C1B64171  23.488  17.424   6.453
10057POPC   C2B64172  23.474  17.382   6.753
10057POPC   C3B64173  23.442  17.417   7.053
10057POPC   C4B64174  23.531  17.357   7.353
10058POPC   NC364175   5.054  22.910   5.553
10058POPC   PO464176   5.070  22.977   5.853
10058POPC   GL164177   5.130  22.957   6.153
10058POPC   GL264178   5.254  22.901   6.153
10058POPC   C1A64179   5.058  22.967   6.453
10058POPC   D2A64180   5.067  22.897   6.753
10058POPC   C3A64181   5.116  22.914   7.053
10058POPC   C4A64182   5.053  22.937   7.353
10058POPC   C1B64183   5.360  22.821   6.453
10058POPC   C2B64184   5.285  22.814   6.753
10058POPC   C3B64185   5.300  22.850   7.053
10058POPC   C4B64186   5.307  22.878   7.353
10059POPC   NC364187  11.345  23.757   5.553
10059POPC   PO464188  11.312  23.665   5.853
10059POPC   GL164189  11.300  23.728   6.153
10059POPC   GL264190  11.258  23.583   6.153
10059POPC   C1A64191  11.290  23.668   6.453
10059POPC   D2A64192  11.348  23.696   6.753
10059POPC   C3A64193  11.326  23.701   7.053
10059POPC   C4A64194  11.256  23.749   7.353
10059POPC   C1B64195  11.278  23.446   6.453
10059POPC   C2B64196  11.269  23.440   6.753
10059POPC   C3B64197  11.238  23.430   7.053
10059POPC   C4B64198  11.244  23.451   7.353
10060POPC   NC364199  38.502   6.614   5.553
10060POPC   PO464200  38.466   6.690   5.853
10060POPC   GL164201  38.437   6.632   6.153
10060POPC   GL264202  38.568   6.770   6.153
10060POPC   C1A64203  38.423   6.607   6.453
10060POPC   D2A64204  38.470   6.600   6.753
10060POPC   C3A64205  38.482   6.632   7.053
10060POPC   C4A64206  38.480   6.668   7.353
10060POPC   C1B64207  38.601   6.865   6.453
10060POPC   C2B64208  38.640   6.891   6.753
10060POPC   C3B64209  38.560   6.890   7.053
10060POPC   C4B64210  38.648   6.858   7.353
10061POPC   NC364211  32.223  42.321   5.553
10061POPC   PO464212  32.226  42.313   5.853
10061POPC   GL164213  32.269  42.368   6.153
10061POPC   GL264214  32.255  42.186   6.153
10061POPC   C1A64215  32.202  42.335   6.453
10061POPC   D2A64216  32.283  42.326   6.753
10061POPC   C3A64217  32.212  42.369   7.053
10061POPC   C4A64218  32.286  42.331   7.353
10061POPC   C1B64219  32.278  42.107   6.453
10061POPC   C2B64220  32.257  42.114   6.753
10061POPC   C3B64221  32.328  42.047   7.053
10061POPC   C4B64222  32.261  42.090   7.353
10062POPC   NC364223   8.985   2.015   5.553
10062POPC   PO464224   9.017   2.023   5.853
10062POPC   GL164225   8.989   2.006   6.153
10062POPC   GL264226   9.022   2.039   6.153
10062POPC   C1A64227   9.012   1.957   6.453
10062POPC   D2A64228   8.954   1.971   6.753
10062POPC   C3A64229   8.942   1.971   7.053
10062POPC   C4A64230   8.947   1.992   7.353
10062POPC   C1B64231   9.108   2.210   6.453
10062POPC   C2B64232   9.096   2.176   6.753
10062POPC   C3B64233   9.102   2.185   7.053
10062POPC   C4B64234   9.160   2.136   7.353
10063POPC   NC364235  43.846  26.038   5.553
10063POPC   PO464236  43.865  26.013   5.853
10063POPC   GL164237  43.916  26.014   6.153
10063POPC   GL264238  43.821  26.204   6.153
10063POPC   C1A64239  43.849  26.072   6.453
10063POPC   D2A64240  43.897  26.020   6.753
10063POPC   C3A64241  43.864  26.034   7.053
10063POPC   C4A64242  43.853  26.030   7.353
10063POPC   C1B64243  43.754  26.278   6.453
10063POPC   C2B64244  43.808  26.310   6.753
10063POPC   C3B64245  43.755  26.309   7.053
10063POPC   C4B64246  43.789  26.252   7.353
10064POPC   NC364247  29.096  40.055   5.553
10064POPC   PO464248  29.123  39.970   5.853
10064POPC   GL164249  29.133  39.980   6.153
10064POPC   GL264250  28.979  39.930   6.153
10064POPC   C1A64251  29.124  39.957   6.453
10064POPC   D2A64252  29.131  40.034   6.753
10064POPC   C3A64253  29.130  40.004   7.053
10064POPC   C4A64254  29.099  39.998   7.353
10064POPC   C1B64255  28.900  39.937   6.453
10064POPC   C2B64256  28.873  39.937   6.753
10064POPC   C3B64257  28.922  39.976   7.053
10064POPC   C4B64258  28.950  39.886   7.353
10065POPC   NC364259  42.384   0.396   5.553
10065POPC   PO464260  42.287   0.435   5.853
10065POPC   GL164261  42.384   0.422   6.153
10065POPC   GL264262  42.227   0.517   6.153
10065POPC   C1A64263  42.358   0.410   6.453
10065POPC   D2A64264  42.344   0.393   6.753
10065POPC   C3A64265  42.353   0.401   7.053
10065POPC   C4A64266  42.323   0.444   7.353
10065POPC   C1B64267  42.198   0.633   6.453
10065POPC   C2B64268  42.171   0.628   6.753
10065POPC   C3B64269  42.201   0.657   7.053
10065POPC   C4B64270  42.178   0.632   7.353
10066POPC   NC364271   9.764  40.019   5.553
10066POPC   PO464272   9.743  40.004   5.853
10066POPC   GL164273   9.704  39.982   6.153
10066POPC   GL264274   9.840  40.038   6.153
10066POPC   C1A64275   9.760  39.976   6.453
10066POPC   D2A64276   9.723  40.022   6.753
10066POPC   C3A64277   9.710  39.992   7.053
10066POPC   C4A64278   9.712  40.023   7.353
10066POPC   C1B64279   9.923  40.127   6.453
10066POPC   C2B64280   9.995  40.201   6.753
10066POPC   C3B64281   9.970  40.130   7.053
10066POPC   C4B64282   9.980  40.156   7.353
10067POPC   NC364283  14.444  23.750   5.553
10067POPC   PO464284  14.399  23.689   5.853
10067POPC   GL164285  14.436  23.666   6.153
10067POPC   GL264286  14.243  23.798   6.153
10067POPC   C1A64287  14.441  23.688   6.453
10067POPC   D2A64288  14.395  23.677   6.753
10067POPC   C3A64289  14.365  23.704   7.053
10067POPC   C4A64290  14.407  23.748   7.353
10067POPC   C1B64291  14.175  23.843   6.453
10067POPC   C2B64292  14.205  23.793   6.753
10067POPC   C3B64293  14.187  23.821   7.053
10067POPC   C4B64294  14.185  23.811   7.353
10068POPC   NC364295  39.243  18.269   5.553
10068POPC   PO464296  39.243  18.309   5.853
10068POPC   GL164297  39.259  18.303   6.153
10068POPC   GL264298  39.100  18.299   6.153
10068POPC   C1A64299  39.244  18.262   6.453
10068POPC   D2A64300  39.194  18.295   6.753
10068POPC   C3A64301  39.223  18.283   7.053
10068POPC   C4A64302  39.239  18.251   7.353
10068POPC   C1B64303  39.009  18.371   6.453
10068POPC   C2B64304  38.969  18.398   6.753
10068POPC   C3B64305  38.986  18.383   7.053
10068POPC   C4B64306  39.001  18.390   7.353
10069POPC   NC364307  20.653  30.723   5.553
10069POPC   PO464308  20.561  30.726   5.853
10069POPC   GL164309  20.615  30.703   6.153
10069POPC   GL264310  20.483  30.660   6.153
10069POPC   C1A64311  20.608  30.682   6.453
10069POPC   D2A64312  20.561  30.684   6.753
10069POPC   C3A64313  20.651  30.673   7.053
10069POPC   C4A64314  20.602  30.721   7.353
10069POPC   C1B64315  20.327  30.676   6.453
10069POPC   C2B64316  20.370  30.719   6.753
10069POPC   C3B64317  20.367  30.760   7.053
10069POPC   C4B64318  20.386  30.754   7.353
10070POPC   NC364319  22.903  21.436   5.553
10070POPC   PO464320  22.961  21.389   5.853
10070POPC   GL164321  22.951  21.361   6.153
10070POPC   GL264322  22.790  21.322   6.153
10070POPC   C1A64323  22.949  21.400   6.453
10070POPC   D2A64324  22.909  21.421   6.753
10070POPC   C3A64325  22.940  21.370   7.053
10070POPC   C4A64326  22.904  21.364   7.353
10070POPC   C1B64327  22.737  21.269   6.453
10070POPC   C2B64328  22.771  21.235   6.753
10070POPC   C3B64329  22.740  21.202   7.053
10070POPC   C4B64330  22.732  21.265   7.353
10071POPC   NC364331  30.679  18.290   5.553
10071POPC   PO464332  30.733  18.325   5.853
10071POPC   GL164333  30.716  18.237   6.153
10071POPC   GL264334  30.797  18.199   6.153
10071POPC   C1A64335  30.743  18.312   6.453
10071POPC   D2A64336  30.664  18.247   6.753
10071POPC   C3A64337  30.729  18.233   7.053
10071POPC   C4A64338  30.703  18.275   7.353
10071POPC   C1B64339  30.804  18.048   6.453
10071POPC   C2B64340  30.854  18.048   6.753
10071POPC   C3B64341  30.847  18.039   7.053
10071POPC   C4B64342  30.865  18.136   7.353
10072POPC   NC364343  12.086  44.660   5.553
10072POPC   PO464344  12.057  44.625   5.853
10072POPC   GL164345  12.071  44.626   6.153
10072POPC   GL264346  12.087  44.762   6.153
10072POPC   C1A64347  12.102  44.685   6.453
10072POPC   D2A64348  12.112  44.672   6.753
10072POPC   C3A64349  12.116  44.692   7.053
10072POPC   C4A64350  12.035  44.647   7.353
10072POPC   C1B64351  12.052  44.865   6.453
10072POPC   C2B64352  12.006  44.918   6.753
10072POPC   C3B64353  12.055  44.899   7.053
10072POPC   C4B64354  12.005  44.898   7.353
10073POPC   NC364355  42.322   7.394   5.553
10073POPC   PO464356  42.328   7.463   5.853
10073POPC   GL164357  42.377   7.463   6.153
10073POPC   GL264358  42.224   7.500   6.153
10073POPC   C1A64359  42.357   7.372   6.453
10073POPC   D2A64360  42.310   7.407   6.753
10073POPC   C3A64361  42.285   7.389   7.053
10073POPC   C4A64362  42.373   7.388   7.353
10073POPC   C1B64363  42.160   7.592   6.453
10073POPC   C2B64364  42.197   7.653   6.753
10073POPC   C3B64365  42.160   7.574   7.053
10073POPC   C4B64366  42.180   7.646   7.353
10074POPC   NC364367  20.629  37.698   5.553
10074POPC   PO464368  20.585  37.700   5.853
10074POPC   GL164369  20.592  37.684   6.153
10074POPC   GL264370  20.494  37.729   6.153
10074POPC   C1A64371  20.639  37.634   6.453
10074POPC   D2A64372  20.565  37.686   6.753
10074POPC   C3A64373  20.618  37.644   7.053
10074POPC   C4A64374  20.597  37.727   7.353
10074POPC   C1B64375  20.465  37.879   6.453
10074POPC   C2B64376  20.438  37.902   6.753
10074POPC   C3B64377  20.428  37.896   7.053
10074POPC   C4B64378  20.404  37.877   7.353
10075POPC   NC364379  23.708  28.411   5.553
10075POPC   PO464380  23.741  28.396   5.853
10075POPC   GL164381  23.688  28.372   6.153
10075POPC   GL264382  23.632  28.422   6.153
10075POPC   C1A64383  23.740  28.393   6.453
10075POPC   D2A64384  23.716  28.393   6.753
10075POPC   C3A64385  23.730  28.319   7.053
10075POPC   C4A64386  23.694  28.340   7.353
10075POPC   C1B64387  23.448  28.446   6.453
10075POPC   C2B64388  23.471  28.489   6.753
10075POPC   C3B64389  23.484  28.460   7.053
10075POPC   C4B64390  23.482  28.517   7.353
10076POPC   NC364391  13.584  30.742   5.553
10076POPC   PO464392  13.608  30.740   5.853
10076POPC   GL164393  13.653  30.700   6.153
10076POPC   GL264394  13.568  30.646   6.153
10076POPC   C1A64395  13.594  30.676   6.453
10076POPC   D2A64396  13.641  30.742   6.753
10076POPC   C3A64397  13.652  30.663   7.053
10076POPC   C4A64398  13.652  30.698   7.353
10076POPC   C1B64399  13.396  30.540   6.453
10076POPC   C2B64400  13.477  30.495   6.753
10076POPC   C3B64401  13.440  30.511   7.053
10076POPC   C4B64402  13.415  30.554   7.353
10077POPC   NC364403   9.786  22.984   5.553
10077POPC   PO464404   9.763  22.950   5.853
10077POPC   GL164405   9.796  22.919   6.153
10077POPC   GL264406   9.661  22.897   6.153
10077POPC   C1A64407   9.752  22.979   6.453
10077POPC   D2A64408   9.778  22.952   6.753
10077POPC   C3A64409   9.703  22.933   7.053
10077POPC   C4A64410   9.759  22.913   7.353
10077POPC   C1B64411   9.545  22.864   6.453
10077POPC   C2B64412   9.541  22.854   6.753
10077POPC   C3B64413   9.505  22.897   7.053
10077POPC   C4B64414   9.559  22.893   7.353
10078POPC   NC364415  44.675   9.021   5.553
10078POPC   PO464416  44.698   8.938   5.853
10078POPC   GL164417  44.630   8.977   6.153
10078POPC   GL264418  44.563   9.016   6.153
10078POPC   C1A64419  44.642   8.956   6.453
10078POPC   D2A64420  44.685   8.966   6.753
10078POPC   C3A64421  44.684   8.974   7.053
10078POPC   C4A64422  44.683   9.011   7.353
10078POPC   C1B64423  44.463   9.089   6.453
10078POPC   C2B64424  44.408   9.065   6.753
10078POPC   C3B64425  44.445   8.996   7.053
10078POPC   C4B64426  44.402   9.051   7.353
10079POPC   NC364427  18.297   4.319   5.553
10079POPC   PO464428  18.247   4.303   5.853
10079POPC   GL164429  18.303   4.314   6.153
10079POPC   GL264430  18.325   4.220   6.153
10079POPC   C1A64431  18.255   4.327   6.453
10079POPC   D2A64432  18.258   4.320   6.753
10079POPC   C3A64433  18.302   4.309   7.053
10079POPC   C4A64434  18.271   4.335   7.353
10079POPC   C1B64435  18.321   4.116   6.453
10079POPC   C2B64436  18.303   4.067   6.753
10079POPC   C3B64437  18.295   4.082   7.053
10079POPC   C4B64438  18.301   4.097   7.353
10080POPC   NC364439  39.984  32.292   5.553
10080POPC   PO464440  39.973  32.296   5.853
10080POPC   GL164441  39.989  32.234   6.153
10080POPC   GL264442  40.178  32.220   6.153
10080POPC   C1A64443  40.031  32.288   6.453
10080POPC   D2A64444  39.979  32.256   6.753
10080POPC   C3A64445  40.051  32.210   7.053
10080POPC   C4A64446  40.052  32.288   7.353
10080POPC   C1B64447  40.270  32.272   6.453
10080POPC   C2B64448  40.226  32.318   6.753
10080POPC   C3B64449  40.218  32.332   7.053
10080POPC   C4B64450  40.268  32.321   7.353
10081POPC   NC364451  22.154  43.086   5.553
10081POPC   PO464452  22.128  43.122   5.853
10081POPC   GL164453  22.158  43.097   6.153
10081POPC   GL264454  22.249  43.102   6.153
10081POPC   C1A64455  22.172  43.091   6.453
10081POPC   D2A64456  22.158  43.074   6.753
10081POPC   C3A64457  22.186  43.131   7.053
10081POPC   C4A64458  22.175  43.082   7.353
10081POPC   C1B64459  22.455  43.120   6.453
10081POPC   C2B64460  22.389  43.193   6.753
10081POPC   C3B64461  22.427  43.108   7.053
10081POPC   C4B64462  22.413  43.111   7.353
10082POPC   NC364463   1.251  20.628   5.553
10082POPC   PO464464   1.198  20.578   5.853
10082POPC   GL164465   1.221  20.579   6.153
10082POPC   GL264466   1.321  20.670   6.153
10082POPC   C1A64467   1.242  20.580   6.453
10082POPC   D2A64468   1.176  20.602   6.753
10082POPC   C3A64469   1.184  20.655   7.053
10082POPC   C4A64470   1.208  20.572   7.353
10082POPC   C1B64471   1.370  20.795   6.453
10082POPC   C2B64472   1.388  20.789   6.753
10082POPC   C3B64473   1.365  20.762   7.053
10082POPC   C4B64474   1.428  20.770   7.353
10083POPC   NC364475   0.396  29.173   5.553
10083POPC   PO464476   0.441  29.122   5.853
10083POPC   GL164477   0.425  29.113   6.153
10083POPC   GL264478   0.495  29.198   6.153
10083POPC   C1A64479   0.394  29.142   6.453
10083POPC   D2A64480   0.407  29.095   6.753
10083POPC   C3A64481   0.395  29.186   7.053
10083POPC   C4A64482   0.403  29.181   7.353
10083POPC   C1B64483   0.670  29.285   6.453
10083POPC   C2B64484   0.683  29.272   6.753
10083POPC   C3B64485   0.631  29.272   7.053
10083POPC   C4B64486   0.693  29.307   7.353
10084POPC   NC364487  41.550   9.750   5.553
10084POPC   PO464488  41.597   9.706   5.853
10084POPC   GL164489  41.595   9.761   6.153
10084POPC   GL264490  41.595   9.665   6.153
10084POPC   C1A64491  41.594   9.744   6.453
10084POPC   D2A64492  41.558   9.735   6.753
10084POPC   C3A64493  41.531   9.765   7.053
10084POPC   C4A64494  41.608   9.713   7.353
10084POPC   C1B64495  41.635   9.507   6.453
10084POPC   C2B64496  41.601   9.509   6.753
10084POPC   C3B64497  41.610   9.531   7.053
10084POPC   C4B64498  41.605   9.542   7.353
10085POPC   NC364499  25.284  22.183   5.553
10085POPC   PO464500  25.221  22.135   5.853
10085POPC   GL164501  25.280  22.154   6.153
10085POPC   GL264502  25.295  22.010   6.153
10085POPC   C1A64503  25.281  22.149   6.453
10085POPC   D2A64504  25.269  22.148   6.753
10085POPC   C3A64505  25.267  22.208   7.053
10085POPC   C4A64506  25.252  22.170   7.353
10085POPC   C1B64507  25.284  21.902   6.453
10085POPC   C2B64508  25.275  21.923   6.753
10085POPC   C3B64509  25.353  21.874   7.053
10085POPC   C4B64510  25.341  21.938   7.353
10086POPC   NC364511  26.772   7.413   5.553
10086POPC   PO464512  26.857   7.386   5.853
10086POPC   GL164513  26.780   7.377   6.153
10086POPC   GL264514  26.760   7.347   6.153
10086POPC   C1A64515  26.788   7.371   6.453
10086POPC   D2A64516  26.810   7.396   6.753
10086POPC   C3A64517  26.803   7.449   7.053
10086POPC   C4A64518  26.822   7.386   7.353
10086POPC   C1B64519  26.652   7.252   6.453
10086POPC   C2B64520  26.628   7.216   6.753
10086POPC   C3B64521  26.636   7.209   7.053
10086POPC   C4B64522  26.633   7.273   7.353
10087POPC   NC364523  26.861  44.649   5.553
10087POPC   PO464524  26.836  44.639   5.853
10087POPC   GL164525  26.844  44.666   6.153
10087POPC   GL264526  26.933  44.550   6.153
10087POPC   C1A64527  26.815  44.623   6.453
10087POPC   D2A64528  26.817  44.692   6.753
10087POPC   C3A64529  26.812  44.614   7.053
10087POPC   C4A64530  26.811  44.636   7.353
10087POPC   C1B64531  26.983  44.470   6.453
10087POPC   C2B64532  27.015  44.513   6.753
10087POPC   C3B64533  27.004  44.528   7.053
10087POPC   C4B64534  27.043  44.481   7.353
10088POPC   NC364535   8.209   4.338   5.553
10088POPC   PO464536   8.159   4.340   5.853
10088POPC   GL164537   8.185   4.309   6.153
10088POPC   GL264538   8.109   4.375   6.153
10088POPC   C1A64539   8.170   4.367   6.453
10088POPC   D2A64540   8.199   4.360   6.753
10088POPC   C3A64541   8.177   4.305   7.053
10088POPC   C4A64542   8.189   4.357   7.353
10088POPC   C1B64543   7.989   4.513   6.453
10088POPC   C2B64544   8.003   4.532   6.753
10088POPC   C3B64545   8.057   4.504   7.053
10088POPC   C4B64546   7.972   4.505   7.353
10089POPC   NC364547  29.191   6.636   5.553
10089POPC   PO464548  29.098   6.653   5.853
10089POPC   GL164549  29.171   6.684   6.153
10089POPC   GL264550  29.220   6.723   6.153
10089POPC   C1A64551  29.158   6.626   6.453
10089POPC   D2A64552  29.126   6.668   6.753
10089POPC   C3A64553  29.143   6.598   7.053
10089POPC   C4A64554  29.128   6.693   7.353
10089POPC   C1B64555  29.383   6.748   6.453
10089POPC   C2B64556  29.361   6.749   6.753
10089POPC   C3B64557  29.378   6.742   7.053
10089POPC   C4B64558  29.354   6.732   7.353
10090POPC   NC364559  36.104  36.946   5.553
10090POPC   PO464560  36.167  36.925   5.853
10090POPC   GL164561  36.089  36.862   6.153
10090POPC   GL264562  36.253  36.934   6.153
10090POPC   C1A64563  36.114  36.942   6.453
10090POPC   D2A64564  36.155  36.918   6.753
10090POPC   C3A64565  36.121  36.859   7.053
10090POPC   C4A64566  36.107  36.911   7.353
10090POPC   C1B64567  36.390  36.948   6.453
10090POPC   C2B64568  36.395  36.965   6.753
10090POPC   C3B64569  36.347  36.940   7.053
10090POPC   C4B64570  36.409  36.992   7.353
10091POPC   NC364571  43.918  32.256   5.553
10091POPC   PO464572  43.928  32.221   5.853
10091POPC   GL164573  43.859  32.231   6.153
10091POPC   GL264574  43.737  32.300   6.153
10091POPC   C1A64575  43.907  32.298   6.453
10091POPC   D2A64576  43.916  32.280   6.753
10091POPC   C3A64577  43.933  32.238   7.053
10091POPC   C4A64578  43.852  32.236   7.353
10091POPC   C1B64579  43.640  32.240   6.453
10091POPC   C2B64580  43.659  32.289   6.753
10091POPC   C3B64581  43.598  32.308   7.053
10091POPC   C4B64582  43.594  32.278   7.353
10092POPC   NC364583  21.427  29.935   5.553
10092POPC   PO464584  21.422  29.879   5.853
10092POPC   GL164585  21.392  29.888   6.153
10092POPC   GL264586  21.476  29.822   6.153
10092POPC   C1A64587  21.404  29.916   6.453
10092POPC   D2A64588  21.400  29.965   6.753
10092POPC   C3A64589  21.396  29.939   7.053
10092POPC   C4A64590  21.408  29.947   7.353
10092POPC   C1B64591  21.551  29.715   6.453
10092POPC   C2B64592  21.470  29.677   6.753
10092POPC   C3B64593  21.534  29.702   7.053
10092POPC   C4B64594  21.538  29.696   7.353
10093POPC   NC364595  17.524  31.433   5.553
10093POPC   PO464596  17.457  31.452   5.853
10093POPC   GL164597  17.483  31.481   6.153
10093POPC   GL264598  17.430  31.375   6.153
10093POPC   C1A64599  17.520  31.461   6.453
10093POPC   D2A64600  17.471  31.491   6.753
10093POPC   C3A64601  17.555  31.455   7.053
10093POPC   C4A64602  17.519  31.516   7.353
10093POPC   C1B64603  17.362  31.296   6.453
10093POPC   C2B64604  17.277  31.277   6.753
10093POPC   C3B64605  17.361  31.270   7.053
10093POPC   C4B64606  17.355  31.308   7.353
10094POPC   NC364607  29.099  42.286   5.553
10094POPC   PO464608  29.112  42.374   5.853
10094POPC   GL164609  29.188  42.348   6.153
10094POPC   GL264610  29.078  42.200   6.153
10094POPC   C1A64611  29.151  42.382   6.453
10094POPC   D2A64612  29.155  42.326   6.753
10094POPC   C3A64613  29.110  42.370   7.053
10094POPC   C4A64614  29.107  42.285   7.353
10094POPC   C1B64615  29.089  42.153   6.453
10094POPC   C2B64616  29.011  42.117   6.753
10094POPC   C3B64617  28.999  42.086   7.053
10094POPC   C4B64618  29.070  42.144   7.353
10095POPC   NC364619  32.278  17.473   5.553
10095POPC   PO464620  32.272  17.537   5.853
10095POPC   GL164621  32.294  17.554   6.153
10095POPC   GL264622  32.128  17.648   6.153
10095POPC   C1A64623  32.280  17.499   6.453
10095POPC   D2A64624  32.218  17.526   6.753
10095POPC   C3A64625  32.283  17.544   7.053
10095POPC   C4A64626  32.205  17.523   7.353
10095POPC   C1B64627  32.042  17.723   6.453
10095POPC   C2B64628  32.062  17.686   6.753
10095POPC   C3B64629  32.091  17.650   7.053
10095POPC   C4B64630  32.084  17.688   7.353
10096POPC   NC364631  40.796  11.289   5.553
10096POPC   PO464632  40.817  11.296   5.853
10096POPC   GL164633  40.798  11.348   6.153
10096POPC   GL264634  40.931  11.222   6.153
10096POPC   C1A64635  40.829  11.302   6.453
10096POPC   D2A64636  40.817  11.251   6.753
10096POPC   C3A64637  40.763  11.338   7.053
10096POPC   C4A64638  40.759  11.343   7.353
10096POPC   C1B64639  41.007  11.178   6.453
10096POPC   C2B64640  41.007  11.173   6.753
10096POPC   C3B64641  41.016  11.209   7.053
10096POPC   C4B64642  40.991  11.217   7.353
10097POPC   NC364643  36.156  19.087   5.553
10097POPC   PO464644  36.147  19.079   5.853
10097POPC   GL164645  36.135  19.016   6.153
10097POPC   GL264646  36.105  18.901   6.153
10097POPC   C1A64647  36.132  19.037   6.453
10097POPC   D2A64648  36.167  19.034   6.753
10097POPC   C3A64649  36.087  19.030   7.053
10097POPC   C4A64650  36.118  19.098   7.353
10097POPC   C1B64651  36.153  18.818   6.453
10097POPC   C2B64652  36.155  18.847   6.753
10097POPC   C3B64653  36.140  18.803   7.053
10097POPC   C4B64654  36.093  18.775   7.353
10098POPC   NC364655  19.823   4.269   5.553
10098POPC   PO464656  19.793   4.317   5.853
10098POPC   GL164657  19.799   4.274   6.153
10098POPC   GL264658  19.862   4.474   6.153
10098POPC   C1A64659  19.827   4.285   6.453
10098POPC   D2A64660  19.844   4.367   6.753
10098POPC   C3A64661  19.844   4.284   7.053
10098POPC   C4A64662  19.807   4.337   7.353
10098POPC   C1B64663  19.838   4.566   6.453
10098POPC   C2B64664  19.859   4.573   6.753
10098POPC   C3B64665  19.812   4.593   7.053
10098POPC   C4B64666  19.871   4.586   7.353
10099POPC   NC364667  13.586  26.050   5.553
10099POPC   PO464668  13.590  26.085   5.853
10099POPC   GL164669  13.639  26.032   6.153
10099POPC   GL264670  13.546  26.063   6.153
10099POPC   C1A64671  13.599  25.997   6.453
10099POPC   D2A64672  13.662  26.086   6.753
10099POPC   C3A64673  13.606  26.053   7.053
10099POPC   C4A64674  13.655  26.009   7.353
10099POPC   C1B64675  13.365  26.067   6.453
10099POPC   C2B64676  13.415  25.989   6.753
10099POPC   C3B64677  13.372  26.014   7.053
10099POPC   C4B64678  13.363  26.076   7.353
10100POPC   NC364679   6.605   8.215   5.553
10100POPC   PO464680   6.651   8.198   5.853
10100POPC   GL164681   6.614   8.173   6.153
10100POPC   GL264682   6.660   8.095   6.153
10100POPC   C1A64683   6.609   8.184   6.453
10100POPC   D2A64684   6.684   8.173   6.753
10100POPC   C3A64685   6.654   8.169   7.053
10100POPC   C4A64686   6.646   8.171   7.353
10100POPC   C1B64687   6.672   7.976   6.453
10100POPC   C2B64688   6.608   7.922   6.753
10100POPC   C3B64689   6.700   7.969   7.053
10100POPC   C4B64690   6.673   7.996   7.353
10101POPC   NC364691  12.086   7.386   5.553
10101POPC   PO464692  12.051   7.427   5.853
10101POPC   GL164693  12.086   7.447   6.153
10101POPC   GL264694  12.016   7.264   6.153
10101POPC   C1A64695  12.092   7.424   6.453
10101POPC   D2A64696  12.034   7.376   6.753
10101POPC   C3A64697  12.108   7.376   7.053
10101POPC   C4A64698  12.063   7.441   7.353
10101POPC   C1B64699  12.027   7.184   6.453
10101POPC   C2B64700  12.022   7.234   6.753
10101POPC   C3B64701  11.979   7.163   7.053
10101POPC   C4B64702  11.984   7.205   7.353
10102POPC   NC364703  22.918  19.047   5.553
10102POPC   PO464704  22.933  19.038   5.853
10102POPC   GL164705  22.942  19.023   6.153
10102POPC   GL264706  23.006  19.156   6.153
10102POPC   C1A64707  22.955  19.017   6.453
10102POPC   D2A64708  22.963  19.056   6.753
10102POPC   C3A64709  22.927  19.065   7.053
10102POPC   C4A64710  22.967  19.047   7.353
10102POPC   C1B64711  23.147  19.200   6.453
10102POPC   C2B64712  23.069  19.217   6.753
10102POPC   C3B64713  23.134  19.209   7.053
10102POPC   C4B64714  23.114  19.199   7.353
10103POPC   NC364715   1.244  26.794   5.553
10103POPC   PO464716   1.260  26.858   5.853
10103POPC   GL164717   1.167  26.793   6.153
10103POPC   GL264718   1.107  26.948   6.153
10103POPC   C1A64719   1.247  26.787   6.453
10103POPC   D2A64720   1.197  26.772   6.753
10103POPC   C3A64721   1.263  26.857   7.053
10103POPC   C4A64722   1.201  26.778   7.353
10103POPC   C1B64723   1.045  26.994   6.453
10103POPC   C2B64724   1.064  27.024   6.753
10103POPC   C3B64725   1.060  26.979   7.053
10103POPC   C4B64726   1.076  26.996   7.353
10104POPC   NC364727  33.779  15.969   5.553
10104POPC   PO464728  33.809  15.910   5.853
10104POPC   GL164729  33.779  15.923   6.153
10104POPC   GL264730  33.897  15.839   6.153
10104POPC   C1A64731  33.849  15.940   6.453
10104POPC   D2A64732  33.769  15.994   6.753
10104POPC   C3A64733  33.767  15.941   7.053
10104POPC   C4A64734  33.804  15.958   7.353
10104POPC   C1B64735  33.950  15.733   6.453
10104POPC   C2B64736  33.976  15.768   6.753
10104POPC   C3B64737  33.946  15.748   7.053
10104POPC   C4B64738  33.970  15.763   7.353
10105POPC   NC364739   1.255  44.708   5.553
10105POPC   PO464740   1.212  44.684   5.853
10105POPC   GL164741   1.264  44.677   6.153
10105POPC   GL264742   1.178  44.545   6.153
10105POPC   C1A64743   1.230  44.669   6.453
10105POPC   D2A64744   1.209  44.692   6.753
10105POPC   C3A64745   1.189  44.691   7.053
10105POPC   C4A64746   1.164  44.662   7.353
10105POPC   C1B64747   1.077  44.452   6.453
10105POPC   C2B64748   1.095  44.510   6.753
10105POPC   C3B64749   1.094  44.470   7.053
10105POPC   C4B64750   1.031  44.510   7.353
10106POPC   NC364751  24.450  21.377   5.553
10106POPC   PO464752  24.486  21.360   5.853
10106POPC   GL164753  24.514  21.404   6.153
10106POPC   GL264754  24.627  21.384   6.153
10106POPC   C1A64755  24.453  21.410   6.453
10106POPC   D2A64756  24.537  21.385   6.753
10106POPC   C3A64757  24.491  21.416   7.053
10106POPC   C4A64758  24.530  21.392   7.353
10106POPC   C1B64759  24.762  21.271   6.453
10106POPC   C2B64760  24.718  21.355   6.753
10106POPC   C3B64761  24.741  21.301   7.053
10106POPC   C4B64762  24.741  21.280   7.353
10107POPC   NC364763  27.617  39.990   5.553
10107POPC   PO464764  27.597  40.042   5.853
10107POPC   GL164765  27.640  39.993   6.153
10107POPC   GL264766  27.584  40.100   6.153
10107POPC   C1A64767  27.569  39.962   6.453
10107POPC   D2A64768  27.544  39.957   6.753
10107POPC   C3A64769  27.603  39.965   7.053
10107POPC   C4A64770  27.574  39.979   7.353
10107POPC   C1B64771  27.574  40.293   6.453
10107POPC   C2B64772  27.627  40.265   6.753
10107POPC   C3B64773  27.584  40.237   7.053
10107POPC   C4B64774  27.577  40.276   7.353
10108POPC   NC364775  19.106  19.791   5.553
10108POPC   PO464776  19.046  19.874   5.853
10108POPC   GL164777  19.064  19.835   6.153
10108POPC   GL264778  18.970  19.724   6.153
10108POPC   C1A64779  19.100  19.804   6.453
10108POPC   D2A64780  19.034  19.796   6.753
10108POPC   C3A64781  19.039  19.787   7.053
10108POPC   C4A64782  19.103  19.835   7.353
10108POPC   C1B64783  18.905  19.624   6.453
10108POPC   C2B64784  18.944  19.612   6.753
10108POPC   C3B64785  18.923  19.630   7.053
10108POPC   C4B64786  18.936  19.598   7.353
10109POPC   NC364787   4.309   2.785   5.553
10109POPC   PO464788   4.279   2.737   5.853
10109POPC   GL164789   4.350   2.721   6.153
10109POPC   GL264790   4.404   2.614   6.153
10109POPC   C1A64791   4.314   2.787   6.453
10109POPC   D2A64792   4.278   2.794   6.753
10109POPC   C3A64793   4.286   2.777   7.053
10109POPC   C4A64794   4.321   2.811   7.353
10109POPC   C1B64795   4.445   2.556   6.453
10109POPC   C2B64796   4.365   2.511   6.753
10109POPC   C3B64797   4.411   2.532   7.053
10109POPC   C4B64798   4.451   2.575   7.353
10110POPC   NC364799  22.921  36.169   5.553
10110POPC   PO464800  22.892  36.128   5.853
10110POPC   GL164801  22.924  36.137   6.153
10110POPC   GL264802  22.890  36.273   6.153
10110POPC   C1A64803  22.972  36.097   6.453
10110POPC   D2A64804  22.923  36.105   6.753
10110POPC   C3A64805  22.980  36.146   7.053
10110POPC   C4A64806  22.986  36.089   7.353
10110POPC   C1B64807  22.912  36.382   6.453
10110POPC   C2B64808  22.899  36.365   6.753
10110POPC   C3B64809  22.928  36.365   7.053
10110POPC   C4B64810  22.900  36.344   7.353
10111POPC   NC364811  44.668   2.789   5.553
10111POPC   PO464812  44.656   2.766   5.853
10111POPC   GL164813  44.695   2.758   6.153
10111POPC   GL264814  44.619   2.892   6.153
10111POPC   C1A64815  44.634   2.787   6.453
10111POPC   D2A64816  44.644   2.801   6.753
10111POPC   C3A64817  44.668   2.751   7.053
10111POPC   C4A64818  44.621   2.802   7.353
10111POPC   C1B64819  44.457   2.979   6.453
10111POPC   C2B64820  44.498   2.938   6.753
10111POPC   C3B64821  44.431   2.891   7.053
10111POPC   C4B64822  44.491   2.928   7.353
10112POPC   NC364823   9.767   4.305   5.553
10112POPC   PO464824   9.726   4.348   5.853
10112POPC   GL164825   9.761   4.362   6.153
10112POPC   GL264826   9.890   4.338   6.153
10112POPC   C1A64827   9.785   4.324   6.453
10112POPC   D2A64828   9.729   4.366   6.753
10112POPC   C3A64829   9.708   4.355   7.053
10112POPC   C4A64830   9.782   4.332   7.353
10112POPC   C1B64831  10.034   4.369   6.453
10112POPC   C2B64832   9.998   4.378   6.753
10112POPC   C3B64833   9.974   4.383   7.053
10112POPC   C4B64834   9.990   4.321   7.353
10113POPC   NC364835   1.172   6.661   5.553
10113POPC   PO464836   1.220   6.606   5.853
10113POPC   GL164837   1.168   6.639   6.153
10113POPC   GL264838   1.201   6.788   6.153
10113POPC   C1A64839   1.245   6.635   6.453
10113POPC   D2A64840   1.249   6.663   6.753
10113POPC   C3A64841   1.246   6.657   7.053
10113POPC   C4A64842   1.257   6.679   7.353
10113POPC   C1B64843   1.211   6.843   6.453
10113POPC   C2B64844   1.176   6.885   6.753
10113POPC   C3B64845   1.230   6.878   7.053
10113POPC   C4B64846   1.236   6.897   7.353
10114POPC   NC364847  10.572  26.780   5.553
10114POPC   PO464848  10.529  26.836   5.853
10114POPC   GL164849  10.542  26.811   6.153
10114POPC   GL264850  10.538  26.956   6.153
10114POPC   C1A64851  10.484  26.837   6.453
10114POPC   D2A64852  10.561  26.830   6.753
10114POPC   C3A64853  10.479  26.802   7.053
10114POPC   C4A64854  10.505  26.789   7.353
10114POPC   C1B64855  10.649  27.065   6.453
10114POPC   C2B64856  10.618  27.088   6.753
10114POPC   C3B64857  10.575  27.052   7.053
10114POPC   C4B64858  10.658  27.037   7.353
10115POPC   NC364859  23.668  12.120   5.553
10115POPC   PO464860  23.670  12.097   5.853
10115POPC   GL164861  23.744  12.077   6.153
10115POPC   GL264862  23.577  12.040   6.153
10115POPC   C1A64863  23.685  12.059   6.453
10115POPC   D2A64864  23.686  12.045   6.753
10115POPC   C3A64865  23.687  12.052   7.053
10115POPC   C4A64866  23.741  12.098   7.353
10115POPC   C1B64867  23.506  12.066   6.453
10115POPC   C2B64868  23.416  12.090   6.753
10115POPC   C3B64869  23.435  12.124   7.053
10115POPC   C4B64870  23.456  12.053   7.353
10116POPC   NC364871  16.684  23.732   5.553
10116POPC   PO464872  16.764  23.714   5.853
10116POPC   GL164873  16.730  23.705   6.153
10116POPC   GL264874  16.659  23.642   6.153
10116POPC   C1A64875  16.756  23.737   6.453
10116POPC   D2A64876  16.690  23.716   6.753
10116POPC   C3A64877  16.768  23.683   7.053
10116POPC   C4A64878  16.713  23.744   7.353
10116POPC   C1B64879  16.596  23.491   6.453
10116POPC   C2B64880  16.529  23.524   6.753
10116POPC   C3B64881  16.615  23.546   7.053
10116POPC   C4B64882  16.567  23.564   7.353
10117POPC   NC364883  10.524  28.405   5.553
10117POPC   PO464884  10.502  28.337   5.853
10117POPC   GL164885  10.522  28.373   6.153
10117POPC   GL264886  10.573  28.540   6.153
10117POPC   C1A64887  10.518  28.358   6.453
10117POPC   D2A64888  10.529  28.387   6.753
10117POPC   C3A64889  10.506  28.348   7.053
10117POPC   C4A64890  10.513  28.362   7.353
10117POPC   C1B64891  10.522  28.659   6.453
10117POPC   C2B64892  10.533  28.649   6.753
10117POPC   C3B64893  10.517  28.608   7.053
10117POPC   C4B64894  10.528  28.610   7.353
10118POPC   NC364895  42.312  24.508   5.553
10118POPC   PO464896  42.330  24.492   5.853
10118POPC   GL164897  42.323  24.532   6.153
10118POPC   GL264898  42.390  24.620   6.153
10118POPC   C1A64899  42.301  24.525   6.453
10118POPC   D2A64900  42.299  24.483   6.753
10118POPC   C3A64901  42.299  24.481   7.053
10118POPC   C4A64902  42.310  24.504   7.353
10118POPC   C1B64903  42.503  24.636   6.453
10118POPC   C2B64904  42.527  24.624   6.753
10118POPC   C3B64905  42.513  24.648   7.053
10118POPC   C4B64906  42.567  24.681   7.353
10119POPC   NC364907   5.047  32.282   5.553
10119POPC   PO464908   5.063  32.297   5.853
10119POPC   GL164909   5.093  32.206   6.153
10119POPC   GL264910   5.080  32.312   6.153
10119POPC   C1A64911   5.046  32.274   6.453
10119POPC   D2A64912   5.130  32.287   6.753
10119POPC   C3A64913   5.064  32.225   7.053
10119POPC   C4A64914   5.081  32.242   7.353
10119POPC   C1B64915   4.939  32.513   6.453
10119POPC   C2B64916   5.030  32.462   6.753
10119POPC   C3B64917   4.960  32.455   7.053
10119POPC   C4B64918   4.996  32.469   7.353
10120POPC   NC364919  39.963  44.700   5.553
10120POPC   PO464920  39.964  44.639   5.853
10120POPC   GL164921  40.031  44.624   6.153
10120POPC   GL264922  40.113  44.705   6.153
10120POPC   C1A64923  40.001  44.662   6.453
10120POPC   D2A64924  40.016  44.670   6.753
10120POPC   C3A64925  39.996  44.670   7.053
10120POPC   C4A64926  40.050  44.662   7.353
10120POPC   C1B64927  40.155  44.838   6.453
10120POPC   C2B64928  40.154  44.799   6.753
10120POPC   C3B64929  40.231  44.828   7.053
10120POPC   C4B64930  40.241  44.862   7.353
10121POPC   NC364931  16.688   1.187   5.553
10121POPC   PO464932  16.774   1.210   5.853
10121POPC   GL164933  16.742   1.190   6.153
10121POPC   GL264934  16.697   1.058   6.153
10121POPC   C1A64935  16.730   1.214   6.453
10121POPC   D2A64936  16.756   1.249   6.753
10121POPC   C3A64937  16.721   1.173   7.053
10121POPC   C4A64938  16.689   1.201   7.353
10121POPC   C1B64939  16.598   0.979   6.453
10121POPC   C2B64940  16.632   1.003   6.753
10121POPC   C3B64941  16.643   1.045   7.053
10121POPC   C4B64942  16.652   0.951   7.353
10122POPC   NC364943  20.658  15.182   5.553
10122POPC   PO464944  20.582  15.224   5.853
10122POPC   GL164945  20.657  15.212   6.153
10122POPC   GL264946  20.689  15.298   6.153
10122POPC   C1A64947  20.569  15.157   6.453
10122POPC   D2A64948  20.602  15.182   6.753
10122POPC   C3A64949  20.610  15.223   7.053
10122POPC   C4A64950  20.573  15.166   7.353
10122POPC   C1B64951  20.792  15.335   6.453
10122POPC   C2B64952  20.842  15.316   6.753
10122POPC   C3B64953  20.857  15.371   7.053
10122POPC   C4B64954  20.775  15.361   7.353
10123POPC   NC364955  22.912  40.051   5.553
10123POPC   PO464956  22.924  40.051   5.853
10123POPC   GL164957  22.912  39.962   6.153
10123POPC   GL264958  22.791  39.981   6.153
10123POPC   C1A64959  22.934  40.050   6.453
10123POPC   D2A64960  22.917  39.960   6.753
10123POPC   C3A64961  22.941  40.032   7.053
10123POPC   C4A64962  22.948  40.021   7.353
10123POPC   C1B64963  22.665  40.026   6.453
10123POPC   C2B64964  22.706  40.034   6.753
10123POPC   C3B64965  22.683  40.020   7.053
10123POPC   C4B64966  22.737  39.994   7.353
10124POPC   NC364967  12.035  12.816   5.553
10124POPC   PO464968  12.063  12.872   5.853
10124POPC   GL164969  12.113  12.870   6.153
10124POPC   GL264970  12.032  12.778   6.153
10124POPC   C1A64971  12.082  12.899   6.453
10124POPC   D2A64972  12.111  12.850   6.753
10124POPC   C3A64973  12.050  12.875   7.053
10124POPC   C4A64974  12.075  12.897   7.353
10124POPC   C1B64975  11.958  12.695   6.453
10124POPC   C2B64976  11.977  12.647   6.753
10124POPC   C3B64977  11.938  12.679   7.053
10124POPC   C4B64978  11.974  12.676   7.353
10125POPC   NC364979   5.058  15.138   5.553
10125POPC   PO464980   5.137  15.172   5.853
10125POPC   GL164981   5.098  15.214   6.153
10125POPC   GL264982   5.017  15.100   6.153
10125POPC   C1A64983   5.060  15.158   6.453
10125POPC   D2A64984   5.082  15.168   6.753
10125POPC   C3A64985   5.118  15.134   7.053
10125POPC   C4A64986   5.066  15.202   7.353
10125POPC   C1B64987   4.906  15.021   6.453
10125POPC   C2B64988   4.938  15.035   6.753
10125POPC   C3B64989   4.948  15.048   7.053
10125POPC   C4B64990   4.921  14.979   7.353
10126POPC   NC364991  36.942  37.707   5.553
10126POPC   PO464992  36.882  37.635   5.853
10126POPC   GL164993  36.930  37.708   6.153
10126POPC   GL264994  36.885  37.561   6.153
10126POPC   C1A64995  36.939  37.629   6.453
10126POPC   D2A64996  36.873  37.709   6.753
10126POPC   C3A64997  36.916  37.726   7.053
10126POPC   C4A64998  36.945  37.676   7.353
10126POPC   C1B64999  36.895  37.398   6.453
10126POPC   C2B65000  36.873  37.434   6.753
10126POPC   C3B65001  36.923  37.439   7.053
10126POPC   C4B65002  36.900  37.427   7.353
10127POPC   NC365003  25.224  29.963   5.553
10127POPC   PO465004  25.242  29.968   5.853
10127POPC   GL165005  25.300  29.928   6.153
10127POPC   GL265006  25.346  29.853   6.153
10127POPC   C1A65007  25.248  29.966   6.453
10127POPC   D2A65008  25.269  29.909   6.753
10127POPC   C3A65009  25.256  29.884   7.053
10127POPC   C4A65010  25.233  29.929   7.353
10127POPC   C1B65011  25.367  29.654   6.453
10127POPC   C2B65012  25.332  29.680   6.753
10127POPC   C3B65013  25.355  29.698   7.053
10127POPC   C4B65014  25.424  29.730   7.353
10128POPC   NC365015   2.771  36.936   5.553
10128POPC   PO465016   2.804  36.929   5.853
10128POPC   GL165017   2.813  36.899   6.153
10128POPC   GL265018   2.794  36.986   6.153
10128POPC   C1A65019   2.802  36.895   6.453
10128POPC   D2A65020   2.782  36.953   6.753
10128POPC   C3A65021   2.789  36.913   7.053
10128POPC   C4A65022   2.783  36.858   7.353
10128POPC   C1B65023   2.786  37.152   6.453
10128POPC   C2B65024   2.775  37.126   6.753
10128POPC   C3B65025   2.821  37.168   7.053
10128POPC   C4B65026   2.729  37.197   7.353
10129POPC   NC365027  19.055  12.124   5.553
10129POPC   PO465028  19.039  12.068   5.853
10129POPC   GL165029  19.100  12.030   6.153
10129POPC   GL265030  19.146  12.012   6.153
10129POPC   C1A65031  19.030  12.075   6.453
10129POPC   D2A65032  19.015  12.042   6.753
10129POPC   C3A65033  19.077  12.104   7.053
10129POPC   C4A65034  19.048  12.049   7.353
10129POPC   C1B65035  19.305  11.960   6.453
10129POPC   C2B65036  19.245  11.997   6.753
10129POPC   C3B65037  19.319  11.995   7.053
10129POPC   C4B65038  19.322  11.926   7.353
10130POPC   NC365039  43.841  37.638   5.553
10130POPC   PO465040  43.932  37.683   5.853
10130POPC   GL165041  43.890  37.725   6.153
10130POPC   GL265042  43.870  37.829   6.153
10130POPC   C1A65043  43.911  37.714   6.453
10130POPC   D2A65044  43.867  37.682   6.753
10130POPC   C3A65045  43.839  37.710   7.053
10130POPC   C4A65046  43.924  37.661   7.353
10130POPC   C1B65047  43.880  37.907   6.453
10130POPC   C2B65048  43.917  37.909   6.753
10130POPC   C3B65049  43.917  37.926   7.053
10130POPC   C4B65050  43.935  37.912   7.353
10131POPC   NC365051  13.627  22.169   5.553
10131POPC   PO465052  13.594  22.176   5.853
10131POPC   GL165053  13.643  22.124   6.153
10131POPC   GL265054  13.754  22.091   6.153
10131POPC   C1A65055  13.581  22.113   6.453
10131POPC   D2A65056  13.645  22.130   6.753
10131POPC   C3A65057  13.597  22.185   7.053
10131POPC   C4A65058  13.610  22.158   7.353
10131POPC   C1B65059  13.843  21.940   6.453
10131POPC   C2B65060  13.785  22.035   6.753
10131POPC   C3B65061  13.844  22.037   7.053
10131POPC   C4B65062  13.785  21.992   7.353
10132POPC   NC365063   4.278   5.901   5.553
10132POPC   PO465064   4.345   5.874   5.853
10132POPC   GL165065   4.286   5.873   6.153
10132POPC   GL265066   4.368   5.989   6.153
10132POPC   C1A65067   4.360   5.862   6.453
10132POPC   D2A65068   4.313   5.829   6.753
10132POPC   C3A65069   4.272   5.889   7.053
10132POPC   C4A65070   4.291   5.860   7.353
10132POPC   C1B65071   4.478   6.107   6.453
10132POPC   C2B65072   4.395   6.094   6.753
10132POPC   C3B65073   4.439   6.036   7.053
10132POPC   C4B65074   4.422   6.125   7.353
10133POPC   NC365075  16.709   7.430   5.553
10133POPC   PO465076  16.752   7.435   5.853
10133POPC   GL165077  16.734   7.437   6.153
10133POPC   GL265078  16.652   7.529   6.153
10133POPC   C1A65079  16.701   7.385   6.453
10133POPC   D2A65080  16.733   7.463   6.753
10133POPC   C3A65081  16.684   7.445   7.053
10133POPC   C4A65082  16.695   7.438   7.353
10133POPC   C1B65083  16.562   7.633   6.453
10133POPC   C2B65084  16.541   7.587   6.753
10133POPC   C3B65085  16.601   7.582   7.053
10133POPC   C4B65086  16.553   7.570   7.353
10134POPC   NC365087   7.420  23.678   5.553
10134POPC   PO465088   7.444  23.741   5.853
10134POPC   GL165089   7.402  23.666   6.153
10134POPC   GL265090   7.316  23.816   6.153
10134POPC   C1A65091   7.398  23.711   6.453
10134POPC   D2A65092   7.381  23.703   6.753
10134POPC   C3A65093   7.455  23.709   7.053
10134POPC   C4A65094   7.424  23.725   7.353
10134POPC   C1B65095   7.236  23.833   6.453
10134POPC   C2B65096   7.179  23.835   6.753
10134POPC   C3B65097   7.176  23.771   7.053
10134POPC   C4B65098   7.233  23.795   7.353
10135POPC   NC365099  18.251  23.749   5.553
10135POPC   PO465100  18.278  23.714   5.853
10135POPC   GL165101  18.303  23.684   6.153
10135POPC   GL265102  18.390  23.844   6.153
10135POPC   C1A65103  18.260  23.699   6.453
10135POPC   D2A65104  18.246  23.740   6.753
10135POPC   C3A65105  18.280  23.729   7.053
10135POPC   C4A65106  18.244  23.731   7.353
10135POPC   C1B65107  18.436  23.860   6.453
10135POPC   C2B65108  18.422  23.927   6.753
10135POPC   C3B65109  18.505  23.905   7.053
10135POPC   C4B65110  18.464  23.843   7.353
10136POPC   NC365111  36.940  30.697   5.553
10136POPC   PO465112  36.854  30.675   5.853
10136POPC   GL165113  36.937  30.686   6.153
10136POPC   GL265114  37.025  30.692   6.153
10136POPC   C1A65115  36.943  30.706   6.453
10136POPC   D2A65116  36.907  30.667   6.753
10136POPC   C3A65117  36.919  30.660   7.053
10136POPC   C4A65118  36.925  30.704   7.353
10136POPC   C1B65119  37.112  30.638   6.453
10136POPC   C2B65120  37.119  30.629   6.753
10136POPC   C3B65121  37.098  30.601   7.053
10136POPC   C4B65122  37.170  30.600   7.353
10137POPC   NC365123   2.805  33.057   5.553
10137POPC   PO465124   2.763  32.991   5.853
10137POPC   GL165125   2.717  32.995   6.153
10137POPC   GL265126   2.662  33.055   6.153
10137POPC   C1A65127   2.716  33.046   6.453
10137POPC   D2A65128   2.750  33.052   6.753
10137POPC   C3A65129   2.747  33.002   7.053
10137POPC   C4A65130   2.722  32.977   7.353
10137POPC   C1B65131   2.546  33.101   6.453
10137POPC   C2B65132   2.566  33.142   6.753
10137POPC   C3B65133   2.542  33.112   7.053
10137POPC   C4B65134   2.572  33.118   7.353
10138POPC   NC365135  30.716   1.995   5.553
10138POPC   PO465136  30.742   1.976   5.853
10138POPC   GL165137  30.727   1.975   6.153
10138POPC   GL265138  30.615   2.106   6.153
10138POPC   C1A65139  30.692   2.001   6.453
10138POPC   D2A65140  30.655   1.978   6.753
10138POPC   C3A65141  30.671   1.990   7.053
10138POPC   C4A65142  30.702   2.039   7.353
10138POPC   C1B65143  30.633   2.175   6.453
10138POPC   C2B65144  30.580   2.178   6.753
10138POPC   C3B65145  30.625   2.217   7.053
10138POPC   C4B65146  30.636   2.174   7.353
10139POPC   NC365147  34.569   6.693   5.553
10139POPC   PO465148  34.566   6.674   5.853
10139POPC   GL165149  34.574   6.637   6.153
10139POPC   GL265150  34.467   6.732   6.153
10139POPC   C1A65151  34.599   6.694   6.453
10139POPC   D2A65152  34.599   6.632   6.753
10139POPC   C3A65153  34.569   6.673   7.053
10139POPC   C4A65154  34.567   6.668   7.353
10139POPC   C1B65155  34.331   6.829   6.453
10139POPC   C2B65156  34.319   6.740   6.753
10139POPC   C3B65157  34.357   6.758   7.053
10139POPC   C4B65158  34.360   6.778   7.353
10140POPC   NC365159  35.383  12.098   5.553
10140POPC   PO465160  35.396  12.117   5.853
10140POPC   GL165161  35.319  12.077   6.153
10140POPC   GL265162  35.288  12.158   6.153
10140POPC   C1A65163  35.380  12.079   6.453
10140POPC   D2A65164  35.357  12.093   6.753
10140POPC   C3A65165  35.363  12.036   7.053
10140POPC   C4A65166  35.324  12.040   7.353
10140POPC   C1B65167  35.156  12.296   6.453
10140POPC   C2B65168  35.145  12.268   6.753
10140POPC   C3B65169  35.216  12.303   7.053
10140POPC   C4B65170  35.187  12.254   7.353
10141POPC   NC365171   3.567  35.355   5.553
10141POPC   PO465172   3.551  35.381   5.853
10141POPC   GL165173   3.564  35.352   6.153
10141POPC   GL265174   3.440  35.263   6.153
10141POPC   C1A65175   3.543  35.377   6.453
10141POPC   D2A65176   3.494  35.378   6.753
10141POPC   C3A65177   3.584  35.357   7.053
10141POPC   C4A65178   3.529  35.388   7.353
10141POPC   C1B65179   3.353  35.229   6.453
10141POPC   C2B65180   3.312  35.147   6.753
10141POPC   C3B65181   3.350  35.150   7.053
10141POPC   C4B65182   3.348  35.181   7.353
10142POPC   NC365183  43.888  33.044   5.553
10142POPC   PO465184  43.927  33.007   5.853
10142POPC   GL165185  43.878  33.047   6.153
10142POPC   GL265186  43.793  33.108   6.153
10142POPC   C1A65187  43.850  33.059   6.453
10142POPC   D2A65188  43.889  33.029   6.753
10142POPC   C3A65189  43.921  33.021   7.053
10142POPC   C4A65190  43.878  33.058   7.353
10142POPC   C1B65191  43.724  33.262   6.453
10142POPC   C2B65192  43.798  33.232   6.753
10142POPC   C3B65193  43.790  33.192   7.053
10142POPC   C4B65194  43.711  33.262   7.353
10143POPC   NC365195   4.337  10.489   5.553
10143POPC   PO465196   4.287  10.574   5.853
10143POPC   GL165197   4.284  10.564   6.153
10143POPC   GL265198   4.454  10.527   6.153
10143POPC   C1A65199   4.333  10.562   6.453
10143POPC   D2A65200   4.310  10.487   6.753
10143POPC   C3A65201   4.277  10.571   7.053
10143POPC   C4A65202   4.297  10.561   7.353
10143POPC   C1B65203   4.592  10.606   6.453
10143POPC   C2B65204   4.521  10.566   6.753
10143POPC   C3B65205   4.562  10.585   7.053
10143POPC   C4B65206   4.596  10.585   7.353
10144POPC   NC365207   5.133  11.346   5.553
10144POPC   PO465208   5.050  11.281   5.853
10144POPC   GL165209   5.049  11.317   6.153
10144POPC   GL265210   5.006  11.312   6.153
10144POPC   C1A65211   5.119  11.274   6.453
10144POPC   D2A65212   5.063  11.305   6.753
10144POPC   C3A65213   5.087  11.272   7.053
10144POPC   C4A65214   5.063  11.263   7.353
10144POPC   C1B65215   4.878  11.314   6.453
10144POPC   C2B65216   4.810  11.388   6.753
10144POPC   C3B65217   4.826  11.400   7.053
10144POPC   C4B65218   4.863  11.407   7.353
10145POPC   NC365219  32.212  36.101   5.553
10145POPC   PO465220  32.272  36.116   5.853
10145POPC   GL165221  32.228  36.114   6.153
10145POPC   GL265222  32.419  36.130   6.153
10145POPC   C1A65223  32.264  36.162   6.453
10145POPC   D2A65224  32.288  36.146   6.753
10145POPC   C3A65225  32.271  36.164   7.053
10145POPC   C4A65226  32.207  36.105   7.353
10145POPC   C1B65227  32.471  36.077   6.453
10145POPC   C2B65228  32.511  36.047   6.753
10145POPC   C3B65229  32.499  36.033   7.053
10145POPC   C4B65230  32.535  36.073   7.353
10146POPC   NC365231  17.491  44.632   5.553
10146POPC   PO465232  17.470  44.668   5.853
10146POPC   GL165233  17.474  44.653   6.153
10146POPC   GL265234  17.577  44.779   6.153
10146POPC   C1A65235  17.530  44.616   6.453
10146POPC   D2A65236  17.517  44.628   6.753
10146POPC   C3A65237  17.541  44.690   7.053
10146POPC   C4A65238  17.552  44.634   7.353
10146POPC   C1B65239  17.686  44.782   6.453
10146POPC   C2B65240  17.705  44.850   6.753
10146POPC   C3B65241  17.697  44.859   7.053
10146POPC   C4B65242  17.653  44.779   7.353
10147POPC   NC365243   7.377  17.496   5.553
10147POPC   PO465244   7.424  17.553   5.853
10147POPC   GL165245   7.465  17.487   6.153
10147POPC   GL265246   7.523  17.445   6.153
10147POPC   C1A65247   7.416  17.530   6.453
10147POPC   D2A65248   7.455  17.508   6.753
10147POPC   C3A65249   7.431  17.479   7.053
10147POPC   C4A65250   7.424  17.522   7.353
10147POPC   C1B65251   7.628  17.382   6.453
10147POPC   C2B65252   7.624  17.383   6.753
10147POPC   C3B65253   7.620  17.349   7.053
10147POPC   C4B65254   7.575  17.313   7.353
10148POPC   NC365255  19.808  14.395   5.553
10148POPC   PO465256  19.803  14.445   5.853
10148POPC   GL165257  19.828  14.381   6.153
10148POPC   GL265258  19.766  14.287   6.153
10148POPC   C1A65259  19.877  14.407   6.453
10148POPC   D2A65260  19.845  14.367   6.753
10148POPC   C3A65261  19.821  14.427   7.053
10148POPC   C4A65262  19.810  14.431   7.353
10148POPC   C1B65263  19.776  14.180   6.453
10148POPC   C2B65264  19.782  14.213   6.753
10148POPC   C3B65265  19.711  14.209   7.053
10148POPC   C4B65266  19.715  14.214   7.353
10149POPC   NC365267  36.862  22.136   5.553
10149POPC   PO465268  36.912  22.121   5.853
10149POPC   GL165269  36.931  22.195   6.153
10149POPC   GL265270  37.054  22.201   6.153
10149POPC   C1A65271  36.887  22.129   6.453
10149POPC   D2A65272  36.862  22.134   6.753
10149POPC   C3A65273  36.874  22.165   7.053
10149POPC   C4A65274  36.904  22.195   7.353
10149POPC   C1B65275  37.149  22.167   6.453
10149POPC   C2B65276  37.124  22.134   6.753
10149POPC   C3B65277  37.110  22.200   7.053
10149POPC   C4B65278  37.120  22.134   7.353
10150POPC   NC365279  32.272   3.510   5.553
10150POPC   PO465280  32.239   3.530   5.853
10150POPC   GL165281  32.235   3.546   6.153
10150POPC   GL265282  32.328   3.437   6.153
10150POPC   C1A65283  32.266   3.506   6.453
10150POPC   D2A65284  32.277   3.523   6.753
10150POPC   C3A65285  32.278   3.590   7.053
10150POPC   C4A65286  32.260   3.577   7.353
10150POPC   C1B65287  32.382   3.311   6.453
10150POPC   C2B65288  32.293   3.265   6.753
10150POPC   C3B65289  32.338   3.349   7.053
10150POPC   C4B65290  32.325   3.293   7.353
10151POPC   NC365291   5.047  14.373   5.553
10151POPC   PO465292   5.127  14.386   5.853
10151POPC   GL165293   5.094  14.388   6.153
10151POPC   GL265294   5.131  14.532   6.153
10151POPC   C1A65295   5.051  14.435   6.453
10151POPC   D2A65296   5.135  14.377   6.753
10151POPC   C3A65297   5.078  14.362   7.053
10151POPC   C4A65298   5.081  14.373   7.353
10151POPC   C1B65299   5.309  14.626   6.453
10151POPC   C2B65300   5.258  14.550   6.753
10151POPC   C3B65301   5.243  14.631   7.053
10151POPC   C4B65302   5.240  14.584   7.353
10152POPC   NC365303   2.031  32.237   5.553
10152POPC   PO465304   1.966  32.235   5.853
10152POPC   GL165305   2.021  32.207   6.153
10152POPC   GL265306   2.111  32.205   6.153
10152POPC   C1A65307   2.009  32.216   6.453
10152POPC   D2A65308   2.016  32.235   6.753
10152POPC   C3A65309   1.995  32.272   7.053
10152POPC   C4A65310   1.964  32.209   7.353
10152POPC   C1B65311   2.204  32.134   6.453
10152POPC   C2B65312   2.179  32.168   6.753
10152POPC   C3B65313   2.172  32.188   7.053
10152POPC   C4B65314   2.249  32.136   7.353
10153POPC   NC365315  39.959  34.562   5.553
10153POPC   PO465316  40.022  34.582   5.853
10153POPC   GL165317  39.973  34.560   6.153
10153POPC   GL265318  40.073  34.533   6.153
10153POPC   C1A65319  40.030  34.625   6.453
10153POPC   D2A65320  40.033  34.590   6.753
10153POPC   C3A65321  40.010  34.586   7.053
10153POPC   C4A65322  40.052  34.559   7.353
10153POPC   C1B65323  40.222  34.500   6.453
10153POPC   C2B65324  40.204  34.476   6.753
10153POPC   C3B65325  40.227  34.490   7.053
10153POPC   C4B65326  40.190  34.428   7.353
10154POPC   NC365327  33.757   9.742   5.553
10154POPC   PO465328  33.765   9.753   5.853
10154POPC   GL165329  33.774   9.758   6.153
10154POPC   GL265330  33.772   9.603   6.153
10154POPC   C1A65331  33.827   9.699   6.453
10154POPC   D2A65332  33.838   9.699   6.753
10154POPC   C3A65333  33.760   9.742   7.053
10154POPC   C4A65334  33.763   9.712   7.353
10154POPC   C1B65335  33.662   9.527   6.453
10154POPC   C2B65336  33.623   9.602   6.753
10154POPC   C3B65337  33.658   9.572   7.053
10154POPC   C4B65338  33.606   9.510   7.353
10155POPC   NC365339  15.175   7.414   5.553
10155POPC   PO465340  15.161   7.467   5.853
10155POPC   GL165341  15.204   7.427   6.153
10155POPC   GL265342  15.283   7.389   6.153
10155POPC   C1A65343  15.152   7.421   6.453
10155POPC   D2A65344  15.146   7.431   6.753
10155POPC   C3A65345  15.173   7.426   7.053
10155POPC   C4A65346  15.181   7.469   7.353
10155POPC   C1B65347  15.436   7.375   6.453
10155POPC   C2B65348  15.393   7.412   6.753
10155POPC   C3B65349  15.438   7.371   7.053
10155POPC   C4B65350  15.379   7.444   7.353
10156POPC   NC365351  39.244   0.462   5.553
10156POPC   PO465352  39.256   0.395   5.853
10156POPC   GL165353  39.187   0.429   6.153
10156POPC   GL265354  39.065   0.394   6.153
10156POPC   C1A65355  39.225   0.473   6.453
10156POPC   D2A65356  39.270   0.457   6.753
10156POPC   C3A65357  39.228   0.416   7.053
10156POPC   C4A65358  39.261   0.462   7.353
10156POPC   C1B65359  39.031   0.359   6.453
10156POPC   C2B65360  39.017   0.322   6.753
10156POPC   C3B65361  39.002   0.336   7.053
10156POPC   C4B65362  39.022   0.331   7.353
10157POPC   NC365363  23.684  39.188   5.553
10157POPC   PO465364  23.678  39.202   5.853
10157POPC   GL165365  23.682  39.218   6.153
10157POPC   GL265366  23.755  39.335   6.153
10157POPC   C1A65367  23.708  39.263   6.453
10157POPC   D2A65368  23.750  39.280   6.753
10157POPC   C3A65369  23.734  39.259   7.053
10157POPC   C4A65370  23.710  39.249   7.353
10157POPC   C1B65371  23.754  39.451   6.453
10157POPC   C2B65372  23.749  39.426   6.753
10157POPC   C3B65373  23.837  39.502   7.053
10157POPC   C4B65374  23.768  39.436   7.353
10158POPC   NC365375  44.642  38.444   5.553
10158POPC   PO465376  44.695  38.473   5.853
10158POPC   GL165377  44.664  38.440   6.153
10158POPC   GL265378  44.510  38.476   6.153
10158POPC   C1A65379  44.642  38.452   6.453
10158POPC   D2A65380  44.649  38.491   6.753
10158POPC   C3A65381  44.674  38.452   7.053
10158POPC   C4A65382  44.684  38.433   7.353
10158POPC   C1B65383  44.461  38.608   6.453
10158POPC   C2B65384  44.484  38.626   6.753
10158POPC   C3B65385  44.455  38.627   7.053
10158POPC   C4B65386  44.407  38.578   7.353
10159POPC   NC365387   5.898  44.695   5.553
10159POPC   PO465388   5.869  44.711   5.853
10159POPC   GL165389   5.918  44.705   6.153
10159POPC   GL265390   5.790  44.789   6.153
10159POPC   C1A65391   5.899  44.702   6.453
10159POPC   D2A65392   5.859  44.618   6.753
10159POPC   C3A65393   5.861  44.664   7.053
10159POPC   C4A65394   5.891  44.613   7.353
10159POPC   C1B65395   5.713  44.866   6.453
10159POPC   C2B65396   5.760  44.840   6.753
10159POPC   C3B65397   5.744  44.896   7.053
10159POPC   C4B65398   5.728  44.844   7.353
10160POPC   NC365399  20.618   4.285   5.553
10160POPC   PO465400  20.630   4.314   5.853
10160POPC   GL165401  20.600   4.336   6.153
10160POPC   GL265402  20.521   4.349   6.153
10160POPC   C1A65403  20.657   4.303   6.453
10160POPC   D2A65404  20.629   4.292   6.753
10160POPC   C3A65405  20.580   4.297   7.053
10160POPC   C4A65406  20.594   4.339   7.353
10160POPC   C1B65407  20.318   4.332   6.453
10160POPC   C2B65408  20.319   4.351   6.753
10160POPC   C3B65409  20.331   4.329   7.053
10160POPC   C4B65410  20.369   4.375   7.353
10161POPC   NC365411  20.620   2.006   5.553
10161POPC   PO465412  20.568   1.980   5.853
10161POPC   GL165413  20.645   1.968   6.153
10161POPC   GL265414  20.551   2.074   6.153
10161POPC   C1A65415  20.637   1.995   6.453
10161POPC   D2A65416  20.647   1.982   6.753
10161POPC   C3A65417  20.583   2.022   7.053
10161POPC   C4A65418  20.640   2.016   7.353
10161POPC   C1B65419  20.611   2.250   6.453
10161POPC   C2B65420  20.595   2.204   6.753
10161POPC   C3B65421  20.547   2.240   7.053
10161POPC   C4B65422  20.594   2.224   7.353
10162POPC   NC365423  44.701  19.011   5.553
10162POPC   PO465424  44.701  19.038   5.853
10162POPC   GL165425  44.626  19.018   6.153
10162POPC   GL265426  44.573  19.129   6.153
10162POPC   C1A65427  44.648  19.102   6.453
10162POPC   D2A65428  44.672  19.054   6.753
10162POPC   C3A65429  44.660  19.043   7.053
10162POPC   C4A65430  44.649  19.088   7.353
10162POPC   C1B65431  44.490  19.183   6.453
10162POPC   C2B65432  44.443  19.202   6.753
10162POPC   C3B65433  44.491  19.165   7.053
10162POPC   C4B65434  44.483  19.166   7.353
10163POPC   NC365435  38.433  27.607   5.553
10163POPC   PO465436  38.439  27.625   5.853
10163POPC   GL165437  38.451  27.590   6.153
10163POPC   GL265438  38.429  27.747   6.153
10163POPC   C1A65439  38.415  27.565   6.453
10163POPC   D2A65440  38.488  27.591   6.753
10163POPC   C3A65441  38.477  27.598   7.053
10163POPC   C4A65442  38.414  27.590   7.353
10163POPC   C1B65443  38.523  27.801   6.453
10163POPC   C2B65444  38.501  27.796   6.753
10163POPC   C3B65445  38.497  27.867   7.053
10163POPC   C4B65446  38.519  27.815   7.353
10164POPC   NC365447  15.155  21.337   5.553
10164POPC   PO465448  15.181  21.411   5.853
10164POPC   GL165449  15.138  21.430   6.153
10164POPC   GL265450  15.117  21.458   6.153
10164POPC   C1A65451  15.172  21.397   6.453
10164POPC   D2A65452  15.209  21.348   6.753
10164POPC   C3A65453  15.191  21.391   7.053
10164POPC   C4A65454  15.145  21.380   7.353
10164POPC   C1B65455  15.089  21.644   6.453
10164POPC   C2B65456  15.116  21.645   6.753
10164POPC   C3B65457  15.117  21.577   7.053
10164POPC   C4B65458  15.060  21.610   7.353
10165POPC   NC365459   2.771  39.247   5.553
10165POPC   PO465460   2.793  39.198   5.853
10165POPC   GL165461   2.788  39.274   6.153
10165POPC   GL265462   2.706  39.121   6.153
10165POPC   C1A65463   2.732  39.222   6.453
10165POPC   D2A65464   2.790  39.255   6.753
10165POPC   C3A65465   2.768  39.220   7.053
10165POPC   C4A65466   2.749  39.228   7.353
10165POPC   C1B65467   2.625  39.052   6.453
10165POPC   C2B65468   2.654  39.054   6.753
10165POPC   C3B65469   2.573  39.055   7.053
10165POPC   C4B65470   2.589  39.018   7.353
10166POPC   NC365471   6.647  29.110   5.553
10166POPC   PO465472   6.601  29.161   5.853
10166POPC   GL165473   6.636  29.105   6.153
10166POPC   GL265474   6.701  29.068   6.153
10166POPC   C1A65475   6.605  29.096   6.453
10166POPC   D2A65476   6.666  29.143   6.753
10166POPC   C3A65477   6.678  29.154   7.053
10166POPC   C4A65478   6.604  29.100   7.353
10166POPC   C1B65479   6.739  28.918   6.453
10166POPC   C2B65480   6.761  28.861   6.753
10166POPC   C3B65481   6.690  28.927   7.053
10166POPC   C4B65482   6.684  28.899   7.353
10167POPC   NC365483  17.472  39.262   5.553
10167POPC   PO465484  17.530  39.273   5.853
10167POPC   GL165485  17.553  39.186   6.153
10167POPC   GL265486  17.632  39.273   6.153
10167POPC   C1A65487  17.511  39.281   6.453
10167POPC   D2A65488  17.528  39.222   6.753
10167POPC   C3A65489  17.484  39.273   7.053
10167POPC   C4A65490  17.502  39.189   7.353
10167POPC   C1B65491  17.678  39.379   6.453
10167POPC   C2B65492  17.692  39.411   6.753
10167POPC   C3B65493  17.668  39.411   7.053
10167POPC   C4B65494  17.720  39.339   7.353
10168POPC   NC365495  41.555  27.569   5.553
10168POPC   PO465496  41.601  27.599   5.853
10168POPC   GL165497  41.565  27.560   6.153
10168POPC   GL265498  41.610  27.478   6.153
10168POPC   C1A65499  41.593  27.600   6.453
10168POPC   D2A65500  41.512  27.640   6.753
10168POPC   C3A65501  41.518  27.575   7.053
10168POPC   C4A65502  41.517  27.558   7.353
10168POPC   C1B65503  41.729  27.439   6.453
10168POPC   C2B65504  41.684  27.365   6.753
10168POPC   C3B65505  41.756  27.384   7.053
10168POPC   C4B65506  41.750  27.382   7.353
10169POPC   NC365507  43.089  18.238   5.553
10169POPC   PO465508  43.121  18.298   5.853
10169POPC   GL165509  43.108  18.313   6.153
10169POPC   GL265510  43.005  18.346   6.153
10169POPC   C1A65511  43.070  18.312   6.453
10169POPC   D2A65512  43.140  18.250   6.753
10169POPC   C3A65513  43.075  18.306   7.053
10169POPC   C4A65514  43.120  18.260   7.353
10169POPC   C1B65515  42.873  18.458   6.453
10169POPC   C2B65516  42.971  18.418   6.753
10169POPC   C3B65517  42.922  18.448   7.053
10169POPC   C4B65518  42.950  18.422   7.353
10170POPC   NC365519  37.658  34.574   5.553
10170POPC   PO465520  37.726  34.597   5.853
10170POPC   GL165521  37.664  34.568   6.153
10170POPC   GL265522  37.688  34.410   6.153
10170POPC   C1A65523  37.704  34.568   6.453
10170POPC   D2A65524  37.666  34.544   6.753
10170POPC   C3A65525  37.661  34.533   7.053
10170POPC   C4A65526  37.709  34.573   7.353
10170POPC   C1B65527  37.729  34.301   6.453
10170POPC   C2B65528  37.756  34.353   6.753
10170POPC   C3B65529  37.744  34.377   7.053
10170POPC   C4B65530  37.804  34.342   7.353
10171POPC   NC365531  38.467  36.164   5.553
10171POPC   PO465532  38.497  36.156   5.853
10171POPC   GL165533  38.483  36.079   6.153
10171POPC   GL265534  38.595  36.113   6.153
10171POPC   C1A65535  38.484  36.086   6.453
10171POPC   D2A65536  38.417  36.172   6.753
10171POPC   C3A65537  38.482  36.123   7.053
10171POPC   C4A65538  38.437  36.126   7.353
10171POPC   C1B65539  38.711  36.017   6.453
10171POPC   C2B65540  38.656  36.049   6.753
10171POPC   C3B65541  38.720  35.993   7.053
10171POPC   C4B65542  38.646  36.002   7.353
10172POPC   NC365543   6.645  15.940   5.553
10172POPC   PO465544   6.662  15.942   5.853
10172POPC   GL165545   6.605  15.935   6.153
10172POPC   GL265546   6.646  16.111   6.153
10172POPC   C1A65547   6.616  15.914   6.453
10172POPC   D2A65548   6.646  15.938   6.753
10172POPC   C3A65549   6.688  15.951   7.053
10172POPC   C4A65550   6.597  15.939   7.353
10172POPC   C1B65551   6.782  16.222   6.453
10172POPC   C2B65552   6.790  16.216   6.753
10172POPC   C3B65553   6.759  16.208   7.053
10172POPC   C4B65554   6.759  16.172   7.353
10173POPC   NC365555  10.488  41.518   5.553
10173POPC   PO465556  10.569  41.519   5.853
10173POPC   GL165557  10.477  41.567   6.153
10173POPC   GL265558  10.681  41.532   6.153
10173POPC   C1A65559  10.476  41.544   6.453
10173POPC   D2A65560  10.524  41.518   6.753
10173POPC   C3A65561  10.479  41.533   7.053
10173POPC   C4A65562  10.530  41.551   7.353
10173POPC   C1B65563  10.786  41.505   6.453
10173POPC   C2B65564  10.717  41.466   6.753
10173POPC   C3B65565  10.714  41.500   7.053
10173POPC   C4B65566  10.757  41.438   7.353
10174POPC   NC365567  43.118  43.118   5.553
10174POPC   PO465568  43.099  43.135   5.853
10174POPC   GL165569  43.149  43.093   6.153
10174POPC   GL265570  43.254  43.063   6.153
10174POPC   C1A65571  43.093  43.092   6.453
10174POPC   D2A65572  43.071  43.093   6.753
10174POPC   C3A65573  43.133  43.064   7.053
10174POPC   C4A65574  43.135  43.087   7.353
10174POPC   C1B65575  43.372  43.097   6.453
10174POPC   C2B65576  43.393  43.110   6.753
10174POPC   C3B65577  43.342  43.137   7.053
10174POPC   C4B65578  43.355  43.094   7.353
10175POPC   NC365579  34.618  33.049   5.553
10175POPC   PO465580  34.538  33.054   5.853
10175POPC   GL165581  34.544  33.026   6.153
10175POPC   GL265582  34.509  32.904   6.153
10175POPC   C1A65583  34.586  33.069   6.453
10175POPC   D2A65584  34.600  33.005   6.753
10175POPC   C3A65585  34.597  33.040   7.053
10175POPC   C4A65586  34.538  33.072   7.353
10175POPC   C1B65587  34.546  32.749   6.453
10175POPC   C2B65588  34.561  32.744   6.753
10175POPC   C3B65589  34.535  32.739   7.053
10175POPC   C4B65590  34.546  32.778   7.353
10176POPC   NC365591  24.498  23.752   5.553
10176POPC   PO465592  24.486  23.684   5.853
10176POPC   GL165593  24.503  23.718   6.153
10176POPC   GL265594  24.592  23.638   6.153
10176POPC   C1A65595  24.537  23.757   6.453
10176POPC   D2A65596  24.530  23.675   6.753
10176POPC   C3A65597  24.462  23.699   7.053
10176POPC   C4A65598  24.536  23.725   7.353
10176POPC   C1B65599  24.777  23.669   6.453
10176POPC   C2B65600  24.744  23.641   6.753
10176POPC   C3B65601  24.762  23.662   7.053
10176POPC   C4B65602  24.769  23.654   7.353
10177POPC   NC365603   4.271  38.408   5.553
10177POPC   PO465604   4.348  38.409   5.853
10177POPC   GL165605   4.293  38.445   6.153
10177POPC   GL265606   4.243  38.392   6.153
10177POPC   C1A65607   4.307  38.422   6.453
10177POPC   D2A65608   4.356  38.424   6.753
10177POPC   C3A65609   4.283  38.423   7.053
10177POPC   C4A65610   4.361  38.441   7.353
10177POPC   C1B65611   4.143  38.343   6.453
10177POPC   C2B65612   4.077  38.333   6.753
10177POPC   C3B65613   4.172  38.343   7.053
10177POPC   C4B65614   4.162  38.339   7.353
10178POPC   NC365615  32.252  19.094   5.553
10178POPC   PO465616  32.221  19.081   5.853
10178POPC   GL165617  32.282  19.036   6.153
10178POPC   GL265618  32.332  18.902   6.153
10178POPC   C1A65619  32.252  19.087   6.453
10178POPC   D2A65620  32.258  19.071   6.753
10178POPC   C3A65621  32.291  19.076   7.053
10178POPC   C4A65622  32.215  19.094   7.353
10178POPC   C1B65623  32.342  18.838   6.453
10178POPC   C2B65624  32.368  18.856   6.753
10178POPC   C3B65625  32.392  18.831   7.053
10178POPC   C4B65626  32.410  18.841   7.353
10179POPC   NC365627   2.809  10.529   5.553
10179POPC   PO465628   2.772  10.517   5.853
10179POPC   GL165629   2.796  10.510   6.153
10179POPC   GL265630   2.777  10.623   6.153
10179POPC   C1A65631   2.773  10.483   6.453
10179POPC   D2A65632   2.779  10.553   6.753
10179POPC   C3A65633   2.739  10.537   7.053
10179POPC   C4A65634   2.797  10.562   7.353
10179POPC   C1B65635   2.826  10.787   6.453
10179POPC   C2B65636   2.819  10.792   6.753
10179POPC   C3B65637   2.886  10.735   7.053
10179POPC   C4B65638   2.859  10.805   7.353
10180POPC   NC365639   9.779   8.949   5.553
10180POPC   PO465640   9.727   9.022   5.853
10180POPC   GL165641   9.715   9.013   6.153
10180POPC   GL265642   9.870   9.065   6.153
10180POPC   C1A65643   9.707   8.958   6.453
10180POPC   D2A65644   9.745   8.969   6.753
10180POPC   C3A65645   9.723   8.973   7.053
10180POPC   C4A65646   9.742   8.996   7.353
10180POPC   C1B65647   9.963   9.047   6.453
10180POPC   C2B65648  10.014   9.032   6.753
10180POPC   C3B65649   9.988   9.050   7.053
10180POPC   C4B65650   9.977   9.085   7.353
10181POPC   NC365651  43.898  40.032   5.553
10181POPC   PO465652  43.873  39.970   5.853
10181POPC   GL165653  43.900  40.024   6.153
10181POPC   GL265654  43.779  39.941   6.153
10181POPC   C1A65655  43.856  39.969   6.453
10181POPC   D2A65656  43.893  40.016   6.753
10181POPC   C3A65657  43.918  40.052   7.053
10181POPC   C4A65658  43.842  40.025   7.353
10181POPC   C1B65659  43.707  39.883   6.453
10181POPC   C2B65660  43.702  39.884   6.753
10181POPC   C3B65661  43.702  39.862   7.053
10181POPC   C4B65662  43.686  39.904   7.353
10182POPC   NC365663  30.657  42.351   5.553
10182POPC   PO465664  30.724  42.285   5.853
10182POPC   GL165665  30.701  42.291   6.153
10182POPC   GL265666  30.758  42.260   6.153
10182POPC   C1A65667  30.659  42.356   6.453
10182POPC   D2A65668  30.735  42.302   6.753
10182POPC   C3A65669  30.658  42.328   7.053
10182POPC   C4A65670  30.663  42.367   7.353
10182POPC   C1B65671  30.864  42.224   6.453
10182POPC   C2B65672  30.893  42.167   6.753
10182POPC   C3B65673  30.870  42.189   7.053
10182POPC   C4B65674  30.874  42.197   7.353
10183POPC   NC365675  44.636  27.566   5.553
10183POPC   PO465676  44.667  27.622   5.853
10183POPC   GL165677  44.630  27.617   6.153
10183POPC   GL265678  44.745  27.519   6.153
10183POPC   C1A65679  44.643  27.636   6.453
10183POPC   D2A65680  44.641  27.567   6.753
10183POPC   C3A65681  44.618  27.571   7.053
10183POPC   C4A65682  44.698  27.639   7.353
10183POPC   C1B65683  44.847  27.487   6.453
10183POPC   C2B65684  44.944  27.465   6.753
10183POPC   C3B65685  44.898  27.477   7.053
10183POPC   C4B65686  44.864  27.522   7.353
10184POPC   NC365687   6.685  36.888   5.553
10184POPC   PO465688   6.642  36.888   5.853
10184POPC   GL165689   6.671  36.863   6.153
10184POPC   GL265690   6.693  36.760   6.153
10184POPC   C1A65691   6.619  36.907   6.453
10184POPC   D2A65692   6.613  36.931   6.753
10184POPC   C3A65693   6.658  36.895   7.053
10184POPC   C4A65694   6.691  36.908   7.353
10184POPC   C1B65695   6.651  36.611   6.453
10184POPC   C2B65696   6.680  36.637   6.753
10184POPC   C3B65697   6.666  36.686   7.053
10184POPC   C4B65698   6.696  36.618   7.353
10185POPC   NC365699  33.042  31.499   5.553
10185POPC   PO465700  33.008  31.487   5.853
10185POPC   GL165701  32.998  31.499   6.153
10185POPC   GL265702  33.093  31.577   6.153
10185POPC   C1A65703  33.031  31.477   6.453
10185POPC   D2A65704  33.033  31.433   6.753
10185POPC   C3A65705  33.062  31.451   7.053
10185POPC   C4A65706  33.070  31.519   7.353
10185POPC   C1B65707  33.125  31.671   6.453
10185POPC   C2B65708  33.142  31.761   6.753
10185POPC   C3B65709  33.117  31.678   7.053
10185POPC   C4B65710  33.114  31.676   7.353
10186POPC   NC365711   2.769  21.398   5.553
10186POPC   PO465712   2.736  21.346   5.853
10186POPC   GL165713   2.761  21.420   6.153
10186POPC   GL265714   2.689  21.244   6.153
10186POPC   C1A65715   2.753  21.381   6.453
10186POPC   D2A65716   2.808  21.377   6.753
10186POPC   C3A65717   2.753  21.358   7.053
10186POPC   C4A65718   2.743  21.405   7.353
10186POPC   C1B65719   2.701  21.111   6.453
10186POPC   C2B65720   2.705  21.146   6.753
10186POPC   C3B65721   2.706  21.197   7.053
10186POPC   C4B65722   2.650  21.147   7.353
10187POPC   NC365723  11.261  26.043   5.553
10187POPC   PO465724  11.324  26.007   5.853
10187POPC   GL165725  11.288  26.019   6.153
10187POPC   GL265726  11.252  25.927   6.153
10187POPC   C1A65727  11.305  26.061   6.453
10187POPC   D2A65728  11.294  26.041   6.753
10187POPC   C3A65729  11.299  26.062   7.053
10187POPC   C4A65730  11.334  26.015   7.353
10187POPC   C1B65731  11.114  25.811   6.453
10187POPC   C2B65732  11.155  25.820   6.753
10187POPC   C3B65733  11.119  25.880   7.053
10187POPC   C4B65734  11.172  25.836   7.353
10188POPC   NC365735  38.502  13.675   5.553
10188POPC   PO465736  38.497  13.601   5.853
10188POPC   GL165737  38.419  13.611   6.153
10188POPC   GL265738  38.398  13.677   6.153
10188POPC   C1A65739  38.422  13.658   6.453
10188POPC   D2A65740  38.437  13.578   6.753
10188POPC   C3A65741  38.465  13.662   7.053
10188POPC   C4A65742  38.456  13.588   7.353
10188POPC   C1B65743  38.253  13.751   6.453
10188POPC   C2B65744  38.207  13.771   6.753
10188POPC   C3B65745  38.220  13.768   7.053
10188POPC   C4B65746  38.227  13.742   7.353
10189POPC   NC365747  42.364  22.134   5.553
10189POPC   PO465748  42.290  22.119   5.853
10189POPC   GL165749  42.359  22.176   6.153
10189POPC   GL265750  42.357  21.994   6.153
10189POPC   C1A65751  42.349  22.117   6.453
10189POPC   D2A65752  42.315  22.195   6.753
10189POPC   C3A65753  42.301  22.150   7.053
10189POPC   C4A65754  42.305  22.116   7.353
10189POPC   C1B65755  42.242  21.943   6.453
10189POPC   C2B65756  42.304  21.960   6.753
10189POPC   C3B65757  42.297  21.898   7.053
10189POPC   C4B65758  42.275  21.965   7.353
10190POPC   NC365759  14.367   8.213   5.553
10190POPC   PO465760  14.426   8.197   5.853
10190POPC   GL165761  14.441   8.241   6.153
10190POPC   GL265762  14.271   8.192   6.153
10190POPC   C1A65763  14.359   8.189   6.453
10190POPC   D2A65764  14.354   8.204   6.753
10190POPC   C3A65765  14.370   8.179   7.053
10190POPC   C4A65766  14.399   8.148   7.353
10190POPC   C1B65767  14.219   8.132   6.453
10190POPC   C2B65768  14.165   8.053   6.753
10190POPC   C3B65769  14.144   8.125   7.053
10190POPC   C4B65770  14.143   8.051   7.353
10191POPC   NC365771  42.299  21.394   5.553
10191POPC   PO465772  42.343  21.374   5.853
10191POPC   GL165773  42.377  21.356   6.153
10191POPC   GL265774  42.477  21.309   6.153
10191POPC   C1A65775  42.372  21.425   6.453
10191POPC   D2A65776  42.361  21.345   6.753
10191POPC   C3A65777  42.312  21.412   7.053
10191POPC   C4A65778  42.298  21.378   7.353
10191POPC   C1B65779  42.496  21.210   6.453
10191POPC   C2B65780  42.492  21.253   6.753
10191POPC   C3B65781  42.553  21.229   7.053
10191POPC   C4B65782  42.510  21.208   7.353
10192POPC   NC365783  28.332  27.581   5.553
10192POPC   PO465784  28.401  27.577   5.853
10192POPC   GL165785  28.319  27.617   6.153
10192POPC   GL265786  28.426  27.477   6.153
10192POPC   C1A65787  28.321  27.587   6.453
10192POPC   D2A65788  28.419  27.563   6.753
10192POPC   C3A65789  28.392  27.632   7.053
10192POPC   C4A65790  28.327  27.555   7.353
10192POPC   C1B65791  28.468  27.318   6.453
10192POPC   C2B65792  28.474  27.401   6.753
10192POPC   C3B65793  28.501  27.382   7.053
10192POPC   C4B65794  28.419  27.356   7.353
10193POPC   NC365795  43.842  22.966   5.553
10193POPC   PO465796  43.845  22.932   5.853
10193POPC   GL165797  43.910  22.905   6.153
10193POPC   GL265798  43.961  22.870   6.153
10193POPC   C1A65799  43.885  22.979   6.453
10193POPC   D2A65800  43.840  22.924   6.753
10193POPC   C3A65801  43.885  22.960   7.053
10193POPC   C4A65802  43.867  22.957   7.353
10193POPC   C1B65803  44.115  22.828   6.453
10193POPC   C2B65804  44.128  22.884   6.753
10193POPC   C3B65805  44.168  22.828   7.053
10193POPC   C4B65806  44.159  22.866   7.353
10194POPC   NC365807  15.169   2.785   5.553
10194POPC   PO465808  15.160   2.770   5.853
10194POPC   GL165809  15.167   2.753   6.153
10194POPC   GL265810  15.205   2.878   6.153
10194POPC   C1A65811  15.225   2.790   6.453
10194POPC   D2A65812  15.158   2.789   6.753
10194POPC   C3A65813  15.192   2.767   7.053
10194POPC   C4A65814  15.166   2.800   7.353
10194POPC   C1B65815  15.239   2.971   6.453
10194POPC   C2B65816  15.225   3.005   6.753
10194POPC   C3B65817  15.170   3.056   7.053
10194POPC   C4B65818  15.157   2.966   7.353
10195POPC   NC365819  21.338  39.988   5.553
10195POPC   PO465820  21.359  40.034   5.853
10195POPC   GL165821  21.369  39.989   6.153
10195POPC   GL265822  21.391  40.135   6.153
10195POPC   C1A65823  21.367  39.994   6.453
10195POPC   D2A65824  21.407  39.976   6.753
10195POPC   C3A65825  21.414  40.050   7.053
10195POPC   C4A65826  21.421  40.002   7.353
10195POPC   C1B65827  21.493  40.235   6.453
10195POPC   C2B65828  21.509  40.272   6.753
10195POPC   C3B65829  21.487  40.258   7.053
10195POPC   C4B65830  21.538  40.267   7.353
10196POPC   NC365831  26.008  15.909   5.553
10196POPC   PO465832  26.090  15.990   5.853
10196POPC   GL165833  26.014  15.918   6.153
10196POPC   GL265834  25.932  15.877   6.153
10196POPC   C1A65835  26.034  15.997   6.453
10196POPC   D2A65836  26.027  15.980   6.753
10196POPC   C3A65837  26.089  15.954   7.053
10196POPC   C4A65838  26.050  15.954   7.353
10196POPC   C1B65839  25.952  15.735   6.453
10196POPC   C2B65840  25.908  15.713   6.753
10196POPC   C3B65841  25.884  15.759   7.053
10196POPC   C4B65842  25.903  15.750   7.353
10197POPC   NC365843  34.542  15.922   5.553
10197POPC   PO465844  34.620  15.937   5.853
10197POPC   GL165845  34.623  15.933   6.153
10197POPC   GL265846  34.697  15.848   6.153
10197POPC   C1A65847  34.544  15.933   6.453
10197POPC   D2A65848  34.603  15.993   6.753
10197POPC   C3A65849  34.615  15.929   7.053
10197POPC   C4A65850  34.536  15.994   7.353
10197POPC   C1B65851  34.814  15.802   6.453
10197POPC   C2B65852  34.817  15.799   6.753
10197POPC   C3B65853  34.812  15.786   7.053
10197POPC   C4B65854  34.787  15.794   7.353
10198POPC   NC365855  21.425  36.119   5.553
10198POPC   PO465856  21.388  36.169   5.853
10198POPC   GL165857  21.351  36.129   6.153
10198POPC   GL265858  21.434  36.191   6.153
10198POPC   C1A65859  21.377  36.152   6.453
10198POPC   D2A65860  21.363  36.164   6.753
10198POPC   C3A65861  21.362  36.159   7.053
10198POPC   C4A65862  21.431  36.139   7.353
10198POPC   C1B65863  21.576  36.313   6.453
10198POPC   C2B65864  21.539  36.264   6.753
10198POPC   C3B65865  21.618  36.297   7.053
10198POPC   C4B65866  21.583  36.316   7.353
10199POPC   NC365867  19.053  20.601   5.553
10199POPC   PO465868  19.022  20.570   5.853
10199POPC   GL165869  19.063  20.624   6.153
10199POPC   GL265870  19.159  20.570   6.153
10199POPC   C1A65871  19.037  20.639   6.453
10199POPC   D2A65872  19.026  20.572   6.753
10199POPC   C3A65873  19.089  20.617   7.053
10199POPC   C4A65874  19.081  20.600   7.353
10199POPC   C1B65875  19.265  20.470   6.453
10199POPC   C2B65876  19.231  20.488   6.753
10199POPC   C3B65877  19.290  20.504   7.053
10199POPC   C4B65878  19.263  20.434   7.353
10200POPC   NC365879  20.585  12.047   5.553
10200POPC   PO465880  20.612  12.036   5.853
10200POPC   GL165881  20.640  12.081   6.153
10200POPC   GL265882  20.645  12.197   6.153
10200POPC   C1A65883  20.645  12.121   6.453
10200POPC   D2A65884  20.647  12.050   6.753
10200POPC   C3A65885  20.583  12.049   7.053
10200POPC   C4A65886  20.640  12.077   7.353
10200POPC   C1B65887  20.715  12.235   6.453
10200POPC   C2B65888  20.735  12.312   6.753
10200POPC   C3B65889  20.736  12.296   7.053
10200POPC   C4B65890  20.793  12.312   7.353
10201POPC   NC365891  12.048  27.641   5.553
10201POPC   PO465892  12.104  27.554   5.853
10201POPC   GL165893  12.101  27.601   6.153
10201POPC   GL265894  11.960  27.491   6.153
10201POPC   C1A65895  12.109  27.614   6.453
10201POPC   D2A65896  12.085  27.602   6.753
10201POPC   C3A65897  12.078  27.592   7.053
10201POPC   C4A65898  12.037  27.595   7.353
10201POPC   C1B65899  11.940  27.379   6.453
10201POPC   C2B65900  11.914  27.378   6.753
10201POPC   C3B65901  11.907  27.355   7.053
10201POPC   C4B65902  11.905  27.404   7.353
10202POPC   NC365903  31.505  23.699   5.553
10202POPC   PO465904  31.463  23.691   5.853
10202POPC   GL165905  31.473  23.736   6.153
10202POPC   GL265906  31.563  23.712   6.153
10202POPC   C1A65907  31.431  23.676   6.453
10202POPC   D2A65908  31.461  23.724   6.753
10202POPC   C3A65909  31.453  23.676   7.053
10202POPC   C4A65910  31.487  23.687   7.353
10202POPC   C1B65911  31.751  23.706   6.453
10202POPC   C2B65912  31.745  23.648   6.753
10202POPC   C3B65913  31.723  23.697   7.053
10202POPC   C4B65914  31.721  23.699   7.353
10203POPC   NC365915  19.837  16.687   5.553
10203POPC   PO465916  19.848  16.682   5.853
10203POPC   GL165917  19.859  16.776   6.153
10203POPC   GL265918  19.802  16.871   6.153
10203POPC   C1A65919  19.830  16.726   6.453
10203POPC   D2A65920  19.799  16.749   6.753
10203POPC   C3A65921  19.804  16.716   7.053
10203POPC   C4A65922  19.870  16.715   7.353
10203POPC   C1B65923  19.874  17.010   6.453
10203POPC   C2B65924  19.833  16.976   6.753
10203POPC   C3B65925  19.838  17.001   7.053
10203POPC   C4B65926  19.872  17.015   7.353
10204POPC   NC365927  26.855  40.765   5.553
10204POPC   PO465928  26.856  40.745   5.853
10204POPC   GL165929  26.816  40.792   6.153
10204POPC   GL265930  26.974  40.822   6.153
10204POPC   C1A65931  26.780  40.826   6.453
10204POPC   D2A65932  26.780  40.778   6.753
10204POPC   C3A65933  26.831  40.820   7.053
10204POPC   C4A65934  26.834  40.802   7.353
10204POPC   C1B65935  27.020  40.915   6.453
10204POPC   C2B65936  27.044  40.880   6.753
10204POPC   C3B65937  27.081  40.835   7.053
10204POPC   C4B65938  27.017  40.850   7.353
10205POPC   NC365939  35.353  43.868   5.553
10205POPC   PO465940  35.345  43.880   5.853
10205POPC   GL165941  35.343  43.843   6.153
10205POPC   GL265942  35.334  43.800   6.153
10205POPC   C1A65943  35.327  43.906   6.453
10205POPC   D2A65944  35.320  43.897   6.753
10205POPC   C3A65945  35.331  43.841   7.053
10205POPC   C4A65946  35.356  43.897   7.353
10205POPC   C1B65947  35.353  43.643   6.453
10205POPC   C2B65948  35.369  43.645   6.753
10205POPC   C3B65949  35.441  43.624   7.053
10205POPC   C4B65950  35.356  43.611   7.353
10206POPC   NC365951  12.822  28.328   5.553
10206POPC   PO465952  12.871  28.330   5.853
10206POPC   GL165953  12.864  28.332   6.153
10206POPC   GL265954  12.731  28.374   6.153
10206POPC   C1A65955  12.862  28.319   6.453
10206POPC   D2A65956  12.811  28.343   6.753
10206POPC   C3A65957  12.846  28.378   7.053
10206POPC   C4A65958  12.878  28.403   7.353
10206POPC   C1B65959  12.643  28.309   6.453
10206POPC   C2B65960  12.591  28.291   6.753
10206POPC   C3B65961  12.605  28.330   7.053
10206POPC   C4B65962  12.632  28.318   7.353
10207POPC   NC365963   7.385  44.642   5.553
10207POPC   PO465964   7.378  44.621   5.853
10207POPC   GL165965   7.394  44.631   6.153
10207POPC   GL265966   7.536  44.546   6.153
10207POPC   C1A65967   7.421  44.617   6.453
10207POPC   D2A65968   7.428  44.658   6.753
10207POPC   C3A65969   7.403  44.647   7.053
10207POPC   C4A65970   7.433  44.620   7.353
10207POPC   C1B65971   7.566  44.544   6.453
10207POPC   C2B65972   7.624  44.484   6.753
10207POPC   C3B65973   7.635  44.452   7.053
10207POPC   C4B65974   7.649  44.515   7.353
10208POPC   NC365975   5.086  30.731   5.553
10208POPC   PO465976   5.132  30.655   5.853
10208POPC   GL165977   5.052  30.712   6.153
10208POPC   GL265978   4.931  30.787   6.153
10208POPC   C1A65979   5.095  30.683   6.453
10208POPC   D2A65980   5.073  30.685   6.753
10208POPC   C3A65981   5.136  30.664   7.053
10208POPC   C4A65982   5.058  30.736   7.353
10208POPC   C1B65983   4.836  30.830   6.453
10208POPC   C2B65984   4.817  30.790   6.753
10208POPC   C3B65985   4.872  30.832   7.053
10208POPC   C4B65986   4.865  30.747   7.353
10209POPC   NC365987  43.877   9.796   5.553
10209POPC   PO465988  43.878   9.790   5.853
10209POPC   GL165989  43.844   9.781   6.153
10209POPC   GL265990  43.746   9.689   6.153
10209POPC   C1A65991  43.904   9.748   6.453
10209POPC   D2A65992  43.901   9.712   6.753
10209POPC   C3A65993  43.838   9.722   7.053
10209POPC   C4A65994  43.927   9.720   7.353
10209POPC   C1B65995  43.729   9.554   6.453
10209POPC   C2B65996  43.708   9.564   6.753
10209POPC   C3B65997  43.718   9.644   7.053
10209POPC   C4B65998  43.713   9.645   7.353
10210POPC   NC365999   1.184  24.503   5.553
10210POPC   PO466000   1.231  24.485   5.853
10210POPC   GL166001   1.166  24.487   6.153
10210POPC   GL266002   1.049  24.579   6.153
10210POPC   C1A66003   1.236  24.475   6.453
10210POPC   D2A66004   1.217  24.444   6.753
10210POPC   C3A66005   1.249  24.468   7.053
10210POPC   C4A66006   1.237  24.501   7.353
10210POPC   C1B66007   1.022  24.569   6.453
10210POPC   C2B66008   0.986  24.550   6.753
10210POPC   C3B66009   0.950  24.562   7.053
10210POPC   C4B66010   0.993  24.616   7.353
10211POPC   NC366011  29.937  14.421   5.553
10211POPC   PO466012  29.925  14.371   5.853
10211POPC   GL166013  29.969  14.411   6.153
10211POPC   GL266014  29.820  14.371   6.153
10211POPC   C1A66015  29.940  14.419   6.453
10211POPC   D2A66016  29.940  14.390   6.753
10211POPC   C3A66017  29.957  14.388   7.053
10211POPC   C4A66018  29.921  14.424   7.353
10211POPC   C1B66019  29.686  14.390   6.453
10211POPC   C2B66020  29.665  14.426   6.753
10211POPC   C3B66021  29.693  14.388   7.053
10211POPC   C4B66022  29.709  14.450   7.353
10212POPC   NC366023  23.691  34.610   5.553
10212POPC   PO466024  23.718  34.530   5.853
10212POPC   GL166025  23.683  34.537   6.153
10212POPC   GL266026  23.556  34.595   6.153
10212POPC   C1A66027  23.762  34.617   6.453
10212POPC   D2A66028  23.735  34.546   6.753
10212POPC   C3A66029  23.726  34.571   7.053
10212POPC   C4A66030  23.749  34.619   7.353
10212POPC   C1B66031  23.473  34.664   6.453
10212POPC   C2B66032  23.419  34.636   6.753
10212POPC   C3B66033  23.471  34.620   7.053
10212POPC   C4B66034  23.422  34.628   7.353
10213POPC   NC366035   2.769  25.303   5.553
10213POPC   PO466036   2.744  25.300   5.853
10213POPC   GL166037   2.791  25.255   6.153
10213POPC   GL266038   2.720  25.375   6.153
10213POPC   C1A66039   2.745  25.255   6.453
10213POPC   D2A66040   2.735  25.276   6.753
10213POPC   C3A66041   2.754  25.309   7.053
10213POPC   C4A66042   2.777  25.230   7.353
10213POPC   C1B66043   2.629  25.475   6.453
10213POPC   C2B66044   2.685  25.515   6.753
10213POPC   C3B66045   2.607  25.508   7.053
10213POPC   C4B66046   2.654  25.478   7.353
10214POPC   NC366047   2.034  13.632   5.553
10214POPC   PO466048   1.960  13.592   5.853
10214POPC   GL166049   2.039  13.630   6.153
10214POPC   GL266050   2.073  13.578   6.153
10214POPC   C1A66051   2.013  13.595   6.453
10214POPC   D2A66052   1.948  13.662   6.753
10214POPC   C3A66053   1.974  13.621   7.053
10214POPC   C4A66054   1.987  13.611   7.353
10214POPC   C1B66055   2.177  13.460   6.453
10214POPC   C2B66056   2.152  13.477   6.753
10214POPC   C3B66057   2.170  13.474   7.053
10214POPC   C4B66058   2.213  13.405   7.353
10215POPC   NC366059  18.318  35.332   5.553
10215POPC   PO466060  18.316  35.340   5.853
10215POPC   GL166061  18.253  35.378   6.153
10215POPC   GL266062  18.275  35.179   6.153
10215POPC   C1A66063  18.309  35.314   6.453
10215POPC   D2A66064  18.264  35.351   6.753
10215POPC   C3A66065  18.259  35.346   7.053
10215POPC   C4A66066  18.306  35.306   7.353
10215POPC   C1B66067  18.297  35.062   6.453
10215POPC   C2B66068  18.264  35.135   6.753
10215POPC   C3B66069  18.340  35.078   7.053
10215POPC   C4B66070  18.308  35.089   7.353
10216POPC   NC366071   9.717   5.116   5.553
10216POPC   PO466072   9.797   5.062   5.853
10216POPC   GL166073   9.729   5.094   6.153
10216POPC   GL266074   9.674   5.113   6.153
10216POPC   C1A66075   9.791   5.093   6.453
10216POPC   D2A66076   9.796   5.099   6.753
10216POPC   C3A66077   9.735   5.137   7.053
10216POPC   C4A66078   9.702   5.127   7.353
10216POPC   C1B66079   9.499   5.181   6.453
10216POPC   C2B66080   9.455   5.164   6.753
10216POPC   C3B66081   9.521   5.102   7.053
10216POPC   C4B66082   9.492   5.179   7.353
10217POPC   NC366083  24.497  33.758   5.553
10217POPC   PO466084  24.491  33.780   5.853
10217POPC   GL166085  24.515  33.812   6.153
10217POPC   GL266086  24.378  33.823   6.153
10217POPC   C1A66087  24.536  33.774   6.453
10217POPC   D2A66088  24.452  33.837   6.753
10217POPC   C3A66089  24.534  33.821   7.053
10217POPC   C4A66090  24.459  33.839   7.353
10217POPC   C1B66091  24.286  33.840   6.453
10217POPC   C2B66092  24.237  33.878   6.753
10217POPC   C3B66093  24.231  33.810   7.053
10217POPC   C4B66094  24.288  33.810   7.353
10218POPC   NC366095  23.709  26.065   5.553
10218POPC   PO466096  23.718  26.035   5.853
10218POPC   GL166097  23.726  26.039   6.153
10218POPC   GL266098  23.630  26.151   6.153
10218POPC   C1A66099  23.692  26.050   6.453
10218POPC   D2A66100  23.762  26.056   6.753
10218POPC   C3A66101  23.740  26.025   7.053
10218POPC   C4A66102  23.746  25.993   7.353
10218POPC   C1B66103  23.503  26.202   6.453
10218POPC   C2B66104  23.524  26.170   6.753
10218POPC   C3B66105  23.488  26.231   7.053
10218POPC   C4B66106  23.470  26.228   7.353
10219POPC   NC366107  20.660  32.259   5.553
10219POPC   PO466108  20.574  32.288   5.853
10219POPC   GL166109  20.572  32.297   6.153
10219POPC   GL266110  20.550  32.367   6.153
10219POPC   C1A66111  20.631  32.216   6.453
10219POPC   D2A66112  20.589  32.252   6.753
10219POPC   C3A66113  20.572  32.272   7.053
10219POPC   C4A66114  20.607  32.206   7.353
10219POPC   C1B66115  20.485  32.508   6.453
10219POPC   C2B66116  20.461  32.478   6.753
10219POPC   C3B66117  20.473  32.443   7.053
10219POPC   C4B66118  20.518  32.425   7.353
10220POPC   NC366119  33.759   4.346   5.553
10220POPC   PO466120  33.840   4.325   5.853
10220POPC   GL166121  33.782   4.346   6.153
10220POPC   GL266122  33.636   4.313   6.153
10220POPC   C1A66123  33.792   4.315   6.453
10220POPC   D2A66124  33.773   4.327   6.753
10220POPC   C3A66125  33.817   4.290   7.053
10220POPC   C4A66126  33.781   4.320   7.353
10220POPC   C1B66127  33.567   4.288   6.453
10220POPC   C2B66128  33.583   4.286   6.753
10220POPC   C3B66129  33.557   4.287   7.053
10220POPC   C4B66130  33.516   4.328   7.353
10221POPC   NC366131   5.895  29.928   5.553
10221POPC   PO466132   5.883  29.918   5.853
10221POPC   GL166133   5.895  29.955   6.153
10221POPC   GL266134   5.943  30.061   6.153
10221POPC   C1A66135   5.907  29.951   6.453
10221POPC   D2A66136   5.886  29.894   6.753
10221POPC   C3A66137   5.823  29.930   7.053
10221POPC   C4A66138   5.904  29.877   7.353
10221POPC   C1B66139   5.981  30.126   6.453
10221POPC   C2B66140   6.009  30.177   6.753
10221POPC   C3B66141   6.014  30.184   7.053
10221POPC   C4B66142   5.999  30.100   7.353
10222POPC   NC366143   2.736   6.597   5.553
10222POPC   PO466144   2.723   6.653   5.853
10222POPC   GL166145   2.733   6.638   6.153
10222POPC   GL266146   2.603   6.669   6.153
10222POPC   C1A66147   2.750   6.667   6.453
10222POPC   D2A66148   2.767   6.624   6.753
10222POPC   C3A66149   2.785   6.596   7.053
10222POPC   C4A66150   2.752   6.616   7.353
10222POPC   C1B66151   2.558   6.635   6.453
10222POPC   C2B66152   2.536   6.660   6.753
10222POPC   C3B66153   2.522   6.594   7.053
10222POPC   C4B66154   2.475   6.639   7.353
10223POPC   NC366155  10.493  15.944   5.553
10223POPC   PO466156  10.561  15.932   5.853
10223POPC   GL166157  10.556  15.958   6.153
10223POPC   GL266158  10.478  16.031   6.153
10223POPC   C1A66159  10.569  15.936   6.453
10223POPC   D2A66160  10.544  15.917   6.753
10223POPC   C3A66161  10.499  15.991   7.053
10223POPC   C4A66162  10.486  15.979   7.353
10223POPC   C1B66163  10.443  16.189   6.453
10223POPC   C2B66164  10.500  16.223   6.753
10223POPC   C3B66165  10.485  16.232   7.053
10223POPC   C4B66166  10.447  16.227   7.353
10224POPC   NC366167  33.794  11.253   5.553
10224POPC   PO466168  33.779  11.319   5.853
10224POPC   GL166169  33.782  11.273   6.153
10224POPC   GL266170  33.639  11.338   6.153
10224POPC   C1A66171  33.847  11.285   6.453
10224POPC   D2A66172  33.797  11.295   6.753
10224POPC   C3A66173  33.846  11.306   7.053
10224POPC   C4A66174  33.808  11.345   7.353
10224POPC   C1B66175  33.533  11.397   6.453
10224POPC   C2B66176  33.554  11.374   6.753
10224POPC   C3B66177  33.593  11.385   7.053
10224POPC   C4B66178  33.592  11.357   7.353
10225POPC   NC366179  33.001   3.580   5.553
10225POPC   PO466180  33.006   3.573   5.853
10225POPC   GL166181  32.996   3.539   6.153
10225POPC   GL266182  33.110   3.471   6.153
10225POPC   C1A66183  33.027   3.574   6.453
10225POPC   D2A66184  33.027   3.506   6.753
10225POPC   C3A66185  32.999   3.494   7.053
10225POPC   C4A66186  33.041   3.572   7.353
10225POPC   C1B66187  33.256   3.333   6.453
10225POPC   C2B66188  33.244   3.416   6.753
10225POPC   C3B66189  33.230   3.390   7.053
10225POPC   C4B66190  33.223   3.390   7.353
10226POPC   NC366191  23.743  26.774   5.553
10226POPC   PO466192  23.666  26.819   5.853
10226POPC   GL166193  23.686  26.833   6.153
10226POPC   GL266194  23.677  26.695   6.153
10226POPC   C1A66195  23.674  26.823   6.453
10226POPC   D2A66196  23.668  26.807   6.753
10226POPC   C3A66197  23.680  26.842   7.053
10226POPC   C4A66198  23.735  26.835   7.353
10226POPC   C1B66199  23.535  26.639   6.453
10226POPC   C2B66200  23.557  26.629   6.753
10226POPC   C3B66201  23.566  26.571   7.053
10226POPC   C4B66202  23.521  26.603   7.353
10227POPC   NC366203  36.102  23.707   5.553
10227POPC   PO466204  36.099  23.734   5.853
10227POPC   GL166205  36.109  23.677   6.153
10227POPC   GL266206  36.224  23.764   6.153
10227POPC   C1A66207  36.159  23.699   6.453
10227POPC   D2A66208  36.151  23.695   6.753
10227POPC   C3A66209  36.147  23.732   7.053
10227POPC   C4A66210  36.091  23.708   7.353
10227POPC   C1B66211  36.306  23.797   6.453
10227POPC   C2B66212  36.365  23.832   6.753
10227POPC   C3B66213  36.316  23.838   7.053
10227POPC   C4B66214  36.347  23.798   7.353
10228POPC   NC366215  15.165  29.897   5.553
10228POPC   PO466216  15.198  29.919   5.853
10228POPC   GL166217  15.159  29.954   6.153
10228POPC   GL266218  15.106  29.840   6.153
10228POPC   C1A66219  15.203  29.956   6.453
10228POPC   D2A66220  15.215  29.943   6.753
10228POPC   C3A66221  15.203  29.945   7.053
10228POPC   C4A66222  15.227  29.892   7.353
10228POPC   C1B66223  15.009  29.695   6.453
10228POPC   C2B66224  15.006  29.708   6.753
10228POPC   C3B66225  15.004  29.691   7.053
10228POPC   C4B66226  14.989  29.737   7.353
10229POPC   NC366227  16.742  32.283   5.553
10229POPC   PO466228  16.732  32.206   5.853
10229POPC   GL166229  16.775  32.237   6.153
10229POPC   GL266230  16.630  32.269   6.153
10229POPC   C1A66231  16.730  32.294   6.453
10229POPC   D2A66232  16.689  32.277   6.753
10229POPC   C3A66233  16.712  32.278   7.053
10229POPC   C4A66234  16.734  32.223   7.353
10229POPC   C1B66235  16.508  32.235   6.453
10229POPC   C2B66236  16.453  32.278   6.753
10229POPC   C3B66237  16.467  32.220   7.053
10229POPC   C4B66238  16.457  32.240   7.353
10230POPC   NC366239  29.968  19.873   5.553
10230POPC   PO466240  29.905  19.848   5.853
10230POPC   GL166241  29.923  19.838   6.153
10230POPC   GL266242  29.864  20.007   6.153
10230POPC   C1A66243  29.939  19.833   6.453
10230POPC   D2A66244  29.962  19.836   6.753
10230POPC   C3A66245  29.916  19.874   7.053
10230POPC   C4A66246  29.901  19.845   7.353
10230POPC   C1B66247  29.900  20.122   6.453
10230POPC   C2B66248  29.918  20.124   6.753
10230POPC   C3B66249  29.915  20.126   7.053
10230POPC   C4B66250  29.940  20.071   7.353
10231POPC   NC366251  27.628  26.051   5.553
10231POPC   PO466252  27.608  26.013   5.853
10231POPC   GL166253  27.585  26.075   6.153
10231POPC   GL266254  27.644  25.955   6.153
10231POPC   C1A66255  27.583  26.004   6.453
10231POPC   D2A66256  27.642  26.013   6.753
10231POPC   C3A66257  27.629  26.012   7.053
10231POPC   C4A66258  27.564  26.067   7.353
10231POPC   C1B66259  27.635  25.767   6.453
10231POPC   C2B66260  27.608  25.834   6.753
10231POPC   C3B66261  27.624  25.833   7.053
10231POPC   C4B66262  27.656  25.805   7.353
10232POPC   NC366263  23.686  23.720   5.553
10232POPC   PO466264  23.753  23.715   5.853
10232POPC   GL166265  23.691  23.751   6.153
10232POPC   GL266266  23.692  23.830   6.153
10232POPC   C1A66267  23.748  23.755   6.453
10232POPC   D2A66268  23.740  23.704   6.753
10232POPC   C3A66269  23.758  23.699   7.053
10232POPC   C4A66270  23.748  23.762   7.353
10232POPC   C1B66271  23.716  24.004   6.453
10232POPC   C2B66272  23.768  23.955   6.753
10232POPC   C3B66273  23.766  23.938   7.053
10232POPC   C4B66274  23.735  23.969   7.353
10233POPC   NC366275   4.351   8.154   5.553
10233POPC   PO466276   4.363   8.224   5.853
10233POPC   GL166277   4.298   8.195   6.153
10233POPC   GL266278   4.394   8.289   6.153
10233POPC   C1A66279   4.357   8.193   6.453
10233POPC   D2A66280   4.295   8.176   6.753
10233POPC   C3A66281   4.316   8.168   7.053
10233POPC   C4A66282   4.307   8.226   7.353
10233POPC   C1B66283   4.521   8.434   6.453
10233POPC   C2B66284   4.484   8.385   6.753
10233POPC   C3B66285   4.427   8.369   7.053
10233POPC   C4B66286   4.509   8.432   7.353
10234POPC   NC366287  42.297  39.225   5.553
10234POPC   PO466288  42.352  39.208   5.853
10234POPC   GL166289  42.302  39.182   6.153
10234POPC   GL266290  42.254  39.379   6.153
10234POPC   C1A66291  42.292  39.192   6.453
10234POPC   D2A66292  42.329  39.189   6.753
10234POPC   C3A66293  42.305  39.202   7.053
10234POPC   C4A66294  42.286  39.237   7.353
10234POPC   C1B66295  42.284  39.520   6.453
10234POPC   C2B66296  42.309  39.484   6.753
10234POPC   C3B66297  42.229  39.434   7.053
10234POPC   C4B66298  42.275  39.474   7.353
10235POPC   NC366299  29.108  29.115   5.553
10235POPC   PO466300  29.156  29.121   5.853
10235POPC   GL166301  29.133  29.119   6.153
10235POPC   GL266302  29.234  29.133   6.153
10235POPC   C1A66303  29.192  29.174   6.453
10235POPC   D2A66304  29.188  29.119   6.753
10235POPC   C3A66305  29.166  29.119   7.053
10235POPC   C4A66306  29.175  29.095   7.353
10235POPC   C1B66307  29.422  29.196   6.453
10235POPC   C2B66308  29.416  29.205   6.753
10235POPC   C3B66309  29.371  29.172   7.053
10235POPC   C4B66310  29.365  29.208   7.353
10236POPC   NC366311  15.906  33.044   5.553
10236POPC   PO466312  15.928  33.010   5.853
10236POPC   GL166313  15.965  33.012   6.153
10236POPC   GL266314  16.012  32.867   6.153
10236POPC   C1A66315  16.000  33.018   6.453
10236POPC   D2A66316  15.952  33.035   6.753
10236POPC   C3A66317  15.962  33.072   7.053
10236POPC   C4A66318  15.998  33.053   7.353
10236POPC   C1B66319  16.034  32.811   6.453
10236POPC   C2B66320  16.056  32.740   6.753
10236POPC   C3B66321  16.058  32.744   7.053
10236POPC   C4B66322  15.985  32.816   7.353
10237POPC   NC366323  35.312   1.967   5.553
10237POPC   PO466324  35.393   1.961   5.853
10237POPC   GL166325  35.354   1.975   6.153
10237POPC   GL266326  35.464   1.906   6.153
10237POPC   C1A66327  35.354   2.039   6.453
10237POPC   D2A66328  35.400   1.965   6.753
10237POPC   C3A66329  35.303   1.956   7.053
10237POPC   C4A66330  35.366   2.006   7.353
10237POPC   C1B66331  35.519   1.836   6.453
10237POPC   C2B66332  35.541   1.770   6.753
10237POPC   C3B66333  35.539   1.842   7.053
10237POPC   C4B66334  35.476   1.764   7.353
10238POPC   NC366335  16.693  30.690   5.553
10238POPC   PO466336  16.682  30.695   5.853
10238POPC   GL166337  16.707  30.716   6.153
10238POPC   GL266338  16.606  30.592   6.153
10238POPC   C1A66339  16.738  30.745   6.453
10238POPC   D2A66340  16.750  30.668   6.753
10238POPC   C3A66341  16.741  30.726   7.053
10238POPC   C4A66342  16.777  30.676   7.353
10238POPC   C1B66343  16.468  30.557   6.453
10238POPC   C2B66344  16.521  30.608   6.753
10238POPC   C3B66345  16.524  30.607   7.053
10238POPC   C4B66346  16.546  30.589   7.353
10239POPC   NC366347   4.308  35.313   5.553
10239POPC   PO466348   4.341  35.303   5.853
10239POPC   GL166349   4.278  35.370   6.153
10239POPC   GL266350   4.241  35.392   6.153
10239POPC   C1A66351   4.289  35.356   6.453
10239POPC   D2A66352   4.280  35.370   6.753
10239POPC   C3A66353   4.348  35.302   7.053
10239POPC   C4A66354   4.339  35.369   7.353
10239POPC   C1B66355   4.117  35.486   6.453
10239POPC   C2B66356   4.138  35.426   6.753
10239POPC   C3B66357   4.103  35.448   7.053
10239POPC   C4B66358   4.055  35.443   7.353
10240POPC   NC366359  42.339  10.495   5.553
10240POPC   PO466360  42.380  10.503   5.853
10240POPC   GL166361  42.294  10.541   6.153
10240POPC   GL266362  42.277  10.480   6.153
10240POPC   C1A66363  42.323  10.500   6.453
10240POPC   D2A66364  42.324  10.524   6.753
10240POPC   C3A66365  42.363  10.508   7.053
10240POPC   C4A66366  42.347  10.541   7.353
10240POPC   C1B66367  42.162  10.378   6.453
10240POPC   C2B66368  42.192  10.384   6.753
10240POPC   C3B66369  42.124  10.372   7.053
10240POPC   C4B66370  42.129  10.385   7.353
10241POPC   NC366371   9.768  25.291   5.553
10241POPC   PO466372   9.760  25.276   5.853
10241POPC   GL166373   9.721  25.241   6.153
10241POPC   GL266374   9.767  25.381   6.153
10241POPC   C1A66375   9.750  25.245   6.453
10241POPC   D2A66376   9.708  25.273   6.753
10241POPC   C3A66377   9.710  25.279   7.053
10241POPC   C4A66378   9.711  25.311   7.353
10241POPC   C1B66379   9.845  25.427   6.453
10241POPC   C2B66380   9.934  25.508   6.753
10241POPC   C3B66381   9.926  25.483   7.053
10241POPC   C4B66382   9.910  25.491   7.353
10242POPC   NC366383   4.288  11.316   5.553
10242POPC   PO466384   4.351  11.347   5.853
10242POPC   GL166385   4.332  11.346   6.153
10242POPC   GL266386   4.425  11.389   6.153
10242POPC   C1A66387   4.360  11.252   6.453
10242POPC   D2A66388   4.304  11.292   6.753
10242POPC   C3A66389   4.315  11.322   7.053
10242POPC   C4A66390   4.310  11.331   7.353
10242POPC   C1B66391   4.460  11.482   6.453
10242POPC   C2B66392   4.503  11.514   6.753
10242POPC   C3B66393   4.509  11.473   7.053
10242POPC   C4B66394   4.495  11.521   7.353
10243POPC   NC366395  20.579  22.984   5.553
10243POPC   PO466396  20.652  22.960   5.853
10243POPC   GL166397  20.654  22.948   6.153
10243POPC   GL266398  20.494  22.981   6.153
10243POPC   C1A66399  20.571  22.925   6.453
10243POPC   D2A66400  20.635  22.984   6.753
10243POPC   C3A66401  20.589  22.904   7.053
10243POPC   C4A66402  20.640  22.917   7.353
10243POPC   C1B66403  20.403  22.994   6.453
10243POPC   C2B66404  20.366  22.924   6.753
10243POPC   C3B66405  20.321  22.946   7.053
10243POPC   C4B66406  20.343  22.998   7.353
10244POPC   NC366407  40.769   7.441   5.553
10244POPC   PO466408  40.828   7.460   5.853
10244POPC   GL166409  40.768   7.452   6.153
10244POPC   GL266410  40.707   7.312   6.153
10244POPC   C1A66411  40.814   7.460   6.453
10244POPC   D2A66412  40.751   7.447   6.753
10244POPC   C3A66413  40.765   7.427   7.053
10244POPC   C4A66414  40.785   7.387   7.353
10244POPC   C1B66415  40.600   7.251   6.453
10244POPC   C2B66416  40.524   7.293   6.753
10244POPC   C3B66417  40.538   7.298   7.053
10244POPC   C4B66418  40.540   7.260   7.353
10245POPC   NC366419   3.585  33.819   5.553
10245POPC   PO466420   3.516  33.839   5.853
10245POPC   GL166421   3.508  33.806   6.153
10245POPC   GL266422   3.518  33.697   6.153
10245POPC   C1A66423   3.554  33.780   6.453
10245POPC   D2A66424   3.514  33.797   6.753
10245POPC   C3A66425   3.508  33.845   7.053
10245POPC   C4A66426   3.584  33.848   7.353
10245POPC   C1B66427   3.427  33.594   6.453
10245POPC   C2B66428   3.502  33.559   6.753
10245POPC   C3B66429   3.432  33.598   7.053
10245POPC   C4B66430   3.434  33.604   7.353
10246POPC   NC366431   3.504  28.333   5.553
10246POPC   PO466432   3.530  28.400   5.853
10246POPC   GL166433   3.586  28.404   6.153
10246POPC   GL266434   3.636  28.377   6.153
10246POPC   C1A66435   3.590  28.375   6.453
10246POPC   D2A66436   3.552  28.390   6.753
10246POPC   C3A66437   3.570  28.392   7.053
10246POPC   C4A66438   3.570  28.337   7.353
10246POPC   C1B66439   3.823  28.353   6.453
10246POPC   C2B66440   3.830  28.385   6.753
10246POPC   C3B66441   3.759  28.312   7.053
10246POPC   C4B66442   3.788  28.372   7.353
10247POPC   NC366443  12.046  23.743   5.553
10247POPC   PO466444  12.090  23.676   5.853
10247POPC   GL166445  12.048  23.709   6.153
10247POPC   GL266446  12.032  23.648   6.153
10247POPC   C1A66447  12.120  23.757   6.453
10247POPC   D2A66448  12.116  23.710   6.753
10247POPC   C3A66449  12.089  23.681   7.053
10247POPC   C4A66450  12.105  23.762   7.353
10247POPC   C1B66451  11.970  23.558   6.453
10247POPC   C2B66452  11.886  23.502   6.753
10247POPC   C3B66453  11.885  23.527   7.053
10247POPC   C4B66454  11.899  23.475   7.353
10248POPC   NC366455   9.785   7.421   5.553
10248POPC   PO466456   9.746   7.374   5.853
10248POPC   GL166457   9.781   7.468   6.153
10248POPC   GL266458   9.643   7.552   6.153
10248POPC   C1A66459   9.767   7.419   6.453
10248POPC   D2A66460   9.743   7.465   6.753
10248POPC   C3A66461   9.712   7.462   7.053
10248POPC   C4A66462   9.707   7.443   7.353
10248POPC   C1B66463   9.630   7.689   6.453
10248POPC   C2B66464   9.625   7.684   6.753
10248POPC   C3B66465   9.610   7.594   7.053
10248POPC   C4B66466   9.578   7.685   7.353
10249POPC   NC366467  40.756   8.183   5.553
10249POPC   PO466468  40.827   8.206   5.853
10249POPC   GL166469  40.790   8.205   6.153
10249POPC   GL266470  40.923   8.226   6.153
10249POPC   C1A66471  40.772   8.165   6.453
10249POPC   D2A66472  40.750   8.243   6.753
10249POPC   C3A66473  40.770   8.179   7.053
10249POPC   C4A66474  40.761   8.171   7.353
10249POPC   C1B66475  41.000   8.240   6.453
10249POPC   C2B66476  41.027   8.246   6.753
10249POPC   C3B66477  41.011   8.327   7.053
10249POPC   C4B66478  40.983   8.303   7.353
10250POPC   NC366479  29.115  40.769   5.553
10250POPC   PO466480  29.150  40.827   5.853
10250POPC   GL166481  29.153  40.754   6.153
10250POPC   GL266482  29.082  40.663   6.153
10250POPC   C1A66483  29.168  40.751   6.453
10250POPC   D2A66484  29.178  40.806   6.753
10250POPC   C3A66485  29.148  40.772   7.053
10250POPC   C4A66486  29.098  40.810   7.353
10250POPC   C1B66487  29.145  40.560   6.453
10250POPC   C2B66488  29.101  40.531   6.753
10250POPC   C3B66489  29.101  40.533   7.053
10250POPC   C4B66490  29.116  40.546   7.353
10251POPC   NC366491  19.809  12.071   5.553
10251POPC   PO466492  19.836  12.078   5.853
10251POPC   GL166493  19.790  12.111   6.153
10251POPC   GL266494  19.901  12.211   6.153
10251POPC   C1A66495  19.816  12.074   6.453
10251POPC   D2A66496  19.878  12.036   6.753
10251POPC   C3A66497  19.822  12.029   7.053
10251POPC   C4A66498  19.876  12.055   7.353
10251POPC   C1B66499  19.958  12.297   6.453
10251POPC   C2B66500  19.944  12.302   6.753
10251POPC   C3B66501  20.032  12.264   7.053
10251POPC   C4B66502  19.994  12.284   7.353
10252POPC   NC366503  15.225  22.969   5.553
10252POPC   PO466504  15.184  22.925   5.853
10252POPC   GL166505  15.152  22.971   6.153
10252POPC   GL266506  15.255  22.884   6.153
10252POPC   C1A66507  15.203  22.987   6.453
10252POPC   D2A66508  15.206  22.962   6.753
10252POPC   C3A66509  15.137  22.958   7.053
10252POPC   C4A66510  15.192  22.982   7.353
10252POPC   C1B66511  15.448  22.853   6.453
10252POPC   C2B66512  15.463  22.889   6.753
10252POPC   C3B66513  15.385  22.842   7.053
10252POPC   C4B66514  15.445  22.929   7.353
10253POPC   NC366515  33.041  30.725   5.553
10253POPC   PO466516  33.054  30.711   5.853
10253POPC   GL166517  33.055  30.732   6.153
10253POPC   GL266518  32.960  30.574   6.153
10253POPC   C1A66519  33.022  30.706   6.453
10253POPC   D2A66520  33.032  30.742   6.753
10253POPC   C3A66521  32.978  30.709   7.053
10253POPC   C4A66522  33.001  30.716   7.353
10253POPC   C1B66523  32.839  30.558   6.453
10253POPC   C2B66524  32.833  30.531   6.753
10253POPC   C3B66525  32.866  30.588   7.053
10253POPC   C4B66526  32.822  30.580   7.353
10254POPC   NC366527  22.959  32.231   5.553
10254POPC   PO466528  22.913  32.205   5.853
10254POPC   GL166529  22.949  32.292   6.153
10254POPC   GL266530  23.100  32.230   6.153
10254POPC   C1A66531  22.976  32.201   6.453
10254POPC   D2A66532  22.986  32.259   6.753
10254POPC   C3A66533  22.910  32.256   7.053
10254POPC   C4A66534  22.962  32.206   7.353
10254POPC   C1B66535  23.140  32.326   6.453
10254POPC   C2B66536  23.135  32.280   6.753
10254POPC   C3B66537  23.184  32.328   7.053
10254POPC   C4B66538  23.188  32.259   7.353
10255POPC   NC366539   5.054  12.852   5.553
10255POPC   PO466540   5.137  12.882   5.853
10255POPC   GL166541   5.075  12.833   6.153
10255POPC   GL266542   5.007  12.765   6.153
10255POPC   C1A66543   5.111  12.821   6.453
10255POPC   D2A66544   5.054  12.874   6.753
10255POPC   C3A66545   5.127  12.803   7.053
10255POPC   C4A66546   5.051  12.847   7.353
10255POPC   C1B66547   4.861  12.726   6.453
10255POPC   C2B66548   4.843  12.709   6.753
10255POPC   C3B66549   4.846  12.725   7.053
10255POPC   C4B66550   4.891  12.716   7.353
10256POPC   NC366551  36.108   4.329   5.553
10256POPC   PO466552  36.161   4.285   5.853
10256POPC   GL166553  36.141   4.332   6.153
10256POPC   GL266554  36.218   4.327   6.153
10256POPC   C1A66555  36.171   4.324   6.453
10256POPC   D2A66556  36.115   4.327   6.753
10256POPC   C3A66557  36.084   4.325   7.053
10256POPC   C4A66558  36.111   4.321   7.353
10256POPC   C1B66559  36.327   4.335   6.453
10256POPC   C2B66560  36.357   4.243   6.753
10256POPC   C3B66561  36.410   4.299   7.053
10256POPC   C4B66562  36.327   4.302   7.353
10257POPC   NC366563  31.521  26.853   5.553
10257POPC   PO466564  31.452  26.810   5.853
10257POPC   GL166565  31.439  26.842   6.153
10257POPC   GL266566  31.616  26.738   6.153
10257POPC   C1A66567  31.481  26.807   6.453
10257POPC   D2A66568  31.459  26.847   6.753
10257POPC   C3A66569  31.433  26.860   7.053
10257POPC   C4A66570  31.513  26.844   7.353
10257POPC   C1B66571  31.703  26.723   6.453
10257POPC   C2B66572  31.674  26.674   6.753
10257POPC   C3B66573  31.695  26.699   7.053
10257POPC   C4B66574  31.743  26.692   7.353
10258POPC   NC366575   1.988  24.517   5.553
10258POPC   PO466576   1.983  24.523   5.853
10258POPC   GL166577   1.962  24.518   6.153
10258POPC   GL266578   2.061  24.584   6.153
10258POPC   C1A66579   2.038  24.503   6.453
10258POPC   D2A66580   1.994  24.496   6.753
10258POPC   C3A66581   2.027  24.524   7.053
10258POPC   C4A66582   1.973  24.506   7.353
10258POPC   C1B66583   2.093  24.746   6.453
10258POPC   C2B66584   2.098  24.686   6.753
10258POPC   C3B66585   2.144  24.675   7.053
10258POPC   C4B66586   2.107  24.683   7.353
10259POPC   NC366587  40.752   5.052   5.553
10259POPC   PO466588  40.751   5.137   5.853
10259POPC   GL166589  40.747   5.059   6.153
10259POPC   GL266590  40.671   5.015   6.153
10259POPC   C1A66591  40.831   5.051   6.453
10259POPC   D2A66592  40.744   5.050   6.753
10259POPC   C3A66593  40.734   5.112   7.053
10259POPC   C4A66594  40.782   5.137   7.353
10259POPC   C1B66595  40.515   5.014   6.453
10259POPC   C2B66596  40.579   5.021   6.753
10259POPC   C3B66597  40.546   5.041   7.053
10259POPC   C4B66598  40.582   5.034   7.353
10260POPC   NC366599  22.206  34.604   5.553
10260POPC   PO466600  22.204  34.610   5.853
10260POPC   GL166601  22.208  34.559   6.153
10260POPC   GL266602  22.284  34.485   6.153
10260POPC   C1A66603  22.142  34.601   6.453
10260POPC   D2A66604  22.169  34.603   6.753
10260POPC   C3A66605  22.171  34.537   7.053
10260POPC   C4A66606  22.179  34.578   7.353
10260POPC   C1B66607  22.413  34.466   6.453
10260POPC   C2B66608  22.328  34.397   6.753
10260POPC   C3B66609  22.369  34.414   7.053
10260POPC   C4B66610  22.408  34.408   7.353
10261POPC   NC366611  15.227  44.682   5.553
10261POPC   PO466612  15.189  44.707   5.853
10261POPC   GL166613  15.164  44.654   6.153
10261POPC   GL266614  15.295  44.524   6.153
10261POPC   C1A66615  15.183  44.623   6.453
10261POPC   D2A66616  15.158  44.669   6.753
10261POPC   C3A66617  15.219  44.711   7.053
10261POPC   C4A66618  15.169  44.687   7.353
10261POPC   C1B66619  15.321  44.440   6.453
10261POPC   C2B66620  15.291  44.501   6.753
10261POPC   C3B66621  15.382  44.467   7.053
10261POPC   C4B66622  15.376  44.484   7.353
10262POPC   NC366623  36.134  43.914   5.553
10262POPC   PO466624  36.094  43.844   5.853
10262POPC   GL166625  36.159  43.861   6.153
10262POPC   GL266626  36.104  43.743   6.153
10262POPC   C1A66627  36.134  43.920   6.453
10262POPC   D2A66628  36.093  43.863   6.753
10262POPC   C3A66629  36.125  43.931   7.053
10262POPC   C4A66630  36.108  43.854   7.353
10262POPC   C1B66631  36.050  43.648   6.453
10262POPC   C2B66632  36.027  43.672   6.753
10262POPC   C3B66633  35.970  43.683   7.053
10262POPC   C4B66634  35.971  43.693   7.353
10263POPC   NC366635   6.627  24.482   5.553
10263POPC   PO466636   6.663  24.449   5.853
10263POPC   GL166637   6.678  24.441   6.153
10263POPC   GL266638   6.742  24.522   6.153
10263POPC   C1A66639   6.641  24.535   6.453
10263POPC   D2A66640   6.642  24.519   6.753
10263POPC   C3A66641   6.632  24.508   7.053
10263POPC   C4A66642   6.649  24.496   7.353
10263POPC   C1B66643   6.928  24.515   6.453
10263POPC   C2B66644   6.910  24.474   6.753
10263POPC   C3B66645   6.912  24.562   7.053
10263POPC   C4B66646   6.872  24.540   7.353
10264POPC   NC366647  39.255   5.073   5.553
10264POPC   PO466648  39.207   5.103   5.853
10264POPC   GL166649  39.268   5.055   6.153
10264POPC   GL266650  39.297   4.993   6.153
10264POPC   C1A66651  39.269   5.114   6.453
10264POPC   D2A66652  39.281   5.131   6.753
10264POPC   C3A66653  39.271   5.067   7.053
10264POPC   C4A66654  39.232   5.119   7.353
10264POPC   C1B66655  39.360   4.929   6.453
10264POPC   C2B66656  39.399   4.946   6.753
10264POPC   C3B66657  39.393   4.950   7.053
10264POPC   C4B66658  39.417   4.881   7.353
10265POPC   NC366659  38.478  22.196   5.553
10265POPC   PO466660  38.414  22.206   5.853
10265POPC   GL166661  38.489  22.203   6.153
10265POPC   GL266662  38.367  22.058   6.153
10265POPC   C1A66663  38.432  22.137   6.453
10265POPC   D2A66664  38.418  22.198   6.753
10265POPC   C3A66665  38.408  22.144   7.053
10265POPC   C4A66666  38.448  22.185   7.353
10265POPC   C1B66667  38.220  21.980   6.453
10265POPC   C2B66668  38.263  22.036   6.753
10265POPC   C3B66669  38.270  22.045   7.053
10265POPC   C4B66670  38.288  21.996   7.353
10266POPC   NC366671   8.226  24.477   5.553
10266POPC   PO466672   8.167  24.523   5.853
10266POPC   GL166673   8.159  24.443   6.153
10266POPC   GL266674   8.209  24.625   6.153
10266POPC   C1A66675   8.158  24.503   6.453
10266POPC   D2A66676   8.183  24.492   6.753
10266POPC   C3A66677   8.179  24.509   7.053
10266POPC   C4A66678   8.170  24.469   7.353
10266POPC   C1B66679   8.347  24.731   6.453
10266POPC   C2B66680   8.280  24.711   6.753
10266POPC   C3B66681   8.298  24.727   7.053
10266POPC   C4B66682   8.286  24.762   7.353
10267POPC   NC366683   8.223   3.572   5.553
10267POPC   PO466684   8.230   3.525   5.853
10267POPC   GL166685   8.200   3.500   6.153
10267POPC   GL266686   8.098   3.478   6.153
10267POPC   C1A66687   8.157   3.545   6.453
10267POPC   D2A66688   8.196   3.557   6.753
10267POPC   C3A66689   8.207   3.587   7.053
10267POPC   C4A66690   8.229   3.517   7.353
10267POPC   C1B66691   8.058   3.362   6.453
10267POPC   C2B66692   8.094   3.350   6.753
10267POPC   C3B66693   8.101   3.334   7.053
10267POPC   C4B66694   8.090   3.334   7.353
10268POPC   NC366695  22.950  16.760   5.553
10268POPC   PO466696  22.938  16.779   5.853
10268POPC   GL166697  22.917  16.764   6.153
10268POPC   GL266698  23.010  16.776   6.153
10268POPC   C1A66699  22.921  16.754   6.453
10268POPC   D2A66700  22.915  16.699   6.753
10268POPC   C3A66701  22.922  16.705   7.053
10268POPC   C4A66702  22.900  16.710   7.353
10268POPC   C1B66703  23.159  16.859   6.453
10268POPC   C2B66704  23.102  16.925   6.753
10268POPC   C3B66705  23.110  16.849   7.053
10268POPC   C4B66706  23.079  16.871   7.353
10269POPC   NC366707   0.451  44.616   5.553
10269POPC   PO466708   0.442  44.705   5.853
10269POPC   GL166709   0.447  44.705   6.153
10269POPC   GL266710   0.349  44.582   6.153
10269POPC   C1A66711   0.395  44.669   6.453
10269POPC   D2A66712   0.448  44.634   6.753
10269POPC   C3A66713   0.455  44.614   7.053
10269POPC   C4A66714   0.427  44.690   7.353
10269POPC   C1B66715   0.253  44.515   6.453
10269POPC   C2B66716   0.264  44.495   6.753
10269POPC   C3B66717   0.299  44.507   7.053
10269POPC   C4B66718   0.249  44.519   7.353
10270POPC   NC366719  43.934   5.136   5.553
10270POPC   PO466720  43.918   5.073   5.853
10270POPC   GL166721  43.893   5.142   6.153
10270POPC   GL266722  43.724   5.132   6.153
10270POPC   C1A66723  43.921   5.069   6.453
10270POPC   D2A66724  43.853   5.061   6.753
10270POPC   C3A66725  43.863   5.134   7.053
10270POPC   C4A66726  43.912   5.135   7.353
10270POPC   C1B66727  43.603   5.163   6.453
10270POPC   C2B66728  43.616   5.144   6.753
10270POPC   C3B66729  43.668   5.076   7.053
10270POPC   C4B66730  43.685   5.097   7.353
10271POPC   NC366731  33.784  39.210   5.553
10271POPC   PO466732  33.846  39.226   5.853
10271POPC   GL166733  33.816  39.245   6.153
10271POPC   GL266734  33.772  39.361   6.153
10271POPC   C1A66735  33.796  39.225   6.453
10271POPC   D2A66736  33.848  39.238   6.753
10271POPC   C3A66737  33.754  39.245   7.053
10271POPC   C4A66738  33.817  39.271   7.353
10271POPC   C1B66739  33.777  39.449   6.453
10271POPC   C2B66740  33.830  39.506   6.753
10271POPC   C3B66741  33.823  39.497   7.053
10271POPC   C4B66742  33.863  39.499   7.353
10272POPC   NC366743   1.956  42.324   5.553
10272POPC   PO466744   2.032  42.370   5.853
10272POPC   GL166745   1.969  42.337   6.153
10272POPC   GL266746   1.857  42.324   6.153
10272POPC   C1A66747   2.008  42.368   6.453
10272POPC   D2A66748   1.971  42.340   6.753
10272POPC   C3A66749   2.009  42.379   7.053
10272POPC   C4A66750   1.954  42.361   7.353
10272POPC   C1B66751   1.730  42.268   6.453
10272POPC   C2B66752   1.784  42.276   6.753
10272POPC   C3B66753   1.720  42.306   7.053
10272POPC   C4B66754   1.732  42.266   7.353
10273POPC   NC366755   8.985  39.270   5.553
10273POPC   PO466756   9.013  39.198   5.853
10273POPC   GL166757   8.929  39.206   6.153
10273POPC   GL266758   9.011  39.133   6.153
10273POPC   C1A66759   9.004  39.269   6.453
10273POPC   D2A66760   8.938  39.237   6.753
10273POPC   C3A66761   8.984  39.265   7.053
10273POPC   C4A66762   8.943  39.190   7.353
10273POPC   C1B66763   9.005  38.979   6.453
10273POPC   C2B66764   9.014  38.978   6.753
10273POPC   C3B66765   8.955  38.955   7.053
10273POPC   C4B66766   8.948  38.986   7.353
10274POPC   NC366767   0.395  18.322   5.553
10274POPC   PO466768   0.452  18.268   5.853
10274POPC   GL166769   0.407  18.291   6.153
10274POPC   GL266770   0.544  18.186   6.153
10274POPC   C1A66771   0.391  18.275   6.453
10274POPC   D2A66772   0.485  18.234   6.753
10274POPC   C3A66773   0.409  18.302   7.053
10274POPC   C4A66774   0.426  18.305   7.353
10274POPC   C1B66775   0.645  18.079   6.453
10274POPC   C2B66776   0.607  18.061   6.753
10274POPC   C3B66777   0.650  18.081   7.053
10274POPC   C4B66778   0.598  18.149   7.353
10275POPC   NC366779  26.071  30.656   5.553
10275POPC   PO466780  26.048  30.660   5.853
10275POPC   GL166781  26.041  30.710   6.153
10275POPC   GL266782  26.063  30.573   6.153
10275POPC   C1A66783  26.001  30.673   6.453
10275POPC   D2A66784  26.088  30.741   6.753
10275POPC   C3A66785  26.081  30.691   7.053
10275POPC   C4A66786  26.002  30.707   7.353
10275POPC   C1B66787  26.114  30.515   6.453
10275POPC   C2B66788  26.104  30.475   6.753
10275POPC   C3B66789  26.128  30.466   7.053
10275POPC   C4B66790  26.128  30.493   7.353
10276POPC   NC366791  14.369  32.277   5.553
10276POPC   PO466792  14.392  32.269   5.853
10276POPC   GL166793  14.434  32.261   6.153
10276POPC   GL266794  14.332  32.331   6.153
10276POPC   C1A66795  14.414  32.231   6.453
10276POPC   D2A66796  14.445  32.208   6.753
10276POPC   C3A66797  14.405  32.216   7.053
10276POPC   C4A66798  14.396  32.224   7.353
10276POPC   C1B66799  14.187  32.329   6.453
10276POPC   C2B66800  14.195  32.379   6.753
10276POPC   C3B66801  14.210  32.378   7.053
10276POPC   C4B66802  14.194  32.362   7.353
10277POPC   NC366803  12.868   8.951   5.553
10277POPC   PO466804  12.882   8.957   5.853
10277POPC   GL166805  12.830   8.981   6.153
10277POPC   GL266806  12.787   9.021   6.153
10277POPC   C1A66807  12.805   9.001   6.453
10277POPC   D2A66808  12.851   8.960   6.753
10277POPC   C3A66809  12.840   8.993   7.053
10277POPC   C4A66810  12.840   8.970   7.353
10277POPC   C1B66811  12.590   9.089   6.453
10277POPC   C2B66812  12.663   9.047   6.753
10277POPC   C3B66813  12.664   9.054   7.053
10277POPC   C4B66814  12.634   9.035   7.353
10278POPC   NC366815  14.429  22.122   5.553
10278POPC   PO466816  14.367  22.114   5.853
10278POPC   GL166817  14.375  22.203   6.153
10278POPC   GL266818  14.249  22.130   6.153
10278POPC   C1A66819  14.386  22.128   6.453
10278POPC   D2A66820  14.376  22.211   6.753
10278POPC   C3A66821  14.425  22.157   7.053
10278POPC   C4A66822  14.369  22.209   7.353
10278POPC   C1B66823  14.218  22.022   6.453
10278POPC   C2B66824  14.205  22.092   6.753
10278POPC   C3B66825  14.129  22.085   7.053
10278POPC   C4B66826  14.183  22.004   7.353
10279POPC   NC366827  42.339  26.084   5.553
10279POPC   PO466828  42.372  26.031   5.853
10279POPC   GL166829  42.332  26.005   6.153
10279POPC   GL266830  42.414  26.114   6.153
10279POPC   C1A66831  42.302  26.048   6.453
10279POPC   D2A66832  42.346  26.064   6.753
10279POPC   C3A66833  42.318  26.044   7.053
10279POPC   C4A66834  42.300  26.012   7.353
10279POPC   C1B66835  42.489  26.268   6.453
10279POPC   C2B66836  42.470  26.247   6.753
10279POPC   C3B66837  42.502  26.195   7.053
10279POPC   C4B66838  42.490  26.256   7.353
10280POPC   NC366839  10.478  13.622   5.553
10280POPC   PO466840  10.537  13.628   5.853
10280POPC   GL166841  10.532  13.598   6.153
10280POPC   GL266842  10.617  13.687   6.153
10280POPC   C1A66843  10.548  13.670   6.453
10280POPC   D2A66844  10.497  13.652   6.753
10280POPC   C3A66845  10.552  13.599   7.053
10280POPC   C4A66846  10.542  13.675   7.353
10280POPC   C1B66847  10.718  13.730   6.453
10280POPC   C2B66848  10.732  13.721   6.753
10280POPC   C3B66849  10.693  13.724   7.053
10280POPC   C4B66850  10.720  13.724   7.353
10281POPC   NC366851  35.340  32.993   5.553
10281POPC   PO466852  35.388  33.067   5.853
10281POPC   GL166853  35.335  32.987   6.153
10281POPC   GL266854  35.357  32.904   6.153
10281POPC   C1A66855  35.335  33.004   6.453
10281POPC   D2A66856  35.314  32.988   6.753
10281POPC   C3A66857  35.361  32.979   7.053
10281POPC   C4A66858  35.393  32.975   7.353
10281POPC   C1B66859  35.252  32.819   6.453
10281POPC   C2B66860  35.255  32.798   6.753
10281POPC   C3B66861  35.337  32.760   7.053
10281POPC   C4B66862  35.263  32.827   7.353
10282POPC   NC366863   0.413  24.511   5.553
10282POPC   PO466864   0.443  24.485   5.853
10282POPC   GL166865   0.441  24.446   6.153
10282POPC   GL266866   0.472  24.401   6.153
10282POPC   C1A66867   0.397  24.493   6.453
10282POPC   D2A66868   0.471  24.496   6.753
10282POPC   C3A66869   0.475  24.477   7.053
10282POPC   C4A66870   0.432  24.452   7.353
10282POPC   C1B66871   0.619  24.276   6.453
10282POPC   C2B66872   0.598  24.266   6.753
10282POPC   C3B66873   0.620  24.324   7.053
10282POPC   C4B66874   0.644  24.339   7.353
10283POPC   NC366875   0.422   7.418   5.553
10283POPC   PO466876   0.410   7.470   5.853
10283POPC   GL166877   0.477   7.467   6.153
10283POPC   GL266878   0.353   7.330   6.153
10283POPC   C1A66879   0.406   7.379   6.453
10283POPC   D2A66880   0.456   7.403   6.753
10283POPC   C3A66881   0.440   7.454   7.053
10283POPC   C4A66882   0.462   7.440   7.353
10283POPC   C1B66883   0.300   7.203   6.453
10283POPC   C2B66884   0.280   7.287   6.753
10283POPC   C3B66885   0.262   7.262   7.053
10283POPC   C4B66886   0.227   7.230   7.353
10284POPC   NC366887   0.472  25.279   5.553
10284POPC   PO466888   0.468  25.268   5.853
10284POPC   GL166889   0.468  25.298   6.153
10284POPC   GL266890   0.537  25.250   6.153
10284POPC   C1A66891   0.446  25.218   6.453
10284POPC   D2A66892   0.408  25.303   6.753
10284POPC   C3A66893   0.393  25.284   7.053
10284POPC   C4A66894   0.418  25.278   7.353
10284POPC   C1B66895   0.710  25.334   6.453
10284POPC   C2B66896   0.729  25.350   6.753
10284POPC   C3B66897   0.641  25.282   7.053
10284POPC   C4B66898   0.649  25.281   7.353
10285POPC   NC366899  12.850  34.564   5.553
10285POPC   PO466900  12.851  34.570   5.853
10285POPC   GL166901  12.891  34.588   6.153
10285POPC   GL266902  12.683  34.589   6.153
10285POPC   C1A66903  12.862  34.539   6.453
10285POPC   D2A66904  12.820  34.568   6.753
10285POPC   C3A66905  12.873  34.543   7.053
10285POPC   C4A66906  12.814  34.559   7.353
10285POPC   C1B66907  12.615  34.593   6.453
10285POPC   C2B66908  12.616  34.604   6.753
10285POPC   C3B66909  12.635  34.606   7.053
10285POPC   C4B66910  12.584  34.584   7.353
10286POPC   NC366911  40.772  10.508   5.553
10286POPC   PO466912  40.766  10.531   5.853
10286POPC   GL166913  40.812  10.487   6.153
10286POPC   GL266914  40.882  10.514   6.153
10286POPC   C1A66915  40.828  10.555   6.453
10286POPC   D2A66916  40.787  10.497   6.753
10286POPC   C3A66917  40.799  10.501   7.053
10286POPC   C4A66918  40.749  10.565   7.353
10286POPC   C1B66919  40.961  10.429   6.453
10286POPC   C2B66920  41.038  10.386   6.753
10286POPC   C3B66921  40.983  10.417   7.053
10286POPC   C4B66922  41.003  10.388   7.353
10287POPC   NC366923  24.457  42.296   5.553
10287POPC   PO466924  24.450  42.309   5.853
10287POPC   GL166925  24.480  42.288   6.153
10287POPC   GL266926  24.543  42.428   6.153
10287POPC   C1A66927  24.502  42.344   6.453
10287POPC   D2A66928  24.458  42.377   6.753
10287POPC   C3A66929  24.471  42.352   7.053
10287POPC   C4A66930  24.532  42.315   7.353
10287POPC   C1B66931  24.624  42.565   6.453
10287POPC   C2B66932  24.613  42.586   6.753
10287POPC   C3B66933  24.606  42.514   7.053
10287POPC   C4B66934  24.596  42.548   7.353
10288POPC   NC366935  32.265  20.617   5.553
10288POPC   PO466936  32.290  20.630   5.853
10288POPC   GL166937  32.264  20.579   6.153
10288POPC   GL266938  32.261  20.522   6.153
10288POPC   C1A66939  32.216  20.594   6.453
10288POPC   D2A66940  32.274  20.642   6.753
10288POPC   C3A66941  32.270  20.600   7.053
10288POPC   C4A66942  32.237  20.582   7.353
10288POPC   C1B66943  32.294  20.350   6.453
10288POPC   C2B66944  32.322  20.406   6.753
10288POPC   C3B66945  32.312  20.353   7.053
10288POPC   C4B66946  32.280  20.415   7.353
10289POPC   NC366947  26.805  40.046   5.553
10289POPC   PO466948  26.862  39.993   5.853
10289POPC   GL166949  26.866  39.991   6.153
10289POPC   GL266950  26.672  40.102   6.153
10289POPC   C1A66951  26.847  39.989   6.453
10289POPC   D2A66952  26.776  40.014   6.753
10289POPC   C3A66953  26.846  40.048   7.053
10289POPC   C4A66954  26.834  39.972   7.353
10289POPC   C1B66955  26.571  40.126   6.453
10289POPC   C2B66956  26.647  40.087   6.753
10289POPC   C3B66957  26.604  40.085   7.053
10289POPC   C4B66958  26.604  40.149   7.353
10290POPC   NC366959   2.808  40.809   5.553
10290POPC   PO466960   2.766  40.744   5.853
10290POPC   GL166961   2.796  40.749   6.153
10290POPC   GL266962   2.779  40.911   6.153
10290POPC   C1A66963   2.720  40.753   6.453
10290POPC   D2A66964   2.792  40.779   6.753
10290POPC   C3A66965   2.788  40.749   7.053
10290POPC   C4A66966   2.724  40.743   7.353
10290POPC   C1B66967   2.789  41.024   6.453
10290POPC   C2B66968   2.806  40.999   6.753
10290POPC   C3B66969   2.804  40.990   7.053
10290POPC   C4B66970   2.788  40.991   7.353
10291POPC   NC366971   8.212  13.655   5.553
10291POPC   PO466972   8.177  13.666   5.853
10291POPC   GL166973   8.168  13.656   6.153
10291POPC   GL266974   8.231  13.499   6.153
10291POPC   C1A66975   8.169  13.638   6.453
10291POPC   D2A66976   8.170  13.587   6.753
10291POPC   C3A66977   8.223  13.606   7.053
10291POPC   C4A66978   8.246  13.652   7.353
10291POPC   C1B66979   8.351  13.359   6.453
10291POPC   C2B66980   8.322  13.450   6.753
10291POPC   C3B66981   8.258  13.382   7.053
10291POPC   C4B66982   8.323  13.423   7.353
10292POPC   NC366983  42.295   3.502   5.553
10292POPC   PO466984  42.302   3.561   5.853
10292POPC   GL166985  42.383   3.543   6.153
10292POPC   GL266986  42.369   3.437   6.153
10292POPC   C1A66987  42.331   3.532   6.453
10292POPC   D2A66988  42.313   3.535   6.753
10292POPC   C3A66989  42.304   3.568   7.053
10292POPC   C4A66990  42.316   3.515   7.353
10292POPC   C1B66991  42.480   3.315   6.453
10292POPC   C2B66992  42.444   3.318   6.753
10292POPC   C3B66993  42.414   3.345   7.053
10292POPC   C4B66994  42.457   3.328   7.353
10293POPC   NC366995  19.837   5.088   5.553
10293POPC   PO466996  19.877   5.116   5.853
10293POPC   GL166997  19.862   5.125   6.153
10293POPC   GL266998  19.688   5.144   6.153
10293POPC   C1A66999  19.808   5.137   6.453
10293POPC   D2A67000  19.814   5.093   6.753
10293POPC   C3A67001  19.818   5.134   7.053
10293POPC   C4A67002  19.843   5.068   7.353
10293POPC   C1B67003  19.562   5.111   6.453
10293POPC   C2B67004  19.590   5.094   6.753
10293POPC   C3B67005  19.584   5.144   7.053
10293POPC   C4B67006  19.563   5.115   7.353
10294POPC   NC367007  16.701   5.104   5.553
10294POPC   PO467008  16.707   5.081   5.853
10294POPC   GL167009  16.752   5.066   6.153
10294POPC   GL267010  16.799   4.985   6.153
10294POPC   C1A67011  16.695   5.074   6.453
10294POPC   D2A67012  16.731   5.109   6.753
10294POPC   C3A67013  16.772   5.064   7.053
10294POPC   C4A67014  16.688   5.049   7.353
10294POPC   C1B67015  16.889   4.945   6.453
10294POPC   C2B67016  16.896   4.885   6.753
10294POPC   C3B67017  16.897   4.883   7.053
10294POPC   C4B67018  16.929   4.891   7.353
10295POPC   NC367019  12.826  25.267   5.553
10295POPC   PO467020  12.839  25.279   5.853
10295POPC   GL167021  12.874  25.298   6.153
10295POPC   GL267022  12.911  25.390   6.153
10295POPC   C1A67023  12.845  25.259   6.453
10295POPC   D2A67024  12.803  25.284   6.753
10295POPC   C3A67025  12.899  25.237   7.053
10295POPC   C4A67026  12.818  25.227   7.353
10295POPC   C1B67027  13.020  25.405   6.453
10295POPC   C2B67028  13.014  25.468   6.753
10295POPC   C3B67029  13.076  25.466   7.053
10295POPC   C4B67030  13.011  25.414   7.353
10296POPC   NC367031  32.988  27.544   5.553
10296POPC   PO467032  33.028  27.560   5.853
10296POPC   GL167033  32.982  27.603   6.153
10296POPC   GL267034  33.153  27.465   6.153
10296POPC   C1A67035  33.035  27.602   6.453
10296POPC   D2A67036  33.058  27.594   6.753
10296POPC   C3A67037  32.975  27.638   7.053
10296POPC   C4A67038  33.023  27.602   7.353
10296POPC   C1B67039  33.234  27.462   6.453
10296POPC   C2B67040  33.167  27.380   6.753
10296POPC   C3B67041  33.196  27.444   7.053
10296POPC   C4B67042  33.198  27.468   7.353
10297POPC   NC367043  34.622  28.405   5.553
10297POPC   PO467044  34.532  28.365   5.853
10297POPC   GL167045  34.546  28.413   6.153
10297POPC   GL267046  34.578  28.234   6.153
10297POPC   C1A67047  34.561  28.380   6.453
10297POPC   D2A67048  34.570  28.328   6.753
10297POPC   C3A67049  34.541  28.362   7.053
10297POPC   C4A67050  34.574  28.385   7.353
10297POPC   C1B67051  34.663  28.097   6.453
10297POPC   C2B67052  34.625  28.110   6.753
10297POPC   C3B67053  34.602  28.135   7.053
10297POPC   C4B67054  34.646  28.163   7.353
10298POPC   NC367055  10.524   0.446   5.553
10298POPC   PO467056  10.477   0.460   5.853
10298POPC   GL167057  10.530   0.450   6.153
10298POPC   GL267058  10.646   0.445   6.153
10298POPC   C1A67059  10.537   0.481   6.453
10298POPC   D2A67060  10.482   0.429   6.753
10298POPC   C3A67061  10.541   0.445   7.053
10298POPC   C4A67062  10.523   0.397   7.353
10298POPC   C1B67063  10.766   0.463   6.453
10298POPC   C2B67064  10.783   0.469   6.753
10298POPC   C3B67065  10.762   0.485   7.053
10298POPC   C4B67066  10.727   0.437   7.353
10299POPC   NC367067  32.214  16.747   5.553
10299POPC   PO467068  32.293  16.757   5.853
10299POPC   GL167069  32.269  16.778   6.153
10299POPC   GL267070  32.250  16.812   6.153
10299POPC   C1A67071  32.247  16.688   6.453
10299POPC   D2A67072  32.209  16.747   6.753
10299POPC   C3A67073  32.218  16.776   7.053
10299POPC   C4A67074  32.290  16.744   7.353
10299POPC   C1B67075  32.281  17.012   6.453
10299POPC   C2B67076  32.273  16.929   6.753
10299POPC   C3B67077  32.314  16.944   7.053
10299POPC   C4B67078  32.280  16.957   7.353
10300POPC   NC367079   8.978  21.368   5.553
10300POPC   PO467080   8.998  21.385   5.853
10300POPC   GL167081   8.971  21.399   6.153
10300POPC   GL267082   9.011  21.272   6.153
10300POPC   C1A67083   8.927  21.365   6.453
10300POPC   D2A67084   9.007  21.348   6.753
10300POPC   C3A67085   8.990  21.398   7.053
10300POPC   C4A67086   9.018  21.401   7.353
10300POPC   C1B67087   9.077  21.193   6.453
10300POPC   C2B67088   9.033  21.097   6.753
10300POPC   C3B67089   9.031  21.127   7.053
10300POPC   C4B67090   9.024  21.175   7.353
10301POPC   NC367091  36.939  16.741   5.553
10301POPC   PO467092  36.890  16.773   5.853
10301POPC   GL167093  36.933  16.724   6.153
10301POPC   GL267094  36.850  16.625   6.153
10301POPC   C1A67095  36.915  16.699   6.453
10301POPC   D2A67096  36.923  16.740   6.753
10301POPC   C3A67097  36.884  16.731   7.053
10301POPC   C4A67098  36.874  16.727   7.353
10301POPC   C1B67099  36.766  16.494   6.453
10301POPC   C2B67100  36.775  16.493   6.753
10301POPC   C3B67101  36.747  16.520   7.053
10301POPC   C4B67102  36.719  16.542   7.353
10302POPC   NC367103  12.867   5.127   5.553
10302POPC   PO467104  12.828   5.122   5.853
10302POPC   GL167105  12.870   5.060   6.153
10302POPC   GL267106  12.900   5.182   6.153
10302POPC   C1A67107  12.861   5.056   6.453
10302POPC   D2A67108  12.861   5.095   6.753
10302POPC   C3A67109  12.853   5.128   7.053
10302POPC   C4A67110  12.803   5.120   7.353
10302POPC   C1B67111  12.955   5.248   6.453
10302POPC   C2B67112  12.960   5.343   6.753
10302POPC   C3B67113  13.019   5.330   7.053
10302POPC   C4B67114  12.960   5.270   7.353
10303POPC   NC367115   5.849  43.081   5.553
10303POPC   PO467116   5.898  43.061   5.853
10303POPC   GL167117   5.870  43.085   6.153
10303POPC   GL267118   5.992  43.031   6.153
10303POPC   C1A67119   5.859  43.098   6.453
10303POPC   D2A67120   5.859  43.106   6.753
10303POPC   C3A67121   5.873  43.125   7.053
10303POPC   C4A67122   5.828  43.064   7.353
10303POPC   C1B67123   6.013  42.888   6.453
10303POPC   C2B67124   6.013  42.887   6.753
10303POPC   C3B67125   6.027  42.956   7.053
10303POPC   C4B67126   5.989  42.880   7.353
10304POPC   NC367127  19.801  18.267   5.553
10304POPC   PO467128  19.880  18.252   5.853
10304POPC   GL167129  19.884  18.285   6.153
10304POPC   GL267130  19.895  18.419   6.153
10304POPC   C1A67131  19.821  18.279   6.453
10304POPC   D2A67132  19.870  18.331   6.753
10304POPC   C3A67133  19.817  18.235   7.053
10304POPC   C4A67134  19.870  18.303   7.353
10304POPC   C1B67135  19.998  18.451   6.453
10304POPC   C2B67136  19.948  18.497   6.753
10304POPC   C3B67137  19.968  18.541   7.053
10304POPC   C4B67138  19.957  18.514   7.353
10305POPC   NC367139  35.356  19.830   5.553
10305POPC   PO467140  35.309  19.838   5.853
10305POPC   GL167141  35.381  19.818   6.153
10305POPC   GL267142  35.364  19.705   6.153
10305POPC   C1A67143  35.377  19.817   6.453
10305POPC   D2A67144  35.318  19.879   6.753
10305POPC   C3A67145  35.377  19.818   7.053
10305POPC   C4A67146  35.349  19.843   7.353
10305POPC   C1B67147  35.503  19.564   6.453
10305POPC   C2B67148  35.488  19.585   6.753
10305POPC   C3B67149  35.453  19.654   7.053
10305POPC   C4B67150  35.496  19.589   7.353
10306POPC   NC367151   2.769   5.877   5.553
10306POPC   PO467152   2.780   5.878   5.853
10306POPC   GL167153   2.748   5.848   6.153
10306POPC   GL267154   2.665   5.781   6.153
10306POPC   C1A67155   2.802   5.910   6.453
10306POPC   D2A67156   2.804   5.908   6.753
10306POPC   C3A67157   2.728   5.846   7.053
10306POPC   C4A67158   2.750   5.830   7.353
10306POPC   C1B67159   2.507   5.807   6.453
10306POPC   C2B67160   2.552   5.742   6.753
10306POPC   C3B67161   2.493   5.753   7.053
10306POPC   C4B67162   2.574   5.782   7.353
10307POPC   NC367163  25.280  40.015   5.553
10307POPC   PO467164  25.288  40.007   5.853
10307POPC   GL167165  25.282  40.010   6.153
10307POPC   GL267166  25.104  40.058   6.153
10307POPC   C1A67167  25.231  40.016   6.453
10307POPC   D2A67168  25.309  39.957   6.753
10307POPC   C3A67169  25.226  39.979   7.053
10307POPC   C4A67170  25.260  40.036   7.353
10307POPC   C1B67171  25.064  40.078   6.453
10307POPC   C2B67172  25.007  40.133   6.753
10307POPC   C3B67173  25.068  40.129   7.053
10307POPC   C4B67174  24.995  40.134   7.353
10308POPC   NC367175  25.280  33.820   5.553
10308POPC   PO467176  25.257  33.759   5.853
10308POPC   GL167177  25.231  33.830   6.153
10308POPC   GL267178  25.111  33.739   6.153
10308POPC   C1A67179  25.286  33.850   6.453
10308POPC   D2A67180  25.243  33.835   6.753
10308POPC   C3A67181  25.253  33.779   7.053
10308POPC   C4A67182  25.247  33.764   7.353
10308POPC   C1B67183  25.004  33.642   6.453
10308POPC   C2B67184  25.050  33.682   6.753
10308POPC   C3B67185  25.062  33.694   7.053
10308POPC   C4B67186  25.080  33.636   7.353
10309POPC   NC367187  32.250   5.117   5.553
10309POPC   PO467188  32.238   5.067   5.853
10309POPC   GL167189  32.295   5.083   6.153
10309POPC   GL267190  32.188   4.963   6.153
10309POPC   C1A67191  32.245   5.053   6.453
10309POPC   D2A67192  32.225   5.124   6.753
10309POPC   C3A67193  32.231   5.099   7.053
10309POPC   C4A67194  32.283   5.098   7.353
10309POPC   C1B67195  32.194   4.815   6.453
10309POPC   C2B67196  32.182   4.841   6.753
10309POPC   C3B67197  32.254   4.857   7.053
10309POPC   C4B67198  32.232   4.815   7.353
10310POPC   NC367199  39.991   2.793   5.553
10310POPC   PO467200  40.012   2.775   5.853
10310POPC   GL167201  40.027   2.747   6.153
10310POPC   GL267202  39.993   2.634   6.153
10310POPC   C1A67203  40.048   2.720   6.453
10310POPC   D2A67204  39.994   2.755   6.753
10310POPC   C3A67205  39.997   2.791   7.053
10310POPC   C4A67206  40.015   2.752   7.353
10310POPC   C1B67207  40.033   2.560   6.453
10310POPC   C2B67208  40.032   2.493   6.753
10310POPC   C3B67209  40.083   2.475   7.053
10310POPC   C4B67210  40.087   2.474   7.353
10311POPC   NC367211  12.115   2.761   5.553
10311POPC   PO467212  12.055   2.765   5.853
10311POPC   GL167213  12.117   2.788   6.153
10311POPC   GL267214  12.124   2.693   6.153
10311POPC   C1A67215  12.105   2.778   6.453
10311POPC   D2A67216  12.115   2.774   6.753
10311POPC   C3A67217  12.065   2.793   7.053
10311POPC   C4A67218  12.114   2.755   7.353
10311POPC   C1B67219  12.226   2.548   6.453
10311POPC   C2B67220  12.208   2.560   6.753
10311POPC   C3B67221  12.223   2.559   7.053
10311POPC   C4B67222  12.294   2.605   7.353
10312POPC   NC367223  12.859   7.402   5.553
10312POPC   PO467224  12.838   7.423   5.853
10312POPC   GL167225  12.874   7.423   6.153
10312POPC   GL267226  12.818   7.288   6.153
10312POPC   C1A67227  12.807   7.446   6.453
10312POPC   D2A67228  12.819   7.465   6.753
10312POPC   C3A67229  12.809   7.412   7.053
10312POPC   C4A67230  12.876   7.424   7.353
10312POPC   C1B67231  12.908   7.190   6.453
10312POPC   C2B67232  12.827   7.127   6.753
10312POPC   C3B67233  12.907   7.188   7.053
10312POPC   C4B67234  12.854   7.144   7.353
10313POPC   NC367235  32.988  25.246   5.553
10313POPC   PO467236  33.053  25.294   5.853
10313POPC   GL167237  33.047  25.231   6.153
10313POPC   GL267238  33.055  25.114   6.153
10313POPC   C1A67239  33.066  25.264   6.453
10313POPC   D2A67240  33.040  25.306   6.753
10313POPC   C3A67241  33.035  25.287   7.053
10313POPC   C4A67242  33.052  25.292   7.353
10313POPC   C1B67243  33.115  25.020   6.453
10313POPC   C2B67244  33.105  25.032   6.753
10313POPC   C3B67245  33.094  25.019   7.053
10313POPC   C4B67246  33.086  24.975   7.353
10314POPC   NC367247  22.987  12.031   5.553
10314POPC   PO467248  22.957  12.090   5.853
10314POPC   GL167249  22.888  12.044   6.153
10314POPC   GL267250  22.870  11.934   6.153
10314POPC   C1A67251  22.907  12.110   6.453
10314POPC   D2A67252  22.960  12.076   6.753
10314POPC   C3A67253  22.963  12.070   7.053
10314POPC   C4A67254  22.974  12.087   7.353
10314POPC   C1B67255  22.899  11.804   6.453
10314POPC   C2B67256  22.818  11.851   6.753
10314POPC   C3B67257  22.840  11.848   7.053
10314POPC   C4B67258  22.904  11.803   7.353
10315POPC   NC367259  16.755  25.238   5.553
10315POPC   PO467260  16.718  25.222   5.853
10315POPC   GL167261  16.761  25.303   6.153
10315POPC   GL267262  16.690  25.360   6.153
10315POPC   C1A67263  16.781  25.238   6.453
10315POPC   D2A67264  16.696  25.273   6.753
10315POPC   C3A67265  16.709  25.304   7.053
10315POPC   C4A67266  16.734  25.233   7.353
10315POPC   C1B67267  16.607  25.429   6.453
10315POPC   C2B67268  16.641  25.430   6.753
10315POPC   C3B67269  16.639  25.503   7.053
10315POPC   C4B67270  16.589  25.494   7.353
10316POPC   NC367271  22.932  13.616   5.553
10316POPC   PO467272  22.959  13.654   5.853
10316POPC   GL167273  22.890  13.617   6.153
10316POPC   GL267274  22.779  13.542   6.153
10316POPC   C1A67275  22.949  13.646   6.453
10316POPC   D2A67276  22.920  13.609   6.753
10316POPC   C3A67277  22.983  13.609   7.053
10316POPC   C4A67278  22.970  13.643   7.353
10316POPC   C1B67279  22.673  13.489   6.453
10316POPC   C2B67280  22.731  13.501   6.753
10316POPC   C3B67281  22.754  13.566   7.053
10316POPC   C4B67282  22.723  13.511   7.353
10317POPC   NC367283   8.942  36.106   5.553
10317POPC   PO467284   9.003  36.102   5.853
10317POPC   GL167285   8.951  36.083   6.153
10317POPC   GL267286   9.095  36.043   6.153
10317POPC   C1A67287   9.022  36.137   6.453
10317POPC   D2A67288   8.983  36.090   6.753
10317POPC   C3A67289   8.964  36.112   7.053
10317POPC   C4A67290   8.976  36.092   7.353
10317POPC   C1B67291   9.245  36.067   6.453
10317POPC   C2B67292   9.239  36.084   6.753
10317POPC   C3B67293   9.179  35.994   7.053
10317POPC   C4B67294   9.170  36.052   7.353
10318POPC   NC367295  10.552  25.294   5.553
10318POPC   PO467296  10.556  25.279   5.853
10318POPC   GL167297  10.557  25.261   6.153
10318POPC   GL267298  10.499  25.366   6.153
10318POPC   C1A67299  10.502  25.311   6.453
10318POPC   D2A67300  10.498  25.231   6.753
10318POPC   C3A67301  10.522  25.278   7.053
10318POPC   C4A67302  10.563  25.282   7.353
10318POPC   C1B67303  10.421  25.446   6.453
10318POPC   C2B67304  10.400  25.453   6.753
10318POPC   C3B67305  10.384  25.468   7.053
10318POPC   C4B67306  10.393  25.436   7.353
10319POPC   NC367307   8.179  36.917   5.553
10319POPC   PO467308   8.167  36.912   5.853
10319POPC   GL167309   8.155  36.902   6.153
10319POPC   GL267310   8.226  37.060   6.153
10319POPC   C1A67311   8.209  36.929   6.453
10319POPC   D2A67312   8.240  36.931   6.753
10319POPC   C3A67313   8.238  36.937   7.053
10319POPC   C4A67314   8.237  36.940   7.353
10319POPC   C1B67315   8.233  37.106   6.453
10319POPC   C2B67316   8.154  37.173   6.753
10319POPC   C3B67317   8.230  37.182   7.053
10319POPC   C4B67318   8.233  37.145   7.353
10320POPC   NC367319  26.025  42.339   5.553
10320POPC   PO467320  26.038  42.380   5.853
10320POPC   GL167321  26.048  42.380   6.153
10320POPC   GL267322  26.034  42.498   6.153
10320POPC   C1A67323  26.042  42.379   6.453
10320POPC   D2A67324  26.005  42.376   6.753
10320POPC   C3A67325  26.031  42.346   7.053
10320POPC   C4A67326  26.063  42.367   7.353
10320POPC   C1B67327  25.914  42.534   6.453
10320POPC   C2B67328  25.956  42.602   6.753
10320POPC   C3B67329  25.947  42.607   7.053
10320POPC   C4B67330  25.928  42.596   7.353
10321POPC   NC367331  35.309  23.750   5.553
10321POPC   PO467332  35.399  23.678   5.853
10321POPC   GL167333  35.353  23.729   6.153
10321POPC   GL267334  35.238  23.625   6.153
10321POPC   C1A67335  35.348  23.705   6.453
10321POPC   D2A67336  35.305  23.692   6.753
10321POPC   C3A67337  35.392  23.723   7.053
10321POPC   C4A67338  35.336  23.757   7.353
10321POPC   C1B67339  35.102  23.629   6.453
10321POPC   C2B67340  35.132  23.678   6.753
10321POPC   C3B67341  35.140  23.603   7.053
10321POPC   C4B67342  35.065  23.657   7.353
10322POPC   NC367343  36.148  18.288   5.553
10322POPC   PO467344  36.084  18.333   5.853
10322POPC   GL167345  36.159  18.273   6.153
10322POPC   GL267346  36.130  18.134   6.153
10322POPC   C1A67347  36.155  18.309   6.453
10322POPC   D2A67348  36.124  18.325   6.753
10322POPC   C3A67349  36.166  18.278   7.053
10322POPC   C4A67350  36.095  18.295   7.353
10322POPC   C1B67351  36.020  18.072   6.453
10322POPC   C2B67352  36.014  18.075   6.753
10322POPC   C3B67353  36.045  18.040   7.053
10322POPC   C4B67354  36.072  18.057   7.353
10323POPC   NC367355  43.145  29.961   5.553
10323POPC   PO467356  43.121  29.920   5.853
10323POPC   GL167357  43.156  29.961   6.153
10323POPC   GL267358  43.215  30.046   6.153
10323POPC   C1A67359  43.149  29.931   6.453
10323POPC   D2A67360  43.063  29.947   6.753
10323POPC   C3A67361  43.081  29.890   7.053
10323POPC   C4A67362  43.134  29.960   7.353
10323POPC   C1B67363  43.295  30.102   6.453
10323POPC   C2B67364  43.338  30.115   6.753
10323POPC   C3B67365  43.259  30.069   7.053
10323POPC   C4B67366  43.262  30.100   7.353
10324POPC   NC367367  18.269  18.294   5.553
10324POPC   PO467368  18.271  18.279   5.853
10324POPC   GL167369  18.260  18.311   6.153
10324POPC   GL267370  18.405  18.319   6.153
10324POPC   C1A67371  18.268  18.298   6.453
10324POPC   D2A67372  18.256  18.280   6.753
10324POPC   C3A67373  18.271  18.252   7.053
10324POPC   C4A67374  18.306  18.314   7.353
10324POPC   C1B67375  18.557  18.294   6.453
10324POPC   C2B67376  18.490  18.278   6.753
10324POPC   C3B67377  18.537  18.222   7.053
10324POPC   C4B67378  18.547  18.267   7.353
10325POPC   NC367379  38.435   0.476   5.553
10325POPC   PO467380  38.412   0.477   5.853
10325POPC   GL167381  38.413   0.467   6.153
10325POPC   GL267382  38.503   0.356   6.153
10325POPC   C1A67383  38.500   0.420   6.453
10325POPC   D2A67384  38.461   0.474   6.753
10325POPC   C3A67385  38.432   0.468   7.053
10325POPC   C4A67386  38.475   0.433   7.353
10325POPC   C1B67387  38.611   0.211   6.453
10325POPC   C2B67388  38.581   0.203   6.753
10325POPC   C3B67389  38.569   0.254   7.053
10325POPC   C4B67390  38.558   0.247   7.353
10326POPC   NC367391  42.319  15.199   5.553
10326POPC   PO467392  42.349  15.168   5.853
10326POPC   GL167393  42.342  15.145   6.153
10326POPC   GL267394  42.174  15.184   6.153
10326POPC   C1A67395  42.332  15.158   6.453
10326POPC   D2A67396  42.338  15.210   6.753
10326POPC   C3A67397  42.311  15.133   7.053
10326POPC   C4A67398  42.336  15.162   7.353
10326POPC   C1B67399  42.103  15.269   6.453
10326POPC   C2B67400  42.056  15.202   6.753
10326POPC   C3B67401  42.119  15.208   7.053
10326POPC   C4B67402  42.102  15.223   7.353
10327POPC   NC367403  22.181  19.072   5.553
10327POPC   PO467404  22.173  19.044   5.853
10327POPC   GL167405  22.170  19.018   6.153
10327POPC   GL267406  22.178  19.207   6.153
10327POPC   C1A67407  22.209  19.084   6.453
10327POPC   D2A67408  22.187  19.040   6.753
10327POPC   C3A67409  22.210  19.030   7.053
10327POPC   C4A67410  22.188  19.018   7.353
10327POPC   C1B67411  22.210  19.353   6.453
10327POPC   C2B67412  22.186  19.321   6.753
10327POPC   C3B67413  22.126  19.314   7.053
10327POPC   C4B67414  22.156  19.275   7.353
10328POPC   NC367415  38.466  30.713   5.553
10328POPC   PO467416  38.430  30.727   5.853
10328POPC   GL167417  38.497  30.746   6.153
10328POPC   GL267418  38.445  30.592   6.153
10328POPC   C1A67419  38.412  30.657   6.453
10328POPC   D2A67420  38.483  30.691   6.753
10328POPC   C3A67421  38.489  30.703   7.053
10328POPC   C4A67422  38.457  30.651   7.353
10328POPC   C1B67423  38.400  30.430   6.453
10328POPC   C2B67424  38.398  30.444   6.753
10328POPC   C3B67425  38.359  30.446   7.053
10328POPC   C4B67426  38.429  30.481   7.353
10329POPC   NC367427  40.818  19.881   5.553
10329POPC   PO467428  40.786  19.819   5.853
10329POPC   GL167429  40.795  19.803   6.153
10329POPC   GL267430  40.711  19.858   6.153
10329POPC   C1A67431  40.816  19.806   6.453
10329POPC   D2A67432  40.773  19.808   6.753
10329POPC   C3A67433  40.782  19.869   7.053
10329POPC   C4A67434  40.768  19.804   7.353
10329POPC   C1B67435  40.584  19.905   6.453
10329POPC   C2B67436  40.596  19.903   6.753
10329POPC   C3B67437  40.566  19.951   7.053
10329POPC   C4B67438  40.550  19.951   7.353
10330POPC   NC367439  31.434  27.557   5.553
10330POPC   PO467440  31.521  27.636   5.853
10330POPC   GL167441  31.457  27.615   6.153
10330POPC   GL267442  31.463  27.739   6.153
10330POPC   C1A67443  31.453  27.554   6.453
10330POPC   D2A67444  31.431  27.557   6.753
10330POPC   C3A67445  31.423  27.609   7.053
10330POPC   C4A67446  31.447  27.605   7.353
10330POPC   C1B67447  31.438  27.879   6.453
10330POPC   C2B67448  31.484  27.871   6.753
10330POPC   C3B67449  31.450  27.801   7.053
10330POPC   C4B67450  31.466  27.830   7.353
10331POPC   NC367451  22.129  40.013   5.553
10331POPC   PO467452  22.169  40.006   5.853
10331POPC   GL167453  22.116  40.001   6.153
10331POPC   GL267454  22.045  40.098   6.153
10331POPC   C1A67455  22.154  40.013   6.453
10331POPC   D2A67456  22.125  39.977   6.753
10331POPC   C3A67457  22.159  39.990   7.053
10331POPC   C4A67458  22.124  40.011   7.353
10331POPC   C1B67459  22.048  40.158   6.453
10331POPC   C2B67460  22.045  40.238   6.753
10331POPC   C3B67461  21.986  40.236   7.053
10331POPC   C4B67462  22.054  40.214   7.353
10332POPC   NC367463  12.085   5.826   5.553
10332POPC   PO467464  12.048   5.899   5.853
10332POPC   GL167465  12.107   5.907   6.153
10332POPC   GL267466  12.007   5.996   6.153
10332POPC   C1A67467  12.048   5.879   6.453
10332POPC   D2A67468  12.070   5.896   6.753
10332POPC   C3A67469  12.117   5.907   7.053
10332POPC   C4A67470  12.057   5.878   7.353
10332POPC   C1B67471  12.061   6.092   6.453
10332POPC   C2B67472  12.019   6.153   6.753
10332POPC   C3B67473  12.030   6.132   7.053
10332POPC   C4B67474  12.009   6.101   7.353
10333POPC   NC367475  29.152   5.839   5.553
10333POPC   PO467476  29.160   5.841   5.853
10333POPC   GL167477  29.145   5.904   6.153
10333POPC   GL267478  29.181   5.707   6.153
10333POPC   C1A67479  29.194   5.880   6.453
10333POPC   D2A67480  29.124   5.901   6.753
10333POPC   C3A67481  29.183   5.843   7.053
10333POPC   C4A67482  29.103   5.881   7.353
10333POPC   C1B67483  29.290   5.622   6.453
10333POPC   C2B67484  29.251   5.650   6.753
10333POPC   C3B67485  29.274   5.659   7.053
10333POPC   C4B67486  29.214   5.658   7.353
10334POPC   NC367487   5.915  22.970   5.553
10334POPC   PO467488   5.880  22.916   5.853
10334POPC   GL167489   5.832  22.967   6.153
10334POPC   GL267490   5.813  22.846   6.153
10334POPC   C1A67491   5.894  22.920   6.453
10334POPC   D2A67492   5.908  22.896   6.753
10334POPC   C3A67493   5.908  22.960   7.053
10334POPC   C4A67494   5.872  22.943   7.353
10334POPC   C1B67495   5.833  22.728   6.453
10334POPC   C2B67496   5.826  22.720   6.753
10334POPC   C3B67497   5.770  22.676   7.053
10334POPC   C4B67498   5.800  22.715   7.353
10335POPC   NC367499   2.806  36.120   5.553
10335POPC   PO467500   2.734  36.105   5.853
10335POPC   GL167501   2.780  36.173   6.153
10335POPC   GL267502   2.905  36.134   6.153
10335POPC   C1A67503   2.735  36.105   6.453
10335POPC   D2A67504   2.781  36.163   6.753
10335POPC   C3A67505   2.773  36.114   7.053
10335POPC   C4A67506   2.766  36.119   7.353
10335POPC   C1B67507   2.971  36.159   6.453
10335POPC   C2B67508   2.976  36.175   6.753
10335POPC   C3B67509   3.063  36.086   7.053
10335POPC   C4B67510   3.045  36.090   7.353
10336POPC   NC367511  22.148  19.870   5.553
10336POPC   PO467512  22.164  19.797   5.853
10336POPC   GL167513  22.202  19.872   6.153
10336POPC   GL267514  22.243  19.911   6.153
10336POPC   C1A67515  22.209  19.796   6.453
10336POPC   D2A67516  22.178  19.819   6.753
10336POPC   C3A67517  22.118  19.866   7.053
10336POPC   C4A67518  22.173  19.855   7.353
10336POPC   C1B67519  22.369  20.016   6.453
10336POPC   C2B67520  22.310  19.998   6.753
10336POPC   C3B67521  22.317  19.998   7.053
10336POPC   C4B67522  22.406  19.958   7.353
10337POPC   NC367523  32.217  21.356   5.553
10337POPC   PO467524  32.287  21.429   5.853
10337POPC   GL167525  32.199  21.361   6.153
10337POPC   GL267526  32.301  21.438   6.153
10337POPC   C1A67527  32.239  21.423   6.453
10337POPC   D2A67528  32.251  21.384   6.753
10337POPC   C3A67529  32.241  21.339   7.053
10337POPC   C4A67530  32.275  21.435   7.353
10337POPC   C1B67531  32.447  21.555   6.453
10337POPC   C2B67532  32.409  21.542   6.753
10337POPC   C3B67533  32.378  21.537   7.053
10337POPC   C4B67534  32.366  21.549   7.353
10338POPC   NC367535  42.317   8.184   5.553
10338POPC   PO467536  42.294   8.206   5.853
10338POPC   GL167537  42.310   8.228   6.153
10338POPC   GL267538  42.428   8.294   6.153
10338POPC   C1A67539  42.361   8.148   6.453
10338POPC   D2A67540  42.319   8.168   6.753
10338POPC   C3A67541  42.312   8.224   7.053
10338POPC   C4A67542  42.339   8.153   7.353
10338POPC   C1B67543  42.508   8.370   6.453
10338POPC   C2B67544  42.526   8.353   6.753
10338POPC   C3B67545  42.489   8.434   7.053
10338POPC   C4B67546  42.541   8.379   7.353
10339POPC   NC367547  25.234   6.695   5.553
10339POPC   PO467548  25.313   6.663   5.853
10339POPC   GL167549  25.264   6.685   6.153
10339POPC   GL267550  25.302   6.752   6.153
10339POPC   C1A67551  25.218   6.687   6.453
10339POPC   D2A67552  25.289   6.654   6.753
10339POPC   C3A67553  25.237   6.675   7.053
10339POPC   C4A67554  25.251   6.610   7.353
10339POPC   C1B67555  25.295   6.933   6.453
10339POPC   C2B67556  25.350   6.899   6.753
10339POPC   C3B67557  25.289   6.888   7.053
10339POPC   C4B67558  25.340   6.894   7.353
10340POPC   NC367559  19.069  13.646   5.553
10340POPC   PO467560  19.018  13.646   5.853
10340POPC   GL167561  19.041  13.587   6.153
10340POPC   GL267562  19.018  13.550   6.153
10340POPC   C1A67563  19.104  13.644   6.453
10340POPC   D2A67564  19.074  13.661   6.753
10340POPC   C3A67565  19.022  13.669   7.053
10340POPC   C4A67566  19.022  13.646   7.353
10340POPC   C1B67567  19.062  13.380   6.453
10340POPC   C2B67568  19.012  13.365   6.753
10340POPC   C3B67569  19.059  13.428   7.053
10340POPC   C4B67570  19.008  13.410   7.353
10341POPC   NC367571   5.076  31.494   5.553
10341POPC   PO467572   5.066  31.512   5.853
10341POPC   GL167573   5.137  31.483   6.153
10341POPC   GL267574   5.227  31.488   6.153
10341POPC   C1A67575   5.050  31.497   6.453
10341POPC   D2A67576   5.120  31.427   6.753
10341POPC   C3A67577   5.135  31.477   7.053
10341POPC   C4A67578   5.138  31.497   7.353
10341POPC   C1B67579   5.367  31.569   6.453
10341POPC   C2B67580   5.358  31.562   6.753
10341POPC   C3B67581   5.373  31.553   7.053
10341POPC   C4B67582   5.380  31.501   7.353
10342POPC   NC367583  16.772  29.148   5.553
10342POPC   PO467584  16.743  29.163   5.853
10342POPC   GL167585  16.690  29.153   6.153
10342POPC   GL267586  16.580  29.070   6.153
10342POPC   C1A67587  16.709  29.185   6.453
10342POPC   D2A67588  16.746  29.173   6.753
10342POPC   C3A67589  16.743  29.096   7.053
10342POPC   C4A67590  16.759  29.126   7.353
10342POPC   C1B67591  16.555  29.014   6.453
10342POPC   C2B67592  16.505  29.041   6.753
10342POPC   C3B67593  16.571  29.043   7.053
10342POPC   C4B67594  16.572  28.976   7.353
10343POPC   NC367595   1.240   8.937   5.553
10343POPC   PO467596   1.244   8.958   5.853
10343POPC   GL167597   1.238   8.955   6.153
10343POPC   GL267598   1.372   8.968   6.153
10343POPC   C1A67599   1.180   8.944   6.453
10343POPC   D2A67600   1.254   8.988   6.753
10343POPC   C3A67601   1.238   8.963   7.053
10343POPC   C4A67602   1.193   8.930   7.353
10343POPC   C1B67603   1.413   8.896   6.453
10343POPC   C2B67604   1.414   8.885   6.753
10343POPC   C3B67605   1.413   8.906   7.053
10343POPC   C4B67606   1.471   8.970   7.353
10344POPC   NC367607  22.142  38.425   5.553
10344POPC   PO467608  22.152  38.420   5.853
10344POPC   GL167609  22.156  38.500   6.153
10344POPC   GL267610  22.276  38.507   6.153
10344POPC   C1A67611  22.173  38.503   6.453
10344POPC   D2A67612  22.122  38.425   6.753
10344POPC   C3A67613  22.209  38.483   7.053
10344POPC   C4A67614  22.196  38.504   7.353
10344POPC   C1B67615  22.385  38.566   6.453
10344POPC   C2B67616  22.385  38.575   6.753
10344POPC   C3B67617  22.425  38.499   7.053
10344POPC   C4B67618  22.382  38.508   7.353
10345POPC   NC367619   1.256   4.349   5.553
10345POPC   PO467620   1.256   4.300   5.853
10345POPC   GL167621   1.171   4.323   6.153
10345POPC   GL267622   1.159   4.176   6.153
10345POPC   C1A67623   1.182   4.367   6.453
10345POPC   D2A67624   1.192   4.305   6.753
10345POPC   C3A67625   1.181   4.328   7.053
10345POPC   C4A67626   1.227   4.332   7.353
10345POPC   C1B67627   1.084   4.157   6.453
10345POPC   C2B67628   1.030   4.160   6.753
10345POPC   C3B67629   1.079   4.117   7.053
10345POPC   C4B67630   1.041   4.170   7.353
10346POPC   NC367631  28.392  40.757   5.553
10346POPC   PO467632  28.348  40.785   5.853
10346POPC   GL167633  28.368  40.751   6.153
10346POPC   GL267634  28.489  40.648   6.153
10346POPC   C1A67635  28.341  40.738   6.453
10346POPC   D2A67636  28.404  40.822   6.753
10346POPC   C3A67637  28.333  40.823   7.053
10346POPC   C4A67638  28.389  40.759   7.353
10346POPC   C1B67639  28.525  40.639   6.453
10346POPC   C2B67640  28.595  40.649   6.753
10346POPC   C3B67641  28.530  40.642   7.053
10346POPC   C4B67642  28.548  40.596   7.353
10347POPC   NC367643  36.943  35.363   5.553
10347POPC   PO467644  36.893  35.352   5.853
10347POPC   GL167645  36.919  35.394   6.153
10347POPC   GL267646  37.029  35.413   6.153
10347POPC   C1A67647  36.941  35.343   6.453
10347POPC   D2A67648  36.905  35.305   6.753
10347POPC   C3A67649  36.938  35.381   7.053
10347POPC   C4A67650  36.903  35.386   7.353
10347POPC   C1B67651  37.106  35.466   6.453
10347POPC   C2B67652  37.095  35.411   6.753
10347POPC   C3B67653  37.174  35.422   7.053
10347POPC   C4B67654  37.177  35.404   7.353
10348POPC   NC367655  20.596  43.104   5.553
10348POPC   PO467656  20.566  43.068   5.853
10348POPC   GL167657  20.622  43.114   6.153
10348POPC   GL267658  20.542  43.269   6.153
10348POPC   C1A67659  20.609  43.093   6.453
10348POPC   D2A67660  20.569  43.094   6.753
10348POPC   C3A67661  20.589  43.130   7.053
10348POPC   C4A67662  20.632  43.132   7.353
10348POPC   C1B67663  20.583  43.356   6.453
10348POPC   C2B67664  20.524  43.392   6.753
10348POPC   C3B67665  20.540  43.347   7.053
10348POPC   C4B67666  20.578  43.372   7.353
10349POPC   NC367667  29.942  27.545   5.553
10349POPC   PO467668  29.893  27.562   5.853
10349POPC   GL167669  29.894  27.618   6.153
10349POPC   GL267670  29.813  27.732   6.153
10349POPC   C1A67671  29.908  27.560   6.453
10349POPC   D2A67672  29.871  27.582   6.753
10349POPC   C3A67673  29.893  27.562   7.053
10349POPC   C4A67674  29.969  27.556   7.353
10349POPC   C1B67675  29.767  27.833   6.453
10349POPC   C2B67676  29.778  27.799   6.753
10349POPC   C3B67677  29.842  27.830   7.053
10349POPC   C4B67678  29.753  27.813   7.353
10350POPC   NC367679   5.141  22.126   5.553
10350POPC   PO467680   5.115  22.210   5.853
10350POPC   GL167681   5.054  22.137   6.153
10350POPC   GL267682   5.109  22.315   6.153
10350POPC   C1A67683   5.120  22.180   6.453
10350POPC   D2A67684   5.061  22.164   6.753
10350POPC   C3A67685   5.086  22.137   7.053
10350POPC   C4A67686   5.074  22.179   7.353
10350POPC   C1B67687   5.204  22.380   6.453
10350POPC   C2B67688   5.172  22.437   6.753
10350POPC   C3B67689   5.202  22.393   7.053
10350POPC   C4B67690   5.232  22.440   7.353
10351POPC   NC367691  29.911  26.854   5.553
10351POPC   PO467692  29.922  26.768   5.853
10351POPC   GL167693  29.932  26.804   6.153
10351POPC   GL267694  29.751  26.794   6.153
10351POPC   C1A67695  29.966  26.847   6.453
10351POPC   D2A67696  29.906  26.782   6.753
10351POPC   C3A67697  29.949  26.796   7.053
10351POPC   C4A67698  29.904  26.825   7.353
10351POPC   C1B67699  29.689  26.869   6.453
10351POPC   C2B67700  29.631  26.900   6.753
10351POPC   C3B67701  29.701  26.879   7.053
10351POPC   C4B67702  29.637  26.834   7.353
10352POPC   NC367703  19.847  35.325   5.553
10352POPC   PO467704  19.880  35.347   5.853
10352POPC   GL167705  19.870  35.311   6.153
10352POPC   GL267706  19.757  35.462   6.153
10352POPC   C1A67707  19.794  35.355   6.453
10352POPC   D2A67708  19.809  35.361   6.753
10352POPC   C3A67709  19.830  35.349   7.053
10352POPC   C4A67710  19.832  35.348   7.353
10352POPC   C1B67711  19.683  35.547   6.453
10352POPC   C2B67712  19.728  35.568   6.753
10352POPC   C3B67713  19.695  35.565   7.053
10352POPC   C4B67714  19.754  35.610   7.353
10353POPC   NC367715  41.535  42.347   5.553
10353POPC   PO467716  41.551  42.285   5.853
10353POPC   GL167717  41.509  42.323   6.153
10353POPC   GL267718  41.644  42.395   6.153
10353POPC   C1A67719  41.533  42.291   6.453
10353POPC   D2A67720  41.569  42.374   6.753
10353POPC   C3A67721  41.549  42.353   7.053
10353POPC   C4A67722  41.520  42.319   7.353
10353POPC   C1B67723  41.757  42.420   6.453
10353POPC   C2B67724  41.755  42.386   6.753
10353POPC   C3B67725  41.758  42.378   7.053
10353POPC   C4B67726  41.830  42.415   7.353
10354POPC   NC367727  37.667  29.105   5.553
10354POPC   PO467728  37.678  29.181   5.853
10354POPC   GL167729  37.666  29.177   6.153
10354POPC   GL267730  37.813  29.195   6.153
10354POPC   C1A67731  37.640  29.165   6.453
10354POPC   D2A67732  37.702  29.118   6.753
10354POPC   C3A67733  37.648  29.115   7.053
10354POPC   C4A67734  37.723  29.177   7.353
10354POPC   C1B67735  37.859  29.299   6.453
10354POPC   C2B67736  37.834  29.305   6.753
10354POPC   C3B67737  37.843  29.296   7.053
10354POPC   C4B67738  37.871  29.289   7.353
10355POPC   NC367739  43.107  28.401   5.553
10355POPC   PO467740  43.135  28.387   5.853
10355POPC   GL167741  43.125  28.367   6.153
10355POPC   GL267742  42.978  28.485   6.153
10355POPC   C1A67743  43.095  28.335   6.453
10355POPC   D2A67744  43.084  28.386   6.753
10355POPC   C3A67745  43.080  28.322   7.053
10355POPC   C4A67746  43.104  28.331   7.353
10355POPC   C1B67747  42.940  28.580   6.453
10355POPC   C2B67748  42.889  28.543   6.753
10355POPC   C3B67749  42.917  28.488   7.053
10355POPC   C4B67750  42.886  28.514   7.353
10356POPC   NC367751  43.108  23.749   5.553
10356POPC   PO467752  43.136  23.687   5.853
10356POPC   GL167753  43.143  23.728   6.153
10356POPC   GL267754  43.114  23.644   6.153
10356POPC   C1A67755  43.136  23.702   6.453
10356POPC   D2A67756  43.141  23.759   6.753
10356POPC   C3A67757  43.119  23.761   7.053
10356POPC   C4A67758  43.127  23.705   7.353
10356POPC   C1B67759  43.218  23.508   6.453
10356POPC   C2B67760  43.177  23.526   6.753
10356POPC   C3B67761  43.235  23.532   7.053
10356POPC   C4B67762  43.192  23.524   7.353
10357POPC   NC367763  33.794  34.564   5.553
10357POPC   PO467764  33.843  34.584   5.853
10357POPC   GL167765  33.761  34.605   6.153
10357POPC   GL267766  33.728  34.641   6.153
10357POPC   C1A67767  33.838  34.567   6.453
10357POPC   D2A67768  33.752  34.623   6.753
10357POPC   C3A67769  33.766  34.565   7.053
10357POPC   C4A67770  33.830  34.529   7.353
10357POPC   C1B67771  33.625  34.771   6.453
10357POPC   C2B67772  33.635  34.787   6.753
10357POPC   C3B67773  33.648  34.781   7.053
10357POPC   C4B67774  33.669  34.799   7.353
10358POPC   NC367775  22.972   4.316   5.553
10358POPC   PO467776  22.896   4.364   5.853
10358POPC   GL167777  22.953   4.335   6.153
10358POPC   GL267778  22.816   4.287   6.153
10358POPC   C1A67779  22.894   4.346   6.453
10358POPC   D2A67780  22.918   4.342   6.753
10358POPC   C3A67781  22.960   4.316   7.053
10358POPC   C4A67782  22.893   4.279   7.353
10358POPC   C1B67783  22.760   4.195   6.453
10358POPC   C2B67784  22.776   4.168   6.753
10358POPC   C3B67785  22.767   4.138   7.053
10358POPC   C4B67786  22.735   4.189   7.353
10359POPC   NC367787   1.168  29.156   5.553
10359POPC   PO467788   1.189  29.114   5.853
10359POPC   GL167789   1.202  29.176   6.153
10359POPC   GL267790   1.303  29.182   6.153
10359POPC   C1A67791   1.166  29.166   6.453
10359POPC   D2A67792   1.174  29.168   6.753
10359POPC   C3A67793   1.238  29.140   7.053
10359POPC   C4A67794   1.243  29.129   7.353
10359POPC   C1B67795   1.481  29.183   6.453
10359POPC   C2B67796   1.486  29.199   6.753
10359POPC   C3B67797   1.502  29.180   7.053
10359POPC   C4B67798   1.454  29.163   7.353
10360POPC   NC367799   3.572  34.592   5.553
10360POPC   PO467800   3.538  34.537   5.853
10360POPC   GL167801   3.569  34.578   6.153
10360POPC   GL267802   3.710  34.621   6.153
10360POPC   C1A67803   3.522  34.547   6.453
10360POPC   D2A67804   3.547  34.544   6.753
10360POPC   C3A67805   3.539  34.613   7.053
10360POPC   C4A67806   3.567  34.620   7.353
10360POPC   C1B67807   3.796  34.590   6.453
10360POPC   C2B67808   3.760  34.550   6.753
10360POPC   C3B67809   3.818  34.622   7.053
10360POPC   C4B67810   3.795  34.633   7.353
10361POPC   NC367811  22.125  29.125   5.553
10361POPC   PO467812  22.199  29.140   5.853
10361POPC   GL167813  22.158  29.185   6.153
10361POPC   GL267814  22.107  29.226   6.153
10361POPC   C1A67815  22.122  29.107   6.453
10361POPC   D2A67816  22.161  29.147   6.753
10361POPC   C3A67817  22.118  29.126   7.053
10361POPC   C4A67818  22.172  29.138   7.353
10361POPC   C1B67819  21.994  29.319   6.453
10361POPC   C2B67820  22.018  29.303   6.753
10361POPC   C3B67821  21.996  29.373   7.053
10361POPC   C4B67822  21.983  29.315   7.353
10362POPC   NC367823  13.660  43.899   5.553
10362POPC   PO467824  13.652  43.849   5.853
10362POPC   GL167825  13.629  43.896   6.153
10362POPC   GL267826  13.621  43.802   6.153
10362POPC   C1A67827  13.605  43.864   6.453
10362POPC   D2A67828  13.653  43.896   6.753
10362POPC   C3A67829  13.584  43.840   7.053
10362POPC   C4A67830  13.618  43.866   7.353
10362POPC   C1B67831  13.617  43.605   6.453
10362POPC   C2B67832  13.571  43.631   6.753
10362POPC   C3B67833  13.658  43.609   7.053
10362POPC   C4B67834  13.643  43.666   7.353
10363POPC   NC367835  43.152  15.998   5.553
10363POPC   PO467836  43.122  15.975   5.853
10363POPC   GL167837  43.117  15.999   6.153
10363POPC   GL267838  43.041  15.957   6.153
10363POPC   C1A67839  43.142  15.982   6.453
10363POPC   D2A67840  43.111  15.905   6.753
10363POPC   C3A67841  43.149  15.913   7.053
10363POPC   C4A67842  43.117  16.004   7.353
10363POPC   C1B67843  42.893  15.887   6.453
10363POPC   C2B67844  42.909  15.837   6.753
10363POPC   C3B67845  42.856  15.852   7.053
10363POPC   C4B67846  42.913  15.837   7.353
10364POPC   NC367847   2.035  23.723   5.553
10364POPC   PO467848   1.987  23.745   5.853
10364POPC   GL167849   1.954  23.758   6.153
10364POPC   GL267850   2.106  23.685   6.153
10364POPC   C1A67851   2.017  23.758   6.453
10364POPC   D2A67852   1.993  23.675   6.753
10364POPC   C3A67853   2.019  23.693   7.053
10364POPC   C4A67854   1.969  23.680   7.353
10364POPC   C1B67855   2.238  23.588   6.453
10364POPC   C2B67856   2.186  23.609   6.753
10364POPC   C3B67857   2.231  23.609   7.053
10364POPC   C4B67858   2.209  23.587   7.353
10365POPC   NC367859  19.787  34.580   5.553
10365POPC   PO467860  19.883  34.585   5.853
10365POPC   GL167861  19.799  34.608   6.153
10365POPC   GL267862  19.754  34.685   6.153
10365POPC   C1A67863  19.802  34.625   6.453
10365POPC   D2A67864  19.806  34.619   6.753
10365POPC   C3A67865  19.854  34.584   7.053
10365POPC   C4A67866  19.818  34.576   7.353
10365POPC   C1B67867  19.769  34.782   6.453
10365POPC   C2B67868  19.692  34.761   6.753
10365POPC   C3B67869  19.752  34.750   7.053
10365POPC   C4B67870  19.692  34.810   7.353
10366POPC   NC367871  10.513  14.359   5.553
10366POPC   PO467872  10.491  14.356   5.853
10366POPC   GL167873  10.489  14.440   6.153
10366POPC   GL267874  10.695  14.443   6.153
10366POPC   C1A67875  10.513  14.430   6.453
10366POPC   D2A67876  10.518  14.420   6.753
10366POPC   C3A67877  10.480  14.387   7.053
10366POPC   C4A67878  10.561  14.395   7.353
10366POPC   C1B67879  10.796  14.459   6.453
10366POPC   C2B67880  10.801  14.433   6.753
10366POPC   C3B67881  10.774  14.406   7.053
10366POPC   C4B67882  10.802  14.427   7.353
10367POPC   NC367883  26.085  10.478   5.553
10367POPC   PO467884  26.090  10.475   5.853
10367POPC   GL167885  26.080  10.567   6.153
10367POPC   GL267886  25.933  10.495   6.153
10367POPC   C1A67887  25.996  10.497   6.453
10367POPC   D2A67888  26.053  10.567   6.753
10367POPC   C3A67889  26.050  10.568   7.053
10367POPC   C4A67890  25.995  10.562   7.353
10367POPC   C1B67891  25.798  10.542   6.453
10367POPC   C2B67892  25.758  10.458   6.753
10367POPC   C3B67893  25.756  10.542   7.053
10367POPC   C4B67894  25.791  10.549   7.353
10368POPC   NC367895  44.657  22.204   5.553
10368POPC   PO467896  44.641  22.200   5.853
10368POPC   GL167897  44.651  22.118   6.153
10368POPC   GL267898  44.510  22.145   6.153
10368POPC   C1A67899  44.689  22.196   6.453
10368POPC   D2A67900  44.660  22.172   6.753
10368POPC   C3A67901  44.684  22.181   7.053
10368POPC   C4A67902  44.689  22.122   7.353
10368POPC   C1B67903  44.457  22.132   6.453
10368POPC   C2B67904  44.437  22.167   6.753
10368POPC   C3B67905  44.418  22.124   7.053
10368POPC   C4B67906  44.438  22.138   7.353
10369POPC   NC367907  22.146   1.993   5.553
10369POPC   PO467908  22.115   1.946   5.853
10369POPC   GL167909  22.188   2.018   6.153
10369POPC   GL267910  22.078   1.946   6.153
10369POPC   C1A67911  22.190   2.003   6.453
10369POPC   D2A67912  22.114   1.979   6.753
10369POPC   C3A67913  22.205   2.004   7.053
10369POPC   C4A67914  22.119   2.029   7.353
10369POPC   C1B67915  21.966   1.976   6.453
10369POPC   C2B67916  21.960   1.948   6.753
10369POPC   C3B67917  21.910   1.930   7.053
10369POPC   C4B67918  21.907   1.892   7.353
10370POPC   NC367919  31.433  29.163   5.553
10370POPC   PO467920  31.476  29.116   5.853
10370POPC   GL167921  31.473  29.103   6.153
10370POPC   GL267922  31.443  28.983   6.153
10370POPC   C1A67923  31.490  29.185   6.453
10370POPC   D2A67924  31.446  29.110   6.753
10370POPC   C3A67925  31.442  29.114   7.053
10370POPC   C4A67926  31.426  29.192   7.353
10370POPC   C1B67927  31.431  28.853   6.453
10370POPC   C2B67928  31.442  28.893   6.753
10370POPC   C3B67929  31.465  28.889   7.053
10370POPC   C4B67930  31.374  28.901   7.353
10371POPC   NC367931  34.587  36.153   5.553
10371POPC   PO467932  34.581  36.122   5.853
10371POPC   GL167933  34.594  36.176   6.153
10371POPC   GL267934  34.462  36.221   6.153
10371POPC   C1A67935  34.569  36.107   6.453
10371POPC   D2A67936  34.558  36.161   6.753
10371POPC   C3A67937  34.575  36.111   7.053
10371POPC   C4A67938  34.556  36.165   7.353
10371POPC   C1B67939  34.368  36.301   6.453
10371POPC   C2B67940  34.333  36.278   6.753
10371POPC   C3B67941  34.411  36.223   7.053
10371POPC   C4B67942  34.381  36.307   7.353
10372POPC   NC367943  33.025   1.186   5.553
10372POPC   PO467944  33.041   1.178   5.853
10372POPC   GL167945  32.975   1.195   6.153
10372POPC   GL267946  33.143   1.324   6.153
10372POPC   C1A67947  33.070   1.184   6.453
10372POPC   D2A67948  32.995   1.201   6.753
10372POPC   C3A67949  32.989   1.197   7.053
10372POPC   C4A67950  32.984   1.220   7.353
10372POPC   C1B67951  33.184   1.411   6.453
10372POPC   C2B67952  33.169   1.446   6.753
10372POPC   C3B67953  33.198   1.367   7.053
10372POPC   C4B67954  33.229   1.419   7.353
10373POPC   NC367955  24.517  12.822   5.553
10373POPC   PO467956  24.471  12.885   5.853
10373POPC   GL167957  24.501  12.832   6.153
10373POPC   GL267958  24.477  12.966   6.153
10373POPC   C1A67959  24.460  12.898   6.453
10373POPC   D2A67960  24.448  12.842   6.753
10373POPC   C3A67961  24.464  12.854   7.053
10373POPC   C4A67962  24.455  12.820   7.353
10373POPC   C1B67963  24.353  13.029   6.453
10373POPC   C2B67964  24.338  13.090   6.753
10373POPC   C3B67965  24.420  13.036   7.053
10373POPC   C4B67966  24.402  13.034   7.353
10374POPC   NC367967  41.549  19.824   5.553
10374POPC   PO467968  41.514  19.821   5.853
10374POPC   GL167969  41.543  19.821   6.153
10374POPC   GL267970  41.624  19.731   6.153
10374POPC   C1A67971  41.587  19.834   6.453
10374POPC   D2A67972  41.514  19.857   6.753
10374POPC   C3A67973  41.513  19.831   7.053
10374POPC   C4A67974  41.575  19.818   7.353
10374POPC   C1B67975  41.583  19.632   6.453
10374POPC   C2B67976  41.585  19.592   6.753
10374POPC   C3B67977  41.633  19.585   7.053
10374POPC   C4B67978  41.621  19.605   7.353
10375POPC   NC367979  38.424  26.803   5.553
10375POPC   PO467980  38.433  26.795   5.853
10375POPC   GL167981  38.497  26.853   6.153
10375POPC   GL267982  38.501  26.669   6.153
10375POPC   C1A67983  38.443  26.777   6.453
10375POPC   D2A67984  38.498  26.860   6.753
10375POPC   C3A67985  38.454  26.837   7.053
10375POPC   C4A67986  38.485  26.807   7.353
10375POPC   C1B67987  38.437  26.520   6.453
10375POPC   C2B67988  38.462  26.545   6.753
10375POPC   C3B67989  38.470  26.567   7.053
10375POPC   C4B67990  38.459  26.575   7.353
10376POPC   NC367991  22.151  20.594   5.553
10376POPC   PO467992  22.120  20.610   5.853
10376POPC   GL167993  22.203  20.591   6.153
10376POPC   GL267994  22.019  20.483   6.153
10376POPC   C1A67995  22.210  20.654   6.453
10376POPC   D2A67996  22.194  20.621   6.753
10376POPC   C3A67997  22.185  20.651   7.053
10376POPC   C4A67998  22.188  20.579   7.353
10376POPC   C1B67999  21.934  20.486   6.453
10376POPC   C2B68000  21.995  20.446   6.753
10376POPC   C3B68001  21.916  20.503   7.053
10376POPC   C4B68002  21.921  20.427   7.353
10377POPC   NC368003  26.046  37.709   5.553
10377POPC   PO468004  26.009  37.687   5.853
10377POPC   GL168005  26.060  37.711   6.153
10377POPC   GL268006  26.116  37.828   6.153
10377POPC   C1A68007  26.006  37.641   6.453
10377POPC   D2A68008  26.053  37.693   6.753
10377POPC   C3A68009  26.015  37.676   7.053
10377POPC   C4A68010  25.993  37.721   7.353
10377POPC   C1B68011  26.108  37.938   6.453
10377POPC   C2B68012  26.178  37.891   6.753
10377POPC   C3B68013  26.169  37.852   7.053
10377POPC   C4B68014  26.163  37.936   7.353
10378POPC   NC368015  42.376  15.947   5.553
10378POPC   PO468016  42.298  15.945   5.853
10378POPC   GL168017  42.293  16.004   6.153
10378POPC   GL268018  42.261  16.111   6.153
10378POPC   C1A68019  42.326  15.965   6.453
10378POPC   D2A68020  42.291  15.927   6.753
10378POPC   C3A68021  42.364  15.919   7.053
10378POPC   C4A68022  42.328  16.003   7.353
10378POPC   C1B68023  42.251  16.205   6.453
10378POPC   C2B68024  42.299  16.153   6.753
10378POPC   C3B68025  42.256  16.214   7.053
10378POPC   C4B68026  42.268  16.193   7.353
10379POPC   NC368027   9.779   2.798   5.553
10379POPC   PO468028   9.727   2.797   5.853
10379POPC   GL168029   9.777   2.802   6.153
10379POPC   GL268030   9.628   2.716   6.153
10379POPC   C1A68031   9.798   2.750   6.453
10379POPC   D2A68032   9.789   2.801   6.753
10379POPC   C3A68033   9.701   2.720   7.053
10379POPC   C4A68034   9.705   2.785   7.353
10379POPC   C1B68035   9.541   2.744   6.453
10379POPC   C2B68036   9.538   2.759   6.753
10379POPC   C3B68037   9.533   2.700   7.053
10379POPC   C4B68038   9.478   2.763   7.353
10380POPC   NC368039  43.877   2.776   5.553
10380POPC   PO468040  43.934   2.732   5.853
10380POPC   GL168041  43.868   2.807   6.153
10380POPC   GL268042  43.970   2.649   6.153
10380POPC   C1A68043  43.916   2.789   6.453
10380POPC   D2A68044  43.924   2.764   6.753
10380POPC   C3A68045  43.887   2.741   7.053
10380POPC   C4A68046  43.875   2.730   7.353
10380POPC   C1B68047  44.123   2.589   6.453
10380POPC   C2B68048  44.038   2.567   6.753
10380POPC   C3B68049  44.094   2.650   7.053
10380POPC   C4B68050  44.096   2.603   7.353
10381POPC   NC368051  30.702  38.439   5.553
10381POPC   PO468052  30.683  38.471   5.853
10381POPC   GL168053  30.662  38.485   6.153
10381POPC   GL268054  30.667  38.567   6.153
10381POPC   C1A68055  30.723  38.466   6.453
10381POPC   D2A68056  30.723  38.499   6.753
10381POPC   C3A68057  30.717  38.431   7.053
10381POPC   C4A68058  30.723  38.439   7.353
10381POPC   C1B68059  30.557  38.639   6.453
10381POPC   C2B68060  30.587  38.683   6.753
10381POPC   C3B68061  30.550  38.613   7.053
10381POPC   C4B68062  30.536  38.697   7.353
10382POPC   NC368063  22.148  31.518   5.553
10382POPC   PO468064  22.172  31.423   5.853
10382POPC   GL168065  22.126  31.442   6.153
10382POPC   GL268066  22.236  31.468   6.153
10382POPC   C1A68067  22.179  31.435   6.453
10382POPC   D2A68068  22.180  31.423   6.753
10382POPC   C3A68069  22.144  31.471   7.053
10382POPC   C4A68070  22.184  31.457   7.353
10382POPC   C1B68071  22.363  31.563   6.453
10382POPC   C2B68072  22.365  31.542   6.753
10382POPC   C3B68073  22.438  31.493   7.053
10382POPC   C4B68074  22.439  31.578   7.353
10383POPC   NC368075   4.351  20.581   5.553
10383POPC   PO468076   4.335  20.610   5.853
10383POPC   GL168077   4.291  20.657   6.153
10383POPC   GL268078   4.181  20.645   6.153
10383POPC   C1A68079   4.314  20.653   6.453
10383POPC   D2A68080   4.317  20.634   6.753
10383POPC   C3A68081   4.273  20.654   7.053
10383POPC   C4A68082   4.325  20.596   7.353
10383POPC   C1B68083   4.132  20.817   6.453
10383POPC   C2B68084   4.116  20.774   6.753
10383POPC   C3B68085   4.088  20.770   7.053
10383POPC   C4B68086   4.093  20.802   7.353
10384POPC   NC368087  19.851  43.908   5.553
10384POPC   PO468088  19.869  43.853   5.853
10384POPC   GL168089  19.866  43.875   6.153
10384POPC   GL268090  19.923  43.954   6.153
10384POPC   C1A68091  19.830  43.904   6.453
10384POPC   D2A68092  19.849  43.888   6.753
10384POPC   C3A68093  19.786  43.935   7.053
10384POPC   C4A68094  19.878  43.901   7.353
10384POPC   C1B68095  20.048  43.944   6.453
10384POPC   C2B68096  20.090  43.924   6.753
10384POPC   C3B68097  20.116  43.914   7.053
10384POPC   C4B68098  20.095  43.983   7.353
10385POPC   NC368099  40.793  16.725   5.553
10385POPC   PO468100  40.785  16.730   5.853
10385POPC   GL168101  40.735  16.709   6.153
10385POPC   GL268102  40.823  16.798   6.153
10385POPC   C1A68103  40.822  16.719   6.453
10385POPC   D2A68104  40.801  16.701   6.753
10385POPC   C3A68105  40.817  16.717   7.053
10385POPC   C4A68106  40.739  16.686   7.353
10385POPC   C1B68107  40.869  17.003   6.453
10385POPC   C2B68108  40.873  16.951   6.753
10385POPC   C3B68109  40.862  16.927   7.053
10385POPC   C4B68110  40.913  16.915   7.353
10386POPC   NC368111  39.229  21.357   5.553
10386POPC   PO468112  39.267  21.408   5.853
10386POPC   GL168113  39.236  21.415   6.153
10386POPC   GL268114  39.380  21.408   6.153
10386POPC   C1A68115  39.245  21.427   6.453
10386POPC   D2A68116  39.208  21.358   6.753
10386POPC   C3A68117  39.265  21.338   7.053
10386POPC   C4A68118  39.188  21.390   7.353
10386POPC   C1B68119  39.435  21.440   6.453
10386POPC   C2B68120  39.445  21.451   6.753
10386POPC   C3B68121  39.464  21.414   7.053
10386POPC   C4B68122  39.519  21.373   7.353
10387POPC   NC368123  20.583  22.115   5.553
10387POPC   PO468124  20.614  22.165   5.853
10387POPC   GL168125  20.611  22.122   6.153
10387POPC   GL268126  20.533  22.322   6.153
10387POPC   C1A68127  20.604  22.142   6.453
10387POPC   D2A68128  20.631  22.209   6.753
10387POPC   C3A68129  20.592  22.117   7.053
10387POPC   C4A68130  20.592  22.162   7.353
10387POPC   C1B68131  20.521  22.362   6.453
10387POPC   C2B68132  20.499  22.420   6.753
10387POPC   C3B68133  20.563  22.376   7.053
10387POPC   C4B68134  20.541  22.346   7.353
10388POPC   NC368135  23.762  11.270   5.553
10388POPC   PO468136  23.682  11.294   5.853
10388POPC   GL168137  23.746  11.340   6.153
10388POPC   GL268138  23.594  11.356   6.153
10388POPC   C1A68139  23.692  11.308   6.453
10388POPC   D2A68140  23.729  11.322   6.753
10388POPC   C3A68141  23.685  11.324   7.053
10388POPC   C4A68142  23.671  11.342   7.353
10388POPC   C1B68143  23.499  11.484   6.453
10388POPC   C2B68144  23.561  11.443   6.753
10388POPC   C3B68145  23.496  11.506   7.053
10388POPC   C4B68146  23.560  11.488   7.353
10389POPC   NC368147  32.270  25.225   5.553
10389POPC   PO468148  32.221  25.295   5.853
10389POPC   GL168149  32.200  25.247   6.153
10389POPC   GL268150  32.373  25.352   6.153
10389POPC   C1A68151  32.287  25.294   6.453
10389POPC   D2A68152  32.199  25.259   6.753
10389POPC   C3A68153  32.297  25.306   7.053
10389POPC   C4A68154  32.262  25.292   7.353
10389POPC   C1B68155  32.428  25.434   6.453
10389POPC   C2B68156  32.495  25.426   6.753
10389POPC   C3B68157  32.504  25.378   7.053
10389POPC   C4B68158  32.509  25.369   7.353
10390POPC   NC368159  38.477  18.311   5.553
10390POPC   PO468160  38.445  18.330   5.853
10390POPC   GL168161  38.418  18.330   6.153
10390POPC   GL268162  38.548  18.423   6.153
10390POPC   C1A68163  38.424  18.315   6.453
10390POPC   D2A68164  38.459  18.260   6.753
10390POPC   C3A68165  38.420  18.294   7.053
10390POPC   C4A68166  38.505  18.263   7.353
10390POPC   C1B68167  38.585  18.520   6.453
10390POPC   C2B68168  38.603  18.514   6.753
10390POPC   C3B68169  38.572  18.550   7.053
10390POPC   C4B68170  38.561  18.480   7.353
10391POPC   NC368171  30.715  33.023   5.553
10391POPC   PO468172  30.655  33.010   5.853
10391POPC   GL168173  30.660  33.025   6.153
10391POPC   GL268174  30.650  32.898   6.153
10391POPC   C1A68175  30.655  32.980   6.453
10391POPC   D2A68176  30.669  33.028   6.753
10391POPC   C3A68177  30.687  33.037   7.053
10391POPC   C4A68178  30.736  33.045   7.353
10391POPC   C1B68179  30.648  32.751   6.453
10391POPC   C2B68180  30.652  32.737   6.753
10391POPC   C3B68181  30.644  32.745   7.053
10391POPC   C4B68182  30.671  32.770   7.353
10392POPC   NC368183  36.879  12.125   5.553
10392POPC   PO468184  36.890  12.114   5.853
10392POPC   GL168185  36.863  12.119   6.153
10392POPC   GL268186  36.811  12.022   6.153
10392POPC   C1A68187  36.930  12.088   6.453
10392POPC   D2A68188  36.873  12.040   6.753
10392POPC   C3A68189  36.919  12.058   7.053
10392POPC   C4A68190  36.942  12.068   7.353
10392POPC   C1B68191  36.676  11.916   6.453
10392POPC   C2B68192  36.681  11.947   6.753
10392POPC   C3B68193  36.730  11.966   7.053
10392POPC   C4B68194  36.665  11.878   7.353
10393POPC   NC368195  38.481  11.255   5.553
10393POPC   PO468196  38.490  11.283   5.853
10393POPC   GL168197  38.431  11.339   6.153
10393POPC   GL268198  38.600  11.347   6.153
10393POPC   C1A68199  38.446  11.260   6.453
10393POPC   D2A68200  38.452  11.332   6.753
10393POPC   C3A68201  38.424  11.308   7.053
10393POPC   C4A68202  38.449  11.331   7.353
10393POPC   C1B68203  38.660  11.303   6.453
10393POPC   C2B68204  38.730  11.324   6.753
10393POPC   C3B68205  38.751  11.347   7.053
10393POPC   C4B68206  38.676  11.284   7.353
10394POPC   NC368207  17.555  43.873   5.553
10394POPC   PO468208  17.543  43.841   5.853
10394POPC   GL168209  17.533  43.928   6.153
10394POPC   GL268210  17.468  43.779   6.153
10394POPC   C1A68211  17.537  43.900   6.453
10394POPC   D2A68212  17.549  43.921   6.753
10394POPC   C3A68213  17.488  43.904   7.053
10394POPC   C4A68214  17.473  43.854   7.353
10394POPC   C1B68215  17.492  43.674   6.453
10394POPC   C2B68216  17.525  43.598   6.753
10394POPC   C3B68217  17.458  43.592   7.053
10394POPC   C4B68218  17.544  43.590   7.353
10395POPC   NC368219  22.207  12.885   5.553
10395POPC   PO468220  22.148  12.876   5.853
10395POPC   GL168221  22.115  12.839   6.153
10395POPC   GL268222  22.154  12.680   6.153
10395POPC   C1A68223  22.177  12.825   6.453
10395POPC   D2A68224  22.122  12.821   6.753
10395POPC   C3A68225  22.191  12.855   7.053
10395POPC   C4A68226  22.126  12.829   7.353
10395POPC   C1B68227  22.154  12.619   6.453
10395POPC   C2B68228  22.146  12.617   6.753
10395POPC   C3B68229  22.160  12.586   7.053
10395POPC   C4B68230  22.179  12.649   7.353
10396POPC   NC368231  18.295   1.173   5.553
10396POPC   PO468232  18.328   1.213   5.853
10396POPC   GL168233  18.276   1.210   6.153
10396POPC   GL268234  18.426   1.138   6.153
10396POPC   C1A68235  18.270   1.223   6.453
10396POPC   D2A68236  18.316   1.200   6.753
10396POPC   C3A68237  18.320   1.203   7.053
10396POPC   C4A68238  18.284   1.238   7.353
10396POPC   C1B68239  18.524   1.115   6.453
10396POPC   C2B68240  18.472   1.120   6.753
10396POPC   C3B68241  18.526   1.035   7.053
10396POPC   C4B68242  18.540   1.101   7.353
10397POPC   NC368243   0.423  43.932   5.553
10397POPC   PO468244   0.434  43.900   5.853
10397POPC   GL168245   0.442  43.933   6.153
10397POPC   GL268246   0.532  44.029   6.153
10397POPC   C1A68247   0.389  43.839   6.453
10397POPC   D2A68248   0.450  43.935   6.753
10397POPC   C3A68249   0.477  43.843   7.053
10397POPC   C4A68250   0.436  43.882   7.353
10397POPC   C1B68251   0.571  44.138   6.453
10397POPC   C2B68252   0.612  44.088   6.753
10397POPC   C3B68253   0.551  44.043   7.053
10397POPC   C4B68254   0.568  44.134   7.353
10398POPC   NC368255  40.789  27.643   5.553
10398POPC   PO468256  40.832  27.608   5.853
10398POPC   GL168257  40.825  27.561   6.153
10398POPC   GL268258  40.665  27.544   6.153
10398POPC   C1A68259  40.736  27.635   6.453
10398POPC   D2A68260  40.747  27.565   6.753
10398POPC   C3A68261  40.736  27.610   7.053
10398POPC   C4A68262  40.781  27.548   7.353
10398POPC   C1B68263  40.564  27.417   6.453
10398POPC   C2B68264  40.609  27.424   6.753
10398POPC   C3B68265  40.593  27.387   7.053
10398POPC   C4B68266  40.552  27.395   7.353
10399POPC   NC368267  33.764   5.858   5.553
10399POPC   PO468268  33.753   5.879   5.853
10399POPC   GL168269  33.770   5.868   6.153
10399POPC   GL268270  33.810   5.732   6.153
10399POPC   C1A68271  33.762   5.842   6.453
10399POPC   D2A68272  33.835   5.842   6.753
10399POPC   C3A68273  33.760   5.902   7.053
10399POPC   C4A68274  33.792   5.894   7.353
10399POPC   C1B68275  33.895   5.671   6.453
10399POPC   C2B68276  33.883   5.658   6.753
10399POPC   C3B68277  33.842   5.596   7.053
10399POPC   C4B68278  33.900   5.587   7.353
10400POPC   NC368279  19.835  40.045   5.553
10400POPC   PO468280  19.796  39.960   5.853
10400POPC   GL168281  19.825  39.967   6.153
10400POPC   GL268282  19.737  40.013   6.153
10400POPC   C1A68283  19.814  40.049   6.453
10400POPC   D2A68284  19.860  39.960   6.753
10400POPC   C3A68285  19.845  40.006   7.053
10400POPC   C4A68286  19.805  39.998   7.353
10400POPC   C1B68287  19.610  39.957   6.453
10400POPC   C2B68288  19.536  39.997   6.753
10400POPC   C3B68289  19.601  39.999   7.053
10400POPC   C4B68290  19.594  39.959   7.353
10401POPC   NC368291  32.266  28.326   5.553
10401POPC   PO468292  32.199  28.373   5.853
10401POPC   GL168293  32.257  28.384   6.153
10401POPC   GL268294  32.206  28.286   6.153
10401POPC   C1A68295  32.250  28.389   6.453
10401POPC   D2A68296  32.265  28.383   6.753
10401POPC   C3A68297  32.214  28.341   7.053
10401POPC   C4A68298  32.297  28.372   7.353
10401POPC   C1B68299  32.176  28.098   6.453
10401POPC   C2B68300  32.119  28.120   6.753
10401POPC   C3B68301  32.182  28.131   7.053
10401POPC   C4B68302  32.207  28.084   7.353
10402POPC   NC368303  43.092  40.749   5.553
10402POPC   PO468304  43.099  40.782   5.853
10402POPC   GL168305  43.147  40.760   6.153
10402POPC   GL268306  43.191  40.805   6.153
10402POPC   C1A68307  43.086  40.817   6.453
10402POPC   D2A68308  43.145  40.765   6.753
10402POPC   C3A68309  43.112  40.735   7.053
10402POPC   C4A68310  43.127  40.781   7.353
10402POPC   C1B68311  43.397  40.811   6.453
10402POPC   C2B68312  43.325  40.796   6.753
10402POPC   C3B68313  43.319  40.894   7.053
10402POPC   C4B68314  43.320  40.820   7.353
10403POPC   NC368315  17.475  26.014   5.553
10403POPC   PO468316  17.538  26.036   5.853
10403POPC   GL168317  17.504  26.004   6.153
10403POPC   GL268318  17.547  25.909   6.153
10403POPC   C1A68319  17.508  26.021   6.453
10403POPC   D2A68320  17.494  26.035   6.753
10403POPC   C3A68321  17.535  26.006   7.053
10403POPC   C4A68322  17.530  26.073   7.353
10403POPC   C1B68323  17.552  25.767   6.453
10403POPC   C2B68324  17.567  25.825   6.753
10403POPC   C3B68325  17.578  25.768   7.053
10403POPC   C4B68326  17.602  25.802   7.353
10404POPC   NC368327   2.787  26.865   5.553
10404POPC   PO468328   2.768  26.864   5.853
10404POPC   GL168329   2.745  26.784   6.153
10404POPC   GL268330   2.707  26.778   6.153
10404POPC   C1A68331   2.757  26.833   6.453
10404POPC   D2A68332   2.764  26.830   6.753
10404POPC   C3A68333   2.722  26.804   7.053
10404POPC   C4A68334   2.764  26.860   7.353
10404POPC   C1B68335   2.607  26.698   6.453
10404POPC   C2B68336   2.528  26.668   6.753
10404POPC   C3B68337   2.524  26.655   7.053
10404POPC   C4B68338   2.547  26.653   7.353
10405POPC   NC368339  11.254   5.121   5.553
10405POPC   PO468340  11.335   5.101   5.853
10405POPC   GL168341  11.252   5.102   6.153
10405POPC   GL268342  11.180   5.162   6.153
10405POPC   C1A68343  11.325   5.076   6.453
10405POPC   D2A68344  11.316   5.131   6.753
10405POPC   C3A68345  11.283   5.077   7.053
10405POPC   C4A68346  11.322   5.079   7.353
10405POPC   C1B68347  11.103   5.156   6.453
10405POPC   C2B68348  11.114   5.189   6.753
10405POPC   C3B68349  11.098   5.168   7.053
10405POPC   C4B68350  11.086   5.223   7.353
10406POPC   NC368351  33.847  14.421   5.553
10406POPC   PO468352  33.817  14.415   5.853
10406POPC   GL168353  33.778  14.408   6.153
10406POPC   GL268354  33.912  14.366   6.153
10406POPC   C1A68355  33.799  14.378   6.453
10406POPC   D2A68356  33.751  14.375   6.753
10406POPC   C3A68357  33.818  14.402   7.053
10406POPC   C4A68358  33.807  14.373   7.353
10406POPC   C1B68359  34.000  14.379   6.453
10406POPC   C2B68360  34.026  14.353   6.753
10406POPC   C3B68361  34.094  14.354   7.053
10406POPC   C4B68362  34.094  14.391   7.353
10407POPC   NC368363  19.094  36.942   5.553
10407POPC   PO468364  19.099  36.855   5.853
10407POPC   GL168365  19.019  36.861   6.153
10407POPC   GL268366  19.164  36.768   6.153
10407POPC   C1A68367  19.038  36.913   6.453
10407POPC   D2A68368  19.054  36.940   6.753
10407POPC   C3A68369  19.031  36.879   7.053
10407POPC   C4A68370  19.096  36.938   7.353
10407POPC   C1B68371  19.144  36.661   6.453
10407POPC   C2B68372  19.214  36.673   6.753
10407POPC   C3B68373  19.224  36.678   7.053
10407POPC   C4B68374  19.164  36.642   7.353
10408POPC   NC368375   9.004  25.312   5.553
10408POPC   PO468376   8.966  25.269   5.853
10408POPC   GL168377   9.014  25.268   6.153
10408POPC   GL268378   8.908  25.383   6.153
10408POPC   C1A68379   9.008  25.278   6.453
10408POPC   D2A68380   8.979  25.302   6.753
10408POPC   C3A68381   8.985  25.300   7.053
10408POPC   C4A68382   9.016  25.307   7.353
10408POPC   C1B68383   8.976  25.473   6.453
10408POPC   C2B68384   8.977  25.540   6.753
10408POPC   C3B68385   8.908  25.543   7.053
10408POPC   C4B68386   8.975  25.501   7.353
10409POPC   NC368387   2.022  12.031   5.553
10409POPC   PO468388   2.032  12.059   5.853
10409POPC   GL168389   1.957  12.071   6.153
10409POPC   GL268390   2.069  12.000   6.153
10409POPC   C1A68391   1.977  12.072   6.453
10409POPC   D2A68392   1.993  12.028   6.753
10409POPC   C3A68393   1.980  12.085   7.053
10409POPC   C4A68394   1.988  12.088   7.353
10409POPC   C1B68395   2.195  11.991   6.453
10409POPC   C2B68396   2.219  11.923   6.753
10409POPC   C3B68397   2.185  11.921   7.053
10409POPC   C4B68398   2.209  11.922   7.353
10410POPC   NC368399  36.873  29.950   5.553
10410POPC   PO468400  36.868  29.971   5.853
10410POPC   GL168401  36.911  29.886   6.153
10410POPC   GL268402  36.766  29.918   6.153
10410POPC   C1A68403  36.856  29.881   6.453
10410POPC   D2A68404  36.862  29.882   6.753
10410POPC   C3A68405  36.856  29.931   7.053
10410POPC   C4A68406  36.865  29.913   7.353
10410POPC   C1B68407  36.638  29.792   6.453
10410POPC   C2B68408  36.688  29.837   6.753
10410POPC   C3B68409  36.665  29.842   7.053
10410POPC   C4B68410  36.695  29.817   7.353
10411POPC   NC368411  23.692  25.307   5.553
10411POPC   PO468412  23.709  25.283   5.853
10411POPC   GL168413  23.730  25.277   6.153
10411POPC   GL268414  23.668  25.359   6.153
10411POPC   C1A68415  23.681  25.232   6.453
10411POPC   D2A68416  23.715  25.265   6.753
10411POPC   C3A68417  23.727  25.255   7.053
10411POPC   C4A68418  23.742  25.279   7.353
10411POPC   C1B68419  23.495  25.410   6.453
10411POPC   C2B68420  23.539  25.481   6.753
10411POPC   C3B68421  23.510  25.480   7.053
10411POPC   C4B68422  23.587  25.433   7.353
10412POPC   NC368423  43.078  31.430   5.553
10412POPC   PO468424  43.139  31.465   5.853
10412POPC   GL168425  43.148  31.444   6.153
10412POPC   GL268426  43.107  31.380   6.153
10412POPC   C1A68427  43.118  31.491   6.453
10412POPC   D2A68428  43.121  31.456   6.753
10412POPC   C3A68429  43.123  31.503   7.053
10412POPC   C4A68430  43.141  31.456   7.353
10412POPC   C1B68431  43.033  31.178   6.453
10412POPC   C2B68432  43.026  31.240   6.753
10412POPC   C3B68433  43.107  31.216   7.053
10412POPC   C4B68434  43.056  31.184   7.353
10413POPC   NC368435   0.442  33.036   5.553
10413POPC   PO468436   0.463  33.059   5.853
10413POPC   GL168437   0.401  33.043   6.153
10413POPC   GL268438   0.493  32.948   6.153
10413POPC   C1A68439   0.434  33.039   6.453
10413POPC   D2A68440   0.446  33.007   6.753
10413POPC   C3A68441   0.407  33.008   7.053
10413POPC   C4A68442   0.447  32.994   7.353
10413POPC   C1B68443   0.502  32.765   6.453
10413POPC   C2B68444   0.484  32.811   6.753
10413POPC   C3B68445   0.549  32.744   7.053
10413POPC   C4B68446   0.574  32.797   7.353
10414POPC   NC368447   6.673   2.035   5.553
10414POPC   PO468448   6.662   2.021   5.853
10414POPC   GL168449   6.626   1.976   6.153
10414POPC   GL268450   6.577   2.006   6.153
10414POPC   C1A68451   6.597   2.020   6.453
10414POPC   D2A68452   6.607   2.004   6.753
10414POPC   C3A68453   6.686   1.985   7.053
10414POPC   C4A68454   6.606   1.963   7.353
10414POPC   C1B68455   6.450   2.146   6.453
10414POPC   C2B68456   6.449   2.095   6.753
10414POPC   C3B68457   6.456   2.093   7.053
10414POPC   C4B68458   6.427   2.101   7.353
10415POPC   NC368459   5.143  23.735   5.553
10415POPC   PO468460   5.071  23.731   5.853
10415POPC   GL168461   5.061  23.680   6.153
10415POPC   GL268462   5.039  23.795   6.153
10415POPC   C1A68463   5.070  23.708   6.453
10415POPC   D2A68464   5.094  23.716   6.753
10415POPC   C3A68465   5.054  23.760   7.053
10415POPC   C4A68466   5.132  23.719   7.353
10415POPC   C1B68467   4.926  23.893   6.453
10415POPC   C2B68468   4.851  23.861   6.753
10415POPC   C3B68469   4.907  23.863   7.053
10415POPC   C4B68470   4.849  23.828   7.353
10416POPC   NC368471  31.444  44.667   5.553
10416POPC   PO468472  31.434  44.709   5.853
10416POPC   GL168473  31.514  44.625   6.153
10416POPC   GL268474  31.458  44.581   6.153
10416POPC   C1A68475  31.460  44.710   6.453
10416POPC   D2A68476  31.481  44.619   6.753
10416POPC   C3A68477  31.461  44.660   7.053
10416POPC   C4A68478  31.443  44.695   7.353
10416POPC   C1B68479  31.321  44.465   6.453
10416POPC   C2B68480  31.314  44.456   6.753
10416POPC   C3B68481  31.383  44.421   7.053
10416POPC   C4B68482  31.356  44.403   7.353
10417POPC   NC368483  43.144  39.996   5.553
10417POPC   PO468484  43.115  40.031   5.853
10417POPC   GL168485  43.135  39.961   6.153
10417POPC   GL268486  43.191  40.093   6.153
10417POPC   C1A68487  43.138  39.988   6.453
10417POPC   D2A68488  43.145  39.974   6.753
10417POPC   C3A68489  43.112  40.008   7.053
10417POPC   C4A68490  43.145  40.021   7.353
10417POPC   C1B68491  43.298  40.150   6.453
10417POPC   C2B68492  43.312  40.178   6.753
10417POPC   C3B68493  43.270  40.141   7.053
10417POPC   C4B68494  43.318  40.152   7.353
10418POPC   NC368495   8.973  24.448   5.553
10418POPC   PO468496   8.981  24.482   5.853
10418POPC   GL168497   8.936  24.495   6.153
10418POPC   GL268498   9.091  24.538   6.153
10418POPC   C1A68499   8.948  24.517   6.453
10418POPC   D2A68500   8.924  24.442   6.753
10418POPC   C3A68501   9.011  24.452   7.053
10418POPC   C4A68502   8.934  24.524   7.353
10418POPC   C1B68503   9.225  24.580   6.453
10418POPC   C2B68504   9.208  24.625   6.753
10418POPC   C3B68505   9.166  24.635   7.053
10418POPC   C4B68506   9.233  24.601   7.353
10419POPC   NC368507  29.875  15.187   5.553
10419POPC   PO468508  29.952  15.146   5.853
10419POPC   GL168509  29.909  15.170   6.153
10419POPC   GL268510  30.051  15.146   6.153
10419POPC   C1A68511  29.951  15.177   6.453
10419POPC   D2A68512  29.878  15.181   6.753
10419POPC   C3A68513  29.969  15.167   7.053
10419POPC   C4A68514  29.956  15.204   7.353
10419POPC   C1B68515  30.156  15.171   6.453
10419POPC   C2B68516  30.211  15.204   6.753
10419POPC   C3B68517  30.163  15.165   7.053
10419POPC   C4B68518  30.196  15.177   7.353
10420POPC   NC368519  25.252   4.349   5.553
10420POPC   PO468520  25.230   4.350   5.853
10420POPC   GL168521  25.278   4.361   6.153
10420POPC   GL268522  25.416   4.367   6.153
10420POPC   C1A68523  25.252   4.334   6.453
10420POPC   D2A68524  25.247   4.343   6.753
10420POPC   C3A68525  25.267   4.289   7.053
10420POPC   C4A68526  25.231   4.339   7.353
10420POPC   C1B68527  25.517   4.362   6.453
10420POPC   C2B68528  25.546   4.418   6.753
10420POPC   C3B68529  25.513   4.348   7.053
10420POPC   C4B68530  25.492   4.375   7.353
10421POPC   NC368531  29.963  20.567   5.553
10421POPC   PO468532  29.961  20.588   5.853
10421POPC   GL168533  29.930  20.574   6.153
10421POPC   GL268534  29.773  20.532   6.153
10421POPC   C1A68535  29.923  20.621   6.453
10421POPC   D2A68536  29.943  20.589   6.753
10421POPC   C3A68537  29.902  20.634   7.053
10421POPC   C4A68538  29.940  20.653   7.353
10421POPC   C1B68539  29.657  20.520   6.453
10421POPC   C2B68540  29.685  20.519   6.753
10421POPC   C3B68541  29.686  20.477   7.053
10421POPC   C4B68542  29.726  20.488   7.353
10422POPC   NC368543  19.846   3.511   5.553
10422POPC   PO468544  19.882   3.529   5.853
10422POPC   GL168545  19.842   3.576   6.153
10422POPC   GL268546  19.875   3.438   6.153
10422POPC   C1A68547  19.827   3.545   6.453
10422POPC   D2A68548  19.808   3.539   6.753
10422POPC   C3A68549  19.851   3.587   7.053
10422POPC   C4A68550  19.864   3.515   7.353
10422POPC   C1B68551  20.049   3.382   6.453
10422POPC   C2B68552  19.979   3.325   6.753
10422POPC   C3B68553  19.978   3.378   7.053
10422POPC   C4B68554  20.054   3.338   7.353
10423POPC   NC368555   0.393  40.817   5.553
10423POPC   PO468556   0.395  40.753   5.853
10423POPC   GL168557   0.403  40.760   6.153
10423POPC   GL268558   0.416  40.649   6.153
10423POPC   C1A68559   0.412  40.793   6.453
10423POPC   D2A68560   0.478  40.806   6.753
10423POPC   C3A68561   0.458  40.801   7.053
10423POPC   C4A68562   0.476  40.790   7.353
10423POPC   C1B68563   0.425  40.543   6.453
10423POPC   C2B68564   0.444  40.563   6.753
10423POPC   C3B68565   0.376  40.557   7.053
10423POPC   C4B68566   0.407  40.534   7.353
10424POPC   NC368567  18.233  20.624   5.553
10424POPC   PO468568  18.305  20.608   5.853
10424POPC   GL168569  18.243  20.626   6.153
10424POPC   GL268570  18.369  20.661   6.153
10424POPC   C1A68571  18.249  20.626   6.453
10424POPC   D2A68572  18.235  20.633   6.753
10424POPC   C3A68573  18.282  20.567   7.053
10424POPC   C4A68574  18.312  20.634   7.353
10424POPC   C1B68575  18.508  20.834   6.453
10424POPC   C2B68576  18.436  20.805   6.753
10424POPC   C3B68577  18.477  20.834   7.053
10424POPC   C4B68578  18.465  20.761   7.353
10425POPC   NC368579  13.581   6.623   5.553
10425POPC   PO468580  13.635   6.685   5.853
10425POPC   GL168581  13.597   6.615   6.153
10425POPC   GL268582  13.514   6.698   6.153
10425POPC   C1A68583  13.641   6.625   6.453
10425POPC   D2A68584  13.588   6.657   6.753
10425POPC   C3A68585  13.585   6.629   7.053
10425POPC   C4A68586  13.621   6.650   7.353
10425POPC   C1B68587  13.363   6.695   6.453
10425POPC   C2B68588  13.404   6.691   6.753
10425POPC   C3B68589  13.351   6.742   7.053
10425POPC   C4B68590  13.355   6.733   7.353
10426POPC   NC368591  36.171   1.992   5.553
10426POPC   PO468592  36.152   2.027   5.853
10426POPC   GL168593  36.089   1.992   6.153
10426POPC   GL268594  36.091   2.045   6.153
10426POPC   C1A68595  36.136   2.003   6.453
10426POPC   D2A68596  36.079   1.994   6.753
10426POPC   C3A68597  36.119   1.992   7.053
10426POPC   C4A68598  36.103   1.952   7.353
10426POPC   C1B68599  35.924   2.161   6.453
10426POPC   C2B68600  35.942   2.172   6.753
10426POPC   C3B68601  35.924   2.122   7.053
10426POPC   C4B68602  35.962   2.201   7.353
10427POPC   NC368603  17.540  32.258   5.553
10427POPC   PO468604  17.500  32.244   5.853
10427POPC   GL168605  17.488  32.281   6.153
10427POPC   GL268606  17.379  32.296   6.153
10427POPC   C1A68607  17.523  32.233   6.453
10427POPC   D2A68608  17.529  32.250   6.753
10427POPC   C3A68609  17.509  32.285   7.053
10427POPC   C4A68610  17.468  32.231   7.353
10427POPC   C1B68611  17.342  32.377   6.453
10427POPC   C2B68612  17.334  32.397   6.753
10427POPC   C3B68613  17.353  32.401   7.053
10427POPC   C4B68614  17.287  32.398   7.353
10428POPC   NC368615  12.038  43.918   5.553
10428POPC   PO468616  12.029  43.884   5.853
10428POPC   GL168617  12.068  43.856   6.153
10428POPC   GL268618  12.170  43.997   6.153
10428POPC   C1A68619  12.082  43.841   6.453
10428POPC   D2A68620  12.036  43.901   6.753
10428POPC   C3A68621  12.089  43.926   7.053
10428POPC   C4A68622  12.107  43.850   7.353
10428POPC   C1B68623  12.287  43.976   6.453
10428POPC   C2B68624  12.324  44.038   6.753
10428POPC   C3B68625  12.283  44.048   7.053
10428POPC   C4B68626  12.292  43.979   7.353
10429POPC   NC368627   4.311  26.007   5.553
10429POPC   PO468628   4.312  26.043   5.853
10429POPC   GL168629   4.358  26.009   6.153
10429POPC   GL268630   4.193  25.979   6.153
10429POPC   C1A68631   4.364  26.060   6.453
10429POPC   D2A68632   4.307  26.078   6.753
10429POPC   C3A68633   4.364  26.045   7.053
10429POPC   C4A68634   4.311  26.047   7.353
10429POPC   C1B68635   4.059  25.947   6.453
10429POPC   C2B68636   4.114  25.869   6.753
10429POPC   C3B68637   4.096  25.911   7.053
10429POPC   C4B68638   4.083  25.926   7.353
10430POPC   NC368639  22.936  40.813   5.553
10430POPC   PO468640  22.974  40.742   5.853
10430POPC   GL168641  22.969  40.737   6.153
10430POPC   GL268642  23.034  40.856   6.153
10430POPC   C1A68643  22.984  40.819   6.453
10430POPC   D2A68644  22.951  40.818   6.753
10430POPC   C3A68645  22.889  40.787   7.053
10430POPC   C4A68646  22.965  40.786   7.353
10430POPC   C1B68647  23.107  40.926   6.453
10430POPC   C2B68648  23.169  40.921   6.753
10430POPC   C3B68649  23.190  40.877   7.053
10430POPC   C4B68650  23.151  40.887   7.353
10431POPC   NC368651   6.638  43.889   5.553
10431POPC   PO468652   6.647  43.846   5.853
10431POPC   GL168653   6.608  43.898   6.153
10431POPC   GL268654   6.586  43.949   6.153
10431POPC   C1A68655   6.624  43.880   6.453
10431POPC   D2A68656   6.685  43.892   6.753
10431POPC   C3A68657   6.595  43.884   7.053
10431POPC   C4A68658   6.693  43.857   7.353
10431POPC   C1B68659   6.461  44.111   6.453
10431POPC   C2B68660   6.462  44.128   6.753
10431POPC   C3B68661   6.482  44.117   7.053
10431POPC   C4B68662   6.526  44.092   7.353
10432POPC   NC368663  41.548   2.013   5.553
10432POPC   PO468664  41.571   1.989   5.853
10432POPC   GL168665  41.547   1.973   6.153
10432POPC   GL268666  41.531   2.092   6.153
10432POPC   C1A68667  41.605   2.001   6.453
10432POPC   D2A68668  41.539   1.960   6.753
10432POPC   C3A68669  41.573   1.943   7.053
10432POPC   C4A68670  41.516   2.015   7.353
10432POPC   C1B68671  41.455   2.255   6.453
10432POPC   C2B68672  41.431   2.212   6.753
10432POPC   C3B68673  41.408   2.241   7.053
10432POPC   C4B68674  41.482   2.208   7.353
10433POPC   NC368675  21.385  43.153   5.553
10433POPC   PO468676  21.372  43.074   5.853
10433POPC   GL168677  21.418  43.083   6.153
10433POPC   GL268678  21.320  43.200   6.153
10433POPC   C1A68679  21.351  43.067   6.453
10433POPC   D2A68680  21.339  43.073   6.753
10433POPC   C3A68681  21.403  43.091   7.053
10433POPC   C4A68682  21.391  43.104   7.353
10433POPC   C1B68683  21.350  43.367   6.453
10433POPC   C2B68684  21.364  43.366   6.753
10433POPC   C3B68685  21.326  43.324   7.053
10433POPC   C4B68686  21.371  43.340   7.353
10434POPC   NC368687   3.558   5.048   5.553
10434POPC   PO468688   3.555   5.088   5.853
10434POPC   GL168689   3.545   5.073   6.153
10434POPC   GL268690   3.521   4.980   6.153
10434POPC   C1A68691   3.569   5.050   6.453
10434POPC   D2A68692   3.501   5.125   6.753
10434POPC   C3A68693   3.573   5.133   7.053
10434POPC   C4A68694   3.514   5.082   7.353
10434POPC   C1B68695   3.486   4.888   6.453
10434POPC   C2B68696   3.545   4.885   6.753
10434POPC   C3B68697   3.552   4.845   7.053
10434POPC   C4B68698   3.557   4.891   7.353
10435POPC   NC368699   7.425  40.010   5.553
10435POPC   PO468700   7.408  40.052   5.853
10435POPC   GL168701   7.409  39.985   6.153
10435POPC   GL268702   7.395  39.898   6.153
10435POPC   C1A68703   7.381  40.029   6.453
10435POPC   D2A68704   7.435  40.013   6.753
10435POPC   C3A68705   7.431  40.024   7.053
10435POPC   C4A68706   7.422  39.994   7.353
10435POPC   C1B68707   7.351  39.722   6.453
10435POPC   C2B68708   7.316  39.735   6.753
10435POPC   C3B68709   7.347  39.781   7.053
10435POPC   C4B68710   7.345  39.736   7.353
10436POPC   NC368711  16.697  31.446   5.553
10436POPC   PO468712  16.715  31.428   5.853
10436POPC   GL168713  16.692  31.466   6.153
10436POPC   GL268714  16.808  31.536   6.153
10436POPC   C1A68715  16.737  31.447   6.453
10436POPC   D2A68716  16.749  31.457   6.753
10436POPC   C3A68717  16.706  31.493   7.053
10436POPC   C4A68718  16.735  31.514   7.353
10436POPC   C1B68719  16.916  31.698   6.453
10436POPC   C2B68720  16.952  31.616   6.753
10436POPC   C3B68721  16.912  31.691   7.053
10436POPC   C4B68722  16.931  31.671   7.353
10437POPC   NC368723   4.268   2.038   5.553
10437POPC   PO468724   4.365   1.942   5.853
10437POPC   GL168725   4.357   2.016   6.153
10437POPC   GL268726   4.276   1.852   6.153
10437POPC   C1A68727   4.335   1.999   6.453
10437POPC   D2A68728   4.345   1.992   6.753
10437POPC   C3A68729   4.362   1.987   7.053
10437POPC   C4A68730   4.323   1.977   7.353
10437POPC   C1B68731   4.125   1.824   6.453
10437POPC   C2B68732   4.195   1.844   6.753
10437POPC   C3B68733   4.124   1.777   7.053
10437POPC   C4B68734   4.143   1.788   7.353
10438POPC   NC368735  43.128  29.134   5.553
10438POPC   PO468736  43.143  29.115   5.853
10438POPC   GL168737  43.094  29.098   6.153
10438POPC   GL268738  43.066  29.097   6.153
10438POPC   C1A68739  43.144  29.113   6.453
10438POPC   D2A68740  43.123  29.111   6.753
10438POPC   C3A68741  43.078  29.112   7.053
10438POPC   C4A68742  43.154  29.157   7.353
10438POPC   C1B68743  42.983  28.943   6.453
10438POPC   C2B68744  42.970  28.978   6.753
10438POPC   C3B68745  42.974  29.002   7.053
10438POPC   C4B68746  42.987  28.924   7.353
10439POPC   NC368747  43.912   4.290   5.553
10439POPC   PO468748  43.875   4.365   5.853
10439POPC   GL168749  43.923   4.312   6.153
10439POPC   GL268750  43.848   4.164   6.153
10439POPC   C1A68751  43.838   4.270   6.453
10439POPC   D2A68752  43.838   4.340   6.753
10439POPC   C3A68753  43.852   4.361   7.053
10439POPC   C4A68754  43.934   4.360   7.353
10439POPC   C1B68755  43.737   4.090   6.453
10439POPC   C2B68756  43.717   4.070   6.753
10439POPC   C3B68757  43.745   4.106   7.053
10439POPC   C4B68758  43.792   4.113   7.353
10440POPC   NC368759  37.693  21.374   5.553
10440POPC   PO468760  37.693  21.431   5.853
10440POPC   GL168761  37.650  21.435   6.153
10440POPC   GL268762  37.641  21.495   6.153
10440POPC   C1A68763  37.679  21.380   6.453
10440POPC   D2A68764  37.691  21.392   6.753
10440POPC   C3A68765  37.658  21.362   7.053
10440POPC   C4A68766  37.631  21.380   7.353
10440POPC   C1B68767  37.681  21.669   6.453
10440POPC   C2B68768  37.626  21.604   6.753
10440POPC   C3B68769  37.681  21.632   7.053
10440POPC   C4B68770  37.636  21.625   7.353
10441POPC   NC368771  29.890  42.286   5.553
10441POPC   PO468772  29.929  42.335   5.853
10441POPC   GL168773  29.944  42.383   6.153
10441POPC   GL268774  29.796  42.259   6.153
10441POPC   C1A68775  29.931  42.345   6.453
10441POPC   D2A68776  29.955  42.316   6.753
10441POPC   C3A68777  29.900  42.294   7.053
10441POPC   C4A68778  29.878  42.329   7.353
10441POPC   C1B68779  29.685  42.181   6.453
10441POPC   C2B68780  29.715  42.222   6.753
10441POPC   C3B68781  29.698  42.143   7.053
10441POPC   C4B68782  29.765  42.175   7.353
10442POPC   NC368783  40.775  18.305   5.553
10442POPC   PO468784  40.821  18.240   5.853
10442POPC   GL168785  40.774  18.257   6.153
10442POPC   GL268786  40.748  18.407   6.153
10442POPC   C1A68787  40.764  18.320   6.453
10442POPC   D2A68788  40.751  18.323   6.753
10442POPC   C3A68789  40.797  18.314   7.053
10442POPC   C4A68790  40.801  18.314   7.353
10442POPC   C1B68791  40.792  18.542   6.453
10442POPC   C2B68792  40.772  18.579   6.753
10442POPC   C3B68793  40.793  18.494   7.053
10442POPC   C4B68794  40.822  18.548   7.353
10443POPC   NC368795  26.822  16.740   5.553
10443POPC   PO468796  26.852  16.753   5.853
10443POPC   GL168797  26.823  16.697   6.153
10443POPC   GL268798  26.896  16.857   6.153
10443POPC   C1A68799  26.858  16.730   6.453
10443POPC   D2A68800  26.847  16.718   6.753
10443POPC   C3A68801  26.789  16.712   7.053
10443POPC   C4A68802  26.834  16.701   7.353
10443POPC   C1B68803  26.975  16.930   6.453
10443POPC   C2B68804  26.976  16.910   6.753
10443POPC   C3B68805  26.925  16.944   7.053
10443POPC   C4B68806  26.901  16.946   7.353
10444POPC   NC368807  16.689  18.309   5.553
10444POPC   PO468808  16.768  18.254   5.853
10444POPC   GL168809  16.760  18.239   6.153
10444POPC   GL268810  16.731  18.183   6.153
10444POPC   C1A68811  16.774  18.332   6.453
10444POPC   D2A68812  16.687  18.247   6.753
10444POPC   C3A68813  16.716  18.243   7.053
10444POPC   C4A68814  16.727  18.267   7.353
10444POPC   C1B68815  16.751  18.022   6.453
10444POPC   C2B68816  16.707  18.036   6.753
10444POPC   C3B68817  16.700  17.985   7.053
10444POPC   C4B68818  16.689  18.006   7.353
10445POPC   NC368819  16.759  34.589   5.553
10445POPC   PO468820  16.691  34.588   5.853
10445POPC   GL168821  16.734  34.539   6.153
10445POPC   GL268822  16.826  34.527   6.153
10445POPC   C1A68823  16.750  34.537   6.453
10445POPC   D2A68824  16.726  34.623   6.753
10445POPC   C3A68825  16.701  34.532   7.053
10445POPC   C4A68826  16.705  34.551   7.353
10445POPC   C1B68827  16.964  34.579   6.453
10445POPC   C2B68828  16.960  34.529   6.753
10445POPC   C3B68829  16.990  34.550   7.053
10445POPC   C4B68830  16.934  34.590   7.353
10446POPC   NC368831   1.257   8.173   5.553
10446POPC   PO468832   1.233   8.190   5.853
10446POPC   GL168833   1.229   8.149   6.153
10446POPC   GL268834   1.088   8.162   6.153
10446POPC   C1A68835   1.173   8.193   6.453
10446POPC   D2A68836   1.201   8.204   6.753
10446POPC   C3A68837   1.187   8.155   7.053
10446POPC   C4A68838   1.167   8.187   7.353
10446POPC   C1B68839   0.925   8.096   6.453
10446POPC   C2B68840   1.004   8.136   6.753
10446POPC   C3B68841   0.947   8.111   7.053
10446POPC   C4B68842   0.963   8.101   7.353
10447POPC   NC368843  26.786  19.790   5.553
10447POPC   PO468844  26.819  19.847   5.853
10447POPC   GL168845  26.844  19.846   6.153
10447POPC   GL268846  26.885  19.870   6.153
10447POPC   C1A68847  26.792  19.820   6.453
10447POPC   D2A68848  26.822  19.841   6.753
10447POPC   C3A68849  26.796  19.858   7.053
10447POPC   C4A68850  26.854  19.800   7.353
10447POPC   C1B68851  27.000  19.960   6.453
10447POPC   C2B68852  27.088  19.907   6.753
10447POPC   C3B68853  27.032  19.900   7.053
10447POPC   C4B68854  27.043  19.897   7.353
10448POPC   NC368855  22.966   5.095   5.553
10448POPC   PO468856  22.964   5.115   5.853
10448POPC   GL168857  22.894   5.046   6.153
10448POPC   GL268858  22.904   5.189   6.153
10448POPC   C1A68859  22.897   5.080   6.453
10448POPC   D2A68860  22.968   5.131   6.753
10448POPC   C3A68861  22.987   5.046   7.053
10448POPC   C4A68862  22.969   5.103   7.353
10448POPC   C1B68863  22.867   5.319   6.453
10448POPC   C2B68864  22.841   5.324   6.753
10448POPC   C3B68865  22.801   5.319   7.053
10448POPC   C4B68866  22.796   5.284   7.353
10449POPC   NC368867  29.120  44.666   5.553
10449POPC   PO468868  29.097  44.623   5.853
10449POPC   GL168869  29.117  44.708   6.153
10449POPC   GL268870  29.057  44.652   6.153
10449POPC   C1A68871  29.134  44.630   6.453
10449POPC   D2A68872  29.171  44.684   6.753
10449POPC   C3A68873  29.145  44.677   7.053
10449POPC   C4A68874  29.141  44.620   7.353
10449POPC   C1B68875  28.918  44.590   6.453
10449POPC   C2B68876  28.949  44.590   6.753
10449POPC   C3B68877  28.918  44.595   7.053
10449POPC   C4B68878  28.943  44.588   7.353
10450POPC   NC368879  33.818  41.554   5.553
10450POPC   PO468880  33.787  41.514   5.853
10450POPC   GL168881  33.805  41.588   6.153
10450POPC   GL268882  33.674  41.530   6.153
10450POPC   C1A68883  33.767  41.567   6.453
10450POPC   D2A68884  33.843  41.542   6.753
10450POPC   C3A68885  33.836  41.602   7.053
10450POPC   C4A68886  33.832  41.538   7.353
10450POPC   C1B68887  33.509  41.511   6.453
10450POPC   C2B68888  33.574  41.490   6.753
10450POPC   C3B68889  33.587  41.485   7.053
10450POPC   C4B68890  33.548  41.558   7.353
10451POPC   NC368891  22.121  29.954   5.553
10451POPC   PO468892  22.168  29.966   5.853
10451POPC   GL168893  22.178  29.886   6.153
10451POPC   GL268894  22.323  29.895   6.153
10451POPC   C1A68895  22.180  29.876   6.453
10451POPC   D2A68896  22.155  29.941   6.753
10451POPC   C3A68897  22.144  29.924   7.053
10451POPC   C4A68898  22.125  29.966   7.353
10451POPC   C1B68899  22.381  29.836   6.453
10451POPC   C2B68900  22.421  29.820   6.753
10451POPC   C3B68901  22.439  29.823   7.053
10451POPC   C4B68902  22.397  29.815   7.353
10452POPC   NC368903   8.165   8.990   5.553
10452POPC   PO468904   8.187   9.020   5.853
10452POPC   GL168905   8.173   9.001   6.153
10452POPC   GL268906   8.265   8.975   6.153
10452POPC   C1A68907   8.217   8.969   6.453
10452POPC   D2A68908   8.222   8.975   6.753
10452POPC   C3A68909   8.171   9.010   7.053
10452POPC   C4A68910   8.213   9.017   7.353
10452POPC   C1B68911   8.421   9.031   6.453
10452POPC   C2B68912   8.476   9.031   6.753
10452POPC   C3B68913   8.416   9.097   7.053
10452POPC   C4B68914   8.416   9.021   7.353
10453POPC   NC368915  15.144  35.382   5.553
10453POPC   PO468916  15.164  35.353   5.853
10453POPC   GL168917  15.175  35.359   6.153
10453POPC   GL268918  15.076  35.477   6.153
10453POPC   C1A68919  15.204  35.345   6.453
10453POPC   D2A68920  15.164  35.392   6.753
10453POPC   C3A68921  15.164  35.380   7.053
10453POPC   C4A68922  15.223  35.311   7.353
10453POPC   C1B68923  15.067  35.532   6.453
10453POPC   C2B68924  15.092  35.590   6.753
10453POPC   C3B68925  15.067  35.559   7.053
10453POPC   C4B68926  15.008  35.594   7.353
10454POPC   NC368927  41.583  20.590   5.553
10454POPC   PO468928  41.594  20.571   5.853
10454POPC   GL168929  41.577  20.599   6.153
10454POPC   GL268930  41.570  20.448   6.153
10454POPC   C1A68931  41.598  20.608   6.453
10454POPC   D2A68932  41.579  20.587   6.753
10454POPC   C3A68933  41.573  20.584   7.053
10454POPC   C4A68934  41.602  20.618   7.353
10454POPC   C1B68935  41.554  20.404   6.453
10454POPC   C2B68936  41.599  20.370   6.753
10454POPC   C3B68937  41.596  20.380   7.053
10454POPC   C4B68938  41.635  20.390   7.353
10455POPC   NC368939  24.477  25.284   5.553
10455POPC   PO468940  24.528  25.274   5.853
10455POPC   GL168941  24.517  25.306   6.153
10455POPC   GL268942  24.363  25.198   6.153
10455POPC   C1A68943  24.509  25.218   6.453
10455POPC   D2A68944  24.473  25.289   6.753
10455POPC   C3A68945  24.460  25.306   7.053
10455POPC   C4A68946  24.442  25.250   7.353
10455POPC   C1B68947  24.217  25.238   6.453
10455POPC   C2B68948  24.278  25.211   6.753
10455POPC   C3B68949  24.247  25.214   7.053
10455POPC   C4B68950  24.236  25.176   7.353
10456POPC   NC368951  36.103  33.038   5.553
10456POPC   PO468952  36.158  33.039   5.853
10456POPC   GL168953  36.165  33.064   6.153
10456POPC   GL268954  36.013  33.090   6.153
10456POPC   C1A68955  36.082  32.993   6.453
10456POPC   D2A68956  36.119  33.011   6.753
10456POPC   C3A68957  36.163  33.036   7.053
10456POPC   C4A68958  36.109  33.072   7.353
10456POPC   C1B68959  35.900  33.196   6.453
10456POPC   C2B68960  35.881  33.158   6.753
10456POPC   C3B68961  35.938  33.180   7.053
10456POPC   C4B68962  35.904  33.138   7.353
10457POPC   NC368963  13.609   1.961   5.553
10457POPC   PO468964  13.605   2.002   5.853
10457POPC   GL168965  13.588   2.033   6.153
10457POPC   GL268966  13.530   1.926   6.153
10457POPC   C1A68967  13.658   1.987   6.453
10457POPC   D2A68968  13.584   2.036   6.753
10457POPC   C3A68969  13.653   1.950   7.053
10457POPC   C4A68970  13.584   2.016   7.353
10457POPC   C1B68971  13.520   1.817   6.453
10457POPC   C2B68972  13.545   1.775   6.753
10457POPC   C3B68973  13.477   1.754   7.053
10457POPC   C4B68974  13.463   1.820   7.353
10458POPC   NC368975  25.228   5.841   5.553
10458POPC   PO468976  25.270   5.886   5.853
10458POPC   GL168977  25.248   5.919   6.153
10458POPC   GL268978  25.138   5.779   6.153
10458POPC   C1A68979  25.273   5.878   6.453
10458POPC   D2A68980  25.223   5.830   6.753
10458POPC   C3A68981  25.225   5.879   7.053
10458POPC   C4A68982  25.304   5.823   7.353
10458POPC   C1B68983  25.101   5.764   6.453
10458POPC   C2B68984  25.068   5.762   6.753
10458POPC   C3B68985  25.029   5.707   7.053
10458POPC   C4B68986  25.037   5.685   7.353
10459POPC   NC368987  28.348   1.225   5.553
10459POPC   PO468988  28.396   1.188   5.853
10459POPC   GL168989  28.371   1.235   6.153
10459POPC   GL268990  28.392   1.347   6.153
10459POPC   C1A68991  28.358   1.177   6.453
10459POPC   D2A68992  28.393   1.189   6.753
10459POPC   C3A68993  28.362   1.239   7.053
10459POPC   C4A68994  28.377   1.259   7.353
10459POPC   C1B68995  28.483   1.412   6.453
10459POPC   C2B68996  28.489   1.404   6.753
10459POPC   C3B68997  28.495   1.466   7.053
10459POPC   C4B68998  28.437   1.415   7.353
10460POPC   NC368999   7.400   4.348   5.553
10460POPC   PO469000   7.461   4.273   5.853
10460POPC   GL169001   7.461   4.298   6.153
10460POPC   GL269002   7.379   4.425   6.153
10460POPC   C1A69003   7.435   4.300   6.453
10460POPC   D2A69004   7.451   4.303   6.753
10460POPC   C3A69005   7.443   4.288   7.053
10460POPC   C4A69006   7.410   4.295   7.353
10460POPC   C1B69007   7.285   4.549   6.453
10460POPC   C2B69008   7.288   4.540   6.753
10460POPC   C3B69009   7.265   4.521   7.053
10460POPC   C4B69010   7.213   4.534   7.353
10461POPC   NC369011   2.002   8.997   5.553
10461POPC   PO469012   1.956   8.985   5.853
10461POPC   GL169013   1.943   8.958   6.153
10461POPC   GL269014   1.976   8.811   6.153
10461POPC   C1A69015   1.989   8.968   6.453
10461POPC   D2A69016   1.948   8.967   6.753
10461POPC   C3A69017   1.948   9.012   7.053
10461POPC   C4A69018   2.036   8.982   7.353
10461POPC   C1B69019   1.978   8.696   6.453
10461POPC   C2B69020   1.887   8.680   6.753
10461POPC   C3B69021   1.937   8.749   7.053
10461POPC   C4B69022   1.913   8.706   7.353
10462POPC   NC369023  42.293  43.840   5.553
10462POPC   PO469024  42.365  43.887   5.853
10462POPC   GL169025  42.311  43.877   6.153
10462POPC   GL269026  42.313  44.033   6.153
10462POPC   C1A69027  42.379  43.851   6.453
10462POPC   D2A69028  42.372  43.846   6.753
10462POPC   C3A69029  42.345  43.874   7.053
10462POPC   C4A69030  42.329  43.882   7.353
10462POPC   C1B69031  42.362  44.102   6.453
10462POPC   C2B69032  42.437  44.096   6.753
10462POPC   C3B69033  42.435  44.111   7.053
10462POPC   C4B69034  42.414  44.146   7.353
10463POPC   NC369035  35.316  35.349   5.553
10463POPC   PO469036  35.325  35.334   5.853
10463POPC   GL169037  35.319  35.316   6.153
10463POPC   GL269038  35.211  35.408   6.153
10463POPC   C1A69039  35.388  35.356   6.453
10463POPC   D2A69040  35.375  35.353   6.753
10463POPC   C3A69041  35.357  35.326   7.053
10463POPC   C4A69042  35.387  35.303   7.353
10463POPC   C1B69043  35.091  35.428   6.453
10463POPC   C2B69044  35.139  35.474   6.753
10463POPC   C3B69045  35.171  35.404   7.053
10463POPC   C4B69046  35.117  35.429   7.353
10464POPC   NC369047  36.129   9.776   5.553
10464POPC   PO469048  36.100   9.733   5.853
10464POPC   GL169049  36.166   9.746   6.153
10464POPC   GL269050  36.106   9.694   6.153
10464POPC   C1A69051  36.145   9.713   6.453
10464POPC   D2A69052  36.098   9.757   6.753
10464POPC   C3A69053  36.091   9.759   7.053
10464POPC   C4A69054  36.167   9.715   7.353
10464POPC   C1B69055  35.967   9.516   6.453
10464POPC   C2B69056  35.949   9.579   6.753
10464POPC   C3B69057  35.982   9.539   7.053
10464POPC   C4B69058  35.956   9.530   7.353
10465POPC   NC369059  17.462  26.794   5.553
10465POPC   PO469060  17.536  26.850   5.853
10465POPC   GL169061  17.515  26.776   6.153
10465POPC   GL269062  17.410  26.872   6.153
10465POPC   C1A69063  17.484  26.816   6.453
10465POPC   D2A69064  17.504  26.857   6.753
10465POPC   C3A69065  17.535  26.820   7.053
10465POPC   C4A69066  17.464  26.863   7.353
10465POPC   C1B69067  17.329  26.962   6.453
10465POPC   C2B69068  17.279  26.924   6.753
10465POPC   C3B69069  17.322  26.981   7.053
10465POPC   C4B69070  17.343  26.972   7.353
10466POPC   NC369071  32.220  43.127   5.553
10466POPC   PO469072  32.250  43.151   5.853
10466POPC   GL169073  32.283  43.067   6.153
10466POPC   GL269074  32.275  43.027   6.153
10466POPC   C1A69075  32.217  43.134   6.453
10466POPC   D2A69076  32.254  43.091   6.753
10466POPC   C3A69077  32.243  43.118   7.053
10466POPC   C4A69078  32.230  43.091   7.353
10466POPC   C1B69079  32.360  42.844   6.453
10466POPC   C2B69080  32.342  42.893   6.753
10466POPC   C3B69081  32.368  42.913   7.053
10466POPC   C4B69082  32.389  42.860   7.353
10467POPC   NC369083  33.848   3.564   5.553
10467POPC   PO469084  33.814   3.520   5.853
10467POPC   GL169085  33.770   3.586   6.153
10467POPC   GL269086  33.742   3.658   6.153
10467POPC   C1A69087  33.805   3.562   6.453
10467POPC   D2A69088  33.768   3.524   6.753
10467POPC   C3A69089  33.800   3.590   7.053
10467POPC   C4A69090  33.753   3.544   7.353
10467POPC   C1B69091  33.684   3.699   6.453
10467POPC   C2B69092  33.641   3.752   6.753
10467POPC   C3B69093  33.682   3.723   7.053
10467POPC   C4B69094  33.611   3.763   7.353
10468POPC   NC369095   5.048  41.553   5.553
10468POPC   PO469096   5.066  41.520   5.853
10468POPC   GL169097   5.055  41.560   6.153
10468POPC   GL269098   4.949  41.660   6.153
10468POPC   C1A69099   5.058  41.528   6.453
10468POPC   D2A69100   5.142  41.518   6.753
10468POPC   C3A69101   5.053  41.523   7.053
10468POPC   C4A69102   5.139  41.583   7.353
10468POPC   C1B69103   4.886  41.677   6.453
10468POPC   C2B69104   4.923  41.753   6.753
10468POPC   C3B69105   4.912  41.748   7.053
10468POPC   C4B69106   4.856  41.719   7.353
10469POPC   NC369107  19.817  15.210   5.553
10469POPC   PO469108  19.806  15.219   5.853
10469POPC   GL169109  19.843  15.218   6.153
10469POPC   GL269110  19.896  15.261   6.153
10469POPC   C1A69111  19.804  15.197   6.453
10469POPC   D2A69112  19.884  15.201   6.753
10469POPC   C3A69113  19.809  15.222   7.053
10469POPC   C4A69114  19.797  15.188   7.353
10469POPC   C1B69115  19.978  15.426   6.453
10469POPC   C2B69116  19.956  15.350   6.753
10469POPC   C3B69117  20.006  15.408   7.053
10469POPC   C4B69118  20.013  15.346   7.353
10470POPC   NC369119   7.435  18.281   5.553
10470POPC   PO469120   7.450  18.242   5.853
10470POPC   GL169121   7.440  18.318   6.153
10470POPC   GL269122   7.468  18.171   6.153
10470POPC   C1A69123   7.414  18.246   6.453
10470POPC   D2A69124   7.371  18.289   6.753
10470POPC   C3A69125   7.428  18.292   7.053
10470POPC   C4A69126   7.459  18.274   7.353
10470POPC   C1B69127   7.564  18.031   6.453
10470POPC   C2B69128   7.525  18.087   6.753
10470POPC   C3B69129   7.563  18.091   7.053
10470POPC   C4B69130   7.496  18.082   7.353
10471POPC   NC369131  34.530  12.099   5.553
10471POPC   PO469132  34.564  12.121   5.853
10471POPC   GL169133  34.609  12.045   6.153
10471POPC   GL269134  34.453  12.056   6.153
10471POPC   C1A69135  34.558  12.100   6.453
10471POPC   D2A69136  34.583  12.122   6.753
10471POPC   C3A69137  34.560  12.095   7.053
10471POPC   C4A69138  34.561  12.096   7.353
10471POPC   C1B69139  34.324  11.978   6.453
10471POPC   C2B69140  34.281  11.995   6.753
10471POPC   C3B69141  34.311  11.997   7.053
10471POPC   C4B69142  34.346  11.990   7.353
10472POPC   NC369143  23.735  15.158   5.553
10472POPC   PO469144  23.677  15.213   5.853
10472POPC   GL169145  23.665  15.147   6.153
10472POPC   GL269146  23.590  15.259   6.153
10472POPC   C1A69147  23.714  15.197   6.453
10472POPC   D2A69148  23.739  15.184   6.753
10472POPC   C3A69149  23.734  15.174   7.053
10472POPC   C4A69150  23.697  15.156   7.353
10472POPC   C1B69151  23.492  15.254   6.453
10472POPC   C2B69152  23.426  15.288   6.753
10472POPC   C3B69153  23.428  15.203   7.053
10472POPC   C4B69154  23.476  15.253   7.353
10473POPC   NC369155  12.871  16.768   5.553
10473POPC   PO469156  12.813  16.693   5.853
10473POPC   GL169157  12.876  16.739   6.153
10473POPC   GL269158  12.710  16.767   6.153
10473POPC   C1A69159  12.877  16.698   6.453
10473POPC   D2A69160  12.842  16.746   6.753
10473POPC   C3A69161  12.874  16.681   7.053
10473POPC   C4A69162  12.807  16.711   7.353
10473POPC   C1B69163  12.577  16.796   6.453
10473POPC   C2B69164  12.596  16.875   6.753
10473POPC   C3B69165  12.578  16.818   7.053
10473POPC   C4B69166  12.624  16.831   7.353
10474POPC   NC369167   6.686  18.260   5.553
10474POPC   PO469168   6.619  18.279   5.853
10474POPC   GL169169   6.612  18.264   6.153
10474POPC   GL269170   6.643  18.392   6.153
10474POPC   C1A69171   6.628  18.285   6.453
10474POPC   D2A69172   6.683  18.290   6.753
10474POPC   C3A69173   6.615  18.293   7.053
10474POPC   C4A69174   6.631  18.309   7.353
10474POPC   C1B69175   6.584  18.533   6.453
10474POPC   C2B69176   6.599  18.499   6.753
10474POPC   C3B69177   6.580  18.515   7.053
10474POPC   C4B69178   6.546  18.500   7.353
10475POPC   NC369179   6.683  16.746   5.553
10475POPC   PO469180   6.652  16.693   5.853
10475POPC   GL169181   6.624  16.717   6.153
10475POPC   GL269182   6.726  16.783   6.153
10475POPC   C1A69183   6.682  16.738   6.453
10475POPC   D2A69184   6.675  16.699   6.753
10475POPC   C3A69185   6.609  16.738   7.053
10475POPC   C4A69186   6.686  16.778   7.353
10475POPC   C1B69187   6.862  16.864   6.453
10475POPC   C2B69188   6.923  16.785   6.753
10475POPC   C3B69189   6.855  16.781   7.053
10475POPC   C4B69190   6.891  16.847   7.353
10476POPC   NC369191  43.105  34.554   5.553
10476POPC   PO469192  43.130  34.552   5.853
10476POPC   GL169193  43.144  34.595   6.153
10476POPC   GL269194  42.978  34.585   6.153
10476POPC   C1A69195  43.159  34.607   6.453
10476POPC   D2A69196  43.119  34.548   6.753
10476POPC   C3A69197  43.101  34.620   7.053
10476POPC   C4A69198  43.115  34.572   7.353
10476POPC   C1B69199  42.876  34.553   6.453
10476POPC   C2B69200  42.899  34.572   6.753
10476POPC   C3B69201  42.829  34.563   7.053
10476POPC   C4B69202  42.885  34.556   7.353
10477POPC   NC369203   7.430  37.667   5.553
10477POPC   PO469204   7.441  37.715   5.853
10477POPC   GL169205   7.426  37.707   6.153
10477POPC   GL269206   7.417  37.541   6.153
10477POPC   C1A69207   7.422  37.720   6.453
10477POPC   D2A69208   7.392  37.720   6.753
10477POPC   C3A69209   7.470  37.674   7.053
10477POPC   C4A69210   7.436  37.716   7.353
10477POPC   C1B69211   7.445  37.399   6.453
10477POPC   C2B69212   7.446  37.388   6.753
10477POPC   C3B69213   7.482  37.451   7.053
10477POPC   C4B69214   7.426  37.446   7.353
10478POPC   NC369215  28.328  16.775   5.553
10478POPC   PO469216  28.374  16.747   5.853
10478POPC   GL169217  28.355  16.778   6.153
10478POPC   GL269218  28.345  16.614   6.153
10478POPC   C1A69219  28.346  16.754   6.453
10478POPC   D2A69220  28.408  16.703   6.753
10478POPC   C3A69221  28.354  16.709   7.053
10478POPC   C4A69222  28.407  16.717   7.353
10478POPC   C1B69223  28.248  16.550   6.453
10478POPC   C2B69224  28.311  16.526   6.753
10478POPC   C3B69225  28.243  16.544   7.053
10478POPC   C4B69226  28.307  16.540   7.353
10479POPC   NC369227  24.480  43.120   5.553
10479POPC   PO469228  24.466  43.097   5.853
10479POPC   GL169229  24.489  43.082   6.153
10479POPC   GL269230  24.598  43.113   6.153
10479POPC   C1A69231  24.487  43.100   6.453
10479POPC   D2A69232  24.462  43.092   6.753
10479POPC   C3A69233  24.525  43.078   7.053
10479POPC   C4A69234  24.453  43.101   7.353
10479POPC   C1B69235  24.735  43.073   6.453
10479POPC   C2B69236  24.701  43.066   6.753
10479POPC   C3B69237  24.765  43.054   7.053
10479POPC   C4B69238  24.778  43.042   7.353
10480POPC   NC369239  44.640  22.922   5.553
10480POPC   PO469240  44.670  22.899   5.853
10480POPC   GL169241  44.707  22.929   6.153
10480POPC   GL269242  44.796  22.822   6.153
10480POPC   C1A69243  44.618  22.965   6.453
10480POPC   D2A69244  44.634  22.913   6.753
10480POPC   C3A69245  44.705  22.911   7.053
10480POPC   C4A69246  44.677  22.987   7.353
10480POPC   C1B69247  44.887  22.839   6.453
10480POPC   C2B69248  44.831  22.804   6.753
10480POPC   C3B69249  44.896  22.833   7.053
10480POPC   C4B69250  44.823  22.793   7.353
10481POPC   NC369251  13.655  12.835   5.553
10481POPC   PO469252  13.633  12.853   5.853
10481POPC   GL169253  13.638  12.861   6.153
10481POPC   GL269254  13.497  12.850   6.153
10481POPC   C1A69255  13.646  12.835   6.453
10481POPC   D2A69256  13.660  12.831   6.753
10481POPC   C3A69257  13.616  12.889   7.053
10481POPC   C4A69258  13.671  12.880   7.353
10481POPC   C1B69259  13.340  12.807   6.453
10481POPC   C2B69260  13.373  12.840   6.753
10481POPC   C3B69261  13.396  12.778   7.053
10481POPC   C4B69262  13.380  12.782   7.353
10482POPC   NC369263   9.740  26.028   5.553
10482POPC   PO469264   9.743  26.006   5.853
10482POPC   GL169265   9.785  26.059   6.153
10482POPC   GL269266   9.873  26.108   6.153
10482POPC   C1A69267   9.709  25.992   6.453
10482POPC   D2A69268   9.782  26.083   6.753
10482POPC   C3A69269   9.797  26.046   7.053
10482POPC   C4A69270   9.717  26.063   7.353
10482POPC   C1B69271   9.987  26.128   6.453
10482POPC   C2B69272  10.007  26.207   6.753
10482POPC   C3B69273  10.014  26.202   7.053
10482POPC   C4B69274   9.981  26.172   7.353
10483POPC   NC369275   2.721  31.507   5.553
10483POPC   PO469276   2.796  31.478   5.853
10483POPC   GL169277   2.741  31.495   6.153
10483POPC   GL269278   2.800  31.624   6.153
10483POPC   C1A69279   2.791  31.471   6.453
10483POPC   D2A69280   2.731  31.450   6.753
10483POPC   C3A69281   2.810  31.497   7.053
10483POPC   C4A69282   2.805  31.437   7.353
10483POPC   C1B69283   2.713  31.745   6.453
10483POPC   C2B69284   2.733  31.672   6.753
10483POPC   C3B69285   2.746  31.675   7.053
10483POPC   C4B69286   2.745  31.700   7.353
10484POPC   NC369287  22.924  15.197   5.553
10484POPC   PO469288  22.911  15.219   5.853
10484POPC   GL169289  22.932  15.198   6.153
10484POPC   GL269290  22.958  15.059   6.153
10484POPC   C1A69291  22.959  15.223   6.453
10484POPC   D2A69292  22.951  15.190   6.753
10484POPC   C3A69293  22.922  15.165   7.053
10484POPC   C4A69294  22.903  15.163   7.353
10484POPC   C1B69295  23.098  14.923   6.453
10484POPC   C2B69296  23.064  14.952   6.753
10484POPC   C3B69297  23.053  15.000   7.053
10484POPC   C4B69298  23.118  14.997   7.353
10485POPC   NC369299  20.614  39.260   5.553
10485POPC   PO469300  20.644  39.196   5.853
10485POPC   GL169301  20.582  39.256   6.153
10485POPC   GL269302  20.500  39.134   6.153
10485POPC   C1A69303  20.563  39.188   6.453
10485POPC   D2A69304  20.632  39.262   6.753
10485POPC   C3A69305  20.589  39.230   7.053
10485POPC   C4A69306  20.606  39.223   7.353
10485POPC   C1B69307  20.357  39.128   6.453
10485POPC   C2B69308  20.401  39.098   6.753
10485POPC   C3B69309  20.430  39.057   7.053
10485POPC   C4B69310  20.356  39.128   7.353
10486POPC   NC369311  22.951  29.154   5.553
10486POPC   PO469312  22.897  29.131   5.853
10486POPC   GL169313  22.987  29.127   6.153
10486POPC   GL269314  22.972  29.247   6.153
10486POPC   C1A69315  22.981  29.161   6.453
10486POPC   D2A69316  22.945  29.189   6.753
10486POPC   C3A69317  22.937  29.126   7.053
10486POPC   C4A69318  22.892  29.192   7.353
10486POPC   C1B69319  23.028  29.348   6.453
10486POPC   C2B69320  23.008  29.378   6.753
10486POPC   C3B69321  23.061  29.369   7.053
10486POPC   C4B69322  23.077  29.374   7.353
10487POPC   NC369323   2.730   3.571   5.553
10487POPC   PO469324   2.732   3.583   5.853
10487POPC   GL169325   2.717   3.537   6.153
10487POPC   GL269326   2.878   3.459   6.153
10487POPC   C1A69327   2.763   3.511   6.453
10487POPC   D2A69328   2.796   3.523   6.753
10487POPC   C3A69329   2.788   3.574   7.053
10487POPC   C4A69330   2.782   3.537   7.353
10487POPC   C1B69331   2.983   3.377   6.453
10487POPC   C2B69332   2.963   3.430   6.753
10487POPC   C3B69333   2.996   3.356   7.053
10487POPC   C4B69334   2.958   3.350   7.353
10488POPC   NC369335   7.461  22.936   5.553
10488POPC   PO469336   7.433  22.928   5.853
10488POPC   GL169337   7.427  22.942   6.153
10488POPC   GL269338   7.363  22.860   6.153
10488POPC   C1A69339   7.385  22.979   6.453
10488POPC   D2A69340   7.424  22.925   6.753
10488POPC   C3A69341   7.390  22.934   7.053
10488POPC   C4A69342   7.397  22.933   7.353
10488POPC   C1B69343   7.348  22.748   6.453
10488POPC   C2B69344   7.270  22.761   6.753
10488POPC   C3B69345   7.293  22.684   7.053
10488POPC   C4B69346   7.315  22.670   7.353
10489POPC   NC369347  33.790  38.504   5.553
10489POPC   PO469348  33.789  38.482   5.853
10489POPC   GL169349  33.794  38.455   6.153
10489POPC   GL269350  33.890  38.516   6.153
10489POPC   C1A69351  33.813  38.489   6.453
10489POPC   D2A69352  33.769  38.440   6.753
10489POPC   C3A69353  33.755  38.486   7.053
10489POPC   C4A69354  33.781  38.431   7.353
10489POPC   C1B69355  33.968  38.653   6.453
10489POPC   C2B69356  33.975  38.649   6.753
10489POPC   C3B69357  33.919  38.641   7.053
10489POPC   C4B69358  33.949  38.662   7.353
10490POPC   NC369359   1.940  21.362   5.553
10490POPC   PO469360   2.023  21.362   5.853
10490POPC   GL169361   2.026  21.408   6.153
10490POPC   GL269362   2.088  21.349   6.153
10490POPC   C1A69363   1.952  21.411   6.453
10490POPC   D2A69364   2.010  21.348   6.753
10490POPC   C3A69365   1.978  21.338   7.053
10490POPC   C4A69366   1.952  21.403   7.353
10490POPC   C1B69367   2.220  21.181   6.453
10490POPC   C2B69368   2.194  21.222   6.753
10490POPC   C3B69369   2.195  21.240   7.053
10490POPC   C4B69370   2.215  21.200   7.353
10491POPC   NC369371  13.608  36.133   5.553
10491POPC   PO469372  13.578  36.170   5.853
10491POPC   GL169373  13.634  36.168   6.153
10491POPC   GL269374  13.778  36.078   6.153
10491POPC   C1A69375  13.614  36.100   6.453
10491POPC   D2A69376  13.664  36.132   6.753
10491POPC   C3A69377  13.635  36.177   7.053
10491POPC   C4A69378  13.657  36.132   7.353
10491POPC   C1B69379  13.830  36.009   6.453
10491POPC   C2B69380  13.850  36.086   6.753
10491POPC   C3B69381  13.847  36.019   7.053
10491POPC   C4B69382  13.875  36.084   7.353
10492POPC   NC369383  29.142  19.786   5.553
10492POPC   PO469384  29.163  19.874   5.853
10492POPC   GL169385  29.132  19.821   6.153
10492POPC   GL269386  29.022  19.771   6.153
10492POPC   C1A69387  29.126  19.840   6.453
10492POPC   D2A69388  29.172  19.837   6.753
10492POPC   C3A69389  29.119  19.865   7.053
10492POPC   C4A69390  29.160  19.852   7.353
10492POPC   C1B69391  28.896  19.764   6.453
10492POPC   C2B69392  28.973  19.763   6.753
10492POPC   C3B69393  28.907  19.715   7.053
10492POPC   C4B69394  28.880  19.687   7.353
10493POPC   NC369395   3.545   6.643   5.553
10493POPC   PO469396   3.577   6.673   5.853
10493POPC   GL169397   3.582   6.604   6.153
10493POPC   GL269398   3.562   6.747   6.153
10493POPC   C1A69399   3.536   6.619   6.453
10493POPC   D2A69400   3.494   6.668   6.753
10493POPC   C3A69401   3.573   6.645   7.053
10493POPC   C4A69402   3.533   6.667   7.353
10493POPC   C1B69403   3.497   6.905   6.453
10493POPC   C2B69404   3.474   6.872   6.753
10493POPC   C3B69405   3.534   6.885   7.053
10493POPC   C4B69406   3.501   6.906   7.353
10494POPC   NC369407   4.288  43.151   5.553
10494POPC   PO469408   4.311  43.123   5.853
10494POPC   GL169409   4.279  43.153   6.153
10494POPC   GL269410   4.385  43.191   6.153
10494POPC   C1A69411   4.321  43.076   6.453
10494POPC   D2A69412   4.362  43.156   6.753
10494POPC   C3A69413   4.302  43.148   7.053
10494POPC   C4A69414   4.281  43.061   7.353
10494POPC   C1B69415   4.504  43.267   6.453
10494POPC   C2B69416   4.483  43.294   6.753
10494POPC   C3B69417   4.464  43.267   7.053
10494POPC   C4B69418   4.514  43.293   7.353
10495POPC   NC369419  27.637  17.532   5.553
10495POPC   PO469420  27.592  17.507   5.853
10495POPC   GL169421  27.641  17.515   6.153
10495POPC   GL269422  27.654  17.600   6.153
10495POPC   C1A69423  27.564  17.462   6.453
10495POPC   D2A69424  27.590  17.458   6.753
10495POPC   C3A69425  27.568  17.460   7.053
10495POPC   C4A69426  27.631  17.528   7.353
10495POPC   C1B69427  27.801  17.663   6.453
10495POPC   C2B69428  27.752  17.727   6.753
10495POPC   C3B69429  27.750  17.671   7.053
10495POPC   C4B69430  27.807  17.657   7.353
10496POPC   NC369431  24.487  12.102   5.553
10496POPC   PO469432  24.479  12.030   5.853
10496POPC   GL169433  24.525  12.043   6.153
10496POPC   GL269434  24.500  12.006   6.153
10496POPC   C1A69435  24.527  12.058   6.453
10496POPC   D2A69436  24.470  12.105   6.753
10496POPC   C3A69437  24.467  12.027   7.053
10496POPC   C4A69438  24.446  12.075   7.353
10496POPC   C1B69439  24.586  11.888   6.453
10496POPC   C2B69440  24.619  11.822   6.753
10496POPC   C3B69441  24.633  11.802   7.053
10496POPC   C4B69442  24.611  11.811   7.353
10497POPC   NC369443  34.624  14.407   5.553
10497POPC   PO469444  34.604  14.434   5.853
10497POPC   GL169445  34.608  14.368   6.153
10497POPC   GL269446  34.715  14.461   6.153
10497POPC   C1A69447  34.625  14.396   6.453
10497POPC   D2A69448  34.606  14.449   6.753
10497POPC   C3A69449  34.561  14.432   7.053
10497POPC   C4A69450  34.625  14.375   7.353
10497POPC   C1B69451  34.771  14.543   6.453
10497POPC   C2B69452  34.771  14.513   6.753
10497POPC   C3B69453  34.761  14.575   7.053
10497POPC   C4B69454  34.731  14.518   7.353
10498POPC   NC369455  23.698  22.964   5.553
10498POPC   PO469456  23.710  22.907   5.853
10498POPC   GL169457  23.697  22.964   6.153
10498POPC   GL269458  23.809  23.060   6.153
10498POPC   C1A69459  23.718  22.975   6.453
10498POPC   D2A69460  23.688  22.898   6.753
10498POPC   C3A69461  23.755  22.908   7.053
10498POPC   C4A69462  23.719  22.893   7.353
10498POPC   C1B69463  23.842  23.119   6.453
10498POPC   C2B69464  23.863  23.118   6.753
10498POPC   C3B69465  23.823  23.179   7.053
10498POPC   C4B69466  23.860  23.121   7.353
10499POPC   NC369467  12.106  26.816   5.553
10499POPC   PO469468  12.050  26.830   5.853
10499POPC   GL169469  12.030  26.853   6.153
10499POPC   GL269470  12.084  26.664   6.153
10499POPC   C1A69471  12.116  26.844   6.453
10499POPC   D2A69472  12.115  26.823   6.753
10499POPC   C3A69473  12.031  26.799   7.053
10499POPC   C4A69474  12.073  26.812   7.353
10499POPC   C1B69475  12.189  26.561   6.453
10499POPC   C2B69476  12.122  26.627   6.753
10499POPC   C3B69477  12.186  26.535   7.053
10499POPC   C4B69478  12.202  26.533   7.353
10500POPC   NC369479  34.582  20.565   5.553
10500POPC   PO469480  34.592  20.581   5.853
10500POPC   GL169481  34.531  20.590   6.153
10500POPC   GL269482  34.414  20.664   6.153
10500POPC   C1A69483  34.604  20.655   6.453
10500POPC   D2A69484  34.624  20.618   6.753
10500POPC   C3A69485  34.568  20.650   7.053
10500POPC   C4A69486  34.551  20.594   7.353
10500POPC   C1B69487  34.286  20.650   6.453
10500POPC   C2B69488  34.316  20.684   6.753
10500POPC   C3B69489  34.378  20.646   7.053
10500POPC   C4B69490  34.292  20.684   7.353
10501POPC   NC369491  27.588  39.241   5.553
10501POPC   PO469492  27.544  39.231   5.853
10501POPC   GL169493  27.595  39.255   6.153
10501POPC   GL269494  27.478  39.190   6.153
10501POPC   C1A69495  27.599  39.259   6.453
10501POPC   D2A69496  27.573  39.198   6.753
10501POPC   C3A69497  27.635  39.268   7.053
10501POPC   C4A69498  27.608  39.181   7.353
10501POPC   C1B69499  27.346  39.256   6.453
10501POPC   C2B69500  27.298  39.186   6.753
10501POPC   C3B69501  27.295  39.274   7.053
10501POPC   C4B69502  27.349  39.219   7.353
10502POPC   NC369503   2.725  43.074   5.553
10502POPC   PO469504   2.716  43.134   5.853
10502POPC   GL169505   2.773  43.079   6.153
10502POPC   GL269506   2.818  43.207   6.153
10502POPC   C1A69507   2.749  43.096   6.453
10502POPC   D2A69508   2.738  43.146   6.753
10502POPC   C3A69509   2.812  43.140   7.053
10502POPC   C4A69510   2.732  43.159   7.353
10502POPC   C1B69511   2.852  43.394   6.453
10502POPC   C2B69512   2.811  43.308   6.753
10502POPC   C3B69513   2.859  43.387   7.053
10502POPC   C4B69514   2.855  43.336   7.353
10503POPC   NC369515   2.794  35.350   5.553
10503POPC   PO469516   2.804  35.364   5.853
10503POPC   GL169517   2.803  35.307   6.153
10503POPC   GL269518   2.673  35.230   6.153
10503POPC   C1A69519   2.760  35.374   6.453
10503POPC   D2A69520   2.806  35.342   6.753
10503POPC   C3A69521   2.720  35.397   7.053
10503POPC   C4A69522   2.780  35.324   7.353
10503POPC   C1B69523   2.601  35.155   6.453
10503POPC   C2B69524   2.651  35.159   6.753
10503POPC   C3B69525   2.599  35.149   7.053
10503POPC   C4B69526   2.602  35.168   7.353
10504POPC   NC369527  40.017  30.675   5.553
10504POPC   PO469528  39.991  30.746   5.853
10504POPC   GL169529  40.033  30.723   6.153
10504POPC   GL269530  39.961  30.550   6.153
10504POPC   C1A69531  40.027  30.707   6.453
10504POPC   D2A69532  40.026  30.652   6.753
10504POPC   C3A69533  39.965  30.705   7.053
10504POPC   C4A69534  40.009  30.737   7.353
10504POPC   C1B69535  39.922  30.412   6.453
10504POPC   C2B69536  39.981  30.477   6.753
10504POPC   C3B69537  39.931  30.409   7.053
10504POPC   C4B69538  39.941  30.485   7.353
10505POPC   NC369539  11.326  14.368   5.553
10505POPC   PO469540  11.285  14.355   5.853
10505POPC   GL169541  11.274  14.414   6.153
10505POPC   GL269542  11.344  14.547   6.153
10505POPC   C1A69543  11.281  14.363   6.453
10505POPC   D2A69544  11.263  14.390   6.753
10505POPC   C3A69545  11.285  14.365   7.053
10505POPC   C4A69546  11.260  14.388   7.353
10505POPC   C1B69547  11.413  14.604   6.453
10505POPC   C2B69548  11.429  14.656   6.753
10505POPC   C3B69549  11.366  14.607   7.053
10505POPC   C4B69550  11.433  14.581   7.353
10506POPC   NC369551  17.514  41.592   5.553
10506POPC   PO469552  17.523  41.607   5.853
10506POPC   GL169553  17.539  41.521   6.153
10506POPC   GL269554  17.380  41.481   6.153
10506POPC   C1A69555  17.461  41.602   6.453
10506POPC   D2A69556  17.487  41.542   6.753
10506POPC   C3A69557  17.506  41.602   7.053
10506POPC   C4A69558  17.467  41.555   7.353
10506POPC   C1B69559  17.241  41.459   6.453
10506POPC   C2B69560  17.244  41.470   6.753
10506POPC   C3B69561  17.294  41.493   7.053
10506POPC   C4B69562  17.283  41.472   7.353
10507POPC   NC369563  44.631  21.370   5.553
10507POPC   PO469564  44.647  21.354   5.853
10507POPC   GL169565  44.628  21.419   6.153
10507POPC   GL269566  44.586  21.441   6.153
10507POPC   C1A69567  44.694  21.384   6.453
10507POPC   D2A69568  44.709  21.398   6.753
10507POPC   C3A69569  44.706  21.416   7.053
10507POPC   C4A69570  44.676  21.423   7.353
10507POPC   C1B69571  44.516  21.571   6.453
10507POPC   C2B69572  44.503  21.593   6.753
10507POPC   C3B69573  44.523  21.586   7.053
10507POPC   C4B69574  44.480  21.541   7.353
10508POPC   NC369575  22.940  38.478   5.553
10508POPC   PO469576  22.910  38.473   5.853
10508POPC   GL169577  22.946  38.503   6.153
10508POPC   GL269578  22.940  38.613   6.153
10508POPC   C1A69579  22.980  38.491   6.453
10508POPC   D2A69580  22.912  38.425   6.753
10508POPC   C3A69581  22.978  38.442   7.053
10508POPC   C4A69582  22.925  38.483   7.353
10508POPC   C1B69583  22.992  38.677   6.453
10508POPC   C2B69584  23.019  38.722   6.753
10508POPC   C3B69585  22.973  38.672   7.053
10508POPC   C4B69586  23.000  38.686   7.353
10509POPC   NC369587  38.421   3.546   5.553
10509POPC   PO469588  38.497   3.551   5.853
10509POPC   GL169589  38.431   3.504   6.153
10509POPC   GL269590  38.380   3.493   6.153
10509POPC   C1A69591  38.484   3.505   6.453
10509POPC   D2A69592  38.424   3.589   6.753
10509POPC   C3A69593  38.442   3.573   7.053
10509POPC   C4A69594  38.453   3.565   7.353
10509POPC   C1B69595  38.271   3.433   6.453
10509POPC   C2B69596  38.273   3.368   6.753
10509POPC   C3B69597  38.215   3.414   7.053
10509POPC   C4B69598  38.212   3.443   7.353
10510POPC   NC369599  33.005  22.898   5.553
10510POPC   PO469600  33.025  22.937   5.853
10510POPC   GL169601  33.050  22.916   6.153
10510POPC   GL269602  33.018  23.091   6.153
10510POPC   C1A69603  33.002  22.930   6.453
10510POPC   D2A69604  33.005  22.897   6.753
10510POPC   C3A69605  33.047  22.976   7.053
10510POPC   C4A69606  33.057  22.970   7.353
10510POPC   C1B69607  33.143  23.170   6.453
10510POPC   C2B69608  33.134  23.183   6.753
10510POPC   C3B69609  33.142  23.123   7.053
10510POPC   C4B69610  33.095  23.125   7.353
10511POPC   NC369611   7.414  38.489   5.553
10511POPC   PO469612   7.469  38.473   5.853
10511POPC   GL169613   7.452  38.420   6.153
10511POPC   GL269614   7.410  38.294   6.153
10511POPC   C1A69615   7.431  38.470   6.453
10511POPC   D2A69616   7.446  38.414   6.753
10511POPC   C3A69617   7.430  38.487   7.053
10511POPC   C4A69618   7.372  38.438   7.353
10511POPC   C1B69619   7.335  38.191   6.453
10511POPC   C2B69620   7.352  38.265   6.753
10511POPC   C3B69621   7.304  38.187   7.053
10511POPC   C4B69622   7.299  38.255   7.353
10512POPC   NC369623  35.393  17.489   5.553
10512POPC   PO469624  35.346  17.473   5.853
10512POPC   GL169625  35.347  17.488   6.153
10512POPC   GL269626  35.485  17.479   6.153
10512POPC   C1A69627  35.359  17.473   6.453
10512POPC   D2A69628  35.354  17.536   6.753
10512POPC   C3A69629  35.394  17.466   7.053
10512POPC   C4A69630  35.335  17.522   7.353
10512POPC   C1B69631  35.605  17.438   6.453
10512POPC   C2B69632  35.605  17.457   6.753
10512POPC   C3B69633  35.596  17.429   7.053
10512POPC   C4B69634  35.534  17.449   7.353
10513POPC   NC369635  22.959  14.399   5.553
10513POPC   PO469636  22.962  14.357   5.853
10513POPC   GL169637  22.942  14.401   6.153
10513POPC   GL269638  22.858  14.331   6.153
10513POPC   C1A69639  22.904  14.415   6.453
10513POPC   D2A69640  22.924  14.396   6.753
10513POPC   C3A69641  22.950  14.363   7.053
10513POPC   C4A69642  22.984  14.391   7.353
10513POPC   C1B69643  22.793  14.247   6.453
10513POPC   C2B69644  22.821  14.256   6.753
10513POPC   C3B69645  22.773  14.209   7.053
10513POPC   C4B69646  22.737  14.173   7.353
10514POPC   NC369647  20.578  42.361   5.553
10514POPC   PO469648  20.562  42.342   5.853
10514POPC   GL169649  20.643  42.312   6.153
10514POPC   GL269650  20.670  42.453   6.153
10514POPC   C1A69651  20.583  42.357   6.453
10514POPC   D2A69652  20.630  42.379   6.753
10514POPC   C3A69653  20.609  42.301   7.053
10514POPC   C4A69654  20.577  42.294   7.353
10514POPC   C1B69655  20.742  42.540   6.453
10514POPC   C2B69656  20.721  42.585   6.753
10514POPC   C3B69657  20.756  42.579   7.053
10514POPC   C4B69658  20.754  42.542   7.353
10515POPC   NC369659  10.540  27.548   5.553
10515POPC   PO469660  10.538  27.568   5.853
10515POPC   GL169661  10.529  27.567   6.153
10515POPC   GL269662  10.532  27.421   6.153
10515POPC   C1A69663  10.522  27.563   6.453
10515POPC   D2A69664  10.566  27.545   6.753
10515POPC   C3A69665  10.508  27.582   7.053
10515POPC   C4A69666  10.549  27.633   7.353
10515POPC   C1B69667  10.564  27.342   6.453
10515POPC   C2B69668  10.515  27.388   6.753
10515POPC   C3B69669  10.581  27.349   7.053
10515POPC   C4B69670  10.549  27.355   7.353
10516POPC   NC369671  32.294   1.972   5.553
10516POPC   PO469672  32.216   1.985   5.853
10516POPC   GL169673  32.265   1.950   6.153
10516POPC   GL269674  32.359   2.087   6.153
10516POPC   C1A69675  32.275   1.948   6.453
10516POPC   D2A69676  32.268   1.941   6.753
10516POPC   C3A69677  32.294   1.961   7.053
10516POPC   C4A69678  32.255   1.998   7.353
10516POPC   C1B69679  32.415   2.192   6.453
10516POPC   C2B69680  32.465   2.131   6.753
10516POPC   C3B69681  32.450   2.205   7.053
10516POPC   C4B69682  32.460   2.175   7.353
10517POPC   NC369683  15.202  25.266   5.553
10517POPC   PO469684  15.213  25.250   5.853
10517POPC   GL169685  15.220  25.220   6.153
10517POPC   GL269686  15.067  25.229   6.153
10517POPC   C1A69687  15.160  25.248   6.453
10517POPC   D2A69688  15.194  25.229   6.753
10517POPC   C3A69689  15.164  25.273   7.053
10517POPC   C4A69690  15.134  25.312   7.353
10517POPC   C1B69691  14.929  25.138   6.453
10517POPC   C2B69692  14.914  25.169   6.753
10517POPC   C3B69693  14.990  25.188   7.053
10517POPC   C4B69694  14.976  25.164   7.353
10518POPC   NC369695  33.821  21.353   5.553
10518POPC   PO469696  33.849  21.398   5.853
10518POPC   GL169697  33.769  21.417   6.153
10518POPC   GL269698  33.815  21.461   6.153
10518POPC   C1A69699  33.841  21.427   6.453
10518POPC   D2A69700  33.842  21.382   6.753
10518POPC   C3A69701  33.791  21.404   7.053
10518POPC   C4A69702  33.849  21.391   7.353
10518POPC   C1B69703  33.755  21.642   6.453
10518POPC   C2B69704  33.745  21.630   6.753
10518POPC   C3B69705  33.777  21.679   7.053
10518POPC   C4B69706  33.709  21.635   7.353
10519POPC   NC369707   5.855  39.191   5.553
10519POPC   PO469708   5.853  39.235   5.853
10519POPC   GL169709   5.881  39.217   6.153
10519POPC   GL269710   5.845  39.152   6.153
10519POPC   C1A69711   5.883  39.251   6.453
10519POPC   D2A69712   5.911  39.198   6.753
10519POPC   C3A69713   5.879  39.278   7.053
10519POPC   C4A69714   5.826  39.261   7.353
10519POPC   C1B69715   5.762  38.975   6.453
10519POPC   C2B69716   5.737  38.976   6.753
10519POPC   C3B69717   5.736  38.978   7.053
10519POPC   C4B69718   5.747  39.023   7.353
10520POPC   NC369719   3.547   1.991   5.553
10520POPC   PO469720   3.548   2.019   5.853
10520POPC   GL169721   3.579   1.949   6.153
10520POPC   GL269722   3.399   2.034   6.153
10520POPC   C1A69723   3.504   1.945   6.453
10520POPC   D2A69724   3.590   2.004   6.753
10520POPC   C3A69725   3.500   2.019   7.053
10520POPC   C4A69726   3.501   1.972   7.353
10520POPC   C1B69727   3.319   1.971   6.453
10520POPC   C2B69728   3.290   1.993   6.753
10520POPC   C3B69729   3.329   1.986   7.053
10520POPC   C4B69730   3.327   1.946   7.353
10521POPC   NC369731   2.033  17.484   5.553
10521POPC   PO469732   2.031  17.482   5.853
10521POPC   GL169733   2.030  17.493   6.153
10521POPC   GL269734   2.145  17.430   6.153
10521POPC   C1A69735   2.022  17.487   6.453
10521POPC   D2A69736   2.024  17.475   6.753
10521POPC   C3A69737   1.962  17.506   7.053
10521POPC   C4A69738   1.967  17.548   7.353
10521POPC   C1B69739   2.193  17.415   6.453
10521POPC   C2B69740   2.209  17.415   6.753
10521POPC   C3B69741   2.233  17.448   7.053
10521POPC   C4B69742   2.252  17.402   7.353
10522POPC   NC369743  43.855  23.721   5.553
10522POPC   PO469744  43.843  23.677   5.853
10522POPC   GL169745  43.915  23.673   6.153
10522POPC   GL269746  43.868  23.805   6.153
10522POPC   C1A69747  43.915  23.705   6.453
10522POPC   D2A69748  43.863  23.761   6.753
10522POPC   C3A69749  43.875  23.708   7.053
10522POPC   C4A69750  43.926  23.757   7.353
10522POPC   C1B69751  43.915  23.999   6.453
10522POPC   C2B69752  43.866  23.972   6.753
10522POPC   C3B69753  43.935  24.012   7.053
10522POPC   C4B69754  43.924  23.920   7.353
10523POPC   NC369755  33.785   5.139   5.553
10523POPC   PO469756  33.767   5.050   5.853
10523POPC   GL169757  33.847   5.115   6.153
10523POPC   GL269758  33.909   5.158   6.153
10523POPC   C1A69759  33.774   5.078   6.453
10523POPC   D2A69760  33.800   5.114   6.753
10523POPC   C3A69761  33.845   5.104   7.053
10523POPC   C4A69762  33.759   5.048   7.353
10523POPC   C1B69763  34.009   5.187   6.453
10523POPC   C2B69764  34.008   5.137   6.753
10523POPC   C3B69765  34.074   5.170   7.053
10523POPC   C4B69766  34.082   5.163   7.353
10524POPC   NC369767  44.642  42.379   5.553
10524POPC   PO469768  44.694  42.289   5.853
10524POPC   GL169769  44.664  42.319   6.153
10524POPC   GL269770  44.673  42.478   6.153
10524POPC   C1A69771  44.651  42.357   6.453
10524POPC   D2A69772  44.683  42.294   6.753
10524POPC   C3A69773  44.649  42.351   7.053
10524POPC   C4A69774  44.636  42.350   7.353
10524POPC   C1B69775  44.772  42.538   6.453
10524POPC   C2B69776  44.747  42.615   6.753
10524POPC   C3B69777  44.703  42.597   7.053
10524POPC   C4B69778  44.720  42.543   7.353
10525POPC   NC369779   2.735  27.638   5.553
10525POPC   PO469780   2.752  27.562   5.853
10525POPC   GL169781   2.727  27.601   6.153
10525POPC   GL269782   2.660  27.494   6.153
10525POPC   C1A69783   2.720  27.564   6.453
10525POPC   D2A69784   2.765  27.633   6.753
10525POPC   C3A69785   2.765  27.642   7.053
10525POPC   C4A69786   2.796  27.585   7.353
10525POPC   C1B69787   2.622  27.389   6.453
10525POPC   C2B69788   2.644  27.359   6.753
10525POPC   C3B69789   2.579  27.376   7.053
10525POPC   C4B69790   2.610  27.385   7.353
10526POPC   NC369791  12.866  35.399   5.553
10526POPC   PO469792  12.840  35.384   5.853
10526POPC   GL169793  12.878  35.381   6.153
10526POPC   GL269794  12.819  35.474   6.153
10526POPC   C1A69795  12.886  35.364   6.453
10526POPC   D2A69796  12.830  35.346   6.753
10526POPC   C3A69797  12.871  35.336   7.053
10526POPC   C4A69798  12.864  35.370   7.353
10526POPC   C1B69799  12.799  35.578   6.453
10526POPC   C2B69800  12.765  35.638   6.753
10526POPC   C3B69801  12.863  35.610   7.053
10526POPC   C4B69802  12.834  35.600   7.353
10527POPC   NC369803  27.551   0.444   5.553
10527POPC   PO469804  27.563   0.455   5.853
10527POPC   GL169805  27.570   0.418   6.153
10527POPC   GL269806  27.512   0.496   6.153
10527POPC   C1A69807  27.590   0.431   6.453
10527POPC   D2A69808  27.608   0.472   6.753
10527POPC   C3A69809  27.581   0.464   7.053
10527POPC   C4A69810  27.628   0.415   7.353
10527POPC   C1B69811  27.360   0.516   6.453
10527POPC   C2B69812  27.396   0.469   6.753
10527POPC   C3B69813  27.338   0.472   7.053
10527POPC   C4B69814  27.393   0.476   7.353
10528POPC   NC369815   5.852  37.690   5.553
10528POPC   PO469816   5.877  37.673   5.853
10528POPC   GL169817   5.871  37.720   6.153
10528POPC   GL269818   6.013  37.722   6.153
10528POPC   C1A69819   5.891  37.634   6.453
10528POPC   D2A69820   5.912  37.720   6.753
10528POPC   C3A69821   5.829  37.646   7.053
10528POPC   C4A69822   5.824  37.670   7.353
10528POPC   C1B69823   6.122  37.666   6.453
10528POPC   C2B69824   6.083  37.699   6.753
10528POPC   C3B69825   6.106  37.654   7.053
10528POPC   C4B69826   6.139  37.641   7.353
10529POPC   NC369827  41.527   6.653   5.553
10529POPC   PO469828  41.559   6.641   5.853
10529POPC   GL169829  41.548   6.681   6.153
10529POPC   GL269830  41.644   6.715   6.153
10529POPC   C1A69831  41.597   6.624   6.453
10529POPC   D2A69832  41.524   6.649   6.753
10529POPC   C3A69833  41.523   6.624   7.053
10529POPC   C4A69834  41.558   6.604   7.353
10529POPC   C1B69835  41.716   6.783   6.453
10529POPC   C2B69836  41.775   6.848   6.753
10529POPC   C3B69837  41.765   6.842   7.053
10529POPC   C4B69838  41.739   6.803   7.353
10530POPC   NC369839  19.830  44.691   5.553
10530POPC   PO469840  19.868  44.673   5.853
10530POPC   GL169841  19.825  44.686   6.153
10530POPC   GL269842  19.750  44.620   6.153
10530POPC   C1A69843  19.814  44.685   6.453
10530POPC   D2A69844  19.836  44.658   6.753
10530POPC   C3A69845  19.863  44.700   7.053
10530POPC   C4A69846  19.802  44.650   7.353
10530POPC   C1B69847  19.653  44.474   6.453
10530POPC   C2B69848  19.635  44.498   6.753
10530POPC   C3B69849  19.669  44.513   7.053
10530POPC   C4B69850  19.633  44.471   7.353
10531POPC   NC369851   5.906  30.689   5.553
10531POPC   PO469852   5.913  30.684   5.853
10531POPC   GL169853   5.901  30.693   6.153
10531POPC   GL269854   5.737  30.676   6.153
10531POPC   C1A69855   5.890  30.651   6.453
10531POPC   D2A69856   5.879  30.650   6.753
10531POPC   C3A69857   5.905  30.647   7.053
10531POPC   C4A69858   5.844  30.708   7.353
10531POPC   C1B69859   5.664  30.755   6.453
10531POPC   C2B69860   5.601  30.684   6.753
10531POPC   C3B69861   5.636  30.766   7.053
10531POPC   C4B69862   5.579  30.733   7.353
10532POPC   NC369863  20.585  17.524   5.553
10532POPC   PO469864  20.643  17.511   5.853
10532POPC   GL169865  20.586  17.461   6.153
10532POPC   GL269866  20.592  17.647   6.153
10532POPC   C1A69867  20.574  17.550   6.453
10532POPC   D2A69868  20.619  17.496   6.753
10532POPC   C3A69869  20.578  17.524   7.053
10532POPC   C4A69870  20.657  17.459   7.353
10532POPC   C1B69871  20.536  17.773   6.453
10532POPC   C2B69872  20.528  17.767   6.753
10532POPC   C3B69873  20.516  17.749   7.053
10532POPC   C4B69874  20.541  17.722   7.353
10533POPC   NC369875  42.295  16.752   5.553
10533POPC   PO469876  42.366  16.740   5.853
10533POPC   GL169877  42.346  16.713   6.153
10533POPC   GL269878  42.467  16.671   6.153
10533POPC   C1A69879  42.342  16.725   6.453
10533POPC   D2A69880  42.377  16.725   6.753
10533POPC   C3A69881  42.300  16.713   7.053
10533POPC   C4A69882  42.343  16.767   7.353
10533POPC   C1B69883  42.561  16.622   6.453
10533POPC   C2B69884  42.586  16.616   6.753
10533POPC   C3B69885  42.577  16.592   7.053
10533POPC   C4B69886  42.570  16.589   7.353
10534POPC   NC369887   9.729  26.809   5.553
10534POPC   PO469888   9.792  26.814   5.853
10534POPC   GL169889   9.788  26.833   6.153
10534POPC   GL269890   9.592  26.876   6.153
10534POPC   C1A69891   9.715  26.790   6.453
10534POPC   D2A69892   9.773  26.770   6.753
10534POPC   C3A69893   9.771  26.836   7.053
10534POPC   C4A69894   9.761  26.775   7.353
10534POPC   C1B69895   9.521  26.870   6.453
10534POPC   C2B69896   9.546  26.854   6.753
10534POPC   C3B69897   9.519  26.878   7.053
10534POPC   C4B69898   9.489  26.859   7.353
10535POPC   NC369899  37.683   8.150   5.553
10535POPC   PO469900  37.689   8.193   5.853
10535POPC   GL169901  37.710   8.195   6.153
10535POPC   GL269902  37.597   8.182   6.153
10535POPC   C1A69903  37.660   8.185   6.453
10535POPC   D2A69904  37.726   8.205   6.753
10535POPC   C3A69905  37.712   8.240   7.053
10535POPC   C4A69906  37.639   8.246   7.353
10535POPC   C1B69907  37.505   8.098   6.453
10535POPC   C2B69908  37.452   8.134   6.753
10535POPC   C3B69909  37.434   8.070   7.053
10535POPC   C4B69910  37.470   8.088   7.353
10536POPC   NC369911  22.123  35.317   5.553
10536POPC   PO469912  22.126  35.343   5.853
10536POPC   GL169913  22.211  35.319   6.153
10536POPC   GL269914  22.206  35.212   6.153
10536POPC   C1A69915  22.146  35.333   6.453
10536POPC   D2A69916  22.207  35.365   6.753
10536POPC   C3A69917  22.184  35.343   7.053
10536POPC   C4A69918  22.174  35.387   7.353
10536POPC   C1B69919  22.172  35.096   6.453
10536POPC   C2B69920  22.169  35.097   6.753
10536POPC   C3B69921  22.211  35.071   7.053
10536POPC   C4B69922  22.184  35.122   7.353
10537POPC   NC369923  23.746  39.964   5.553
10537POPC   PO469924  23.699  39.958   5.853
10537POPC   GL169925  23.674  40.043   6.153
10537POPC   GL269926  23.545  40.027   6.153
10537POPC   C1A69927  23.736  39.995   6.453
10537POPC   D2A69928  23.670  40.047   6.753
10537POPC   C3A69929  23.713  39.975   7.053
10537POPC   C4A69930  23.690  40.042   7.353
10537POPC   C1B69931  23.499  40.056   6.453
10537POPC   C2B69932  23.459  40.089   6.753
10537POPC   C3B69933  23.501  40.070   7.053
10537POPC   C4B69934  23.519  40.092   7.353
10538POPC   NC369935  16.730   2.002   5.553
10538POPC   PO469936  16.693   2.032   5.853
10538POPC   GL169937  16.753   2.026   6.153
10538POPC   GL269938  16.831   1.909   6.153
10538POPC   C1A69939  16.689   1.972   6.453
10538POPC   D2A69940  16.689   1.988   6.753
10538POPC   C3A69941  16.757   2.038   7.053
10538POPC   C4A69942  16.700   1.999   7.353
10538POPC   C1B69943  16.899   1.787   6.453
10538POPC   C2B69944  16.865   1.776   6.753
10538POPC   C3B69945  16.877   1.839   7.053
10538POPC   C4B69946  16.910   1.853   7.353
10539POPC   NC369947  14.380  27.562   5.553
10539POPC   PO469948  14.449  27.589   5.853
10539POPC   GL169949  14.448  27.569   6.153
10539POPC   GL269950  14.529  27.666   6.153
10539POPC   C1A69951  14.449  27.629   6.453
10539POPC   D2A69952  14.362  27.614   6.753
10539POPC   C3A69953  14.390  27.576   7.053
10539POPC   C4A69954  14.383  27.624   7.353
10539POPC   C1B69955  14.592  27.693   6.453
10539POPC   C2B69956  14.649  27.712   6.753
10539POPC   C3B69957  14.673  27.729   7.053
10539POPC   C4B69958  14.683  27.691   7.353
10540POPC   NC369959  39.259   8.159   5.553
10540POPC   PO469960  39.237   8.197   5.853
10540POPC   GL169961  39.269   8.238   6.153
10540POPC   GL269962  39.123   8.112   6.153
10540POPC   C1A69963  39.243   8.183   6.453
10540POPC   D2A69964  39.279   8.150   6.753
10540POPC   C3A69965  39.239   8.180   7.053
10540POPC   C4A69966  39.190   8.229   7.353
10540POPC   C1B69967  39.078   8.023   6.453
10540POPC   C2B69968  39.042   8.000   6.753
10540POPC   C3B69969  39.021   7.988   7.053
10540POPC   C4B69970  39.081   8.038   7.353
10541POPC   NC369971  24.471  24.470   5.553
10541POPC   PO469972  24.486  24.520   5.853
10541POPC   GL169973  24.458  24.449   6.153
10541POPC   GL269974  24.390  24.489   6.153
10541POPC   C1A69975  24.453  24.443   6.453
10541POPC   D2A69976  24.464  24.475   6.753
10541POPC   C3A69977  24.538  24.520   7.053
10541POPC   C4A69978  24.460  24.448   7.353
10541POPC   C1B69979  24.267  24.566   6.453
10541POPC   C2B69980  24.258  24.596   6.753
10541POPC   C3B69981  24.271  24.557   7.053
10541POPC   C4B69982  24.214  24.503   7.353
10542POPC   NC369983  13.651  44.680   5.553
10542POPC   PO469984  13.588  44.644   5.853
10542POPC   GL169985  13.605  44.662   6.153
10542POPC   GL269986  13.719  44.737   6.153
10542POPC   C1A69987  13.634  44.631   6.453
10542POPC   D2A69988  13.614  44.639   6.753
10542POPC   C3A69989  13.591  44.679   7.053
10542POPC   C4A69990  13.614  44.638   7.353
10542POPC   C1B69991  13.758  44.873   6.453
10542POPC   C2B69992  13.750  44.885   6.753
10542POPC   C3B69993  13.681  44.885   7.053
10542POPC   C4B69994  13.763  44.926   7.353
10543POPC   NC369995   2.741   1.972   5.553
10543POPC   PO469996   2.756   1.943   5.853
10543POPC   GL169997   2.723   1.977   6.153
10543POPC   GL269998   2.869   2.113   6.153
10543POPC   C1A69999   2.804   2.015   6.453
10543POPC   D2A70000   2.752   1.965   6.753
10543POPC   C3A70001   2.785   2.006   7.053
10543POPC   C4A70002   2.772   2.030   7.353
10543POPC   C1B70003   2.847   2.254   6.453
10543POPC   C2B70004   2.917   2.259   6.753
10543POPC   C3B70005   2.864   2.212   7.053
10543POPC   C4B70006   2.876   2.167   7.353
10544POPC   NC370007  44.671  10.553   5.553
10544POPC   PO470008  44.668  10.520   5.853
10544POPC   GL170009  44.708  10.549   6.153
10544POPC   GL270010  44.498  10.526   6.153
10544POPC   C1A70011  44.622  10.530   6.453
10544POPC   D2A70012  44.632  10.548   6.753
10544POPC   C3A70013  44.688  10.560   7.053
10544POPC   C4A70014  44.654  10.552   7.353
10544POPC   C1B70015  44.418  10.599   6.453
10544POPC   C2B70016  44.417  10.531   6.753
10544POPC   C3B70017  44.436  10.547   7.053
10544POPC   C4B70018  44.428  10.605   7.353
10545POPC   NC370019   1.257  11.333   5.553
10545POPC   PO470020   1.238  11.252   5.853
10545POPC   GL170021   1.204  11.296   6.153
10545POPC   GL270022   1.197  11.437   6.153
10545POPC   C1A70023   1.176  11.260   6.453
10545POPC   D2A70024   1.229  11.278   6.753
10545POPC   C3A70025   1.233  11.267   7.053
10545POPC   C4A70026   1.170  11.347   7.353
10545POPC   C1B70027   1.290  11.520   6.453
10545POPC   C2B70028   1.217  11.500   6.753
10545POPC   C3B70029   1.278  11.532   7.053
10545POPC   C4B70030   1.299  11.567   7.353
10546POPC   NC370031  21.424  15.949   5.553
10546POPC   PO470032  21.404  15.989   5.853
10546POPC   GL170033  21.420  15.959   6.153
10546POPC   GL270034  21.294  15.885   6.153
10546POPC   C1A70035  21.348  15.994   6.453
10546POPC   D2A70036  21.431  15.982   6.753
10546POPC   C3A70037  21.362  15.963   7.053
10546POPC   C4A70038  21.382  16.003   7.353
10546POPC   C1B70039  21.203  15.775   6.453
10546POPC   C2B70040  21.291  15.721   6.753
10546POPC   C3B70041  21.281  15.752   7.053
10546POPC   C4B70042  21.268  15.728   7.353
10547POPC   NC370043   8.170  17.500   5.553
10547POPC   PO470044   8.212  17.486   5.853
10547POPC   GL170045   8.182  17.553   6.153
10547POPC   GL270046   8.216  17.411   6.153
10547POPC   C1A70047   8.168  17.537   6.453
10547POPC   D2A70048   8.149  17.532   6.753
10547POPC   C3A70049   8.218  17.473   7.053
10547POPC   C4A70050   8.174  17.463   7.353
10547POPC   C1B70051   8.248  17.258   6.453
10547POPC   C2B70052   8.212  17.252   6.753
10547POPC   C3B70053   8.176  17.218   7.053
10547POPC   C4B70054   8.163  17.293   7.353
10548POPC   NC370055   3.500  24.442   5.553
10548POPC   PO470056   3.555  24.448   5.853
10548POPC   GL170057   3.556  24.512   6.153
10548POPC   GL270058   3.459  24.594   6.153
10548POPC   C1A70059   3.548  24.456   6.453
10548POPC   D2A70060   3.550  24.482   6.753
10548POPC   C3A70061   3.517  24.510   7.053
10548POPC   C4A70062   3.536  24.479   7.353
10548POPC   C1B70063   3.307  24.640   6.453
10548POPC   C2B70064   3.361  24.609   6.753
10548POPC   C3B70065   3.309  24.644   7.053
10548POPC   C4B70066   3.386  24.678   7.353
10549POPC   NC370067  23.720  38.475   5.553
10549POPC   PO470068  23.734  38.447   5.853
10549POPC   GL170069  23.678  38.429   6.153
10549POPC   GL270070  23.624  38.520   6.153
10549POPC   C1A70071  23.730  38.444   6.453
10549POPC   D2A70072  23.724  38.422   6.753
10549POPC   C3A70073  23.724  38.489   7.053
10549POPC   C4A70074  23.748  38.434   7.353
10549POPC   C1B70075  23.543  38.654   6.453
10549POPC   C2B70076  23.557  38.644   6.753
10549POPC   C3B70077  23.555  38.699   7.053
10549POPC   C4B70078  23.594  38.650   7.353
10550POPC   NC370079  37.704  13.588   5.553
10550POPC   PO470080  37.711  13.605   5.853
10550POPC   GL170081  37.683  13.634   6.153
10550POPC   GL270082  37.822  13.686   6.153
10550POPC   C1A70083  37.650  13.665   6.453
10550POPC   D2A70084  37.714  13.592   6.753
10550POPC   C3A70085  37.689  13.616   7.053
10550POPC   C4A70086  37.703  13.638   7.353
10550POPC   C1B70087  37.888  13.817   6.453
10550POPC   C2B70088  37.907  13.756   6.753
10550POPC   C3B70089  37.830  13.771   7.053
10550POPC   C4B70090  37.883  13.819   7.353
10551POPC   NC370091   1.983  44.613   5.553
10551POPC   PO470092   2.033  44.651   5.853
10551POPC   GL170093   1.988  44.693   6.153
10551POPC   GL270094   2.039  44.786   6.153
10551POPC   C1A70095   1.983  44.671   6.453
10551POPC   D2A70096   1.970  44.683   6.753
10551POPC   C3A70097   2.038  44.643   7.053
10551POPC   C4A70098   1.971  44.639   7.353
10551POPC   C1B70099   2.128  44.864   6.453
10551POPC   C2B70100   2.100  44.857   6.753
10551POPC   C3B70101   2.068  44.918   7.053
10551POPC   C4B70102   2.115  44.920   7.353
10552POPC   NC370103  36.881   3.512   5.553
10552POPC   PO470104  36.920   3.588   5.853
10552POPC   GL170105  36.891   3.553   6.153
10552POPC   GL270106  36.887   3.405   6.153
10552POPC   C1A70107  36.878   3.556   6.453
10552POPC   D2A70108  36.921   3.525   6.753
10552POPC   C3A70109  36.939   3.558   7.053
10552POPC   C4A70110  36.890   3.574   7.353
10552POPC   C1B70111  36.816   3.293   6.453
10552POPC   C2B70112  36.876   3.285   6.753
10552POPC   C3B70113  36.873   3.332   7.053
10552POPC   C4B70114  36.883   3.255   7.353
10553POPC   NC370115  43.094  21.425   5.553
10553POPC   PO470116  43.129  21.398   5.853
10553POPC   GL170117  43.147  21.348   6.153
10553POPC   GL270118  43.003  21.341   6.153
10553POPC   C1A70119  43.075  21.348   6.453
10553POPC   D2A70120  43.156  21.374   6.753
10553POPC   C3A70121  43.083  21.347   7.053
10553POPC   C4A70122  43.154  21.435   7.353
10553POPC   C1B70123  42.906  21.261   6.453
10553POPC   C2B70124  42.951  21.272   6.753
10553POPC   C3B70125  42.872  21.259   7.053
10553POPC   C4B70126  42.914  21.225   7.353
10554POPC   NC370127  39.999  29.122   5.553
10554POPC   PO470128  40.017  29.154   5.853
10554POPC   GL170129  40.018  29.142   6.153
10554POPC   GL270130  39.887  29.058   6.153
10554POPC   C1A70131  40.028  29.121   6.453
10554POPC   D2A70132  40.009  29.172   6.753
10554POPC   C3A70133  39.990  29.156   7.053
10554POPC   C4A70134  40.020  29.142   7.353
10554POPC   C1B70135  39.798  29.008   6.453
10554POPC   C2B70136  39.779  28.987   6.753
10554POPC   C3B70137  39.805  28.971   7.053
10554POPC   C4B70138  39.848  28.975   7.353
10555POPC   NC370139   3.566  18.322   5.553
10555POPC   PO470140   3.556  18.240   5.853
10555POPC   GL170141   3.536  18.275   6.153
10555POPC   GL270142   3.610  18.121   6.153
10555POPC   C1A70143   3.510  18.265   6.453
10555POPC   D2A70144   3.544  18.322   6.753
10555POPC   C3A70145   3.530  18.328   7.053
10555POPC   C4A70146   3.554  18.261   7.353
10555POPC   C1B70147   3.657  18.038   6.453
10555POPC   C2B70148   3.655  18.017   6.753
10555POPC   C3B70149   3.601  18.032   7.053
10555POPC   C4B70150   3.643  18.028   7.353
10556POPC   NC370151  19.786  12.844   5.553
10556POPC   PO470152  19.860  12.897   5.853
10556POPC   GL170153  19.812  12.860   6.153
10556POPC   GL270154  19.733  12.967   6.153
10556POPC   C1A70155  19.845  12.842   6.453
10556POPC   D2A70156  19.807  12.826   6.753
10556POPC   C3A70157  19.859  12.890   7.053
10556POPC   C4A70158  19.844  12.858   7.353
10556POPC   C1B70159  19.724  13.079   6.453
10556POPC   C2B70160  19.646  13.064   6.753
10556POPC   C3B70161  19.717  13.083   7.053
10556POPC   C4B70162  19.665  13.045   7.353
10557POPC   NC370163  21.363  32.269   5.553
10557POPC   PO470164  21.396  32.271   5.853
10557POPC   GL170165  21.414  32.210   6.153
10557POPC   GL270166  21.444  32.167   6.153
10557POPC   C1A70167  21.410  32.252   6.453
10557POPC   D2A70168  21.374  32.221   6.753
10557POPC   C3A70169  21.361  32.253   7.053
10557POPC   C4A70170  21.396  32.267   7.353
10557POPC   C1B70171  21.489  32.005   6.453
10557POPC   C2B70172  21.560  31.996   6.753
10557POPC   C3B70173  21.544  32.063   7.053
10557POPC   C4B70174  21.505  32.024   7.353
10558POPC   NC370175   3.575  43.148   5.553
10558POPC   PO470176   3.518  43.121   5.853
10558POPC   GL170177   3.558  43.063   6.153
10558POPC   GL270178   3.605  42.972   6.153
10558POPC   C1A70179   3.569  43.084   6.453
10558POPC   D2A70180   3.589  43.106   6.753
10558POPC   C3A70181   3.525  43.154   7.053
10558POPC   C4A70182   3.522  43.146   7.353
10558POPC   C1B70183   3.611  42.840   6.453
10558POPC   C2B70184   3.571  42.893   6.753
10558POPC   C3B70185   3.613  42.868   7.053
10558POPC   C4B70186   3.600  42.899   7.353
10559POPC   NC370187  36.855   2.773   5.553
10559POPC   PO470188  36.912   2.731   5.853
10559POPC   GL170189  36.911   2.804   6.153
10559POPC   GL270190  36.958   2.834   6.153
10559POPC   C1A70191  36.854   2.798   6.453
10559POPC   D2A70192  36.892   2.739   6.753
10559POPC   C3A70193  36.898   2.774   7.053
10559POPC   C4A70194  36.937   2.797   7.353
10559POPC   C1B70195  37.097   2.951   6.453
10559POPC   C2B70196  37.128   2.897   6.753
10559POPC   C3B70197  37.128   2.968   7.053
10559POPC   C4B70198  37.086   2.913   7.353
10560POPC   NC370199  34.616  30.697   5.553
10560POPC   PO470200  34.552  30.687   5.853
10560POPC   GL170201  34.577  30.705   6.153
10560POPC   GL270202  34.429  30.755   6.153
10560POPC   C1A70203  34.614  30.682   6.453
10560POPC   D2A70204  34.553  30.669   6.753
10560POPC   C3A70205  34.558  30.680   7.053
10560POPC   C4A70206  34.597  30.708   7.353
10560POPC   C1B70207  34.367  30.746   6.453
10560POPC   C2B70208  34.300  30.736   6.753
10560POPC   C3B70209  34.317  30.747   7.053
10560POPC   C4B70210  34.297  30.775   7.353
10561POPC   NC370211  14.384  36.928   5.553
10561POPC   PO470212  14.378  36.876   5.853
10561POPC   GL170213  14.413  36.927   6.153
10561POPC   GL270214  14.528  37.037   6.153
10561POPC   C1A70215  14.361  36.914   6.453
10561POPC   D2A70216  14.358  36.906   6.753
10561POPC   C3A70217  14.384  36.903   7.053
10561POPC   C4A70218  14.362  36.951   7.353
10561POPC   C1B70219  14.520  37.072   6.453
10561POPC   C2B70220  14.513  37.087   6.753
10561POPC   C3B70221  14.525  37.144   7.053
10561POPC   C4B70222  14.520  37.063   7.353
10562POPC   NC370223   6.681  44.644   5.553
10562POPC   PO470224   6.675  44.699   5.853
10562POPC   GL170225   6.622  44.659   6.153
10562POPC   GL270226   6.740  44.628   6.153
10562POPC   C1A70227   6.641  44.696   6.453
10562POPC   D2A70228   6.684  44.682   6.753
10562POPC   C3A70229   6.647  44.647   7.053
10562POPC   C4A70230   6.650  44.674   7.353
10562POPC   C1B70231   6.874  44.521   6.453
10562POPC   C2B70232   6.897  44.526   6.753
10562POPC   C3B70233   6.846  44.547   7.053
10562POPC   C4B70234   6.849  44.505   7.353
10563POPC   NC370235   0.397  15.996   5.553
10563POPC   PO470236   0.455  15.999   5.853
10563POPC   GL170237   0.474  15.999   6.153
10563POPC   GL270238   0.526  15.966   6.153
10563POPC   C1A70239   0.409  15.959   6.453
10563POPC   D2A70240   0.467  15.922   6.753
10563POPC   C3A70241   0.424  15.969   7.053
10563POPC   C4A70242   0.433  15.947   7.353
10563POPC   C1B70243   0.640  16.068   6.453
10563POPC   C2B70244   0.629  16.024   6.753
10563POPC   C3B70245   0.677  16.034   7.053
10563POPC   C4B70246   0.624  16.099   7.353
10564POPC   NC370247  24.522  43.877   5.553
10564POPC   PO470248  24.492  43.904   5.853
10564POPC   GL170249  24.494  43.860   6.153
10564POPC   GL270250  24.516  44.025   6.153
10564POPC   C1A70251  24.523  43.857   6.453
10564POPC   D2A70252  24.527  43.854   6.753
10564POPC   C3A70253  24.471  43.921   7.053
10564POPC   C4A70254  24.443  43.930   7.353
10564POPC   C1B70255  24.520  44.114   6.453
10564POPC   C2B70256  24.466  44.184   6.753
10564POPC   C3B70257  24.526  44.123   7.053
10564POPC   C4B70258  24.494  44.169   7.353
10565POPC   NC370259  28.366  17.474   5.553
10565POPC   PO470260  28.396  17.499   5.853
10565POPC   GL170261  28.344  17.524   6.153
10565POPC   GL270262  28.324  17.649   6.153
10565POPC   C1A70263  28.347  17.542   6.453
10565POPC   D2A70264  28.380  17.532   6.753
10565POPC   C3A70265  28.322  17.468   7.053
10565POPC   C4A70266  28.354  17.545   7.353
10565POPC   C1B70267  28.261  17.764   6.453
10565POPC   C2B70268  28.237  17.727   6.753
10565POPC   C3B70269  28.290  17.775   7.053
10565POPC   C4B70270  28.317  17.750   7.353
10566POPC   NC370271   1.970  19.822   5.553
10566POPC   PO470272   2.034  19.795   5.853
10566POPC   GL170273   2.037  19.878   6.153
10566POPC   GL270274   2.052  19.738   6.153
10566POPC   C1A70275   2.005  19.826   6.453
10566POPC   D2A70276   1.982  19.835   6.753
10566POPC   C3A70277   1.987  19.788   7.053
10566POPC   C4A70278   2.017  19.864   7.353
10566POPC   C1B70279   2.105  19.633   6.453
10566POPC   C2B70280   2.060  19.641   6.753
10566POPC   C3B70281   2.027  19.590   7.053
10566POPC   C4B70282   2.033  19.628   7.353
10567POPC   NC370283  43.888  10.539   5.553
10567POPC   PO470284  43.927  10.477   5.853
10567POPC   GL170285  43.851  10.478   6.153
10567POPC   GL270286  43.878  10.433   6.153
10567POPC   C1A70287  43.874  10.559   6.453
10567POPC   D2A70288  43.894  10.526   6.753
10567POPC   C3A70289  43.884  10.483   7.053
10567POPC   C4A70290  43.869  10.496   7.353
10567POPC   C1B70291  43.755  10.346   6.453
10567POPC   C2B70292  43.746  10.334   6.753
10567POPC   C3B70293  43.819  10.305   7.053
10567POPC   C4B70294  43.760  10.263   7.353
10568POPC   NC370295  27.601   9.769   5.553
10568POPC   PO470296  27.609   9.766   5.853
10568POPC   GL170297  27.628   9.704   6.153
10568POPC   GL270298  27.698   9.651   6.153
10568POPC   C1A70299  27.549   9.781   6.453
10568POPC   D2A70300  27.632   9.756   6.753
10568POPC   C3A70301  27.557   9.708   7.053
10568POPC   C4A70302  27.545   9.798   7.353
10568POPC   C1B70303  27.720   9.566   6.453
10568POPC   C2B70304  27.810   9.545   6.753
10568POPC   C3B70305  27.759   9.567   7.053
10568POPC   C4B70306  27.747   9.607   7.353
10569POPC   NC370307  23.756  35.397   5.553
10569POPC   PO470308  23.725  35.365   5.853
10569POPC   GL170309  23.723  35.316   6.153
10569POPC   GL270310  23.735  35.234   6.153
10569POPC   C1A70311  23.748  35.352   6.453
10569POPC   D2A70312  23.694  35.395   6.753
10569POPC   C3A70313  23.707  35.353   7.053
10569POPC   C4A70314  23.713  35.344   7.353
10569POPC   C1B70315  23.884  35.171   6.453
10569POPC   C2B70316  23.805  35.127   6.753
10569POPC   C3B70317  23.873  35.166   7.053
10569POPC   C4B70318  23.848  35.151   7.353
10570POPC   NC370319  43.133   1.957   5.553
10570POPC   PO470320  43.127   1.962   5.853
10570POPC   GL170321  43.121   1.953   6.153
10570POPC   GL270322  43.038   2.079   6.153
10570POPC   C1A70323  43.114   1.988   6.453
10570POPC   D2A70324  43.152   2.010   6.753
10570POPC   C3A70325  43.153   1.981   7.053
10570POPC   C4A70326  43.071   1.974   7.353
10570POPC   C1B70327  42.895   2.124   6.453
10570POPC   C2B70328  42.873   2.164   6.753
10570POPC   C3B70329  42.885   2.114   7.053
10570POPC   C4B70330  42.903   2.175   7.353
10571POPC   NC370331  32.986  33.818   5.553
10571POPC   PO470332  32.993  33.763   5.853
10571POPC   GL170333  33.012  33.769   6.153
10571POPC   GL270334  33.052  33.881   6.153
10571POPC   C1A70335  32.989  33.835   6.453
10571POPC   D2A70336  32.999  33.831   6.753
10571POPC   C3A70337  33.011  33.831   7.053
10571POPC   C4A70338  32.990  33.830   7.353
10571POPC   C1B70339  33.174  34.049   6.453
10571POPC   C2B70340  33.102  34.069   6.753
10571POPC   C3B70341  33.108  34.010   7.053
10571POPC   C4B70342  33.121  34.000   7.353
10572POPC   NC370343   2.801   9.768   5.553
10572POPC   PO470344   2.744   9.726   5.853
10572POPC   GL170345   2.753   9.742   6.153
10572POPC   GL270346   2.644   9.867   6.153
10572POPC   C1A70347   2.790   9.724   6.453
10572POPC   D2A70348   2.753   9.784   6.753
10572POPC   C3A70349   2.780   9.740   7.053
10572POPC   C4A70350   2.769   9.748   7.353
10572POPC   C1B70351   2.621   9.984   6.453
10572POPC   C2B70352   2.638   9.917   6.753
10572POPC   C3B70353   2.562   9.993   7.053
10572POPC   C4B70354   2.616   9.989   7.353
10573POPC   NC370355  16.780  28.328   5.553
10573POPC   PO470356  16.691  28.346   5.853
10573POPC   GL170357  16.715  28.361   6.153
10573POPC   GL270358  16.717  28.257   6.153
10573POPC   C1A70359  16.738  28.332   6.453
10573POPC   D2A70360  16.760  28.366   6.753
10573POPC   C3A70361  16.776  28.372   7.053
10573POPC   C4A70362  16.711  28.331   7.353
10573POPC   C1B70363  16.601  28.151   6.453
10573POPC   C2B70364  16.604  28.139   6.753
10573POPC   C3B70365  16.685  28.181   7.053
10573POPC   C4B70366  16.681  28.135   7.353
10574POPC   NC370367  26.851  12.066   5.553
10574POPC   PO470368  26.785  12.117   5.853
10574POPC   GL170369  26.790  12.053   6.153
10574POPC   GL270370  26.793  11.999   6.153
10574POPC   C1A70371  26.775  12.041   6.453
10574POPC   D2A70372  26.840  12.083   6.753
10574POPC   C3A70373  26.768  12.060   7.053
10574POPC   C4A70374  26.819  12.122   7.353
10574POPC   C1B70375  26.838  11.855   6.453
10574POPC   C2B70376  26.756  11.856   6.753
10574POPC   C3B70377  26.766  11.815   7.053
10574POPC   C4B70378  26.771  11.801   7.353
10575POPC   NC370379  27.639  18.316   5.553
10575POPC   PO470380  27.567  18.329   5.853
10575POPC   GL170381  27.555  18.317   6.153
10575POPC   GL270382  27.653  18.144   6.153
10575POPC   C1A70383  27.573  18.274   6.453
10575POPC   D2A70384  27.625  18.292   6.753
10575POPC   C3A70385  27.597  18.307   7.053
10575POPC   C4A70386  27.582  18.309   7.353
10575POPC   C1B70387  27.719  18.067   6.453
10575POPC   C2B70388  27.745  18.099   6.753
10575POPC   C3B70389  27.727  18.071   7.053
10575POPC   C4B70390  27.753  18.093   7.353
10576POPC   NC370391  21.394  17.515   5.553
10576POPC   PO470392  21.347  17.491   5.853
10576POPC   GL170393  21.398  17.458   6.153
10576POPC   GL270394  21.491  17.585   6.153
10576POPC   C1A70395  21.433  17.552   6.453
10576POPC   D2A70396  21.404  17.492   6.753
10576POPC   C3A70397  21.385  17.493   7.053
10576POPC   C4A70398  21.356  17.500   7.353
10576POPC   C1B70399  21.575  17.641   6.453
10576POPC   C2B70400  21.551  17.736   6.753
10576POPC   C3B70401  21.559  17.680   7.053
10576POPC   C4B70402  21.548  17.723   7.353
10577POPC   NC370403  30.668  23.704   5.553
10577POPC   PO470404  30.696  23.700   5.853
10577POPC   GL170405  30.707  23.729   6.153
10577POPC   GL270406  30.733  23.597   6.153
10577POPC   C1A70407  30.706  23.686   6.453
10577POPC   D2A70408  30.683  23.701   6.753
10577POPC   C3A70409  30.680  23.673   7.053
10577POPC   C4A70410  30.658  23.735   7.353
10577POPC   C1B70411  30.716  23.468   6.453
10577POPC   C2B70412  30.663  23.503   6.753
10577POPC   C3B70413  30.736  23.486   7.053
10577POPC   C4B70414  30.731  23.445   7.353
10578POPC   NC370415  11.297   9.772   5.553
10578POPC   PO470416  11.328   9.760   5.853
10578POPC   GL170417  11.278   9.757   6.153
10578POPC   GL270418  11.431   9.778   6.153
10578POPC   C1A70419  11.288   9.709   6.453
10578POPC   D2A70420  11.302   9.713   6.753
10578POPC   C3A70421  11.336   9.742   7.053
10578POPC   C4A70422  11.302   9.734   7.353
10578POPC   C1B70423  11.574   9.696   6.453
10578POPC   C2B70424  11.593   9.707   6.753
10578POPC   C3B70425  11.528   9.707   7.053
10578POPC   C4B70426  11.581   9.708   7.353
10579POPC   NC370427  41.585  44.646   5.553
10579POPC   PO470428  41.516  44.702   5.853
10579POPC   GL170429  41.586  44.701   6.153
10579POPC   GL270430  41.704  44.729   6.153
10579POPC   C1A70431  41.576  44.708   6.453
10579POPC   D2A70432  41.552  44.637   6.753
10579POPC   C3A70433  41.598  44.645   7.053
10579POPC   C4A70434  41.567  44.652   7.353
10579POPC   C1B70435  41.723  44.786   6.453
10579POPC   C2B70436  41.793  44.855   6.753
10579POPC   C3B70437  41.801  44.859   7.053
10579POPC   C4B70438  41.796  44.851   7.353
10580POPC   NC370439  33.776  13.671   5.553
10580POPC   PO470440  33.774  13.607   5.853
10580POPC   GL170441  33.850  13.649   6.153
10580POPC   GL270442  33.778  13.710   6.153
10580POPC   C1A70443  33.811  13.648   6.453
10580POPC   D2A70444  33.778  13.655   6.753
10580POPC   C3A70445  33.751  13.598   7.053
10580POPC   C4A70446  33.769  13.635   7.353
10580POPC   C1B70447  33.694  13.891   6.453
10580POPC   C2B70448  33.733  13.904   6.753
10580POPC   C3B70449  33.723  13.841   7.053
10580POPC   C4B70450  33.767  13.845   7.353
10581POPC   NC370451  40.777  43.922   5.553
10581POPC   PO470452  40.828  43.892   5.853
10581POPC   GL170453  40.828  43.874   6.153
10581POPC   GL270454  40.951  43.864   6.153
10581POPC   C1A70455  40.822  43.922   6.453
10581POPC   D2A70456  40.746  43.898   6.753
10581POPC   C3A70457  40.780  43.935   7.053
10581POPC   C4A70458  40.814  43.851   7.353
10581POPC   C1B70459  41.030  43.940   6.453
10581POPC   C2B70460  41.076  43.909   6.753
10581POPC   C3B70461  40.978  43.970   7.053
10581POPC   C4B70462  41.043  43.963   7.353
10582POPC   NC370463  44.647  19.840   5.553
10582POPC   PO470464  44.613  19.800   5.853
10582POPC   GL170465  44.710  19.795   6.153
10582POPC   GL270466  44.642  19.997   6.153
10582POPC   C1A70467  44.630  19.806   6.453
10582POPC   D2A70468  44.660  19.805   6.753
10582POPC   C3A70469  44.673  19.795   7.053
10582POPC   C4A70470  44.627  19.827   7.353
10582POPC   C1B70471  44.578  20.079   6.453
10582POPC   C2B70472  44.521  20.097   6.753
10582POPC   C3B70473  44.530  20.034   7.053
10582POPC   C4B70474  44.572  20.061   7.353
10583POPC   NC370475   1.201  17.539   5.553
10583POPC   PO470476   1.176  17.511   5.853
10583POPC   GL170477   1.214  17.488   6.153
10583POPC   GL270478   1.307  17.438   6.153
10583POPC   C1A70479   1.247  17.527   6.453
10583POPC   D2A70480   1.175  17.535   6.753
10583POPC   C3A70481   1.235  17.457   7.053
10583POPC   C4A70482   1.199  17.542   7.353
10583POPC   C1B70483   1.378  17.271   6.453
10583POPC   C2B70484   1.376  17.312   6.753
10583POPC   C3B70485   1.361  17.250   7.053
10583POPC   C4B70486   1.333  17.284   7.353
10584POPC   NC370487  19.097   5.875   5.553
10584POPC   PO470488  19.042   5.826   5.853
10584POPC   GL170489  19.050   5.874   6.153
10584POPC   GL270490  19.059   6.032   6.153
10584POPC   C1A70491  19.012   5.893   6.453
10584POPC   D2A70492  19.017   5.902   6.753
10584POPC   C3A70493  19.027   5.907   7.053
10584POPC   C4A70494  19.071   5.893   7.353
10584POPC   C1B70495  19.107   6.161   6.453
10584POPC   C2B70496  19.097   6.111   6.753
10584POPC   C3B70497  19.123   6.150   7.053
10584POPC   C4B70498  19.087   6.109   7.353
10585POPC   NC370499  23.725  44.701   5.553
10585POPC   PO470500  23.720  44.651   5.853
10585POPC   GL170501  23.702  44.661   6.153
10585POPC   GL270502  23.639  44.522   6.153
10585POPC   C1A70503  23.701  44.620   6.453
10585POPC   D2A70504  23.710  44.650   6.753
10585POPC   C3A70505  23.674  44.648   7.053
10585POPC   C4A70506  23.668  44.630   7.353
10585POPC   C1B70507  23.687  44.441   6.453
10585POPC   C2B70508  23.628  44.418   6.753
10585POPC   C3B70509  23.640  44.456   7.053
10585POPC   C4B70510  23.611  44.425   7.353
10586POPC   NC370511  35.345  42.299   5.553
10586POPC   PO470512  35.302  42.319   5.853
10586POPC   GL170513  35.338  42.290   6.153
10586POPC   GL270514  35.446  42.297   6.153
10586POPC   C1A70515  35.382  42.373   6.453
10586POPC   D2A70516  35.320  42.357   6.753
10586POPC   C3A70517  35.374  42.333   7.053
10586POPC   C4A70518  35.346  42.365   7.353
10586POPC   C1B70519  35.647  42.328   6.453
10586POPC   C2B70520  35.596  42.256   6.753
10586POPC   C3B70521  35.596  42.331   7.053
10586POPC   C4B70522  35.622  42.259   7.353
10587POPC   NC370523  33.018  37.646   5.553
10587POPC   PO470524  33.069  37.672   5.853
10587POPC   GL170525  32.987  37.689   6.153
10587POPC   GL270526  33.123  37.624   6.153
10587POPC   C1A70527  33.003  37.631   6.453
10587POPC   D2A70528  33.016  37.716   6.753
10587POPC   C3A70529  33.002  37.639   7.053
10587POPC   C4A70530  32.989  37.656   7.353
10587POPC   C1B70531  33.198  37.481   6.453
10587POPC   C2B70532  33.169  37.504   6.753
10587POPC   C3B70533  33.178  37.431   7.053
10587POPC   C4B70534  33.184  37.473   7.353
10588POPC   NC370535  15.214   1.964   5.553
10588POPC   PO470536  15.165   2.037   5.853
10588POPC   GL170537  15.223   1.999   6.153
10588POPC   GL270538  15.234   2.115   6.153
10588POPC   C1A70539  15.149   1.995   6.453
10588POPC   D2A70540  15.217   1.991   6.753
10588POPC   C3A70541  15.181   2.021   7.053
10588POPC   C4A70542  15.174   1.992   7.353
10588POPC   C1B70543  15.336   2.117   6.453
10588POPC   C2B70544  15.344   2.181   6.753
10588POPC   C3B70545  15.348   2.156   7.053
10588POPC   C4B70546  15.378   2.118   7.353
10589POPC   NC370547  30.746  39.201   5.553
10589POPC   PO470548  30.732  39.268   5.853
10589POPC   GL170549  30.733  39.193   6.153
10589POPC   GL270550  30.609  39.137   6.153
10589POPC   C1A70551  30.656  39.195   6.453
10589POPC   D2A70552  30.712  39.258   6.753
10589POPC   C3A70553  30.651  39.249   7.053
10589POPC   C4A70554  30.725  39.212   7.353
10589POPC   C1B70555  30.453  39.054   6.453
10589POPC   C2B70556  30.469  39.060   6.753
10589POPC   C3B70557  30.521  39.121   7.053
10589POPC   C4B70558  30.441  39.120   7.353
10590POPC   NC370559  19.042   2.815   5.553
10590POPC   PO470560  19.098   2.777   5.853
10590POPC   GL170561  19.012   2.791   6.153
10590POPC   GL270562  18.909   2.787   6.153
10590POPC   C1A70563  19.079   2.784   6.453
10590POPC   D2A70564  19.076   2.778   6.753
10590POPC   C3A70565  19.011   2.805   7.053
10590POPC   C4A70566  19.047   2.748   7.353
10590POPC   C1B70567  18.776   2.824   6.453
10590POPC   C2B70568  18.841   2.900   6.753
10590POPC   C3B70569  18.863   2.886   7.053
10590POPC   C4B70570  18.819   2.871   7.353
10591POPC   NC370571   8.926   6.649   5.553
10591POPC   PO470572   9.007   6.673   5.853
10591POPC   GL170573   8.962   6.645   6.153
10591POPC   GL270574   8.938   6.527   6.153
10591POPC   C1A70575   8.973   6.689   6.453
10591POPC   D2A70576   8.942   6.618   6.753
10591POPC   C3A70577   9.006   6.597   7.053
10591POPC   C4A70578   8.976   6.599   7.353
10591POPC   C1B70579   8.824   6.463   6.453
10591POPC   C2B70580   8.879   6.392   6.753
10591POPC   C3B70581   8.841   6.408   7.053
10591POPC   C4B70582   8.829   6.430   7.353
10592POPC   NC370583  42.342  36.139   5.553
10592POPC   PO470584  42.346  36.177   5.853
10592POPC   GL170585  42.318  36.139   6.153
10592POPC   GL270586  42.502  36.154   6.153
10592POPC   C1A70587  42.363  36.103   6.453
10592POPC   D2A70588  42.333  36.079   6.753
10592POPC   C3A70589  42.336  36.127   7.053
10592POPC   C4A70590  42.379  36.154   7.353
10592POPC   C1B70591  42.563  36.078   6.453
10592POPC   C2B70592  42.585  36.112   6.753
10592POPC   C3B70593  42.566  36.047   7.053
10592POPC   C4B70594  42.572  36.088   7.353
10593POPC   NC370595   7.461  16.780   5.553
10593POPC   PO470596   7.378  16.775   5.853
10593POPC   GL170597   7.419  16.756   6.153
10593POPC   GL270598   7.364  16.622   6.153
10593POPC   C1A70599   7.386  16.727   6.453
10593POPC   D2A70600   7.388  16.763   6.753
10593POPC   C3A70601   7.379  16.762   7.053
10593POPC   C4A70602   7.459  16.687   7.353
10593POPC   C1B70603   7.318  16.514   6.453
10593POPC   C2B70604   7.266  16.542   6.753
10593POPC   C3B70605   7.306  16.483   7.053
10593POPC   C4B70606   7.282  16.476   7.353
10594POPC   NC370607  39.973  20.657   5.553
10594POPC   PO470608  39.967  20.607   5.853
10594POPC   GL170609  39.969  20.594   6.153
10594POPC   GL270610  39.934  20.544   6.153
10594POPC   C1A70611  39.968  20.636   6.453
10594POPC   D2A70612  40.007  20.611   6.753
10594POPC   C3A70613  39.994  20.569   7.053
10594POPC   C4A70614  40.021  20.655   7.353
10594POPC   C1B70615  39.866  20.394   6.453
10594POPC   C2B70616  39.858  20.340   6.753
10594POPC   C3B70617  39.906  20.373   7.053
10594POPC   C4B70618  39.890  20.427   7.353
10595POPC   NC370619   2.809  30.724   5.553
10595POPC   PO470620   2.775  30.669   5.853
10595POPC   GL170621   2.782  30.710   6.153
10595POPC   GL270622   2.742  30.797   6.153
10595POPC   C1A70623   2.758  30.746   6.453
10595POPC   D2A70624   2.736  30.677   6.753
10595POPC   C3A70625   2.803  30.658   7.053
10595POPC   C4A70626   2.734  30.728   7.353
10595POPC   C1B70627   2.642  30.897   6.453
10595POPC   C2B70628   2.682  30.922   6.753
10595POPC   C3B70629   2.665  30.976   7.053
10595POPC   C4B70630   2.681  30.950   7.353
10596POPC   NC370631  26.088  19.787   5.553
10596POPC   PO470632  25.998  19.808   5.853
10596POPC   GL170633  26.068  19.863   6.153
10596POPC   GL270634  26.102  19.976   6.153
10596POPC   C1A70635  26.054  19.817   6.453
10596POPC   D2A70636  26.028  19.859   6.753
10596POPC   C3A70637  26.028  19.849   7.053
10596POPC   C4A70638  26.030  19.832   7.353
10596POPC   C1B70639  26.159  20.073   6.453
10596POPC   C2B70640  26.205  20.059   6.753
10596POPC   C3B70641  26.147  20.054   7.053
10596POPC   C4B70642  26.132  20.045   7.353
10597POPC   NC370643   5.893  12.030   5.553
10597POPC   PO470644   5.866  12.097   5.853
10597POPC   GL170645   5.901  12.088   6.153
10597POPC   GL270646   5.830  12.139   6.153
10597POPC   C1A70647   5.835  12.093   6.453
10597POPC   D2A70648   5.868  12.054   6.753
10597POPC   C3A70649   5.826  12.117   7.053
10597POPC   C4A70650   5.884  12.042   7.353
10597POPC   C1B70651   5.692  12.315   6.453
10597POPC   C2B70652   5.694  12.271   6.753
10597POPC   C3B70653   5.749  12.271   7.053
10597POPC   C4B70654   5.740  12.286   7.353
10598POPC   NC370655  18.245   5.848   5.553
10598POPC   PO470656  18.322   5.916   5.853
10598POPC   GL170657  18.248   5.863   6.153
10598POPC   GL270658  18.361   5.834   6.153
10598POPC   C1A70659  18.249   5.848   6.453
10598POPC   D2A70660  18.239   5.872   6.753
10598POPC   C3A70661  18.303   5.851   7.053
10598POPC   C4A70662  18.315   5.899   7.353
10598POPC   C1B70663  18.531   5.892   6.453
10598POPC   C2B70664  18.512   5.913   6.753
10598POPC   C3B70665  18.545   5.919   7.053
10598POPC   C4B70666  18.580   5.913   7.353
10599POPC   NC370667  42.362  11.295   5.553
10599POPC   PO470668  42.350  11.290   5.853
10599POPC   GL170669  42.355  11.325   6.153
10599POPC   GL270670  42.431  11.238   6.153
10599POPC   C1A70671  42.356  11.299   6.453
10599POPC   D2A70672  42.347  11.263   6.753
10599POPC   C3A70673  42.356  11.260   7.053
10599POPC   C4A70674  42.339  11.263   7.353
10599POPC   C1B70675  42.549  11.168   6.453
10599POPC   C2B70676  42.511  11.203   6.753
10599POPC   C3B70677  42.597  11.203   7.053
10599POPC   C4B70678  42.607  11.188   7.353
10600POPC   NC370679   7.429   5.862   5.553
10600POPC   PO470680   7.426   5.860   5.853
10600POPC   GL170681   7.377   5.860   6.153
10600POPC   GL270682   7.345   5.913   6.153
10600POPC   C1A70683   7.381   5.893   6.453
10600POPC   D2A70684   7.455   5.913   6.753
10600POPC   C3A70685   7.403   5.894   7.053
10600POPC   C4A70686   7.399   5.866   7.353
10600POPC   C1B70687   7.270   6.039   6.453
10600POPC   C2B70688   7.178   6.007   6.753
10600POPC   C3B70689   7.243   6.050   7.053
10600POPC   C4B70690   7.233   6.057   7.353
10601POPC   NC370691  23.740  40.813   5.553
10601POPC   PO470692  23.676  40.830   5.853
10601POPC   GL170693  23.692  40.816   6.153
10601POPC   GL270694  23.722  40.932   6.153
10601POPC   C1A70695  23.719  40.780   6.453
10601POPC   D2A70696  23.685  40.771   6.753
10601POPC   C3A70697  23.708  40.745   7.053
10601POPC   C4A70698  23.763  40.749   7.353
10601POPC   C1B70699  23.719  41.076   6.453
10601POPC   C2B70700  23.737  41.027   6.753
10601POPC   C3B70701  23.734  41.060   7.053
10601POPC   C4B70702  23.702  41.064   7.353
10602POPC   NC370703  14.451   3.519   5.553
10602POPC   PO470704  14.414   3.566   5.853
10602POPC   GL170705  14.423   3.506   6.153
10602POPC   GL270706  14.521   3.408   6.153
10602POPC   C1A70707  14.358   3.510   6.453
10602POPC   D2A70708  14.430   3.532   6.753
10602POPC   C3A70709  14.378   3.566   7.053
10602POPC   C4A70710  14.451   3.538   7.353
10602POPC   C1B70711  14.562   3.300   6.453
10602POPC   C2B70712  14.594   3.383   6.753
10602POPC   C3B70713  14.518   3.380   7.053
10602POPC   C4B70714  14.518   3.356   7.353
10603POPC   NC370715  37.668  25.280   5.553
10603POPC   PO470716  37.664  25.286   5.853
10603POPC   GL170717  37.630  25.286   6.153
10603POPC   GL270718  37.581  25.379   6.153
10603POPC   C1A70719  37.644  25.218   6.453
10603POPC   D2A70720  37.706  25.287   6.753
10603POPC   C3A70721  37.653  25.240   7.053
10603POPC   C4A70722  37.669  25.223   7.353
10603POPC   C1B70723  37.535  25.406   6.453
10603POPC   C2B70724  37.528  25.431   6.753
10603POPC   C3B70725  37.461  25.438   7.053
10603POPC   C4B70726  37.497  25.389   7.353
10604POPC   NC370727  36.175  36.142   5.553
10604POPC   PO470728  36.135  36.142   5.853
10604POPC   GL170729  36.117  36.079   6.153
10604POPC   GL270730  36.151  36.048   6.153
10604POPC   C1A70731  36.167  36.104   6.453
10604POPC   D2A70732  36.092  36.168   6.753
10604POPC   C3A70733  36.148  36.158   7.053
10604POPC   C4A70734  36.145  36.156   7.353
10604POPC   C1B70735  36.159  35.895   6.453
10604POPC   C2B70736  36.236  35.868   6.753
10604POPC   C3B70737  36.173  35.849   7.053
10604POPC   C4B70738  36.158  35.910   7.353
10605POPC   NC370739   5.852   1.201   5.553
10605POPC   PO470740   5.917   1.207   5.853
10605POPC   GL170741   5.835   1.212   6.153
10605POPC   GL270742   5.947   1.208   6.153
10605POPC   C1A70743   5.838   1.223   6.453
10605POPC   D2A70744   5.911   1.244   6.753
10605POPC   C3A70745   5.832   1.199   7.053
10605POPC   C4A70746   5.851   1.200   7.353
10605POPC   C1B70747   6.099   1.170   6.453
10605POPC   C2B70748   6.093   1.199   6.753
10605POPC   C3B70749   6.071   1.129   7.053
10605POPC   C4B70750   6.138   1.128   7.353
10606POPC   NC370751  39.226  31.496   5.553
10606POPC   PO470752  39.237  31.500   5.853
10606POPC   GL170753  39.230  31.449   6.153
10606POPC   GL270754  39.289  31.371   6.153
10606POPC   C1A70755  39.198  31.517   6.453
10606POPC   D2A70756  39.236  31.501   6.753
10606POPC   C3A70757  39.208  31.426   7.053
10606POPC   C4A70758  39.185  31.510   7.353
10606POPC   C1B70759  39.421  31.283   6.453
10606POPC   C2B70760  39.386  31.325   6.753
10606POPC   C3B70761  39.383  31.349   7.053
10606POPC   C4B70762  39.450  31.339   7.353
10607POPC   NC370763  18.307  29.155   5.553
10607POPC   PO470764  18.279  29.154   5.853
10607POPC   GL170765  18.312  29.107   6.153
10607POPC   GL270766  18.140  29.260   6.153
10607POPC   C1A70767  18.282  29.185   6.453
10607POPC   D2A70768  18.295  29.177   6.753
10607POPC   C3A70769  18.271  29.118   7.053
10607POPC   C4A70770  18.297  29.174   7.353
10607POPC   C1B70771  18.110  29.259   6.453
10607POPC   C2B70772  18.129  29.294   6.753
10607POPC   C3B70773  18.132  29.258   7.053
10607POPC   C4B70774  18.092  29.304   7.353
10608POPC   NC370775   6.635  15.228   5.553
10608POPC   PO470776   6.640  15.191   5.853
10608POPC   GL170777   6.693  15.199   6.153
10608POPC   GL270778   6.735  15.281   6.153
10608POPC   C1A70779   6.601  15.223   6.453
10608POPC   D2A70780   6.693  15.161   6.753
10608POPC   C3A70781   6.693  15.208   7.053
10608POPC   C4A70782   6.615  15.224   7.353
10608POPC   C1B70783   6.762  15.422   6.453
10608POPC   C2B70784   6.753  15.413   6.753
10608POPC   C3B70785   6.734  15.393   7.053
10608POPC   C4B70786   6.774  15.363   7.353
10609POPC   NC370787  36.128  43.120   5.553
10609POPC   PO470788  36.095  43.112   5.853
10609POPC   GL170789  36.137  43.065   6.153
10609POPC   GL270790  36.035  43.139   6.153
10609POPC   C1A70791  36.125  43.097   6.453
10609POPC   D2A70792  36.081  43.119   6.753
10609POPC   C3A70793  36.151  43.123   7.053
10609POPC   C4A70794  36.113  43.151   7.353
10609POPC   C1B70795  35.858  43.189   6.453
10609POPC   C2B70796  35.940  43.160   6.753
10609POPC   C3B70797  35.945  43.197   7.053
10609POPC   C4B70798  35.923  43.166   7.353
10610POPC   NC370799   8.184   1.998   5.553
10610POPC   PO470800   8.163   2.010   5.853
10610POPC   GL170801   8.231   2.018   6.153
10610POPC   GL270802   8.130   2.121   6.153
10610POPC   C1A70803   8.172   2.005   6.453
10610POPC   D2A70804   8.222   2.039   6.753
10610POPC   C3A70805   8.182   1.978   7.053
10610POPC   C4A70806   8.243   2.019   7.353
10610POPC   C1B70807   8.003   2.181   6.453
10610POPC   C2B70808   8.069   2.200   6.753
10610POPC   C3B70809   8.023   2.238   7.053
10610POPC   C4B70810   8.009   2.223   7.353
10611POPC   NC370811   1.989  29.168   5.553
10611POPC   PO470812   2.039  29.160   5.853
10611POPC   GL170813   2.039  29.141   6.153
10611POPC   GL270814   2.135  29.252   6.153
10611POPC   C1A70815   1.962  29.122   6.453
10611POPC   D2A70816   1.999  29.130   6.753
10611POPC   C3A70817   1.948  29.122   7.053
10611POPC   C4A70818   1.966  29.129   7.353
10611POPC   C1B70819   2.251  29.238   6.453
10611POPC   C2B70820   2.196  29.311   6.753
10611POPC   C3B70821   2.162  29.250   7.053
10611POPC   C4B70822   2.158  29.271   7.353
10612POPC   NC370823  12.829  31.478   5.553
10612POPC   PO470824  12.865  31.498   5.853
10612POPC   GL170825  12.895  31.440   6.153
10612POPC   GL270826  12.911  31.612   6.153
10612POPC   C1A70827  12.874  31.435   6.453
10612POPC   D2A70828  12.831  31.474   6.753
10612POPC   C3A70829  12.812  31.516   7.053
10612POPC   C4A70830  12.862  31.474   7.353
10612POPC   C1B70831  12.957  31.744   6.453
10612POPC   C2B70832  12.903  31.682   6.753
10612POPC   C3B70833  12.953  31.696   7.053
10612POPC   C4B70834  12.897  31.708   7.353
10613POPC   NC370835  40.033   6.637   5.553
10613POPC   PO470836  39.957   6.673   5.853
10613POPC   GL170837  39.957   6.609   6.153
10613POPC   GL270838  40.074   6.747   6.153
10613POPC   C1A70839  39.998   6.647   6.453
10613POPC   D2A70840  39.966   6.644   6.753
10613POPC   C3A70841  40.054   6.683   7.053
10613POPC   C4A70842  39.987   6.693   7.353
10613POPC   C1B70843  40.138   6.796   6.453
10613POPC   C2B70844  40.177   6.803   6.753
10613POPC   C3B70845  40.118   6.825   7.053
10613POPC   C4B70846  40.145   6.848   7.353
10614POPC   NC370847   4.328   6.677   5.553
10614POPC   PO470848   4.351   6.609   5.853
10614POPC   GL170849   4.316   6.628   6.153
10614POPC   GL270850   4.331   6.571   6.153
10614POPC   C1A70851   4.283   6.632   6.453
10614POPC   D2A70852   4.289   6.596   6.753
10614POPC   C3A70853   4.360   6.648   7.053
10614POPC   C4A70854   4.315   6.693   7.353
10614POPC   C1B70855   4.378   6.392   6.453
10614POPC   C2B70856   4.397   6.403   6.753
10614POPC   C3B70857   4.307   6.365   7.053
10614POPC   C4B70858   4.346   6.427   7.353
10615POPC   NC370859  24.467   2.026   5.553
10615POPC   PO470860  24.446   1.977   5.853
10615POPC   GL170861  24.466   2.019   6.153
10615POPC   GL270862  24.525   1.846   6.153
10615POPC   C1A70863  24.447   1.950   6.453
10615POPC   D2A70864  24.483   2.001   6.753
10615POPC   C3A70865  24.462   1.973   7.053
10615POPC   C4A70866  24.449   1.973   7.353
10615POPC   C1B70867  24.554   1.710   6.453
10615POPC   C2B70868  24.583   1.788   6.753
10615POPC   C3B70869  24.512   1.753   7.053
10615POPC   C4B70870  24.557   1.740   7.353
10616POPC   NC370871  27.637  19.039   5.553
10616POPC   PO470872  27.569  19.101   5.853
10616POPC   GL170873  27.623  19.041   6.153
10616POPC   GL270874  27.646  19.102   6.153
10616POPC   C1A70875  27.564  19.093   6.453
10616POPC   D2A70876  27.547  19.012   6.753
10616POPC   C3A70877  27.555  19.015   7.053
10616POPC   C4A70878  27.562  19.052   7.353
10616POPC   C1B70879  27.793  19.238   6.453
10616POPC   C2B70880  27.804  19.270   6.753
10616POPC   C3B70881  27.718  19.223   7.053
10616POPC   C4B70882  27.721  19.230   7.353
10617POPC   NC370883  10.496  12.818   5.553
10617POPC   PO470884  10.517  12.831   5.853
10617POPC   GL170885  10.562  12.832   6.153
10617POPC   GL270886  10.604  12.768   6.153
10617POPC   C1A70887  10.517  12.807   6.453
10617POPC   D2A70888  10.513  12.890   6.753
10617POPC   C3A70889  10.524  12.827   7.053
10617POPC   C4A70890  10.501  12.807   7.353
10617POPC   C1B70891  10.744  12.713   6.453
10617POPC   C2B70892  10.718  12.701   6.753
10617POPC   C3B70893  10.741  12.667   7.053
10617POPC   C4B70894  10.668  12.680   7.353
10618POPC   NC370895   9.002  43.066   5.553
10618POPC   PO470896   8.978  43.148   5.853
10618POPC   GL170897   8.946  43.142   6.153
10618POPC   GL270898   9.111  43.225   6.153
10618POPC   C1A70899   8.988  43.154   6.453
10618POPC   D2A70900   9.004  43.126   6.753
10618POPC   C3A70901   9.006  43.108   7.053
10618POPC   C4A70902   9.017  43.147   7.353
10618POPC   C1B70903   9.123  43.263   6.453
10618POPC   C2B70904   9.167  43.217   6.753
10618POPC   C3B70905   9.137  43.307   7.053
10618POPC   C4B70906   9.132  43.263   7.353
10619POPC   NC370907   5.881  24.469   5.553
10619POPC   PO470908   5.873  24.447   5.853
10619POPC   GL170909   5.865  24.442   6.153
10619POPC   GL270910   5.981  24.381   6.153
10619POPC   C1A70911   5.886  24.536   6.453
10619POPC   D2A70912   5.896  24.464   6.753
10619POPC   C3A70913   5.880  24.498   7.053
10619POPC   C4A70914   5.863  24.502   7.353
10619POPC   C1B70915   6.098  24.373   6.453
10619POPC   C2B70916   6.040  24.364   6.753
10619POPC   C3B70917   6.121  24.383   7.053
10619POPC   C4B70918   6.104  24.308   7.353
10620POPC   NC370919  33.784   9.000   5.553
10620POPC   PO470920  33.824   8.934   5.853
10620POPC   GL170921  33.781   8.942   6.153
10620POPC   GL270922  33.862   8.875   6.153
10620POPC   C1A70923  33.841   9.003   6.453
10620POPC   D2A70924  33.804   8.956   6.753
10620POPC   C3A70925  33.759   8.974   7.053
10620POPC   C4A70926  33.762   9.021   7.353
10620POPC   C1B70927  33.922   8.778   6.453
10620POPC   C2B70928  33.980   8.761   6.753
10620POPC   C3B70929  33.935   8.779   7.053
10620POPC   C4B70930  33.972   8.819   7.353
10621POPC   NC370931  41.594  41.516   5.553
10621POPC   PO470932  41.515  41.567   5.853
10621POPC   GL170933  41.558  41.519   6.153
10621POPC   GL270934  41.644  41.481   6.153
10621POPC   C1A70935  41.510  41.518   6.453
10621POPC   D2A70936  41.567  41.577   6.753
10621POPC   C3A70937  41.553  41.509   7.053
10621POPC   C4A70938  41.586  41.539   7.353
10621POPC   C1B70939  41.811  41.452   6.453
10621POPC   C2B70940  41.818  41.422   6.753
10621POPC   C3B70941  41.835  41.501   7.053
10621POPC   C4B70942  41.777  41.429   7.353
10622POPC   NC370943  12.826  33.821   5.553
10622POPC   PO470944  12.829  33.844   5.853
10622POPC   GL170945  12.852  33.827   6.153
10622POPC   GL270946  12.938  33.817   6.153
10622POPC   C1A70947  12.891  33.825   6.453
10622POPC   D2A70948  12.803  33.810   6.753
10622POPC   C3A70949  12.852  33.777   7.053
10622POPC   C4A70950  12.820  33.834   7.353
10622POPC   C1B70951  13.082  33.870   6.453
10622POPC   C2B70952  13.087  33.850   6.753
10622POPC   C3B70953  13.061  33.922   7.053
10622POPC   C4B70954  13.043  33.845   7.353
10623POPC   NC370955  25.241   0.430   5.553
10623POPC   PO470956  25.244   0.389   5.853
10623POPC   GL170957  25.300   0.479   6.153
10623POPC   GL270958  25.216   0.360   6.153
10623POPC   C1A70959  25.269   0.431   6.453
10623POPC   D2A70960  25.235   0.477   6.753
10623POPC   C3A70961  25.250   0.441   7.053
10623POPC   C4A70962  25.245   0.409   7.353
10623POPC   C1B70963  25.202   0.241   6.453
10623POPC   C2B70964  25.253   0.204   6.753
10623POPC   C3B70965  25.221   0.236   7.053
10623POPC   C4B70966  25.221   0.197   7.353
10624POPC   NC370967  16.700  38.477   5.553
10624POPC   PO470968  16.734  38.423   5.853
10624POPC   GL170969  16.707  38.446   6.153
10624POPC   GL270970  16.729  38.593   6.153
10624POPC   C1A70971  16.711  38.480   6.453
10624POPC   D2A70972  16.777  38.463   6.753
10624POPC   C3A70973  16.749  38.473   7.053
10624POPC   C4A70974  16.765  38.502   7.353
10624POPC   C1B70975  16.797  38.679   6.453
10624POPC   C2B70976  16.781  38.729   6.753
10624POPC   C3B70977  16.795  38.715   7.053
10624POPC   C4B70978  16.750  38.731   7.353
10625POPC   NC370979  19.801  28.371   5.553
10625POPC   PO470980  19.857  28.407   5.853
10625POPC   GL170981  19.802  28.372   6.153
10625POPC   GL270982  19.911  28.453   6.153
10625POPC   C1A70983  19.825  28.362   6.453
10625POPC   D2A70984  19.807  28.346   6.753
10625POPC   C3A70985  19.792  28.363   7.053
10625POPC   C4A70986  19.852  28.413   7.353
10625POPC   C1B70987  20.026  28.509   6.453
10625POPC   C2B70988  20.012  28.508   6.753
10625POPC   C3B70989  20.034  28.592   7.053
10625POPC   C4B70990  19.989  28.563   7.353
10626POPC   NC370991  23.679  18.275   5.553
10626POPC   PO470992  23.683  18.321   5.853
10626POPC   GL170993  23.709  18.250   6.153
10626POPC   GL270994  23.688  18.455   6.153
10626POPC   C1A70995  23.734  18.316   6.453
10626POPC   D2A70996  23.710  18.277   6.753
10626POPC   C3A70997  23.693  18.259   7.053
10626POPC   C4A70998  23.698  18.315   7.353
10626POPC   C1B70999  23.783  18.575   6.453
10626POPC   C2B71000  23.778  18.580   6.753
10626POPC   C3B71001  23.735  18.535   7.053
10626POPC   C4B71002  23.777  18.511   7.353
10627POPC   NC371003  34.539   8.941   5.553
10627POPC   PO471004  34.613   8.981   5.853
10627POPC   GL171005  34.532   8.977   6.153
10627POPC   GL271006  34.429   8.957   6.153
10627POPC   C1A71007  34.599   8.997   6.453
10627POPC   D2A71008  34.550   8.951   6.753
10627POPC   C3A71009  34.536   8.932   7.053
10627POPC   C4A71010  34.603   8.965   7.353
10627POPC   C1B71011  34.366   9.046   6.453
10627POPC   C2B71012  34.375   8.995   6.753
10627POPC   C3B71013  34.326   8.967   7.053
10627POPC   C4B71014  34.370   8.973   7.353
10628POPC   NC371015  12.060   8.178   5.553
10628POPC   PO471016  12.109   8.217   5.853
10628POPC   GL171017  12.118   8.163   6.153
10628POPC   GL271018  12.001   8.253   6.153
10628POPC   C1A71019  12.061   8.212   6.453
10628POPC   D2A71020  12.085   8.147   6.753
10628POPC   C3A71021  12.073   8.153   7.053
10628POPC   C4A71022  12.072   8.219   7.353
10628POPC   C1B71023  11.861   8.262   6.453
10628POPC   C2B71024  11.819   8.286   6.753
10628POPC   C3B71025  11.842   8.292   7.053
10628POPC   C4B71026  11.822   8.348   7.353
10629POPC   NC371027  43.145  27.643   5.553
10629POPC   PO471028  43.156  27.635   5.853
10629POPC   GL171029  43.078  27.587   6.153
10629POPC   GL271030  43.022  27.602   6.153
10629POPC   C1A71031  43.113  27.592   6.453
10629POPC   D2A71032  43.118  27.589   6.753
10629POPC   C3A71033  43.126  27.547   7.053
10629POPC   C4A71034  43.083  27.630   7.353
10629POPC   C1B71035  42.874  27.530   6.453
10629POPC   C2B71036  42.901  27.516   6.753
10629POPC   C3B71037  42.902  27.555   7.053
10629POPC   C4B71038  42.859  27.543   7.353
10630POPC   NC371039  17.535  32.991   5.553
10630POPC   PO471040  17.551  33.023   5.853
10630POPC   GL171041  17.545  33.032   6.153
10630POPC   GL271042  17.624  32.934   6.153
10630POPC   C1A71043  17.481  32.996   6.453
10630POPC   D2A71044  17.544  32.997   6.753
10630POPC   C3A71045  17.478  33.030   7.053
10630POPC   C4A71046  17.511  33.032   7.353
10630POPC   C1B71047  17.640  32.855   6.453
10630POPC   C2B71048  17.657  32.774   6.753
10630POPC   C3B71049  17.632  32.819   7.053
10630POPC   C4B71050  17.673  32.847   7.353
10631POPC   NC371051   8.199  37.693   5.553
10631POPC   PO471052   8.167  37.640   5.853
10631POPC   GL171053   8.168  37.664   6.153
10631POPC   GL271054   8.115  37.679   6.153
10631POPC   C1A71055   8.244  37.727   6.453
10631POPC   D2A71056   8.187  37.643   6.753
10631POPC   C3A71057   8.204  37.677   7.053
10631POPC   C4A71058   8.180  37.727   7.353
10631POPC   C1B71059   7.986  37.670   6.453
10631POPC   C2B71060   7.926  37.588   6.753
10631POPC   C3B71061   7.920  37.637   7.053
10631POPC   C4B71062   7.909  37.647   7.353
10632POPC   NC371063   4.342  15.996   5.553
10632POPC   PO471064   4.367  15.916   5.853
10632POPC   GL171065   4.340  15.907   6.153
10632POPC   GL271066   4.469  16.032   6.153
10632POPC   C1A71067   4.288  15.935   6.453
10632POPC   D2A71068   4.274  15.987   6.753
10632POPC   C3A71069   4.303  15.961   7.053
10632POPC   C4A71070   4.308  15.998   7.353
10632POPC   C1B71071   4.571  15.996   6.453
10632POPC   C2B71072   4.593  16.053   6.753
10632POPC   C3B71073   4.548  16.031   7.053
10632POPC   C4B71074   4.591  16.029   7.353
10633POPC   NC371075  44.703  24.454   5.553
10633POPC   PO471076  44.653  24.510   5.853
10633POPC   GL171077  44.639  24.529   6.153
10633POPC   GL271078  44.621  24.418   6.153
10633POPC   C1A71079  44.640  24.478   6.453
10633POPC   D2A71080  44.654  24.470   6.753
10633POPC   C3A71081  44.621  24.452   7.053
10633POPC   C4A71082  44.670  24.440   7.353
10633POPC   C1B71083  44.557  24.270   6.453
10633POPC   C2B71084  44.645  24.272   6.753
10633POPC   C3B71085  44.634  24.284   7.053
10633POPC   C4B71086  44.564  24.246   7.353
10634POPC   NC371087  33.069  23.727   5.553
10634POPC   PO471088  33.072  23.691   5.853
10634POPC   GL171089  33.056  23.747   6.153
10634POPC   GL271090  32.942  23.742   6.153
10634POPC   C1A71091  33.018  23.714   6.453
10634POPC   D2A71092  33.006  23.705   6.753
10634POPC   C3A71093  33.062  23.730   7.053
10634POPC   C4A71094  33.010  23.739   7.353
10634POPC   C1B71095  32.770  23.721   6.453
10634POPC   C2B71096  32.758  23.697   6.753
10634POPC   C3B71097  32.809  23.761   7.053
10634POPC   C4B71098  32.820  23.763   7.353
10635POPC   NC371099  41.532   9.013   5.553
10635POPC   PO471100  41.522   8.928   5.853
10635POPC   GL171101  41.581   8.933   6.153
10635POPC   GL271102  41.467   8.846   6.153
10635POPC   C1A71103  41.565   8.993   6.453
10635POPC   D2A71104  41.531   8.948   6.753
10635POPC   C3A71105  41.549   9.014   7.053
10635POPC   C4A71106  41.600   8.927   7.353
10635POPC   C1B71107  41.354   8.844   6.453
10635POPC   C2B71108  41.335   8.820   6.753
10635POPC   C3B71109  41.416   8.782   7.053
10635POPC   C4B71110  41.402   8.798   7.353
10636POPC   NC371111  37.713   9.008   5.553
10636POPC   PO471112  37.630   8.956   5.853
10636POPC   GL171113  37.705   8.956   6.153
10636POPC   GL271114  37.664   8.810   6.153
10636POPC   C1A71115  37.694   8.948   6.453
10636POPC   D2A71116  37.670   8.975   6.753
10636POPC   C3A71117  37.653   9.009   7.053
10636POPC   C4A71118  37.726   8.985   7.353
10636POPC   C1B71119  37.638   8.763   6.453
10636POPC   C2B71120  37.667   8.701   6.753
10636POPC   C3B71121  37.656   8.699   7.053
10636POPC   C4B71122  37.686   8.681   7.353
10637POPC   NC371123   5.827  25.266   5.553
10637POPC   PO471124   5.856  25.246   5.853
10637POPC   GL171125   5.852  25.281   6.153
10637POPC   GL271126   5.867  25.409   6.153
10637POPC   C1A71127   5.889  25.266   6.453
10637POPC   D2A71128   5.895  25.306   6.753
10637POPC   C3A71129   5.908  25.269   7.053
10637POPC   C4A71130   5.905  25.266   7.353
10637POPC   C1B71131   5.830  25.471   6.453
10637POPC   C2B71132   5.765  25.539   6.753
10637POPC   C3B71133   5.816  25.523   7.053
10637POPC   C4B71134   5.769  25.478   7.353
10638POPC   NC371135  19.063  40.804   5.553
10638POPC   PO471136  19.098  40.769   5.853
10638POPC   GL171137  19.094  40.800   6.153
10638POPC   GL271138  19.052  40.643   6.153
10638POPC   C1A71139  19.061  40.833   6.453
10638POPC   D2A71140  19.102  40.739   6.753
10638POPC   C3A71141  19.104  40.777   7.053
10638POPC   C4A71142  19.060  40.816   7.353
10638POPC   C1B71143  19.085  40.497   6.453
10638POPC   C2B71144  19.031  40.569   6.753
10638POPC   C3B71145  19.122  40.568   7.053
10638POPC   C4B71146  19.075  40.536   7.353
10639POPC   NC371147  34.620  21.381   5.553
10639POPC   PO471148  34.575  21.382   5.853
10639POPC   GL171149  34.585  21.399   6.153
10639POPC   GL271150  34.410  21.411   6.153
10639POPC   C1A71151  34.612  21.400   6.453
10639POPC   D2A71152  34.535  21.436   6.753
10639POPC   C3A71153  34.539  21.436   7.053
10639POPC   C4A71154  34.578  21.341   7.353
10639POPC   C1B71155  34.334  21.451   6.453
10639POPC   C2B71156  34.364  21.459   6.753
10639POPC   C3B71157  34.327  21.436   7.053
10639POPC   C4B71158  34.298  21.466   7.353
10640POPC   NC371159   0.434  40.004   5.553
10640POPC   PO471160   0.455  39.988   5.853
10640POPC   GL171161   0.484  40.005   6.153
10640POPC   GL271162   0.298  40.091   6.153
10640POPC   C1A71163   0.401  40.045   6.453
10640POPC   D2A71164   0.475  40.051   6.753
10640POPC   C3A71165   0.421  39.980   7.053
10640POPC   C4A71166   0.469  39.978   7.353
10640POPC   C1B71167   0.245  40.127   6.453
10640POPC   C2B71168   0.245  40.220   6.753
10640POPC   C3B71169   0.279  40.131   7.053
10640POPC   C4B71170   0.285  40.152   7.353
10641POPC   NC371171  25.266  16.707   5.553
10641POPC   PO471172  25.241  16.681   5.853
10641POPC   GL171173  25.292  16.727   6.153
10641POPC   GL271174  25.389  16.762   6.153
10641POPC   C1A71175  25.244  16.755   6.453
10641POPC   D2A71176  25.260  16.716   6.753
10641POPC   C3A71177  25.305  16.707   7.053
10641POPC   C4A71178  25.314  16.735   7.353
10641POPC   C1B71179  25.506  16.838   6.453
10641POPC   C2B71180  25.507  16.839   6.753
10641POPC   C3B71181  25.459  16.890   7.053
10641POPC   C4B71182  25.417  16.853   7.353
10642POPC   NC371183   9.796  44.657   5.553
10642POPC   PO471184   9.761  44.706   5.853
10642POPC   GL171185   9.753  44.684   6.153
10642POPC   GL271186   9.823  44.580   6.153
10642POPC   C1A71187   9.755  44.667   6.453
10642POPC   D2A71188   9.725  44.674   6.753
10642POPC   C3A71189   9.763  44.709   7.053
10642POPC   C4A71190   9.790  44.679   7.353
10642POPC   C1B71191   9.913  44.444   6.453
10642POPC   C2B71192   9.902  44.460   6.753
10642POPC   C3B71193   9.967  44.470   7.053
10642POPC   C4B71194   9.948  44.491   7.353
10643POPC   NC371195  25.311  43.879   5.553
10643POPC   PO471196  25.230  43.857   5.853
10643POPC   GL171197  25.280  43.846   6.153
10643POPC   GL271198  25.346  43.783   6.153
10643POPC   C1A71199  25.280  43.855   6.453
10643POPC   D2A71200  25.255  43.918   6.753
10643POPC   C3A71201  25.227  43.889   7.053
10643POPC   C4A71202  25.276  43.931   7.353
10643POPC   C1B71203  25.411  43.727   6.453
10643POPC   C2B71204  25.434  43.653   6.753
10643POPC   C3B71205  25.453  43.710   7.053
10643POPC   C4B71206  25.473  43.721   7.353
10644POPC   NC371207  26.791  29.951   5.553
10644POPC   PO471208  26.786  29.884   5.853
10644POPC   GL171209  26.837  29.887   6.153
10644POPC   GL271210  26.877  29.810   6.153
10644POPC   C1A71211  26.792  29.888   6.453
10644POPC   D2A71212  26.841  29.912   6.753
10644POPC   C3A71213  26.831  29.927   7.053
10644POPC   C4A71214  26.805  29.960   7.353
10644POPC   C1B71215  27.066  29.756   6.453
10644POPC   C2B71216  27.068  29.796   6.753
10644POPC   C3B71217  27.052  29.844   7.053
10644POPC   C4B71218  27.061  29.810   7.353
10645POPC   NC371219  34.602  36.866   5.553
10645POPC   PO471220  34.603  36.902   5.853
10645POPC   GL171221  34.554  36.899   6.153
10645POPC   GL271222  34.730  36.957   6.153
10645POPC   C1A71223  34.533  36.943   6.453
10645POPC   D2A71224  34.596  36.902   6.753
10645POPC   C3A71225  34.597  36.899   7.053
10645POPC   C4A71226  34.594  36.885   7.353
10645POPC   C1B71227  34.749  37.046   6.453
10645POPC   C2B71228  34.811  36.983   6.753
10645POPC   C3B71229  34.811  37.020   7.053
10645POPC   C4B71230  34.786  37.050   7.353
10646POPC   NC371231  12.805   5.832   5.553
10646POPC   PO471232  12.888   5.906   5.853
10646POPC   GL171233  12.863   5.877   6.153
10646POPC   GL271234  12.841   5.789   6.153
10646POPC   C1A71235  12.844   5.889   6.453
10646POPC   D2A71236  12.846   5.864   6.753
10646POPC   C3A71237  12.806   5.866   7.053
10646POPC   C4A71238  12.864   5.906   7.353
10646POPC   C1B71239  12.815   5.579   6.453
10646POPC   C2B71240  12.872   5.603   6.753
10646POPC   C3B71241  12.809   5.642   7.053
10646POPC   C4B71242  12.865   5.633   7.353
10647POPC   NC371243  33.039  38.441   5.553
10647POPC   PO471244  33.017  38.434   5.853
10647POPC   GL171245  33.048  38.417   6.153
10647POPC   GL271246  33.051  38.361   6.153
10647POPC   C1A71247  33.053  38.429   6.453
10647POPC   D2A71248  33.072  38.406   6.753
10647POPC   C3A71249  32.996  38.465   7.053
10647POPC   C4A71250  33.045  38.440   7.353
10647POPC   C1B71251  33.106  38.177   6.453
10647POPC   C2B71252  33.126  38.255   6.753
10647POPC   C3B71253  33.152  38.187   7.053
10647POPC   C4B71254  33.147  38.191   7.353
10648POPC   NC371255   5.823  43.888   5.553
10648POPC   PO471256   5.918  43.880   5.853
10648POPC   GL171257   5.884  43.886   6.153
10648POPC   GL271258   5.787  43.952   6.153
10648POPC   C1A71259   5.902  43.890   6.453
10648POPC   D2A71260   5.903  43.901   6.753
10648POPC   C3A71261   5.904  43.878   7.053
10648POPC   C4A71262   5.895  43.898   7.353
10648POPC   C1B71263   5.737  44.099   6.453
10648POPC   C2B71264   5.691  44.075   6.753
10648POPC   C3B71265   5.744  44.067   7.053
10648POPC   C4B71266   5.700  44.068   7.353
10649POPC   NC371267   3.534  17.473   5.553
10649POPC   PO471268   3.588  17.487   5.853
10649POPC   GL171269   3.530  17.524   6.153
10649POPC   GL271270   3.478  17.564   6.153
10649POPC   C1A71271   3.569  17.500   6.453
10649POPC   D2A71272   3.539  17.484   6.753
10649POPC   C3A71273   3.523  17.458   7.053
10649POPC   C4A71274   3.573  17.459   7.353
10649POPC   C1B71275   3.372  17.721   6.453
10649POPC   C2B71276   3.385  17.723   6.753
10649POPC   C3B71277   3.337  17.659   7.053
10649POPC   C4B71278   3.375  17.687   7.353
10650POPC   NC371279  32.240  19.805   5.553
10650POPC   PO471280  32.200  19.859   5.853
10650POPC   GL171281  32.249  19.785   6.153
10650POPC   GL271282  32.089  19.876   6.153
10650POPC   C1A71283  32.237  19.869   6.453
10650POPC   D2A71284  32.226  19.804   6.753
10650POPC   C3A71285  32.254  19.800   7.053
10650POPC   C4A71286  32.218  19.806   7.353
10650POPC   C1B71287  32.055  19.907   6.453
10650POPC   C2B71288  32.045  19.968   6.753
10650POPC   C3B71289  31.983  19.894   7.053
10650POPC   C4B71290  32.054  19.913   7.353
10651POPC   NC371291   5.068  33.802   5.553
10651POPC   PO471292   5.100  33.816   5.853
10651POPC   GL171293   5.092  33.759   6.153
10651POPC   GL271294   4.971  33.770   6.153
10651POPC   C1A71295   5.098  33.834   6.453
10651POPC   D2A71296   5.057  33.779   6.753
10651POPC   C3A71297   5.069  33.825   7.053
10651POPC   C4A71298   5.127  33.844   7.353
10651POPC   C1B71299   4.842  33.792   6.453
10651POPC   C2B71300   4.873  33.846   6.753
10651POPC   C3B71301   4.844  33.758   7.053
10651POPC   C4B71302   4.841  33.767   7.353
10652POPC   NC371303  44.673   1.943   5.553
10652POPC   PO471304  44.696   2.027   5.853
10652POPC   GL171305  44.699   1.955   6.153
10652POPC   GL271306  44.571   2.104   6.153
10652POPC   C1A71307  44.675   1.966   6.453
10652POPC   D2A71308  44.633   2.016   6.753
10652POPC   C3A71309  44.677   1.956   7.053
10652POPC   C4A71310  44.645   2.003   7.353
10652POPC   C1B71311  44.450   2.157   6.453
10652POPC   C2B71312  44.438   2.191   6.753
10652POPC   C3B71313  44.510   2.104   7.053
10652POPC   C4B71314  44.420   2.114   7.353
10653POPC   NC371315  19.794  30.648   5.553
10653POPC   PO471316  19.861  30.658   5.853
10653POPC   GL171317  19.801  30.715   6.153
10653POPC   GL271318  19.867  30.850   6.153
10653POPC   C1A71319  19.815  30.673   6.453
10653POPC   D2A71320  19.880  30.678   6.753
10653POPC   C3A71321  19.862  30.719   7.053
10653POPC   C4A71322  19.807  30.666   7.353
10653POPC   C1B71323  19.844  30.964   6.453
10653POPC   C2B71324  19.914  30.898   6.753
10653POPC   C3B71325  19.862  30.982   7.053
10653POPC   C4B71326  19.849  30.969   7.353
10654POPC   NC371327  37.633  35.398   5.553
10654POPC   PO471328  37.719  35.384   5.853
10654POPC   GL171329  37.681  35.385   6.153
10654POPC   GL271330  37.587  35.297   6.153
10654POPC   C1A71331  37.718  35.319   6.453
10654POPC   D2A71332  37.728  35.386   6.753
10654POPC   C3A71333  37.644  35.348   7.053
10654POPC   C4A71334  37.654  35.330   7.353
10654POPC   C1B71335  37.461  35.194   6.453
10654POPC   C2B71336  37.544  35.206   6.753
10654POPC   C3B71337  37.543  35.156   7.053
10654POPC   C4B71338  37.478  35.207   7.353
10655POPC   NC371339   7.394  40.773   5.553
10655POPC   PO471340   7.458  40.776   5.853
10655POPC   GL171341   7.418  40.778   6.153
10655POPC   GL271342   7.528  40.725   6.153
10655POPC   C1A71343   7.387  40.821   6.453
10655POPC   D2A71344   7.376  40.802   6.753
10655POPC   C3A71345   7.416  40.761   7.053
10655POPC   C4A71346   7.386  40.762   7.353
10655POPC   C1B71347   7.571  40.649   6.453
10655POPC   C2B71348   7.577  40.608   6.753
10655POPC   C3B71349   7.588  40.593   7.053
10655POPC   C4B71350   7.659  40.657   7.353
10656POPC   NC371351  12.047  36.882   5.553
10656POPC   PO471352  12.097  36.904   5.853
10656POPC   GL171353  12.093  36.936   6.153
10656POPC   GL271354  11.951  36.981   6.153
10656POPC   C1A71355  12.083  36.873   6.453
10656POPC   D2A71356  12.048  36.864   6.753
10656POPC   C3A71357  12.085  36.933   7.053
10656POPC   C4A71358  12.028  36.860   7.353
10656POPC   C1B71359  11.882  37.052   6.453
10656POPC   C2B71360  11.837  37.022   6.753
10656POPC   C3B71361  11.864  37.085   7.053
10656POPC   C4B71362  11.893  37.087   7.353
10657POPC   NC371363  10.499  26.001   5.553
10657POPC   PO471364  10.518  26.052   5.853
10657POPC   GL171365  10.498  26.035   6.153
10657POPC   GL271366  10.522  26.205   6.153
10657POPC   C1A71367  10.534  26.000   6.453
10657POPC   D2A71368  10.543  26.056   6.753
10657POPC   C3A71369  10.519  26.064   7.053
10657POPC   C4A71370  10.502  26.029   7.353
10657POPC   C1B71371  10.590  26.335   6.453
10657POPC   C2B71372  10.553  26.267   6.753
10657POPC   C3B71373  10.557  26.313   7.053
10657POPC   C4B71374  10.576  26.255   7.353
10658POPC   NC371375   8.934  26.084   5.553
10658POPC   PO471376   8.927  26.032   5.853
10658POPC   GL171377   8.928  26.025   6.153
10658POPC   GL271378   8.995  26.126   6.153
10658POPC   C1A71379   9.015  26.021   6.453
10658POPC   D2A71380   9.007  26.070   6.753
10658POPC   C3A71381   8.955  26.056   7.053
10658POPC   C4A71382   8.992  26.081   7.353
10658POPC   C1B71383   8.934  26.289   6.453
10658POPC   C2B71384   8.904  26.337   6.753
10658POPC   C3B71385   8.962  26.258   7.053
10658POPC   C4B71386   8.981  26.331   7.353
10659POPC   NC371387  38.486   5.083   5.553
10659POPC   PO471388  38.436   5.096   5.853
10659POPC   GL171389  38.416   5.047   6.153
10659POPC   GL271390  38.473   4.949   6.153
10659POPC   C1A71391  38.446   5.043   6.453
10659POPC   D2A71392  38.499   5.142   6.753
10659POPC   C3A71393  38.413   5.050   7.053
10659POPC   C4A71394  38.411   5.052   7.353
10659POPC   C1B71395  38.564   4.855   6.453
10659POPC   C2B71396  38.579   4.885   6.753
10659POPC   C3B71397  38.583   4.835   7.053
10659POPC   C4B71398  38.535   4.875   7.353
10660POPC   NC371399  21.346  19.036   5.553
10660POPC   PO471400  21.376  19.055   5.853
10660POPC   GL171401  21.354  19.105   6.153
10660POPC   GL271402  21.311  18.991   6.153
10660POPC   C1A71403  21.404  19.063   6.453
10660POPC   D2A71404  21.388  19.083   6.753
10660POPC   C3A71405  21.368  19.103   7.053
10660POPC   C4A71406  21.367  19.056   7.353
10660POPC   C1B71407  21.294  18.825   6.453
10660POPC   C2B71408  21.221  18.821   6.753
10660POPC   C3B71409  21.285  18.869   7.053
10660POPC   C4B71410  21.293  18.820   7.353
10661POPC   NC371411  35.304  32.266   5.553
10661POPC   PO471412  35.399  32.262   5.853
10661POPC   GL171413  35.309  32.235   6.153
10661POPC   GL271414  35.288  32.375   6.153
10661POPC   C1A71415  35.402  32.243   6.453
10661POPC   D2A71416  35.337  32.217   6.753
10661POPC   C3A71417  35.335  32.297   7.053
10661POPC   C4A71418  35.353  32.257   7.353
10661POPC   C1B71419  35.216  32.461   6.453
10661POPC   C2B71420  35.180  32.495   6.753
10661POPC   C3B71421  35.179  32.485   7.053
10661POPC   C4B71422  35.190  32.416   7.353
10662POPC   NC371423   1.194   3.570   5.553
10662POPC   PO471424   1.209   3.510   5.853
10662POPC   GL171425   1.213   3.566   6.153
10662POPC   GL271426   1.164   3.425   6.153
10662POPC   C1A71427   1.231   3.493   6.453
10662POPC   D2A71428   1.217   3.591   6.753
10662POPC   C3A71429   1.226   3.569   7.053
10662POPC   C4A71430   1.165   3.522   7.353
10662POPC   C1B71431   1.218   3.340   6.453
10662POPC   C2B71432   1.226   3.269   6.753
10662POPC   C3B71433   1.143   3.254   7.053
10662POPC   C4B71434   1.224   3.296   7.353
10663POPC   NC371435  16.001  29.891   5.553
10663POPC   PO471436  15.919  29.949   5.853
10663POPC   GL171437  15.907  29.963   6.153
10663POPC   GL271438  15.869  29.993   6.153
10663POPC   C1A71439  15.912  29.926   6.453
10663POPC   D2A71440  16.003  29.886   6.753
10663POPC   C3A71441  15.986  29.969   7.053
10663POPC   C4A71442  15.968  29.929   7.353
10663POPC   C1B71443  15.731  30.103   6.453
10663POPC   C2B71444  15.796  30.048   6.753
10663POPC   C3B71445  15.727  30.088   7.053
10663POPC   C4B71446  15.780  30.065   7.353
10664POPC   NC371447   4.322   7.385   5.553
10664POPC   PO471448   4.309   7.419   5.853
10664POPC   GL171449   4.276   7.394   6.153
10664POPC   GL271450   4.277   7.559   6.153
10664POPC   C1A71451   4.352   7.396   6.453
10664POPC   D2A71452   4.341   7.395   6.753
10664POPC   C3A71453   4.318   7.432   7.053
10664POPC   C4A71454   4.339   7.454   7.353
10664POPC   C1B71455   4.134   7.586   6.453
10664POPC   C2B71456   4.123   7.613   6.753
10664POPC   C3B71457   4.113   7.567   7.053
10664POPC   C4B71458   4.142   7.575   7.353
10665POPC   NC371459   1.956  31.479   5.553
10665POPC   PO471460   1.968  31.464   5.853
10665POPC   GL171461   1.955  31.464   6.153
10665POPC   GL271462   2.075  31.511   6.153
10665POPC   C1A71463   1.957  31.469   6.453
10665POPC   D2A71464   2.003  31.428   6.753
10665POPC   C3A71465   2.008  31.483   7.053
10665POPC   C4A71466   1.963  31.517   7.353
10665POPC   C1B71467   2.192  31.666   6.453
10665POPC   C2B71468   2.139  31.612   6.753
10665POPC   C3B71469   2.163  31.626   7.053
10665POPC   C4B71470   2.174  31.638   7.353
10666POPC   NC371471   8.226  26.848   5.553
10666POPC   PO471472   8.227  26.790   5.853
10666POPC   GL171473   8.173  26.780   6.153
10666POPC   GL271474   8.335  26.796   6.153
10666POPC   C1A71475   8.149  26.828   6.453
10666POPC   D2A71476   8.195  26.773   6.753
10666POPC   C3A71477   8.152  26.847   7.053
10666POPC   C4A71478   8.205  26.789   7.353
10666POPC   C1B71479   8.417  26.863   6.453
10666POPC   C2B71480   8.476  26.868   6.753
10666POPC   C3B71481   8.396  26.874   7.053
10666POPC   C4B71482   8.494  26.828   7.353
10667POPC   NC371483   8.234  28.332   5.553
10667POPC   PO471484   8.226  28.400   5.853
10667POPC   GL171485   8.233  28.396   6.153
10667POPC   GL271486   8.079  28.427   6.153
10667POPC   C1A71487   8.150  28.408   6.453
10667POPC   D2A71488   8.152  28.406   6.753
10667POPC   C3A71489   8.240  28.363   7.053
10667POPC   C4A71490   8.174  28.378   7.353
10667POPC   C1B71491   7.979  28.547   6.453
10667POPC   C2B71492   7.980  28.497   6.753
10667POPC   C3B71493   8.029  28.545   7.053
10667POPC   C4B71494   7.975  28.556   7.353
10668POPC   NC371495  34.596  13.644   5.553
10668POPC   PO471496  34.613  13.663   5.853
10668POPC   GL171497  34.625  13.579   6.153
10668POPC   GL271498  34.513  13.560   6.153
10668POPC   C1A71499  34.545  13.604   6.453
10668POPC   D2A71500  34.578  13.623   6.753
10668POPC   C3A71501  34.558  13.673   7.053
10668POPC   C4A71502  34.595  13.617   7.353
10668POPC   C1B71503  34.311  13.557   6.453
10668POPC   C2B71504  34.326  13.491   6.753
10668POPC   C3B71505  34.404  13.477   7.053
10668POPC   C4B71506  34.306  13.534   7.353
10669POPC   NC371507  27.639  10.538   5.553
10669POPC   PO471508  27.596  10.496   5.853
10669POPC   GL171509  27.639  10.496   6.153
10669POPC   GL271510  27.689  10.670   6.153
10669POPC   C1A71511  27.572  10.486   6.453
10669POPC   D2A71512  27.629  10.502   6.753
10669POPC   C3A71513  27.602  10.478   7.053
10669POPC   C4A71514  27.603  10.564   7.353
10669POPC   C1B71515  27.749  10.771   6.453
10669POPC   C2B71516  27.768  10.703   6.753
10669POPC   C3B71517  27.752  10.771   7.053
10669POPC   C4B71518  27.776  10.684   7.353
10670POPC   NC371519   1.989   4.292   5.553
10670POPC   PO471520   1.999   4.272   5.853
10670POPC   GL171521   2.029   4.301   6.153
10670POPC   GL271522   2.133   4.334   6.153
10670POPC   C1A71523   2.016   4.332   6.453
10670POPC   D2A71524   2.015   4.366   6.753
10670POPC   C3A71525   1.961   4.276   7.053
10670POPC   C4A71526   1.949   4.300   7.353
10670POPC   C1B71527   2.278   4.405   6.453
10670POPC   C2B71528   2.208   4.359   6.753
10670POPC   C3B71529   2.248   4.375   7.053
10670POPC   C4B71530   2.221   4.343   7.353
10671POPC   NC371531  33.057  28.324   5.553
10671POPC   PO471532  33.059  28.409   5.853
10671POPC   GL171533  32.995  28.384   6.153
10671POPC   GL271534  33.102  28.383   6.153
10671POPC   C1A71535  32.985  28.377   6.453
10671POPC   D2A71536  33.069  28.346   6.753
10671POPC   C3A71537  32.977  28.398   7.053
10671POPC   C4A71538  33.030  28.383   7.353
10671POPC   C1B71539  33.310  28.302   6.453
10671POPC   C2B71540  33.224  28.371   6.753
10671POPC   C3B71541  33.299  28.319   7.053
10671POPC   C4B71542  33.299  28.345   7.353
10672POPC   NC371543  39.969  42.366   5.553
10672POPC   PO471544  39.963  42.287   5.853
10672POPC   GL171545  40.019  42.339   6.153
10672POPC   GL271546  39.960  42.184   6.153
10672POPC   C1A71547  39.969  42.352   6.453
10672POPC   D2A71548  39.998  42.337   6.753
10672POPC   C3A71549  40.013  42.357   7.053
10672POPC   C4A71550  39.994  42.358   7.353
10672POPC   C1B71551  39.950  42.056   6.453
10672POPC   C2B71552  39.911  42.071   6.753
10672POPC   C3B71553  39.933  42.152   7.053
10672POPC   C4B71554  39.939  42.149   7.353
10673POPC   NC371555   1.941  11.270   5.553
10673POPC   PO471556   1.983  11.304   5.853
10673POPC   GL171557   1.965  11.288   6.153
10673POPC   GL271558   1.998  11.384   6.153
10673POPC   C1A71559   2.005  11.330   6.453
10673POPC   D2A71560   2.035  11.295   6.753
10673POPC   C3A71561   1.966  11.308   7.053
10673POPC   C4A71562   1.966  11.261   7.353
10673POPC   C1B71563   1.966  11.557   6.453
10673POPC   C2B71564   1.954  11.528   6.753
10673POPC   C3B71565   1.996  11.530   7.053
10673POPC   C4B71566   1.971  11.557   7.353
10674POPC   NC371567   8.163   0.426   5.553
10674POPC   PO471568   8.152   0.441   5.853
10674POPC   GL171569   8.201   0.461   6.153
10674POPC   GL271570   8.160   0.561   6.153
10674POPC   C1A71571   8.230   0.416   6.453
10674POPC   D2A71572   8.150   0.445   6.753
10674POPC   C3A71573   8.227   0.445   7.053
10674POPC   C4A71574   8.168   0.465   7.353
10674POPC   C1B71575   8.109   0.695   6.453
10674POPC   C2B71576   8.073   0.677   6.753
10674POPC   C3B71577   8.094   0.691   7.053
10674POPC   C4B71578   8.127   0.657   7.353
10675POPC   NC371579   1.257   5.055   5.553
10675POPC   PO471580   1.181   5.111   5.853
10675POPC   GL171581   1.196   5.088   6.153
10675POPC   GL271582   1.368   5.079   6.153
10675POPC   C1A71583   1.254   5.089   6.453
10675POPC   D2A71584   1.182   5.110   6.753
10675POPC   C3A71585   1.189   5.143   7.053
10675POPC   C4A71586   1.218   5.102   7.353
10675POPC   C1B71587   1.461   5.082   6.453
10675POPC   C2B71588   1.503   5.080   6.753
10675POPC   C3B71589   1.476   5.030   7.053
10675POPC   C4B71590   1.444   5.087   7.353
10676POPC   NC371591  14.389  31.467   5.553
10676POPC   PO471592  14.419  31.520   5.853
10676POPC   GL171593  14.446  31.488   6.153
10676POPC   GL271594  14.391  31.337   6.153
10676POPC   C1A71595  14.402  31.445   6.453
10676POPC   D2A71596  14.360  31.493   6.753
10676POPC   C3A71597  14.404  31.457   7.053
10676POPC   C4A71598  14.354  31.431   7.353
10676POPC   C1B71599  14.410  31.246   6.453
10676POPC   C2B71600  14.464  31.225   6.753
10676POPC   C3B71601  14.381  31.183   7.053
10676POPC   C4B71602  14.450  31.180   7.353
10677POPC   NC371603  21.386  10.495   5.553
10677POPC   PO471604  21.364  10.564   5.853
10677POPC   GL171605  21.399  10.564   6.153
10677POPC   GL271606  21.462  10.543   6.153
10677POPC   C1A71607  21.358  10.572   6.453
10677POPC   D2A71608  21.418  10.507   6.753
10677POPC   C3A71609  21.404  10.498   7.053
10677POPC   C4A71610  21.352  10.519   7.353
10677POPC   C1B71611  21.675  10.483   6.453
10677POPC   C2B71612  21.652  10.443   6.753
10677POPC   C3B71613  21.607  10.494   7.053
10677POPC   C4B71614  21.585  10.509   7.353
10678POPC   NC371615   1.200  27.619   5.553
10678POPC   PO471616   1.252  27.599   5.853
10678POPC   GL171617   1.184  27.603   6.153
10678POPC   GL271618   1.115  27.639   6.153
10678POPC   C1A71619   1.228  27.580   6.453
10678POPC   D2A71620   1.172  27.555   6.753
10678POPC   C3A71621   1.192  27.630   7.053
10678POPC   C4A71622   1.211  27.611   7.353
10678POPC   C1B71623   0.983  27.768   6.453
10678POPC   C2B71624   0.974  27.746   6.753
10678POPC   C3B71625   0.974  27.731   7.053
10678POPC   C4B71626   1.037  27.724   7.353
10679POPC   NC371627   1.216  14.373   5.553
10679POPC   PO471628   1.203  14.438   5.853
10679POPC   GL171629   1.250  14.410   6.153
10679POPC   GL271630   1.046  14.426   6.153
10679POPC   C1A71631   1.179  14.397   6.453
10679POPC   D2A71632   1.171  14.369   6.753
10679POPC   C3A71633   1.213  14.386   7.053
10679POPC   C4A71634   1.251  14.388   7.353
10679POPC   C1B71635   0.961  14.417   6.453
10679POPC   C2B71636   0.925  14.460   6.753
10679POPC   C3B71637   0.964  14.474   7.053
10679POPC   C4B71638   0.995  14.483   7.353
10680POPC   NC371639  43.921  41.522   5.553
10680POPC   PO471640  43.873  41.571   5.853
10680POPC   GL171641  43.867  41.569   6.153
10680POPC   GL271642  43.871  41.659   6.153
10680POPC   C1A71643  43.899  41.588   6.453
10680POPC   D2A71644  43.921  41.589   6.753
10680POPC   C3A71645  43.866  41.604   7.053
10680POPC   C4A71646  43.914  41.530   7.353
10680POPC   C1B71647  43.806  41.791   6.453
10680POPC   C2B71648  43.815  41.801   6.753
10680POPC   C3B71649  43.867  41.795   7.053
10680POPC   C4B71650  43.850  41.849   7.353
10681POPC   NC371651  44.630  15.156   5.553
10681POPC   PO471652  44.651  15.159   5.853
10681POPC   GL171653  44.659  15.210   6.153
10681POPC   GL271654  44.618  15.048   6.153
10681POPC   C1A71655  44.619  15.208   6.453
10681POPC   D2A71656  44.652  15.185   6.753
10681POPC   C3A71657  44.623  15.201   7.053
10681POPC   C4A71658  44.704  15.201   7.353
10681POPC   C1B71659  44.532  14.967   6.453
10681POPC   C2B71660  44.493  14.998   6.753
10681POPC   C3B71661  44.483  14.974   7.053
10681POPC   C4B71662  44.524  14.957   7.353
10682POPC   NC371663  36.167  24.488   5.553
10682POPC   PO471664  36.149  24.445   5.853
10682POPC   GL171665  36.154  24.440   6.153
10682POPC   GL271666  36.123  24.406   6.153
10682POPC   C1A71667  36.078  24.489   6.453
10682POPC   D2A71668  36.088  24.456   6.753
10682POPC   C3A71669  36.170  24.453   7.053
10682POPC   C4A71670  36.171  24.524   7.353
10682POPC   C1B71671  36.163  24.278   6.453
10682POPC   C2B71672  36.161  24.222   6.753
10682POPC   C3B71673  36.230  24.287   7.053
10682POPC   C4B71674  36.252  24.277   7.353
10683POPC   NC371675  29.943  16.687   5.553
10683POPC   PO471676  29.939  16.722   5.853
10683POPC   GL171677  29.876  16.752   6.153
10683POPC   GL271678  29.971  16.572   6.153
10683POPC   C1A71679  29.943  16.722   6.453
10683POPC   D2A71680  29.915  16.736   6.753
10683POPC   C3A71681  29.923  16.729   7.053
10683POPC   C4A71682  29.917  16.718   7.353
10683POPC   C1B71683  30.076  16.553   6.453
10683POPC   C2B71684  30.023  16.483   6.753
10683POPC   C3B71685  30.013  16.525   7.053
10683POPC   C4B71686  30.057  16.528   7.353
10684POPC   NC371687  29.922  17.478   5.553
10684POPC   PO471688  29.906  17.509   5.853
10684POPC   GL171689  29.905  17.475   6.153
10684POPC   GL271690  30.045  17.562   6.153
10684POPC   C1A71691  29.905  17.511   6.453
10684POPC   D2A71692  29.944  17.494   6.753
10684POPC   C3A71693  29.968  17.543   7.053
10684POPC   C4A71694  29.882  17.484   7.353
10684POPC   C1B71695  30.151  17.573   6.453
10684POPC   C2B71696  30.172  17.585   6.753
10684POPC   C3B71697  30.142  17.569   7.053
10684POPC   C4B71698  30.132  17.574   7.353
10685POPC   NC371699  36.915   9.017   5.553
10685POPC   PO471700  36.940   8.961   5.853
10685POPC   GL171701  36.949   8.958   6.153
10685POPC   GL271702  36.994   8.992   6.153
10685POPC   C1A71703  36.867   9.013   6.453
10685POPC   D2A71704  36.868   8.934   6.753
10685POPC   C3A71705  36.889   8.942   7.053
10685POPC   C4A71706  36.874   8.936   7.353
10685POPC   C1B71707  37.140   8.979   6.453
10685POPC   C2B71708  37.199   9.009   6.753
10685POPC   C3B71709  37.168   8.947   7.053
10685POPC   C4B71710  37.111   8.937   7.353
10686POPC   NC371711  35.304   6.650   5.553
10686POPC   PO471712  35.365   6.641   5.853
10686POPC   GL171713  35.325   6.661   6.153
10686POPC   GL271714  35.188   6.679   6.153
10686POPC   C1A71715  35.316   6.605   6.453
10686POPC   D2A71716  35.358   6.672   6.753
10686POPC   C3A71717  35.375   6.644   7.053
10686POPC   C4A71718  35.322   6.677   7.353
10686POPC   C1B71719  35.107   6.736   6.453
10686POPC   C2B71720  35.101   6.791   6.753
10686POPC   C3B71721  35.078   6.754   7.053
10686POPC   C4B71722  35.105   6.756   7.353
10687POPC   NC371723   5.919   5.905   5.553
10687POPC   PO471724   5.838   5.890   5.853
10687POPC   GL171725   5.842   5.876   6.153
10687POPC   GL271726   5.880   5.790   6.153
10687POPC   C1A71727   5.860   5.895   6.453
10687POPC   D2A71728   5.901   5.858   6.753
10687POPC   C3A71729   5.837   5.853   7.053
10687POPC   C4A71730   5.823   5.822   7.353
10687POPC   C1B71731   5.813   5.672   6.453
10687POPC   C2B71732   5.789   5.631   6.753
10687POPC   C3B71733   5.834   5.614   7.053
10687POPC   C4B71734   5.772   5.654   7.353
10688POPC   NC371735  35.342  24.514   5.553
10688POPC   PO471736  35.322  24.450   5.853
10688POPC   GL171737  35.319  24.448   6.153
10688POPC   GL271738  35.348  24.422   6.153
10688POPC   C1A71739  35.372  24.507   6.453
10688POPC   D2A71740  35.369  24.509   6.753
10688POPC   C3A71741  35.322  24.531   7.053
10688POPC   C4A71742  35.372  24.464   7.353
10688POPC   C1B71743  35.298  24.209   6.453
10688POPC   C2B71744  35.252  24.208   6.753
10688POPC   C3B71745  35.261  24.271   7.053
10688POPC   C4B71746  35.294  24.302   7.353
10689POPC   NC371747  36.950  26.833   5.553
10689POPC   PO471748  36.881  26.861   5.853
10689POPC   GL171749  36.879  26.863   6.153
10689POPC   GL271750  36.953  26.691   6.153
10689POPC   C1A71751  36.920  26.846   6.453
10689POPC   D2A71752  36.936  26.786   6.753
10689POPC   C3A71753  36.894  26.864   7.053
10689POPC   C4A71754  36.899  26.780   7.353
10689POPC   C1B71755  37.078  26.677   6.453
10689POPC   C2B71756  37.051  26.607   6.753
10689POPC   C3B71757  37.056  26.658   7.053
10689POPC   C4B71758  37.069  26.659   7.353
10690POPC   NC371759   5.121  19.015   5.553
10690POPC   PO471760   5.066  19.025   5.853
10690POPC   GL171761   5.099  19.014   6.153
10690POPC   GL271762   5.023  19.150   6.153
10690POPC   C1A71763   5.078  19.084   6.453
10690POPC   D2A71764   5.052  19.102   6.753
10690POPC   C3A71765   5.067  19.057   7.053
10690POPC   C4A71766   5.051  19.068   7.353
10690POPC   C1B71767   4.910  19.185   6.453
10690POPC   C2B71768   4.897  19.195   6.753
10690POPC   C3B71769   4.832  19.207   7.053
10690POPC   C4B71770   4.904  19.172   7.353
10691POPC   NC371771  32.210   6.595   5.553
10691POPC   PO471772  32.218   6.620   5.853
10691POPC   GL171773  32.246   6.601   6.153
10691POPC   GL271774  32.134   6.678   6.153
10691POPC   C1A71775  32.286   6.656   6.453
10691POPC   D2A71776  32.250   6.603   6.753
10691POPC   C3A71777  32.201   6.608   7.053
10691POPC   C4A71778  32.273   6.683   7.353
10691POPC   C1B71779  31.957   6.623   6.453
10691POPC   C2B71780  31.992   6.618   6.753
10691POPC   C3B71781  32.009   6.623   7.053
10691POPC   C4B71782  31.984   6.667   7.353
10692POPC   NC371783  20.568  12.860   5.553
10692POPC   PO471784  20.596  12.887   5.853
10692POPC   GL171785  20.598  12.823   6.153
10692POPC   GL271786  20.627  12.705   6.153
10692POPC   C1A71787  20.653  12.876   6.453
10692POPC   D2A71788  20.655  12.834   6.753
10692POPC   C3A71789  20.575  12.827   7.053
10692POPC   C4A71790  20.629  12.879   7.353
10692POPC   C1B71791  20.616  12.554   6.453
10692POPC   C2B71792  20.560  12.561   6.753
10692POPC   C3B71793  20.600  12.610   7.053
10692POPC   C4B71794  20.600  12.570   7.353
10693POPC   NC371795  33.762  36.085   5.553
10693POPC   PO471796  33.753  36.132   5.853
10693POPC   GL171797  33.837  36.156   6.153
10693POPC   GL271798  33.908  36.142   6.153
10693POPC   C1A71799  33.833  36.111   6.453
10693POPC   D2A71800  33.840  36.163   6.753
10693POPC   C3A71801  33.823  36.122   7.053
10693POPC   C4A71802  33.763  36.124   7.353
10693POPC   C1B71803  34.057  36.091   6.453
10693POPC   C2B71804  34.040  36.020   6.753
10693POPC   C3B71805  34.034  36.013   7.053
10693POPC   C4B71806  34.005  36.053   7.353
10694POPC   NC371807   5.887  23.725   5.553
10694POPC   PO471808   5.868  23.744   5.853
10694POPC   GL171809   5.915  23.670   6.153
10694POPC   GL271810   5.895  23.630   6.153
10694POPC   C1A71811   5.833  23.744   6.453
10694POPC   D2A71812   5.824  23.735   6.753
10694POPC   C3A71813   5.827  23.759   7.053
10694POPC   C4A71814   5.840  23.754   7.353
10694POPC   C1B71815   5.820  23.505   6.453
10694POPC   C2B71816   5.807  23.480   6.753
10694POPC   C3B71817   5.884  23.513   7.053
10694POPC   C4B71818   5.888  23.491   7.353
10695POPC   NC371819  40.775  26.858   5.553
10695POPC   PO471820  40.784  26.854   5.853
10695POPC   GL171821  40.736  26.789   6.153
10695POPC   GL271822  40.724  26.704   6.153
10695POPC   C1A71823  40.805  26.859   6.453
10695POPC   D2A71824  40.780  26.787   6.753
10695POPC   C3A71825  40.733  26.823   7.053
10695POPC   C4A71826  40.813  26.823   7.353
10695POPC   C1B71827  40.709  26.593   6.453
10695POPC   C2B71828  40.735  26.601   6.753
10695POPC   C3B71829  40.721  26.617   7.053
10695POPC   C4B71830  40.676  26.560   7.353
10696POPC   NC371831  36.107  29.182   5.553
10696POPC   PO471832  36.114  29.129   5.853
10696POPC   GL171833  36.130  29.146   6.153
10696POPC   GL271834  35.972  29.136   6.153
10696POPC   C1A71835  36.104  29.146   6.453
10696POPC   D2A71836  36.105  29.177   6.753
10696POPC   C3A71837  36.171  29.126   7.053
10696POPC   C4A71838  36.142  29.192   7.353
10696POPC   C1B71839  35.844  29.126   6.453
10696POPC   C2B71840  35.869  29.099   6.753
10696POPC   C3B71841  35.841  29.132   7.053
10696POPC   C4B71842  35.895  29.164   7.353
10697POPC   NC371843  19.035  29.959   5.553
10697POPC   PO471844  19.081  29.871   5.853
10697POPC   GL171845  19.043  29.904   6.153
10697POPC   GL271846  18.934  29.826   6.153
10697POPC   C1A71847  19.028  29.969   6.453
10697POPC   D2A71848  19.085  29.962   6.753
10697POPC   C3A71849  19.104  29.934   7.053
10697POPC   C4A71850  19.021  29.900   7.353
10697POPC   C1B71851  18.794  29.824   6.453
10697POPC   C2B71852  18.787  29.858   6.753
10697POPC   C3B71853  18.803  29.801   7.053
10697POPC   C4B71854  18.799  29.773   7.353
10698POPC   NC371855   8.999   7.440   5.553
10698POPC   PO471856   8.987   7.375   5.853
10698POPC   GL171857   9.000   7.466   6.153
10698POPC   GL271858   8.887   7.322   6.153
10698POPC   C1A71859   8.988   7.469   6.453
10698POPC   D2A71860   8.993   7.398   6.753
10698POPC   C3A71861   9.019   7.387   7.053
10698POPC   C4A71862   8.966   7.377   7.353
10698POPC   C1B71863   8.752   7.322   6.453
10698POPC   C2B71864   8.795   7.281   6.753
10698POPC   C3B71865   8.755   7.294   7.053
10698POPC   C4B71866   8.761   7.306   7.353
10699POPC   NC371867  18.281  15.919   5.553
10699POPC   PO471868  18.294  15.977   5.853
10699POPC   GL171869  18.272  15.991   6.153
10699POPC   GL271870  18.434  15.849   6.153
10699POPC   C1A71871  18.254  15.967   6.453
10699POPC   D2A71872  18.264  15.912   6.753
10699POPC   C3A71873  18.256  15.918   7.053
10699POPC   C4A71874  18.272  15.968   7.353
10699POPC   C1B71875  18.509  15.842   6.453
10699POPC   C2B71876  18.540  15.864   6.753
10699POPC   C3B71877  18.479  15.806   7.053
10699POPC   C4B71878  18.495  15.804   7.353
10700POPC   NC371879  40.777  15.198   5.553
10700POPC   PO471880  40.817  15.201   5.853
10700POPC   GL171881  40.781  15.197   6.153
10700POPC   GL271882  40.730  15.104   6.153
10700POPC   C1A71883  40.801  15.172   6.453
10700POPC   D2A71884  40.734  15.229   6.753
10700POPC   C3A71885  40.801  15.186   7.053
10700POPC   C4A71886  40.777  15.207   7.353
10700POPC   C1B71887  40.584  15.034   6.453
10700POPC   C2B71888  40.627  15.009   6.753
10700POPC   C3B71889  40.638  15.040   7.053
10700POPC   C4B71890  40.647  14.953   7.353
10701POPC   NC371891   5.914  10.517   5.553
10701POPC   PO471892   5.919  10.570   5.853
10701POPC   GL171893   5.875  10.477   6.153
10701POPC   GL271894   5.937  10.432   6.153
10701POPC   C1A71895   5.868  10.538   6.453
10701POPC   D2A71896   5.887  10.485   6.753
10701POPC   C3A71897   5.832  10.502   7.053
10701POPC   C4A71898   5.866  10.499   7.353
10701POPC   C1B71899   5.930  10.277   6.453
10701POPC   C2B71900   5.931  10.245   6.753
10701POPC   C3B71901   5.916  10.288   7.053
10701POPC   C4B71902   5.993  10.242   7.353
10702POPC   NC371903  19.034  15.907   5.553
10702POPC   PO471904  19.103  15.943   5.853
10702POPC   GL171905  19.088  15.935   6.153
10702POPC   GL271906  18.983  15.829   6.153
10702POPC   C1A71907  19.080  15.910   6.453
10702POPC   D2A71908  19.035  15.930   6.753
10702POPC   C3A71909  19.021  15.933   7.053
10702POPC   C4A71910  19.047  15.941   7.353
10702POPC   C1B71911  18.916  15.777   6.453
10702POPC   C2B71912  18.852  15.772   6.753
10702POPC   C3B71913  18.904  15.752   7.053
10702POPC   C4B71914  18.862  15.791   7.353
10703POPC   NC371915   3.551  41.569   5.553
10703POPC   PO471916   3.562  41.525   5.853
10703POPC   GL171917   3.521  41.594   6.153
10703POPC   GL271918   3.671  41.509   6.153
10703POPC   C1A71919   3.589  41.602   6.453
10703POPC   D2A71920   3.553  41.600   6.753
10703POPC   C3A71921   3.526  41.545   7.053
10703POPC   C4A71922   3.584  41.555   7.353
10703POPC   C1B71923   3.733  41.399   6.453
10703POPC   C2B71924   3.706  41.419   6.753
10703POPC   C3B71925   3.716  41.424   7.053
10703POPC   C4B71926   3.679  41.393   7.353
10704POPC   NC371927   4.311   8.984   5.553
10704POPC   PO471928   4.345   8.953   5.853
10704POPC   GL171929   4.313   8.939   6.153
10704POPC   GL271930   4.488   9.045   6.153
10704POPC   C1A71931   4.336   8.953   6.453
10704POPC   D2A71932   4.288   8.995   6.753
10704POPC   C3A71933   4.353   8.944   7.053
10704POPC   C4A71934   4.356   8.934   7.353
10704POPC   C1B71935   4.535   9.011   6.453
10704POPC   C2B71936   4.589   9.008   6.753
10704POPC   C3B71937   4.604   9.025   7.053
10704POPC   C4B71938   4.545   9.051   7.353
10705POPC   NC371939  19.096   3.495   5.553
10705POPC   PO471940  19.082   3.513   5.853
10705POPC   GL171941  19.028   3.566   6.153
10705POPC   GL271942  18.915   3.509   6.153
10705POPC   C1A71943  19.076   3.569   6.453
10705POPC   D2A71944  19.097   3.586   6.753
10705POPC   C3A71945  19.058   3.542   7.053
10705POPC   C4A71946  19.018   3.547   7.353
10705POPC   C1B71947  18.815   3.487   6.453
10705POPC   C2B71948  18.789   3.409   6.753
10705POPC   C3B71949  18.806   3.395   7.053
10705POPC   C4B71950  18.828   3.465   7.353
10706POPC   NC371951  37.666  20.602   5.553
10706POPC   PO471952  37.704  20.590   5.853
10706POPC   GL171953  37.700  20.608   6.153
10706POPC   GL271954  37.758  20.606   6.153
10706POPC   C1A71955  37.727  20.564   6.453
10706POPC   D2A71956  37.644  20.647   6.753
10706POPC   C3A71957  37.640  20.641   7.053
10706POPC   C4A71958  37.666  20.590   7.353
10706POPC   C1B71959  37.955  20.645   6.453
10706POPC   C2B71960  37.883  20.648   6.753
10706POPC   C3B71961  37.883  20.616   7.053
10706POPC   C4B71962  37.942  20.612   7.353
10707POPC   NC371963   9.725  12.886   5.553
10707POPC   PO471964   9.760  12.858   5.853
10707POPC   GL171965   9.711  12.890   6.153
10707POPC   GL271966   9.915  12.839   6.153
10707POPC   C1A71967   9.725  12.825   6.453
10707POPC   D2A71968   9.784  12.808   6.753
10707POPC   C3A71969   9.725  12.848   7.053
10707POPC   C4A71970   9.753  12.829   7.353
10707POPC   C1B71971   9.982  12.795   6.453
10707POPC   C2B71972   9.999  12.871   6.753
10707POPC   C3B71973   9.971  12.829   7.053
10707POPC   C4B71974  10.009  12.799   7.353
10708POPC   NC371975   1.245   1.253   5.553
10708POPC   PO471976   1.178   1.238   5.853
10708POPC   GL171977   1.250   1.191   6.153
10708POPC   GL271978   1.335   1.282   6.153
10708POPC   C1A71979   1.258   1.225   6.453
10708POPC   D2A71980   1.243   1.179   6.753
10708POPC   C3A71981   1.252   1.172   7.053
10708POPC   C4A71982   1.184   1.229   7.353
10708POPC   C1B71983   1.418   1.344   6.453
10708POPC   C2B71984   1.460   1.276   6.753
10708POPC   C3B71985   1.475   1.271   7.053
10708POPC   C4B71986   1.478   1.314   7.353
10709POPC   NC371987   4.363   3.556   5.553
10709POPC   PO471988   4.296   3.503   5.853
10709POPC   GL171989   4.336   3.569   6.153
10709POPC   GL271990   4.285   3.699   6.153
10709POPC   C1A71991   4.334   3.498   6.453
10709POPC   D2A71992   4.353   3.588   6.753
10709POPC   C3A71993   4.354   3.523   7.053
10709POPC   C4A71994   4.331   3.589   7.353
10709POPC   C1B71995   4.276   3.805   6.453
10709POPC   C2B71996   4.281   3.748   6.753
10709POPC   C3B71997   4.299   3.815   7.053
10709POPC   C4B71998   4.333   3.807   7.353
10710POPC   NC371999  39.978  43.889   5.553
10710POPC   PO472000  40.002  43.846   5.853
10710POPC   GL172001  40.038  43.908   6.153
10710POPC   GL272002  39.938  43.890   6.153
10710POPC   C1A72003  40.035  43.851   6.453
10710POPC   D2A72004  39.973  43.843   6.753
10710POPC   C3A72005  39.989  43.885   7.053
10710POPC   C4A72006  40.011  43.881   7.353
10710POPC   C1B72007  39.746  43.924   6.453
10710POPC   C2B72008  39.763  43.955   6.753
10710POPC   C3B72009  39.819  43.979   7.053
10710POPC   C4B72010  39.749  43.965   7.353
10711POPC   NC372011   5.064  39.998   5.553
10711POPC   PO472012   5.114  39.986   5.853
10711POPC   GL172013   5.111  40.046   6.153
10711POPC   GL272014   5.141  40.134   6.153
10711POPC   C1A72015   5.089  40.004   6.453
10711POPC   D2A72016   5.052  39.991   6.753
10711POPC   C3A72017   5.064  40.050   7.053
10711POPC   C4A72018   5.069  40.052   7.353
10711POPC   C1B72019   5.245  40.239   6.453
10711POPC   C2B72020   5.166  40.240   6.753
10711POPC   C3B72021   5.235  40.194   7.053
10711POPC   C4B72022   5.251  40.241   7.353
10712POPC   NC372023   5.090  27.611   5.553
10712POPC   PO472024   5.074  27.559   5.853
10712POPC   GL172025   5.050  27.616   6.153
10712POPC   GL272026   5.094  27.505   6.153
10712POPC   C1A72027   5.079  27.631   6.453
10712POPC   D2A72028   5.096  27.617   6.753
10712POPC   C3A72029   5.136  27.544   7.053
10712POPC   C4A72030   5.112  27.551   7.353
10712POPC   C1B72031   5.171  27.355   6.453
10712POPC   C2B72032   5.133  27.354   6.753
10712POPC   C3B72033   5.088  27.333   7.053
10712POPC   C4B72034   5.120  27.393   7.353
10713POPC   NC372035  10.540  36.935   5.553
10713POPC   PO472036  10.532  36.869   5.853
10713POPC   GL172037  10.574  36.878   6.153
10713POPC   GL272038  10.400  36.860   6.153
10713POPC   C1A72039  10.501  36.928   6.453
10713POPC   D2A72040  10.530  36.918   6.753
10713POPC   C3A72041  10.549  36.899   7.053
10713POPC   C4A72042  10.536  36.881   7.353
10713POPC   C1B72043  10.254  36.924   6.453
10713POPC   C2B72044  10.287  36.826   6.753
10713POPC   C3B72045  10.230  36.894   7.053
10713POPC   C4B72046  10.317  36.871   7.353
10714POPC   NC372047  17.544  36.916   5.553
10714POPC   PO472048  17.522  36.933   5.853
10714POPC   GL172049  17.533  36.872   6.153
10714POPC   GL272050  17.556  36.827   6.153
10714POPC   C1A72051  17.468  36.926   6.453
10714POPC   D2A72052  17.523  36.923   6.753
10714POPC   C3A72053  17.497  36.902   7.053
10714POPC   C4A72054  17.514  36.890   7.353
10714POPC   C1B72055  17.639  36.726   6.453
10714POPC   C2B72056  17.643  36.728   6.753
10714POPC   C3B72057  17.630  36.736   7.053
10714POPC   C4B72058  17.723  36.709   7.353
10715POPC   NC372059  43.846  35.368   5.553
10715POPC   PO472060  43.916  35.342   5.853
10715POPC   GL172061  43.841  35.355   6.153
10715POPC   GL272062  43.741  35.311   6.153
10715POPC   C1A72063  43.920  35.385   6.453
10715POPC   D2A72064  43.873  35.373   6.753
10715POPC   C3A72065  43.844  35.351   7.053
10715POPC   C4A72066  43.903  35.376   7.353
10715POPC   C1B72067  43.613  35.215   6.453
10715POPC   C2B72068  43.694  35.262   6.753
10715POPC   C3B72069  43.693  35.284   7.053
10715POPC   C4B72070  43.611  35.247   7.353
10716POPC   NC372071   5.112  24.450   5.553
10716POPC   PO472072   5.060  24.497   5.853
10716POPC   GL172073   5.091  24.477   6.153
10716POPC   GL272074   5.040  24.537   6.153
10716POPC   C1A72075   5.116  24.456   6.453
10716POPC   D2A72076   5.138  24.539   6.753
10716POPC   C3A72077   5.057  24.458   7.053
10716POPC   C4A72078   5.092  24.453   7.353
10716POPC   C1B72079   4.907  24.690   6.453
10716POPC   C2B72080   4.888  24.653   6.753
10716POPC   C3B72081   4.967  24.644   7.053
10716POPC   C4B72082   4.873  24.717   7.353
10717POPC   NC372083  33.755  22.131   5.553
10717POPC   PO472084  33.807  22.181   5.853
10717POPC   GL172085  33.791  22.179   6.153
10717POPC   GL272086  33.734  22.220   6.153
10717POPC   C1A72087  33.817  22.208   6.453
10717POPC   D2A72088  33.774  22.185   6.753
10717POPC   C3A72089  33.820  22.139   7.053
10717POPC   C4A72090  33.757  22.120   7.353
10717POPC   C1B72091  33.632  22.305   6.453
10717POPC   C2B72092  33.580  22.249   6.753
10717POPC   C3B72093  33.569  22.319   7.053
10717POPC   C4B72094  33.618  22.275   7.353
10718POPC   NC372095  10.480   5.086   5.553
10718POPC   PO472096  10.492   5.108   5.853
10718POPC   GL172097  10.528   5.085   6.153
10718POPC   GL272098  10.610   5.183   6.153
10718POPC   C1A72099  10.545   5.107   6.453
10718POPC   D2A72100  10.523   5.070   6.753
10718POPC   C3A72101  10.548   5.128   7.053
10718POPC   C4A72102  10.527   5.110   7.353
10718POPC   C1B72103  10.774   5.208   6.453
10718POPC   C2B72104  10.739   5.205   6.753
10718POPC   C3B72105  10.731   5.128   7.053
10718POPC   C4B72106  10.752   5.204   7.353
10719POPC   NC372107  35.394  28.384   5.553
10719POPC   PO472108  35.358  28.343   5.853
10719POPC   GL172109  35.349  28.361   6.153
10719POPC   GL272110  35.248  28.446   6.153
10719POPC   C1A72111  35.339  28.409   6.453
10719POPC   D2A72112  35.375  28.325   6.753
10719POPC   C3A72113  35.385  28.356   7.053
10719POPC   C4A72114  35.379  28.350   7.353
10719POPC   C1B72115  35.144  28.570   6.453
10719POPC   C2B72116  35.229  28.573   6.753
10719POPC   C3B72117  35.176  28.540   7.053
10719POPC   C4B72118  35.193  28.559   7.353
10720POPC   NC372119  16.690   8.971   5.553
10720POPC   PO472120  16.738   8.944   5.853
10720POPC   GL172121  16.740   8.979   6.153
10720POPC   GL272122  16.647   8.878   6.153
10720POPC   C1A72123  16.774   8.934   6.453
10720POPC   D2A72124  16.690   9.006   6.753
10720POPC   C3A72125  16.710   8.949   7.053
10720POPC   C4A72126  16.706   9.008   7.353
10720POPC   C1B72127  16.460   8.898   6.453
10720POPC   C2B72128  16.455   8.867   6.753
10720POPC   C3B72129  16.520   8.835   7.053
10720POPC   C4B72130  16.520   8.894   7.353
10721POPC   NC372131  26.820  43.930   5.553
10721POPC   PO472132  26.851  43.863   5.853
10721POPC   GL172133  26.788  43.871   6.153
10721POPC   GL272134  26.861  43.808   6.153
10721POPC   C1A72135  26.862  43.928   6.453
10721POPC   D2A72136  26.791  43.842   6.753
10721POPC   C3A72137  26.827  43.935   7.053
10721POPC   C4A72138  26.772  43.852   7.353
10721POPC   C1B72139  26.976  43.614   6.453
10721POPC   C2B72140  26.969  43.670   6.753
10721POPC   C3B72141  26.957  43.694   7.053
10721POPC   C4B72142  26.887  43.634   7.353
10722POPC   NC372143  37.675  27.610   5.553
10722POPC   PO472144  37.691  27.564   5.853
10722POPC   GL172145  37.672  27.640   6.153
10722POPC   GL272146  37.687  27.438   6.153
10722POPC   C1A72147  37.647  27.598   6.453
10722POPC   D2A72148  37.666  27.621   6.753
10722POPC   C3A72149  37.709  27.634   7.053
10722POPC   C4A72150  37.707  27.553   7.353
10722POPC   C1B72151  37.646  27.312   6.453
10722POPC   C2B72152  37.587  27.320   6.753
10722POPC   C3B72153  37.676  27.355   7.053
10722POPC   C4B72154  37.605  27.384   7.353
10723POPC   NC372155  36.912   5.903   5.553
10723POPC   PO472156  36.943   5.896   5.853
10723POPC   GL172157  36.931   5.899   6.153
10723POPC   GL272158  36.932   5.999   6.153
10723POPC   C1A72159  36.915   5.886   6.453
10723POPC   D2A72160  36.912   5.909   6.753
10723POPC   C3A72161  36.894   5.863   7.053
10723POPC   C4A72162  36.931   5.834   7.353
10723POPC   C1B72163  36.915   6.103   6.453
10723POPC   C2B72164  36.916   6.092   6.753
10723POPC   C3B72165  36.914   6.167   7.053
10723POPC   C4B72166  36.861   6.167   7.353
10724POPC   NC372167  29.136  39.223   5.553
10724POPC   PO472168  29.107  39.196   5.853
10724POPC   GL172169  29.130  39.185   6.153
10724POPC   GL272170  29.114  39.139   6.153
10724POPC   C1A72171  29.187  39.183   6.453
10724POPC   D2A72172  29.126  39.227   6.753
10724POPC   C3A72173  29.131  39.223   7.053
10724POPC   C4A72174  29.178  39.260   7.353
10724POPC   C1B72175  29.038  39.041   6.453
10724POPC   C2B72176  28.989  38.962   6.753
10724POPC   C3B72177  29.005  39.052   7.053
10724POPC   C4B72178  29.065  39.020   7.353
10725W        W72179  43.013  37.865  13.382
10726W        W72180   1.408   1.956  13.882
10727W        W72181  29.042  32.117  13.336
10728W        W72182  26.956  32.504  11.005
10729W        W72183   1.399  44.853   1.910
10730W        W72184  23.086  30.067   1.358
10731W        W72185  26.601  32.604   9.625
10732W        W72186  19.166   0.752   1.697
10733W        W72187  31.547   5.814   2.368
10734W        W72188  17.558  38.386  11.984
10735W        W72189   6.857  42.346  11.445
10736W        W72190  28.043   6.311   1.263
10737W        W72191  42.911  31.031  13.496
10738W        W72192  21.623  24.486  14.417
10739W        W72193  44.283  14.807   5.094
10740W        W72194  18.254  23.030   4.837
10741W        W72195   6.836  17.654   3.366
10742W        W72196  21.139  17.162   1.212
10743W        W72197  12.242  16.647  12.372
10744W        W72198  19.618  19.617   4.279
10745W        W72199  31.933   3.380  12.524
10746W        W72200  13.314  23.703   4.258
10747W        W72201   0.301  21.065   2.384
10748W        W72202  23.601  22.143   4.149
10749W        W72203  34.505   7.186   0.796
10750W        W72204  17.257   7.196   0.398
10751W        W72205  30.658  40.927   4.820
10752W        W72206  26.505  29.527   4.238
10753W        W72207  19.614  25.184  13.956
10754W        W72208  37.468   4.323   0.857
10755W        W72209  12.833  43.857   3.710
10756W        W72210  39.001   1.339  11.547
10757W        W72211  15.112  41.879   0.965
10758W        W72212   9.755  15.627   2.802
10759W        W72213   7.816  19.629   0.266
10760W        W72214  40.877  15.606   2.241
10761W        W72215  39.387  13.300   4.256
10762W        W72216  39.062  15.657   0.296
10763W        W72217  34.588   6.263  12.502
10764W        W72218   1.362   1.837   2.791
10765W        W72219  36.020   6.763   4.154
10766W        W72220  39.037   1.382  12.503
10767W        W72221  27.499  33.568   2.277
10768W        W72222   3.832  40.416   0.807
10769W        W72223  18.628  23.174   1.802
10770W        W72224  15.686  27.026  13.816
10771W        W72225  35.049  23.009   4.779
10772W        W72226  27.579  19.206   0.811
10773W        W72227  34.101  33.509   1.354
10774W        W72228   0.969   8.178   0.380
10775W        W72229   5.860   8.764  12.912
10776W        W72230   4.829  20.710   1.887
10777W        W72231   1.440  31.486  10.464
10778W        W72232  43.862  36.414  11.489
10779W        W72233  37.419  28.130   4.626
10780W        W72234  19.599   7.267  14.455
10781W        W72235  43.486  41.997   0.778
10782W        W72236   4.936  24.192   5.299
10783W        W72237   5.233  24.117   4.206
10784W        W72238  13.827  27.115   2.850
10785W        W72239  19.780  34.902   0.268
10786W        W72240  10.760  21.635  10.978
10787W        W72241  29.511  36.574  14.475
10788W        W72242  42.814  32.627   2.272
10789W        W72243  28.528  28.616   4.688
10790W        W72244  27.197  23.734   2.248
10791W        W72245  11.201  33.874  12.503
10792W        W72246  26.103  24.134  13.027
10793W        W72247  19.655   8.743   2.394
10794W        W72248  27.070  39.484   1.324
10795W        W72249   6.324   3.862   0.782
10796W        W72250  13.683  37.496  14.813
10797W        W72251  18.641  28.023  12.839
10798W        W72252  42.942  21.214  12.839
10799W        W72253  43.955  13.346  13.328
10800W        W72254  27.138  25.531   0.866
10801W        W72255  42.960  17.618  14.401
10802W        W72256  12.854  34.419   0.901
10803W        W72257  23.127  12.179   4.305
10804W        W72258  30.124  33.382  13.425
10805W        W72259  35.597  23.044   1.870
10806W        W72260   5.714  15.716   4.215
10807W        W72261  35.001  38.841  11.505
10808W        W72262  34.897  14.260  11.907
10809W        W72263   9.869  33.395   0.864
10810W        W72264   1.358   1.340  11.461
10811W        W72265  26.658  32.573  13.926
10812W        W72266  41.042  30.637   3.310
10813W        W72267   8.186  11.860   1.750
10814W        W72268  29.662  30.126   0.860
10815W        W72269  31.902  25.043  14.893
10816W        W72270  12.794  31.541  12.527
10817W        W72271  15.201   4.366  11.006
10818W        W72272  24.136  30.576  12.576
10819W        W72273   9.315   1.734   4.702
10820W        W72274  22.172  22.662   4.131
10821W        W72275  20.647  19.184   0.923
10822W        W72276  40.907  15.742   1.366
10823W        W72277   0.841  11.155   4.205
10824W        W72278  28.109  23.724   0.769
10825W        W72279  26.494  12.145   0.357
10826W        W72280  27.540  14.223   2.243
10827W        W72281  31.141  19.733  11.073
10828W        W72282  42.431  20.167   4.298
10829W        W72283  32.074  13.823   1.435
10830W        W72284  31.101   2.422  13.829
10831W        W72285  43.410  15.587  14.325
10832W        W72286  30.124  34.401   2.379
10833W        W72287   4.289  43.970  14.378
10834W        W72288   0.369   6.822   1.448
10835W        W72289  13.744  24.043   0.837
10836W        W72290  20.647  38.973   3.275
10837W        W72291  30.996  38.378   4.190
10838W        W72292  44.495   7.693   4.130
10839W        W72293  32.403  42.926  14.362
10840W        W72294  42.010  10.309  11.887
10841W        W72295  24.725  36.043   2.707
10842W        W72296   9.275  20.566   1.790
10843W        W72297   4.900  10.253  11.984
10844W        W72298  21.688  15.776  13.388
10845W        W72299  32.550   3.762   1.755
10846W        W72300  32.989  16.100  14.411
10847W        W72301  11.719  17.567  13.791
10848W        W72302   6.371   4.706   0.456
10849W        W72303  13.254  17.616  14.340
10850W        W72304  35.432  43.771   2.902
10851W        W72305   6.300  40.537   0.275
10852W        W72306   1.908   3.725  11.081
10853W        W72307  39.514  19.718   0.757
10854W        W72308  34.416   0.867   2.214
10855W        W72309  20.718  40.935   0.276
10856W        W72310   2.950  38.011   3.730
10857W        W72311   7.799  26.065   2.753
10858W        W72312  17.153  44.427  12.835
10859W        W72313  19.636  25.508   0.748
10860W        W72314  15.246  44.486   4.639
10861W        W72315  28.987  43.415   3.373
10862W        W72316  41.529  18.088  10.902
10863W        W72317  40.044   5.890  13.520
10864W        W72318   9.722  25.612  14.403
10865W        W72319   1.360  18.137   2.748
10866W        W72320   3.736  28.434   1.725
10867W        W72321  33.561  41.838  11.601
10868W        W72322  38.003  19.170  12.850
10869W        W72323  11.248  27.623   3.245
10870W        W72324  13.203  22.501  12.559
10871W        W72325  32.009  43.998  12.835
10872W        W72326  11.333  41.411  10.442
10873W        W72327  17.292  12.653   1.696
10874W        W72328  12.159  36.582   4.756
10875W        W72329  30.605  18.737   2.309
10876W        W72330  41.401  40.880  11.061
10877W        W72331  42.900   5.333  14.376
10878W        W72332  40.884  44.335   4.113
10879W        W72333  39.869  15.111   2.698
10880W        W72334  40.909  44.377  13.982
10881W        W72335  30.916  43.826  12.381
10882W        W72336   4.822  14.279   3.650
10883W        W72337  29.481  35.363   3.696
10884W        W72338  35.391  18.601   1.749
10885W        W72339  32.503   1.834   3.672
10886W        W72340  22.734  37.043  13.860
10887W        W72341  42.828  39.317   0.888
10888W        W72342  42.797  19.039  13.953
10889W        W72343  11.836  16.734  13.989
10890W        W72344  14.687  40.013  14.962
10891W        W72345  27.072  40.846   1.855
10892W        W72346  25.085  44.974   2.892
10893W        W72347  25.653  10.245   1.783
10894W        W72348   1.896   0.913   4.736
10895W        W72349  37.991   9.757  11.913
10896W        W72350  10.273  44.309   0.435
10897W        W72351  11.856   7.855   4.319
10898W        W72352  18.609  20.083  14.881
10899W        W72353  15.630   5.362  12.394
10900W        W72354  16.772  29.543  10.416
10901W        W72355  11.208   4.786  14.993
10902W        W72356  12.649  23.177   1.702
10903W        W72357  42.434  35.399  11.048
10904W        W72358  18.125  35.486   0.429
10905W        W72359  22.580   9.727   9.945
10906W        W72360   9.756   2.754  10.584
10907W        W72361   8.704  33.475  14.899
10908W        W72362  22.557  11.663  14.356
10909W        W72363  32.003  22.741  12.031
10910W        W72364  31.482   0.800  12.826
10911W        W72365  33.459   4.408  10.422
10912W        W72366  39.384  29.928   3.732
10913W        W72367  30.036  25.566   4.636
10914W        W72368  27.459  21.675  10.101
10915W        W72369  28.086  13.336  13.859
10916W        W72370  41.311  16.699  11.494
10917W        W72371  43.854  39.497  10.507
10918W        W72372  16.584  16.735  10.961
10919W        W72373  21.251  29.507  13.939
10920W        W72374  41.376  41.313  13.453
10921W        W72375  25.056  19.143   0.347
10922W        W72376   1.433  41.310   2.846
10923W        W72377  13.607  14.108  11.931
10924W        W72378  28.606  35.892   0.410
10925W        W72379  40.014  43.501   2.404
10926W        W72380  43.418  19.055   2.856
10927W        W72381  40.956   0.825   2.689
10928W        W72382  17.258  29.076  12.508
10929W        W72383  20.028  24.579   1.780
10930W        W72384   8.847  16.763  14.815
10931W        W72385  20.220  31.896   2.333
10932W        W72386  35.927  36.965  10.634
10933W        W72387   2.465  39.370   0.247
10934W        W72388  27.012  34.926  14.344
10935W        W72389  18.195   3.230  13.431
10936W        W72390  27.006  25.633  11.989
10937W        W72391   6.297  14.805   1.302
10938W        W72392   8.766  28.173   1.841
10939W        W72393  44.335  14.237  12.947
10940W        W72394   5.411  26.953  13.827
10941W        W72395  26.969  26.699   4.331
10942W        W72396  16.071  37.507   4.657
10943W        W72397  40.364  43.356   4.682
10944W        W72398  14.654  26.609  11.470
10945W        W72399  39.329  30.594  13.900
10946W        W72400  44.367  34.011   3.359
10947W        W72401  40.468  18.650  12.488
10948W        W72402  39.523   0.360   3.842
10949W        W72403  32.502  40.431   4.184
10950W        W72404  31.080   4.875   2.826
10951W        W72405  36.893  15.104  12.489
10952W        W72406  37.434  33.927   4.828
10953W        W72407  44.358  33.014  14.407
10954W        W72408   9.294  39.830   2.316
10955W        W72409  34.546  25.191  13.834
10956W        W72410  40.344  16.612  10.970
10957W        W72411  22.542   4.913   2.849
10958W        W72412  38.993  18.123   0.841
10959W        W72413  36.474  31.488   1.254
10960W        W72414  34.403   7.178  12.924
10961W        W72415   2.460  31.902  11.900
10962W        W72416  29.608  27.469   9.973
10963W        W72417  36.985   4.224  12.942
10964W        W72418  25.091  11.366   3.369
10965W        W72419  11.268  40.328  11.857
10966W        W72420  31.907  42.501   4.286
10967W        W72421  11.868  24.013  10.470
10968W        W72422  11.626  40.515   3.683
10969W        W72423  41.475  19.186  13.843
10970W        W72424  14.285  14.820   1.852
10971W        W72425  33.577   5.424  11.047
10972W        W72426  38.060  11.176  14.333
10973W        W72427  34.012  30.558   1.831
10974W        W72428  35.007  42.963   2.672
10975W        W72429   1.939  38.549   1.304
10976W        W72430  24.623  19.567   0.947
10977W        W72431   5.767  14.731   2.706
10978W        W72432  19.228  12.225   1.387
10979W        W72433  11.165  30.531  13.524
10980W        W72434  15.316   4.217   4.697
10981W        W72435  24.615  39.377   2.880
10982W        W72436   2.859  15.264  14.473
10983W        W72437  30.574  21.132   2.877
10984W        W72438  23.667  31.562  11.068
10985W        W72439  42.900   2.819  11.574
10986W        W72440  29.666  13.717   2.784
10987W        W72441  23.570   9.757   2.765
10988W        W72442  39.966  24.115   2.215
10989W        W72443  44.282   6.212   3.300
10990W        W72444  38.946   7.206   1.350
10991W        W72445  25.673   4.300  11.960
10992W        W72446  26.670  31.413  10.526
10993W        W72447  40.536   1.833  14.496
10994W        W72448   9.225   3.393  10.508
10995W        W72449  11.217  12.136   2.348
10996W        W72450  28.001  11.680   1.766
10997W        W72451   5.388  20.562   4.159
10998W        W72452  26.185  41.320  11.017
10999W        W72453  30.563   0.398   1.896
11000W        W72454  17.196  23.225  13.394
11001W        W72455  30.422  35.109   4.302
11002W        W72456   0.888  19.205  13.504
11003W        W72457  29.529  28.544   0.462
11004W        W72458  12.218  25.976  14.870
11005W        W72459  43.445  30.650   3.849
11006W        W72460  23.536  11.370  13.416
11007W        W72461  43.998  14.749  13.441
11008W        W72462  20.206  25.999   2.835
11009W        W72463   0.742  34.111  12.998
11010W        W72464  26.177  32.097  13.839
11011W        W72465  23.736  31.092  11.040
11012W        W72466   7.818  42.405  13.944
11013W        W72467   4.848  13.788  13.429
11014W        W72468  33.110  12.825   2.715
11015W        W72469  20.111  28.963  14.355
11016W        W72470  21.053  13.755   3.737
11017W        W72471   6.910  17.173   1.721
11018W        W72472   9.227  10.855   4.700
11019W        W72473  19.205   8.854   5.304
11020W        W72474  25.670  35.900   9.960
11021W        W72475   9.200   2.414  13.383
11022W        W72476  28.453  14.222  13.397
11023W        W72477  17.108  25.673   1.788
11024W        W72478  13.134  43.011  10.947
11025W        W72479  30.100  40.407   3.640
11026W        W72480  32.400  12.294   5.306
11027W        W72481  11.217  32.975   0.775
11028W        W72482  18.546   0.933  14.965
11029W        W72483  20.274  38.014  10.630
11030W        W72484  25.104  35.060   2.697
11031W        W72485   2.321  11.258  14.819
11032W        W72486  24.563  30.537  14.341
11033W        W72487  43.357  18.701   2.776
11034W        W72488  32.037  17.100   1.344
11035W        W72489  21.233  29.055  12.973
11036W        W72490  33.581  40.497   3.279
11037W        W72491  32.110   4.387  14.799
11038W        W72492  35.509  18.642   4.713
11039W        W72493  17.655  21.753   3.241
11040W        W72494   2.245  33.121   4.200
11041W        W72495  35.595  44.399  12.340
11042W        W72496   2.768  36.011   0.736
11043W        W72497  31.553  37.579  10.407
11044W        W72498  26.090  16.135  14.919
11045W        W72499   5.749  10.329  11.393
11046W        W72500  13.320  34.036   4.651
11047W        W72501  13.757   6.222   0.245
11048W        W72502  32.051  34.439   1.258
11049W        W72503  44.468  13.266   3.812
11050W        W72504  39.419  13.328  12.340
11051W        W72505  14.332  23.658   2.255
11052W        W72506  11.758  16.730   3.729
11053W        W72507  14.774  13.230   3.756
11054W        W72508   6.808  28.574  12.479
11055W        W72509  15.100   3.800  11.028
11056W        W72510   1.380  35.463   1.223
11057W        W72511   5.843  26.182  14.950
11058W        W72512  27.112  26.061  10.952
11059W        W72513  14.798  30.949  12.000
11060W        W72514  44.784  13.310  11.114
11061W        W72515  19.068  40.319  14.304
11062W        W72516  24.085   9.252   0.381
11063W        W72517  12.743  32.018  13.373
11064W        W72518   5.250  39.369  14.495
11065W        W72519  16.124  20.194   3.358
11066W        W72520  16.796   1.445  13.313
11067W        W72521  24.485  14.736   1.743
11068W        W72522  39.939  26.123   1.370
11069W        W72523   9.740   6.403   4.200
11070W        W72524  37.926  20.606  12.867
11071W        W72525  20.567  23.210  14.760
11072W        W72526  30.415  29.483  13.450
11073W        W72527  30.083  43.815   4.749
11074W        W72528  27.454   3.257  13.801
11075W        W72529   4.345  42.293  10.518
11076W        W72530  39.966  18.686  13.378
11077W        W72531  39.372  40.958   1.920
11078W        W72532  25.535  12.828  11.571
11079W        W72533  26.166  18.603   3.171
11080W        W72534  13.273  37.885   1.323
11081W        W72535  35.080  15.238   4.733
11082W        W72536  24.725  41.894  12.835
11083W        W72537   1.338   2.903   1.276
11084W        W72538  27.957  18.699  11.966
11085W        W72539   6.242  44.829   2.706
11086W        W72540   4.837  39.388   2.669
11087W        W72541  28.446  21.735   0.444
11088W        W72542   4.303  40.407   2.383
11089W        W72543   8.260  30.032  11.480
11090W        W72544  14.177  33.562   4.278
11091W        W72545  11.707  12.221  14.406
11092W        W72546   5.923  17.715  12.831
11093W        W72547   9.359  13.286  14.787
11094W        W72548  18.632   5.358  10.929
11095W        W72549  22.627  44.373   5.187
11096W        W72550  12.293  34.938  12.537
11097W        W72551  18.756   3.863  13.972
11098W        W72552   7.313  20.539  12.523
11099W        W72553   8.193  30.588   2.358
11100W        W72554  40.420  36.484   3.826
11101W        W72555  25.680  17.651   4.134
11102W        W72556   2.423   5.261   0.855
11103W        W72557  32.966  33.979   4.169
11104W        W72558  38.389  14.230   3.732
11105W        W72559  12.696  16.226   4.693
11106W        W72560  30.415  18.178  14.313
11107W        W72561  29.114  34.936  12.919
11108W        W72562  39.382   3.304   5.321
11109W        W72563  12.750  34.997   1.924
11110W        W72564  23.706  44.462  12.408
11111W        W72565  40.978   8.876   1.405
11112W        W72566   9.192  42.367   0.735
11113W        W72567  24.229   8.346   1.370
11114W        W72568  36.928  24.985  11.504
11115W        W72569  41.835  10.382   0.958
11116W        W72570  37.582  31.142   3.663
11117W        W72571  11.636  23.525   4.709
11118W        W72572  29.619  34.521   1.913
11119W        W72573  13.679  30.927  12.844
11120W        W72574  30.568  13.119  13.942
11121W        W72575   1.745  22.221  12.536
11122W        W72576  37.954  38.896  10.454
11123W        W72577  28.074  42.900  11.610
11124W        W72578   6.320  25.535  12.345
11125W        W72579   1.321  24.709  14.386
11126W        W72580  23.504  22.146  14.927
11127W        W72581  13.127  24.038  12.005
11128W        W72582  24.123  35.570   3.327
11129W        W72583  41.422  13.285   0.459
11130W        W72584   0.862  38.931  10.442
11131W        W72585   0.951  32.605   2.856
11132W        W72586   4.834  42.339   0.840
11133W        W72587  19.109  28.513  11.875
11134W        W72588  31.607   9.332  14.908
11135W        W72589  35.406  13.265  13.399
11136W        W72590  37.462  29.554   3.201
11137W        W72591  23.081  37.927  12.021
11138W        W72592   4.945  31.973   4.132
11139W        W72593  37.083   1.423   1.924
11140W        W72594   1.927  41.477   0.470
11141W        W72595   2.257  14.681  10.419
11142W        W72596  33.902   8.655   4.258
11143W        W72597  12.784   4.707  13.343
11144W        W72598  23.997  22.113  13.366
11145W        W72599  40.940  22.252  14.970
11146W        W72600   7.737  30.095   9.968
11147W        W72601  20.195  31.454  12.058
11148W        W72602   8.875  36.070   0.868
11149W        W72603  27.961  23.673  14.767
11150W        W72604  15.202  38.537   1.379
11151W        W72605  20.133  35.377   0.767
11152W        W72606   9.300  23.187   3.351
11153W        W72607   3.333  25.668   4.129
11154W        W72608  24.051   2.901   0.284
11155W        W72609   4.310  20.602  13.893
11156W        W72610  16.104  28.126  13.919
11157W        W72611  20.622  25.603  12.008
11158W        W72612  22.109  41.448  11.047
11159W        W72613  39.478  17.178   2.227
11160W        W72614  13.221  18.548   1.339
11161W        W72615  23.131  37.430   0.877
11162W        W72616   8.828   2.735   3.643
11163W        W72617  20.684  32.414  11.567
11164W        W72618   9.840  35.473   4.714
11165W        W72619  26.678  27.024  14.400
11166W        W72620  40.981  20.631   2.353
11167W        W72621  30.583  40.363  12.859
11168W        W72622  18.250  42.340   0.765
11169W        W72623   4.289   6.317  10.423
11170W        W72624   6.250  15.093  10.467
11171W        W72625  10.266  23.587   0.355
11172W        W72626  39.531   0.769  12.430
11173W        W72627   1.384   5.904   2.717
11174W        W72628  20.253  29.160  12.878
11175W        W72629  30.960  16.084   2.701
11176W        W72630  28.959  25.165  14.463
11177W        W72631   1.826   8.384   0.482
11178W        W72632  25.063   3.442  10.980
11179W        W72633  39.967  34.051   0.420
11180W        W72634  37.485   5.862   3.705
11181W        W72635   0.755   0.248   4.770
11182W        W72636  16.740  44.429   3.771
11183W        W72637  13.709  31.572   2.297
11184W        W72638  36.905   5.687   0.468
11185W        W72639  34.045  39.835   0.851
11186W        W72640  39.982  25.163   1.853
11187W        W72641   2.867  24.665   1.252
11188W        W72642   9.734  16.256   1.263
11189W        W72643  10.866  43.893   1.448
11190W        W72644  34.029   6.835   1.258
11191W        W72645  29.572  14.253   2.312
11192W        W72646  12.360   7.864   0.287
11193W        W72647  38.491   2.758  11.503
11194W        W72648  24.189  43.454   3.687
11195W        W72649   3.821  29.121  13.515
11196W        W72650  23.693  13.640  11.441
11197W        W72651  44.891  38.831   2.898
11198W        W72652  21.595   2.242  13.015
11199W        W72653  38.410  11.864  13.326
11200W        W72654   4.945   9.670   3.309
11201W        W72655  20.141  41.459   3.155
11202W        W72656   8.699  23.647   3.152
11203W        W72657  31.001  43.911   1.372
11204W        W72658  16.663  15.685  12.530
11205W        W72659  32.598   6.890   0.293
11206W        W72660  23.596   2.910   0.804
11207W        W72661  39.877   0.773   1.440
11208W        W72662  17.588   9.677   3.727
11209W        W72663   6.827  36.906  13.547
11210W        W72664  33.069  25.169   0.421
11211W        W72665  31.466  24.574  12.008
11212W        W72666  20.102  28.480   3.663
11213W        W72667  11.716  32.051  10.610
11214W        W72668   5.716  19.045  11.865
11215W        W72669  27.958  11.666  12.457
11216W        W72670  17.248  37.389  14.293
11217W        W72671  24.156  17.802  13.053
11218W        W72672  11.352  26.060  10.545
11219W        W72673  31.967   1.340  11.897
11220W        W72674  14.626  24.495  13.317
11221W        W72675   2.466  34.430   4.834
11222W        W72676   8.684  36.401   2.828
11223W        W72677  13.264  13.221  14.349
11224W        W72678  44.874  34.375   3.869
11225W        W72679  25.685  17.670  13.534
11226W        W72680  37.450  36.931   2.320
11227W        W72681  40.911   7.257   1.262
11228W        W72682  16.173  42.967  13.036
11229W        W72683  31.490  31.419  12.905
11230W        W72684  33.125  30.107  12.449
11231W        W72685  14.094   0.376   4.646
11232W        W72686  39.453  21.177   3.730
11233W        W72687   9.250  20.032   1.270
11234W        W72688  43.017  40.971   1.711
11235W        W72689   6.698  16.783  14.355
11236W        W72690  11.702  35.006  10.505
11237W        W72691  15.651  37.431  12.929
11238W        W72692   5.427  31.128  12.526
11239W        W72693  12.626  37.001  11.118
11240W        W72694  41.940  17.614  11.591
11241W        W72695  16.727  10.748   3.711
11242W        W72696  31.564  10.380   5.267
11243W        W72697  12.649   6.382   0.957
11244W        W72698  17.164  12.855  11.398
11245W        W72699   5.782   1.410  12.946
11246W        W72700  32.474  43.932  12.068
11247W        W72701  35.455   9.232  11.380
11248W        W72702  28.098  27.464   2.224
11249W        W72703   2.336  16.129   3.319
11250W        W72704  15.166  31.612   0.299
11251W        W72705  37.975  11.135  13.379
11252W        W72706  29.119  35.536  11.967
11253W        W72707   2.393  11.659   1.816
11254W        W72708  25.582  35.877  14.368
11255W        W72709  29.972  42.423  12.557
11256W        W72710  43.790  21.625   0.799
11257W        W72711   3.458  22.151  14.458
11258W        W72712   3.294  42.419  13.422
11259W        W72713   7.674  39.016   2.334
11260W        W72714  17.601  26.676   2.792
11261W        W72715  39.353  38.929   2.244
11262W        W72716  38.989  17.700  12.031
11263W        W72717  16.640   6.392  13.392
11264W        W72718  37.930  17.085  10.492
11265W        W72719  27.966  33.891  10.989
11266W        W72720  44.954  26.459   4.798
11267W        W72721  39.455  31.932  11.492
11268W        W72722  11.691   5.876   0.242
11269W        W72723  26.663  20.250   2.269
11270W        W72724  27.482  17.102  14.353
11271W        W72725  36.936  10.273   1.348
11272W        W72726  34.029  29.008   0.294
11273W        W72727  13.202  30.593  13.505
11274W        W72728   8.884  26.988  11.000
11275W        W72729  20.582  35.036   3.285
11276W        W72730  40.039  37.565  10.591
11277W        W72731  38.948  40.946  13.337
11278W        W72732  31.976  14.123   2.822
11279W        W72733  22.182  12.143  13.946
11280W        W72734   6.405  43.876  11.901
11281W        W72735  15.669  14.809  13.801
11282W        W72736   2.258   9.674   2.793
11283W        W72737  28.509  38.370  11.002
11284W        W72738   5.720   3.416   0.429
11285W        W72739  36.452   1.331  12.505
11286W        W72740  40.425  17.298  10.933
11287W        W72741  32.885   5.716  10.414
11288W        W72742   6.847  24.127   2.281
11289W        W72743   0.420  41.958   3.324
11290W        W72744  24.517  14.714  14.305
11291W        W72745  20.117   1.254   3.664
11292W        W72746   4.886  28.544   3.787
11293W        W72747  17.593  34.025   1.347
11294W        W72748   3.384   9.792  14.903
11295W        W72749  23.639  28.435   3.348
11296W        W72750  16.196  18.198   3.799
11297W        W72751  23.643  39.419   1.370
11298W        W72752  44.926  13.661   2.884
11299W        W72753  44.389  24.550  10.537
11300W        W72754   9.336  23.239  14.938
11301W        W72755  10.741   5.844   0.436
11302W        W72756  21.573   3.819   4.784
11303W        W72757  34.468  25.546  13.407
11304W        W72758  23.085  38.835  13.899
11305W        W72759  33.066  44.464   1.327
11306W        W72760  16.566  16.588  13.853
11307W        W72761  20.205  18.718   0.431
11308W        W72762  37.384   0.291   0.403
11309W        W72763  25.055   0.468   4.634
11310W        W72764   8.185  42.497   4.760
11311W        W72765  31.423  41.536  12.845
11312W        W72766   0.419  14.644   2.857
11313W        W72767  31.442  31.445   0.483
11314W        W72768  31.486  20.123  12.927
11315W        W72769  36.409  26.024  14.773
11316W        W72770   3.302  39.025  11.420
11317W        W72771  34.966   1.477  11.489
11318W        W72772  37.868  23.224   2.875
11319W        W72773  24.601   8.736  12.577
11320W        W72774  31.548  34.464  10.142
11321W        W72775  10.805  44.397  14.279
11322W        W72776   2.827  14.292  13.465
11323W        W72777  27.066   9.279  14.027
11324W        W72778  23.491  27.520   1.357
11325W        W72779  20.532   6.687   4.702
11326W        W72780  26.508  18.690   0.883
11327W        W72781  18.637  41.935  13.858
11328W        W72782  41.890   0.875   4.322
11329W        W72783  44.505  14.159   0.458
11330W        W72784  10.874   0.284  11.125
11331W        W72785  18.061   0.459  14.854
11332W        W72786   6.849  32.600   1.440
11333W        W72787  17.090  20.700   1.308
11334W        W72788  21.212   7.405   0.785
11335W        W72789  21.744  37.915  13.004
11336W        W72790  22.147   0.346   2.261
11337W        W72791  22.641  33.899  12.069
11338W        W72792  16.699   9.231  12.352
11339W        W72793   4.357  44.304  12.565
11340W        W72794  44.960  30.054  11.469
11341W        W72795   5.351  44.493   3.695
11342W        W72796  33.558   0.860  12.854
11343W        W72797   2.921   2.961   1.390
11344W        W72798  15.264  25.157   4.683
11345W        W72799  27.032  28.990  12.091
11346W        W72800  17.114  21.522  11.529
11347W        W72801  35.093  38.874   4.201
11348W        W72802   0.260   2.889   4.660
11349W        W72803  20.196  18.779   2.736
11350W        W72804  25.993   7.666   2.264
11351W        W72805  14.164  36.435  13.347
11352W        W72806  10.274  32.072   2.775
11353W        W72807  37.086  26.019   1.258
11354W        W72808  25.497  22.576  10.995
11355W        W72809  11.302  12.741   3.685
11356W        W72810  39.403   0.826   3.792
11357W        W72811   4.733   2.407  14.858
11358W        W72812  34.463  35.379   4.732
11359W        W72813   3.798  40.497  11.080
11360W        W72814   4.738  42.775   4.809
11361W        W72815  11.643  30.486   1.412
11362W        W72816  37.941  22.737   0.280
11363W        W72817  13.164   6.202   5.252
11364W        W72818  33.452  19.078   4.660
11365W        W72819  34.492  10.144   2.739
11366W        W72820  16.287  15.724   2.825
11367W        W72821   9.240  26.622  14.801
11368W        W72822  16.132  13.181  11.462
11369W        W72823   1.238  26.103   3.220
11370W        W72824  23.225   2.401   0.916
11371W        W72825   6.860  26.097   3.345
11372W        W72826   0.460  21.090  11.588
11373W        W72827  20.259  34.118   0.862
11374W        W72828  35.940  27.651  11.882
11375W        W72829  28.634   1.462   3.714
11376W        W72830  36.509   2.408   3.199
11377W        W72831  21.111  28.180   0.380
11378W        W72832  27.581  35.917  13.968
11379W        W72833  35.358  21.684  14.324
11380W        W72834  28.016  37.965   1.800
11381W        W72835  11.666   0.981   0.867
11382W        W72836  39.850  21.163   3.247
11383W        W72837  43.362   6.765   2.824
11384W        W72838  39.831  43.776  12.506
11385W        W72839   5.789  23.549   4.783
11386W        W72840  19.665   1.974  10.546
11387W        W72841  41.384  38.942   4.124
11388W        W72842  29.443  33.131  11.493
11389W        W72843  15.621  15.118   0.900
11390W        W72844  43.495   7.347  10.526
11391W        W72845  10.715   5.352  13.369
11392W        W72846  14.669  39.326   3.220
11393W        W72847   5.197   4.753   4.734
11394W        W72848  16.587   7.178  13.002
11395W        W72849   7.382  14.789  14.833
11396W        W72850   3.917  18.279   2.822
11397W        W72851  44.460  19.053  13.899
11398W        W72852  15.276  44.457  10.415
11399W        W72853   5.887  17.626  11.491
11400W        W72854  40.863  37.891  11.023
11401W        W72855  32.102  12.174   1.340
11402W        W72856  32.542   3.347  13.871
11403W        W72857  39.017  28.511  14.314
11404W        W72858   3.890  11.186  11.978
11405W        W72859  34.020  33.969  11.491
11406W        W72860  41.813  32.988   4.614
11407W        W72861  38.862  32.042  13.965
11408W        W72862  25.690   9.740   4.248
11409W        W72863  36.994  39.349   5.800
11410W        W72864  44.421  18.196  13.003
11411W        W72865  20.598  29.921   2.729
11412W        W72866  18.576  35.535  14.414
11413W        W72867  22.555   2.319   1.726
11414W        W72868  14.257  34.925   2.193
11415W        W72869  18.133  34.074  14.902
11416W        W72870  42.961   2.395  12.962
11417W        W72871   5.795  10.756   0.402
11418W        W72872  36.434   4.239  12.060
11419W        W72873   1.252  42.869   2.770
11420W        W72874  22.036  36.986   2.864
11421W        W72875  15.086   0.874  11.117
11422W        W72876   1.385  27.654   0.469
11423W        W72877  28.516   9.644  13.382
11424W        W72878  23.587  11.793  12.056
11425W        W72879  17.272   6.301  13.495
11426W        W72880   2.317  40.441  13.903
11427W        W72881  17.257  23.001   0.273
11428W        W72882   3.815  30.495  10.064
11429W        W72883  27.645   9.312   4.333
11430W        W72884  22.081  18.629   4.630
11431W        W72885  34.502  23.183   4.348
11432W        W72886  40.410  30.624   0.355
11433W        W72887  11.732  40.394  14.362
11434W        W72888  24.007   3.384  14.922
11435W        W72889  28.033  32.908   4.683
11436W        W72890  43.996   1.830   2.190
11437W        W72891  41.010   8.692   0.366
11438W        W72892  39.416  10.260  11.499
11439W        W72893   2.333  16.122  12.907
11440W        W72894  11.275  14.199  11.870
11441W        W72895  13.294  13.613   2.404
11442W        W72896  12.117  41.399  13.374
11443W        W72897  25.536   1.787  11.875
11444W        W72898  13.803  21.669  12.832
11445W        W72899  37.842  41.930  10.477
11446W        W72900  16.623   3.808   0.872
11447W        W72901  17.210  16.767   3.782
11448W        W72902   4.441  23.022  12.391
11449W        W72903  20.680  36.052  11.008
11450W        W72904  12.211  16.698   1.795
11451W        W72905  43.500   8.806   4.169
11452W        W72906  11.188  11.178   4.823
11453W        W72907   7.252  36.065   0.355
11454W        W72908  10.226  17.773   0.337
11455W        W72909  27.033   5.414   0.914
11456W        W72910  38.029  36.393  14.365
11457W        W72911   0.910  35.092  10.595
11458W        W72912  20.661   0.756  11.948
11459W        W72913  30.504  34.418  10.525
11460W        W72914   4.435  33.123   4.754
11461W        W72915  13.118   6.203  10.606
11462W        W72916  22.674  37.918   3.695
11463W        W72917  37.843   3.744  12.093
11464W        W72918  26.034  37.014   4.201
11465W        W72919  27.949  32.973   0.280
11466W        W72920  29.022  33.041   3.801
11467W        W72921  10.702  42.359   2.806
11468W        W72922  32.097  17.719   1.792
11469W        W72923  12.333  11.866   0.256
11470W        W72924   0.313  10.655  11.478
11471W        W72925  42.002  36.458  10.638
11472W        W72926  28.588  33.529   2.181
11473W        W72927  31.152  35.380  13.905
11474W        W72928  23.522  15.628  14.986
11475W        W72929  28.072   8.763   2.723
11476W        W72930  20.623  42.938   1.327
11477W        W72931  31.586   0.963  13.931
11478W        W72932  20.765  35.553  13.020
11479W        W72933  42.375  44.977  12.035
11480W        W72934   7.273  12.162  14.314
11481W        W72935  40.872  25.113   2.248
11482W        W72936  31.939  20.649  11.532
11483W        W72937  21.698  37.523  13.005
11484W        W72938   9.381  32.612   1.922
11485W        W72939   2.803  29.964  13.854
11486W        W72940   3.245  30.127  12.430
11487W        W72941  18.738  19.749   1.694
11488W        W72942  42.295  38.436   0.401
11489W        W72943  26.635   1.398  13.946
11490W        W72944   7.254  43.906  14.493
11491W        W72945  39.027   4.821   4.190
11492W        W72946  12.685   2.367  13.526
11493W        W72947  26.587  44.911  14.997
11494W        W72948  35.011  41.346  13.450
11495W        W72949   7.372  17.778   1.713
11496W        W72950   0.480  23.021  10.980
11497W        W72951   9.865  44.908  14.495
11498W        W72952  29.081  39.018  13.435
11499W        W72953   6.206   4.807   3.723
11500W        W72954  36.526   5.895   4.242
11501W        W72955  36.908  28.109  12.348
11502W        W72956  11.364  13.780  10.954
11503W        W72957   7.381   1.417  14.472
11504W        W72958  18.086  22.699  14.326
11505W        W72959  42.018  22.208  13.962
11506W        W72960  16.304   1.897   3.748
11507W        W72961  40.002  32.592   2.869
11508W        W72962  11.868  18.087  13.881
11509W        W72963   0.778  23.026  10.631
11510W        W72964  14.099  30.144   2.319
11511W        W72965  24.041  25.101  13.841
11512W        W72966  43.954  13.761   0.850
11513W        W72967  12.305   1.337   1.907
11514W        W72968  34.926   4.265   2.385
11515W        W72969  26.043   7.716   0.285
11516W        W72970  20.093  29.572  12.373
11517W        W72971   1.478  27.104  12.859
11518W        W72972  25.137  26.151  12.411
11519W        W72973  17.285  40.496  11.573
11520W        W72974  12.822   7.902  12.545
11521W        W72975  22.091   8.172   4.156
11522W        W72976  10.671  29.000   0.920
11523W        W72977  25.111  32.436   3.385
11524W        W72978  14.672  44.776  11.996
11525W        W72979  41.843  12.737   2.402
11526W        W72980   7.269   2.768   2.706
11527W        W72981   2.291  19.094   2.296
11528W        W72982  34.863  32.042   1.375
11529W        W72983  13.233  32.518   3.726
11530W        W72984  20.144  14.233   0.841
11531W        W72985  37.850  43.507   2.795
11532W        W72986   0.451  25.503   2.262
11533W        W72987  20.641  20.645  13.425
11534W        W72988  40.325  23.631   2.345
11535W        W72989  15.121  27.048  11.467
11536W        W72990  29.968   8.754   5.251
11537W        W72991  31.443  26.147   1.715
11538W        W72992  37.555  40.969   1.446
11539W        W72993  22.091   6.422  14.928
11540W        W72994  30.561   3.776   2.179
11541W        W72995  17.188  12.676  13.924
11542W        W72996  44.909   7.313  12.510
11543W        W72997  39.339  41.461  12.493
11544W        W72998  11.632   3.755   2.245
11545W        W72999  35.436   6.242  11.963
11546W        W73000   1.927  34.986   4.671
11547W        W73001  27.994  40.045   1.366
11548W        W73002  43.920   4.882   2.669
11549W        W73003   2.345  43.956  14.294
11550W        W73004  27.006  13.828  13.975
11551W        W73005  37.390   5.337   4.722
11552W        W73006   6.885  23.183  14.837
11553W        W73007   0.917  13.238   0.477
11554W        W73008  38.033   1.252  13.835
11555W        W73009  36.047  29.994  14.793
11556W        W73010  40.494  35.542   4.601
11557W        W73011  29.467  24.026  12.042
11558W        W73012  40.392  31.108   2.189
11559W        W73013  37.858  38.532  11.000
11560W        W73014   8.741   5.819   0.921
11561W        W73015  33.502  25.056   4.670
11562W        W73016  18.594  25.218  14.849
11563W        W73017  30.648  35.978  14.499
11564W        W73018  18.290  26.559  14.439
11565W        W73019   8.694   4.314   3.382
11566W        W73020  31.966   6.378   0.764
11567W        W73021   2.734  13.736  12.838
11568W        W73022  28.454  16.094  13.527
11569W        W73023  30.521  26.081  10.449
11570W        W73024   0.442  31.067   4.277
11571W        W73025  26.607  10.678  12.502
11572W        W73026  32.499  23.554   1.433
11573W        W73027  15.319  43.842  10.420
11574W        W73028   0.331  42.461  10.974
11575W        W73029   2.391  27.972  13.993
11576W        W73030  41.933  22.710   0.794
11577W        W73031  44.893  19.761   4.140
11578W        W73032  38.366  36.869   0.380
11579W        W73033  31.636  22.179  13.310
11580W        W73034  36.487   6.714   1.807
11581W        W73035  11.833  22.736   1.228
11582W        W73036  44.962  29.455   2.870
11583W        W73037   5.758  21.659  10.424
11584W        W73038  15.252   3.913   1.310
11585W        W73039   7.686   5.912  10.450
11586W        W73040  44.398  43.790  12.036
11587W        W73041  19.720  33.955   3.831
11588W        W73042   1.971  23.133  12.440
11589W        W73043  14.673  20.753  10.432
11590W        W73044  29.100  44.863   2.668
11591W        W73045  41.818  42.797   0.477
11592W        W73046  10.285  21.115   1.765
11593W        W73047   9.833  15.321   0.936
11594W        W73048  33.453  23.174  12.846
11595W        W73049   3.894  24.162   0.759
11596W        W73050   8.732  18.560   5.224
11597W        W73051  34.480  10.228   2.354
11598W        W73052  28.110  26.688  13.062
11599W        W73053   4.331  13.181   0.785
11600W        W73054  32.431  38.874   2.785
11601W        W73055  33.447  17.264  14.307
11602W        W73056  37.453   2.271   3.659
11603W        W73057  24.523  22.133  12.431
11604W        W73058  30.644  21.220   4.353
11605W        W73059  20.695  43.471   4.338
11606W        W73060   5.298  22.609   1.778
11607W        W73061   6.204  10.654  14.422
11608W        W73062  42.475  43.510  12.830
11609W        W73063   2.905   4.264   3.162
11610W        W73064  26.035  39.458  10.913
11611W        W73065  21.097  41.301   2.178
11612W        W73066  23.131  19.069  11.490
11613W        W73067   5.765  40.514   4.292
11614W        W73068  23.046  34.046  10.622
11615W        W73069  11.686  12.634   4.740
11616W        W73070  28.486  19.151  14.447
11617W        W73071   9.273  11.663  14.454
11618W        W73072  41.976  37.402  13.929
11619W        W73073   7.349  38.957   4.347
11620W        W73074  25.024  22.544   2.354
11621W        W73075   4.882  36.944  13.514
11622W        W73076   5.285  40.469   0.940
11623W        W73077   3.938   5.192   3.817
11624W        W73078  28.676  15.702  10.945
11625W        W73079  24.050  27.966   2.341
11626W        W73080  33.549   4.382  12.514
11627W        W73081  35.092   3.782   3.323
11628W        W73082   9.372   7.315   1.859
11629W        W73083  29.984  35.033   1.761
11630W        W73084  17.065  39.992   0.408
11631W        W73085  27.467   4.762   3.174
11632W        W73086  28.494  17.194   2.251
11633W        W73087  32.393  33.624  13.401
11634W        W73088  30.074  33.104  13.547
11635W        W73089  15.218   4.367  13.025
11636W        W73090   8.199   9.867   0.772
11637W        W73091  30.548  29.055  10.952
11638W        W73092  36.015  25.162  11.002
11639W        W73093  26.147   0.302  14.780
11640W        W73094   0.831  25.642  12.563
11641W        W73095  15.171  14.601  13.443
11642W        W73096  37.019  15.633  12.574
11643W        W73097  41.308  40.919   0.901
11644W        W73098  44.839   7.388  12.835
11645W        W73099  32.511  29.076   3.360
11646W        W73100  35.424   3.377  10.490
11647W        W73101  18.721  37.365  10.540
11648W        W73102  35.107  26.546   3.355
11649W        W73103  11.748  21.634   2.729
11650W        W73104  10.235  22.094   1.219
11651W        W73105  19.552  26.521   3.816
11652W        W73106   3.226  29.499   1.244
11653W        W73107  14.602   8.190   3.676
11654W        W73108  25.668  21.754  11.570
11655W        W73109  40.895  33.393  13.939
11656W        W73110  17.658  29.561  10.986
11657W        W73111  14.160   0.802  13.331
11658W        W73112   4.321  11.828  11.434
11659W        W73113  14.240  25.068  10.453
11660W        W73114  31.967  17.714  13.911
11661W        W73115  19.673   9.654  14.949
11662W        W73116  36.955  14.617  12.897
11663W        W73117   2.378  11.272   4.175
11664W        W73118  20.763  30.109   0.786
11665W        W73119  13.267  36.400  13.493
11666W        W73120  12.635   3.749  10.590
11667W        W73121   1.737  13.600  10.891
11668W        W73122  17.292   0.767   2.234
11669W        W73123   2.876  35.052  13.315
11670W        W73124  22.544  23.217  13.547
11671W        W73125   6.322  20.593   1.428
11672W        W73126  27.518  19.222   1.334
11673W        W73127   3.839  32.100   0.271
11674W        W73128   8.187  16.630  12.343
11675W        W73129  42.473  13.148   0.444
11676W        W73130   0.811   8.655  13.853
11677W        W73131  14.325  21.692  10.529
11678W        W73132  17.198  28.144  14.865
11679W        W73133  42.352  26.059  12.410
11680W        W73134  11.841   8.326   2.854
11681W        W73135  44.010   2.891  14.876
11682W        W73136   6.760  19.618   2.862
11683W        W73137  19.641  37.508   3.363
11684W        W73138  36.485  14.142  14.824
11685W        W73139  22.203  43.344   1.230
11686W        W73140  13.270  30.495   5.158
11687W        W73141  19.686  17.067   0.820
11688W        W73142  33.953  19.626  14.412
11689W        W73143  33.419   5.742  11.421
11690W        W73144  13.685  25.161   0.483
11691W        W73145  19.658  37.031   4.249
11692W        W73146  28.111  16.581   2.744
11693W        W73147  11.862   2.367   3.286
11694W        W73148   5.204  33.461  11.470
11695W        W73149  28.124  27.197  14.834
11696W        W73150  41.450  44.832   4.652
11697W        W73151  10.696  36.439  14.955
11698W        W73152  19.748  15.792  11.429
11699W        W73153  29.561  40.442   3.858
11700W        W73154  29.573   8.853  12.055
11701W        W73155  19.619  31.936  10.096
11702W        W73156  35.484  40.952  10.407
11703W        W73157  23.629   0.835   3.632
11704W        W73158   4.252  31.946  13.337
11705W        W73159  40.353   7.709   0.429
11706W        W73160   3.934   9.859   4.221
11707W        W73161  40.829  29.956   4.628
11708W        W73162  27.996  18.791  13.492
11709W        W73163   5.376  16.174   4.692
11710W        W73164   0.841  10.291  12.044
11711W        W73165  20.589  18.689  11.001
11712W        W73166  37.514  16.303   4.154
11713W        W73167  24.188   3.792  14.831
11714W        W73168  19.700   1.274  12.999
11715W        W73169  43.340  41.509   0.897
11716W        W73170  29.947  29.640   1.865
11717W        W73171   7.744  35.465  12.997
11718W        W73172  12.688   2.819  10.925
11719W        W73173  14.285  17.182  14.483
11720W        W73174  36.374  35.527   2.869
11721W        W73175   6.273  40.322   4.731
11722W        W73176  22.640  24.973   4.216
11723W        W73177  17.602   7.817  13.357
11724W        W73178  18.606  42.975   4.138
11725W        W73179   2.327   7.200  14.915
11726W        W73180  14.273   8.187   2.825
11727W        W73181   8.390   9.843   3.362
11728W        W73182  31.932  33.524   3.374
11729W        W73183   4.384   7.803  12.493
11730W        W73184  27.630  15.761  12.398
11731W        W73185  20.555  26.114   4.599
11732W        W73186   3.279  27.194   1.796
11733W        W73187  32.521  13.195   2.768
11734W        W73188  23.682  38.882   0.748
11735W        W73189   6.686   3.752   2.353
11736W        W73190  20.035  16.745   3.864
11737W        W73191  31.634  10.664  13.535
11738W        W73192   0.253   2.337  13.924
11739W        W73193  11.838   6.334   0.391
11740W        W73194  16.734  22.032  12.933
11741W        W73195  38.505  26.191  12.088
11742W        W73196  23.230  34.392  10.963
11743W        W73197  39.927  12.772  11.062
11744W        W73198  39.460  30.029  13.330
11745W        W73199  25.580   5.399  13.972
11746W        W73200  10.380   7.800  12.376
11747W        W73201  27.561  22.542   5.718
11748W        W73202   7.829  27.573   0.366
11749W        W73203  43.792  20.235  14.017
11750W        W73204  20.031  38.387  11.443
11751W        W73205  43.887  10.201   4.273
11752W        W73206  29.458   9.660   3.377
11753W        W73207  10.273  36.926   1.739
11754W        W73208  15.114  37.499   2.392
11755W        W73209  18.265   5.852   2.378
11756W        W73210   7.796  40.005   3.259
11757W        W73211  35.936  31.488  13.860
11758W        W73212  16.574  35.923  11.406
11759W        W73213  32.454  39.881  13.503
11760W        W73214  13.839  11.828  14.816
11761W        W73215   6.296   5.329  14.001
11762W        W73216  41.019  36.417  11.462
11763W        W73217  27.965  40.353   3.807
11764W        W73218  21.555  44.393  10.894
11765W        W73219  25.483   1.770   2.345
11766W        W73220  17.070   6.390   5.104
11767W        W73221  36.452  32.966   0.906
11768W        W73222  44.332   7.810   0.731
11769W        W73223  23.034   6.366  12.423
11770W        W73224  23.579  10.295  12.568
11771W        W73225  15.283  36.901   0.751
11772W        W73226  41.521   4.336  12.856
11773W        W73227  29.985  34.985   0.814
11774W        W73228  42.859  41.889   4.279
11775W        W73229  13.137  40.360   3.709
11776W        W73230   1.850   4.249  12.856
11777W        W73231   1.455  40.937  10.480
11778W        W73232   8.305  26.521   2.399
11779W        W73233  14.638  39.872   2.360
11780W        W73234   5.913  12.334   1.388
11781W        W73235  31.521  39.916  14.022
11782W        W73236  40.545  41.960   2.793
11783W        W73237  29.107  29.089   4.651
11784W        W73238  15.794  37.038  11.384
11785W        W73239  17.272  21.625   3.775
11786W        W73240  33.968  16.280   3.317
11787W        W73241  11.305  20.732   3.865
11788W        W73242  26.560  29.025   4.722
11789W        W73243  10.719  38.547   3.696
11790W        W73244  35.023  38.409  12.396
11791W        W73245  28.631  27.511  12.493
11792W        W73246   3.836  43.012  12.033
11793W        W73247  37.530  35.397  12.934
11794W        W73248  30.567  15.108  10.113
11795W        W73249   3.312   9.816   1.253
11796W        W73250  16.634  38.420   3.644
11797W        W73251  41.306  38.388  14.499
11798W        W73252   8.753   9.208  11.434
11799W        W73253   2.358   8.176   4.616
11800W        W73254  31.032  44.361  11.996
11801W        W73255   3.225  23.040   2.195
11802W        W73256  34.397  36.991  13.991
11803W        W73257  30.420  20.584   1.330
11804W        W73258  11.793  40.375  13.461
11805W        W73259  16.095  21.035  12.404
11806W        W73260  43.318   9.651  14.017
11807W        W73261  24.530  42.988  13.883
11808W        W73262  44.452  35.384  12.564
11809W        W73263   7.862   3.862   2.839
11810W        W73264  12.158  38.424  11.555
11811W        W73265  25.618  43.018  13.472
11812W        W73266   6.240  30.442  12.470
11813W        W73267  14.259   5.881  14.966
11814W        W73268  41.495  13.334   5.317
11815W        W73269  31.066  21.663  12.995
11816W        W73270   1.248  42.467  12.006
11817W        W73271  42.505   2.336   4.784
11818W        W73272  34.934   3.802   1.790
11819W        W73273   2.286  10.330  14.305
11820W        W73274  32.065  31.580  13.983
11821W        W73275  31.997   1.410   2.777
11822W        W73276  34.404  20.591   4.823
11823W        W73277  38.061  14.802   4.228
11824W        W73278  26.553  30.451  14.818
11825W        W73279  42.399  31.086  13.892
11826W        W73280  30.004  22.119   0.474
11827W        W73281  24.143  19.534  11.457
11828W        W73282  34.528  36.413  10.560
11829W        W73283  19.265  32.962   3.153
11830W        W73284   4.845   9.301   1.360
11831W        W73285  16.204  13.310  14.016
11832W        W73286  21.729  44.456   2.830
11833W        W73287  43.312   8.210  13.902
11834W        W73288  18.198   9.802   2.748
11835W        W73289  33.600   8.211   4.790
11836W        W73290  40.975   2.858  10.449
11837W        W73291  33.594   3.738  11.918
11838W        W73292  19.615  40.315  14.286
11839W        W73293   1.745   6.915   2.336
11840W        W73294  34.551  34.580  13.822
11841W        W73295  29.066  34.887   2.796
11842W        W73296  10.251  27.122   5.109
11843W        W73297   2.874  19.594   1.402
11844W        W73298  41.452   2.946   0.913
11845W        W73299  25.571  13.225  10.932
11846W        W73300  42.522  21.748   1.263
11847W        W73301  25.119  42.888   2.178
11848W        W73302  30.635  18.694  11.567
11849W        W73303   6.242  38.949   9.922
11850W        W73304   3.832   4.761  12.365
11851W        W73305  38.000  16.611   4.255
11852W        W73306  39.475  35.418   4.308
11853W        W73307  10.656   0.846  10.463
11854W        W73308  31.605  22.672   1.315
11855W        W73309   7.904   7.747  14.007
11856W        W73310  35.388  18.547   2.195
11857W        W73311  40.535  32.068  10.074
11858W        W73312  28.114   9.843  14.002
11859W        W73313  19.682  42.960  13.971
11860W        W73314   2.732   9.276  14.872
11861W        W73315  36.947   0.787  14.896
11862W        W73316  36.463   4.287   3.678
11863W        W73317   2.249  24.584  11.593
11864W        W73318  40.963   2.380   0.418
11865W        W73319   6.702  44.331   0.825
11866W        W73320  37.069  36.981   2.393
11867W        W73321  20.724  16.163   3.268
11868W        W73322  10.715  41.791   0.788
11869W        W73323   5.899   4.416  14.293
11870W        W73324  17.163   2.397   1.404
11871W        W73325  35.886  32.032   4.678
11872W        W73326  22.055  35.451  14.293
11873W        W73327  22.051  23.515  13.830
11874W        W73328  34.014  16.080  12.898
11875W        W73329   2.805  11.256   0.453
11876W        W73330  39.013   2.773   3.252
11877W        W73331   0.841  30.122  14.291
11878W        W73332  11.308   8.322  10.437
11879W        W73333  23.618  12.796  12.861
11880W        W73334  34.599  24.188  12.894
11881W        W73335  38.485  37.410  11.037
11882W        W73336  15.241  42.333   0.912
11883W        W73337  22.057  40.950   1.289
11884W        W73338  27.453  37.862   3.644
11885W        W73339  14.326  35.492   4.715
11886W        W73340  41.449  36.855   3.155
11887W        W73341  22.085   7.304  10.083
11888W        W73342  20.669  11.129  12.478
11889W        W73343  30.614  28.015  14.966
11890W        W73344  40.927  14.704  10.466
11891W        W73345  14.303  36.863  14.298
11892W        W73346  30.018  39.522  13.899
11893W        W73347   6.242  41.528   3.666
11894W        W73348  15.242  40.998   0.813
11895W        W73349  20.561  31.909  14.307
11896W        W73350   5.878  25.985   0.933
11897W        W73351  15.234   0.344   0.364
11898W        W73352  41.524  25.970   0.452
11899W        W73353  29.465   9.795   0.464
11900W        W73354  21.020   4.717   0.841
11901W        W73355  37.861  34.978   2.874
11902W        W73356  13.635   8.400   0.309
11903W        W73357  30.582  20.044  14.296
11904W        W73358  34.543  42.316  10.528
11905W        W73359  34.402  14.626   4.205
11906W        W73360  37.382  17.199  14.374
11907W        W73361  21.195   8.833   2.415
11908W        W73362  27.447  21.199  10.551
11909W        W73363   8.186  35.406  14.449
11910W        W73364  14.632   1.330   2.735
11911W        W73365   3.451   1.314   4.650
11912W        W73366  18.766  19.050   3.348
11913W        W73367  33.013   8.306  10.563
11914W        W73368  42.866  26.684  13.953
11915W        W73369  10.159  10.263  14.283
11916W        W73370  16.307  22.720   3.695
11917W        W73371  38.365  36.410   2.736
11918W        W73372  30.091   3.259   2.872
11919W        W73373  16.697  36.430  13.496
11920W        W73374  43.861  36.879   0.775
11921W        W73375   9.232  36.050  13.493
11922W        W73376  35.028  12.767   3.226
11923W        W73377  15.101  21.531   0.733
11924W        W73378   6.195  37.563  12.390
11925W        W73379  37.449   2.766   2.222
11926W        W73380   7.863  13.765   2.209
11927W        W73381  25.189  32.039   1.910
11928W        W73382  44.867  30.045   1.250
11929W        W73383  14.121  14.228  13.489
11930W        W73384  20.136   6.793  14.456
11931W        W73385  25.519   0.842  10.407
11932W        W73386  37.543  17.252   2.200
11933W        W73387   8.226  35.568   2.871
11934W        W73388  16.117  38.049   0.957
11935W        W73389  29.666  18.164   1.803
11936W        W73390   7.271   1.243  14.787
11937W        W73391  30.562  14.204   4.736
11938W        W73392  37.003  19.739  13.794
11939W        W73393  20.118  35.541  14.482
11940W        W73394   7.752  44.465  14.365
11941W        W73395  42.493  26.013   1.380
11942W        W73396  41.364  38.447   3.852
11943W        W73397  39.868  37.948  14.883
11944W        W73398  44.323  40.487  10.059
11945W        W73399  42.933  42.801   2.853
11946W        W73400   2.733  38.942   4.684
11947W        W73401  37.410  41.960  13.053
11948W        W73402  14.120  16.089  12.406
11949W        W73403  27.480   1.467   4.325
11950W        W73404  35.022  17.612  10.413
11951W        W73405  39.532   4.749   0.921
11952W        W73406  14.759   7.231  14.278
11953W        W73407  20.088   8.327  11.487
11954W        W73408   9.160  41.031  12.079
11955W        W73409  13.252  11.822  12.907
11956W        W73410  12.313  10.660   3.265
11957W        W73411   5.781  36.982   2.843
11958W        W73412  24.120   5.775  14.829
11959W        W73413   0.408  28.155  12.916
11960W        W73414  42.838   0.956  12.856
11961W        W73415  26.119  29.596   1.783
11962W        W73416  30.592  11.794  14.488
11963W        W73417  25.158  11.281  13.849
11964W        W73418  20.664  23.662  12.995
11965W        W73419  24.502  26.530   0.396
11966W        W73420  15.140  41.044   1.850
11967W        W73421  23.622  34.020  11.399
11968W        W73422  39.459   1.744  14.853
11969W        W73423  16.197  25.484   1.412
11970W        W73424  26.525  30.012   3.337
11971W        W73425  33.612  24.671  10.406
11972W        W73426   1.389  27.002   2.710
11973W        W73427   2.256  13.760   1.869
11974W        W73428   1.349  16.161   2.714
11975W        W73429   3.296  27.189   0.742
11976W        W73430  25.662  24.069  11.979
11977W        W73431  19.666  29.112  11.947
11978W        W73432  42.954  43.981   2.196
11979W        W73433  11.819  29.635  12.963
11980W        W73434  17.278  18.579   0.828
11981W        W73435  32.005   8.776   1.877
11982W        W73436  28.437  32.396   4.290
11983W        W73437  32.023  37.427  14.927
11984W        W73438   2.728  30.485  13.931
11985W        W73439  12.692  27.480   1.272
11986W        W73440  17.263   5.874   2.418
11987W        W73441  14.125  38.001   1.899
11988W        W73442  35.984  34.912  14.943
11989W        W73443   4.884  14.696   3.721
11990W        W73444  44.998  32.018  10.416
11991W        W73445  31.634  15.190   3.312
11992W        W73446  16.798  35.569  11.083
11993W        W73447  14.740  42.348  13.352
11994W        W73448  18.179  14.823  11.922
11995W        W73449  17.768  25.711   1.236
11996W        W73450  18.174   2.767   3.185
11997W        W73451  12.677   3.809  13.334
11998W        W73452  42.330  32.973   1.451
11999W        W73453  31.580  28.492   4.335
12000W        W73454   9.732   3.949   0.438
12001W        W73455  17.567  35.388   4.687
12002W        W73456   5.891  27.162   2.807
12003W        W73457   7.401  20.098  11.446
12004W        W73458  10.148  24.574   4.291
12005W        W73459  41.926   4.361  12.037
12006W        W73460  37.880   3.397   2.306
12007W        W73461   8.176   9.202  11.391
12008W        W73462   8.779  44.001  11.480
12009W        W73463   4.881   3.239  10.126
12010W        W73464  38.955   0.353  12.553
12011W        W73465  16.159  10.874  14.789
12012W        W73466   5.398  37.384  10.470
12013W        W73467  22.680   8.871  12.401
12014W        W73468  42.886  36.889  10.618
12015W        W73469  14.802   0.767   4.276
12016W        W73470  11.737   6.181  12.568
12017W        W73471   9.821  10.695  12.416
12018W        W73472  44.859  35.884   1.366
12019W        W73473   3.341  42.014  13.961
12020W        W73474  37.953  34.407  14.834
12021W        W73475  40.495  26.495  11.396
12022W        W73476  17.253  44.325   5.089
12023W        W73477   2.852  13.269   3.699
12024W        W73478  37.453   7.891   1.211
12025W        W73479  29.099  17.566   4.807
12026W        W73480  10.661  23.734  10.926
12027W        W73481   4.320   0.799   3.783
12028W        W73482  19.566  10.761  10.977
12029W        W73483  30.554  37.355  14.385
12030W        W73484  39.996  36.991   4.268
12031W        W73485  18.743  42.795  14.354
12032W        W73486   2.720  10.193  12.835
12033W        W73487  22.548   8.686  12.019
12034W        W73488  16.289  25.552  10.459
12035W        W73489  29.170  29.608  13.843
12036W        W73490   6.207  26.647   0.273
12037W        W73491  28.111  17.712   3.274
12038W        W73492  40.464  27.157  11.978
12039W        W73493  30.646  32.132  14.778
12040W        W73494  18.168  43.326   2.183
12041W        W73495  24.096  28.946  11.978
12042W        W73496  18.610  41.341   2.810
12043W        W73497  33.905   1.918  11.569
12044W        W73498  28.037  27.627   3.715
12045W        W73499  19.183  18.193  10.446
12046W        W73500  40.442  14.331  10.145
12047W        W73501  15.290  30.999   0.759
12048W        W73502  44.469   0.354   1.838
12049W        W73503  37.480  13.258   0.333
12050W        W73504  39.407   6.340   1.212
12051W        W73505   1.284  39.381   2.894
12052W        W73506  11.172  39.518  12.846
12053W        W73507  29.572  23.192   2.903
12054W        W73508  31.443  35.523  10.458
12055W        W73509  23.998   2.846  12.051
12056W        W73510  24.047  43.784   4.250
12057W        W73511  19.213  14.748  13.030
12058W        W73512  36.856  29.531  13.414
12059W        W73513  11.371  14.293   3.266
12060W        W73514  24.542  28.528  12.561
12061W        W73515  33.417  24.548   5.148
12062W        W73516  43.981   0.295   4.706
12063W        W73517  40.462   9.810   4.154
12064W        W73518   5.341  31.468   2.295
12065W        W73519  28.141   2.944  11.019
12066W        W73520   5.326  26.663   1.931
12067W        W73521  33.099  32.443   2.842
12068W        W73522  44.908   4.866   4.316
12069W        W73523  13.221  26.995  14.849
12070W        W73524  18.283  12.680  12.346
12071W        W73525  40.427   2.361  12.838
12072W        W73526  43.834  13.214  14.342
12073W        W73527  40.797   0.966   0.821
12074W        W73528   5.833  26.043  12.416
12075W        W73529  16.240  34.379   1.319
12076W        W73530  22.736  28.543   1.336
12077W        W73531  33.558  24.068   0.263
12078W        W73532  44.325  31.079   4.617
12079W        W73533  26.984  37.420   1.314
12080W        W73534  23.228  21.610   3.669
12081W        W73535  42.299  11.861  14.396
12082W        W73536  34.401  20.656  13.046
12083W        W73537  11.804   3.261  11.070
12084W        W73538   1.754  15.208  12.064
12085W        W73539   3.378   7.246   1.352
12086W        W73540  10.187   1.885   0.370
12087W        W73541   0.274  32.011  13.477
12088W        W73542  24.195  43.950  12.958
12089W        W73543  12.830  13.636   1.356
12090W        W73544  24.990   5.933  11.068
12091W        W73545   0.930   9.837   2.363
12092W        W73546  37.367  35.518   3.674
12093W        W73547  37.549  28.966   4.247
12094W        W73548  15.161   5.252  12.077
12095W        W73549  13.321  21.543  10.954
12096W        W73550   0.330   6.720   2.847
12097W        W73551  35.577  26.992   3.860
12098W        W73552  21.590  23.082  10.909
12099W        W73553  34.030  31.428  13.972
12100W        W73554   3.796   6.209   3.658
12101W        W73555  13.211   0.954   0.480
12102W        W73556  22.154  34.006   3.783
12103W        W73557  44.417  31.413  10.000
12104W        W73558  17.092   4.766  11.410
12105W        W73559  43.287  34.922   2.835
12106W        W73560  19.696   4.290   3.237
12107W        W73561   4.382  33.974  13.456
12108W        W73562  16.173  20.080  14.398
12109W        W73563  32.561  44.477   4.677
12110W        W73564  36.003  38.838  10.464
12111W        W73565   1.435  27.145  14.901
12112W        W73566  12.224  36.053  10.904
12113W        W73567  43.407  27.635  10.929
12114W        W73568  36.948  31.060  12.010
12115W        W73569  27.069  28.953  12.339
12116W        W73570   8.338  31.131   3.285
12117W        W73571  33.392  29.144  13.523
12118W        W73572  31.968  34.965   2.775
12119W        W73573  24.114  27.029  12.529
12120W        W73574  16.678  30.429   3.272
12121W        W73575   9.339  15.650   3.808
12122W        W73576  37.856  31.092   3.159
12123W        W73577  24.110  38.568   0.262
12124W        W73578  36.453  39.517   2.395
12125W        W73579  23.036   6.240   3.330
12126W        W73580  21.250  43.959   4.731
12127W        W73581   5.313  37.926  10.599
12128W        W73582  15.265  29.920   0.304
12129W        W73583  22.159  25.185   2.357
12130W        W73584  10.183  41.794   1.316
12131W        W73585   5.716  32.515   2.363
12132W        W73586   7.324  28.608  13.466
12133W        W73587  36.463  41.978   3.370
12134W        W73588  32.039  24.016   0.295
12135W        W73589  15.812  41.999  11.088
12136W        W73590  33.584  39.892  10.000
12137W        W73591  11.623  25.677  13.827
12138W        W73592  29.013  17.301   4.669
12139W        W73593  18.722  32.521  12.061
12140W        W73594  29.023  36.029  12.508
12141W        W73595  36.359   7.289  14.028
12142W        W73596   5.221  38.870  14.309
12143W        W73597  38.554  22.625   1.370
12144W        W73598  34.526   0.768  11.936
12145W        W73599  13.647  22.171   1.835
12146W        W73600  32.424  19.282   4.647
12147W        W73601  41.817  19.759  12.532
12148W        W73602  41.383  34.032   2.824
12149W        W73603   1.876  35.004  13.486
12150W        W73604   5.805   7.790  13.983
12151W        W73605  13.724  14.700   4.806
12152W        W73606  36.385  39.849   0.270
12153W        W73607  36.468  41.014  10.419
12154W        W73608  41.816  10.318   4.733
12155W        W73609  40.038   3.460   0.812
12156W        W73610  11.193  11.818  14.483
12157W        W73611  11.780   5.388  10.512
12158W        W73612  27.638  43.951   3.386
12159W        W73613  33.102   7.340  11.512
12160W        W73614  26.503  24.635   0.752
12161W        W73615   4.277   1.290   2.245
12162W        W73616  36.037  31.553   2.714
12163W        W73617  25.209  43.770  11.984
12164W        W73618  13.243  18.552   0.779
12165W        W73619   6.797  27.981  11.892
12166W        W73620  33.580  16.125   2.773
12167W        W73621  27.969   3.817   2.777
12168W        W73622   9.190  20.724   0.419
12169W        W73623  40.935  25.688   3.771
12170W        W73624  16.218  13.665  12.840
12171W        W73625  14.798  19.655   2.874
12172W        W73626   7.787  36.562  11.556
12173W        W73627  30.992   8.165  11.993
12174W        W73628  42.842  42.433  12.975
12175W        W73629  22.064  40.394   2.201
12176W        W73630  24.520  22.025  10.605
12177W        W73631  21.102  13.266  11.474
12178W        W73632  41.816   4.702   4.701
12179W        W73633  33.886  12.120  11.988
12180W        W73634  13.271  42.929   3.870
12181W        W73635  17.632  11.340  11.466
12182W        W73636  41.880   1.320  10.602
12183W        W73637  14.119   0.764  14.812
12184W        W73638   3.320  31.991   0.841
12185W        W73639  27.131  41.798  12.915
12186W        W73640  28.612  22.604  12.367
12187W        W73641  11.348  42.954   4.708
12188W        W73642  10.154  23.167  11.951
12189W        W73643  20.540  30.502  13.385
12190W        W73644  40.910  10.780  14.867
12191W        W73645  20.766  15.786  11.547
12192W        W73646  20.623   8.196   0.307
12193W        W73647   8.195  37.416  11.931
12194W        W73648  10.725  14.725   2.891
12195W        W73649   6.853  15.172  10.556
12196W        W73650  36.474   9.683  11.103
12197W        W73651   1.910  18.155  12.890
12198W        W73652  33.504  16.638  11.379
12199W        W73653  10.832  37.830   1.717
12200W        W73654   8.280  37.476   0.472
12201W        W73655  11.769  29.587  13.388
12202W        W73656  15.281  19.275  11.424
12203W        W73657  34.082   7.734   4.273
12204W        W73658  40.478   0.480  14.921
12205W        W73659  21.687  16.713  12.378
12206W        W73660  26.953   0.262   9.519
12207W        W73661  30.645   9.883   0.254
12208W        W73662  12.296  31.429   4.233
12209W        W73663  27.555  27.549  14.860
12210W        W73664  33.476  10.640   2.850
12211W        W73665  31.573  43.778  12.417
12212W        W73666  30.927  36.058  10.574
12213W        W73667   3.892  21.581   1.297
12214W        W73668  25.692   8.173  12.374
12215W        W73669  22.029  17.157   4.160
12216W        W73670  35.080  28.180   3.851
12217W        W73671  33.526  11.154   5.271
12218W        W73672   5.811  33.002   3.800
12219W        W73673  21.230  28.935  14.856
12220W        W73674  35.939  12.772   3.713
12221W        W73675  23.699  37.974  13.903
12222W        W73676  40.534  35.973   1.866
12223W        W73677  29.008  44.437   4.743
12224W        W73678  31.927  10.324   4.141
12225W        W73679  18.763  26.648  12.563
12226W        W73680   0.964   3.746  10.928
12227W        W73681  28.542  31.426  13.539
12228W        W73682  16.753  13.831   2.209
12229W        W73683  36.956  26.098  12.039
12230W        W73684  11.278  31.119   0.745
12231W        W73685  43.405   6.315  11.449
12232W        W73686  35.027  20.583   4.807
12233W        W73687  35.895  18.686   3.825
12234W        W73688  35.555  38.938  13.531
12235W        W73689   4.872  41.872  12.507
12236W        W73690  28.450   8.733   4.651
12237W        W73691  21.758  35.379   2.785
12238W        W73692  27.960  36.465   3.821
12239W        W73693   9.272  27.643   4.288
12240W        W73694  12.790  38.361  13.891
12241W        W73695   4.293  40.548   3.352
12242W        W73696  17.166   9.718  14.466
12243W        W73697  14.755  38.467  11.380
12244W        W73698  39.453   6.184   3.732
12245W        W73699  22.113  31.093  13.014
12246W        W73700  14.696  36.905  14.352
12247W        W73701  40.039  34.071  11.094
12248W        W73702   5.743  29.428   1.441
12249W        W73703  37.502  12.122  11.876
12250W        W73704   1.298  41.930   2.709
12251W        W73705   3.358  15.187  12.885
12252W        W73706  30.448  37.532  13.811
12253W        W73707  30.533   5.406  13.928
12254W        W73708  10.780  37.853  14.924
12255W        W73709  37.880  21.064  14.349
12256W        W73710   5.888  27.079   2.392
12257W        W73711  21.565  15.686  13.859
12258W        W73712  25.112  36.575   1.235
12259W        W73713   9.193   9.735  10.493
12260W        W73714  26.657   1.818  10.469
12261W        W73715   7.399  36.936  12.995
12262W        W73716  11.717  15.085  11.564
12263W        W73717  28.020   9.768  10.977
12264W        W73718   3.791  42.307   0.796
12265W        W73719  15.119   2.332   2.332
12266W        W73720  44.956  37.449  11.547
12267W        W73721  21.123  35.968  13.539
12268W        W73722  43.788  16.807   1.765
12269W        W73723  34.026  39.056  13.443
12270W        W73724   7.272   3.321   0.838
12271W        W73725  17.779  31.145   2.381
12272W        W73726  28.020   9.360  11.499
12273W        W73727  35.556  23.182  14.421
12274W        W73728  32.112  16.739  14.915
12275W        W73729  19.251  18.708   0.755
12276W        W73730  25.694  26.615  13.427
12277W        W73731  31.081  20.544   4.292
12278W        W73732   9.723  33.394   2.898
12279W        W73733  44.428  25.082   2.287
12280W        W73734  29.109  30.520  13.329
12281W        W73735   5.359  32.534  12.935
12282W        W73736  44.461   2.444  10.508
12283W        W73737  26.516  26.981   4.787
12284W        W73738   6.300   5.438  11.533
12285W        W73739  17.166  14.313   2.667
12286W        W73740  19.747  37.547   1.424
12287W        W73741  21.652  23.702  11.528
12288W        W73742  41.899  16.077   0.827
12289W        W73743  28.547  27.107   1.876
12290W        W73744  31.009   2.898  13.003
12291W        W73745  21.140   4.436   3.704
12292W        W73746  41.468   3.325  14.345
12293W        W73747  22.589   0.255  13.887
12294W        W73748  35.398  12.723   4.712
12295W        W73749  25.991  40.927   1.266
12296W        W73750   8.399   4.887   4.224
12297W        W73751  28.157  19.776   2.662
12298W        W73752   1.965   9.197  14.858
12299W        W73753  27.547   8.708  10.416
12300W        W73754  33.398   5.274  11.531
12301W        W73755  19.042  27.635   1.269
12302W        W73756   8.268  18.107  11.909
12303W        W73757  25.027  37.063  14.378
12304W        W73758  30.056  27.117  13.039
12305W        W73759  14.613  34.514  14.395
12306W        W73760  20.658  33.420   4.141
12307W        W73761  33.879  24.203   3.713
12308W        W73762  39.371  16.585  14.020
12309W        W73763  19.736  36.477   1.406
12310W        W73764  19.208  30.551   0.469
12311W        W73765  17.763  37.831   1.255
12312W        W73766  42.944  14.105   3.851
12313W        W73767  40.397   6.877   2.864
12314W        W73768  23.118  22.686   3.867
12315W        W73769  18.246  29.535   3.687
12316W        W73770  42.963  21.526   2.664
12317W        W73771  44.366  10.645  12.908
12318W        W73772   3.326  18.094  13.848
12319W        W73773   3.415   1.310   4.143
12320W        W73774  33.941  28.063   1.801
12321W        W73775  25.627  37.454   3.750
12322W        W73776  40.872  35.562  11.583
12323W        W73777   1.367   4.243  13.986
12324W        W73778  32.472  42.959  14.810
12325W        W73779  41.999  32.405  14.320
12326W        W73780  19.732  33.101  12.039
12327W        W73781   2.394  11.336  10.973
12328W        W73782  13.713  34.064   2.274
12329W        W73783  36.044  41.497  12.890
12330W        W73784  30.952   5.260  13.042
12331W        W73785  42.964  36.088   3.846
12332W        W73786   3.276  17.698   1.427
12333W        W73787  18.240  25.097  13.026
12334W        W73788  32.576  16.627   2.352
12335W        W73789  25.017   6.259  11.915
12336W        W73790  37.050  25.714  12.446
12337W        W73791  11.222  11.152  11.492
12338W        W73792  15.655  12.716  10.997
12339W        W73793   1.348  16.221  11.877
12340W        W73794  18.222  44.461  13.974
12341W        W73795  26.110   3.340   1.724
12342W        W73796   0.409  39.452   4.175
12343W        W73797  20.226   7.837  13.824
12344W        W73798  27.013   6.879   3.351
12345W        W73799   6.774  40.349  10.945
12346W        W73800  39.912  37.432  10.005
12347W        W73801   2.465  26.196   1.427
12348W        W73802  20.159  25.592   2.783
12349W        W73803  14.103  28.975   4.631
12350W        W73804   3.944  20.190  13.859
12351W        W73805  25.510  23.652   4.799
12352W        W73806  10.149  23.586   4.715
12353W        W73807  11.834  43.804   1.439
12354W        W73808  41.454  36.544  10.522
12355W        W73809  22.167  41.838   1.358
12356W        W73810   3.434  14.805  12.385
12357W        W73811  17.724  26.559   1.911
12358W        W73812   2.249  20.101   1.836
12359W        W73813  11.867  15.227  10.999
12360W        W73814   3.822  34.871   4.219
12361W        W73815  18.105   7.354  10.417
12362W        W73816   8.373  23.213   1.754
12363W        W73817  31.900   4.780  13.819
12364W        W73818  40.054  42.777   3.352
12365W        W73819   9.366  30.458  14.398
12366W        W73820  39.883   3.744   2.716
12367W        W73821  15.100  35.497  11.031
12368W        W73822  25.501  30.435   1.753
12369W        W73823  23.522   9.267   2.405
12370W        W73824  25.175   5.296  13.518
12371W        W73825  23.135  19.538   4.289
12372W        W73826   5.933   3.740  11.875
12373W        W73827  26.514   4.903  13.431
12374W        W73828  12.683  28.113  13.536
12375W        W73829   2.383   7.773  14.844
12376W        W73830  26.624  18.101  12.545
12377W        W73831  20.178  35.044   3.383
12378W        W73832  35.858  13.637  13.457
12379W        W73833  28.176   4.291   1.256
12380W        W73834  14.643  23.514   2.190
12381W        W73835  35.932  31.068   0.356
12382W        W73836  27.996  39.909  12.863
12383W        W73837   8.377  34.991  14.872
12384W        W73838  42.403  13.741   2.371
12385W        W73839   3.870  25.035  12.971
12386W        W73840  43.853  13.784  11.121
12387W        W73841  38.974  38.946   1.431
12388W        W73842  29.630  29.054   0.735
12389W        W73843  43.832  14.211   3.790
12390W        W73844  32.032  36.020  10.636
12391W        W73845  18.130  24.011   4.689
12392W        W73846  41.399  43.843  12.874
12393W        W73847  26.518  26.966  10.596
12394W        W73848  39.030  39.898   2.857
12395W        W73849  33.891  23.029  11.029
12396W        W73850   1.399  34.989  12.972
12397W        W73851  20.710  32.487   1.857
12398W        W73852   5.257  23.615   1.910
12399W        W73853  23.206  12.211   2.814
12400W        W73854  44.957  12.787   1.724
12401W        W73855  19.151  20.054   1.918
12402W        W73856  13.712  19.744   1.281
12403W        W73857  16.179  11.733  13.984
12404W        W73858  33.399  13.681   4.303
12405W        W73859  27.981  14.622   3.286
12406W        W73860  22.502  20.230   0.883
12407W        W73861  15.617   6.327  10.616
12408W        W73862   2.744  41.863  12.007
12409W        W73863  12.347   5.256   0.926
12410W        W73864   6.213   7.304   4.824
12411W        W73865  33.540  20.253   0.930
12412W        W73866  17.247  34.403   9.940
12413W        W73867  34.601  36.351  11.530
12414W        W73868  28.513  44.403   4.144
12415W        W73869  26.532   2.907  14.482
12416W        W73870  28.951   3.316   3.300
12417W        W73871  29.161  23.998  11.872
12418W        W73872  26.596  42.989   2.316
12419W        W73873  17.701  18.081  11.536
12420W        W73874   1.947  20.152  11.127
12421W        W73875  22.241  35.413   1.861
12422W        W73876   2.848   5.370   3.223
12423W        W73877  19.692   1.456  14.413
12424W        W73878  18.071  16.222   4.830
12425W        W73879   5.881  18.076   4.662
12426W        W73880  22.636  17.302  12.961
12427W        W73881  16.098   4.787  10.079
12428W        W73882  10.246  14.593   0.944
12429W        W73883   9.336  22.625  12.550
12430W        W73884   4.407  24.570   2.242
12431W        W73885   3.953   1.921  14.276
12432W        W73886  10.184  41.903   2.714
12433W        W73887  38.432  12.211  12.031
12434W        W73888  20.144  18.588  13.049
12435W        W73889  29.583  40.410   2.820
12436W        W73890  20.657   7.327   4.650
12437W        W73891  17.636  15.734   4.787
12438W        W73892  26.640  39.440   3.814
12439W        W73893   9.333  39.951  11.424
12440W        W73894   1.803  19.136   0.959
12441W        W73895  37.017  28.005  13.003
12442W        W73896  33.406  21.745  13.321
12443W        W73897  18.093   9.317   2.270
12444W        W73898   0.431  44.886  12.503
12445W        W73899  24.631   3.787   1.396
12446W        W73900   8.330   9.705  11.463
12447W        W73901  39.476  14.727  14.450
12448W        W73902  28.081  29.103   2.229
12449W        W73903  20.033  28.470   4.151
12450W        W73904  26.578   5.741  13.972
12451W        W73905  11.696  19.048  12.009
12452W        W73906  12.189   0.340   2.353
12453W        W73907  42.304   0.458   4.123
12454W        W73908  11.202  23.547  11.598
12455W        W73909  39.440  14.268   3.729
12456W        W73910  13.765  31.452  10.536
12457W        W73911  33.886  12.118   0.897
12458W        W73912   4.233   3.838   3.778
12459W        W73913  20.246   0.488  12.387
12460W        W73914   6.794  16.135  10.959
12461W        W73915   2.462  43.450   0.752
12462W        W73916  44.310   7.183   4.692
12463W        W73917  35.394  34.111  13.325
12464W        W73918   4.241  33.997  12.528
12465W        W73919  42.880   5.759  12.914
12466W        W73920   4.227  44.851  11.536
12467W        W73921  11.760  43.965  12.482
12468W        W73922   4.751   8.183   4.299
12469W        W73923  28.115  19.088   4.720
12470W        W73924   5.808   7.417   0.769
12471W        W73925  19.672   1.892  12.838
12472W        W73926  20.091  25.190   5.281
12473W        W73927   2.388  27.186   0.458
12474W        W73928  27.512  18.197   2.806
12475W        W73929   6.902  39.973   4.278
12476W        W73930  25.125  26.544   0.381
12477W        W73931  17.204  22.558   0.807
12478W        W73932   6.714  25.656  10.919
12479W        W73933  26.614  39.953   0.437
12480W        W73934   5.717  34.061   4.618
12481W        W73935  27.089  28.107  13.004
12482W        W73936  39.948  25.146   2.711
12483W        W73937   4.708   6.345  13.449
12484W        W73938  33.960  29.038  11.518
12485W        W73939  27.453  41.817   3.300
12486W        W73940  40.325  36.913   1.877
12487W        W73941  31.593  13.196  14.861
12488W        W73942   7.822   9.186   2.882
12489W        W73943  17.069   5.433   1.902
12490W        W73944  31.586  27.465   3.319
12491W        W73945  33.393  26.162   0.431
12492W        W73946  41.462  19.775   0.820
12493W        W73947  26.509   8.767   0.256
12494W        W73948  22.178  33.545  12.535
12495W        W73949  17.754  24.717   3.669
12496W        W73950  39.021  34.074  14.767
12497W        W73951  16.673  15.323  11.902
12498W        W73952  43.332   6.352  10.580
12499W        W73953  35.029  32.979  14.018
12500W        W73954  41.904  28.525  11.009
12501W        W73955  44.778  10.286  11.381
12502W        W73956  38.856   4.269   0.473
12503W        W73957  25.076   3.903   4.624
12504W        W73958  29.969   2.345   0.807
12505W        W73959  22.070  10.243   0.299
12506W        W73960  42.884  32.082  10.639
12507W        W73961  35.400  16.601  10.607
12508W        W73962   1.948  12.194  13.910
12509W        W73963  25.513  19.645   5.105
12510W        W73964  20.102  12.816  11.541
12511W        W73965   3.366  18.280  12.094
12512W        W73966  12.613   0.893  10.515
12513W        W73967  29.047  36.963  13.385
12514W        W73968   9.739  11.232   0.731
12515W        W73969  41.965  17.694   3.258
12516W        W73970  28.175  13.630   1.804
12517W        W73971  24.982  37.451  12.072
12518W        W73972  31.097  13.638   4.127
12519W        W73973  27.616   7.315  13.982
12520W        W73974  23.172  22.242  14.812
12521W        W73975  26.679  31.465   2.237
12522W        W73976  43.473   6.736  12.837
12523W        W73977  12.696  13.161   1.797
12524W        W73978  11.863   3.257  14.878
12525W        W73979  17.560  34.561  14.885
12526W        W73980  11.772  22.694   2.391
12527W        W73981   4.908  18.161   0.340
12528W        W73982  41.523  36.851   4.684
12529W        W73983  31.004   6.706  13.534
12530W        W73984  37.994   4.770  11.082
12531W        W73985  27.993  30.966   1.439
12532W        W73986  33.587  24.673   2.833
12533W        W73987  19.137  24.165   4.301
12534W        W73988   2.412  27.997  10.640
12535W        W73989  25.620  14.601  12.877
12536W        W73990  38.396  38.425  14.833
12537W        W73991   3.357  11.158  14.354
12538W        W73992  20.164  20.587  11.040
12539W        W73993  15.166   4.251  11.485
12540W        W73994  24.979  19.756   1.293
12541W        W73995   9.884  29.544   3.162
12542W        W73996  41.804  41.489  12.009
12543W        W73997  28.079  41.301  14.419
12544W        W73998   8.892   5.358  11.470
12545W        W73999   1.850  30.067   0.961
12546W        W74000  44.435   8.345   0.360
12547W        W74001   8.800  26.990  11.991
12548W        W74002   6.264  20.052   0.375
12549W        W74003  18.238  21.109   0.795
12550W        W74004  40.371  18.104   4.312
12551W        W74005   6.810   6.891  12.000
12552W        W74006  31.036  44.390  14.874
12553W        W74007   9.855  34.026   2.384
12554W        W74008  25.186  37.841   0.347
12555W        W74009   3.817  18.105  12.043
12556W        W74010  24.609  10.373   9.974
12557W        W74011  33.934  34.396   3.734
12558W        W74012  33.901  17.289  11.927
12559W        W74013  36.027  19.687  14.445
12560W        W74014   2.799  29.088   1.294
12561W        W74015  29.988  43.930  13.801
12562W        W74016  34.544   3.912   3.758
12563W        W74017  36.579   6.366  11.945
12564W        W74018  19.220  38.383  14.443
12565W        W74019  27.496  23.719  11.523
12566W        W74020  39.927  20.129  13.423
12567W        W74021  32.630  33.059   3.711
12568W        W74022  40.416   2.329   2.664
12569W        W74023  30.927  32.432   2.361
12570W        W74024  26.692  41.836  13.058
12571W        W74025   9.359  17.654  13.429
12572W        W74026   3.850  26.691   5.127
12573W        W74027  28.502  26.056  11.463
12574W        W74028  17.729  27.087   4.718
12575W        W74029  22.510  21.648   3.218
12576W        W74030   9.336  13.728  12.523
12577W        W74031  14.640  35.458  11.980
12578W        W74032  41.850  26.069  11.858
12579W        W74033  12.780   3.924  14.398
12580W        W74034   1.358   2.396  14.003
12581W        W74035  42.483  12.267   1.869
12582W        W74036   9.375  20.230   0.400
12583W        W74037  28.677  30.979   2.258
12584W        W74038   1.346  37.457   2.225
12585W        W74039   6.846  16.683   3.319
12586W        W74040   4.904   3.450  10.590
12587W        W74041  26.171  38.375  12.495
12588W        W74042  42.916  26.115  12.038
12589W        W74043  24.122   7.245   2.699
12590W        W74044  43.502  25.697   0.444
12591W        W74045  24.045  10.366  11.373
12592W        W74046  41.799  40.462   1.753
12593W        W74047   9.689   5.900   1.704
12594W        W74048  11.667   4.944  11.099
12595W        W74049  12.123  30.050   4.665
12596W        W74050   9.153  33.569  12.989
12597W        W74051   9.151  31.115  13.026
12598W        W74052  24.632  13.194   4.350
12599W        W74053  13.704  20.706   4.718
12600W        W74054   2.345  33.106   0.312
12601W        W74055  17.285   4.289  10.897
12602W        W74056  33.023  35.375  10.987
12603W        W74057   9.689  41.960  12.448
12604W        W74058  13.652  42.398  13.418
12605W        W74059  10.758  42.018   4.618
12606W        W74060  42.348  26.534  13.483
12607W        W74061  23.599  28.646   2.812
12608W        W74062  24.628  19.774  10.904
12609W        W74063  29.060  10.844  10.551
12610W        W74064  39.983  28.056  11.472
12611W        W74065  11.657  17.609  11.858
12612W        W74066  21.529  16.713   0.260
12613W        W74067  16.797   1.422  14.899
12614W        W74068  30.627  19.551  13.996
12615W        W74069  35.982   1.964   3.816
12616W        W74070   1.904  43.515   1.335
12617W        W74071  43.016  16.199  11.072
12618W        W74072  30.156   0.859   4.251
12619W        W74073  31.415   9.760   0.418
12620W        W74074   2.316  30.033   1.315
12621W        W74075  34.019   9.313   3.304
12622W        W74076  29.628  31.079   3.705
12623W        W74077  12.628  29.592   0.444
12624W        W74078  12.278   2.899  11.072
12625W        W74079  17.161  26.131   2.311
12626W        W74080   7.287  10.187   2.245
12627W        W74081  35.072   9.211   4.734
12628W        W74082  15.126  10.791  14.967
12629W        W74083  44.275  41.919  12.829
12630W        W74084   9.293  40.860  10.556
12631W        W74085   4.224  19.158  11.090
12632W        W74086   2.947  36.908   1.403
12633W        W74087   8.366   9.155  10.965
12634W        W74088  26.697  23.630   0.291
12635W        W74089   6.359   4.853  11.898
12636W        W74090   2.375  38.059  11.397
12637W        W74091   3.298  20.043  14.395
12638W        W74092  18.232  40.968  10.966
12639W        W74093  32.564  11.129  11.030
12640W        W74094   8.823  13.202  12.398
12641W        W74095  12.780  35.104   4.129
12642W        W74096  44.277   1.464   3.721
12643W        W74097  23.186  11.137   3.236
12644W        W74098  30.439  33.982   9.934
12645W        W74099  22.112  44.986   2.346
12646W        W74100  41.002  28.994   0.735
12647W        W74101  41.038  29.587   0.908
12648W        W74102   9.322  39.509   0.397
12649W        W74103  22.730  24.157   1.761
12650W        W74104   5.314  29.160   0.350
12651W        W74105  23.545  17.614  12.888
12652W        W74106   7.294  20.274   1.823
12653W        W74107  25.571  44.368  12.987
12654W        W74108  32.438  44.410  11.380
12655W        W74109   3.243  11.838   2.178
12656W        W74110   7.202  30.162  10.425
12657W        W74111  43.488  40.400   3.725
12658W        W74112  38.830  35.428   3.175
12659W        W74113  32.107  16.092   3.717
12660W        W74114  14.298   0.911   0.429
12661W        W74115   7.171  26.082  13.516
12662W        W74116  11.197   0.852  12.573
12663W        W74117  18.250  33.095   2.260
12664W        W74118   4.932   0.329  14.904
12665W        W74119  33.902  35.453  14.501
12666W        W74120  27.126  33.506  14.408
12667W        W74121  16.772  25.972   1.347
12668W        W74122  43.390  30.102  14.990
12669W        W74123  33.543  40.980   0.921
12670W        W74124  15.274  23.631  13.851
12671W        W74125  35.902  25.597   0.257
12672W        W74126  15.311  10.181   3.264
12673W        W74127  36.851  23.639  12.970
12674W        W74128  36.912  44.959  11.086
12675W        W74129  40.046  30.141  14.293
12676W        W74130  35.105   1.802   4.625
12677W        W74131   1.401  31.626  14.378
12678W        W74132  32.609  25.586  14.423
12679W        W74133  33.610  24.017   3.238
12680W        W74134  25.165  29.531  13.827
12681W        W74135  24.154   7.415  11.102
12682W        W74136   2.734   6.184  12.447
12683W        W74137  21.165  40.355   1.210
12684W        W74138  41.816  37.998   1.446
12685W        W74139  35.913   4.938   0.942
12686W        W74140   0.887  27.601  12.017
12687W        W74141  24.713  29.143  12.554
12688W        W74142  44.352  37.084   1.381
12689W        W74143  22.714   5.859   3.814
12690W        W74144  31.439   3.797   3.381
12691W        W74145  24.209   3.293   2.779
12692W        W74146  15.761  36.056  10.617
12693W        W74147  34.594  14.172  11.039
12694W        W74148  17.652  43.806  11.023
12695W        W74149  31.951   6.911  14.350
12696W        W74150  34.992  17.563   1.731
12697W        W74151  10.844   1.280   3.696
12698W        W74152  42.875   5.299  13.849
12699W        W74153  29.553  31.109  14.869
12700W        W74154  26.589  43.444   2.346
12701W        W74155  10.864  40.808   2.716
12702W        W74156  10.821   5.222   3.274
12703W        W74157  43.882  36.043  14.334
12704W        W74158  27.668  18.097  10.613
12705W        W74159  34.062  30.542  10.590
12706W        W74160  39.371  20.662   0.741
12707W        W74161  26.139  26.520  13.002
12708W        W74162  42.866  27.618   2.419
12709W        W74163  23.498   1.744  10.527
12710W        W74164  23.007  28.072  12.956
12711W        W74165  27.134  34.002   3.185
12712W        W74166  24.136  37.519  13.341
12713W        W74167  34.511  40.415  11.470
12714W        W74168   9.858  10.854   3.162
12715W        W74169  21.601  18.672   1.420
12716W        W74170  43.941   1.900   2.715
12717W        W74171  23.609  20.241   3.796
12718W        W74172  12.319  39.442   2.669
12719W        W74173  23.038  31.999  10.464
12720W        W74174  17.282  38.908   2.855
12721W        W74175  13.720  13.728   4.767
12722W        W74176  27.636  12.850   5.081
12723W        W74177   8.717  43.936   3.743
12724W        W74178  19.731  12.643   1.237
12725W        W74179   5.815  11.739   0.865
12726W        W74180  24.180  41.538  11.127
12727W        W74181   7.762  37.865   1.374
12728W        W74182  15.202  16.133  14.804
12729W        W74183  39.509  32.396  14.389
12730W        W74184  14.588   7.339   3.669
12731W        W74185  44.829  44.917   2.215
12732W        W74186   1.940  24.627  10.502
12733W        W74187  39.505  39.457  14.858
12734W        W74188   2.893  17.566   2.334
12735W        W74189  39.026  28.509   2.272
12736W        W74190  40.482  11.175   1.233
12737W        W74191  16.184  40.963  11.432
12738W        W74192   3.460  30.648  11.101
12739W        W74193  14.316  28.953  13.434
12740W        W74194  38.073  14.208   4.307
12741W        W74195  10.199   4.372  14.918
12742W        W74196   0.825  29.172   1.314
12743W        W74197  14.234   2.952  12.493
12744W        W74198  26.621  25.670  13.820
12745W        W74199   1.307  29.107  13.060
12746W        W74200  43.390  36.975  13.009
12747W        W74201  12.126  26.086   3.840
12748W        W74202  36.534  40.440   3.199
12749W        W74203   7.331  37.844  10.612
12750W        W74204  36.421  15.262   0.787
12751W        W74205  30.100  30.035  13.842
12752W        W74206  17.146   9.187   3.635
12753W        W74207  14.096  30.417   0.808
12754W        W74208  26.181  14.119   0.438
12755W        W74209  36.550  21.044   3.229
12756W        W74210  17.787  29.655   4.245
12757W        W74211  18.562  31.456  14.353
12758W        W74212  44.961   6.875   3.711
12759W        W74213  37.472  19.755  13.940
12760W        W74214   5.834  19.765   0.729
12761W        W74215  44.504  42.872   0.288
12762W        W74216  10.680  44.002   0.861
12763W        W74217  23.582   7.683  11.958
12764W        W74218  19.662   6.276   5.171
12765W        W74219  15.156   9.656  10.417
12766W        W74220  25.518  25.101  11.468
12767W        W74221  22.198   5.433  10.026
12768W        W74222  40.319  44.880   3.691
12769W        W74223   8.796  41.438  12.503
12770W        W74224   6.331  29.556   1.922
12771W        W74225  13.766  25.552   3.338
12772W        W74226  34.932  39.850   4.631
12773W        W74227  41.998  13.731  13.450
12774W        W74228  38.467  43.000   0.850
12775W        W74229   5.424  22.579  11.607
12776W        W74230  29.940  40.393  10.644
12777W        W74231  40.898   2.797  11.386
12778W        W74232  42.807  34.562  12.968
12779W        W74233  18.558  41.360   1.833
12780W        W74234  36.887   5.765  11.888
12781W        W74235  16.702  22.190  13.399
12782W        W74236  40.828  12.344  13.385
12783W        W74237  35.366  24.678   0.947
12784W        W74238   7.273  32.915   5.244
12785W        W74239  33.130  30.484  11.566
12786W        W74240  29.932  28.626   2.679
12787W        W74241  44.862  38.436  10.604
12788W        W74242  26.970  39.552  14.837
12789W        W74243   9.259  22.685  14.483
12790W        W74244  23.122  43.836   2.817
12791W        W74245  20.070  23.599  12.924
12792W        W74246  22.727  12.316  14.408
12793W        W74247  16.210   7.813  12.530
12794W        W74248  24.548  27.546  14.506
12795W        W74249  37.866  19.612  12.474
12796W        W74250  27.556  38.999  14.494
12797W        W74251  35.422  13.734   0.414
12798W        W74252  30.051  13.182  12.438
12799W        W74253   1.323   2.288  14.827
12800W        W74254  22.705  41.384   1.902
12801W        W74255  22.665  41.360  13.835
12802W        W74256  21.091  22.684   1.816
12803W        W74257   7.407  41.976  13.431
12804W        W74258  30.549   1.893  14.836
12805W        W74259  43.330  20.604  13.999
12806W        W74260  20.151   2.963  13.500
12807W        W74261  27.021  23.122  12.086
12808W        W74262  38.450  25.179  10.543
12809W        W74263  21.034  26.631   1.928
12810W        W74264  19.120  27.476   2.317
12811W        W74265   2.884  28.479   4.807
12812W        W74266  15.741  41.314   0.473
12813W        W74267  43.347   7.847  13.509
12814W        W74268   3.931  19.206   0.801
12815W        W74269  22.630  40.029   0.757
12816W        W74270  10.266   7.681  13.944
12817W        W74271  31.487  40.957   4.258
12818W        W74272  22.232   9.803   2.195
12819W        W74273  32.567  13.170  11.031
12820W        W74274  33.469  11.188   2.351
12821W        W74275  30.978  32.636  12.869
12822W        W74276  15.291  15.704  14.438
12823W        W74277  13.694   3.221   1.848
12824W        W74278  29.467   6.843  12.974
12825W        W74279  42.846  44.439  12.837
12826W        W74280  31.435   4.891   0.925
12827W        W74281   2.384  29.517   0.891
12828W        W74282  26.087   3.902   3.203
12829W        W74283  41.831   1.898   2.286
12830W        W74284  22.706  23.221  10.556
12831W        W74285  35.528  42.899  12.891
12832W        W74286  14.784  18.572   3.336
12833W        W74287  10.790   2.298   3.249
12834W        W74288   0.744  10.634  11.555
12835W        W74289   5.710  27.015   3.171
12836W        W74290  39.967  22.676  13.427
12837W        W74291   8.756  31.594  11.994
12838W        W74292   4.333  37.934   4.730
12839W        W74293  35.035   9.356  14.354
12840W        W74294   9.815  42.871  14.024
12841W        W74295  38.037  24.159   1.293
12842W        W74296  38.388  26.121   2.211
12843W        W74297  17.277  32.438   4.734
12844W        W74298  24.129  19.536  14.305
12845W        W74299  20.088   4.748   4.683
12846W        W74300  42.790  28.571   0.823
12847W        W74301  17.629  42.872  13.477
12848W        W74302  10.223  37.403   2.858
12849W        W74303  38.956   1.877   3.640
12850W        W74304   9.385  30.466   9.957
12851W        W74305   6.236  13.286   2.353
12852W        W74306   8.317  38.454   3.823
12853W        W74307  18.258  34.467  14.981
12854W        W74308  29.992  30.606  11.054
12855W        W74309  30.501  10.370   0.919
12856W        W74310  34.991  18.714  12.957
12857W        W74311   8.242  38.349   1.788
12858W        W74312  29.566   4.767  11.496
12859W        W74313  32.519  19.044  13.912
12860W        W74314  33.428  26.169  10.620
12861W        W74315  41.958  30.005   2.665
12862W        W74316  21.023   3.789  13.045
12863W        W74317  24.523   6.185   4.331
12864W        W74318  36.593  23.207  14.359
12865W        W74319  32.141   0.293  13.797
12866W        W74320  20.239  27.556   4.163
12867W        W74321  22.725  39.845   2.789
12868W        W74322  20.209   0.895  14.310
12869W        W74323  20.087   1.900   2.394
12870W        W74324  35.395   0.414   1.913
12871W        W74325   5.924  29.145   2.338
12872W        W74326  33.888  12.194  14.769
12873W        W74327  39.427   2.860   4.740
12874W        W74328  21.132  37.456  14.966
12875W        W74329  10.866  26.564  14.496
12876W        W74330   6.715  34.004   3.807
12877W        W74331  27.605  16.730   3.280
12878W        W74332  32.037   0.390   3.333
12879W        W74333  44.351   5.849  14.298
12880W        W74334  17.125  10.349   2.780
12881W        W74335   4.313  33.514   1.834
12882W        W74336  16.791  19.572  13.799
12883W        W74337  33.608  31.140   9.937
12884W        W74338  28.610  14.697  11.402
12885W        W74339  21.252  16.094   0.462
12886W        W74340  40.429  35.926  13.372
12887W        W74341   9.192  28.535  14.497
12888W        W74342  14.794  41.515   4.138
12889W        W74343  40.854  14.725  14.373
12890W        W74344  34.098   1.733   1.807
12891W        W74345  27.958  19.628   0.950
12892W        W74346  12.836  22.519  11.402
12893W        W74347  33.063  44.931  14.469
12894W        W74348  43.819   0.322  12.865
12895W        W74349  14.100   6.324  14.016
12896W        W74350  24.515   9.800   3.811
12897W        W74351   9.317  32.933  10.984
12898W        W74352  26.695   1.969   4.641
12899W        W74353  26.962  30.003  11.385
12900W        W74354  44.948   4.327   2.872
12901W        W74355  12.220   1.418  14.321
12902W        W74356  41.401  13.748  14.840
12903W        W74357  32.425   9.809   3.758
12904W        W74358   7.206   6.372  12.006
12905W        W74359   1.942  25.592   1.286
12906W        W74360   2.914  26.027  13.500
12907W        W74361  19.066   7.294   2.758
12908W        W74362  25.110  43.427   0.471
12909W        W74363  33.579  10.164  14.787
12910W        W74364  22.611   5.200  12.985
12911W        W74365   9.251   0.977  14.973
12912W        W74366  15.647  24.221  12.944
12913W        W74367  16.117  36.908   0.945
12914W        W74368  21.091  22.999   0.834
12915W        W74369   8.321  11.709   2.806
12916W        W74370  36.987  34.414  12.826
12917W        W74371  35.983  10.337   1.796
12918W        W74372  22.247  33.563   0.410
12919W        W74373  20.616  37.416   0.474
12920W        W74374   5.862  20.652   1.405
12921W        W74375  27.648  32.016  13.337
12922W        W74376   8.376  40.975  14.413
12923W        W74377  18.258  40.834  14.413
12924W        W74378   7.830  19.709  12.884
12925W        W74379   1.835  27.016  13.796
12926W        W74380  19.587  42.411  13.014
12927W        W74381  39.454  37.526   5.167
12928W        W74382   6.422   9.357  13.833
12929W        W74383  18.252  26.026   3.161
12930W        W74384  37.931  12.808   4.784
12931W        W74385  36.567  26.535  11.018
12932W        W74386  42.852  17.219  11.392
12933W        W74387  24.004   9.392   2.328
12934W        W74388  32.130  21.546  14.471
12935W        W74389   4.739   6.273  13.813
12936W        W74390  43.800  14.222  13.379
12937W        W74391   7.192   7.406   2.721
12938W        W74392   2.910  26.500  13.802
12939W        W74393  40.530   3.774   4.740
12940W        W74394  23.689  19.698   4.177
12941W        W74395  33.892   5.828   3.170
12942W        W74396   3.889  10.718  12.520
12943W        W74397  15.776  32.457  12.001
12944W        W74398   9.319  24.999   4.344
12945W        W74399  12.290  20.715  14.329
12946W        W74400  12.173   4.743  12.406
12947W        W74401  24.153   1.881  12.403
12948W        W74402  11.849  42.318  12.492
12949W        W74403  38.387  32.607   2.355
12950W        W74404  24.646  16.567   3.166
12951W        W74405  26.167  43.910  10.412
12952W        W74406  39.429  39.985   1.250
12953W        W74407  11.776  22.210  14.931
12954W        W74408   6.417  31.107  10.995
12955W        W74409   5.887   7.221  14.437
12956W        W74410  18.255  31.980  10.591
12957W        W74411   2.294   0.403   4.632
12958W        W74412   5.408  40.349  13.859
12959W        W74413  12.811  35.940   4.143
12960W        W74414  43.997  26.542   3.691
12961W        W74415   9.310  40.451  11.941
12962W        W74416  20.585   9.772  14.318
12963W        W74417  42.019  21.606   0.272
12964W        W74418  27.989  19.120   3.187
12965W        W74419  42.348  19.701  11.406
12966W        W74420  33.951   9.257  13.451
12967W        W74421   3.307  33.545   3.816
12968W        W74422  23.634  31.997  14.918
12969W        W74423  44.325   0.829   0.931
12970W        W74424  25.568  27.961  13.952
12971W        W74425  15.251  44.271   2.870
12972W        W74426   2.854  10.641  13.820
12973W        W74427   4.433  28.961   2.875
12974W        W74428  38.358  18.252  11.911
12975W        W74429  26.590  28.168  13.515
12976W        W74430  13.659   5.759   3.375
12977W        W74431  23.674  21.570   2.340
12978W        W74432   3.273  36.048   3.697
12979W        W74433   1.381  42.859   2.195
12980W        W74434  44.383  10.877   4.300
12981W        W74435   3.790  12.762   0.726
12982W        W74436   8.277   0.983  10.454
12983W        W74437  41.974  24.070  12.933
12984W        W74438  34.091  27.507   1.909
12985W        W74439  27.037  24.106   1.862
12986W        W74440  29.004  31.536  13.442
12987W        W74441  16.808   0.354  13.810
12988W        W74442  14.248   6.682  13.866
12989W        W74443  21.200  15.604  14.879
12990W        W74444  33.951  32.514   3.297
12991W        W74445  30.479   0.356   4.757
12992W        W74446  14.189  40.332   0.830
12993W        W74447   8.875   5.770   3.666
12994W        W74448  18.682  17.588  10.477
12995W        W74449   6.237   6.217   1.696
12996W        W74450   3.837  12.154  14.006
12997W        W74451  17.156  29.424   4.308
12998W        W74452  28.163  24.219   2.766
12999W        W74453  12.715   0.306  10.488
13000W        W74454  41.975  31.557   4.809
13001W        W74455   1.784  19.193  12.072
13002W        W74456  33.967  24.669  13.912
13003W        W74457  22.218   6.245   5.735
13004W        W74458  40.544  10.695  10.445
13005W        W74459  28.609  38.867  11.588
13006W        W74460   9.646  18.618  13.345
13007W        W74461   6.190  27.991  14.494
13008W        W74462  27.498  14.131   0.478
13009W        W74463   7.180  32.095  14.308
13010W        W74464  38.483  40.914   9.527
13011W        W74465   0.459   2.393   3.773
13012W        W74466  34.571  30.973  11.014
13013W        W74467  19.671   7.821   5.128
13014W        W74468  16.767  42.321  14.995
13015W        W74469  43.954   7.869  11.941
13016W        W74470  10.736  44.494  12.896
13017W        W74471  29.445   9.840  13.361
13018W        W74472  19.634  26.540   2.354
13019W        W74473  41.869  10.340  12.472
13020W        W74474  44.756   1.378  11.081
13021W        W74475  41.860  16.782   2.696
13022W        W74476  28.985  34.964  14.313
13023W        W74477  10.273  40.328   4.727
13024W        W74478  33.110  37.469   0.758
13025W        W74479  19.191  34.088   1.887
13026W        W74480   8.231  21.513   1.272
13027W        W74481  26.014  19.615  11.597
13028W        W74482  20.100   0.761   2.346
13029W        W74483   3.216  44.847  10.523
13030W        W74484  12.322  36.355   4.126
13031W        W74485  28.943   9.360  10.433
13032W        W74486  13.320  33.940   1.795
13033W        W74487  16.735  36.374   4.261
13034W        W74488  32.583  14.334   3.848
13035W        W74489  12.752  22.137   1.926
13036W        W74490  35.421   9.166   2.834
13037W        W74491  40.004  29.948  12.910
13038W        W74492   5.322  15.642   3.332
13039W        W74493  26.557   0.486   0.379
13040W        W74494   2.821   4.736   2.772
13041W        W74495  37.915   9.355   2.239
13042W        W74496  25.657  22.999   4.679
13043W        W74497   6.735  32.942  13.871
13044W        W74498  32.966  26.683  14.967
13045W        W74499   6.239  42.352  10.644
13046W        W74500  38.362  21.560   4.800
13047W        W74501  19.709  10.242   5.090
13048W        W74502  22.209  21.051   2.726
13049W        W74503  38.836  18.287  13.814
13050W        W74504  25.504   0.366  13.886
13051W        W74505  30.597  38.339   4.757
13052W        W74506  28.514  41.999  13.910
13053W        W74507  42.835  31.590   3.265
13054W        W74508   7.325  19.285  11.921
13055W        W74509   9.389  15.313  14.801
13056W        W74510  28.974  26.952   5.685
13057W        W74511  27.167  15.775  13.493
13058W        W74512   6.222  13.801   0.315
13059W        W74513  44.777  29.099   3.245
13060W        W74514  43.963  40.814  14.417
13061W        W74515   4.317  16.092  14.438
13062W        W74516   1.744   8.658  13.054
13063W        W74517  34.554   0.807   4.700
13064W        W74518  20.079  30.631   1.851
13065W        W74519  22.055   8.398   1.704
13066W        W74520   0.918   9.355  11.018
13067W        W74521  35.537  33.576   1.303
13068W        W74522  44.363  13.614  13.374
13069W        W74523  37.568   4.405  11.585
13070W        W74524  35.467  11.806  13.797
13071W        W74525  42.920  11.642  11.997
13072W        W74526  20.248   6.215  13.848
13073W        W74527   7.678  25.088   3.840
13074W        W74528  35.443  36.084  10.577
13075W        W74529  41.331  43.278   1.912
13076W        W74530   1.795   6.712  14.507
13077W        W74531  34.998  16.256  11.506
13078W        W74532  28.162  13.761   0.771
13079W        W74533  25.650   1.859  10.443
13080W        W74534  37.469   1.968  14.920
13081W        W74535  16.737  22.620  10.591
13082W        W74536  38.476   4.349  10.898
13083W        W74537  33.503  34.559  10.518
13084W        W74538  26.023  15.609   2.324
13085W        W74539  40.849  22.635   3.186
13086W        W74540  25.687  39.974   4.248
13087W        W74541  33.097  22.120  13.042
13088W        W74542  26.106   4.275   9.980
13089W        W74543  19.214   4.374  10.916
13090W        W74544   0.835  38.336   4.344
13091W        W74545  18.768  20.686   4.191
13092W        W74546  41.923  29.040   1.763
13093W        W74547  20.725  43.773   1.333
13094W        W74548  12.299  29.977  13.321
13095W        W74549  14.188   6.253  14.829
13096W        W74550   4.271  10.848  13.932
13097W        W74551   6.415  43.001   0.403
13098W        W74552  15.163  36.914  11.057
13099W        W74553  24.084   3.301  11.973
13100W        W74554   3.826  22.171   1.271
13101W        W74555  23.705   2.927  12.935
13102W        W74556  27.087  21.608  13.996
13103W        W74557   4.759   9.716   3.792
13104W        W74558   9.722  30.994   4.258
13105W        W74559  17.160  35.990  11.118
13106W        W74560  35.879   5.932  14.467
13107W        W74561  32.887  33.595   2.355
13108W        W74562  12.754  38.993  13.005
13109W        W74563  38.472  17.607  10.568
13110W        W74564  14.711  26.649   2.297
13111W        W74565   6.852   0.409   2.211
13112W        W74566   1.811  11.678  13.462
13113W        W74567  26.461  29.963  12.892
13114W        W74568  38.538  44.780   1.807
13115W        W74569  21.622  39.030  10.524
13116W        W74570  43.862  35.071  11.935
13117W        W74571  41.856   4.916   2.825
13118W        W74572   1.922  41.940  14.977
13119W        W74573  35.888  33.595  13.905
13120W        W74574  18.629  22.029   4.828
13121W        W74575   7.822  38.359   4.692
13122W        W74576   3.224  41.295   1.308
13123W        W74577   9.713  38.336  13.392
13124W        W74578  36.842  26.979  12.921
13125W        W74579   0.297  37.492   4.696
13126W        W74580  21.721  21.194   3.865
13127W        W74581  22.582  21.712   4.156
13128W        W74582   0.790  28.644   2.784
13129W        W74583  44.488   1.873   2.268
13130W        W74584   0.345  44.795   4.723
13131W        W74585  42.454  35.873   0.280
13132W        W74586  37.505  19.558   1.896
13133W        W74587  21.667  25.670   2.179
13134W        W74588  11.857   4.716   3.284
13135W        W74589   7.836   8.840   5.227
13136W        W74590  35.076  33.131   1.854
13137W        W74591   1.840  11.821   4.678
13138W        W74592   9.880   1.808   4.141
13139W        W74593  19.131   5.432  12.411
13140W        W74594  36.582  23.031   0.298
13141W        W74595  17.649  16.657  13.345
13142W        W74596   7.785  43.924   2.348
13143W        W74597  42.858   3.303  13.503
13144W        W74598   7.722  37.878   4.265
13145W        W74599  14.327  17.784   3.273
13146W        W74600  41.898  33.389  11.605
13147W        W74601  19.533  36.996  13.819
13148W        W74602  35.388  14.666   3.204
13149W        W74603   8.665  19.696  12.024
13150W        W74604  39.545  23.116   1.284
13151W        W74605  29.647  27.120   2.737
13152W        W74606  20.084   5.204  10.566
13153W        W74607  17.085  34.976  10.895
13154W        W74608  27.035   3.380  11.493
13155W        W74609  35.020  14.804   4.765
13156W        W74610   5.895  40.834   1.401
13157W        W74611   2.256   7.307   0.743
13158W        W74612   8.752  21.230   2.885
13159W        W74613  38.913  27.043   5.292
13160W        W74614  35.963  40.931   1.743
13161W        W74615   9.392  37.498  11.527
13162W        W74616  37.945  41.852  14.779
13163W        W74617  11.237  38.341   3.762
13164W        W74618  11.775  36.585   2.731
13165W        W74619  19.082  24.161   0.961
13166W        W74620  26.527  42.862   9.926
13167W        W74621  18.590  13.295   0.324
13168W        W74622  27.992  24.497   4.651
13169W        W74623  31.037   5.897   3.306
13170W        W74624  41.510  25.072   0.370
13171W        W74625   8.745   8.691   2.344
13172W        W74626  16.282  24.548   0.835
13173W        W74627  14.160  30.156  14.365
13174W        W74628  24.657  19.042   2.416
13175W        W74629   9.763  40.431   3.779
13176W        W74630  15.133  25.653   0.280
13177W        W74631  36.936  25.176   2.768
13178W        W74632  39.343  24.500   2.185
13179W        W74633  41.365   4.867  10.904
13180W        W74634  17.699  12.173  14.418
13181W        W74635   5.426  28.498  10.435
13182W        W74636  39.027  40.901   0.780
13183W        W74637  40.428  34.099  12.380
13184W        W74638  32.993  25.548   1.269
13185W        W74639  36.409   4.775   2.735
13186W        W74640   8.401  17.780  13.343
13187W        W74641   8.673  30.653   4.144
13188W        W74642  16.657  37.994   3.664
13189W        W74643  27.018   0.868   5.155
13190W        W74644  39.399  12.324   1.313
13191W        W74645  36.418   3.347   3.240
13192W        W74646  15.674   3.791  12.031
13193W        W74647  36.490  31.518  13.523
13194W        W74648  13.721   6.853   1.714
13195W        W74649  37.520  25.708  13.844
13196W        W74650   8.196   1.924  13.804
13197W        W74651   9.707  40.924   2.381
13198W        W74652  15.115  31.413   0.749
13199W        W74653  14.199  16.075   3.790
13200W        W74654  28.481  39.510   3.267
13201W        W74655   7.413  11.647   2.188
13202W        W74656  43.894  43.765   4.220
13203W        W74657  34.514   6.343   0.836
13204W        W74658  17.299   5.393   0.886
13205W        W74659  20.564  29.638   3.661
13206W        W74660  24.633  30.611   2.188
13207W        W74661  44.001   2.450   4.202
13208W        W74662   0.946  14.233  12.963
13209W        W74663  43.391  43.364   0.791
13210W        W74664  25.547  12.189  12.380
13211W        W74665  15.109   4.419   3.242
13212W        W74666  40.445  23.991  13.831
13213W        W74667  32.439   1.884  10.409
13214W        W74668  27.547  38.392  12.954
13215W        W74669   7.763   7.740  14.439
13216W        W74670  40.444   6.342  10.449
13217W        W74671  17.181  39.555   4.691
13218W        W74672  14.230  31.407  13.477
13219W        W74673  24.995  39.449  13.416
13220W        W74674  12.276   6.309   4.226
13221W        W74675  38.024  37.989  11.395
13222W        W74676  21.606  13.193  10.637
13223W        W74677   9.737  27.644  11.524
13224W        W74678  23.127  34.034   4.633
13225W        W74679  22.114  25.012   3.245
13226W        W74680  17.253   0.372   2.390
13227W        W74681   2.928  38.071  12.046
13228W        W74682  17.721  43.971   4.221
13229W        W74683   8.808  34.075   4.775
13230W        W74684  35.991   9.853  10.990
13231W        W74685   9.248  29.097  12.094
13232W        W74686  11.622  19.277  12.919
13233W        W74687   6.745   8.784   1.858
13234W        W74688  33.518  31.957   4.704
13235W        W74689  12.218  39.351  14.381
13236W        W74690  33.494  27.000  11.599
13237W        W74691   1.913  29.635  14.847
13238W        W74692   6.289  22.510  14.886
13239W        W74693  12.714  12.729   1.900
13240W        W74694   0.855  29.573   3.768
13241W        W74695  12.357  13.792  10.557
13242W        W74696  24.015  10.221   3.649
13243W        W74697  22.744  31.417  14.760
13244W        W74698   5.816   4.323  11.076
13245W        W74699  31.946   1.477   4.630
13246W        W74700  27.092  30.030  14.476
13247W        W74701  40.987   0.818  12.391
13248W        W74702  41.015  26.550  13.882
13249W        W74703   6.786  31.922  12.010
13250W        W74704   0.382  26.586  12.524
13251W        W74705  35.969  34.401   1.210
13252W        W74706  23.613  42.524   4.755
13253W        W74707  25.553  15.085  13.524
13254W        W74708   5.279  37.893  13.533
13255W        W74709  12.854  30.082  14.959
13256W        W74710  44.871  12.262   0.958
13257W        W74711  15.148  36.393  14.418
13258W        W74712  10.718   6.197   2.670
13259W        W74713  18.116   8.811  12.561
13260W        W74714  10.262  17.752   0.750
13261W        W74715  23.043  10.146   2.861
13262W        W74716  43.271  40.901   4.123
13263W        W74717  31.470   9.788   0.783
13264W        W74718  34.961   2.740   2.314
13265W        W74719  32.070  14.755  13.534
13266W        W74720  36.543  24.704   0.907
13267W        W74721  19.681  20.230  11.008
13268W        W74722   9.754  16.744   5.585
13269W        W74723  11.258  12.280   4.269
13270W        W74724  33.519   5.327   2.739
13271W        W74725  41.328   6.252  12.418
13272W        W74726  12.752  31.595   3.843
13273W        W74727  25.617   7.199  11.514
13274W        W74728  26.134  18.052   3.730
13275W        W74729  21.714  37.478  14.870
13276W        W74730  36.588  25.066   3.192
13277W        W74731  31.094  35.010   3.353
13278W        W74732  29.468  15.248  10.585
13279W        W74733  35.517   1.379   4.124
13280W        W74734  43.792  37.364   0.879
13281W        W74735  28.990  34.550  14.381
13282W        W74736  13.707  33.897  10.527
13283W        W74737  44.373  26.570  14.352
13284W        W74738  24.144  23.537   1.885
13285W        W74739   8.705  26.684  10.458
13286W        W74740  13.603  17.617  12.865
13287W        W74741  21.709  23.660   2.856
13288W        W74742  36.419  39.555   1.443
13289W        W74743  13.633  13.706   1.785
13290W        W74744  12.839  37.073   1.884
13291W        W74745  33.543  32.111   5.222
13292W        W74746  24.713  12.259   0.361
13293W        W74747  34.889  42.442   3.381
13294W        W74748  31.101   8.337  13.930
13295W        W74749  32.449   5.407  10.619
13296W        W74750  13.318  24.017  14.009
13297W        W74751  19.090  32.600  11.945
13298W        W74752   3.349  36.543   1.804
13299W        W74753  14.313  35.503   1.844
13300W        W74754  14.313  31.126   4.657
13301W        W74755  11.685  28.633   1.384
13302W        W74756  20.101  32.948  13.465
13303W        W74757  36.037  20.559  13.327
13304W        W74758  20.183  15.768  12.038
13305W        W74759   8.179  29.000   5.233
13306W        W74760  12.298  42.910   4.319
13307W        W74761  20.197  36.995  12.535
13308W        W74762  38.414  28.681  12.363
13309W        W74763  42.788  35.530   0.432
13310W        W74764   3.227  34.501  13.861
13311W        W74765  21.631  13.626  14.938
13312W        W74766  39.385  23.569  14.292
13313W        W74767   9.854  18.192  13.007
13314W        W74768  13.727  44.284  10.465
13315W        W74769  42.336  42.953  14.952
13316W        W74770  29.625  40.454   1.267
13317W        W74771  31.446  26.546  11.544
13318W        W74772   7.755  39.824   2.419
13319W        W74773   2.367  11.751  14.403
13320W        W74774  10.645  10.671  10.625
13321W        W74775  31.024  18.083   3.665
13322W        W74776  11.631  44.309   4.141
13323W        W74777  41.490  16.175  13.415
13324W        W74778  23.120   5.392   4.727
13325W        W74779  28.542   7.199   4.782
13326W        W74780   6.682  16.243  14.029
13327W        W74781   7.722   6.772  11.953
13328W        W74782  27.097  36.442  14.444
13329W        W74783  16.719  32.138   3.359
13330W        W74784   0.837  44.428   3.200
13331W        W74785  30.969  32.935  10.968
13332W        W74786  22.587  32.483   1.251
13333W        W74787  43.909  31.536   4.685
13334W        W74788  41.965  26.596   0.259
13335W        W74789  29.517  39.408   3.785
13336W        W74790  25.986   3.805   0.471
13337W        W74791  31.991  43.347   0.301
13338W        W74792  23.221  42.936   1.358
13339W        W74793  27.616   2.307  10.551
13340W        W74794  24.685  10.635  12.573
13341W        W74795  36.049  26.549  10.454
13342W        W74796  39.405   6.369  12.557
13343W        W74797  34.527   9.784  13.976
13344W        W74798  16.273  16.072   1.718
13345W        W74799  28.455  18.188  12.485
13346W        W74800   6.393   6.810  13.810
13347W        W74801  41.406  29.142   3.365
13348W        W74802  11.321  42.806   3.263
13349W        W74803  21.717   5.850   2.671
13350W        W74804  22.086  33.998  10.509
13351W        W74805  36.377  22.233  11.542
13352W        W74806  42.415  20.563  13.530
13353W        W74807  10.783  40.464  13.872
13354W        W74808  42.469   4.933  12.991
13355W        W74809  17.109   7.780   3.643
13356W        W74810  33.047   2.869   3.690
13357W        W74811  35.519  44.928   3.361
13358W        W74812  10.180  35.500   4.657
13359W        W74813  30.929  34.515  14.433
13360W        W74814  33.550  24.544   4.286
13361W        W74815  35.028  10.834   1.272
13362W        W74816  38.899  29.941   0.438
13363W        W74817   1.424  15.696   2.743
13364W        W74818  41.964  38.875   3.806
13365W        W74819   4.336  25.137  14.336
13366W        W74820  35.001  23.999  12.828
13367W        W74821  41.474  25.709   3.328
13368W        W74822  13.124  27.186  12.411
13369W        W74823   6.190  26.028   4.210
13370W        W74824  11.275   5.847   1.223
13371W        W74825  37.498   9.178   3.715
13372W        W74826  21.154  27.941   2.308
13373W        W74827  33.604  18.655  11.487
13374W        W74828  44.486  22.210   4.719
13375W        W74829  28.602  12.253  11.993
13376W        W74830  28.985  38.444   3.199
13377W        W74831   2.428  21.171   3.246
13378W        W74832  41.838  27.185   0.871
13379W        W74833  37.379  21.184   1.758
13380W        W74834  13.129  21.728   3.316
13381W        W74835   3.773  32.103  13.360
13382W        W74836  43.288  20.727  10.936
13383W        W74837  36.914  31.068  14.426
13384W        W74838  30.433   8.400  14.937
13385W        W74839  33.942  16.149  14.932
13386W        W74840  30.042   3.758   0.339
13387W        W74841  21.641   9.231   0.400
13388W        W74842  10.702  43.448  12.402
13389W        W74843   7.894   1.922  12.091
13390W        W74844   6.260   1.419  10.448
13391W        W74845  16.235   5.386  10.611
13392W        W74846  33.548  17.257   2.185
13393W        W74847  11.792  19.206   0.892
13394W        W74848  38.497  30.125  11.523
13395W        W74849  29.045  34.055  14.879
13396W        W74850   2.377  19.134   0.935
13397W        W74851  11.656   6.717   3.357
13398W        W74852  24.999   7.300  13.488
13399W        W74853  37.542  31.935  12.577
13400W        W74854  29.650   1.893  14.786
13401W        W74855   1.822   4.387  10.468
13402W        W74856  41.320  44.987   2.831
13403W        W74857  29.541  36.887   4.223
13404W        W74858  14.186  36.927  12.984
13405W        W74859  36.935  37.996  13.046
13406W        W74860  39.321  28.569  13.419
13407W        W74861  15.773   7.735   1.248
13408W        W74862   0.963  31.930   2.265
13409W        W74863  13.673  38.346  14.335
13410W        W74864   9.702   1.766   1.904
13411W        W74865  12.258  23.641  13.959
13412W        W74866  38.925   5.780  11.519
13413W        W74867   1.446  17.182   4.301
13414W        W74868   3.340   7.240   3.764
13415W        W74869  37.078  18.635  12.826
13416W        W74870  22.730  27.959  13.439
13417W        W74871  40.394  31.899   5.087
13418W        W74872  11.741  17.676   9.931
13419W        W74873  16.262  25.155  11.035
13420W        W74874  14.826   2.775   3.263
13421W        W74875  44.316  13.747  11.942
13422W        W74876  19.129  25.050   1.817
13423W        W74877  31.093  28.649   4.715
13424W        W74878   1.918  38.041   4.648
13425W        W74879  44.350  11.226  11.589
13426W        W74880  34.929  19.695   4.143
13427W        W74881  33.103  41.532  14.906
13428W        W74882  26.953  25.199   1.423
13429W        W74883  43.462  36.518  14.504
13430W        W74884   8.202  37.931   2.243
13431W        W74885  30.135  30.557   2.713
13432W        W74886  33.444  21.130  14.312
13433W        W74887  39.038  29.543  14.359
13434W        W74888  36.452  27.022  13.503
13435W        W74889  36.040   0.332   1.384
13436W        W74890   7.296  26.676   4.700
13437W        W74891  26.014  21.596  10.639
13438W        W74892  35.439  15.092   4.809
13439W        W74893   7.241  40.475   3.183
13440W        W74894  27.027  44.881   0.314
13441W        W74895  42.487  25.679  12.552
13442W        W74896  15.716  44.469  13.041
13443W        W74897  26.069  23.591  12.849
13444W        W74898  16.220  19.160  13.948
13445W        W74899  38.372   5.832  11.396
13446W        W74900  24.649   5.357   4.762
13447W        W74901  32.615   5.280   3.852
13448W        W74902   5.360  39.994   2.180
13449W        W74903  16.077  15.681   0.791
13450W        W74904   8.389   0.904   2.306
13451W        W74905  31.086  17.639  14.512
13452W        W74906  20.154  42.982  12.399
13453W        W74907  34.952  21.634   0.385
13454W        W74908   3.421   3.778  10.612
13455W        W74909  12.267  28.036   1.782
13456W        W74910  42.499   4.746   2.711
13457W        W74911   6.869  18.167   1.261
13458W        W74912  12.733  31.444   4.288
13459W        W74913  18.575  40.524   2.298
13460W        W74914  16.188   6.889  13.866
13461W        W74915  29.099  28.068   0.430
13462W        W74916  26.073   0.328   0.483
13463W        W74917  17.782  13.257  11.479
13464W        W74918  15.788   0.851   0.924
13465W        W74919  21.678  42.821  11.583
13466W        W74920  35.563   9.791   2.220
13467W        W74921   7.392  29.135   1.838
13468W        W74922   1.832  38.393  14.997
13469W        W74923  37.833  43.369  12.991
13470W        W74924  41.798  19.109  13.497
13471W        W74925  35.905   4.432   1.883
13472W        W74926   0.305  18.232  14.414
13473W        W74927  33.920  15.263   2.870
13474W        W74928   2.804  44.410   1.760
13475W        W74929  44.813  15.672  11.084
13476W        W74930  44.316  18.084  13.982
13477W        W74931  28.539  23.507  10.427
13478W        W74932  26.176  41.973   0.400
13479W        W74933  19.161   9.743  12.384
13480W        W74934  36.390  12.723   1.346
13481W        W74935  24.613  31.082  11.401
13482W        W74936  25.142  37.524   4.615
13483W        W74937  20.133   8.798   0.258
13484W        W74938  42.527   4.408   4.286
13485W        W74939   0.777   2.424   2.355
13486W        W74940   2.817  11.821  13.843
13487W        W74941   3.353  37.855  13.530
13488W        W74942  39.362   8.813  13.525
13489W        W74943  21.519  40.390  13.430
13490W        W74944  41.886   2.744   0.437
13491W        W74945  35.903  10.842  12.551
13492W        W74946  25.078  34.873   3.231
13493W        W74947  25.172  43.400  13.796
13494W        W74948  41.405  27.034  11.054
13495W        W74949  12.349  32.121  13.850
13496W        W74950  25.203  43.782   1.233
13497W        W74951  32.481  26.021   3.361
13498W        W74952  17.569   5.310   3.295
13499W        W74953  42.968  23.031  13.983
13500W        W74954  41.953   3.801  14.803
13501W        W74955  11.199   0.397   4.829
13502W        W74956   3.382  13.347   4.264
13503W        W74957  44.278  27.956  12.558
13504W        W74958  35.092   7.227  10.994
13505W        W74959   3.275  41.901  12.554
13506W        W74960  15.316  27.012   4.227
13507W        W74961  22.645  34.574  14.766
13508W        W74962  27.651  26.648  10.918
13509W        W74963  32.983   8.396  10.908
13510W        W74964  14.684  42.308  11.521
13511W        W74965  10.163  12.734   0.873
13512W        W74966  33.599  19.072  13.998
13513W        W74967  34.578  28.096   1.898
13514W        W74968  16.107  18.063  12.042
13515W        W74969  33.570   0.327   5.201
13516W        W74970  24.033  38.855  14.419
13517W        W74971  31.955  25.587  11.867
13518W        W74972  26.585  39.052   1.245
13519W        W74973   7.774  36.994   1.372
13520W        W74974  10.649  36.067  11.597
13521W        W74975  16.639  35.941   4.780
13522W        W74976  29.457  31.967   2.285
13523W        W74977  40.480  13.215   4.154
13524W        W74978  35.077  10.764   0.935
13525W        W74979  34.939  35.394  10.622
13526W        W74980  28.652   1.959   3.726
13527W        W74981  14.670  24.700  14.842
13528W        W74982   9.826   7.402   4.718
13529W        W74983  31.003  37.512   2.317
13530W        W74984  28.480  12.289  11.091
13531W        W74985   2.822  38.336   3.692
13532W        W74986  26.092   4.787  13.442
13533W        W74987  38.503  34.552   4.227
13534W        W74988   9.220  39.825  14.341
13535W        W74989  12.210  26.114  11.963
13536W        W74990   2.733  42.015  13.053
13537W        W74991   7.207  38.951  11.912
13538W        W74992  36.963  39.481   4.137
13539W        W74993  13.273  38.832   1.717
13540W        W74994   7.777  43.508  10.407
13541W        W74995  26.140  13.672  11.875
13542W        W74996   2.750  24.634   1.824
13543W        W74997  35.982  31.028   1.889
13544W        W74998   3.913  44.272   1.216
13545W        W74999  34.602   0.887   1.266
13546W        W75000  23.536  17.717  12.010
13547W        W75001   5.750  17.691  12.404
13548W        W75002  12.351  19.709  10.912
13549W        W75003  27.112   8.261  12.572
13550W        W75004   3.428  11.297   0.950
13551W        W75005  44.938  11.701   1.274
13552W        W75006  40.532   9.188   1.412
13553W        W75007  32.415  10.700   0.852
13554W        W75008  38.363  39.934   3.793
13555W        W75009   7.888  20.215  13.540
13556W        W75010  14.201  22.115  13.029
13557W        W75011  32.567  44.781   2.222
13558W        W75012   7.752  35.516  12.497
13559W        W75013  11.712  23.239  12.864
13560W        W75014   9.846  20.673  12.430
13561W        W75015   0.922  34.427   3.796
13562W        W75016  30.565  16.161  14.860
13563W        W75017   2.835  36.353  14.511
13564W        W75018  14.647  37.395  12.376
13565W        W75019  39.952  12.289  13.968
13566W        W75020  10.245  34.449   0.854
13567W        W75021   7.380  33.553  10.628
13568W        W75022  13.106  30.047   0.253
13569W        W75023  18.274  25.182  10.443
13570W        W75024  11.315  43.427   1.706
13571W        W75025  29.460   5.294   0.338
13572W        W75026  32.963  31.060   2.265
13573W        W75027  17.267  29.532   1.340
13574W        W75028   4.241  21.024  12.350
13575W        W75029  35.388   1.464  10.573
13576W        W75030  28.092  30.583  10.564
13577W        W75031  23.138   6.402  12.071
13578W        W75032  18.156  20.193  11.922
13579W        W75033  12.194  22.157  13.403
13580W        W75034  35.967  24.634  14.903
13581W        W75035  43.464  13.309  13.932
13582W        W75036   6.759  23.539   4.250
13583W        W75037  44.008  11.709  13.988
13584W        W75038   1.423  17.581   0.877
13585W        W75039  40.849  20.125   3.808
13586W        W75040  27.445   9.308   2.794
13587W        W75041   1.846  39.430  14.316
13588W        W75042  18.703  12.677  14.884
13589W        W75043  43.477  30.109  13.457
13590W        W75044  29.429  26.641  11.912
13591W        W75045  12.293  16.247  14.491
13592W        W75046   0.910  14.255   4.144
13593W        W75047  24.102  37.410  12.447
13594W        W75048  15.221  18.196   3.287
13595W        W75049  14.289  20.750   2.824
13596W        W75050  12.119  25.624   2.689
13597W        W75051  21.127  34.062  12.455
13598W        W75052  43.330  28.029  13.958
13599W        W75053  17.565  44.396  14.813
13600W        W75054  14.605  40.948   3.808
13601W        W75055  40.008  12.128  11.449
13602W        W75056  18.661  19.087  14.928
13603W        W75057   9.757  29.134  12.465
13604W        W75058  24.106  41.426   1.253
13605W        W75059  20.702   7.220   2.280
13606W        W75060   6.757  17.169  12.941
13607W        W75061  31.096  30.081   0.821
13608W        W75062   3.730  31.566   2.379
13609W        W75063  39.552  13.631  13.977
13610W        W75064  42.858  36.459  13.980
13611W        W75065  10.327   6.370  11.517
13612W        W75066  41.787   5.266   1.363
13613W        W75067  23.986  36.358  12.426
13614W        W75068  18.697   1.807  11.989
13615W        W75069   8.369  40.000  14.796
13616W        W75070  18.191  22.227   3.287
13617W        W75071   1.881  37.525   3.362
13618W        W75072  26.502  34.118  12.416
13619W        W75073  32.556  30.081   2.783
13620W        W75074   7.861  18.086  14.800
13621W        W75075  31.444  17.096  12.492
13622W        W75076  15.764  27.581  10.416
13623W        W75077   9.181  28.611  12.430
13624W        W75078  38.531  12.163  10.555
13625W        W75079  33.480  14.623   3.711
13626W        W75080  30.532   4.377   5.804
13627W        W75081  33.019  12.331  13.917
13628W        W75082  17.646  11.240   0.956
13629W        W75083  39.014  44.483   1.403
13630W        W75084  35.435  16.176   3.759
13631W        W75085  41.466   0.494  12.526
13632W        W75086  37.361  28.076   4.271
13633W        W75087   4.834  16.307  14.015
13634W        W75088   6.344   6.319   5.300
13635W        W75089  13.233  22.551   1.735
13636W        W75090   5.881   1.770   1.749
13637W        W75091  39.373  43.275   4.757
13638W        W75092   4.373   6.829  13.021
13639W        W75093  34.409  29.161  10.512
13640W        W75094  23.719  31.591  14.032
13641W        W75095  21.562   2.400  14.832
13642W        W75096  36.395  10.637  14.341
13643W        W75097  17.113  29.524  14.455
13644W        W75098  20.685  37.907  14.472
13645W        W75099  23.996  16.232   3.205
13646W        W75100  17.108  43.357  13.419
13647W        W75101  42.404  12.343   4.629
13648W        W75102   5.714  16.690  12.457
13649W        W75103  23.602  43.985  10.412
13650W        W75104  21.720  29.119  12.058
13651W        W75105   0.291   2.863  11.981
13652W        W75106  17.144  26.663  14.834
13653W        W75107  25.097   3.949   3.792
13654W        W75108   1.836  35.423  11.462
13655W        W75109   1.316  26.150  13.537
13656W        W75110  27.009  24.493  12.468
13657W        W75111  35.491  27.634  14.980
13658W        W75112  14.712   9.185   4.637
13659W        W75113   9.296  16.212  13.456
13660W        W75114  16.617  15.601   4.644
13661W        W75115  21.053  30.113   3.709
13662W        W75116  10.855   0.267  14.349
13663W        W75117   7.399  14.151   0.427
13664W        W75118   4.340  38.347   4.666
13665W        W75119  26.463   7.706  12.476
13666W        W75120  10.185  25.132  11.127
13667W        W75121  38.330   5.779  12.851
13668W        W75122  24.045  29.038  12.896
13669W        W75123  41.792  10.220   1.389
13670W        W75124  21.553   5.375   3.716
13671W        W75125   4.788  13.673  14.905
13672W        W75126   7.323  27.194   2.761
13673W        W75127  28.529   5.848   1.401
13674W        W75128  13.764   0.855   1.874
13675W        W75129  36.847  38.437   1.321
13676W        W75130  37.066  12.149  13.493
13677W        W75131  39.809  36.080   1.404
13678W        W75132  31.116  36.033   3.321
13679W        W75133  29.623  20.652   0.955
13680W        W75134   8.293  41.799  10.978
13681W        W75135  15.144  28.084   3.348
13682W        W75136   1.370  35.853   1.444
13683W        W75137   2.338  33.389   4.214
13684W        W75138   6.226  21.755  12.866
13685W        W75139   2.385  30.930  13.448
13686W        W75140   0.267   0.351  11.454
13687W        W75141  43.359  25.144   1.762
13688W        W75142  15.232  42.396   1.901
13689W        W75143  16.627   3.264  14.402
13690W        W75144  40.458   4.793  10.532
13691W        W75145  33.059  27.492   2.775
13692W        W75146  32.106   3.725   2.717
13693W        W75147  43.976   3.797   1.299
13694W        W75148  31.135   2.393   2.191
13695W        W75149  40.340  21.088   2.680
13696W        W75150  14.309   8.739  13.834
13697W        W75151  38.037  12.199  13.521
13698W        W75152  43.811  23.047  11.004
13699W        W75153  40.977   7.216  13.353
13700W        W75154  20.270  25.700  12.939
13701W        W75155  19.536  37.427   2.303
13702W        W75156  14.233  24.710   4.222
13703W        W75157  30.993  13.147   0.438
13704W        W75158  44.939  25.525  13.377
13705W        W75159  15.763  32.033  12.913
13706W        W75160  25.616  33.013  11.409
13707W        W75161  41.298   0.927   1.236
13708W        W75162   5.814  19.656  10.498
13709W        W75163  19.121  12.152  12.878
13710W        W75164  16.585   9.191  14.847
13711W        W75165   9.198  28.175  13.347
13712W        W75166  14.830   8.774   4.173
13713W        W75167   3.815  10.685   0.886
13714W        W75168  16.178  29.440   3.358
13715W        W75169  31.022  26.026  14.795
13716W        W75170  36.350  29.515  12.546
13717W        W75171  32.977  23.104  13.513
13718W        W75172  15.631  44.966   0.464
13719W        W75173  11.275   8.245   4.709
13720W        W75174  15.715   0.896   1.340
13721W        W75175   9.675  19.601  13.428
13722W        W75176   4.310  20.534   1.909
13723W        W75177  37.975  13.799  10.513
13724W        W75178  41.475  36.098   3.261
13725W        W75179   6.907  16.786  12.070
13726W        W75180  22.543   5.729  10.616
13727W        W75181  34.537  33.455  13.501
13728W        W75182  23.024   0.360   4.222
13729W        W75183  13.650  40.997   5.725
13730W        W75184  30.020  21.657  14.985
13731W        W75185  41.938  21.097   4.731
13732W        W75186  24.055  17.130   4.768
13733W        W75187   9.313  32.555   0.298
13734W        W75188  12.160  10.724   0.258
13735W        W75189  42.876  23.216   2.845
13736W        W75190  32.887  40.333  13.403
13737W        W75191  31.609  21.030   3.221
13738W        W75192  39.013  41.358   4.764
13739W        W75193   5.354  33.924   4.223
13740W        W75194  32.894   3.441  14.440
13741W        W75195   8.706  13.294  13.807
13742W        W75196  25.487  36.032  12.846
13743W        W75197  26.611  19.676  11.553
13744W        W75198  24.152  11.132   3.154
13745W        W75199   2.297   7.707   3.803
13746W        W75200  29.153  11.182   1.731
13747W        W75201   5.396  16.110  12.872
13748W        W75202   7.826  37.883  13.907
13749W        W75203  26.057   9.777  14.446
13750W        W75204  32.449   7.308   4.250
13751W        W75205   9.322  10.364  13.871
13752W        W75206  15.272  25.195   2.292
13753W        W75207  35.479  36.998   0.378
13754W        W75208  44.806  21.645  11.559
13755W        W75209  36.549  36.017   2.251
13756W        W75210   5.313  25.971  11.426
13757W        W75211  44.973  12.825  11.026
13758W        W75212   7.239  23.565  12.941
13759W        W75213  36.018   7.242   4.185
13760W        W75214  21.177   2.914   5.093
13761W        W75215  43.462   8.215  11.959
13762W        W75216  13.751   8.801   2.726
13763W        W75217   6.355   3.809  12.882
13764W        W75218  13.695  31.426  13.993
13765W        W75219  39.379  40.525   0.405
13766W        W75220  32.524   8.345  11.568
13767W        W75221  43.434  40.963   0.817
13768W        W75222   9.681  18.633   2.764
13769W        W75223  11.746  34.047  12.834
13770W        W75224  20.056  29.165   4.169
13771W        W75225  36.586  15.130  11.970
13772W        W75226  23.035  22.214  10.632
13773W        W75227  27.562  38.019   0.820
13774W        W75228  38.880  21.558   0.811
13775W        W75229  38.870  27.526   0.270
13776W        W75230  12.729  28.100   2.256
13777W        W75231  26.155   5.254  11.546
13778W        W75232  35.588  27.493   2.882
13779W        W75233  16.681  19.749   1.786
13780W        W75234  17.246  40.433  13.415
13781W        W75235  14.206  11.357   1.269
13782W        W75236  35.917  32.027  10.981
13783W        W75237  35.854   7.717   2.332
13784W        W75238  25.114  35.536   2.225
13785W        W75239  37.850   8.331   1.293
13786W        W75240   8.732  31.030   1.419
13787W        W75241   6.822  31.149  13.468
13788W        W75242  39.440  25.642   0.865
13789W        W75243  27.626  19.235  12.400
13790W        W75244  21.254  26.184  11.388
13791W        W75245  35.922  30.566  11.515
13792W        W75246   1.929   3.770   1.272
13793W        W75247  42.435  28.056  14.807
13794W        W75248  35.962  39.043   2.375
13795W        W75249  36.922  39.935  12.913
13796W        W75250  37.557  36.088  13.022
13797W        W75251  20.688  34.404   4.673
13798W        W75252  37.453   3.372  13.934
13799W        W75253   2.463  21.694   0.776
13800W        W75254  15.660  10.688   9.976
13801W        W75255  42.962   9.764  11.936
13802W        W75256  36.874  18.154  13.483
13803W        W75257  11.716  15.231   4.331
13804W        W75258  43.382  34.514  14.922
13805W        W75259  18.656  38.494   3.373
13806W        W75260   0.798  37.338   9.979
13807W        W75261  11.716  16.313  14.820
13808W        W75262  30.557   3.256   5.187
13809W        W75263   9.319   8.857   1.276
13810W        W75264  43.507  15.282   2.897
13811W        W75265  12.289  41.838  11.566
13812W        W75266  36.460  36.853   1.702
13813W        W75267  34.955  25.050  10.134
13814W        W75268   1.839  42.780   2.252
13815W        W75269  43.491   3.910   4.619
13816W        W75270  21.223  25.098   2.206
13817W        W75271  16.589  34.930  11.112
13818W        W75272   3.394  23.170   3.328
13819W        W75273   7.848  21.099  10.094
13820W        W75274  40.010  32.053  11.503
13821W        W75275  39.047  37.542   3.696
13822W        W75276  38.859  24.495  14.490
13823W        W75277   0.952  31.618  10.610
13824W        W75278  17.637  14.742   3.772
13825W        W75279   0.920  44.331  12.934
13826W        W75280  37.381  22.505   2.862
13827W        W75281  27.489  34.963   0.346
13828W        W75282  29.660  39.883   1.856
13829W        W75283  33.039  31.078  11.960
13830W        W75284  25.558  22.088   0.346
13831W        W75285  16.769   5.239   1.324
13832W        W75286   4.360  18.730  12.392
13833W        W75287  10.334   6.356  11.957
13834W        W75288   7.206  35.509   1.444
13835W        W75289  10.139  24.071  11.946
13836W        W75290   5.337  42.283  12.920
13837W        W75291  43.342  12.331  12.360
13838W        W75292   9.362  32.503   3.179
13839W        W75293  16.206  43.387   4.147
13840W        W75294   2.883  15.256   3.202
13841W        W75295  33.488   3.768   3.753
13842W        W75296  14.179  43.828  10.008
13843W        W75297  18.564  21.728  10.994
13844W        W75298  24.999  33.388   3.189
13845W        W75299  31.524  38.933  11.374
13846W        W75300  35.106  40.331  11.549
13847W        W75301   8.362  44.475   3.368
13848W        W75302   7.185   7.348  11.455
13849W        W75303  27.130  19.620   4.313
13850W        W75304  15.114  31.562   3.153
13851W        W75305  12.794   9.149  10.517
13852W        W75306  37.523  22.217  14.890
13853W        W75307  17.724  22.652   4.319
13854W        W75308  34.499  17.176   2.198
13855W        W75309  42.459  10.742   0.939
13856W        W75310  33.104  41.292   0.804
13857W        W75311  42.820  36.427   0.805
13858W        W75312  16.677   6.230   0.880
13859W        W75313  43.364   2.250  14.962
13860W        W75314  10.266  15.161  13.323
13861W        W75315   9.275  31.136  14.466
13862W        W75316  33.521  35.602   0.752
13863W        W75317   2.843   3.289   2.264
13864W        W75318  23.714  34.944  14.352
13865W        W75319  43.882  41.871  12.361
13866W        W75320  42.025   2.425  13.521
13867W        W75321  13.156   7.862   4.833
13868W        W75322  43.998  16.626  12.090
13869W        W75323  14.701  27.180   0.340
13870W        W75324  44.271  44.972   1.887
13871W        W75325  21.719  37.024  11.398
13872W        W75326  32.906  16.593   3.177
13873W        W75327  18.283  39.370   3.723
13874W        W75328  15.152  39.404  12.882
13875W        W75329  41.844  20.052  11.398
13876W        W75330  26.522   7.778  14.013
13877W        W75331  28.028  17.227  14.903
13878W        W75332  34.943  30.115  10.614
13879W        W75333  26.486  30.524   0.948
13880W        W75334  29.560  37.859   4.173
13881W        W75335   2.423   9.772  11.394
13882W        W75336  21.231  33.466   4.636
13883W        W75337  41.920  38.371   3.365
13884W        W75338  26.052   4.913   0.339
13885W        W75339  12.758  35.081   3.217
13886W        W75340  22.526  37.398   2.796
13887W        W75341  10.322   8.769   4.339
13888W        W75342  15.310  16.153   9.644
13889W        W75343  30.081  39.853  10.444
13890W        W75344   8.269   5.912   0.805
13891W        W75345  12.131   6.311  14.325
13892W        W75346  26.981   7.833  11.859
13893W        W75347  15.292  41.444   4.714
13894W        W75348  12.687  26.994  13.864
13895W        W75349  40.923   5.794  11.954
13896W        W75350  44.864  40.398  12.493
13897W        W75351  21.226   4.902   5.249
13898W        W75352  19.072  19.617   3.676
13899W        W75353   3.255  40.436   1.829
13900W        W75354  29.983  43.793   0.812
13901W        W75355  24.041   5.315  11.393
13902W        W75356   8.715  12.754   0.400
13903W        W75357  18.639  25.218  14.422
13904W        W75358  38.075  30.522   3.701
13905W        W75359  36.362  17.077   2.680
13906W        W75360  12.756  25.608   4.769
13907W        W75361   0.296  23.201   1.730
13908W        W75362  17.097  16.140  14.382
13909W        W75363  40.362   7.785  11.926
13910W        W75364  42.931  41.972  12.082
13911W        W75365  43.936  23.688   2.231
13912W        W75366  15.186  18.227   2.409
13913W        W75367  37.971  39.963  12.843
13914W        W75368  32.472  15.735  12.501
13915W        W75369  11.714   8.787   0.856
13916W        W75370  28.512  43.783   2.289
13917W        W75371  16.794  24.618  13.895
13918W        W75372  31.529  34.972   3.160
13919W        W75373  12.159  36.955  13.332
13920W        W75374  20.040  43.800  12.347
13921W        W75375  36.473  38.061  14.029
13922W        W75376   5.887  11.342   4.637
13923W        W75377  19.556  17.786  12.508
13924W        W75378  33.389  38.548  12.962
13925W        W75379   6.887  38.843  12.020
13926W        W75380  16.579  27.668  13.439
13927W        W75381  19.071  38.022   2.774
13928W        W75382  34.500  40.410  14.885
13929W        W75383  11.188  20.132   2.859
13930W        W75384  21.171  14.267  10.067
13931W        W75385  21.539  27.988   2.333
13932W        W75386   4.932  40.003  13.413
13933W        W75387  29.098  32.572  14.821
13934W        W75388  41.893  31.104  13.835
13935W        W75389  22.250  17.153   3.715
13936W        W75390  14.268   3.912   4.740
13937W        W75391  26.516  44.335  11.535
13938W        W75392  31.978  12.276   9.620
13939W        W75393   3.226  22.738   5.168
13940W        W75394   0.838  13.175  13.387
13941W        W75395  35.589  28.603  10.478
13942W        W75396  38.358   7.684  12.914
13943W        W75397  23.156   8.664   1.336
13944W        W75398  17.266  41.304   4.607
13945W        W75399   8.672  20.764  10.587
13946W        W75400  26.513  26.644  12.889
13947W        W75401  34.459  31.414  10.410
13948W        W75402   1.455   8.792  14.285
13949W        W75403  19.619   7.328  12.448
13950W        W75404  43.021  28.171   4.698
13951W        W75405  13.704  44.372  13.311
13952W        W75406  39.313  17.662   3.781
13953W        W75407  35.907  31.483  14.998
13954W        W75408  19.106  25.634   2.761
13955W        W75409  16.701  28.659  10.595
13956W        W75410  21.672   4.343  14.975
13957W        W75411  35.549  36.568   2.863
13958W        W75412  38.485  43.840   0.813
13959W        W75413  17.632   3.319  10.412
13960W        W75414  35.378  27.472  14.425
13961W        W75415  25.001  40.547   3.253
13962W        W75416   5.752  44.840   0.844
13963W        W75417  35.861  36.842   4.717
13964W        W75418  27.672  12.194  12.426
13965W        W75419   7.815  18.686  12.901
13966W        W75420   1.886  11.745   4.168
13967W        W75421   7.843   8.240   0.880
13968W        W75422  25.664  29.428   2.266
13969W        W75423  40.372   7.314  10.082
13970W        W75424  28.035  16.314   4.115
13971W        W75425  24.625  36.959   4.204
13972W        W75426  17.689  40.439  11.470
13973W        W75427  36.474  18.548   1.770
13974W        W75428  10.300  39.548   9.455
13975W        W75429  37.469   3.939   2.817
13976W        W75430  34.447   5.211   2.314
13977W        W75431  19.090  31.503  11.476
13978W        W75432  43.469  11.342   2.700
13979W        W75433  29.433  38.340   4.728
13980W        W75434   0.763  42.005   2.323
13981W        W75435  22.132  36.416   2.795
13982W        W75436  11.819  10.335   0.885
13983W        W75437  44.855  35.082   4.189
13984W        W75438   2.874  44.335   4.701
13985W        W75439  30.945   0.484  14.022
13986W        W75440  39.040  20.673   3.764
13987W        W75441   2.380  23.026   2.821
13988W        W75442  18.647  23.130  10.450
13989W        W75443   4.720   9.224   4.804
13990W        W75444  38.830  22.172   0.436
13991W        W75445  21.208   8.751   9.456
13992W        W75446   0.413  39.047   4.684
13993W        W75447  29.103  43.464  13.898
13994W        W75448   8.690  13.134   2.302
13995W        W75449  32.080  24.478  13.342
13996W        W75450   6.707  20.709  14.019
13997W        W75451  33.957  39.485   3.315
13998W        W75452  28.997  15.763  11.032
13999W        W75453  30.969  14.744   3.778
14000W        W75454  40.506  26.613   0.756
14001W        W75455  31.413  39.902  12.039
14002W        W75456  25.548   1.904  14.904
14003W        W75457  32.013  17.568   2.327
14004W        W75458  10.840   9.833   3.243
14005W        W75459  10.700  25.133  12.948
14006W        W75460  17.067  24.004  14.775
14007W        W75461  41.459  34.573  11.001
14008W        W75462  35.491  36.943  10.945
14009W        W75463   2.854  31.952   0.775
14010W        W75464  28.181  27.449  13.001
14011W        W75465  32.635  42.983  10.421
14012W        W75466   6.303  42.855   1.358
14013W        W75467   0.936  43.370  10.891
14014W        W75468   1.442  15.214  13.869
14015W        W75469  26.035  23.673  12.505
14016W        W75470  25.471  31.404   1.429
14017W        W75471  37.457  22.581   3.724
14018W        W75472  15.795   8.785  10.022
14019W        W75473  35.902   4.884  12.057
14020W        W75474   9.338  37.509  14.876
14021W        W75475  18.258   2.451  12.485
14022W        W75476  31.641  10.694   0.895
14023W        W75477  38.912  35.010   1.699
14024W        W75478   0.826   0.855  12.436
14025W        W75479  31.141  36.496  12.853
14026W        W75480  17.079  20.111   3.336
14027W        W75481   3.922  23.502   2.864
14028W        W75482  33.419  27.571   2.267
14029W        W75483  29.073  15.277   2.245
14030W        W75484  22.710  23.700   0.429
14031W        W75485  29.602  22.243   4.806
14032W        W75486  13.121  40.021   3.843
14033W        W75487  42.363  40.808   4.818
14034W        W75488  14.310  43.838   4.340
14035W        W75489  19.264  38.859  13.023
14036W        W75490  13.263  36.403  13.945
14037W        W75491   9.644  39.944  11.047
14038W        W75492  30.505  39.937   3.692
14039W        W75493  34.923  44.871  13.837
14040W        W75494  19.766  23.717  10.645
14041W        W75495   2.739  23.051  13.431
14042W        W75496  23.229   2.777  12.513
14043W        W75497  28.186  30.649   1.296
14044W        W75498   6.813  27.469  11.910
14045W        W75499  34.110  40.039  14.797
14046W        W75500  22.150  18.678  11.377
14047W        W75501  33.564  26.207   2.902
14048W        W75502  11.621  44.324  14.006
14049W        W75503   5.842  32.019  11.907
14050W        W75504   5.808  33.562  11.445
14051W        W75505   9.649   1.825   4.800
14052W        W75506  35.934   6.316  10.997
14053W        W75507  22.535  44.332  10.899
14054W        W75508  30.476  41.476  14.786
14055W        W75509  39.897  10.738   0.287
14056W        W75510  32.399   5.720   2.663
14057W        W75511  29.036   1.323  11.437
14058W        W75512  37.848  37.979   3.641
14059W        W75513  12.654  15.769   1.369
14060W        W75514  21.673  20.045   2.820
14061W        W75515  32.917  13.710   0.922
14062W        W75516  31.523   9.236  12.400
14063W        W75517  26.668  13.690  14.321
14064W        W75518   3.840   2.444   1.264
14065W        W75519  27.186  36.466   3.674
14066W        W75520   3.454  40.374  11.526
14067W        W75521  44.420  40.462  11.956
14068W        W75522   2.951  34.570  13.890
14069W        W75523  35.476  44.288  14.352
14070W        W75524   8.712   0.464  11.580
14071W        W75525  22.713  33.947   1.924
14072W        W75526  19.569  24.074  13.850
14073W        W75527  23.989  34.591  11.991
14074W        W75528  40.537  43.509   2.203
14075W        W75529  14.180  39.325   1.915
14076W        W75530  31.962  23.047   3.190
14077W        W75531   6.776  43.925  14.960
14078W        W75532  28.552  37.395   0.403
14079W        W75533  30.130  10.748  12.918
14080W        W75534   8.195  13.753   4.732
14081W        W75535  21.134  15.126  13.857
14082W        W75536  11.805  30.484   4.659
14083W        W75537  29.993  28.593  10.892
14084W        W75538  33.453  39.018  13.979
14085W        W75539  11.365   2.740  11.558
14086W        W75540  14.313  25.581  11.488
14087W        W75541  13.239  40.896   3.705
14088W        W75542  40.501  36.502  14.796
14089W        W75543   5.272  43.409   1.843
14090W        W75544   6.349  27.518   3.188
14091W        W75545   8.201  16.665  11.421
14092W        W75546   0.279  15.689  13.057
14093W        W75547  34.881  12.807  10.939
14094W        W75548  34.510  33.468  12.054
14095W        W75549  10.142  41.353   1.846
14096W        W75550  21.260  26.160   1.933
14097W        W75551   2.868  10.298  13.545
14098W        W75552  10.798  16.247  11.432
14099W        W75553   3.224  30.547  10.574
14100W        W75554  38.853  44.976  14.791
14101W        W75555  29.024  16.074   2.864
14102W        W75556  27.075  34.559  13.973
14103W        W75557   6.288  19.231   4.172
14104W        W75558  12.348  25.052   0.438
14105W        W75559  41.310  20.047  10.613
14106W        W75560  41.469  14.299  12.989
14107W        W75561  11.141   6.363  11.416
14108W        W75562   4.898  37.581  10.596
14109W        W75563   3.735  39.503  12.859
14110W        W75564  43.901  39.543   3.759
14111W        W75565  44.901  24.981   3.675
14112W        W75566  38.394  18.772   4.117
14113W        W75567   1.770   8.210  13.492
14114W        W75568  35.872  31.929  11.417
14115W        W75569  44.000   0.784  13.943
14116W        W75570  32.472   3.330   2.838
14117W        W75571   8.712  30.446   5.612
14118W        W75572  36.428  12.343  11.122
14119W        W75573  30.119  37.444   4.659
14120W        W75574  39.056  16.754  11.563
14121W        W75575  15.239   5.228   1.868
14122W        W75576   3.301  19.261   0.442
14123W        W75577  25.546   7.288  13.536
14124W        W75578  38.030  41.344   3.215
14125W        W75579  23.669  37.868   3.853
14126W        W75580  40.834   4.896  12.451
14127W        W75581  23.019  18.576   2.787
14128W        W75582  10.170   5.907  12.933
14129W        W75583  17.622  24.127   2.304
14130W        W75584  42.795  18.613   4.260
14131W        W75585  29.495  32.429   0.477
14132W        W75586  13.325  36.046   2.801
14133W        W75587  38.499  19.580   2.739
14134W        W75588  21.564  37.965  14.435
14135W        W75589   6.267  17.256   3.290
14136W        W75590  27.988  10.815  14.482
14137W        W75591   7.754  28.442  11.464
14138W        W75592  19.752  28.055   4.788
14139W        W75593  41.426   0.775   3.164
14140W        W75594   3.944   3.443   1.395
14141W        W75595  20.122  40.937  13.856
14142W        W75596  11.749   1.321  12.443
14143W        W75597  26.027   2.431   0.949
14144W        W75598  15.278  23.646  11.868
14145W        W75599  37.419  34.540   1.251
14146W        W75600  16.112   5.903   4.128
14147W        W75601  18.203  18.761   4.623
14148W        W75602  21.581  29.059   0.850
14149W        W75603  18.106  31.564  12.008
14150W        W75604   4.719   8.697   0.883
14151W        W75605  35.052  10.361   0.434
14152W        W75606   8.229  14.732   3.819
14153W        W75607  33.981   7.791   4.789
14154W        W75608  33.545   5.324   3.805
14155W        W75609  40.375  35.001  12.460
14156W        W75610   4.393  42.941   4.118
14157W        W75611   9.320  15.262  14.322
14158W        W75612  23.669  39.450  11.128
14159W        W75613  25.199  38.471  10.042
14160W        W75614  30.956  35.535  11.561
14161W        W75615  10.153  25.147  14.485
14162W        W75616  14.110  28.435  11.936
14163W        W75617  28.179  13.115   0.947
14164W        W75618  36.457  29.468  14.488
14165W        W75619  44.438   9.347  14.027
14166W        W75620  29.518  44.833   3.169
14167W        W75621  12.269   0.421   2.805
14168W        W75622  36.956  23.663  10.470
14169W        W75623   0.828  24.484   2.797
14170W        W75624  20.029   4.207   2.417
14171W        W75625  15.197  20.755   1.763
14172W        W75626  22.237  21.637   3.380
14173W        W75627  41.903  34.386  13.450
14174W        W75628  27.154   2.471   9.478
14175W        W75629  17.193  34.019  12.003
14176W        W75630  18.685  10.872  14.367
14177W        W75631  24.013   1.780  13.891
14178W        W75632  33.129  31.900   4.803
14179W        W75633  34.928   8.240   1.762
14180W        W75634  40.429  42.334  11.595
14181W        W75635  33.553  37.512   3.235
14182W        W75636   9.847  31.439   3.168
14183W        W75637   7.222  40.913   2.782
14184W        W75638  15.782  38.419  12.033
14185W        W75639   6.876  30.057   0.339
14186W        W75640  33.026  31.068   2.775
14187W        W75641  23.116  11.674  11.980
14188W        W75642   7.824  16.275  13.794
14189W        W75643  36.919  37.969   2.705
14190W        W75644  31.946   2.467  11.893
14191W        W75645  15.314  16.754   2.878
14192W        W75646   6.683   5.196   2.794
14193W        W75647  24.567  30.002   0.829
14194W        W75648  19.110   7.242   4.186
14195W        W75649  36.013  18.113  13.393
14196W        W75650   2.431   8.775  10.152
14197W        W75651   9.764  42.996  14.499
14198W        W75652   8.183  44.490  14.281
14199W        W75653  43.769  30.459  10.989
14200W        W75654  34.390  18.229  12.920
14201W        W75655  21.066   6.221   3.359
14202W        W75656  15.209  17.592   0.467
14203W        W75657  19.685  14.781  11.535
14204W        W75658   7.737  32.630   0.333
14205W        W75659   9.843  39.435   0.316
14206W        W75660  17.690  23.671   3.214
14207W        W75661  39.929   3.248  12.907
14208W        W75662  42.857  12.287   3.800
14209W        W75663  10.241  21.552  11.903
14210W        W75664  24.220  12.701   0.834
14211W        W75665  24.091   5.411   4.662
14212W        W75666   7.384  14.246  13.856
14213W        W75667   6.807  11.271   0.950
14214W        W75668  34.967  15.139   0.346
14215W        W75669  33.020  17.285  11.083
14216W        W75670  25.565  34.877   0.261
14217W        W75671  31.449  25.198  11.885
14218W        W75672  16.228   6.239   2.295
14219W        W75673  32.066  23.226  13.369
14220W        W75674  12.200  22.185   0.929
14221W        W75675  21.710  22.077   2.331
14222W        W75676  39.423  22.625   0.938
14223W        W75677  31.558  28.067   2.890
14224W        W75678  20.704  31.647   1.409
14225W        W75679  13.212  12.135   1.713
14226W        W75680   5.288  36.983   2.246
14227W        W75681  26.190  15.698  13.477
14228W        W75682  10.208  30.453   0.819
14229W        W75683   7.715  42.370  11.005
14230W        W75684  34.878  18.055  10.053
14231W        W75685  36.881  43.464  12.560
14232W        W75686  11.276  24.219   4.759
14233W        W75687  30.497   5.238   1.708
14234W        W75688   7.290  25.567  11.390
14235W        W75689  33.523  38.839   0.352
14236W        W75690   6.392  27.519   4.814
14237W        W75691  34.874  14.699   1.842
14238W        W75692  28.673  30.065  11.022
14239W        W75693   6.755   5.434  11.420
14240W        W75694  22.537  10.140  13.036
14241W        W75695  28.117  37.009   1.230
14242W        W75696  18.106  19.653   0.375
14243W        W75697  28.949  36.512   3.341
14244W        W75698  20.245   6.777  13.509
14245W        W75699  26.184  44.876   4.198
14246W        W75700  32.478  31.445  12.924
14247W        W75701  44.366  27.576   0.790
14248W        W75702  39.419  30.151  14.469
14249W        W75703  44.899  21.531   0.360
14250W        W75704   7.725  32.090   3.191
14251W        W75705   3.447  14.812  10.564
14252W        W75706   8.824  32.472  14.948
14253W        W75707  25.690  13.730  13.009
14254W        W75708   5.221   9.211   1.910
14255W        W75709  41.390  32.108   3.243
14256W        W75710   9.265  18.739  11.871
14257W        W75711   2.913  19.127  14.944
14258W        W75712  42.290  14.600  11.412
14259W        W75713  31.420  15.631  11.917
14260W        W75714  40.390  24.619  13.008
14261W        W75715  44.905  44.803  11.420
14262W        W75716   2.307  40.547   2.758
14263W        W75717  31.980  39.856   2.369
14264W        W75718  16.574  38.535  14.933
14265W        W75719  43.897  26.516   2.880
14266W        W75720  10.694  44.412   3.195
14267W        W75721  34.594   7.404  11.421
14268W        W75722  33.972  10.874  14.799
14269W        W75723   8.717   3.799   4.164
14270W        W75724   4.864  35.540  12.577
14271W        W75725   4.779  33.100  11.587
14272W        W75726  21.226  40.313  14.456
14273W        W75727  42.348  43.381  14.007
14274W        W75728   2.354  28.623  14.837
14275W        W75729  43.504  32.039   2.287
14276W        W75730  11.689  38.901  11.506
14277W        W75731  43.015  23.680  13.936
14278W        W75732  34.567   9.789   2.260
14279W        W75733   9.865  31.605  12.927
14280W        W75734  14.686   1.281   1.884
14281W        W75735  42.018  33.457  14.891
14282W        W75736  40.839   5.358   3.214
14283W        W75737  14.257  18.111  11.438
14284W        W75738  10.251  44.281   5.200
14285W        W75739  44.470  43.973  12.428
14286W        W75740  17.207  37.418  10.556
14287W        W75741  13.626  15.128  10.530
14288W        W75742  44.955   7.780  10.444
14289W        W75743  16.263  12.712  13.816
14290W        W75744   8.221  29.620  12.987
14291W        W75745  23.526  38.997  12.525
14292W        W75746  35.859  12.807   1.708
14293W        W75747  28.968   4.698   1.703
14294W        W75748  27.983  32.123   4.186
14295W        W75749  24.662  16.683  11.534
14296W        W75750  26.032  12.289   2.262
14297W        W75751  19.599  35.099   4.630
14298W        W75752  31.566  36.438  12.390
14299W        W75753  41.375  12.238  11.105
14300W        W75754   6.285   1.849  11.413
14301W        W75755  15.699   3.942  10.986
14302W        W75756  32.015  27.573  13.370
14303W        W75757  12.236  21.021   4.687
14304W        W75758   8.255  44.977  14.437
14305W        W75759   6.333  43.941   2.302
14306W        W75760  34.548  28.094  12.827
14307W        W75761  13.599  36.882  11.519
14308W        W75762  15.135  17.741  13.388
14309W        W75763  28.604  20.071   0.958
14310W        W75764  18.786  24.196   2.857
14311W        W75765  28.945   1.813  14.894
14312W        W75766  40.032  28.978   1.299
14313W        W75767  10.870  43.822  10.976
14314W        W75768  22.167  16.231  14.766
14315W        W75769  25.028  28.508   3.153
14316W        W75770  42.363   2.443   0.276
14317W        W75771  43.419   5.760  12.857
14318W        W75772  39.063  20.623  10.451
14319W        W75773   2.954  44.986   4.834
14320W        W75774  37.567   7.250   2.208
14321W        W75775  24.082  11.713  10.980
14322W        W75776  44.977  39.946  14.983
14323W        W75777  40.981  32.922   1.868
14324W        W75778   0.471  24.077   4.251
14325W        W75779  26.205  17.291  12.826
14326W        W75780  24.669   7.800   2.754
14327W        W75781  37.504  41.020  12.553
14328W        W75782  40.849  33.041   3.658
14329W        W75783  40.368  18.079  11.115
14330W        W75784   3.889  25.062   3.709
14331W        W75785  36.366  39.021  14.422
14332W        W75786  23.605  40.978   3.661
14333W        W75787  12.660  34.605   4.333
14334W        W75788  16.627  34.557  14.496
14335W        W75789  31.435  33.894   2.315
14336W        W75790   0.772  11.723  14.375
14337W        W75791  18.663  29.542   0.308
14338W        W75792  14.129   4.929   4.784
14339W        W75793  20.706  44.441  13.858
14340W        W75794  38.517  42.294  11.965
14341W        W75795  43.875   0.281   2.716
14342W        W75796  22.224  35.868   0.392
14343W        W75797  28.933  32.915  11.893
14344W        W75798  19.158   5.248   4.251
14345W        W75799  36.465  27.492  12.941
14346W        W75800  30.079  36.520  11.901
14347W        W75801  43.823  39.892  14.011
14348W        W75802  44.840  29.632  11.951
14349W        W75803  36.033  16.671  11.387
14350W        W75804  29.644  24.155   3.722
14351W        W75805   6.814   1.838  14.801
14352W        W75806  14.279  22.021  13.494
14353W        W75807  42.904   6.910  13.969
14354W        W75808  42.802  41.399  11.039
14355W        W75809   2.273  26.471   4.676
14356W        W75810  13.620  14.645  11.505
14357W        W75811   0.848   5.769  10.473
14358W        W75812   3.218  15.206  14.809
14359W        W75813  13.749   5.243  11.536
14360W        W75814  20.211  24.498   3.285
14361W        W75815  30.475   8.243   3.677
14362W        W75816  33.002  22.198   3.290
14363W        W75817  31.047  36.465  10.442
14364W        W75818   2.774   0.945  13.450
14365W        W75819   2.315  36.416  11.953
14366W        W75820  20.172  28.956   1.362
14367W        W75821  32.613   4.791   0.271
14368W        W75822  23.228  20.698  12.849
14369W        W75823  38.042  26.100  11.079
14370W        W75824  42.321   3.891   4.158
14371W        W75825   4.840  19.671  10.042
14372W        W75826  13.215   6.224  14.434
14373W        W75827  37.419  11.337   2.811
14374W        W75828  13.350  40.817   4.688
14375W        W75829  11.765   2.255  12.367
14376W        W75830   0.359  42.516  12.539
14377W        W75831  23.163  23.240  12.904
14378W        W75832  22.127  22.586  14.349
14379W        W75833  17.212   2.339  13.350
14380W        W75834   0.417  19.579   1.413
14381W        W75835  10.155   1.887   4.281
14382W        W75836  39.910  17.668  13.324
14383W        W75837   8.891  38.340   2.239
14384W        W75838  34.550   5.249   4.296
14385W        W75839  24.564  34.095  13.508
14386W        W75840  11.852  38.832   3.294
14387W        W75841  40.826  13.694   0.272
14388W        W75842  29.543  30.958   0.851
14389W        W75843  40.398  31.647  11.423
14390W        W75844  38.340  27.507  12.500
14391W        W75845  29.442  15.798   5.268
14392W        W75846  17.089   4.442  11.872
14393W        W75847  18.137  33.542   4.692
14394W        W75848  20.116  42.463  12.839
14395W        W75849  41.790  40.928   4.706
14396W        W75850   1.817  10.184  11.124
14397W        W75851  15.219   6.390   2.410
14398W        W75852   8.309  42.462  13.407
14399W        W75853   2.303   7.410   1.922
14400W        W75854  44.920  16.667   0.862
14401W        W75855   7.240   7.193  14.836
14402W        W75856  42.829  19.172   3.715
14403W        W75857   1.813  34.575   0.812
14404W        W75858  27.977  24.180  10.964
14405W        W75859  10.260  32.949   0.939
14406W        W75860  10.665  22.049   4.165
14407W        W75861  29.451  17.604   3.200
14408W        W75862  16.588  21.682  13.910
14409W        W75863  24.551  39.524  13.356
14410W        W75864  19.734   2.349  13.421
14411W        W75865   6.306  29.442   5.097
14412W        W75866   9.738  23.621  14.417
14413W        W75867  25.701  41.409   2.870
14414W        W75868  27.983  24.504   2.856
14415W        W75869  20.237  40.036   3.263
14416W        W75870  17.194  18.166  10.455
14417W        W75871  16.620   1.764  11.406
14418W        W75872  41.824   6.847   0.944
14419W        W75873  26.168  17.678   2.394
14420W        W75874   3.228  17.240   2.382
14421W        W75875  32.461  34.869  12.561
14422W        W75876  10.712  25.027  12.380
14423W        W75877   1.917  33.095  14.989
14424W        W75878  33.420   4.866   0.421
14425W        W75879  29.131  25.072   5.245
14426W        W75880  31.463  37.530   0.246
14427W        W75881  39.544   4.874  10.117
14428W        W75882  18.587  39.426   4.145
14429W        W75883  12.845  26.694   0.342
14430W        W75884  29.989   4.357   3.667
14431W        W75885   7.288  39.541  13.000
14432W        W75886   5.408  24.647  14.824
14433W        W75887   6.702   2.407   1.743
14434W        W75888  39.829  15.249   3.695
14435W        W75889   2.233   6.267   3.230
14436W        W75890  30.973  10.799  12.900
14437W        W75891  44.264  32.915  12.946
14438W        W75892  20.268  34.007   1.380
14439W        W75893   7.351   7.826   3.188
14440W        W75894  25.016  43.987  10.505
14441W        W75895  21.030  28.542  13.806
14442W        W75896  34.382  41.525  10.950
14443W        W75897  31.550  26.546  13.849
14444W        W75898   8.360   5.417   1.769
14445W        W75899  39.007   9.769   1.721
14446W        W75900  18.186  33.913  12.547
14447W        W75901   2.383  41.423   4.695
14448W        W75902  29.451  27.162  14.333
14449W        W75903  20.564   7.870   0.825
14450W        W75904  33.521  38.825  14.421
14451W        W75905  38.478  25.059  14.838
14452W        W75906   4.940  12.321   3.161
14453W        W75907   8.746  20.253   3.778
14454W        W75908  26.116  40.364   3.366
14455W        W75909  13.314   1.879  13.983
14456W        W75910  12.681  32.081  11.891
14457W        W75911  29.936  13.267  12.977
14458W        W75912  12.723   1.405  12.040
14459W        W75913  30.506   1.970   1.761
14460W        W75914  18.553   2.447  14.030
14461W        W75915   3.442   6.343  11.526
14462W        W75916  23.641  12.309  10.492
14463W        W75917  21.615   8.826  12.422
14464W        W75918  16.612  21.192   1.846
14465W        W75919   9.742  15.683  13.794
14466W        W75920  36.350  14.200   3.647
14467W        W75921  31.644  20.174  11.411
14468W        W75922  36.536  12.836   3.634
14469W        W75923  29.933  20.153  11.020
14470W        W75924   2.832  41.009  10.612
14471W        W75925  32.551  37.395  11.528
14472W        W75926  33.901  34.943   3.822
14473W        W75927   4.815  20.745  10.966
14474W        W75928  37.420  25.671  11.514
14475W        W75929  10.238  40.041  10.107
14476W        W75930  29.963   1.309   5.800
14477W        W75931  20.235  31.996   2.788
14478W        W75932   2.269  43.338   2.846
14479W        W75933  11.177   4.410   0.747
14480W        W75934  20.087  12.131   4.706
14481W        W75935  11.308   2.795   0.802
14482W        W75936  30.499   3.830  12.476
14483W        W75937  43.506  28.157   2.711
14484W        W75938  22.053  37.062  11.474
14485W        W75939  17.629  31.597  12.021
14486W        W75940  35.963  21.022   0.308
14487W        W75941  37.509  34.098   1.259
14488W        W75942  15.672  34.589  14.286
14489W        W75943  18.235  26.663  13.977
14490W        W75944  32.576  22.630  12.836
14491W        W75945  38.388  41.941   5.764
14492W        W75946   1.482  18.057  10.999
14493W        W75947  15.326   3.724  10.485
14494W        W75948   4.826  31.983  10.527
14495W        W75949  27.476  20.100  12.049
14496W        W75950  11.743  26.135  12.028
14497W        W75951  18.747  25.994  10.634
14498W        W75952  43.819  34.082  11.070
14499W        W75953  19.714  37.961  12.542
14500W        W75954  35.992  21.640  14.376
14501W        W75955  22.075   3.904   1.841
14502W        W75956  26.121  32.957  14.018
14503W        W75957  19.199   0.274  14.509
14504W        W75958  33.503  25.624  10.447
14505W        W75959   7.355  34.454  14.881
14506W        W75960  12.733  21.593  13.527
14507W        W75961  27.128  32.090   2.207
14508W        W75962  35.421  15.169  10.538
14509W        W75963  15.160  23.192   4.639
14510W        W75964  18.066  40.516   0.397
14511W        W75965   2.465   4.891   0.861
14512W        W75966   1.246  31.096  13.337
14513W        W75967  29.952   9.211  11.602
14514W        W75968  38.483  35.960  11.406
14515W        W75969  32.021  10.828  12.048
14516W        W75970  36.918   8.162  14.807
14517W        W75971  14.208  15.785  13.353
14518W        W75972  18.244  31.128   0.784
14519W        W75973   9.380  32.532   2.295
14520W        W75974  31.994  38.838   4.241
14521W        W75975  17.681  33.398   3.361
14522W        W75976  36.416  25.184  12.572
14523W        W75977   2.402  39.488   3.210
14524W        W75978  43.859  29.959  14.919
14525W        W75979  35.478  35.959   1.405
14526W        W75980  22.201   1.917   4.146
14527W        W75981  17.282  20.262   4.135
14528W        W75982  13.308  43.952  11.432
14529W        W75983  13.125  13.833  13.990
14530W        W75984  40.902  18.242   3.749
14531W        W75985   8.871  35.917  10.047
14532W        W75986  38.979  15.591  11.096
14533W        W75987  28.096  14.600   2.865
14534W        W75988  10.163  20.581   2.358
14535W        W75989  42.381  17.262   4.125
14536W        W75990   6.208  28.151   4.174
14537W        W75991  22.684   6.339   3.647
14538W        W75992  17.669  21.202   4.700
14539W        W75993  40.411  10.357   1.697
14540W        W75994  12.726  37.835   5.696
14541W        W75995  36.996  31.007  13.911
14542W        W75996  40.802  12.674  12.420
14543W        W75997  18.756  39.382  10.581
14544W        W75998  27.471  35.104   2.890
14545W        W75999  27.134  10.716  12.401
14546W        W76000  19.216   6.415  13.452
14547W        W76001  18.728  32.998  11.459
14548W        W76002  19.133  19.050  10.433
14549W        W76003   6.412  23.638   4.296
14550W        W76004  32.442  34.014  14.288
14551W        W76005  42.936  28.082  11.484
14552W        W76006  11.848  42.892   0.357
14553W        W76007  10.815   4.437  14.394
14554W        W76008  32.504   6.861   4.321
14555W        W76009  33.917   8.241   0.297
14556W        W76010  41.819   4.808  10.559
14557W        W76011  16.137   9.258  10.037
14558W        W76012  36.497  44.900  13.384
14559W        W76013  20.213  43.381  10.470
14560W        W76014   7.188  36.978   0.861
14561W        W76015  22.099  16.165  10.968
14562W        W76016  36.065   9.855   4.144
14563W        W76017  21.666  28.653   2.350
14564W        W76018  19.111  22.729   4.602
14565W        W76019  40.994  40.888  14.278
14566W        W76020  36.379  38.884  12.910
14567W        W76021  24.189  20.531   0.453
14568W        W76022  39.967  30.960  12.544
14569W        W76023  42.986  11.293   1.823
14570W        W76024  41.533   7.758  10.431
14571W        W76025  10.376  31.476  11.466
14572W        W76026   3.258  27.060   3.682
14573W        W76027   8.328  15.159  14.409
14574W        W76028   5.278  44.301  11.573
14575W        W76029  33.601  34.113  10.526
14576W        W76030  16.769  20.179   4.617
14577W        W76031   8.701  28.592  14.758
14578W        W76032   7.352   7.287  11.010
14579W        W76033  15.286  36.047   4.825
14580W        W76034   2.905  15.718   1.332
14581W        W76035  44.769  18.629   4.775
14582W        W76036  12.764   4.870   2.849
14583W        W76037  28.546  40.820  14.873
14584W        W76038   7.753  20.667  14.779
14585W        W76039  26.196  25.640   0.845
14586W        W76040  35.056  41.515  11.481
14587W        W76041  42.851  14.745   3.364
14588W        W76042  41.029  21.560   2.355
14589W        W76043  28.121  35.869   4.264
14590W        W76044  28.930  27.084   5.098
14591W        W76045  34.906  42.992  10.568
14592W        W76046   8.892  23.573  14.502
14593W        W76047  43.371  33.004  14.786
14594W        W76048  10.642   9.171  12.039
14595W        W76049  29.132  36.903  11.552
14596W        W76050  43.446  19.227  14.993
14597W        W76051  31.568  10.650   0.457
14598W        W76052  29.947  23.567  12.979
14599W        W76053   5.285  15.210   0.245
14600W        W76054  10.639   7.690   3.779
14601W        W76055  36.025   8.890   4.321
14602W        W76056  31.093  35.915  13.838
14603W        W76057  10.675   3.353  13.407
14604W        W76058  39.419  39.403  13.040
14605W        W76059  29.094   6.711   1.393
14606W        W76060  18.088  43.271   0.909
14607W        W76061  12.694  34.560   1.407
14608W        W76062   7.294  22.183   2.697
14609W        W76063   3.241  28.605  12.838
14610W        W76064  13.615   4.271   0.278
14611W        W76065  33.479  15.186   4.798
14612W        W76066  30.918  39.542  12.884
14613W        W76067  41.874  28.609   4.775
14614W        W76068  31.146  11.626   1.719
14615W        W76069   2.273  35.537   0.243
14616W        W76070  41.335   8.787  12.004
14617W        W76071  36.922  44.006  14.001
14618W        W76072   5.436  24.615   1.782
14619W        W76073  22.096   5.228   1.256
14620W        W76074   6.191  11.192  10.636
14621W        W76075  35.490  42.336   2.196
14622W        W76076   3.889  23.198  12.475
14623W        W76077  16.810  34.912  11.482
14624W        W76078  42.999   1.978   3.692
14625W        W76079  29.934  17.742   2.417
14626W        W76080   7.226  13.225   2.749
14627W        W76081  42.525   3.272  11.095
14628W        W76082  13.758  12.220   2.228
14629W        W76083   6.846  33.594   0.957
14630W        W76084  36.960  12.794   1.367
14631W        W76085  32.093   5.925   0.418
14632W        W76086  11.170   7.888   0.245
14633W        W76087  42.778  21.547  14.769
14634W        W76088   4.736  17.557  14.356
14635W        W76089   0.441  27.691   0.959
14636W        W76090  39.977  35.541  10.999
14637W        W76091  23.049  29.997   2.240
14638W        W76092  23.113   9.756   2.330
14639W        W76093  22.714   6.837  10.978
14640W        W76094   9.816  18.787   2.278
14641W        W76095  33.423  28.145  12.872
14642W        W76096  34.544   4.705   1.293
14643W        W76097   3.759  43.892  14.907
14644W        W76098   2.797  17.185   4.314
14645W        W76099   4.765  26.997  14.914
14646W        W76100  40.007   4.363  10.488
14647W        W76101  31.951  40.835  13.380
14648W        W76102  16.778  14.285   1.696
14649W        W76103  20.739   5.924  13.505
14650W        W76104  44.272  11.144  11.049
14651W        W76105  15.209   5.845   0.958
14652W        W76106   2.251  25.015  14.956
14653W        W76107   1.754  21.085   3.697
14654W        W76108  33.082  18.745   1.425
14655W        W76109  44.886  23.001  11.452
14656W        W76110   7.733  24.598   4.760
14657W        W76111  24.480   4.787   3.864
14658W        W76112  24.228  28.474   0.393
14659W        W76113  10.309  21.247   4.188
14660W        W76114  43.874  12.839  13.436
14661W        W76115  35.398  42.001   1.880
14662W        W76116  16.218  15.777  11.459
14663W        W76117  23.511   5.375  11.544
14664W        W76118  22.516   5.271   5.120
14665W        W76119  16.640  15.253   4.127
14666W        W76120   4.370   7.812  10.435
14667W        W76121  25.562   1.743   0.437
14668W        W76122  37.489  39.424   0.346
14669W        W76123  36.855  39.350   0.812
14670W        W76124  38.921  16.078   2.371
14671W        W76125  27.964  11.733  11.610
14672W        W76126  23.113  31.423   4.651
14673W        W76127  31.640   3.357  14.998
14674W        W76128  20.746   4.834   2.349
14675W        W76129  12.785  22.250   0.459
14676W        W76130   0.985  32.131  10.111
14677W        W76131  42.411   9.717  10.445
14678W        W76132  26.061   1.815  12.465
14679W        W76133  25.674   7.188   9.648
14680W        W76134  21.060  28.661   1.820
14681W        W76135  39.322  37.974  13.955
14682W        W76136   5.344  44.770  11.460
14683W        W76137  38.041  18.054   2.298
14684W        W76138  35.075  22.202   4.334
14685W        W76139  24.701  26.975  10.594
14686W        W76140   5.434  29.465   2.304
14687W        W76141  33.399  10.361  14.440
14688W        W76142  44.385  21.148   2.263
14689W        W76143   6.283  27.551  14.829
14690W        W76144   9.288   0.765  14.370
14691W        W76145  43.376   6.869  14.847
14692W        W76146   2.797  44.754   2.715
14693W        W76147  32.473  33.389  10.091
14694W        W76148  22.022  23.200   2.386
14695W        W76149  26.536  14.636  12.002
14696W        W76150  42.365   6.884  12.048
14697W        W76151   2.967   7.402   2.366
14698W        W76152  44.772  34.482  14.958
14699W        W76153  22.672   7.298   3.735
14700W        W76154   0.424  18.620   2.191
14701W        W76155  34.464  25.556  12.897
14702W        W76156  13.293  35.062   0.828
14703W        W76157  12.288   7.682   2.250
14704W        W76158  39.019  30.992  13.401
14705W        W76159  27.048  26.543  13.425
14706W        W76160  43.953  20.731   2.234
14707W        W76161  27.608  10.284  12.367
14708W        W76162  40.957  33.082  10.587
14709W        W76163  23.992  28.085   0.898
14710W        W76164  11.675  32.918  11.475
14711W        W76165   7.403  36.490  14.992
14712W        W76166  15.700  32.098   3.272
14713W        W76167  33.079   9.197  10.161
14714W        W76168  18.284  33.876   3.696
14715W        W76169  28.009   8.781  11.058
14716W        W76170  14.685  13.725  12.960
14717W        W76171  43.815  29.434  10.643
14718W        W76172  37.349   1.370   4.814
14719W        W76173  23.051   9.280  13.799
14720W        W76174   5.296  32.005   3.194
14721W        W76175   2.785  39.000  11.857
14722W        W76176   3.825   7.783   4.232
14723W        W76177  42.857   6.348  14.970
14724W        W76178  20.203  32.632  14.955
14725W        W76179  33.556  13.732  12.067
14726W        W76180  20.254  43.317   3.799
14727W        W76181  44.417   6.822   3.845
14728W        W76182  36.961  43.377   4.171
14729W        W76183  21.045  13.704  13.903
14730W        W76184  35.424   4.350   3.194
14731W        W76185  31.418  31.109   3.781
14732W        W76186  28.938  16.205   2.268
14733W        W76187   9.184  28.436   2.327
14734W        W76188  20.265  22.500  12.958
14735W        W76189   6.814  30.133  14.015
14736W        W76190  17.732   3.362   5.213
14737W        W76191  44.285  43.336   3.240
14738W        W76192  24.643  30.096  14.761
14739W        W76193  15.131  28.941  11.006
14740W        W76194  28.960  19.688  10.569
14741W        W76195  27.652  33.442   4.197
14742W        W76196   8.317  23.063   0.873
14743W        W76197  10.676   7.665  13.060
14744W        W76198  29.458  31.017   2.390
14745W        W76199  39.532  26.128  10.952
14746W        W76200   9.325   8.262   1.372
14747W        W76201   7.264   2.283   4.164
14748W        W76202  10.352  44.818   4.677
14749W        W76203   5.929  29.643   4.299
14750W        W76204   5.211  40.475   0.370
14751W        W76205   8.308  39.882  11.954
14752W        W76206   5.876  15.202  12.975
14753W        W76207  29.450   0.268  12.352
14754W        W76208  25.190  27.650  12.561
14755W        W76209  17.570  31.143   2.864
14756W        W76210  37.534  40.505  11.956
14757W        W76211  44.260   2.927   1.802
14758W        W76212  11.210  36.934  10.621
14759W        W76213  12.273  44.826   1.387
14760W        W76214  19.215   3.821   0.419
14761W        W76215  27.977  24.197  11.882
14762W        W76216   0.763  31.075  13.038
14763W        W76217  40.875   0.403  13.350
14764W        W76218  38.025  10.373   4.697
14765W        W76219  42.313  44.821  11.597
14766W        W76220  40.321  43.405  10.903
14767W        W76221  44.896  15.246   2.293
14768W        W76222  36.414  23.630   3.203
14769W        W76223   2.747   1.878  13.402
14770W        W76224   9.741  19.597   3.295
14771W        W76225  22.733   0.926   4.150
14772W        W76226  16.707   7.820  12.437
14773W        W76227  34.414  11.624   1.915
14774W        W76228  28.147  29.522   4.720
14775W        W76229   2.957  42.968   1.774
14776W        W76230  37.383  29.438   3.714
14777W        W76231   6.911  23.572  13.012
14778W        W76232  15.811  17.206   4.598
14779W        W76233  38.846  18.224   5.228
14780W        W76234  43.979  42.446  14.856
14781W        W76235  14.149   1.814  12.093
14782W        W76236  21.605  33.983   2.744
14783W        W76237  42.826   9.679   3.363
14784W        W76238  25.697   3.785   5.668
14785W        W76239  30.656  10.827   0.911
14786W        W76240  37.371  30.070   2.260
14787W        W76241  35.945   1.837  13.025
14788W        W76242  13.242   9.705  14.434
14789W        W76243  41.349   6.204   3.214
14790W        W76244  37.955  35.968   1.902
14791W        W76245  37.010  17.306   3.217
14792W        W76246  15.663  26.143   3.169
14793W        W76247  21.059  11.293   1.425
14794W        W76248  34.510  44.272  13.350
14795W        W76249  19.279  33.481  12.462
14796W        W76250  12.322  25.672  12.000
14797W        W76251  36.027  40.810   4.835
14798W        W76252  31.042  37.026  11.097
14799W        W76253  17.652  22.100  12.964
14800W        W76254   0.315  30.038   3.871
14801W        W76255  32.618   2.770  12.073
14802W        W76256  33.068  33.551  13.548
14803W        W76257  18.053  31.996   3.787
14804W        W76258  27.065   9.768  12.059
14805W        W76259  10.364  20.550   0.258
14806W        W76260   9.688  29.522   0.421
14807W        W76261  23.722  33.622  12.548
14808W        W76262  36.868  19.067   3.863
14809W        W76263  38.870   4.775  10.610
14810W        W76264  12.257  17.766   2.405
14811W        W76265  22.691  33.500   4.773
14812W        W76266  20.617  37.579  14.359
14813W        W76267  25.141  39.861  13.945
14814W        W76268  17.228  23.494   2.181
14815W        W76269  33.598  19.564  12.528
14816W        W76270  21.055  42.383   2.357
14817W        W76271   5.829  44.832  14.334
14818W        W76272  40.525  14.711   4.760
14819W        W76273  22.037  40.501  13.927
14820W        W76274   4.401  33.468  12.557
14821W        W76275  37.910  30.534   0.932
14822W        W76276  18.259   1.942  12.871
14823W        W76277  18.571   8.837  13.399
14824W        W76278  32.068  39.853   2.720
14825W        W76279  37.015  10.303   3.159
14826W        W76280  26.137   6.423  14.020
14827W        W76281  18.256  26.192   2.900
14828W        W76282  18.713  21.598   4.333
14829W        W76283  30.534   6.727  12.431
14830W        W76284  18.753   3.858   0.421
14831W        W76285   6.251   0.450  12.434
14832W        W76286  33.512  14.704  14.462
14833W        W76287  19.657  40.315   3.236
14834W        W76288  39.940  28.568  14.481
14835W        W76289   5.782  19.228   3.803
14836W        W76290  40.808  35.478  11.942
14837W        W76291   8.748  36.863  12.084
14838W        W76292  25.694  28.101  14.893
14839W        W76293  13.264  22.171  12.567
14840W        W76294  41.422  11.625   3.797
14841W        W76295  44.367  20.575  12.839
14842W        W76296  41.522   2.330  10.485
14843W        W76297  41.875  20.613  11.568
14844W        W76298  19.755   8.872  11.611
14845W        W76299  30.453  33.522  11.464
14846W        W76300  12.246  19.122   0.424
14847W        W76301  20.569   8.735   4.137
14848W        W76302  34.958  22.720   4.737
14849W        W76303  16.573  16.081   2.766
14850W        W76304   5.925   2.281  13.905
14851W        W76305  12.724  19.161   3.802
14852W        W76306  11.157  32.493  13.507
14853W        W76307  43.435   7.846  14.932
14854W        W76308  40.313   6.757   1.233
14855W        W76309  12.855  34.403  10.466
14856W        W76310  35.439  37.551  12.447
14857W        W76311  26.549  40.026   0.829
14858W        W76312   7.398   6.413  12.345
14859W        W76313   3.400   6.411  14.825
14860W        W76314  24.105  44.903  11.399
14861W        W76315  37.930  25.544   2.746
14862W        W76316  21.195   2.954  10.431
14863W        W76317   2.766  26.675  10.981
14864W        W76318  13.784  27.545  14.843
14865W        W76319   4.400   4.340  13.396
14866W        W76320  37.935  25.477   3.688
14867W        W76321  43.392  41.333  11.415
14868W        W76322  44.888  11.192   2.282
14869W        W76323  30.966  29.984  12.922
14870W        W76324  15.638  10.294   2.257
14871W        W76325   3.366  21.057   0.911
14872W        W76326   5.395  42.820   1.916
14873W        W76327  26.478   5.717   3.239
14874W        W76328   7.876  14.662  12.473
14875W        W76329  12.627  42.282   4.168
14876W        W76330   6.808  28.489  11.526
14877W        W76331  43.930   2.909  11.046
14878W        W76332  39.357   3.295   4.642
14879W        W76333  36.913   5.265  12.030
14880W        W76334  25.156  14.673  13.951
14881W        W76335  39.332  39.986  14.984
14882W        W76336  35.591  29.103  11.059
14883W        W76337   2.398  13.213  14.418
14884W        W76338  43.401  23.602   1.931
14885W        W76339  42.364   8.370   2.203
14886W        W76340  18.088  16.083  12.472
14887W        W76341  36.464   0.875  10.625
14888W        W76342  27.645  39.855   0.734
14889W        W76343  17.751  32.489   3.659
14890W        W76344  44.879  26.184  11.086
14891W        W76345  21.571   2.336   4.771
14892W        W76346   4.359  34.399   2.809
14893W        W76347   3.335  35.490  12.837
14894W        W76348  23.191  24.177  12.839
14895W        W76349  20.259  31.599  14.487
14896W        W76350   3.712  34.369  10.920
14897W        W76351  40.517  11.823   1.803
14898W        W76352  15.807  18.557   0.386
14899W        W76353  13.269  29.611   4.219
14900W        W76354  35.062  25.643  14.792
14901W        W76355   5.838  34.989  10.457
14902W        W76356  17.579   3.715  13.375
14903W        W76357  25.571   3.777   3.762
14904W        W76358  44.472  24.050   2.408
14905W        W76359  32.597   4.701   3.749
14906W        W76360  20.203  34.907  11.932
14907W        W76361  25.670  10.849   3.268
14908W        W76362  31.599   1.288   0.953
14909W        W76363  31.955  21.576   2.849
14910W        W76364  22.710   3.844  11.436
14911W        W76365  15.151  12.839   0.336
14912W        W76366   5.795  36.482  12.050
14913W        W76367  19.642  44.404   4.790
14914W        W76368  22.689  44.421   2.403
14915W        W76369  33.916  13.159  12.916
14916W        W76370  39.035  43.944  14.976
14917W        W76371  34.036  18.748  13.957
14918W        W76372  31.081  19.203   0.785
14919W        W76373   2.320  36.890   3.680
14920W        W76374  10.291  29.629  13.486
14921W        W76375  18.683  32.488   2.670
14922W        W76376  37.518   1.385  13.856
14923W        W76377  34.085   7.352   4.772
14924W        W76378  24.053  38.455   3.312
14925W        W76379  14.132  29.539  12.892
14926W        W76380  25.522   3.231  10.004
14927W        W76381  37.423  12.658  14.886
14928W        W76382  23.642   0.830   1.803
14929W        W76383  27.105  32.535   0.727
14930W        W76384  26.496   4.776   0.456
14931W        W76385  36.902  21.669   2.215
14932W        W76386  19.078  21.630   3.710
14933W        W76387  31.635  21.055   0.726
14934W        W76388  24.512  13.234  13.892
14935W        W76389  34.063  32.919   1.757
14936W        W76390  23.096  24.618  10.558
14937W        W76391  27.630  43.943  13.819
14938W        W76392  37.366  16.179  14.446
14939W        W76393  30.055  33.574  12.072
14940W        W76394  15.771  23.106   1.718
14941W        W76395  35.460  33.017   2.893
14942W        W76396  16.234  18.245  11.014
14943W        W76397   6.192  38.378   2.705
14944W        W76398   7.772   1.472  14.346
14945W        W76399   5.703  14.809   1.452
14946W        W76400  35.584  27.534  13.061
14947W        W76401  34.402  27.179   1.219
14948W        W76402  35.535  40.881   1.411
14949W        W76403  43.866  16.218   2.713
14950W        W76404  43.949  30.022   1.851
14951W        W76405   0.820  26.530  10.027
14952W        W76406  15.756  24.612  14.489
14953W        W76407  10.855  15.771   3.730
14954W        W76408  28.149  14.169  11.531
14955W        W76409  31.118   1.477  12.459
14956W        W76410  12.707   5.801   4.767
14957W        W76411  15.588   2.949  13.988
14958W        W76412  33.960  23.689  14.471
14959W        W76413  14.769  25.152   0.323
14960W        W76414   9.251  10.841   3.755
14961W        W76415   3.713  31.903   5.177
14962W        W76416   9.859   9.735  13.926
14963W        W76417  20.034   2.325  10.597
14964W        W76418  28.133  19.743  10.145
14965W        W76419  23.994  20.040  10.989
14966W        W76420  29.619   2.360   5.166
14967W        W76421  30.930  10.228  10.118
14968W        W76422  25.156  34.474  10.972
14969W        W76423  42.949   6.723  11.457
14970W        W76424  43.933  29.442   0.315
14971W        W76425   2.280   4.795   3.784
14972W        W76426  15.680  14.336   0.375
14973W        W76427   1.275  35.083  10.897
14974W        W76428  40.460  23.072  10.553
14975W        W76429  24.564  33.048  12.999
14976W        W76430  38.376  44.465  13.876
14977W        W76431  34.074  11.252   4.648
14978W        W76432  39.064  40.510  13.546
14979W        W76433  21.173  27.551   1.708
14980W        W76434  11.260   3.278   2.785
14981W        W76435  33.590  41.919  11.917
14982W        W76436  17.222   6.281  13.922
14983W        W76437  18.118   7.704   1.343
14984W        W76438  38.428  10.307  11.401
14985W        W76439  38.941  29.484   0.436
14986W        W76440  44.980  13.693   0.859
14987W        W76441  27.967   7.176   2.735
14988W        W76442   3.744  39.020   2.244
14989W        W76443  23.021  41.329   2.383
14990W        W76444  19.585  11.838   1.388
14991W        W76445   4.344  36.471  11.919
14992W        W76446  14.731  13.731  10.584
14993W        W76447   7.312   4.807   4.795
14994W        W76448   0.419  19.779   2.846
14995W        W76449   0.755  38.988   2.414
14996W        W76450  27.122  28.656   2.322
14997W        W76451  31.103  23.159   4.342
14998W        W76452   7.273  23.079  13.844
14999W        W76453  36.036  19.685   0.908
15000W        W76454  36.065  32.898  14.350
15001W        W76455  44.378  30.917  10.987
15002W        W76456   1.799  15.707  12.576
15003W        W76457  41.980  11.133  13.523
15004W        W76458   1.839  13.336  14.798
15005W        W76459  32.892   6.745  13.338
15006W        W76460  27.147  39.890  10.603
15007W        W76461  41.016  10.823   3.164
15008W        W76462  35.095  11.701   3.751
15009W        W76463  31.127   5.827  14.926
15010W        W76464  29.631  16.730   3.647
15011W        W76465  24.492  36.059  12.394
15012W        W76466  14.812  32.532   2.306
15013W        W76467  33.579  21.244   3.253
15014W        W76468  27.119  20.690   1.760
15015W        W76469  16.733   0.307   4.348
15016W        W76470  34.448  26.032   2.292
15017W        W76471  39.431  43.902  12.009
15018W        W76472  24.056  29.558  12.548
15019W        W76473   3.890  13.108   4.625
15020W        W76474  36.434  29.568   4.639
15021W        W76475  38.977  33.956  10.420
15022W        W76476  11.296  10.356   3.199
15023W        W76477  19.744  38.371   4.749
15024W        W76478  23.121  13.833  14.984
15025W        W76479  35.015  41.797   4.341
15026W        W76480  12.150   7.828  10.599
15027W        W76481  16.761  21.053   0.335
15028W        W76482  29.011  43.010   4.193
15029W        W76483   4.867   9.321  10.572
15030W        W76484   9.353   3.346  14.970
15031W        W76485  29.478  11.676   2.336
15032W        W76486  33.600  15.601   3.681
15033W        W76487  39.898  35.062  10.641
15034W        W76488  28.583  29.615   1.412
15035W        W76489  13.824  33.043  12.889
15036W        W76490  35.529  25.626  11.902
15037W        W76491  15.631  13.737  12.540
15038W        W76492  36.404   0.812   0.936
15039W        W76493   3.710  29.059  14.444
15040W        W76494  35.074  36.422  14.871
15041W        W76495  33.560   5.318   4.713
15042W        W76496  14.644  28.438   0.313
15043W        W76497  28.164   5.396   2.733
15044W        W76498  17.710  24.978   4.767
15045W        W76499   6.846   2.356   4.813
15046W        W76500  39.487  36.481  11.041
15047W        W76501  21.183  31.974  13.054
15048W        W76502   3.890  39.315  14.437
15049W        W76503  11.833   9.824  11.123
15050W        W76504  35.567  12.714  12.888
15051W        W76505  42.920  25.681   1.378
15052W        W76506  12.688  42.940   1.214
15053W        W76507  29.469   6.758  13.868
15054W        W76508   7.228  36.455   1.732
15055W        W76509  22.643  11.178  14.970
15056W        W76510  37.395   0.970   3.705
15057W        W76511   0.804  32.419   3.157
15058W        W76512  22.561  39.471   4.741
15059W        W76513  35.939  36.473   1.335
15060W        W76514   0.395  28.059   4.675
15061W        W76515  23.535   3.297   4.233
15062W        W76516  32.106  40.452   2.322
15063W        W76517   7.804  19.771   4.730
15064W        W76518  14.774   4.752   2.383
15065W        W76519  41.944  21.631   2.184
15066W        W76520  44.422  43.330   2.298
15067W        W76521  20.214   9.735   4.761
15068W        W76522  43.010  16.726   1.861
15069W        W76523  43.945  18.705  12.406
15070W        W76524  31.636  34.113   2.777
15071W        W76525  37.895  42.509   5.204
15072W        W76526  43.787  33.081  11.459
15073W        W76527  38.074  14.147  13.528
15074W        W76528  30.610  37.953   3.720
15075W        W76529   1.899  23.566   4.247
15076W        W76530  20.031  33.888  11.890
15077W        W76531   0.471  14.795   0.765
15078W        W76532  32.438  36.083   1.316
15079W        W76533  28.136  36.856  12.484
15080W        W76534  44.288  26.042  10.582
15081W        W76535  12.642  18.725   0.290
15082W        W76536  17.276   7.402   1.302
15083W        W76537   7.858  44.305  12.470
15084W        W76538  25.605   6.734  14.968
15085W        W76539  28.477   7.306   1.806
15086W        W76540  11.795  43.774   2.419
15087W        W76541   0.922  28.638  12.442
15088W        W76542   2.870  43.356  10.612
15089W        W76543  16.763   7.863   0.931
15090W        W76544  33.117  38.910   0.440
15091W        W76545  23.535  13.170   1.704
15092W        W76546  33.543  34.453   4.808
15093W        W76547  33.523  34.550   3.278
15094W        W76548  35.074  44.297   4.718
15095W        W76549  33.392  26.589   9.979
15096W        W76550  42.796  28.439   4.342
15097W        W76551  28.121  37.858  10.489
15098W        W76552  20.186  20.240   1.303
15099W        W76553  25.651   2.271   4.164
15100W        W76554  44.860  14.125  12.495
15101W        W76555  19.234  11.280  10.459
15102W        W76556  20.252  11.794  11.943
15103W        W76557  18.626  19.535  14.387
15104W        W76558  25.695   6.835  11.070
15105W        W76559   6.303  36.431   2.238
15106W        W76560  32.015   4.763   1.906
15107W        W76561  22.634  15.708  14.431
15108W        W76562  40.311  13.127  14.854
15109W        W76563  13.750  35.385  11.107
15110W        W76564  36.074  12.359   1.934
15111W        W76565  14.726  24.484  13.907
15112W        W76566  16.075  32.409  10.438
15113W        W76567  43.888   6.745   3.159
15114W        W76568   9.161   9.820  13.486
15115W        W76569   6.225  32.054   4.291
15116W        W76570  38.841   6.363  12.553
15117W        W76571  29.640  43.335   2.664
15118W        W76572  11.807  16.275  10.051
15119W        W76573  28.621  16.283   3.158
15120W        W76574  36.398  37.969   2.201
15121W        W76575  34.019   6.349  13.311
15122W        W76576  16.258   5.873  12.920
15123W        W76577   4.410  13.732   0.947
15124W        W76578  19.568  37.849   1.813
15125W        W76579  16.739  29.093   0.464
15126W        W76580   9.250   1.412  10.952
15127W        W76581   4.931  16.284   0.959
15128W        W76582  30.925  23.124   9.643
15129W        W76583  19.775  38.353   0.375
15130W        W76584  32.617  17.201   3.696
15131W        W76585  22.104  29.607  13.890
15132W        W76586  22.566  10.814  12.564
15133W        W76587  37.557  43.015  13.379
15134W        W76588  26.541  33.586  10.979
15135W        W76589  10.737   2.880  10.991
15136W        W76590  14.642  36.353   0.397
15137W        W76591  13.310  32.412  12.436
15138W        W76592  14.644  19.780  10.145
15139W        W76593  29.163  39.342  11.112
15140W        W76594   4.374  38.036  10.627
15141W        W76595  35.499  28.646  14.946
15142W        W76596   3.743  36.405  13.512
15143W        W76597   2.838  36.027  13.316
15144W        W76598  40.373  39.459   9.619
15145W        W76599   0.326  25.142  12.086
15146W        W76600  24.702   1.759   2.901
15147W        W76601  10.260  24.176  13.887
15148W        W76602  11.640  37.025   0.283
15149W        W76603  15.800  16.090  14.391
15150W        W76604  30.918  43.819   2.706
15151W        W76605  19.754   3.849   0.789
15152W        W76606  13.215  22.015   1.735
15153W        W76607  26.511  18.680   1.904
15154W        W76608   5.228  11.285   4.334
15155W        W76609  32.576  34.442  10.928
15156W        W76610  38.429   9.718  14.287
15157W        W76611  22.519   2.765  14.412
15158W        W76612  44.277  17.722  14.898
15159W        W76613   9.339  27.689  14.909
15160W        W76614  27.472  22.086   0.311
15161W        W76615  36.044  42.519   0.424
15162W        W76616  29.462  16.248   4.654
15163W        W76617  35.075   6.284   3.782
15164W        W76618  39.496   6.348   0.824
15165W        W76619  18.684  35.974  13.386
15166W        W76620  35.942  36.557   1.788
15167W        W76621   9.340  43.299   0.341
15168W        W76622  42.824   4.333   3.654
15169W        W76623  39.318  14.290   0.942
15170W        W76624   6.351  12.315   1.753
15171W        W76625   0.484  36.535  13.408
15172W        W76626   9.770  43.350   2.418
15173W        W76627   7.234  38.559   1.311
15174W        W76628  23.176   1.784  14.874
15175W        W76629  37.520  15.599  11.583
15176W        W76630  26.467  40.371   5.168
15177W        W76631   8.780  12.832   2.800
15178W        W76632  18.745  35.098   1.295
15179W        W76633  40.400  23.134  12.830
15180W        W76634  13.280  18.243  11.426
15181W        W76635  26.153   5.795   2.666
15182W        W76636  32.474  13.730  13.320
15183W        W76637   9.658  32.408   3.307
15184W        W76638  37.909   8.702  11.376
15185W        W76639   9.226  10.308  12.380
15186W        W76640  41.950  15.162  14.872
15187W        W76641  40.412  17.068  11.970
15188W        W76642  11.833  21.717  14.365
15189W        W76643   5.927  11.229  11.518
15190W        W76644   4.225   2.341  11.467
15191W        W76645  22.725  19.135  10.405
15192W        W76646  11.720  18.291   4.229
15193W        W76647   7.373  21.699   2.731
15194W        W76648  40.417  33.556  11.422
15195W        W76649   7.800  22.509  14.506
15196W        W76650  10.157  15.231  12.388
15197W        W76651   5.415   7.344  14.298
15198W        W76652  11.804  34.564   3.653
15199W        W76653  17.257  29.093  14.318
15200W        W76654  10.239  12.224  14.804
15201W        W76655  13.733  35.559  11.378
15202W        W76656  40.537  28.448   3.649
15203W        W76657  26.662  30.925   2.252
15204W        W76658  42.389  11.242  10.550
15205W        W76659  29.093  10.757   9.946
15206W        W76660  21.091  30.515   1.769
15207W        W76661  16.101  10.211  11.571
15208W        W76662  40.951  21.642  11.415
15209W        W76663  42.813  41.471   4.269
15210W        W76664   8.661   7.879  11.533
15211W        W76665  25.578  16.651   3.633
15212W        W76666  12.301  28.076  14.920
15213W        W76667   8.773  36.423   0.253
15214W        W76668  28.150  13.783   3.299
15215W        W76669  41.986  42.337  14.914
15216W        W76670  41.312  37.909   2.314
15217W        W76671  14.671  23.498   3.803
15218W        W76672   9.173  28.040  10.992
15219W        W76673  24.622  30.536   3.258
15220W        W76674   1.848   1.450   0.269
15221W        W76675  27.517  14.717  11.936
15222W        W76676  13.227  15.716  11.431
15223W        W76677  13.794   3.927  12.404
15224W        W76678   8.328  44.761  14.758
15225W        W76679  13.151  36.865  12.918
15226W        W76680  33.486  25.516   1.274
15227W        W76681  40.051   5.395  10.404
15228W        W76682   3.411  13.348   1.725
15229W        W76683   9.797  20.616   1.773
15230W        W76684  31.060  24.205   2.274
15231W        W76685  26.509  17.760  10.404
15232W        W76686  16.161   7.858  14.011
15233W        W76687   1.931  44.805  12.934
15234W        W76688  12.198  17.782  14.416
15235W        W76689  33.052  11.644   3.186
15236W        W76690   3.807  16.740   2.841
15237W        W76691   5.269   7.703   1.361
15238W        W76692   8.746  12.652  10.540
15239W        W76693  35.410  16.284  12.352
15240W        W76694  38.893   4.913  14.359
15241W        W76695  20.244  37.344  14.838
15242W        W76696  20.155  43.413  14.798
15243W        W76697  44.286  38.071  12.477
15244W        W76698  36.434  25.120  13.390
15245W        W76699  43.953  15.281   0.311
15246W        W76700   5.801  33.039   4.756
15247W        W76701  29.023  12.340   3.263
15248W        W76702  16.597  29.442  13.973
15249W        W76703  34.904   5.244  10.411
15250W        W76704  30.009   7.861  12.039
15251W        W76705  29.661  11.170   3.253
15252W        W76706   8.663  12.825   1.922
15253W        W76707   5.317  19.724   4.171
15254W        W76708   5.832   1.319   0.445
15255W        W76709  44.315   7.295  14.824
15256W        W76710  43.848  18.732   3.268
15257W        W76711  12.692  10.800  10.935
15258W        W76712  25.161  29.639   3.654
15259W        W76713  42.499  23.235   3.164
15260W        W76714  37.874   0.762   1.220
15261W        W76715  26.160   4.720   2.309
15262W        W76716  10.260  35.923  11.546
15263W        W76717  25.637  20.738   0.764
15264W        W76718  12.130  35.414  13.932
15265W        W76719  18.246  14.252  10.568
15266W        W76720  19.080  38.503  10.561
15267W        W76721  36.355  16.719  11.874
15268W        W76722  19.066  40.009  10.939
15269W        W76723  33.027  15.198  10.514
15270W        W76724  40.332  20.031   3.198
15271W        W76725  34.100  18.067  11.889
15272W        W76726  43.429  23.119  13.022
15273W        W76727   9.159   3.444   4.152
15274W        W76728  23.206  28.634  13.799
15275W        W76729  40.318   6.277  14.949
15276W        W76730  25.018  17.763   1.888
15277W        W76731  18.248  38.031  11.970
15278W        W76732   0.284  30.960   0.888
15279W        W76733  42.831  31.576   0.399
15280W        W76734  28.611  36.863  14.940
15281W        W76735   1.756  35.993   0.768
15282W        W76736  25.640  35.421   4.618
15283W        W76737   9.794  34.116   0.768
15284W        W76738  44.848   2.376   4.728
15285W        W76739  37.566  23.496   4.624
15286W        W76740  12.641   7.841  14.365
15287W        W76741  39.960  40.517   1.884
15288W        W76742  21.533  11.242   3.844
15289W        W76743  23.025   7.179  12.096
15290W        W76744   9.701   8.378   0.337
15291W        W76745   9.206   3.791   0.474
15292W        W76746  18.097  28.138   3.188
15293W        W76747  12.856  42.003   0.865
15294W        W76748  19.062   0.823  13.818
15295W        W76749   2.857   8.322  13.939
15296W        W76750  24.222  20.216  13.382
15297W        W76751   4.918  42.402  14.911
15298W        W76752  29.957   1.946  14.792
15299W        W76753  15.184  26.525   0.326
15300W        W76754   2.762  18.762  13.378
15301W        W76755   3.769  44.897  10.602
15302W        W76756   6.754  39.525   3.688
15303W        W76757  22.706  10.257   4.771
15304W        W76758  26.597  38.453   4.752
15305W        W76759   6.892  19.771  11.904
15306W        W76760  17.728   1.416  12.946
15307W        W76761  34.575  37.425  14.845
15308W        W76762  30.974  15.582   3.172
15309W        W76763  31.908  35.991   3.808
15310W        W76764  33.968  44.307  13.533
15311W        W76765  14.335  17.239   4.150
15312W        W76766  24.638  25.543   3.782
15313W        W76767  24.196   9.395  13.502
15314W        W76768  21.087  21.532   1.911
15315W        W76769  22.031  22.100  12.088
15316W        W76770  38.390  28.441   0.371
15317W        W76771  41.945  12.781  14.388
15318W        W76772  34.072   4.876   2.829
15319W        W76773  26.071   5.725   0.347
15320W        W76774  21.181  31.946  10.637
15321W        W76775  28.649  42.287   0.437
15322W        W76776  30.103  34.532   4.210
15323W        W76777   6.844  22.119  12.084
15324W        W76778   0.921  20.149  10.894
15325W        W76779  13.825  32.540  10.582
15326W        W76780   6.198  44.928  12.980
15327W        W76781   0.301  26.475  13.936
15328W        W76782  41.474   4.865   3.772
15329W        W76783  39.011  39.494   3.697
15330W        W76784  16.581  37.969   0.332
15331W        W76785   8.229  27.459  11.096
15332W        W76786  15.781   6.248  11.870
15333W        W76787   8.223  17.136  12.997
15334W        W76788   6.307  38.916  12.478
15335W        W76789  32.449  21.081   9.962
15336W        W76790  38.989  41.322   0.953
15337W        W76791  11.333  30.079   3.743
15338W        W76792  33.033   4.429   0.459
15339W        W76793  20.175  27.143   1.266
15340W        W76794  31.924  20.096  14.818
15341W        W76795  40.890  42.476  10.502
15342W        W76796  32.957  16.623  13.042
15343W        W76797  30.033  35.361  13.501
15344W        W76798  34.495  28.620   1.406
15345W        W76799  22.092  10.346   5.247
15346W        W76800  23.160  44.388   0.464
15347W        W76801  17.107   8.869  10.469
15348W        W76802  15.622   2.372  13.833
15349W        W76803  28.047  16.294  13.046
15350W        W76804  19.647  31.616  10.494
15351W        W76805  15.649  39.026   4.185
15352W        W76806   5.696  17.173  13.481
15353W        W76807  41.934   2.918  12.426
15354W        W76808  12.856  13.176  11.379
15355W        W76809   2.237  26.502  10.431
15356W        W76810  43.329   8.848  10.546
15357W        W76811  26.088  31.602   1.721
15358W        W76812  38.468   4.432   4.126
15359W        W76813  40.895  12.244  11.086
15360W        W76814  35.853  25.660  12.838
15361W        W76815  18.734  25.622  14.282
15362W        W76816  39.985   4.207  10.993
15363W        W76817  26.968  17.714   3.220
15364W        W76818  33.388   8.245   2.191
15365W        W76819  24.535  11.213   0.353
15366W        W76820  14.332  33.897  14.965
15367W        W76821  40.806  32.520   1.335
15368W        W76822  17.295  10.745   0.285
15369W        W76823  24.156  10.733  13.502
15370W        W76824  31.483  13.751  10.592
15371W        W76825  41.934  14.804   1.378
15372W        W76826  29.605   9.343  11.503
15373W        W76827  34.414  31.952  14.968
15374W        W76828  23.155  26.570  11.029
15375W        W76829  18.726  26.125   2.418
15376W        W76830  25.171  32.982  12.007
15377W        W76831   3.371  27.585   1.859
15378W        W76832   4.338  24.615   1.308
15379W        W76833  29.132  37.970  13.977
15380W        W76834  23.994  22.188  10.981
15381W        W76835   0.279  12.841   1.402
15382W        W76836   0.353  40.037  13.024
15383W        W76837  14.306   1.329  11.858
15384W        W76838   6.332  37.909  13.458
15385W        W76839  31.577  26.597  14.469
15386W        W76840  20.634  10.662  13.824
15387W        W76841  23.233   4.361   1.890
15388W        W76842  42.016   8.213   4.156
15389W        W76843  19.635   9.752  10.432
15390W        W76844  43.353  18.248  13.834
15391W        W76845  31.548  33.052   3.852
15392W        W76846  25.530  33.965  11.901
15393W        W76847  37.555  34.422  11.399
15394W        W76848  41.797  26.581  13.972
15395W        W76849  20.065   7.736  12.929
15396W        W76850   3.740  28.538  13.015
15397W        W76851  15.091  31.035   4.272
15398W        W76852   8.724  28.562  13.516
15399W        W76853   6.894  27.014   2.280
15400W        W76854   5.414   0.820  11.462
15401W        W76855   7.176  15.796   0.797
15402W        W76856  37.426  26.618   2.861
15403W        W76857  23.622  24.492  14.770
15404W        W76858  29.918  21.086   0.826
15405W        W76859  40.954  24.076   2.336
15406W        W76860  28.053  32.446  13.458
15407W        W76861  39.505  35.556   0.439
15408W        W76862   9.831  33.907   4.657
15409W        W76863  34.063   7.282  11.978
15410W        W76864  30.516  20.240  12.551
15411W        W76865   3.367  40.020   3.698
15412W        W76866   6.853   9.824   2.829
15413W        W76867   9.302   0.294   2.859
15414W        W76868  20.720   7.763  11.401
15415W        W76869  35.526  10.180  13.460
15416W        W76870  24.033   5.353   1.763
15417W        W76871  41.906  17.227  11.120
15418W        W76872  14.218  10.186  11.857
15419W        W76873  38.840  15.605   1.839
15420W        W76874  41.862  16.632  13.856
15421W        W76875   6.426   0.322   3.771
15422W        W76876  34.590  24.148   4.773
15423W        W76877  15.693  22.035  11.890
15424W        W76878  14.255  11.201  11.410
15425W        W76879  42.523  39.448   0.317
15426W        W76880  14.785  21.018   2.198
15427W        W76881   1.310  20.154   3.868
15428W        W76882  14.202   5.339   3.633
15429W        W76883   2.954  20.539   3.846
15430W        W76884  36.009  40.375   3.690
15431W        W76885  33.480  37.408  11.602
15432W        W76886  38.570  21.045  14.777
15433W        W76887   1.956  27.590   1.828
15434W        W76888  11.836  13.305  10.927
15435W        W76889   8.875   5.253   1.838
15436W        W76890  40.444  32.981   4.228
15437W        W76891   8.848   1.880   0.845
15438W        W76892   7.680   0.360  13.308
15439W        W76893   7.810   1.852   1.296
15440W        W76894  17.257  33.568  12.380
15441W        W76895  29.144  18.699  10.460
15442W        W76896  42.920  41.914  12.951
15443W        W76897   2.775  36.359  13.377
15444W        W76898   7.823   1.856  13.312
15445W        W76899  27.601   8.877  14.958
15446W        W76900  43.310  35.858   2.400
15447W        W76901   7.848  27.549  14.504
15448W        W76902  39.493  42.444   2.228
15449W        W76903  30.090  30.449   0.439
15450W        W76904  33.918   9.270   4.203
15451W        W76905  22.675  39.986   4.317
15452W        W76906  10.794   9.702  12.538
15453W        W76907  26.571  34.891   5.145
15454W        W76908  31.438  15.149  13.995
15455W        W76909  29.111  19.634  11.426
15456W        W76910  24.219  42.803  14.508
15457W        W76911  12.842  11.769  10.452
15458W        W76912   3.283  22.647  12.091
15459W        W76913  11.651  11.794  13.828
15460W        W76914  33.015  34.477  14.951
15461W        W76915   3.266  21.757  13.943
15462W        W76916  16.143   7.338  10.968
15463W        W76917  30.069   7.743   2.761
15464W        W76918  40.000  14.642   3.208
15465W        W76919  11.172  14.792  14.322
15466W        W76920  29.147   8.168  12.944
15467W        W76921  26.982  15.265   4.776
15468W        W76922   0.288  44.263   0.875
15469W        W76923   3.387  32.891   2.397
15470W        W76924  17.718  21.168   0.253
15471W        W76925  20.530  26.970  10.413
15472W        W76926  21.252  14.816   1.931
15473W        W76927  20.568  28.971   3.179
15474W        W76928  16.737  30.649  13.949
15475W        W76929  15.746  15.757  14.404
15476W        W76930   0.797   0.792   3.836
15477W        W76931   5.915  10.745  10.562
15478W        W76932   7.414   4.401  10.448
15479W        W76933  15.754  41.034  13.887
15480W        W76934   4.726  44.767  10.050
15481W        W76935  35.459  16.809   1.414
15482W        W76936   1.939  29.474  10.916
15483W        W76937  14.603  41.370   2.360
15484W        W76938   2.312  39.064   2.746
15485W        W76939  15.189  25.046  11.428
15486W        W76940  32.907   6.738  12.898
15487W        W76941  37.535  39.452  12.063
15488W        W76942   3.247  43.961  11.894
15489W        W76943   0.787   6.858   4.232
15490W        W76944  23.166   9.763   3.319
15491W        W76945  40.373   3.335   2.182
15492W        W76946  18.649  13.256   9.519
15493W        W76947  16.274   6.737   0.830
15494W        W76948  17.210  23.641  11.038
15495W        W76949  44.789   6.306   0.326
15496W        W76950  28.557  37.450  10.555
15497W        W76951   1.321  40.324  14.873
15498W        W76952  32.959  27.072  14.405
15499W        W76953   0.267  31.617  14.362
15500W        W76954  17.664  43.486  13.350
15501W        W76955  10.263  15.134  12.880
15502W        W76956  31.051  34.375  11.954
15503W        W76957  12.317  13.703   3.350
15504W        W76958  12.131  26.677   1.405
15505W        W76959  38.050  30.530   1.825
15506W        W76960  41.004   8.701   3.164
15507W        W76961  17.701  38.418  13.872
15508W        W76962  15.676  26.028   0.844
15509W        W76963  16.122  40.894   3.213
15510W        W76964  15.582  33.087  14.956
15511W        W76965  10.663  11.792  14.306
15512W        W76966  13.195  10.808  12.978
15513W        W76967  15.787  43.868  10.085
15514W        W76968  19.565   1.924   3.300
15515W        W76969  13.309  21.643   4.772
15516W        W76970   6.816   5.249   1.266
15517W        W76971  10.739   0.980   3.274
15518W        W76972  21.240  22.184  11.885
15519W        W76973  35.862  25.206   1.787
15520W        W76974  13.261   2.801   0.418
15521W        W76975  25.976  34.465   1.906
15522W        W76976   9.645  12.811   1.317
15523W        W76977  30.555  34.918  14.758
15524W        W76978  22.556  17.693   2.748
15525W        W76979   2.817  11.365   3.752
15526W        W76980  42.432  15.689  13.922
15527W        W76981  30.442  31.594  14.411
15528W        W76982  32.987  24.561  10.444
15529W        W76983  23.999   2.401   2.871
15530W        W76984   7.356   8.278   3.151
15531W        W76985  40.819  31.439  13.811
15532W        W76986   7.835  19.657  13.360
15533W        W76987  22.130  15.211   1.404
15534W        W76988   3.770  35.419   1.389
15535W        W76989  33.401  17.617  12.501
15536W        W76990  22.055  31.607   1.866
15537W        W76991  29.440  22.613  12.458
15538W        W76992  43.992  27.580  12.469
15539W        W76993  13.237   3.853  14.020
15540W        W76994  31.594  29.569  10.596
15541W        W76995   7.875   9.756   3.275
15542W        W76996   7.704  29.138  11.597
15543W        W76997  12.759  26.058  12.440
15544W        W76998  41.379  12.312  10.592
15545W        W76999  36.012  28.485   0.780
15546W        W77000  12.773   5.419  10.425
15547W        W77001  31.015  43.859   1.894
15548W        W77002  42.325  40.901  11.911
15549W        W77003  24.586  36.418   3.748
15550W        W77004  13.615  20.763  14.345
15551W        W77005  27.525  42.472  10.460
15552W        W77006   8.337  10.322   3.281
15553W        W77007  34.569  12.188   3.206
15554W        W77008   1.410   4.809   2.304
15555W        W77009  21.522  11.313  14.292
15556W        W77010  42.995  41.028  13.014
15557W        W77011  35.400   1.282   4.736
15558W        W77012  10.211   5.697   1.889
15559W        W77013  12.818  39.009   0.912
15560W        W77014  26.622   5.259  13.983
15561W        W77015  12.297  33.418  14.918
15562W        W77016  12.857  19.560  11.528
15563W        W77017   8.825  26.979   5.285
15564W        W77018  12.676  26.569   4.135
15565W        W77019  28.987  23.494   0.432
15566W        W77020  37.891  26.580  13.894
15567W        W77021  37.857  32.471  13.335
15568W        W77022  39.994  40.332  11.963
15569W        W77023  36.072  14.629  11.121
15570W        W77024  30.607  41.405   4.819
15571W        W77025  42.842   4.903  11.497
15572W        W77026   2.306  40.456  13.543
15573W        W77027   5.891  29.435  12.920
15574W        W77028  14.695  38.405  13.062
15575W        W77029   4.728  43.831  10.466
15576W        W77030  17.206  38.989   0.850
15577W        W77031   4.399  36.384   4.805
15578W        W77032  11.268  21.200   1.841
15579W        W77033  41.007  22.059   0.785
15580W        W77034  25.628  26.528  11.556
15581W        W77035  34.085  14.097  13.035
15582W        W77036   2.313  37.897  10.642
15583W        W77037  26.962  39.442  12.406
15584W        W77038  31.005  33.571   2.847
15585W        W77039  42.398  39.901  14.872
15586W        W77040  18.662  34.493  12.929
15587W        W77041  38.551  25.703  11.991
15588W        W77042   6.907  19.208   3.295
15589W        W77043   4.311  43.870   3.799
15590W        W77044  39.548  20.060   4.786
15591W        W77045  18.626   6.312   5.202
15592W        W77046  40.994  44.490   3.315
15593W        W77047  27.156  39.379  12.905
15594W        W77048  14.221  21.552  13.858
15595W        W77049  30.929  15.657   9.990
15596W        W77050  29.965  42.401  13.979
15597W        W77051  37.932  13.815   1.895
15598W        W77052  43.914  16.705   4.651
15599W        W77053  17.184  27.451  11.467
15600W        W77054  26.580  41.304   1.845
15601W        W77055  40.472  37.449  13.500
15602W        W77056  35.911  30.435   0.456
15603W        W77057  28.525  29.526  13.502
15604W        W77058  11.852  26.978   4.812
15605W        W77059   2.232  26.091  13.850
15606W        W77060  39.520  29.568  10.107
15607W        W77061   7.406  20.677  11.382
15608W        W77062  18.224  20.759  11.534
15609W        W77063   8.843  31.594   3.356
15610W        W77064   0.764  10.815  11.874
15611W        W77065  42.515   0.813  12.082
15612W        W77066   0.843  16.724   4.276
15613W        W77067  16.740  43.436  14.764
15614W        W77068  37.881  37.879   5.696
15615W        W77069  31.417  16.669  11.934
15616W        W77070   5.351   4.901  14.812
15617W        W77071   3.268   1.423  11.383
15618W        W77072   9.807  38.482   4.132
15619W        W77073  15.310   9.734  12.004
15620W        W77074  43.453  34.105  12.868
15621W        W77075  22.678  24.048  12.962
15622W        W77076  26.065   1.949   0.481
15623W        W77077  39.378  28.022   4.265
15624W        W77078  11.228  33.999  14.407
15625W        W77079  15.625   9.183   4.762
15626W        W77080  39.382  36.539   0.948
15627W        W77081  33.106   3.336  12.342
15628W        W77082  33.552  37.074  10.465
15629W        W77083  18.726  25.134   1.382
15630W        W77084  22.716  35.908  11.999
15631W        W77085  13.303   6.769  14.930
15632W        W77086  33.490  14.756  13.007
15633W        W77087  37.884   4.284  11.893
15634W        W77088   9.668  15.711  10.497
15635W        W77089   8.831  16.250  11.517
15636W        W77090  42.467  35.362   2.377
15637W        W77091  30.481  13.677   1.414
15638W        W77092  33.437   7.878   2.272
15639W        W77093   5.851  17.166  12.397
15640W        W77094  36.404   6.682  14.846
15641W        W77095   8.263   3.344  13.992
15642W        W77096  27.163   1.483  12.057
15643W        W77097  32.136  38.876   1.910
15644W        W77098  11.739  19.563  13.505
15645W        W77099  37.025  41.486   2.888
15646W        W77100  32.079  40.009  13.527
15647W        W77101  24.686  25.107  12.392
15648W        W77102  33.104  12.707  10.118
15649W        W77103  39.439  42.288   4.271
15650W        W77104   5.722  31.048   0.880
15651W        W77105  31.955  11.679   2.291
15652W        W77106   5.885  42.889   1.723
15653W        W77107  12.624  20.260   5.218
15654W        W77108   9.283   6.706  11.447
15655W        W77109  44.957  17.631  12.919
15656W        W77110  13.718  38.519  10.104
15657W        W77111  35.420  41.403  13.858
15658W        W77112  40.413   4.278  11.390
15659W        W77113  18.694   1.303   4.214
15660W        W77114   2.776  12.855   4.192
15661W        W77115  10.641  10.369   2.341
15662W        W77116  25.995  31.108   1.717
15663W        W77117   6.285  18.566  14.927
15664W        W77118  13.150  25.036   0.450
15665W        W77119  18.648  18.281  12.948
15666W        W77120  42.842   1.341  13.378
15667W        W77121  35.880   3.372   3.364
15668W        W77122   7.203  28.000   0.845
15669W        W77123  14.162  18.141  14.994
15670W        W77124  34.497  26.189   4.135
15671W        W77125  10.324  36.414   2.371
15672W        W77126  33.001  39.037   4.694
15673W        W77127  24.147  40.866   3.652
15674W        W77128  40.456   2.833   4.604
15675W        W77129  42.517  22.516  13.047
15676W        W77130  24.059  37.001  13.061
15677W        W77131  30.605  34.015   5.693
15678W        W77132  16.314  40.541   0.470
15679W        W77133   4.264  28.085  13.388
15680W        W77134  41.886  14.140  13.518
15681W        W77135  23.039   6.898  11.504
15682W        W77136  14.739   1.850   0.439
15683W        W77137  30.483   8.655  11.950
15684W        W77138  21.046  28.653  14.513
15685W        W77139   7.222  39.400  13.884
15686W        W77140  20.613  30.482   4.222
15687W        W77141  35.867  34.556   3.226
15688W        W77142  14.639   3.755  13.413
15689W        W77143  44.790  36.534  12.094
15690W        W77144  20.602   9.170  10.448
15691W        W77145  22.564   0.879  10.039
15692W        W77146  22.612  17.267   1.740
15693W        W77147  27.116   4.703  12.059
15694W        W77148   2.456  26.457   0.912
15695W        W77149   1.378  24.608   2.305
15696W        W77150  24.133  10.715  10.996
15697W        W77151  25.484  39.889  13.506
15698W        W77152  30.022   4.346  11.950
15699W        W77153  33.471   0.286   2.229
15700W        W77154  39.822  30.434   1.909
15701W        W77155  32.522  10.831   5.783
15702W        W77156  12.335  30.524   4.344
15703W        W77157  28.160   1.734  12.838
15704W        W77158  33.433  20.260  11.947
15705W        W77159  29.143  42.414  11.473
15706W        W77160  37.068  35.954  13.860
15707W        W77161  40.960  14.297   1.230
15708W        W77162   4.291   5.363   4.626
15709W        W77163   6.725  42.343  14.830
15710W        W77164  39.433  16.109   0.313
15711W        W77165  39.945  13.207  11.943
15712W        W77166  28.942  17.749   0.896
15713W        W77167  34.411  22.639  11.471
15714W        W77168  16.114   2.364  12.912
15715W        W77169  32.108  44.913  11.507
15716W        W77170  13.830  41.297   4.223
15717W        W77171  31.453  32.972  12.832
15718W        W77172  40.892  26.491   3.299
15719W        W77173   8.834  30.930   4.665
15720W        W77174  29.506  43.983   4.788
15721W        W77175  10.793  13.255  13.472
15722W        W77176  24.595  42.910   1.803
15723W        W77177  15.236  32.065  14.392
15724W        W77178  30.655  30.022  11.513
15725W        W77179  28.970  12.757  10.476
15726W        W77180  20.129  16.582   4.182
15727W        W77181  30.058  18.213   2.767
15728W        W77182   2.786  35.106  13.982
15729W        W77183  10.222  35.885  13.459
15730W        W77184  29.069   2.958   9.585
15731W        W77185  23.155  39.328   4.203
15732W        W77186  15.682  21.028   4.163
15733W        W77187  19.148  10.223  12.899
15734W        W77188  20.212   0.291   4.276
15735W        W77189  32.449  15.094  14.514
15736W        W77190  23.545  21.557  12.909
15737W        W77191  16.129   2.730  11.488
15738W        W77192  21.220   8.815   0.821
15739W        W77193  40.356   3.796  13.921
15740W        W77194   3.871  31.556  11.003
15741W        W77195   5.363  12.351   0.307
15742W        W77196  41.320  19.283  11.893
15743W        W77197   6.799  27.466   2.719
15744W        W77198  21.044  31.419  11.025
15745W        W77199  10.770  40.047  12.985
15746W        W77200  25.521  34.880   2.299
15747W        W77201   7.368  18.132  10.579
15748W        W77202  42.296  43.445   0.358
15749W        W77203  31.434  23.661   2.292
15750W        W77204  43.779  22.625  14.511
15751W        W77205  37.853  40.019  11.382
15752W        W77206  22.618   1.242   1.438
15753W        W77207  24.597  33.003   1.812
15754W        W77208   3.400  14.144  12.057
15755W        W77209  24.626  43.485   1.711
15756W        W77210  43.968  29.105   2.745
15757W        W77211  37.844  18.763  14.004
15758W        W77212  26.552  38.951   5.159
15759W        W77213  31.896  33.624  13.423
15760W        W77214   4.753  25.020  13.528
15761W        W77215  36.491  25.964  11.570
15762W        W77216  19.624   6.807   1.216
15763W        W77217  19.259  37.477   4.170
15764W        W77218   2.738   6.217   2.806
15765W        W77219  33.426  41.306  12.468
15766W        W77220   1.434  10.848  11.064
15767W        W77221   9.312  22.624   4.838
15768W        W77222  32.072  39.945  10.001
15769W        W77223  26.093  22.152  14.760
15770W        W77224  29.656  14.329  13.411
15771W        W77225  41.351  11.182   1.297
15772W        W77226  37.424  16.081  10.983
15773W        W77227  12.323  13.786  11.497
15774W        W77228   5.210  43.836  14.841
15775W        W77229  43.900  15.721   0.898
15776W        W77230  27.015  25.213  11.114
15777W        W77231  44.788  36.349   0.399
15778W        W77232  20.755  10.338  13.451
15779W        W77233   2.844  36.845  11.031
15780W        W77234  18.702  38.417   1.844
15781W        W77235  16.597  21.032  13.428
15782W        W77236  11.761  23.102   2.260
15783W        W77237  24.541  35.877   4.150
15784W        W77238  13.202  44.393   5.301
15785W        W77239   0.799  24.709   0.739
15786W        W77240   8.258  32.972   0.752
15787W        W77241  15.172   1.357   2.354
15788W        W77242   1.792  22.070  10.579
15789W        W77243  27.690  34.960  14.366
15790W        W77244  32.515  19.172  11.089
15791W        W77245   9.245   7.711  13.003
15792W        W77246  20.094  27.090   3.659
15793W        W77247  35.054  29.135  14.790
15794W        W77248  29.496  14.116  13.832
15795W        W77249   1.280   6.847  10.510
15796W        W77250  41.995  23.588  13.883
15797W        W77251  16.100  42.789  14.955
15798W        W77252  39.556  33.052   0.414
15799W        W77253  25.120  23.502  13.399
15800W        W77254  20.129  43.469  13.384
15801W        W77255  10.709  34.884   0.889
15802W        W77256  36.999  38.490  12.537
15803W        W77257  17.205  23.129   2.763
15804W        W77258  14.122   6.777   3.635
15805W        W77259  12.827  29.972   2.390
15806W        W77260  13.247  21.201   9.940
15807W        W77261   4.258  24.634  13.485
15808W        W77262  37.368  11.689   4.791
15809W        W77263  39.524   5.782  12.508
15810W        W77264   3.401   6.223  12.069
15811W        W77265  24.027  33.397  11.538
15812W        W77266  23.566  24.002  10.642
15813W        W77267   8.716  22.117   2.827
15814W        W77268  18.119  19.690  13.850
15815W        W77269   2.443  34.037  11.604
15816W        W77270   2.917  37.073   3.248
15817W        W77271   1.897  17.155  11.052
15818W        W77272  36.529   1.777   4.160
15819W        W77273  27.076  41.538  11.441
15820W        W77274  10.671  13.740  12.073
15821W        W77275  20.189  37.443   1.892
15822W        W77276   4.891   7.726  14.296
15823W        W77277   1.912  38.457   2.809
15824W        W77278  42.509  34.929  13.534
15825W        W77279  19.692  30.618   4.597
15826W        W77280   3.849   5.902   1.396
15827W        W77281   3.714  27.157  14.327
15828W        W77282  24.013  38.897  11.557
15829W        W77283  34.017  15.719  11.067
15830W        W77284  43.020  42.511  14.369
15831W        W77285  17.181   8.331  12.566
15832W        W77286  31.127  17.297   4.737
15833W        W77287  31.605  11.149  12.973
15834W        W77288   6.723  27.592   1.905
15835W        W77289  43.791   6.721   2.702
15836W        W77290   6.314  15.228   0.839
15837W        W77291  15.233  44.877   3.713
15838W        W77292  30.439  16.159   2.309
15839W        W77293  18.274  22.523   4.278
15840W        W77294   9.739  42.293  10.615
15841W        W77295  28.150   4.943  14.010
15842W        W77296  12.742  27.581   4.664
15843W        W77297  31.411  23.555  10.509
15844W        W77298  42.899  37.547   4.819
15845W        W77299  33.396  42.413   2.251
15846W        W77300  28.633  14.163   0.900
15847W        W77301   7.806  13.736   4.298
15848W        W77302  44.777  23.538   3.345
15849W        W77303   2.742   8.267   2.796
15850W        W77304  29.624  14.645   4.738
15851W        W77305   0.272  14.791  13.546
15852W        W77306  36.437  10.215   0.858
15853W        W77307  42.011  25.477   0.339
15854W        W77308  23.632  21.121  14.361
15855W        W77309  27.477   7.336   3.727
15856W        W77310   3.459  34.919  11.472
15857W        W77311  13.199  37.424   3.300
15858W        W77312   8.689  12.251  12.489
15859W        W77313  17.758  44.856   2.350
15860W        W77314   2.849  17.245   0.463
15861W        W77315  30.467  38.381  12.069
15862W        W77316  40.033  22.684  13.922
15863W        W77317  11.796  13.149   2.307
15864W        W77318  30.967  25.713  11.508
15865W        W77319  33.455  44.305  14.885
15866W        W77320  12.698  38.039  10.890
15867W        W77321  21.083  34.393   2.255
15868W        W77322  10.719  17.271   0.361
15869W        W77323  27.549  11.282  10.963
15870W        W77324  20.558  12.118  14.447
15871W        W77325  43.473   9.179   4.249
15872W        W77326  20.037  41.405   0.819
15873W        W77327  37.849  33.923   2.303
15874W        W77328  41.502  19.240  11.392
15875W        W77329  27.179  44.938  14.957
15876W        W77330  39.372   5.324   4.695
15877W        W77331  16.780  23.632  12.551
15878W        W77332  29.604   6.334   1.230
15879W        W77333   0.425  21.225  10.093
15880W        W77334   1.263   1.376   2.261
15881W        W77335  30.102   9.785   1.391
15882W        W77336  33.018   5.369  11.570
15883W        W77337   1.892   5.417  12.532
15884W        W77338   5.687  11.670  14.852
15885W        W77339  12.343  27.657   0.896
15886W        W77340  31.417  15.266   3.677
15887W        W77341  43.381  34.571   4.305
15888W        W77342  35.521   2.401   0.927
15889W        W77343  37.995  17.187   2.193
15890W        W77344  18.141  36.851  12.841
15891W        W77345  38.927  15.171  11.551
15892W        W77346  13.605  23.142  11.986
15893W        W77347  40.845  15.685  14.512
15894W        W77348  17.801  27.088  14.393
15895W        W77349   9.309   2.364   0.248
15896W        W77350  31.987   8.340   0.827
15897W        W77351  28.042   0.877   1.934
15898W        W77352   4.429   8.261  13.397
15899W        W77353   6.257  26.159   4.653
15900W        W77354   9.394  12.788   0.926
15901W        W77355  25.524  28.476  11.103
15902W        W77356   3.719  10.180   4.237
15903W        W77357  41.301  40.414   1.318
15904W        W77358  12.140  42.425  14.297
15905W        W77359  37.470  15.812   0.243
15906W        W77360  21.167  33.911  12.011
15907W        W77361  26.458  24.197   9.629
15908W        W77362  11.278  11.217  14.365
15909W        W77363  29.138  24.589  11.880
15910W        W77364   7.766  37.459   4.200
15911W        W77365  41.831  32.895   2.680
15912W        W77366  23.623  13.217  14.329
15913W        W77367  40.449  16.269  13.970
15914W        W77368  24.716  32.542  12.064
15915W        W77369  31.567  44.868   2.240
15916W        W77370   4.830  29.143  12.412
15917W        W77371   0.377  19.560  11.424
15918W        W77372   4.829  36.050   0.265
15919W        W77373  19.197  41.932  12.012
15920W        W77374   9.343  29.970   4.661
15921W        W77375  22.513  25.602  14.982
15922W        W77376   7.689  30.479   1.903
15923W        W77377   0.330  34.604  11.032
15924W        W77378  22.552  40.482   0.878
15925W        W77379   1.450  44.466  13.805
15926W        W77380   8.316  27.627  11.999
15927W        W77381  24.558  22.737   1.870
15928W        W77382  32.005   8.852   1.364
15929W        W77383  26.067  42.846  11.407
15930W        W77384  23.697  13.814  13.386
15931W        W77385   2.397  13.175   3.727
15932W        W77386  30.434  37.355   1.223
15933W        W77387  32.001  31.517  12.920
15934W        W77388   6.390  28.134   0.442
15935W        W77389   1.344  16.711  14.759
15936W        W77390  32.893  26.094  14.303
15937W        W77391  11.213  36.459   2.778
15938W        W77392  15.196  25.003   3.720
15939W        W77393   6.917  31.414   2.676
15940W        W77394   4.793  14.739  14.838
15941W        W77395  28.081  13.157   1.296
15942W        W77396  32.392  21.655  12.856
15943W        W77397  16.674  35.005  13.323
15944W        W77398   3.436  15.758  12.461
15945W        W77399  19.225  38.418   0.316
15946W        W77400  14.644  17.779   4.279
15947W        W77401  44.384  17.103   1.354
15948W        W77402  11.742  12.814   3.376
15949W        W77403  19.721  34.993   3.184
15950W        W77404   6.265  21.058  10.158
15951W        W77405  26.598   5.719   3.828
15952W        W77406  10.342  12.227  10.141
15953W        W77407  37.517  14.116   3.247
15954W        W77408   8.734  12.280  14.513
15955W        W77409   3.870   2.345  12.964
15956W        W77410  16.648  19.224  10.498
15957W        W77411  21.565   0.913  13.329
15958W        W77412  26.586   4.864   2.672
15959W        W77413  30.144  32.897  10.980
15960W        W77414   8.880  24.225  14.460
15961W        W77415  30.483  13.306   2.735
15962W        W77416  32.580  27.639  14.431
15963W        W77417  18.634  15.279  10.494
15964W        W77418  19.214  11.198   1.699
15965W        W77419  23.161  15.254   4.145
15966W        W77420  13.126   5.782  13.487
15967W        W77421  31.589  40.859   1.819
15968W        W77422  12.834  44.902   4.669
15969W        W77423  22.669  33.623   3.714
15970W        W77424   2.397  36.873  13.009
15971W        W77425   7.355  18.227  13.910
15972W        W77426  39.493  26.152  11.972
15973W        W77427  23.577  29.433   0.935
15974W        W77428  36.452  17.688   0.413
15975W        W77429   4.431  43.812  10.496
15976W        W77430  10.695  30.040  12.920
15977W        W77431  28.095   8.312  14.437
15978W        W77432   8.263  26.567   2.761
15979W        W77433  34.981  42.316  11.913
15980W        W77434  43.415  15.764  10.122
15981W        W77435  27.685  11.690  11.443
15982W        W77436  39.869  20.547  11.059
15983W        W77437  33.396   5.784  11.018
15984W        W77438  39.821   9.752   2.721
15985W        W77439  44.487  20.177   1.262
15986W        W77440   6.375   9.357  11.421
15987W        W77441   3.711  37.559   5.259
15988W        W77442  19.626  32.981   3.775
15989W        W77443  13.262  35.099  10.466
15990W        W77444  20.037  35.380   4.352
15991W        W77445  17.300  14.807   0.316
15992W        W77446   7.363   2.327   0.397
15993W        W77447  26.647   2.387  14.367
15994W        W77448  34.105  16.077  13.907
15995W        W77449  32.925   9.870  11.983
15996W        W77450  36.447   4.766   1.447
15997W        W77451   4.928  23.668  14.319
15998W        W77452  34.519  41.356   4.338
15999W        W77453   6.711   9.770   1.382
16000W        W77454  43.289   2.428  11.868
16001W        W77455  22.012  12.613  13.866
16002W        W77456  44.444  20.622  11.900
16003W        W77457  18.210  21.166   4.205
16004W        W77458   3.934  31.014  12.367
16005W        W77459  13.705  14.765   1.336
16006W        W77460  19.183  34.549   0.370
16007W        W77461  23.240  40.823   1.322
16008W        W77462  41.855  34.422   1.911
16009W        W77463  28.934  20.587   0.839
16010W        W77464   2.775  20.569   0.401
16011W        W77465   0.856  11.646   2.740
16012W        W77466   2.777   6.791   2.681
16013W        W77467   0.976   0.793   1.776
16014W        W77468  33.591  42.476  14.291
16015W        W77469  31.538  40.388   0.419
16016W        W77470   1.247  21.553   0.271
16017W        W77471   2.950  12.721  10.903
16018W        W77472  40.446   5.828  11.409
16019W        W77473  24.540  38.064  11.950
16020W        W77474  32.493   7.811   0.340
16021W        W77475  27.940   0.447  14.304
16022W        W77476  40.519   5.259   1.421
16023W        W77477   1.402  16.282   3.811
16024W        W77478  20.113  11.764   1.725
16025W        W77479  30.932  12.203  14.500
16026W        W77480  40.360  33.461   3.683
16027W        W77481  41.839   0.766   0.935
16028W        W77482  36.026  19.596   2.329
16029W        W77483  27.940  20.583  14.021
16030W        W77484  26.569   7.748  11.011
16031W        W77485  13.123  32.477   0.812
16032W        W77486  14.663  26.003  10.894
16033W        W77487  28.534   0.931   5.265
16034W        W77488  35.876   8.254   1.850
16035W        W77489   0.256  37.500   2.257
16036W        W77490  31.070   4.437   0.944
16037W        W77491  17.593   6.189  12.427
16038W        W77492  21.631  40.052   4.277
16039W        W77493   3.722  43.411  10.429
16040W        W77494  26.176  17.777   3.170
16041W        W77495   1.456   7.828  14.451
16042W        W77496  13.650  11.226   2.327
16043W        W77497  36.025  27.555  13.033
16044W        W77498   4.892  34.604  13.003
16045W        W77499  28.058  31.941   3.244
16046W        W77500  36.895  44.005   2.364
16047W        W77501  32.592  34.967  13.953
16048W        W77502  27.042   7.214   3.869
16049W        W77503  22.739   0.466   3.769
16050W        W77504  22.571   4.721  11.010
16051W        W77505  36.862  19.718   2.301
16052W        W77506   9.823  25.081   1.352
16053W        W77507  29.926  14.322   4.166
16054W        W77508   5.869  30.941   0.368
16055W        W77509  30.102   4.821   1.911
16056W        W77510  34.954  38.460  10.472
16057W        W77511  21.261  39.053  11.072
16058W        W77512  27.040  34.415   1.847
16059W        W77513  37.933  30.133  11.077
16060W        W77514   4.920  35.573   3.220
16061W        W77515  30.941   8.209   2.733
16062W        W77516   8.254  33.502  12.578
16063W        W77517  15.095   3.234   1.437
16064W        W77518  36.927  39.839   0.801
16065W        W77519  36.061  18.749   4.177
16066W        W77520   2.312  16.317   0.919
16067W        W77521  37.051  33.045  13.541
16068W        W77522  42.961  27.552  13.365
16069W        W77523  35.507  33.616   4.278
16070W        W77524  39.536   5.422  12.848
16071W        W77525  31.632  42.432   0.856
16072W        W77526  27.188   7.821   1.796
16073W        W77527  29.571  31.997  11.919
16074W        W77528  43.911  35.104  10.409
16075W        W77529  44.860  21.087  10.117
16076W        W77530  40.420   1.853  10.947
16077W        W77531  35.543  32.596  11.116
16078W        W77532  37.992  31.626  11.052
16079W        W77533  22.525  27.053  13.332
16080W        W77534  11.749   4.805  11.513
16081W        W77535  28.109  30.954  14.018
16082W        W77536  26.596  21.742  14.909
16083W        W77537  26.598   9.871  11.108
16084W        W77538  11.813  16.760  11.010
16085W        W77539  14.606  35.411  12.488
16086W        W77540  22.662   0.360  14.952
16087W        W77541  38.006  14.139   1.359
16088W        W77542  44.458  39.453  13.539
16089W        W77543  10.863  27.556  14.901
16090W        W77544   4.224  42.407   0.335
16091W        W77545  15.221  40.336  13.520
16092W        W77546   7.401  14.264  11.472
16093W        W77547  26.208  20.740   2.407
16094W        W77548  32.499  31.457   2.185
16095W        W77549   1.338   5.884  11.953
16096W        W77550  44.449  10.749  10.965
16097W        W77551  17.285  34.077   3.313
16098W        W77552  40.445  34.427  13.801
16099W        W77553  25.639   0.879  10.085
16100W        W77554   8.398   1.298  14.398
16101W        W77555  30.573  29.484   1.229
16102W        W77556  23.595  41.987   4.256
16103W        W77557  26.674  27.598   2.241
16104W        W77558  39.832  43.498  11.551
16105W        W77559  13.821  30.475   4.321
16106W        W77560  43.328  21.721   1.796
16107W        W77561  17.688   7.208   1.853
16108W        W77562  22.180  26.622  12.461
16109W        W77563   9.186  18.786   1.694
16110W        W77564  40.032  43.382   2.704
16111W        W77565  33.909  25.707   1.846
16112W        W77566  32.571  14.803  11.580
16113W        W77567  29.084  27.084  11.395
16114W        W77568   1.925  24.590  14.307
16115W        W77569  33.922  40.331  13.939
16116W        W77570  13.291   0.381  11.431
16117W        W77571   5.292  22.533  10.140
16118W        W77572  14.784  28.512   3.866
16119W        W77573  44.374  32.438  13.957
16120W        W77574  41.381  22.176  14.277
16121W        W77575   8.782  36.896   1.890
16122W        W77576   1.458  43.483   0.409
16123W        W77577  25.642  34.881   4.175
16124W        W77578   3.389   3.411  12.440
16125W        W77579   5.904   5.250  14.356
16126W        W77580  44.471  36.554  14.030
16127W        W77581  36.555  27.989  13.891
16128W        W77582  15.116  40.408   0.762
16129W        W77583   6.744  14.751   1.885
16130W        W77584  26.656  36.012  12.073
16131W        W77585   4.803   7.878  13.884
16132W        W77586  32.571   5.834   4.169
16133W        W77587  21.222  26.002   1.334
16134W        W77588  34.450  10.802  13.464
16135W        W77589  23.237  16.591   4.683
16136W        W77590  19.760  43.297  13.934
16137W        W77591  44.405  26.087   9.970
16138W        W77592  23.136  15.665  14.872
16139W        W77593  24.123  41.006   3.247
16140W        W77594  35.523  39.460   2.786
16141W        W77595  41.037   6.743  14.358
16142W        W77596  43.307  28.958  11.378
16143W        W77597  20.537   8.887   2.296
16144W        W77598  14.783  27.032  12.981
16145W        W77599  21.114  43.404   0.276
16146W        W77600  40.825  34.013   4.627
16147W        W77601  19.190  42.516   3.383
16148W        W77602  42.321  12.653   4.293
16149W        W77603  20.181  10.150   5.779
16150W        W77604  17.257   0.407  10.573
16151W        W77605   4.366   9.246  14.322
16152W        W77606   4.391  29.133  13.973
16153W        W77607  42.440  18.613   4.282
16154W        W77608  39.050  20.153   4.618
16155W        W77609  29.469  32.597  11.480
16156W        W77610  29.596  37.461   2.852
16157W        W77611  25.599  15.618  11.411
16158W        W77612  19.595  27.997  11.563
16159W        W77613   3.415   0.899  11.070
16160W        W77614  44.387  17.646   2.270
16161W        W77615  36.996  24.129  12.504
16162W        W77616   3.712  33.902  13.482
16163W        W77617  29.631   3.821  14.950
16164W        W77618   7.213  15.758  14.435
16165W        W77619  37.995   5.794   2.244
16166W        W77620   9.669  22.206   4.794
16167W        W77621   9.765  36.395   1.708
16168W        W77622   7.815   2.326   4.241
16169W        W77623  33.404  30.575   2.374
16170W        W77624  28.101   4.213   3.848
16171W        W77625   7.324  11.180   0.768
16172W        W77626   4.337  42.498   0.731
16173W        W77627  37.500  36.858   2.744
16174W        W77628  44.319   6.297  13.516
16175W        W77629   3.313   2.250  14.364
16176W        W77630  21.229  28.646  11.118
16177W        W77631  28.451   1.399  11.545
16178W        W77632  40.337  26.599  10.498
16179W        W77633  41.383  13.660   2.893
16180W        W77634  13.704  21.176  14.924
16181W        W77635  24.042  29.470   4.607
16182W        W77636  25.056  20.752   1.284
16183W        W77637  37.847  29.614   4.153
16184W        W77638  11.345   7.743   1.711
16185W        W77639   5.912  18.246  14.419
16186W        W77640   0.815  24.503  14.950
16187W        W77641  32.980  39.497   4.656
16188W        W77642  20.696   3.760  11.416
16189W        W77643  35.393  20.562   3.383
16190W        W77644  34.899  12.176   1.802
16191W        W77645  22.091  10.308   0.775
16192W        W77646  23.146   6.408  14.312
16193W        W77647  10.206  40.392   5.131
16194W        W77648   5.343  36.449  14.480
16195W        W77649  27.581  31.594  10.433
16196W        W77650  11.802  15.770  10.002
16197W        W77651  22.556  43.964   2.223
16198W        W77652  30.457  44.484   0.278
16199W        W77653  24.038   5.711   0.759
16200W        W77654   3.933  41.915   0.411
16201W        W77655  31.574  21.685   4.188
16202W        W77656  31.109  14.300   1.370
16203W        W77657   9.218  30.998   4.764
16204W        W77658  26.518  16.589  14.385
16205W        W77659  38.846  22.658   2.744
16206W        W77660  22.632  10.841   3.201
16207W        W77661  10.267  42.351  11.566
16208W        W77662  23.505  29.084   3.166
16209W        W77663   4.307   0.826  14.309
16210W        W77664  15.746  39.990  13.966
16211W        W77665  35.962  17.619   0.777
16212W        W77666  14.310   3.288  12.941
16213W        W77667   3.923  33.564   2.863
16214W        W77668  44.772  36.574   1.362
16215W        W77669  44.946   4.889   9.993
16216W        W77670  24.009  36.930  12.070
16217W        W77671  16.190  40.332   9.648
16218W        W77672  16.687  12.705  10.527
16219W        W77673  31.914  41.352   4.290
16220W        W77674   9.705   2.727   1.374
16221W        W77675  23.174  10.294   0.783
16222W        W77676   3.875  40.044   4.313
16223W        W77677   5.919  20.534  11.888
16224W        W77678  17.690  42.475  13.477
16225W        W77679   0.933  19.160  10.470
16226W        W77680   6.190  19.571   2.714
16227W        W77681  21.539   5.900   0.922
16228W        W77682  35.511  32.999   4.727
16229W        W77683  18.557  26.066   3.805
16230W        W77684  31.060  21.037  12.524
16231W        W77685  18.769  12.246   1.909
16232W        W77686   7.297  24.573   4.604
16233W        W77687  14.627  21.088  13.515
16234W        W77688  18.771  21.151  11.865
16235W        W77689  33.545  42.325   1.243
16236W        W77690  40.880  42.922   0.374
16237W        W77691   8.864  22.194  10.439
16238W        W77692   3.761  14.266  11.457
16239W        W77693  33.562  33.023  10.988
16240W        W77694  40.983  29.084  12.446
16241W        W77695  11.829  24.138   9.941
16242W        W77696  38.368  29.593   4.266
16243W        W77697  42.364  24.021   4.831
16244W        W77698  25.473  12.798  13.361
16245W        W77699  20.571  17.095   2.393
16246W        W77700  34.027   3.716   4.124
16247W        W77701  13.342  29.575  14.026
16248W        W77702  31.097  14.332  10.942
16249W        W77703  28.076  40.965   0.835
16250W        W77704  43.406  26.152  14.762
16251W        W77705  17.173  31.514  11.599
16252W        W77706   6.343  10.378   5.083
16253W        W77707   2.762  40.909  10.957
16254W        W77708   1.933  42.946   4.230
16255W        W77709   6.248  31.540  11.905
16256W        W77710  30.511  16.100   4.679
16257W        W77711  21.024   6.342  12.924
16258W        W77712   9.777  16.793   4.259
16259W        W77713  16.763  31.553   2.873
16260W        W77714   6.381  29.061   1.817
16261W        W77715  36.549  24.667  14.001
16262W        W77716  26.700   1.377   5.252
16263W        W77717   8.738  15.322   1.344
16264W        W77718  28.603  21.608  12.500
16265W        W77719  15.187   5.778   2.899
16266W        W77720  11.849   6.766   0.395
16267W        W77721  44.490  31.116  12.555
16268W        W77722   8.274   5.256   1.404
16269W        W77723  15.694  33.612   1.748
16270W        W77724  39.943   9.819  13.437
16271W        W77725   7.210  22.647  10.443
16272W        W77726  27.529   8.352  11.126
16273W        W77727  11.296  37.948  10.588
16274W        W77728   6.786   0.894   2.821
16275W        W77729  33.129  31.465  12.353
16276W        W77730   7.810  22.031   2.855
16277W        W77731  23.190   2.741   3.217
16278W        W77732  43.353  14.207   3.700
16279W        W77733  27.077  13.791  12.926
16280W        W77734  44.792  33.618   4.677
16281W        W77735  30.583  15.719   1.785
16282W        W77736  31.041  20.743  13.922
16283W        W77737  34.932  39.025   4.775
16284W        W77738  22.695  33.060   4.198
16285W        W77739  23.231  19.180   2.328
16286W        W77740   1.947  37.521  10.616
16287W        W77741  10.296  16.161  11.538
16288W        W77742  44.355  36.490   2.273
16289W        W77743   6.189  41.432   5.307
16290W        W77744  43.873  17.152   4.236
16291W        W77745   4.770   4.921  13.853
16292W        W77746   1.938  39.459  11.005
16293W        W77747  28.678   1.819  11.992
16294W        W77748  16.174  43.766   2.683
16295W        W77749  14.208  38.523  13.974
16296W        W77750  26.018  15.712  12.511
16297W        W77751   9.854  40.945  10.551
16298W        W77752  22.659   3.316  13.037
16299W        W77753  38.881   5.254  10.437
16300W        W77754  14.335   1.824  10.456
16301W        W77755  16.115  37.989   4.322
16302W        W77756  16.221  28.036   2.889
16303W        W77757   0.357   7.885   4.648
16304W        W77758   1.960  24.133  13.433
16305W        W77759  38.945  22.568  12.989
16306W        W77760  38.379  42.509  12.520
16307W        W77761  39.016  39.978  14.012
16308W        W77762  16.570  19.116  13.409
16309W        W77763   8.211   0.794   0.781
16310W        W77764   2.468  25.531   2.685
16311W        W77765  14.783  41.914   2.744
16312W        W77766   6.378  29.976   3.288
16313W        W77767  34.113  12.292   2.336
16314W        W77768  11.710   5.283  14.434
16315W        W77769  10.149  44.754  14.919
16316W        W77770  13.630  36.998  13.413
16317W        W77771  25.539  16.797   4.634
16318W        W77772  15.684   7.198  12.994
16319W        W77773  14.155  36.891  13.388
16320W        W77774  21.249   4.443   1.449
16321W        W77775   2.801  29.966   0.437
16322W        W77776  43.432  41.302   1.797
16323W        W77777  30.116  33.038  12.075
16324W        W77778  14.249  37.863   0.816
16325W        W77779  10.675  19.654  11.002
16326W        W77780  10.335  39.027   2.413
16327W        W77781  30.114   4.805   4.768
16328W        W77782  32.522  25.602  10.454
16329W        W77783  11.372  18.661   1.406
16330W        W77784  22.690  27.600  13.032
16331W        W77785   6.289   2.248   0.422
16332W        W77786   4.763   7.689   0.949
16333W        W77787   3.922  43.430  12.483
16334W        W77788  33.070   1.255   2.718
16335W        W77789  10.232   5.771  10.126
16336W        W77790  20.701   8.384   1.921
16337W        W77791  27.636  28.110  12.092
16338W        W77792  30.429  23.222   4.140
16339W        W77793   7.669   3.844  12.035
16340W        W77794  14.157  15.263   4.818
16341W        W77795   6.752  13.350   4.136
16342W        W77796   3.416  26.616   3.162
16343W        W77797   9.391  39.318   2.409
16344W        W77798  24.666  34.592   5.578
16345W        W77799  20.254  43.010  11.591
16346W        W77800   5.295  35.415  14.285
16347W        W77801  31.430  17.644   4.307
16348W        W77802  31.070  22.652  11.917
16349W        W77803   5.853   5.428  11.946
16350W        W77804  16.251  30.442  13.922
16351W        W77805  30.502   4.876   5.566
16352W        W77806   3.339  18.551  14.943
16353W        W77807  29.954  42.283  13.363
16354W        W77808  17.654  32.441   0.915
16355W        W77809  15.780  23.548  13.979
16356W        W77810  21.089  14.275   1.333
16357W        W77811  40.915  22.686   3.852
16358W        W77812  37.903   9.354  11.467
16359W        W77813   5.221  34.092   2.806
16360W        W77814  41.321   2.748   1.799
16361W        W77815  38.061  33.514   4.170
16362W        W77816  20.654  13.302   2.809
16363W        W77817  37.943  29.050   1.727
16364W        W77818  19.567  17.595  11.888
16365W        W77819  13.824  29.530   4.690
16366W        W77820  34.450  27.047   4.646
16367W        W77821  28.066  10.204   0.409
16368W        W77822   7.888  38.364   0.352
16369W        W77823   6.888  18.561   3.720
16370W        W77824  24.707   4.380  12.067
16371W        W77825  14.636  20.747   0.366
16372W        W77826  18.196  41.519   3.740
16373W        W77827  35.475  33.438  12.369
16374W        W77828  36.571  33.553  10.608
16375W        W77829  25.517  41.373  14.790
16376W        W77830  40.937   3.831  11.554
16377W        W77831  22.139  42.317   3.172
16378W        W77832  35.908   4.409  14.021
16379W        W77833  39.898  35.929   1.783
16380W        W77834   4.892   5.358  14.004
16381W        W77835  13.108  28.508   4.647
16382W        W77836  17.103   9.865  11.490
16383W        W77837  24.598   7.333   2.275
16384W        W77838  11.689   4.224   4.743
16385W        W77839  38.448  34.024  14.367
16386W        W77840  21.566  44.946  12.916
16387W        W77841  35.097  32.430   2.318
16388W        W77842  29.098  40.878   1.299
16389W        W77843  24.152   1.891   1.918
16390W        W77844   7.774  15.780   1.305
16391W        W77845  26.477  28.018   4.790
16392W        W77846  40.479  14.174   0.938
16393W        W77847   2.352   3.430   1.826
16394W        W77848  16.661  26.116  11.483
16395W        W77849  23.226   9.189   3.360
16396W        W77850  35.440  42.008  10.580
16397W        W77851  17.739   1.821   0.288
16398W        W77852   8.371  11.338  12.016
16399W        W77853  43.790  36.510  13.409
16400W        W77854  12.298  16.722   0.475
16401W        W77855  31.920  44.277  14.408
16402W        W77856  28.496  29.058  10.890
16403W        W77857   7.858  16.729  10.414
16404W        W77858  33.393  41.470   5.174
16405W        W77859   9.238  11.680  11.531
16406W        W77860  21.220  30.539  13.814
16407W        W77861   2.759  31.479  10.439
16408W        W77862  21.151  39.380   1.819
16409W        W77863  33.122  33.427   1.211
16410W        W77864  27.972  30.063   4.702
16411W        W77865   0.986   1.261   2.300
16412W        W77866  10.772  33.066   2.815
16413W        W77867  19.175  34.112  14.479
16414W        W77868  41.012  28.143   0.248
16415W        W77869  11.157  35.915  11.586
16416W        W77870   8.191  28.133   0.937
16417W        W77871  29.581  35.881  14.982
16418W        W77872  31.517  43.876   3.814
16419W        W77873  20.242  36.857   2.328
16420W        W77874  21.739   0.354  10.983
16421W        W77875  37.076   5.924   3.775
16422W        W77876  20.600   4.928  12.578
16423W        W77877  32.442  11.237   1.871
16424W        W77878  24.718  21.059  14.009
16425W        W77879  40.336   4.840   3.867
16426W        W77880  35.021   8.321   2.178
16427W        W77881  19.734  37.441   3.748
16428W        W77882  40.019  39.431  11.483
16429W        W77883  29.577   0.471   0.959
16430W        W77884   4.941   3.333   2.414
16431W        W77885   1.899  37.854   3.384
16432W        W77886  17.775  38.378  12.481
16433W        W77887  43.792  28.159  11.074
16434W        W77888  41.790   4.775  10.976
16435W        W77889  41.443  20.725   4.159
16436W        W77890  17.285  21.155   3.744
16437W        W77891  19.148  27.513  10.978
16438W        W77892  43.978  12.188  10.999
16439W        W77893   7.348  44.797  11.583
16440W        W77894   4.867   7.213  14.338
16441W        W77895   9.352   0.944  13.930
16442W        W77896  20.227   9.279   0.848
16443W        W77897  27.983  14.678   4.174
16444W        W77898   2.431  26.512  12.909
16445W        W77899  18.599   4.413  14.862
16446W        W77900   4.259  26.122   2.241
16447W        W77901  26.624  22.111   2.814
16448W        W77902  23.021  10.801  10.071
16449W        W77903  29.625   9.725   0.794
16450W        W77904   7.364  18.747  11.933
16451W        W77905  43.433   3.730  11.096
16452W        W77906   5.735  15.105   2.779
16453W        W77907  42.439  27.982  12.915
16454W        W77908  40.520  15.110   4.154
16455W        W77909   0.446  29.652  13.856
16456W        W77910   2.349  14.707   3.746
16457W        W77911   6.763  28.625  13.963
16458W        W77912  44.459  35.109  14.817
16459W        W77913   4.847  32.481  11.600
16460W        W77914  36.370  16.271  14.838
16461W        W77915  19.700  27.574  13.489
16462W        W77916  22.211  23.516   0.894
16463W        W77917  40.951  30.461   4.199
16464W        W77918   1.472  32.890   0.387
16465W        W77919  14.635  25.624  13.312
16466W        W77920   2.855  32.504  14.825
16467W        W77921  15.717  16.161  10.528
16468W        W77922   1.837   5.692  13.810
16469W        W77923  34.486  24.163   3.746
16470W        W77924  32.404  12.169  11.583
16471W        W77925   0.426  14.138  13.389
16472W        W77926  36.351   5.239   2.757
16473W        W77927  38.018  24.051   2.718
16474W        W77928  41.449  34.500   4.327
16475W        W77929  25.700  39.532  10.510
16476W        W77930   5.425  23.664  14.325
16477W        W77931  21.188  34.558  14.811
16478W        W77932  35.391  12.688   3.215
16479W        W77933  24.629  43.877  14.973
16480W        W77934  43.836   6.427  13.841
16481W        W77935  39.451  19.591   3.646
16482W        W77936  32.080  15.321  10.580
16483W        W77937  20.661  18.273   3.201
16484W        W77938  33.917  37.905   2.781
16485W        W77939   4.240   2.758   0.279
16486W        W77940   9.387  35.889  14.429
16487W        W77941   9.651  34.019   3.753
16488W        W77942  29.039  42.334   4.323
16489W        W77943  38.552  18.136   4.174
16490W        W77944  18.125  19.561   2.200
16491W        W77945  20.595   6.857  13.848
16492W        W77946  28.475  26.703   4.753
16493W        W77947  39.506  26.690   2.215
16494W        W77948   8.244  37.032   0.332
16495W        W77949  35.082  23.710   2.760
16496W        W77950   3.892  15.084  12.347
16497W        W77951  28.984  33.098  14.403
16498W        W77952  20.061  11.271  11.377
16499W        W77953  43.510  21.203   2.204
16500W        W77954  35.010  16.784   3.689
16501W        W77955  34.934  20.163  11.023
16502W        W77956  10.198  28.541   4.711
16503W        W77957  37.831  38.379   2.745
16504W        W77958  14.175  19.617  12.927
16505W        W77959   5.213  37.891   0.468
16506W        W77960  21.734  33.019  13.855
16507W        W77961  21.238  24.606   0.422
16508W        W77962  28.643   0.392  10.037
16509W        W77963  10.700  12.246  11.530
16510W        W77964  43.821  38.355  13.024
16511W        W77965   9.663  12.798   3.856
16512W        W77966  39.024  18.701   1.747
16513W        W77967   4.725  24.630  13.325
16514W        W77968  27.088  20.665  11.120
16515W        W77969  22.621   9.369  11.566
16516W        W77970  28.497  30.567  10.107
16517W        W77971  27.683  32.888  14.367
16518W        W77972  17.611  10.779   1.846
16519W        W77973  25.664  34.101   1.376
16520W        W77974  21.045  11.855  13.855
16521W        W77975   8.788   3.944  11.506
16522W        W77976  36.393  43.367   4.679
16523W        W77977  44.911  25.648  14.005
16524W        W77978  39.336  18.102   2.350
16525W        W77979  36.547   8.777   3.787
16526W        W77980  18.269  10.255   4.689
16527W        W77981  13.305  40.971   5.099
16528W        W77982   0.855  16.294  14.307
16529W        W77983  16.154   2.841   1.211
16530W        W77984  25.078  41.373  14.761
16531W        W77985  40.037   4.275   3.352
16532W        W77986  17.793  28.034  11.942
16533W        W77987  19.126   1.465   2.245
16534W        W77988  17.068  41.012   0.828
16535W        W77989  28.664   1.738  12.504
16536W        W77990   3.799  29.541  14.913
16537W        W77991  30.413  34.613   5.228
16538W        W77992  43.915  28.033   2.281
16539W        W77993  38.977  40.303   3.380
16540W        W77994  14.825  30.961   4.124
16541W        W77995   3.359   7.716   0.799
16542W        W77996   0.887  14.668   0.330
16543W        W77997  16.616  27.686  10.638
16544W        W77998  31.552  13.314  11.379
16545W        W77999  36.043  20.148   4.747
16546W        W78000  23.663   5.346   4.268
16547W        W78001  36.016  28.108  10.611
16548W        W78002  16.632  24.636   2.732
16549W        W78003   6.330   8.831   1.818
16550W        W78004   7.760  29.963   2.359
16551W        W78005   4.255  44.917  10.532
16552W        W78006  16.127  18.162  13.482
16553W        W78007  29.488  15.809  10.108
16554W        W78008  11.184  37.840   0.871
16555W        W78009  27.556   6.267  10.127
16556W        W78010  35.941  31.511  11.879
16557W        W78011  13.126  41.843   4.123
16558W        W78012   2.458  42.851   3.257
16559W        W78013   3.441  37.425   2.858
16560W        W78014   2.366  22.694  14.957
16561W        W78015  12.128  20.035  11.115
16562W        W78016  16.633  22.556  12.546
16563W        W78017   8.852  43.395   0.450
16564W        W78018  25.602  34.539   4.148
16565W        W78019  33.942  21.752   0.335
16566W        W78020  42.464  10.263  14.456
16567W        W78021  15.786  30.000   1.234
16568W        W78022  25.068   8.207   2.227
16569W        W78023   5.346  14.656   0.321
16570W        W78024  33.448  24.992   3.263
16571W        W78025  41.884  29.987  11.067
16572W        W78026  30.419  19.071   1.784
16573W        W78027  23.551  39.032  11.078
16574W        W78028  25.030  26.996  12.984
16575W        W78029  22.637  16.285   4.209
16576W        W78030   8.197  10.357  12.027
16577W        W78031  37.581  13.337   3.329
16578W        W78032  41.027  28.523  14.491
16579W        W78033  31.503  36.451  14.381
16580W        W78034  15.122  33.394   2.866
16581W        W78035   4.862  38.923  10.105
16582W        W78036   3.761  12.825  14.943
16583W        W78037  23.056  30.629   3.287
16584W        W78038  35.983  38.414  13.893
16585W        W78039  25.132  39.818   4.288
16586W        W78040   5.905  20.094  10.920
16587W        W78041  25.540  31.619  14.392
16588W        W78042   3.805  22.538   1.907
16589W        W78043   8.705  42.803   4.318
16590W        W78044  37.910  16.106  14.774
16591W        W78045  44.261  31.554   4.626
16592W        W78046  38.500  17.587  11.126
16593W        W78047  21.655  12.138  12.470
16594W        W78048   8.330  38.011   1.892
16595W        W78049  21.589  41.413   1.312
16596W        W78050  14.691  22.642   3.662
16597W        W78051   8.697   2.726  11.870
16598W        W78052  22.249  23.498  13.327
16599W        W78053  17.146  33.552   2.863
16600W        W78054   0.266   3.449   0.261
16601W        W78055   4.204   5.702   2.193
16602W        W78056   1.733  19.045  13.903
16603W        W78057  14.326  11.234   3.268
16604W        W78058   9.311   7.378  14.836
16605W        W78059   9.203  28.595   2.800
16606W        W78060  22.551  26.021  14.442
16607W        W78061  36.397  32.432   1.815
16608W        W78062   2.435  44.802  12.965
16609W        W78063  18.229  17.237   1.929
16610W        W78064  28.105  41.810  13.968
16611W        W78065  10.164   2.824   2.213
16612W        W78066  13.343  11.704  11.007
16613W        W78067  44.917   7.188  10.477
16614W        W78068  28.988  43.947  12.539
16615W        W78069   3.789  34.980  10.504
16616W        W78070   4.790   4.871   4.636
16617W        W78071  28.952  21.209  13.041
16618W        W78072  13.302   6.220  14.922
16619W        W78073  34.424  42.447  13.824
16620W        W78074  42.911  19.106   3.375
16621W        W78075  17.636  29.656  14.280
16622W        W78076  38.898   8.874  10.092
16623W        W78077  31.145  24.561   2.707
16624W        W78078  24.108  13.332   2.186
16625W        W78079  16.226  30.923  14.329
16626W        W78080   2.901   9.264  13.802
16627W        W78081  43.327  34.085   0.462
16628W        W78082  43.773   2.851   1.721
16629W        W78083  23.209   2.238   2.278
16630W        W78084  26.497   1.317  12.378
16631W        W78085  11.857  42.792  14.945
16632W        W78086  24.194   6.421  10.644
16633W        W78087  38.896  31.028  13.055
16634W        W78088  15.254  39.396   4.320
16635W        W78089  44.960  11.621   2.264
16636W        W78090  13.840  16.663  14.366
16637W        W78091  11.627  13.653   3.285
16638W        W78092   9.725  43.271  11.499
16639W        W78093  33.946   0.290   2.184
16640W        W78094  30.634  34.015  13.948
16641W        W78095  42.873  37.864  14.386
16642W        W78096  17.640  41.314   4.197
16643W        W78097  16.758  30.413   1.220
16644W        W78098  27.955  38.875   2.298
16645W        W78099  43.309  16.122   0.397
16646W        W78100  28.500  37.897   2.843
16647W        W78101  44.900  23.065   2.748
16648W        W78102  17.768  21.200   1.227
16649W        W78103  18.716   6.680  10.517
16650W        W78104  20.716  40.021  10.422
16651W        W78105  36.362  21.247   0.425
16652W        W78106  18.090  40.032  14.826
16653W        W78107  31.503  31.635   1.402
16654W        W78108   6.242  32.909  12.888
16655W        W78109   4.228  15.713  12.513
16656W        W78110  18.093  25.556  13.521
16657W        W78111  26.110  24.582  13.834
16658W        W78112  43.427  24.193  10.888
16659W        W78113  10.747  11.717   1.921
16660W        W78114  31.589  14.304  12.854
16661W        W78115  19.717  44.764  10.551
16662W        W78116   5.318  15.170  11.978
16663W        W78117  13.636  11.852  11.514
16664W        W78118  24.179  12.327  10.629
16665W        W78119  20.666  12.613   0.308
16666W        W78120  21.688  32.009  12.042
16667W        W78121  19.242  39.963  12.475
16668W        W78122  15.684  30.930   1.747
16669W        W78123  26.079  18.763  10.581
16670W        W78124  27.487   8.881   4.220
16671W        W78125   9.191   3.796   4.738
16672W        W78126  27.636  38.362   1.435
16673W        W78127  27.940   7.405  12.358
16674W        W78128  18.105  43.458  14.320
16675W        W78129  42.792  44.866  10.598
16676W        W78130  44.366  14.143   5.252
16677W        W78131   5.216  41.902   3.233
16678W        W78132  41.918  11.302  14.882
16679W        W78133   5.809  31.579  12.835
16680W        W78134  24.550  20.525   0.427
16681W        W78135   1.838  29.004   1.752
16682W        W78136  26.193  43.384   1.267
16683W        W78137  37.350  38.063  10.442
16684W        W78138  44.768   6.682  14.391
16685W        W78139  16.694  35.852  14.887
16686W        W78140  35.872  16.635   2.894
16687W        W78141  13.809  25.124  11.440
16688W        W78142  14.706  13.178  12.453
16689W        W78143  12.320   8.864  12.936
16690W        W78144  33.598  30.131  10.961
16691W        W78145  31.145  32.457   1.346
16692W        W78146  14.610  38.959   9.637
16693W        W78147  19.109   3.814  11.400
16694W        W78148  33.025  13.793   3.815
16695W        W78149  44.962  10.362  14.402
16696W        W78150  32.952  43.969   4.309
16697W        W78151  20.181   3.754   0.906
16698W        W78152  25.508  30.437   1.383
16699W        W78153   0.434   9.675   0.432
16700W        W78154   6.729   9.224  14.308
16701W        W78155  24.492  36.583  13.001
16702W        W78156  39.833   8.661   4.635
16703W        W78157  10.381  27.483   1.846
16704W        W78158  25.154  36.098  12.526
16705W        W78159  44.860   3.933   3.791
16706W        W78160   6.311  28.509  12.052
16707W        W78161  44.449  43.388   5.266
16708W        W78162  10.179   4.703   0.369
16709W        W78163   0.867  17.707   2.875
16710W        W78164  23.001  36.077  11.121
16711W        W78165  15.737  11.309  10.406
16712W        W78166  19.088   0.455  11.377
16713W        W78167  41.409  24.160  12.869
16714W        W78168  14.739  44.438  10.519
16715W        W78169  31.603  36.882  13.972
16716W        W78170   1.794  16.757  14.762
16717W        W78171  11.735  31.139  13.440
16718W        W78172  44.497   4.256  12.963
16719W        W78173  26.071  24.501  10.939
16720W        W78174  36.073  15.817  10.532
16721W        W78175  16.716  30.421  13.533
16722W        W78176  39.508  12.676   1.429
16723W        W78177  13.152  16.256  10.492
16724W        W78178   2.795  16.078   4.618
16725W        W78179   1.732  30.970  14.451
16726W        W78180   7.704   1.958  13.833
16727W        W78181  25.149  22.722  14.911
16728W        W78182  38.327  34.867   1.223
16729W        W78183  44.371  17.210  13.835
16730W        W78184   5.380  19.736   0.806
16731W        W78185  16.777   5.268  11.885
16732W        W78186  36.367  28.581  10.452
16733W        W78187  35.435  36.554   3.290
16734W        W78188  38.005  37.959  13.942
16735W        W78189  40.975   7.805  11.400
16736W        W78190   6.215  15.743  10.534
16737W        W78191  15.218  15.676  12.043
16738W        W78192  40.402  20.271   1.897
16739W        W78193  18.773   6.728   2.727
16740W        W78194  26.163  37.394   2.318
16741W        W78195  36.894  14.765  11.609
16742W        W78196  16.082  36.009  12.520
16743W        W78197  34.016  29.426  14.777
16744W        W78198  17.664  17.748  11.579
16745W        W78199  20.031  37.017  10.960
16746W        W78200  44.892  19.729   0.958
16747W        W78201   1.963  37.355  12.551
16748W        W78202  37.878  18.154   1.910
16749W        W78203   8.702  34.112  14.988
16750W        W78204  16.305  33.021  11.495
16751W        W78205   5.261  13.209  13.371
16752W        W78206  32.939  27.144   4.608
16753W        W78207  35.962  23.580   4.340
16754W        W78208  42.974   6.384   3.664
16755W        W78209  29.430  37.393   4.332
16756W        W78210  18.602  14.636   0.265
16757W        W78211  43.403  27.497  14.314
16758W        W78212  18.126   6.309  10.556
16759W        W78213  15.131  18.171   4.164
16760W        W78214  41.935  41.837   1.234
16761W        W78215  21.224  40.307   4.227
16762W        W78216   4.393   5.339   2.314
16763W        W78217  35.440  15.278   4.227
16764W        W78218  24.226  10.291  11.014
16765W        W78219  24.127  20.045  10.471
16766W        W78220  11.241   5.293  13.899
16767W        W78221  10.161  38.989   4.624
16768W        W78222  25.681  33.009  11.968
16769W        W78223  21.691   4.423   4.238
16770W        W78224   0.474  20.697   3.342
16771W        W78225   6.818   3.399  12.087
16772W        W78226   4.876   6.325  10.916
16773W        W78227  12.312  44.767  10.505
16774W        W78228   4.713  26.083  13.531
16775W        W78229  23.540   1.927   0.813
16776W        W78230  39.537   3.733  13.417
16777W        W78231  22.735   9.714  13.959
16778W        W78232   1.752  24.018   3.302
16779W        W78233  19.251  28.105   3.652
16780W        W78234  37.537   4.286   1.390
16781W        W78235  33.620  33.541   3.692
16782W        W78236  35.102  44.473   4.290
16783W        W78237  26.612  34.989  12.973
16784W        W78238  43.378  20.625  14.279
16785W        W78239  38.031   1.339  13.379
16786W        W78240  23.010  42.976  14.415
16787W        W78241  13.216  42.285  11.564
16788W        W78242  30.993  27.020   0.940
16789W        W78243  32.498  35.576  11.517
16790W        W78244  44.264   3.229   1.243
16791W        W78245  25.010  42.969   2.722
16792W        W78246   0.376  27.166  12.549
16793W        W78247  40.849  16.768   0.346
16794W        W78248  40.029  21.750   2.359
16795W        W78249   6.282   5.307   0.814
16796W        W78250   8.666  36.507  13.310
16797W        W78251  41.335  23.532   1.842
16798W        W78252  35.048  29.161   0.245
16799W        W78253  21.726  15.590  10.623
16800W        W78254  39.970  15.286   1.710
16801W        W78255  41.040  10.303  10.435
16802W        W78256  15.172   5.929   1.313
16803W        W78257   3.455  25.497  10.473
16804W        W78258  16.742  36.461   0.271
16805W        W78259   6.800   6.308   4.224
16806W        W78260   7.283  42.918  12.435
16807W        W78261  42.321  27.573   2.723
16808W        W78262   2.962  10.374   4.192
16809W        W78263  32.043  37.973  12.397
16810W        W78264  26.581  15.282  11.519
16811W        W78265  18.781  18.626   4.240
16812W        W78266  22.230  22.556  14.940
16813W        W78267  18.209  24.207  12.923
16814W        W78268   0.880  34.920  12.018
16815W        W78269  39.435  32.036   3.701
16816W        W78270  42.302  25.692   0.318
16817W        W78271  21.669  36.935  13.934
16818W        W78272  35.093  34.613  11.919
16819W        W78273  44.470   9.681  14.480
16820W        W78274   0.351  25.022  10.534
16821W        W78275  29.482  31.136   4.306
16822W        W78276   5.925  19.116  13.856
16823W        W78277  40.824   3.357   2.775
16824W        W78278  15.668  37.558  11.015
16825W        W78279  15.166  22.101  14.886
16826W        W78280  15.231   2.892   2.377
16827W        W78281   9.377  17.622  12.845
16828W        W78282   7.204  30.656  14.372
16829W        W78283  17.584  33.526   0.745
16830W        W78284   7.248  41.342  13.015
16831W        W78285  29.568  12.662   0.765
16832W        W78286   9.156  12.768   2.775
16833W        W78287  41.328  19.207  13.472
16834W        W78288   7.320  24.155   1.243
16835W        W78289  33.914  39.045   3.367
16836W        W78290  11.728   6.360  13.381
16837W        W78291  21.185  19.260  10.998
16838W        W78292   9.255  29.656   1.387
16839W        W78293  21.127  10.364  14.474
16840W        W78294   3.911  29.487  12.083
16841W        W78295   8.669  36.457   4.674
16842W        W78296   8.351  34.983   1.401
16843W        W78297  25.066  33.944   2.689
16844W        W78298  13.822  33.458  11.895
16845W        W78299   3.783  20.635   2.844
16846W        W78300  26.190  44.762  11.955
16847W        W78301  23.683  17.182  11.023
16848W        W78302  41.850  18.071   5.309
16849W        W78303  21.145  15.641  14.023
16850W        W78304  18.173  26.037  12.417
16851W        W78305  30.584  29.927   3.660
16852W        W78306   2.932   4.341   2.191
16853W        W78307  21.163  12.166  14.472
16854W        W78308  38.335  32.444  12.052
16855W        W78309  39.842  20.257   2.187
16856W        W78310   3.886   5.734   3.777
16857W        W78311  10.177  14.659  13.457
16858W        W78312  44.915  19.672   5.085
16859W        W78313  15.628  19.155  11.930
16860W        W78314  11.267  23.603  12.516
16861W        W78315  39.319  37.868  10.556
16862W        W78316  28.581  24.594   2.184
16863W        W78317  20.079   5.907  13.328
16864W        W78318  42.362  12.753   0.898
16865W        W78319  22.704  18.684   0.315
16866W        W78320   1.241  12.148   3.302
16867W        W78321  26.630  24.725  12.838
16868W        W78322  13.116  34.493   2.731
16869W        W78323  32.472   7.807   1.222
16870W        W78324   4.778   4.216   9.948
16871W        W78325  26.101  15.806   1.228
16872W        W78326  22.591   6.339   1.803
16873W        W78327  24.602  22.539  13.485
16874W        W78328  27.122   2.819  12.574
16875W        W78329  10.257  37.534  12.009
16876W        W78330  17.586  32.129  13.356
16877W        W78331  28.976  31.071  10.974
16878W        W78332  13.322  11.842   0.803
16879W        W78333  29.625  22.633  12.985
16880W        W78334  31.011  35.960   4.779
16881W        W78335  36.886  26.617  12.354
16882W        W78336  10.153   3.241   2.802
16883W        W78337  14.212  42.422   3.298
16884W        W78338  42.021  39.923  12.384
16885W        W78339  24.149  11.264   1.354
16886W        W78340   3.746  37.409   0.401
16887W        W78341  32.091  34.578   3.347
16888W        W78342  11.340  29.135  14.919
16889W        W78343   6.733  21.722   3.779
16890W        W78344   3.331   8.774  13.513
16891W        W78345  39.344  41.024  13.409
16892W        W78346  41.026  31.915   2.328
16893W        W78347   1.419  40.502  13.960
16894W        W78348  37.081  16.157   4.681
16895W        W78349  20.533  39.971   3.724
16896W        W78350  31.481   4.282  13.931
16897W        W78351  14.684  17.707   0.864
16898W        W78352   4.842  43.318   4.835
16899W        W78353  23.661  14.181  13.999
16900W        W78354   9.371  38.558   4.611
16901W        W78355   6.695  23.543   0.430
16902W        W78356   1.428  43.292  14.022
16903W        W78357   9.195  27.980  14.425
16904W        W78358  25.022  12.715   3.370
16905W        W78359   0.458  44.926   3.263
16906W        W78360  21.756  26.697  14.934
16907W        W78361  40.982  44.274  14.995
16908W        W78362   4.422  38.976  11.427
16909W        W78363  26.457  42.334  14.018
16910W        W78364  38.825  36.069  13.316
16911W        W78365  34.100   9.873   3.842
16912W        W78366  34.378  20.167   1.297
16913W        W78367  25.575   2.955  13.457
16914W        W78368  38.894  42.891  11.012
16915W        W78369   1.735  31.139   1.370
16916W        W78370  11.663  44.981   2.253
16917W        W78371  32.910   9.239   4.656
16918W        W78372   0.753  22.093  10.580
16919W        W78373   1.449   3.359  10.426
16920W        W78374  12.793  21.228  12.060
16921W        W78375  28.511  23.677   1.918
16922W        W78376  20.212  10.639   0.808
16923W        W78377   3.239  33.443   5.281
16924W        W78378  21.687   8.781   1.303
16925W        W78379  32.954   9.823  13.026
16926W        W78380   8.175   6.745   0.884
16927W        W78381  21.618   2.852  10.951
16928W        W78382  33.067  30.982   0.896
16929W        W78383   9.850  32.453  14.501
16930W        W78384  21.078  43.478  11.855
16931W        W78385  13.604  41.971   2.841
16932W        W78386  41.524  21.186  13.988
16933W        W78387  32.007  17.606  12.366
16934W        W78388   3.303  14.180   3.370
16935W        W78389  33.547   3.762  12.967
16936W        W78390  44.459  35.012   3.274
16937W        W78391  33.918  14.339  10.983
16938W        W78392  34.398  33.975  14.327
16939W        W78393   3.280  37.414   1.773
16940W        W78394  26.002   1.287   1.880
16941W        W78395  33.449   6.758   0.361
16942W        W78396   7.690  20.760   2.407
16943W        W78397  29.472  42.509  14.973
16944W        W78398  26.482   1.301   2.732
16945W        W78399  21.580  32.088  14.377
16946W        W78400  14.261   8.712   0.277
16947W        W78401  22.517  13.332  13.808
16948W        W78402  38.951  39.348   0.955
16949W        W78403  33.498  10.705  13.406
16950W        W78404  44.880  43.370   3.209
16951W        W78405  26.688  20.117   1.933
16952W        W78406  17.189   4.309   4.285
16953W        W78407   3.239  44.268   0.324
16954W        W78408  43.853  21.578  10.508
16955W        W78409   9.304  18.158   0.756
16956W        W78410  11.800  16.597  10.043
16957W        W78411  39.387  11.348  12.536
16958W        W78412  34.867  20.050   0.818
16959W        W78413   8.357  15.734  13.318
16960W        W78414  35.024  39.378  10.406
16961W        W78415  21.180   7.417  12.927
16962W        W78416  27.093  40.859  11.414
16963W        W78417  17.787  17.653  13.044
16964W        W78418  31.402  26.123   9.667
16965W        W78419   1.928  14.619   4.131
16966W        W78420  25.696  13.325   3.149
16967W        W78421  43.460  33.889  14.920
16968W        W78422  33.527  20.275   4.836
16969W        W78423  30.615  18.215  11.889
16970W        W78424   6.337  36.916   0.770
16971W        W78425   3.218  43.772  13.045
16972W        W78426  24.033   3.729   3.702
16973W        W78427  31.636  15.138  11.602
16974W        W78428  30.518  13.123  10.529
16975W        W78429  43.489   2.808   1.795
16976W        W78430  44.786   4.383  10.573
16977W        W78431   2.229  37.508  11.564
16978W        W78432  14.140  34.459   2.266
16979W        W78433  36.348   1.423  14.848
16980W        W78434  21.719  35.453   1.274
16981W        W78435  28.499  10.383   4.723
16982W        W78436  41.961  33.018   0.831
16983W        W78437   2.776  16.729  13.959
16984W        W78438   3.377  19.082   3.371
16985W        W78439   8.290   9.158   3.189
16986W        W78440   3.760   6.339  12.506
16987W        W78441   2.358   4.438   0.245
16988W        W78442  14.706  18.122   4.621
16989W        W78443  32.436  37.360   3.818
16990W        W78444  44.499  31.500  11.575
16991W        W78445  14.783  25.185   2.266
16992W        W78446  16.313  36.000  14.309
16993W        W78447  35.429  20.230  14.826
16994W        W78448  27.986  19.209  12.047
16995W        W78449  28.007  40.852  13.957
16996W        W78450  14.774  38.983   5.221
16997W        W78451  37.910  16.277  11.086
16998W        W78452  11.279   8.355  14.851
16999W        W78453  43.807  13.344   0.247
17000W        W78454  43.776  17.262  13.998
17001W        W78455  26.136  38.839   0.952
17002W        W78456   5.805  17.634   0.363
17003W        W78457  15.725   8.330  10.471
17004W        W78458  16.580  19.653   0.820
17005W        W78459  25.109  42.506  13.324
17006W        W78460   9.687   6.806  13.877
17007W        W78461  31.528  39.061  13.957
17008W        W78462  36.870  30.525   3.365
17009W        W78463   0.408  16.648  13.311
17010W        W78464  40.534  22.741   5.086
17011W        W78465  41.030  37.880  12.431
17012W        W78466  17.673  20.677  14.813
17013W        W78467  24.514  25.503  12.018
17014W        W78468  31.525   8.802   9.557
17015W        W78469  16.616  43.856  11.126
17016W        W78470   6.204  13.623   4.311
17017W        W78471  42.809  13.188  13.503
17018W        W78472  18.273  12.827   2.355
17019W        W78473   0.437   6.849   4.673
17020W        W78474   3.415   0.986  13.794
17021W        W78475   4.273   2.873  11.988
17022W        W78476  40.468  30.087  13.923
17023W        W78477  11.853   2.302   1.787
17024W        W78478  25.471   2.293   4.716
17025W        W78479  42.454   7.864  10.561
17026W        W78480   1.479   0.918   4.717
17027W        W78481   4.223   2.452   1.409
17028W        W78482  35.583  38.385  12.488
17029W        W78483  27.174  35.852   1.828
17030W        W78484  29.666   4.882  13.997
17031W        W78485  30.509   8.850   2.710
17032W        W78486  30.096   0.323   4.608
17033W        W78487  41.795  25.565  13.410
17034W        W78488   9.183  38.014   0.267
17035W        W78489  42.884  38.047   4.611
17036W        W78490  30.998  25.507  12.833
17037W        W78491  27.449  11.280   4.350
17038W        W78492  30.658  33.942   1.291
17039W        W78493  30.002   6.892  13.833
17040W        W78494  20.581  11.752   1.318
17041W        W78495  12.138  20.032   2.269
17042W        W78496  15.805  27.169   0.379
17043W        W78497  24.636  15.230   1.402
17044W        W78498  26.494   1.472   0.792
17045W        W78499   0.948  23.527   3.243
17046W        W78500   5.725  14.595  10.988
17047W        W78501  28.587  13.324  10.515
17048W        W78502  42.359  44.933  12.577
17049W        W78503  43.984  28.114   0.914
17050W        W78504  32.886   8.737  11.569
17051W        W78505   4.211   0.796   2.376
17052W        W78506  26.013  41.879  10.441
17053W        W78507  29.430  13.128  13.985
17054W        W78508   0.248  41.441  11.485
17055W        W78509  35.085   1.955  12.428
17056W        W78510   3.800  16.618   4.660
17057W        W78511   4.292   5.259   4.131
17058W        W78512  41.308  38.445  14.800
17059W        W78513  26.538  19.222  13.019
17060W        W78514  13.129  16.713   0.752
17061W        W78515  35.933   3.722   3.337
17062W        W78516  37.452  20.731   1.713
17063W        W78517  44.980  23.708  12.060
17064W        W78518  20.132  16.176   3.658
17065W        W78519   9.369  16.576  12.002
17066W        W78520  14.315  32.455   2.400
17067W        W78521  30.001  44.813  12.970
17068W        W78522  42.785  38.328   1.386
17069W        W78523   7.833  20.197  11.498
17070W        W78524  43.307  20.589   3.666
17071W        W78525  28.559  39.349   2.763
17072W        W78526   7.726  21.598   2.679
17073W        W78527   2.809  22.561   2.746
17074W        W78528  20.601  12.300  14.780
17075W        W78529  20.259  17.800   0.857
17076W        W78530  39.889  20.729   2.864
17077W        W78531   5.263  25.184   4.723
17078W        W78532  36.916  31.530   0.935
17079W        W78533  26.642   2.313   5.097
17080W        W78534  39.335   6.764   4.266
17081W        W78535   8.852  12.637  12.413
17082W        W78536  18.582  20.565  12.422
17083W        W78537  25.969   7.828  14.881
17084W        W78538  35.925  37.083  12.945
17085W        W78539  13.813  13.628   4.267
17086W        W78540  13.831  33.019  13.319
17087W        W78541   3.280   7.396  12.418
17088W        W78542  14.653  38.894  12.077
17089W        W78543   8.809  33.052   5.173
17090W        W78544   9.871  43.493   0.934
17091W        W78545  28.005  15.112   4.211
17092W        W78546   5.256  24.689  12.976
17093W        W78547  21.095  27.664   1.226
17094W        W78548  33.958  43.928  11.406
17095W        W78549  37.457  36.842  11.572
17096W        W78550  31.508  37.993   4.804
17097W        W78551   2.727  21.738  10.912
17098W        W78552   1.822  38.013  14.768
17099W        W78553   8.287  14.300   1.445
17100W        W78554  39.391  16.241   4.836
17101W        W78555  34.063  42.953  11.999
17102W        W78556   2.399  41.967   3.772
17103W        W78557   8.861   8.772  10.616
17104W        W78558  17.196  21.248   1.838
17105W        W78559  43.433  14.145  12.517
17106W        W78560  40.864   7.697   0.762
17107W        W78561  24.708  12.196  10.588
17108W        W78562   2.911  35.013  12.979
17109W        W78563  27.627  29.564   4.675
17110W        W78564   4.302  14.178  11.038
17111W        W78565  16.807  42.015   0.384
17112W        W78566   1.746   4.278   0.246
17113W        W78567  43.950  29.015   2.361
17114W        W78568  42.419  42.792   4.275
17115W        W78569  43.434  44.785   4.663
17116W        W78570  19.725  10.244   3.834
17117W        W78571  36.020  27.528   4.625
17118W        W78572  35.074  15.180  12.847
17119W        W78573  39.905   4.743  12.381
17120W        W78574  20.591  43.284   3.301
17121W        W78575  32.953  34.452   1.901
17122W        W78576  22.562  27.660  14.358
17123W        W78577  44.283  34.436  13.463
17124W        W78578  34.966   9.207   3.791
17125W        W78579  14.666  31.917  12.500
17126W        W78580   9.748  38.541   2.302
17127W        W78581   8.166  35.532   9.672
17128W        W78582  41.909   6.264  13.417
17129W        W78583  30.920  37.342   4.773
17130W        W78584   8.688   1.253   0.375
17131W        W78585  37.443   3.791  13.486
17132W        W78586  38.994  36.921   3.768
17133W        W78587  32.979   7.668  12.823
17134W        W78588   6.764  23.626  11.962
17135W        W78589  15.817  10.857  14.312
17136W        W78590  42.998  12.681   0.968
17137W        W78591  25.983  27.056   0.949
17138W        W78592   9.846   3.731   1.217
17139W        W78593  39.485  23.140  10.556
17140W        W78594  13.837   2.810  10.898
17141W        W78595  38.478   8.301  14.806
17142W        W78596  31.459  21.612  13.408
17143W        W78597  16.237   6.403  12.999
17144W        W78598  37.343  13.158   2.335
17145W        W78599   9.231   7.362  10.075
17146W        W78600  14.816  41.381  10.573
17147W        W78601  24.500  27.169   4.307
17148W        W78602  32.104  34.392   4.662
17149W        W78603  36.075  12.693  10.508
17150W        W78604  39.955  41.296   2.816
17151W        W78605  15.762   4.742  14.962
17152W        W78606  12.173  35.886   1.704
17153W        W78607  19.146  40.381   1.421
17154W        W78608  18.155  14.821  10.568
17155W        W78609  24.673   5.386   5.690
17156W        W78610  32.009  15.712  13.055
17157W        W78611  11.664  15.696  11.923
17158W        W78612  41.433   0.262  13.987
17159W        W78613  26.125  19.162  14.320
17160W        W78614  21.618  16.736  14.490
17161W        W78615  20.270  39.958  12.356
17162W        W78616  10.724  34.001  11.419
17163W        W78617  11.632   5.816  10.591
17164W        W78618   8.183  20.632  12.012
17165W        W78619  26.187  37.479   3.658
17166W        W78620  28.051  43.285   0.957
17167W        W78621  40.839  12.204   4.310
17168W        W78622  44.970  20.636  14.031
17169W        W78623  28.142   5.768   3.313
17170W        W78624  30.060  42.388  12.978
17171W        W78625  35.001  36.849   3.762
17172W        W78626  29.056  39.907  13.530
17173W        W78627  32.130   9.716  10.888
17174W        W78628  44.425  34.526   9.923
17175W        W78629  26.179  10.774  11.988
17176W        W78630  42.904   3.224   5.135
17177W        W78631  42.337  11.223   3.837
17178W        W78632  18.635   0.459   3.711
17179W        W78633  39.416  34.504  12.368
17180W        W78634   6.387  12.295  12.456
17181W        W78635  17.284  40.392  13.904
17182W        W78636  21.739  43.294   3.781
17183W        W78637   5.924  19.556   1.706
17184W        W78638   3.362   4.250  13.478
17185W        W78639  16.216  26.029  14.962
17186W        W78640  26.520  19.710   0.910
17187W        W78641  26.105  11.171   4.772
17188W        W78642  36.065  18.179  10.574
17189W        W78643   4.821  11.745   0.806
17190W        W78644  41.322  10.731  13.394
17191W        W78645  39.366  21.632   1.868
17192W        W78646   5.329  29.040   3.676
17193W        W78647  41.839   4.352  14.758
17194W        W78648  21.716  23.087  13.052
17195W        W78649   8.172  23.080   3.808
17196W        W78650  28.526  18.684  11.556
17197W        W78651  16.645  25.188   3.802
17198W        W78652  26.030  35.991  11.431
17199W        W78653   8.668  12.824   1.360
17200W        W78654  11.836  38.531   3.645
17201W        W78655  42.916  42.868  10.477
17202W        W78656  30.615  10.836  14.984
17203W        W78657  32.904  35.457   2.885
17204W        W78658  33.969   7.341   2.265
17205W        W78659  15.174   8.390   3.802
17206W        W78660  41.397  40.468  10.604
17207W        W78661   1.385  43.410  11.892
17208W        W78662  18.120  44.489   4.346
17209W        W78663  39.063  23.538   5.205
17210W        W78664   0.808  20.561   1.809
17211W        W78665  15.149  40.887   2.324
17212W        W78666  34.938   8.334  13.328
17213W        W78667  26.529  41.924   1.309
17214W        W78668  24.587  19.054  11.874
17215W        W78669  13.223  35.962   3.663
17216W        W78670  22.132  15.267   4.760
17217W        W78671  17.704  24.056   4.351
17218W        W78672   4.431  32.469   0.895
17219W        W78673  12.287   7.792   1.279
17220W        W78674  14.807  27.983   0.426
17221W        W78675  31.530  13.176   9.514
17222W        W78676   1.753  35.463  13.973
17223W        W78677   2.754  21.161   2.346
17224W        W78678  37.846  24.714  14.497
17225W        W78679  13.636  44.415   4.772
17226W        W78680  14.778  34.433   4.261
17227W        W78681   2.882  26.672   3.374
17228W        W78682  39.855  34.557   4.804
17229W        W78683  21.617  26.134   3.324
17230W        W78684  24.013   1.922   0.808
17231W        W78685  21.104  13.306   3.696
17232W        W78686  12.148  13.182  13.832
17233W        W78687  38.953  33.497  13.913
17234W        W78688  11.316  39.859   2.695
17235W        W78689  15.123  16.262  12.434
17236W        W78690   0.354  14.828   4.352
17237W        W78691  42.779   2.379  14.874
17238W        W78692  25.200   0.482   3.689
17239W        W78693  23.687  39.446   4.681
17240W        W78694  30.613   1.441  10.444
17241W        W78695  21.174   1.270  12.349
17242W        W78696  40.875  35.531  11.068
17243W        W78697  21.098  32.913  13.445
17244W        W78698  13.732  34.935   4.711
17245W        W78699  42.870  35.594  13.341
17246W        W78700   8.685  22.626   2.181
17247W        W78701  36.466  28.491   4.709
17248W        W78702  36.914  34.387   0.758
17249W        W78703  14.286  41.809  14.364
17250W        W78704  18.223  18.068  11.388
17251W        W78705  21.728  44.855  12.480
17252W        W78706  41.459  16.621   3.193
17253W        W78707  40.951  39.939  11.504
17254W        W78708   8.227  21.553   4.186
17255W        W78709  18.180  27.486  10.556
17256W        W78710  29.668   8.654  12.462
17257W        W78711  43.479   0.964  10.916
17258W        W78712  36.456  43.439  12.409
17259W        W78713  21.099  30.039  14.384
17260W        W78714  26.011   4.276   3.677
17261W        W78715  38.561  32.502  14.470
17262W        W78716   5.286  26.468  10.130
17263W        W78717   2.756   7.208  13.515
17264W        W78718  39.369  44.436  11.378
17265W        W78719  25.051   9.869   2.783
17266W        W78720  16.142   9.179  14.887
17267W        W78721  23.224  21.631   3.333
17268W        W78722  14.778  38.545   0.363
17269W        W78723  10.342  12.252  13.501
17270W        W78724   5.320  41.374  13.998
17271W        W78725  12.812   2.865  13.363
17272W        W78726   7.722  39.850   4.725
17273W        W78727  14.711  20.213  12.832
17274W        W78728   6.268  27.620  13.930
17275W        W78729  21.582  44.291   0.794
17276W        W78730  26.953  14.803   2.701
17277W        W78731  20.113  34.532   2.312
17278W        W78732  34.042  20.571   0.898
17279W        W78733  38.971   5.698   2.845
17280W        W78734   3.426   1.297  12.059
17281W        W78735  17.283  19.547   4.315
17282W        W78736  18.636  30.515  11.050
17283W        W78737  24.051   9.285  11.486
17284W        W78738  20.684  36.581  13.950
17285W        W78739  34.970   5.379   1.253
17286W        W78740  40.013  43.339  13.461
17287W        W78741  24.578  39.341   1.866
17288W        W78742   9.384  22.173  13.377
17289W        W78743  28.487  23.188   3.340
17290W        W78744  37.471   0.946   0.278
17291W        W78745  42.466   6.413   4.739
17292W        W78746   8.716  18.290  10.093
17293W        W78747  27.139  42.001   1.426
17294W        W78748   2.938  35.971  11.612
17295W        W78749  14.670  20.034   0.280
17296W        W78750  38.528  44.921   3.310
17297W        W78751  22.034  16.168   3.850
17298W        W78752  17.265   9.209   3.238
17299W        W78753  38.977  14.778  14.901
17300W        W78754  30.099  41.472  10.905
17301W        W78755  24.655  41.328  10.600
17302W        W78756   9.842  13.232   0.374
17303W        W78757   1.460  15.802  10.601
17304W        W78758  14.097  22.039  14.922
17305W        W78759  37.386  15.776  12.952
17306W        W78760  26.463  27.032  11.077
17307W        W78761  44.879   9.185  12.028
17308W        W78762  44.803  22.213   2.767
17309W        W78763  41.358  40.840  13.385
17310W        W78764   8.724  16.669  11.531
17311W        W78765  14.341  28.584   0.868
17312W        W78766   5.918  14.328  10.569
17313W        W78767  21.681  28.535  14.759
17314W        W78768   1.285  23.683   1.294
17315W        W78769  33.082   8.813   0.834
17316W        W78770  43.980  42.793  13.424
17317W        W78771  35.986   7.826   0.382
17318W        W78772  30.066  37.405  13.410
17319W        W78773   0.416  22.036  12.574
17320W        W78774   8.796  42.471  14.362
17321W        W78775   7.775   3.875   2.255
17322W        W78776  40.035   9.313   2.417
17323W        W78777  11.220  34.051  14.980
17324W        W78778  43.304  18.187   4.710
17325W        W78779  28.544   6.877  11.100
17326W        W78780   8.286  41.401   2.807
17327W        W78781  43.927  17.291  14.472
17328W        W78782  23.504  23.717   3.693
17329W        W78783  36.927   8.753   2.303
17330W        W78784  22.215  32.423  11.457
17331W        W78785  28.445  13.776   0.445
17332W        W78786  44.934   1.435  12.019
17333W        W78787  44.396  32.955  11.391
17334W        W78788  35.485  15.276   1.805
17335W        W78789  31.914  23.202  11.584
17336W        W78790  43.774   7.741   0.809
17337W        W78791   1.359  18.640  11.390
17338W        W78792   4.718  15.631   0.254
17339W        W78793  42.485  17.707  12.835
17340W        W78794  41.817  43.412  13.814
17341W        W78795  11.338  25.073   4.241
17342W        W78796  30.628  32.539   1.262
17343W        W78797  10.749  28.087   1.915
17344W        W78798  43.373  14.816  10.516
17345W        W78799   3.887   1.775   1.858
17346W        W78800  26.070  37.521   1.866
17347W        W78801  19.657  10.245   9.625
17348W        W78802  20.630  21.679  14.295
17349W        W78803  29.135   5.919   4.291
17350W        W78804  28.573  37.846   2.255
17351W        W78805  35.442  35.502   0.938
17352W        W78806  14.212  10.803  14.023
17353W        W78807  14.277  11.777  14.374
17354W        W78808   0.448  25.984  14.825
17355W        W78809  37.358  16.646  10.558
17356W        W78810  33.601  39.498  12.880
17357W        W78811  37.003   2.236   3.824
17358W        W78812  18.060  26.567  14.774
17359W        W78813   0.398   9.664  11.092
17360W        W78814  23.504  18.662   1.744
17361W        W78815  43.443  34.905  12.001
17362W        W78816  11.730  11.709  13.422
17363W        W78817   1.270  27.451  11.543
17364W        W78818  14.730  10.763  13.960
17365W        W78819  17.670  26.491   2.189
17366W        W78820  31.520   1.766   3.834
17367W        W78821  39.006  20.200   0.406
17368W        W78822  39.953  28.501  13.982
17369W        W78823  41.835  35.539  14.801
17370W        W78824  30.577  14.211   2.808
17371W        W78825  17.708  21.170   3.769
17372W        W78826  20.599  15.270   1.283
17373W        W78827   5.918  42.491   2.709
17374W        W78828  44.351   8.402  14.817
17375W        W78829  24.689  30.990   3.780
17376W        W78830  23.167   0.418   1.888
17377W        W78831  41.528  36.850  12.057
17378W        W78832  42.885   6.277  10.419
17379W        W78833  20.160  26.492   0.833
17380W        W78834  22.240  30.044   0.861
17381W        W78835  15.158  29.427  14.824
17382W        W78836  16.763  38.340   0.426
17383W        W78837  31.065  18.594  10.447
17384W        W78838  18.192   0.385  13.870
17385W        W78839  16.290   8.875  12.980
17386W        W78840   8.779  26.563   9.984
17387W        W78841  25.122  22.649   4.228
17388W        W78842  18.653  26.477  10.624
17389W        W78843  18.198   9.795  12.010
17390W        W78844  14.667  35.855   0.285
17391W        W78845  14.262  33.449   4.784
17392W        W78846  21.651  10.844  13.792
17393W        W78847  23.584  32.532   2.760
17394W        W78848  14.234  39.878  10.449
17395W        W78849  39.899  11.632  11.867
17396W        W78850  35.992   6.884   3.367
17397W        W78851  23.644  27.483  10.909
17398W        W78852  43.441  26.155  11.945
17399W        W78853  30.458   0.792  11.490
17400W        W78854  35.922   1.377  13.793
17401W        W78855   0.468  44.968  11.440
17402W        W78856  37.994  42.350  12.038
17403W        W78857   0.262  29.096  10.481
17404W        W78858  21.757   4.731  14.807
17405W        W78859   6.762  33.054  11.062
17406W        W78860   3.449  31.568  10.155
17407W        W78861   2.274   4.346  11.393
17408W        W78862  12.622  40.052  14.881
17409W        W78863  41.999   6.816  12.525
17410W        W78864   5.702  32.420   4.194
17411W        W78865  14.173  32.622   3.271
17412W        W78866  33.061  11.859  13.523
17413W        W78867  42.363  33.115  12.568
17414W        W78868   5.741  17.302  14.852
17415W        W78869  14.730  26.079   1.752
17416W        W78870   5.838  24.632   0.391
17417W        W78871  18.106  42.016  14.957
17418W        W78872  44.319   9.340   3.294
17419W        W78873  33.415  10.275  10.894
17420W        W78874   3.441   1.915  12.095
17421W        W78875  11.136  29.023  13.505
17422W        W78876   4.423  19.196   2.792
17423W        W78877   6.820   3.387  12.935
17424W        W78878   8.890  10.343  10.989
17425W        W78879   5.766  20.565   0.753
17426W        W78880  25.006  36.990   0.320
17427W        W78881  29.647   5.400   4.232
17428W        W78882   8.803  10.331   0.835
17429W        W78883  43.435  34.047   3.762
17430W        W78884  23.192  39.879  12.054
17431W        W78885  19.624  23.608  11.096
17432W        W78886  30.576  12.218   3.636
17433W        W78887  42.348  34.504   0.260
17434W        W78888  32.620  14.132   3.221
17435W        W78889  44.808   6.393  14.955
17436W        W78890  20.605  32.609  14.972
17437W        W78891   1.264  43.274   1.315
17438W        W78892  28.068  44.345   5.177
17439W        W78893  34.920  16.733  10.506
17440W        W78894  12.840  26.678   3.250
17441W        W78895  43.821  22.151  12.522
17442W        W78896  44.394  32.019   4.624
17443W        W78897  33.035  26.195  14.787
17444W        W78898  27.485   8.725   4.666
17445W        W78899  16.166  19.715   3.224
17446W        W78900  28.172   6.912   4.312
17447W        W78901  33.044  42.319   3.858
17448W        W78902  40.986  16.574   3.337
17449W        W78903  16.135   9.369   3.362
17450W        W78904   4.786  23.702  12.946
17451W        W78905  30.088  31.442   0.444
17452W        W78906  22.505  16.583   2.788
17453W        W78907   3.919  28.483   3.200
17454W        W78908   8.269  36.973  10.958
17455W        W78909  31.612  40.827  14.765
17456W        W78910  32.610  20.527  12.509
17457W        W78911  25.027  28.542   0.449
17458W        W78912  36.097  14.234  11.475
17459W        W78913  31.560  19.119  14.891
17460W        W78914  26.637  29.446  11.901
17461W        W78915  10.725  14.242   0.371
17462W        W78916   9.767  23.653   3.784
17463W        W78917  14.691   4.941  10.109
17464W        W78918  31.557  12.772   2.828
17465W        W78919  27.001  15.813  13.953
17466W        W78920  16.303  20.532  11.992
17467W        W78921   8.660  33.035  11.464
17468W        W78922  34.977  39.466  13.403
17469W        W78923  41.915  24.194   4.815
17470W        W78924  24.032  41.380   3.260
17471W        W78925  26.663  29.088  13.422
17472W        W78926  34.119  40.876   4.192
17473W        W78927  19.178  13.334   0.291
17474W        W78928   8.842   1.474  13.963
17475W        W78929  20.528  35.379   4.598
17476W        W78930  24.479  11.309   2.404
17477W        W78931  31.633  24.186   3.278
17478W        W78932  34.875  19.190  11.923
17479W        W78933   6.798   5.898   4.122
17480W        W78934  43.903  21.162   3.280
17481W        W78935   7.813  12.349   1.877
17482W        W78936  41.521  44.890   4.236
17483W        W78937  26.139   0.364   4.148
17484W        W78938  17.132   6.806   2.235
17485W        W78939  23.161  26.126  12.043
17486W        W78940  30.015  25.079   2.414
17487W        W78941  10.874  13.284  12.067
17488W        W78942  22.690  13.175  13.468
17489W        W78943  32.581   7.237   4.676
17490W        W78944   4.735  40.401   4.348
17491W        W78945  24.078   5.208  12.427
17492W        W78946   1.275   0.415  13.869
17493W        W78947   6.228  19.244  12.363
17494W        W78948  20.052  20.054   1.765
17495W        W78949   0.938  25.065   2.292
17496W        W78950  28.159  39.425   4.229
17497W        W78951  40.343  38.040   3.260
17498W        W78952  16.131   7.215  11.905
17499W        W78953  41.324  24.190  14.838
17500W        W78954  27.955  44.465   2.391
17501W        W78955  13.138   8.334  10.581
17502W        W78956  21.164  30.574  11.976
17503W        W78957  35.957  40.493   2.743
17504W        W78958   9.744  14.706  13.915
17505W        W78959  20.136   1.836  11.442
17506W        W78960  39.842  19.706  12.917
17507W        W78961  20.239  25.021  12.483
17508W        W78962  27.585  40.813  13.532
17509W        W78963   2.319   9.782   0.475
17510W        W78964  28.088   3.891   3.233
17511W        W78965   4.278  29.560   4.650
17512W        W78966  22.638  17.062   3.832
17513W        W78967  21.146  43.428   0.735
17514W        W78968  37.349  17.679  13.432
17515W        W78969  19.724   3.403   2.878
17516W        W78970  32.898   6.752   1.883
17517W        W78971  39.392   5.436  13.923
17518W        W78972  24.682   9.779   0.356
17519W        W78973  10.348   3.413  10.422
17520W        W78974  14.306  43.298  10.508
17521W        W78975  30.590   4.845   4.727
17522W        W78976  37.916  36.543  12.007
17523W        W78977  34.043  12.208  11.412
17524W        W78978  32.604  16.781  11.974
17525W        W78979  12.282   3.320   2.850
17526W        W78980   8.787  41.484  14.854
17527W        W78981  16.741  17.168   2.698
17528W        W78982   8.207  40.360  14.885
17529W        W78983  20.529  28.514   4.288
17530W        W78984  21.676  18.051  13.405
17531W        W78985  38.831  43.367  13.830
17532W        W78986  15.193   7.172   3.635
17533W        W78987  20.048  41.962  12.905
17534W        W78988  31.136  43.389   2.766
17535W        W78989  24.690   2.438  12.343
17536W        W78990  22.517  41.530   3.199
17537W        W78991   1.864  31.548  11.373
17538W        W78992  40.428  20.230  10.979
17539W        W78993   2.884  12.832  11.511
17540W        W78994  14.607  10.311   3.726
17541W        W78995   9.171   3.432   2.397
17542W        W78996  33.521  22.016  14.463
17543W        W78997  33.937  41.040   1.764
17544W        W78998   2.335  20.541   2.785
17545W        W78999  43.475   4.245  10.560
17546W        W79000  39.000  33.514   3.370
17547W        W79001  19.568  39.053  11.471
17548W        W79002  15.280  28.145   2.378
17549W        W79003   3.778  15.229   1.758
17550W        W79004  30.119  21.047  13.030
17551W        W79005  43.335   0.836  10.593
17552W        W79006   3.387  28.563   4.616
17553W        W79007  43.336  13.617   0.855
17554W        W79008  25.562  26.078  11.582
17555W        W79009   3.852   8.258   1.396
17556W        W79010  30.016   1.268   2.220
17557W        W79011  13.186  30.940   3.802
17558W        W79012  18.287   5.821  14.474
17559W        W79013  19.218  19.262  12.906
17560W        W79014   3.252   1.910  14.285
17561W        W79015  12.284  11.665  12.981
17562W        W79016  17.151   0.880   4.600
17563W        W79017  21.083  30.053   4.259
17564W        W79018  15.737   1.384   0.779
17565W        W79019  18.194  41.522   2.207
17566W        W79020  32.637  19.106  13.413
17567W        W79021  11.638   4.753   0.879
17568W        W79022  31.445   0.862  11.570
17569W        W79023  10.717  14.123   2.759
17570W        W79024   8.881  12.782   0.881
17571W        W79025  27.952  14.238  14.856
17572W        W79026   4.379  25.602   4.239
17573W        W79027  17.667   2.360   0.950
17574W        W79028   3.809  18.224  12.998
17575W        W79029  42.286  31.024   2.662
17576W        W79030  34.942  41.364   4.774
17577W        W79031  23.207   1.335  11.421
17578W        W79032   5.914  27.170  11.123
17579W        W79033  27.983  20.206  12.465
17580W        W79034   6.708  10.249  10.605
17581W        W79035  32.892  29.088  11.123
17582W        W79036   5.267  24.089  13.947
17583W        W79037  17.198  33.080   1.413
17584W        W79038  31.968  42.890   3.677
17585W        W79039  30.126  16.134  11.430
17586W        W79040  25.040  18.769   0.812
17587W        W79041  22.190  42.800   1.378
17588W        W79042  37.417  24.723   0.730
17589W        W79043  21.038  34.483   4.255
17590W        W79044  10.660   7.383  13.856
17591W        W79045  12.304  12.851  14.860
17592W        W79046  31.598  10.374  12.845
17593W        W79047  32.886  29.540  14.412
17594W        W79048  32.138   3.320  13.972
17595W        W79049  18.591   9.655   0.793
17596W        W79050  42.988  14.203  11.493
17597W        W79051  42.946  43.881  14.006
17598W        W79052  42.970   5.386  11.937
17599W        W79053  27.492  37.911  13.361
17600W        W79054  26.017  11.801   1.733
17601W        W79055  42.380  31.627  12.026
17602W        W79056  32.425  30.045  13.801
17603W        W79057  13.719  26.006  11.033
17604W        W79058  25.143  16.777  12.408
17605W        W79059  44.282  42.298  11.433
17606W        W79060  43.020  30.084   1.228
17607W        W79061  14.339  21.678   1.245
17608W        W79062  17.577  30.462   1.385
17609W        W79063   9.331  42.430   3.850
17610W        W79064  35.980  25.124  14.029
17611W        W79065  33.976  17.244   9.957
17612W        W79066   6.364  39.929   2.328
17613W        W79067  27.085  43.481  11.968
17614W        W79068  10.634  23.730   1.212
17615W        W79069  41.019  17.719  12.976
17616W        W79070  20.593  18.239   2.338
17617W        W79071   4.281  30.626  13.048
17618W        W79072  10.640  14.296  11.524
17619W        W79073  39.392  29.013   4.288
17620W        W79074  16.783  10.742  14.451
17621W        W79075  18.085  32.568  11.558
17622W        W79076  35.013   5.381   2.418
17623W        W79077  30.124  42.866   2.306
17624W        W79078   8.829  17.099   0.363
17625W        W79079  34.557  31.924  12.520
17626W        W79080   5.432  28.041   1.780
17627W        W79081   3.715  22.734   2.311
17628W        W79082  39.025  25.612  12.029
17629W        W79083   2.755  41.444  12.460
17630W        W79084  32.450  17.167   1.727
17631W        W79085  43.999  41.304  14.931
17632W        W79086  14.648  25.661  12.961
17633W        W79087  42.882  35.391   1.309
17634W        W79088  26.505  17.200   0.747
17635W        W79089  19.091   7.813   3.248
17636W        W79090  19.602  37.065   0.394
17637W        W79091  32.075   0.494  11.471
17638W        W79092  36.548  13.124  11.962
17639W        W79093  14.648  32.971   2.813
17640W        W79094  17.624  38.833   3.239
17641W        W79095  21.197  34.491  12.907
17642W        W79096  18.759  25.538  11.049
17643W        W79097  34.530  17.197  13.464
17644W        W79098  19.178  16.764  12.459
17645W        W79099  37.385  40.931  12.957
17646W        W79100  18.739   8.770   2.213
17647W        W79101  20.636  42.323   3.839
17648W        W79102  14.667  17.582   0.431
17649W        W79103  28.619  24.072  10.500
17650W        W79104  40.343  35.867  12.070
17651W        W79105  42.880  28.469   2.253
17652W        W79106   2.856   3.321  14.277
17653W        W79107  41.855   6.875  10.992
17654W        W79108   6.193  23.690   1.325
17655W        W79109  25.964  15.705  11.031
17656W        W79110  14.223  20.258   3.770
17657W        W79111   3.808   8.890   2.344
17658W        W79112   1.795  22.052  14.912
17659W        W79113  10.671  26.489   1.889
17660W        W79114   8.662  17.624  11.993
17661W        W79115  31.554   6.748  12.039
17662W        W79116  28.678  32.087   1.375
17663W        W79117  13.156  14.727   4.145
17664W        W79118  43.764  34.604  11.915
17665W        W79119  17.244  26.639   5.175
17666W        W79120  33.969  23.636   1.707
17667W        W79121  30.133   8.233   0.736
17668W        W79122  26.137  43.441   4.669
17669W        W79123  20.708  41.520  14.369
17670W        W79124  10.696  29.100  13.814
17671W        W79125  33.950  35.444  10.548
17672W        W79126  16.690  41.484   9.581
17673W        W79127  24.039  32.482   1.756
17674W        W79128   5.715  29.048  14.933
17675W        W79129  25.093   1.439  10.964
17676W        W79130  27.595  43.321  10.596
17677W        W79131  34.441  36.534  13.927
17678W        W79132  26.992  28.080  14.845
17679W        W79133   2.771  26.068   3.321
17680W        W79134  16.158   7.857   4.602
17681W        W79135  14.148  23.150  14.339
17682W        W79136  22.523  12.272  12.068
17683W        W79137  23.505   9.243   2.837
17684W        W79138  17.708  30.473  10.469
17685W        W79139   6.912  37.457  11.587
17686W        W79140  38.564  14.101  13.441
17687W        W79141   3.948  34.980  13.528
17688W        W79142  12.229  31.986  11.861
17689W        W79143  24.219  27.597  13.882
17690W        W79144  36.009  20.198  14.441
17691W        W79145  33.053   7.179  13.421
17692W        W79146  14.723  25.205  13.913
17693W        W79147  28.976  31.081   4.250
17694W        W79148  14.161  37.949   4.222
17695W        W79149  27.982  21.608  14.911
17696W        W79150  42.906  23.208   4.635
17697W        W79151  22.081  23.647   2.378
17698W        W79152  12.192   6.812  13.904
17699W        W79153  38.560  42.469  10.604
17700W        W79154  35.895  24.539  10.495
17701W        W79155  11.738  29.565  13.948
17702W        W79156  14.272  13.297  14.305
17703W        W79157  33.011  20.724   0.853
17704W        W79158  29.973  42.987  12.405
17705W        W79159  37.582  15.140  13.433
17706W        W79160   7.836   2.904  13.419
17707W        W79161   8.323  11.354   3.755
17708W        W79162  12.230  44.889  11.894
17709W        W79163  33.933  44.857   2.821
17710W        W79164  13.717  42.886   0.479
17711W        W79165  33.109   2.720  13.365
17712W        W79166  44.789   7.819  12.997
17713W        W79167  16.748  38.864  12.385
17714W        W79168  12.347  28.009   2.832
17715W        W79169  23.522  43.788   0.882
17716W        W79170  34.562  30.001  10.417
17717W        W79171  29.144  39.865   2.877
17718W        W79172   4.369  17.243  11.055
17719W        W79173  32.397  18.608  14.778
17720W        W79174  10.866  40.444  12.416
17721W        W79175  25.054  36.422   2.792
17722W        W79176  16.196  20.553   0.388
17723W        W79177  40.943  29.462  13.935
17724W        W79178  15.212  19.044   0.332
17725W        W79179  26.982  43.845  12.539
17726W        W79180  25.520  14.694  14.006
17727W        W79181  11.223  40.438  14.972
17728W        W79182  17.154  11.302   5.091
17729W        W79183   6.874  31.425   9.994
17730W        W79184   4.437  14.324  14.293
17731W        W79185  43.399  37.371  13.937
17732W        W79186  26.973  25.198  12.897
17733W        W79187  10.729  34.456  11.436
17734W        W79188  39.855   6.236   0.414
17735W        W79189   2.947  40.421   4.800
17736W        W79190  42.809  36.592  13.003
17737W        W79191   7.888  19.657  14.970
17738W        W79192  20.600   6.255   1.767
17739W        W79193  23.996  29.159  14.971
17740W        W79194  20.736  12.632  12.512
17741W        W79195  25.043   1.269   4.659
17742W        W79196  24.581  20.234   2.876
17743W        W79197   1.977  20.041  13.960
17744W        W79198  18.273   9.178   3.709
17745W        W79199  41.871  10.821   2.279
17746W        W79200   1.938  35.050   3.692
17747W        W79201   5.690  38.397   4.210
17748W        W79202  24.573  30.157  13.515
17749W        W79203  25.098  24.563   0.371
17750W        W79204  36.515  31.970  12.506
17751W        W79205  41.361   5.901  11.444
17752W        W79206  27.963  25.532  11.907
17753W        W79207   4.911   5.325  13.490
17754W        W79208  23.026  12.720  11.928
17755W        W79209  44.303  19.285  12.990
17756W        W79210  32.621   0.284  11.099
17757W        W79211   5.425   5.694  12.353
17758W        W79212  44.451  41.506   9.944
17759W        W79213  40.024  39.925  11.995
17760W        W79214  37.336  33.405   0.465
17761W        W79215  33.575  18.693   0.396
17762W        W79216  38.364  21.525  10.505
17763W        W79217  30.124  13.113   4.761
17764W        W79218  31.438  35.015   4.696
17765W        W79219   0.445  25.622   1.367
17766W        W79220   0.312  22.011   3.775
17767W        W79221  44.908  26.652  10.925
17768W        W79222  41.920  14.751  13.022
17769W        W79223   1.278  40.899   4.312
17770W        W79224  20.539  33.544   2.341
17771W        W79225  34.863  19.129  13.381
17772W        W79226  26.056  18.240  13.048
17773W        W79227   6.230  39.996  13.512
17774W        W79228  40.047  29.496   3.859
17775W        W79229  16.575  44.281   3.168
17776W        W79230  41.958   4.820  12.484
17777W        W79231  25.194  10.173  12.041
17778W        W79232   1.844  43.919   3.148
17779W        W79233  36.379  31.506   1.887
17780W        W79234  42.518  16.221  11.521
17781W        W79235  36.502   3.878   3.641
17782W        W79236   1.318  23.719   4.697
17783W        W79237  38.525   3.426  10.990
17784W        W79238  37.428  42.024   4.683
17785W        W79239  25.030  34.971   4.809
17786W        W79240   1.268  19.066   4.235
17787W        W79241  28.643  16.298  12.086
17788W        W79242  16.115  26.163  12.901
17789W        W79243  23.680  23.146   0.484
17790W        W79244  11.324  16.689  11.032
17791W        W79245  18.769  10.840   4.351
17792W        W79246  22.592  22.553   2.784
17793W        W79247   0.796  30.639  11.970
17794W        W79248  28.004  11.155   0.361
17795W        W79249  39.532  38.911  11.006
17796W        W79250   9.825   8.237   4.315
17797W        W79251   3.910   3.941  10.943
17798W        W79252  20.127  20.107   4.739
17799W        W79253  35.382   2.399  13.506
17800W        W79254   2.366  37.457   0.803
17801W        W79255  39.483  23.154  13.350
17802W        W79256  40.331  37.002  12.390
17803W        W79257   0.341  41.526  14.792
17804W        W79258   6.895   8.787  13.900
17805W        W79259  40.483  38.973  12.087
17806W        W79260  28.183  21.663   4.768
17807W        W79261  19.597   1.885  12.352
17808W        W79262   1.483  40.880  14.431
17809W        W79263   9.887  26.481  12.931
17810W        W79264  30.606  34.959   2.232
17811W        W79265  39.405  37.894  14.909
17812W        W79266  31.960   4.393  14.374
17813W        W79267  43.296  22.712  12.897
17814W        W79268  21.065  16.749  11.390
17815W        W79269   1.384  36.856   0.305
17816W        W79270   4.728  32.617   4.304
17817W        W79271  22.506  26.991   3.243
17818W        W79272  28.163  19.740   1.389
17819W        W79273  41.803   1.473   1.251
17820W        W79274  42.986  43.805   4.609
17821W        W79275  12.263  18.771   0.259
17822W        W79276  33.017  42.384   4.750
17823W        W79277  15.263  34.960   4.695
17824W        W79278  27.652  43.333   0.903
17825W        W79279  23.008   0.458   3.218
17826W        W79280  10.785   2.899   0.845
17827W        W79281  18.121   1.738   3.676
17828W        W79282  29.155  44.921  14.275
17829W        W79283   2.452  41.914  10.466
17830W        W79284  33.523  32.475   0.317
17831W        W79285  17.085  19.240  12.861
17832W        W79286   2.749  28.139  12.900
17833W        W79287  28.966  14.760   2.829
17834W        W79288  23.237   7.221   1.285
17835W        W79289  33.425   5.814  10.427
17836W        W79290  34.381  31.437   0.822
17837W        W79291  39.419  22.058  12.029
17838W        W79292  26.111   6.875   1.373
17839W        W79293   5.414  39.905   0.776
17840W        W79294  34.100  41.863   4.762
17841W        W79295  23.026  10.238  13.505
17842W        W79296  19.603  34.461  10.927
17843W        W79297   4.300  27.072  10.891
17844W        W79298  22.541  14.100  12.401
17845W        W79299  30.984   0.902   1.389
17846W        W79300  11.641  38.874  14.285
17847W        W79301   5.932   1.763   2.701
17848W        W79302  31.579  23.730   1.361
17849W        W79303  12.688   4.920   0.858
17850W        W79304  30.551  40.428   0.891
17851W        W79305   9.288  29.453   2.294
17852W        W79306  34.943  29.097   3.696
17853W        W79307  10.658  29.463   2.192
17854W        W79308  30.455  14.670  14.833
17855W        W79309   3.243  28.130   4.287
17856W        W79310  44.774  43.351   1.794
17857W        W79311  11.696  14.781   0.887
17858W        W79312  42.988  36.964  14.318
17859W        W79313  17.578   8.829  14.004
17860W        W79314  32.129   4.245  12.576
17861W        W79315   0.964  17.701  13.858
17862W        W79316  36.098  13.776   4.251
17863W        W79317  34.484  38.923  14.508
17864W        W79318   7.719  21.153   2.365
17865W        W79319  37.974  12.348   0.758
17866W        W79320  24.098  28.116  11.395
17867W        W79321  22.079  19.715  10.472
17868W        W79322  20.544  37.948  11.975
17869W        W79323  11.367  33.453  13.313
17870W        W79324  43.290  43.893   2.762
17871W        W79325  16.274  23.062  12.857
17872W        W79326  22.137  13.204  12.988
17873W        W79327  19.081  37.905   4.666
17874W        W79328  26.095  26.545   1.343
17875W        W79329   1.270  29.537   2.404
17876W        W79330   8.289   8.256   2.244
17877W        W79331  35.009  29.575  10.633
17878W        W79332   6.769  34.502  11.605
17879W        W79333  17.563  31.062   1.246
17880W        W79334  15.268   5.311   1.395
17881W        W79335  39.404  13.758  12.051
17882W        W79336   1.761   1.847  14.475
17883W        W79337   4.726   2.931  11.958
17884W        W79338   5.748  40.304   3.191
17885W        W79339  38.825  42.890  13.863
17886W        W79340   3.268  26.059   2.264
17887W        W79341  29.059  10.638   3.653
17888W        W79342  12.826  13.776   5.122
17889W        W79343  33.477  28.941   2.737
17890W        W79344  12.642  44.283   1.697
17891W        W79345  12.333  15.254  13.307
17892W        W79346   4.787   8.295   1.350
17893W        W79347  16.291  28.127  10.905
17894W        W79348  22.695   1.815   3.374
17895W        W79349  19.264  43.904   1.313
17896W        W79350  36.585  20.662  14.789
17897W        W79351   3.777  16.745   0.419
17898W        W79352  38.393  34.996  13.025
17899W        W79353   6.223  40.823   2.710
17900W        W79354  25.209  40.818   1.389
17901W        W79355  31.646   8.880  10.520
17902W        W79356  25.624  36.088   4.332
17903W        W79357   4.303  19.640   3.705
17904W        W79358  42.391  11.793   1.405
17905W        W79359   2.403   1.481  13.900
17906W        W79360  16.199  21.141  11.074
17907W        W79361  23.189  42.384   1.766
17908W        W79362  28.090  42.810  10.037
17909W        W79363  13.136   0.776   4.157
17910W        W79364   8.303  20.242  13.841
17911W        W79365  34.539   4.302  14.968
17912W        W79366  32.421  20.082  11.469
17913W        W79367   2.457  15.810  10.483
17914W        W79368   9.376  36.575   2.687
17915W        W79369   1.974  26.156  10.514
17916W        W79370  36.433  14.255   4.714
17917W        W79371  12.763   7.413  12.025
17918W        W79372  18.209  24.712   0.867
17919W        W79373  14.700  15.810   0.809
17920W        W79374  11.145  17.218  13.514
17921W        W79375   1.380  41.487   0.406
17922W        W79376   2.225  10.282  10.889
17923W        W79377  16.168  38.882  14.987
17924W        W79378  21.582  43.429  10.525
17925W        W79379  40.514   8.828   2.714
17926W        W79380   3.373   7.385  14.301
17927W        W79381   2.737   2.732   0.445
17928W        W79382  35.371  22.676  12.482
17929W        W79383  28.077  43.356   3.353
17930W        W79384   4.944  16.724  13.373
17931W        W79385   2.244  32.534   0.731
17932W        W79386  31.030   6.344  12.021
17933W        W79387  37.899  32.001   4.746
17934W        W79388  43.364  21.228   0.436
17935W        W79389  30.437  43.995  13.983
17936W        W79390   5.260  33.554   2.240
17937W        W79391   1.333  24.697   1.742
17938W        W79392  25.612  35.052  12.577
17939W        W79393  42.007  17.128  12.052
17940W        W79394  14.637  17.756   3.863
17941W        W79395  17.742  37.439  13.916
17942W        W79396   2.814  44.499   3.270
17943W        W79397  36.911  33.541   2.409
17944W        W79398   0.491  41.020  12.398
17945W        W79399   1.382  38.377  13.429
17946W        W79400  21.530   4.828   2.898
17947W        W79401  24.498  21.106   1.901
17948W        W79402  42.817   7.790   0.778
17949W        W79403  34.426  20.078   1.733
17950W        W79404   3.364  12.854   0.387
17951W        W79405  44.452  30.920   0.787
17952W        W79406   0.797  14.775  14.391
17953W        W79407  28.648   3.449   3.825
17954W        W79408   4.776  40.364  13.351
17955W        W79409  35.545  13.645  14.367
17956W        W79410  39.013  30.909   0.733
17957W        W79411  24.025  31.899   4.639
17958W        W79412  43.773  33.075   3.255
17959W        W79413   5.822  28.502  14.788
17960W        W79414  17.081  38.381   2.289
17961W        W79415  36.936   5.872   2.838
17962W        W79416  33.943  20.765  10.460
17963W        W79417  27.170  42.464  14.911
17964W        W79418   2.326   3.724   4.133
17965W        W79419   3.259   4.218   3.649
17966W        W79420   8.273  36.518   4.807
17967W        W79421  16.222   5.913   1.435
17968W        W79422  37.897  33.613  12.367
17969W        W79423  39.062   3.369   3.275
17970W        W79424   4.700  10.739  14.016
17971W        W79425  35.456  34.424   0.345
17972W        W79426  40.029   4.402  11.525
17973W        W79427  22.711  40.383  12.398
17974W        W79428  31.617  44.868  11.057
17975W        W79429  38.881   8.329   3.317
17976W        W79430  22.699  25.088   1.931
17977W        W79431   4.780  31.052  12.867
17978W        W79432   8.860  39.472  12.924
17979W        W79433   4.855  43.312  11.960
17980W        W79434  38.009   6.367   2.349
17981W        W79435  43.847  24.720   0.930
17982W        W79436  14.123   3.216  13.342
17983W        W79437  22.524  36.000  13.853
17984W        W79438  16.792  24.625  14.278
17985W        W79439  44.011  25.032  13.947
17986W        W79440  13.846   7.204  14.317
17987W        W79441   7.713  36.937   1.919
17988W        W79442  21.529  35.498  10.442
17989W        W79443  40.332  23.196   3.854
17990W        W79444  29.661  11.365   0.788
17991W        W79445  15.660  12.781  12.569
17992W        W79446  33.019  33.482  13.858
17993W        W79447  32.477  20.724  11.470
17994W        W79448  41.938  36.383  12.887
17995W        W79449  33.552  32.041  14.484
17996W        W79450   8.667   3.341  13.503
17997W        W79451  33.393   4.357   1.913
17998W        W79452  36.391   3.302  11.549
17999W        W79453  31.621  42.814   1.361
18000W        W79454  25.212  28.641  11.543
18001W        W79455   1.857   9.257  14.432
18002W        W79456  21.214  27.489   2.333
18003W        W79457  23.080  12.640  13.879
18004W        W79458  36.519  22.631   4.346
18005W        W79459  35.930   2.366  10.602
18006W        W79460  21.713  29.465  10.985
18007W        W79461  21.135   2.861   0.343
18008W        W79462   5.801   5.843   1.760
18009W        W79463  16.703  13.725   1.898
18010W        W79464   1.320  17.084  11.438
18011W        W79465   0.466  22.630  13.966
18012W        W79466   6.293  29.049  12.954
18013W        W79467   8.326  38.383  14.385
18014W        W79468   2.335   0.368   4.317
18015W        W79469   2.819   2.750  14.779
18016W        W79470  36.422  10.162   5.300
18017W        W79471  37.556  27.691  11.087
18018W        W79472  38.980   2.924   2.306
18019W        W79473   3.869  24.532  12.072
18020W        W79474  37.402  31.538  14.477
18021W        W79475  16.710  32.074   1.849
18022W        W79476  42.949  18.677   0.842
18023W        W79477   2.966  39.539  13.351
18024W        W79478   3.355  24.225   5.253
18025W        W79479  17.245  36.471  14.372
18026W        W79480  27.015  28.176  11.549
18027W        W79481  20.712  38.556   3.838
18028W        W79482  42.489   3.311  12.087
18029W        W79483  23.585  41.383  12.546
18030W        W79484  15.143  32.988  14.910
18031W        W79485  11.151  25.154  10.895
18032W        W79486  37.966  22.742   3.852
18033W        W79487  22.047  33.038  13.975
18034W        W79488  15.668   9.352   2.216
18035W        W79489  14.595  22.054   2.848
18036W        W79490   9.831  42.507  14.346
18037W        W79491  39.524  39.450   1.805
18038W        W79492  18.237  42.437   2.813
18039W        W79493   7.210  20.118   2.694
18040W        W79494  21.148  11.263   1.788
18041W        W79495  37.449  36.941   3.306
18042W        W79496  33.938  34.489   1.853
18043W        W79497   6.387  35.100   3.713
18044W        W79498  15.801  16.571  14.024
18045W        W79499  43.278  42.369  11.538
18046W        W79500  25.654  32.607  11.942
18047W        W79501  37.387  13.673   1.386
18048W        W79502   9.672  37.582  13.802
18049W        W79503  23.154  43.474   0.266
18050W        W79504   2.364  26.457   3.261
18051W        W79505  11.786  17.277   3.690
18052W        W79506   8.267   2.734   1.694
18053W        W79507  37.341  12.804   3.709
18054W        W79508  10.662  31.529  13.025
18055W        W79509  29.160  33.022   1.267
18056W        W79510  33.962  18.747   4.220
18057W        W79511   8.193   9.366  14.773
18058W        W79512   0.817  38.063  11.518
18059W        W79513   8.750   1.947  11.063
18060W        W79514   2.235   2.412   0.906
18061W        W79515  18.781  11.737   2.411
18062W        W79516  42.989  39.480   3.287
18063W        W79517   1.291  43.476   0.787
18064W        W79518   7.762  16.168   2.708
18065W        W79519  42.875  22.594   1.286
18066W        W79520   3.791  29.499  14.022
18067W        W79521  40.528  34.420  12.388
18068W        W79522  32.973   3.381   3.301
18069W        W79523  43.830  13.148   4.231
18070W        W79524  17.564   6.789  10.433
18071W        W79525  25.599  23.003  10.542
18072W        W79526  24.004  34.460  14.942
18073W        W79527  37.519  26.471  14.970
18074W        W79528   5.807  43.857  14.497
18075W        W79529  40.469  35.519  13.901
18076W        W79530   8.189  10.718   0.484
18077W        W79531  19.612  12.813   1.866
18078W        W79532  42.460  38.475   4.346
18079W        W79533   5.306  10.329   2.693
18080W        W79534  41.373  17.206   4.281
18081W        W79535  34.455   2.802   3.250
18082W        W79536  42.012  29.607  10.491
18083W        W79537  22.191   7.813  13.008
18084W        W79538   3.276  35.529   2.673
18085W        W79539  43.305  29.544   1.921
18086W        W79540  25.536  15.139   1.698
18087W        W79541  39.951   8.362   2.265
18088W        W79542  26.652  11.235   2.896
18089W        W79543   8.727   7.364  11.531
18090W        W79544  34.564  19.214  12.943
18091W        W79545   1.300  19.682   0.341
18092W        W79546  43.502   2.449   0.957
18093W        W79547  22.509  29.537   0.896
18094W        W79548  14.213  15.751  11.035
18095W        W79549  30.480  20.057  12.078
18096W        W79550   9.767  30.545  11.898
18097W        W79551  35.596  25.980  11.117
18098W        W79552  22.685  23.070  14.357
18099W        W79553  13.196  39.329  10.093
18100W        W79554   0.942  37.995  10.607
18101W        W79555  23.048  16.120   3.174
18102W        W79556  27.010  42.434   4.266
18103W        W79557  12.693  42.028  11.949
18104W        W79558  36.568  26.967   2.215
18105W        W79559  19.592  15.314  11.453
18106W        W79560  31.095  16.242   1.798
18107W        W79561   1.865  30.593  14.009
18108W        W79562  34.864  36.947   4.634
18109W        W79563   9.660  19.205  13.327
18110W        W79564  42.881  31.558  13.960
18111W        W79565  38.410  41.340   1.277
18112W        W79566  19.737   8.211   4.657
18113W        W79567  13.750   0.893  10.455
18114W        W79568  32.465  15.211   4.781
18115W        W79569  13.296  41.932  10.429
18116W        W79570  25.009  36.971   2.728
18117W        W79571  16.581  15.258  13.514
18118W        W79572  17.243   1.304  14.874
18119W        W79573  26.017  21.179  10.487
18120W        W79574  20.607   2.417   1.430
18121W        W79575  27.454   8.208  13.315
18122W        W79576  41.903  42.373   1.753
18123W        W79577  18.159  31.988  12.510
18124W        W79578  13.313  36.059   1.280
18125W        W79579  27.585   2.452  11.575
18126W        W79580  15.225  11.224  14.364
18127W        W79581  44.994  24.091  12.092
18128W        W79582  22.152  27.451   4.264
18129W        W79583   9.263   3.804   0.853
18130W        W79584  38.384  16.697  13.861
18131W        W79585  44.775  24.594  13.396
18132W        W79586  39.374   7.332   0.312
18133W        W79587  18.545  10.224  12.542
18134W        W79588  25.547  10.380  10.918
18135W        W79589  17.657  31.635  12.378
18136W        W79590  17.083  26.680   0.402
18137W        W79591  31.962  36.403  12.910
18138W        W79592  37.890  21.091   4.713
18139W        W79593  33.075  23.988  12.517
18140W        W79594  13.782  38.919  14.876
18141W        W79595  26.190  27.152  10.613
18142W        W79596  13.732  25.176  14.329
18143W        W79597  27.610  38.532  10.627
18144W        W79598  19.061  37.345  12.549
18145W        W79599  28.475  34.081   1.449
18146W        W79600  38.429  44.413   5.163
18147W        W79601  30.156  32.634   5.168
18148W        W79602   0.905  30.575  11.086
18149W        W79603  39.362   6.335   1.700
18150W        W79604  12.295  24.590   2.677
18151W        W79605  13.769   7.325  11.474
18152W        W79606  30.107   7.854  13.945
18153W        W79607  31.547  33.103   4.276
18154W        W79608  12.852  16.076   0.451
18155W        W79609  27.099  32.501  12.547
18156W        W79610   9.785  11.344  12.939
18157W        W79611  24.642   2.890   0.793
18158W        W79612  28.100  15.128  14.366
18159W        W79613  21.696  22.600   2.285
18160W        W79614  21.704  28.011  12.994
18161W        W79615  12.837  29.161  11.981
18162W        W79616  21.534  16.200  11.104
18163W        W79617  35.382  35.102   0.289
18164W        W79618  31.525  12.247   3.359
18165W        W79619   1.391  10.810  13.318
18166W        W79620  18.711  33.092   2.363
18167W        W79621  17.783  26.094   1.293
18168W        W79622  35.899   9.208   0.365
18169W        W79623   9.852  21.650   3.820
18170W        W79624  36.842  19.615  12.947
18171W        W79625  33.490  40.853  12.531
18172W        W79626  12.190  15.298  12.999
18173W        W79627   7.874  36.580   2.300
18174W        W79628  32.626  41.909  13.457
18175W        W79629  24.598  30.655  12.897
18176W        W79630  28.480  44.418   3.708
18177W        W79631   9.180   0.812   3.278
18178W        W79632  23.678  11.132  12.079
18179W        W79633  44.414   2.723  11.458
18180W        W79634  11.286  12.830  14.763
18181W        W79635  16.782  29.096   2.736
18182W        W79636  33.939   5.218   3.301
18183W        W79637  27.461  42.843  14.429
18184W        W79638   4.407  23.511   4.607
18185W        W79639   3.867  31.078  12.981
18186W        W79640  40.991  22.505   0.349
18187W        W79641  36.440   0.376  11.417
18188W        W79642  23.187  25.553   4.607
18189W        W79643   2.898  26.533   0.870
18190W        W79644  19.275  16.240  12.504
18191W        W79645   0.942  24.673   4.604
18192W        W79646  20.188  31.589   4.664
18193W        W79647  17.795  33.085  14.954
18194W        W79648  18.234  17.691  12.046
18195W        W79649  31.119  15.280  13.875
18196W        W79650  30.620  34.595   3.147
18197W        W79651  36.497  31.436  11.521
18198W        W79652   2.847  33.064  10.495
18199W        W79653  39.379  42.872  13.425
18200W        W79654  31.150  23.136   1.351
18201W        W79655  25.104  25.133   0.334
18202W        W79656  29.477  22.524   4.672
18203W        W79657  34.097  30.453  10.966
18204W        W79658   4.246  39.007  14.875
18205W        W79659  10.320  27.526   4.686
18206W        W79660  19.576  41.429   1.829
18207W        W79661  17.639  18.630   2.815
18208W        W79662   6.323  27.101  12.501
18209W        W79663  30.504   7.779  11.513
18210W        W79664  44.304  39.417  11.562
18211W        W79665  33.878  30.596  14.437
18212W        W79666  40.965  41.520   2.834
18213W        W79667  15.739  38.887  13.813
18214W        W79668  38.495   1.828  13.956
18215W        W79669  28.995   4.256  11.934
18216W        W79670  13.171  12.768  12.925
18217W        W79671  21.591   0.957   3.866
18218W        W79672  20.631  10.856   4.752
18219W        W79673  41.810  36.349  13.929
18220W        W79674  16.804  43.271   3.240
18221W        W79675  23.109  36.916  12.472
18222W        W79676   4.215   2.387   1.704
18223W        W79677   1.912  11.172   0.336
18224W        W79678  12.275  28.544   3.852
18225W        W79679  42.996  39.026  11.899
18226W        W79680  30.645  41.403   3.652
18227W        W79681   2.904  26.140  12.891
18228W        W79682  29.132  35.936  14.331
18229W        W79683  42.892   5.329  12.523
18230W        W79684  33.447  10.171   0.951
18231W        W79685  13.287  12.189   9.479
18232W        W79686   6.354  27.453  11.994
18233W        W79687   7.285   3.907   2.746
18234W        W79688  31.513  15.262   2.296
18235W        W79689  37.357   1.864   2.232
18236W        W79690  12.797  42.902  11.395
18237W        W79691   0.847  28.441   0.795
18238W        W79692  20.095   2.384   4.660
18239W        W79693  18.115   3.214   0.473
18240W        W79694   5.239   0.417  14.767
18241W        W79695  16.579  36.452   1.404
18242W        W79696  34.941   7.694  14.860
18243W        W79697  22.243  30.997  11.570
18244W        W79698  13.252   8.296  13.456
18245W        W79699  21.126  22.718   2.262
18246W        W79700  18.293  35.072   1.885
18247W        W79701  16.206   4.717  12.427
18248W        W79702  41.364  38.840  10.622
18249W        W79703  25.675  43.350   2.806
18250W        W79704   1.408  26.631   4.657
18251W        W79705  26.144  26.533   4.832
18252W        W79706   3.853  22.601  11.982
18253W        W79707  37.445  10.650   1.308
18254W        W79708  23.713  25.668  10.604
18255W        W79709  22.682  15.139   4.225
18256W        W79710  19.074  43.009  10.563
18257W        W79711  33.894  27.521  14.351
18258W        W79712  33.916  13.752   4.326
18259W        W79713   0.369  11.854  12.395
18260W        W79714   1.468  25.141   0.297
18261W        W79715  13.755  42.500  13.026
18262W        W79716  17.247   2.858   3.640
18263W        W79717  38.439  22.588  10.586
18264W        W79718  14.770  43.366   0.850
18265W        W79719   7.834  37.582   2.277
18266W        W79720  32.112  24.602  10.599
18267W        W79721   3.332  23.558  12.034
18268W        W79722  18.770  15.093   1.848
18269W        W79723  21.170  40.937   2.207
18270W        W79724   5.721  10.171   3.352
18271W        W79725  36.025  43.860   3.280
18272W        W79726  30.496  11.846   2.368
18273W        W79727  43.447   9.833   2.895
18274W        W79728  44.991  12.234   3.731
18275W        W79729   8.367  42.949   2.371
18276W        W79730  37.088  11.670   1.846
18277W        W79731  24.110   5.280   3.212
18278W        W79732   2.808   8.226  10.426
18279W        W79733   6.191   8.299   1.913
18280W        W79734  10.837   4.224   1.234
18281W        W79735  16.731  24.539   3.168
18282W        W79736   1.386  39.456  10.562
18283W        W79737  21.243  23.081   1.805
18284W        W79738  22.548  31.595  10.638
18285W        W79739   9.763   2.880  12.435
18286W        W79740  23.542   9.880   0.339
18287W        W79741  20.129  22.567  13.373
18288W        W79742   6.226  27.140   1.277
18289W        W79743  34.932   2.316  14.384
18290W        W79744  43.960  35.039   0.831
18291W        W79745   9.679  41.303   1.259
18292W        W79746  15.271   1.320   3.773
18293W        W79747  40.312  41.403   1.270
18294W        W79748   0.266  33.093   0.362
18295W        W79749  10.169  29.114  13.547
18296W        W79750   2.445  25.146  12.088
18297W        W79751  42.462  22.237   3.668
18298W        W79752  22.710   3.729  14.885
18299W        W79753  35.591   7.404  12.378
18300W        W79754  28.508   8.758   5.104
18301W        W79755  14.149  12.262   3.228
18302W        W79756  13.169  23.670   1.372
18303W        W79757  21.231  11.154   0.934
18304W        W79758   0.839  23.222  12.902
18305W        W79759  26.169  38.426   4.763
18306W        W79760  10.652  24.680   3.164
18307W        W79761  40.378  35.036   3.691
18308W        W79762  11.167  36.007   4.837
18309W        W79763  10.871  26.080   1.333
18310W        W79764  42.428  32.012   1.821
18311W        W79765  24.498  32.487   0.434
18312W        W79766  37.989  21.557   0.377
18313W        W79767  24.030  10.737  11.541
18314W        W79768   8.328  27.646   3.203
18315W        W79769  34.866   0.442   1.420
18316W        W79770  12.212  17.172   4.274
18317W        W79771   5.798  40.990   2.785
18318W        W79772   8.709  34.377  10.158
18319W        W79773  19.597  10.284  14.808
18320W        W79774  16.191  43.864  11.898
18321W        W79775  31.990   8.284   2.801
18322W        W79776  12.256  12.655  10.588
18323W        W79777  42.488  32.886  13.037
18324W        W79778  28.454  22.108   2.747
18325W        W79779  34.970  38.903   0.775
18326W        W79780   0.874   9.861  12.897
18327W        W79781  16.224  11.705   2.287
18328W        W79782  27.187   4.707  12.982
18329W        W79783  22.133   6.701   3.843
18330W        W79784  12.194  24.044   1.791
18331W        W79785  14.821  17.581   2.795
18332W        W79786  29.952  22.646  14.852
18333W        W79787  18.200  31.910   0.436
18334W        W79788   3.938  36.556   0.870
18335W        W79789  16.616   7.758   1.858
18336W        W79790   7.230  11.660   0.870
18337W        W79791  32.543  34.073   3.742
18338W        W79792  24.038  19.169  12.842
18339W        W79793  17.074   7.696  13.519
18340W        W79794  38.537  12.143   4.602
18341W        W79795  28.616  35.047  12.072
18342W        W79796   9.869  33.915  10.549
18343W        W79797  36.479   1.893  12.959
18344W        W79798  37.404  42.806   4.304
18345W        W79799  19.082  30.587  11.995
18346W        W79800  29.005   3.377   2.837
18347W        W79801  10.177  20.671  12.426
18348W        W79802  41.479  33.462  12.992
18349W        W79803  16.614  15.226   2.375
18350W        W79804   4.450  40.876  11.411
18351W        W79805  16.290  14.663  12.069
18352W        W79806  40.828   1.279  13.863
18353W        W79807   8.672   2.775   4.674
18354W        W79808  43.408  33.518  11.572
18355W        W79809  23.028  19.702   3.843
18356W        W79810  43.448  31.987   1.315
18357W        W79811  19.752  15.258  12.512
18358W        W79812  43.962   8.192  10.600
18359W        W79813   8.895   5.744  14.871
18360W        W79814  10.261  15.810  12.862
18361W        W79815  11.667  28.615  11.527
18362W        W79816  24.595  34.579  10.936
18363W        W79817  41.843  29.945   3.820
18364W        W79818  10.361  42.336   3.327
18365W        W79819   3.225  41.380  11.119
18366W        W79820  15.696  42.483  14.438
18367W        W79821  36.573  38.532  14.991
18368W        W79822  33.590  16.661   0.440
18369W        W79823  10.293  15.176  14.442
18370W        W79824  26.663  15.178   0.269
18371W        W79825  10.283  10.646   2.895
18372W        W79826  24.975  20.620   0.390
18373W        W79827  11.164  34.068  13.981
18374W        W79828  33.446   8.375   1.794
18375W        W79829  15.085  27.633  12.057
18376W        W79830  24.098  34.037  13.984
18377W        W79831  34.545  14.250  14.506
18378W        W79832  39.990  10.278  13.514
18379W        W79833  27.639  21.186   2.301
18380W        W79834   9.886   6.394  14.927
18381W        W79835   4.404   3.716   2.729
18382W        W79836  42.996  16.204   0.766
18383W        W79837  19.779  41.872   2.314
18384W        W79838  28.598   6.419   0.429
18385W        W79839  36.087  28.513   1.799
18386W        W79840  11.251  44.817  13.355
18387W        W79841  12.721   2.271  14.911
18388W        W79842  43.892  39.943  12.864
18389W        W79843  23.127  42.301  12.088
18390W        W79844  24.586  16.276  10.455
18391W        W79845   1.245  32.605  13.537
18392W        W79846  37.934  41.978  14.495
18393W        W79847  23.719  15.662  13.478
18394W        W79848   8.712  34.045  10.542
18395W        W79849  18.609  17.272  14.005
18396W        W79850  34.946  40.352   2.353
18397W        W79851  12.236  44.491  11.599
18398W        W79852  15.629  25.176  13.332
18399W        W79853   9.374  15.664   0.900
18400W        W79854  23.554  26.161  10.468
18401W        W79855  28.959  11.666   3.666
18402W        W79856   6.780  32.462  11.907
18403W        W79857  29.520  23.680   0.923
18404W        W79858  22.069  37.361   3.213
18405W        W79859   3.956  39.431   0.837
18406W        W79860  41.484  11.795  10.923
18407W        W79861  37.084  32.510   1.795
18408W        W79862  10.180  10.794   3.359
18409W        W79863  10.687   5.385  14.016
18410W        W79864   4.712  17.300  11.382
18411W        W79865  36.925  43.315   4.725
18412W        W79866  18.240  33.469  12.947
18413W        W79867   5.195  44.974   4.324
18414W        W79868  42.820  33.019  13.467
18415W        W79869  44.971  20.162  12.391
18416W        W79870   4.254   3.265   3.736
18417W        W79871  38.492  23.581  11.539
18418W        W79872  11.624  10.221   3.371
18419W        W79873  40.038  30.914   0.864
18420W        W79874  14.589   3.941  10.461
18421W        W79875  39.845   4.852   2.822
18422W        W79876  15.251  22.194  12.043
18423W        W79877   0.393  42.908   2.800
18424W        W79878  41.399  13.254  14.007
18425W        W79879  34.101   8.249   4.601
18426W        W79880  37.480  21.758   4.690
18427W        W79881  11.127  17.065  14.432
18428W        W79882  13.270  12.740   5.263
18429W        W79883  23.164  39.815  13.003
18430W        W79884  13.108   5.740  13.978
18431W        W79885  23.565  19.736   2.710
18432W        W79886  22.140  13.344   0.284
18433W        W79887  16.660  44.311   1.300
18434W        W79888  30.073  24.578  13.055
18435W        W79889  25.479  43.878  14.927
18436W        W79890   3.841   9.253  13.342
18437W        W79891  12.157  14.826   2.332
18438W        W79892  27.962  13.793  14.416
18439W        W79893  21.756   8.380   0.941
18440W        W79894  33.081  23.701  12.863
18441W        W79895  32.075  13.682  13.424
18442W        W79896  24.720  10.201   3.863
18443W        W79897  31.000  32.131  11.907
18444W        W79898  35.026  29.538   4.775
18445W        W79899  39.033  10.299  12.028
18446W        W79900  21.740  43.346  13.064
18447W        W79901  37.008   0.961  10.453
18448W        W79902  19.547  44.481  12.498
18449W        W79903  34.571  33.039  12.533
18450W        W79904  18.699   5.386  13.926
18451W        W79905  32.391   8.702   1.239
18452W        W79906  30.956  13.755  13.428
18453W        W79907  16.576  13.675   3.308
18454W        W79908  34.554   1.437  14.384
18455W        W79909  13.604  14.163  10.618
18456W        W79910  11.736  38.351  12.546
18457W        W79911  15.285   3.390   3.629
18458W        W79912   6.230  24.624  12.997
18459W        W79913  21.252  31.069  14.853
18460W        W79914  27.636  40.047   2.771
18461W        W79915   3.864  36.543   4.253
18462W        W79916  11.692  19.061  12.431
18463W        W79917  10.778  26.624  10.485
18464W        W79918  34.413  13.657   2.414
18465W        W79919  43.386  34.493   3.820
18466W        W79920  38.467  11.744  12.949
18467W        W79921   4.260   0.293   4.828
18468W        W79922  15.792  35.369   3.848
18469W        W79923  22.599   5.828  14.891
18470W        W79924   0.383  42.373   2.793
18471W        W79925  21.226  35.475  10.503
18472W        W79926  29.988  12.206  11.865
18473W        W79927  40.933   5.890  13.918
18474W        W79928  16.154   2.903   1.739
18475W        W79929   0.745  20.581   0.337
18476W        W79930  21.037  28.030   1.436
18477W        W79931   7.668  23.587  13.330
18478W        W79932  38.950  22.028  12.010
18479W        W79933  31.055  15.236   1.243
18480W        W79934   4.823  24.044  11.867
18481W        W79935  10.191  17.121   4.601
18482W        W79936   7.747   5.410   2.370
18483W        W79937  10.362  22.132  14.853
18484W        W79938  36.041  21.176  11.426
18485W        W79939  25.613  16.154  11.863
18486W        W79940  29.508  34.506  13.866
18487W        W79941  16.292  35.409   2.281
18488W        W79942  37.085  21.168  11.381
18489W        W79943  37.858  38.363  12.411
18490W        W79944   5.244  13.668   2.728
18491W        W79945  24.684   3.364   1.369
18492W        W79946   0.870  22.718   3.750
18493W        W79947  33.551  32.607  14.925
18494W        W79948  26.595   5.399   4.274
18495W        W79949  25.491  26.471   0.261
18496W        W79950  32.491   9.865   0.326
18497W        W79951  10.278  33.880   2.226
18498W        W79952  17.245   5.358  14.014
18499W        W79953   9.246  11.775   0.280
18500W        W79954  22.109  10.150   1.802
18501W        W79955   3.322  39.041  12.872
18502W        W79956  11.799  44.998  13.381
18503W        W79957   4.341   1.874  13.797
18504W        W79958  21.655  29.582  13.879
18505W        W79959   7.251  10.302   2.834
18506W        W79960  36.497  41.401  13.008
18507W        W79961  28.638  21.256   0.876
18508W        W79962  44.924  42.946   4.287
18509W        W79963   8.791  17.781   9.928
18510W        W79964  15.709  11.825  13.819
18511W        W79965  15.308  16.105   3.741
18512W        W79966  25.177  20.682   3.157
18513W        W79967  29.077  39.427   1.765
18514W        W79968   8.671  31.122  11.063
18515W        W79969  43.318  37.929   4.753
18516W        W79970  41.926  15.814  13.405
18517W        W79971   0.844  27.125   0.807
18518W        W79972  40.435  27.665  13.322
18519W        W79973  20.055  15.811   4.824
18520W        W79974   1.819   1.343   1.304
18521W        W79975  42.283   6.242   0.367
18522W        W79976  30.096   8.324   9.483
18523W        W79977  23.985  27.161   4.172
18524W        W79978  39.986  31.067  13.047
18525W        W79979  39.541   8.378   4.685
18526W        W79980  33.896  37.895  12.853
18527W        W79981  26.580   2.932   9.636
18528W        W79982   0.465  42.439  13.850
18529W        W79983  41.798  42.775   1.806
18530W        W79984   4.278  36.569   2.873
18531W        W79985  16.295  40.343   5.646
18532W        W79986   2.855   7.692   3.224
18533W        W79987  25.677  13.132  12.023
18534W        W79988  44.494  32.059  11.540
18535W        W79989   3.858   5.369   2.378
18536W        W79990  41.378  43.874   4.666
18537W        W79991  14.301   4.793  12.872
18538W        W79992  43.946   5.840   2.289
18539W        W79993  10.715   3.908   4.208
18540W        W79994  43.312  13.276  12.468
18541W        W79995   6.887  28.455  12.830
18542W        W79996  21.687  12.744   2.257
18543W        W79997  30.598  36.564   0.744
18544W        W79998  12.685  25.114   3.271
18545W        W79999  14.684  28.021   0.893
18546W        W80000  19.546   5.722  13.859
18547W        W80001  22.562  40.361  14.331
18548W        W80002  15.684   3.241   1.227
18549W        W80003  13.656   1.926   0.779
18550W        W80004  38.878  24.679   2.787
18551W        W80005   7.189  35.066   5.203
18552W        W80006  35.991  21.116  13.541
18553W        W80007  38.017   3.326  12.014
18554W        W80008   3.844  25.581  13.880
18555W        W80009   8.885  17.163  13.002
18556W        W80010  32.950  13.321   3.362
18557W        W80011  34.003  19.699   1.447
18558W        W80012  22.669  16.143   0.730
18559W        W80013   4.274  23.067  10.486
18560W        W80014  32.434  15.708   1.816
18561W        W80015   2.789  22.600  12.006
18562W        W80016  24.548  24.713  12.006
18563W        W80017  40.876  33.587   2.212
18564W        W80018   0.989   6.336   1.793
18565W        W80019  37.398  12.802   1.372
18566W        W80020  32.537  31.490   0.952
18567W        W80021  43.993  11.823  14.329
18568W        W80022  16.785  40.947  13.803
18569W        W80023  15.698  36.465   3.708
18570W        W80024  12.840  35.488   1.370
18571W        W80025  28.471  33.885  11.101
18572W        W80026  18.780  10.179   1.925
18573W        W80027  22.721  16.585  11.530
18574W        W80028  18.767  31.119  11.900
18575W        W80029  19.657  26.182  13.516
18576W        W80030   0.957  18.579   4.262
18577W        W80031  15.151   0.930  11.411
18578W        W80032  25.552  18.600  13.901
18579W        W80033  11.812  19.283  13.325
18580W        W80034  16.735  21.147  12.873
18581W        W80035   8.241  15.588  12.012
18582W        W80036  18.138  13.161   0.250
18583W        W80037  40.372  20.059  14.791
18584W        W80038   7.810  21.070   0.309
18585W        W80039  11.161  32.951  10.540
18586W        W80040  34.945   1.957  11.992
18587W        W80041  33.442   2.268  13.980
18588W        W80042  22.673  40.806   4.136
18589W        W80043  40.320  27.072  13.855
18590W        W80044  20.098  32.072  13.461
18591W        W80045  10.721   1.816  12.869
18592W        W80046  41.908   2.745   3.765
18593W        W80047  20.739  41.906  11.495
18594W        W80048  12.132   9.730   2.693
18595W        W80049  22.174  30.454   1.858
18596W        W80050   2.433  31.589   2.726
18597W        W80051  11.863   0.928  12.413
18598W        W80052   5.259  37.525   3.371
18599W        W80053  42.389  25.073  14.897
18600W        W80054   4.863  12.796  10.102
18601W        W80055  44.859   8.282   2.698
18602W        W80056  30.604  12.806  13.991
18603W        W80057  16.691   7.727   4.236
18604W        W80058  31.150  23.093  11.428
18605W        W80059  10.842   2.837   3.835
18606W        W80060   3.823   0.333   2.730
18607W        W80061  35.414  37.515  11.949
18608W        W80062  32.115   7.844   4.765
18609W        W80063   3.405   5.698  14.316
18610W        W80064  13.310  21.634   0.793
18611W        W80065  16.646  44.459  12.069
18612W        W80066  14.782  44.417  12.000
18613W        W80067   2.464   9.733   2.412
18614W        W80068  42.781  15.726  10.006
18615W        W80069   1.887  26.543   2.731
18616W        W80070  37.070  37.525  10.905
18617W        W80071   7.294   5.895  11.468
18618W        W80072   2.890   2.351  12.967
18619W        W80073  21.256  16.308   2.317
18620W        W80074  37.391  41.494   4.778
18621W        W80075  26.061   0.953   2.684
18622W        W80076   7.890  14.746   4.666
18623W        W80077   4.911  44.386  13.457
18624W        W80078  18.254  36.396   1.358
18625W        W80079   6.712  13.350   0.359
18626W        W80080   8.291   7.807  11.918
18627W        W80081  13.620  44.295  11.872
18628W        W80082   8.820  38.867  11.917
18629W        W80083  40.328  41.321   3.251
18630W        W80084  12.710   4.255   3.327
18631W        W80085   3.393  38.055   4.301
18632W        W80086  25.541  17.112  10.892
18633W        W80087  33.085  36.890  12.495
18634W        W80088  38.020  27.493  13.951
18635W        W80089  17.122  35.096   3.197
18636W        W80090  38.364  31.052  10.532
18637W        W80091  14.273  40.986  11.860
18638W        W80092  33.047  38.436  14.813
18639W        W80093  40.801   2.416   2.793
18640W        W80094   2.301   5.821  10.932
18641W        W80095  22.689  34.951  14.784
18642W        W80096   7.691  42.350   2.743
18643W        W80097   4.873  10.280   3.852
18644W        W80098   6.417  34.380  13.522
18645W        W80099  14.124  13.738   4.727
18646W        W80100  20.120  12.825   1.859
18647W        W80101  27.972  28.036   2.289
18648W        W80102  43.389  26.526  13.005
18649W        W80103  32.502  44.387   2.249
18650W        W80104  35.371  22.633   4.210
18651W        W80105   3.228  32.424  12.066
18652W        W80106  38.824  25.040  14.435
18653W        W80107  35.896   8.783  14.503
18654W        W80108  33.948  33.447   1.908
18655W        W80109  13.633  37.952  12.898
18656W        W80110  22.138  21.595   2.845
18657W        W80111  19.678  36.026   0.441
18658W        W80112  36.473  38.005  10.052
18659W        W80113  25.567  30.971   3.219
18660W        W80114  39.491   3.920   4.786
18661W        W80115  22.519  32.075  11.880
18662W        W80116   9.347  32.468   4.291
18663W        W80117  24.220  36.051   2.369
18664W        W80118  15.221  29.600   4.739
18665W        W80119  18.628  15.583   4.341
18666W        W80120  10.709  10.294  13.800
18667W        W80121   1.887   9.654  10.604
18668W        W80122  41.977  40.435  10.970
18669W        W80123  41.857   1.352   2.361
18670W        W80124  19.242  15.652   1.353
18671W        W80125   7.231  12.710  11.391
18672W        W80126  17.113  23.601  11.467
18673W        W80127  32.594  24.167   4.744
18674W        W80128  18.154   8.683   1.758
18675W        W80129  10.224  16.192  13.886
18676W        W80130  32.605  24.675   2.287
18677W        W80131  11.689  38.556  10.991
18678W        W80132   7.749  17.212  10.568
18679W        W80133   1.888  42.388  14.423
18680W        W80134  40.048  10.836   1.306
18681W        W80135  16.655   6.236  14.393
18682W        W80136   3.241  14.710   4.834
18683W        W80137  44.808   1.928  11.959
18684W        W80138  18.148  19.108  13.968
18685W        W80139  41.371  31.492   2.868
18686W        W80140  39.855   9.203   4.200
18687W        W80141   3.439   7.775  13.318
18688W        W80142  13.719   1.323  10.492
18689W        W80143  17.598  12.283   0.918
18690W        W80144   0.929   3.362   5.277
18691W        W80145  44.851   3.934   1.815
18692W        W80146  42.781  41.331  13.842
18693W        W80147  40.367   4.207  14.788
18694W        W80148  19.701  32.486  11.381
18695W        W80149  41.298   8.737  13.334
18696W        W80150  42.391  15.728  13.024
18697W        W80151  32.572  29.990  13.417
18698W        W80152  33.987  25.699  13.441
18699W        W80153   9.271   5.877   3.698
18700W        W80154  36.361  17.224   0.267
18701W        W80155  37.990  14.753   1.311
18702W        W80156  19.779  18.784  14.936
18703W        W80157   8.679  38.454   1.834
18704W        W80158  30.985   0.897  11.605
18705W        W80159   2.293   1.926   1.744
18706W        W80160  33.519  41.937   1.402
18707W        W80161  26.982  28.090   1.287
18708W        W80162  12.773  24.151   1.276
18709W        W80163  26.559  38.006   2.305
18710W        W80164  23.682  23.714  14.857
18711W        W80165   9.734   6.184   2.294
18712W        W80166  18.670  36.414  13.000
18713W        W80167  33.918  26.028  12.392
18714W        W80168  30.077  36.091   4.351
18715W        W80169   1.919   6.369  12.996
18716W        W80170  31.120   3.347  10.638
18717W        W80171  31.608  16.239  10.983
18718W        W80172  10.637   8.333   0.781
18719W        W80173   5.757  14.255   1.874
18720W        W80174  39.893   7.267  10.617
18721W        W80175  30.097   9.171  14.497
18722W        W80176   4.301  40.433   0.296
18723W        W80177  40.543  31.521   4.787
18724W        W80178  38.332  23.048  13.316
18725W        W80179  13.210  22.024   2.216
18726W        W80180  27.162   2.242   1.854
18727W        W80181  31.482   3.252  12.451
18728W        W80182  22.745  34.900  11.012
18729W        W80183  17.730  35.907   3.789
18730W        W80184   2.275  19.758   3.815
18731W        W80185  16.699  14.774  13.338
18732W        W80186  30.985   1.427  13.059
18733W        W80187  12.697  23.113  12.427
18734W        W80188  19.275  22.167   0.437
18735W        W80189  30.159  27.940   2.316
18736W        W80190  31.436  33.044   2.360
18737W        W80191  25.093  27.628   0.874
18738W        W80192  42.329  36.883  12.928
18739W        W80193  10.224   5.809   2.414
18740W        W80194   4.778   3.350  14.825
18741W        W80195  34.925  24.500  10.909
18742W        W80196   8.880  36.576   3.161
18743W        W80197  37.024   2.933   0.302
18744W        W80198  13.838  25.034  11.953
18745W        W80199  23.638  19.096   4.150
18746W        W80200  31.021  44.284   4.142
18747W        W80201  39.938  14.240   4.159
18748W        W80202  15.742   9.646   3.356
18749W        W80203  23.156  32.998   3.669
18750W        W80204   4.284  29.464   2.235
18751W        W80205   8.756  39.054  12.356
18752W        W80206  42.889  17.586  13.496
18753W        W80207  27.579  37.399  13.341
18754W        W80208  39.023  30.027  11.970
18755W        W80209  24.188  37.065  14.456
18756W        W80210  16.127   4.243   1.297
18757W        W80211  43.789  25.119  12.823
18758W        W80212  15.131   9.769  13.951
18759W        W80213  39.315  28.627   1.811
18760W        W80214  29.058  33.943   9.998
18761W        W80215  12.782  17.718  11.119
18762W        W80216  22.703  40.907  11.469
18763W        W80217  25.113  29.046   3.651
18764W        W80218  21.221  40.373   3.858
18765W        W80219   1.912   9.656  11.522
18766W        W80220  30.437  32.131   0.251
18767W        W80221  36.055  21.135   2.713
18768W        W80222  42.387  32.407   4.651
18769W        W80223  42.335  12.352   3.865
18770W        W80224   3.748  18.607   0.756
18771W        W80225  22.012   8.218  14.429
18772W        W80226   0.834  29.079   2.889
18773W        W80227  21.546  10.157   5.204
18774W        W80228  36.861  41.921   0.296
18775W        W80229   7.388  24.700  12.872
18776W        W80230  19.086  14.740   2.235
18777W        W80231   2.392  14.679  10.953
18778W        W80232  20.530   2.293  11.477
18779W        W80233  41.337   8.694   1.265
18780W        W80234  23.081  32.409   2.294
18781W        W80235   5.852  23.220  11.940
18782W        W80236   9.345   6.692  13.850
18783W        W80237   8.169  38.854   2.756
18784W        W80238  18.221   8.258   4.164
18785W        W80239  21.516  21.126   4.278
18786W        W80240   9.805  42.427   2.872
18787W        W80241   5.374  43.927  12.890
18788W        W80242  28.991  11.177   9.509
18789W        W80243  42.899  11.345   3.743
18790W        W80244  13.732   4.254   1.414
18791W        W80245   2.468   1.791  12.842
18792W        W80246  15.293  38.011   1.780
18793W        W80247  21.103  41.963   3.845
18794W        W80248  34.952   0.354   0.373
18795W        W80249  14.119  22.672  13.817
18796W        W80250  27.591  22.033   2.323
18797W        W80251  21.234  14.748  14.320
18798W        W80252  40.353  18.239   4.799
18799W        W80253  12.209   9.204   3.711
18800W        W80254  20.553   8.705  13.835
18801W        W80255  15.249   2.763  10.899
18802W        W80256  24.168  11.340   1.701
18803W        W80257  28.063  25.557   0.414
18804W        W80258  27.971   3.397  13.449
18805W        W80259  40.802  23.001  14.319
18806W        W80260  12.183  44.261  12.495
18807W        W80261  16.303  25.013   5.302
18808W        W80262  14.153   2.379   4.329
18809W        W80263  29.080  13.281   2.406
18810W        W80264  26.076  36.369   1.790
18811W        W80265  36.981  10.679  11.980
18812W        W80266  17.246  32.556   3.348
18813W        W80267  13.772  40.914   3.644
18814W        W80268  34.606  24.699  12.341
18815W        W80269  39.359  36.509   1.854
18816W        W80270  12.730  16.590   4.344
18817W        W80271  24.588  18.692  11.372
18818W        W80272  26.635   8.775   2.336
18819W        W80273  18.242   4.375   4.757
18820W        W80274  32.528  41.994  14.766
18821W        W80275   9.350  25.978  12.856
18822W        W80276  32.510   4.348   0.259
18823W        W80277  29.548  21.747  11.011
18824W        W80278  12.304  22.212   4.742
18825W        W80279   9.229  43.390  11.427
18826W        W80280  33.998  44.355  14.360
18827W        W80281  28.028   8.225   1.331
18828W        W80282  20.228  27.495  11.552
18829W        W80283   6.267  33.959  14.334
18830W        W80284  29.959  10.182   1.391
18831W        W80285  19.741  26.606   4.337
18832W        W80286  13.810  25.674  12.470
18833W        W80287  31.034   2.770   4.249
18834W        W80288  13.740  38.963  12.952
18835W        W80289  43.787   9.698  12.378
18836W        W80290  16.593  44.331  14.405
18837W        W80291  21.256   4.254  10.605
18838W        W80292  42.331  36.087  14.330
18839W        W80293  20.239  15.320  14.287
18840W        W80294   2.306   2.341   3.677
18841W        W80295  34.990  32.482   0.880
18842W        W80296  27.573   9.351  14.343
18843W        W80297   4.405   7.364   4.221
18844W        W80298   6.775  31.953   2.333
18845W        W80299   8.215   2.905   4.740
18846W        W80300  43.018   8.201  13.382
18847W        W80301  26.067  28.550  14.883
18848W        W80302  16.658  42.437   3.345
18849W        W80303  34.080  35.466  10.912
18850W        W80304  22.184  19.552  12.017
18851W        W80305  11.730   8.733  11.507
18852W        W80306  11.146  32.896   1.848
18853W        W80307  27.119  25.470   0.286
18854W        W80308  27.524  40.441  12.368
18855W        W80309  35.945  37.410  12.071
18856W        W80310  14.252  24.532   2.405
18857W        W80311  18.217  21.263   2.378
18858W        W80312  39.918  36.422  10.959
18859W        W80313  16.110  28.016   4.237
18860W        W80314   2.828  15.610   3.848
18861W        W80315   4.908  21.686  14.912
18862W        W80316   9.697  10.639  13.432
18863W        W80317   8.240  21.649   2.745
18864W        W80318  16.730  19.593  13.391
18865W        W80319  23.705  38.841   2.814
18866W        W80320   1.791  44.820   0.260
18867W        W80321  12.160   4.762  11.398
18868W        W80322  17.772  24.140   2.837
18869W        W80323  23.237  32.072  14.829
18870W        W80324   7.303  11.813  12.498
18871W        W80325  18.117   8.661   3.843
18872W        W80326  10.210  23.173   2.876
18873W        W80327  35.892  19.274   2.387
18874W        W80328  30.528   6.752   2.674
18875W        W80329  35.854  14.147   0.754
18876W        W80330  24.480   4.444  12.939
18877W        W80331   5.331   9.374   3.670
18878W        W80332  24.486  37.366   3.316
18879W        W80333  42.309  13.329  12.032
18880W        W80334  30.115  22.006   2.787
18881W        W80335  13.819   6.211   2.813
18882W        W80336   9.239  14.175  11.895
18883W        W80337  25.659   2.241   1.283
18884W        W80338  17.796  17.752  11.119
18885W        W80339  22.577   6.790  14.334
18886W        W80340  16.149  28.449   2.816
18887W        W80341  23.708  40.044   3.868
18888W        W80342  39.476   7.199   3.247
18889W        W80343  37.922  18.557   1.868
18890W        W80344  29.137  21.625   0.468
18891W        W80345  20.595  25.685  11.477
18892W        W80346  34.974  10.646  11.126
18893W        W80347   0.827  23.659   0.350
18894W        W80348   9.157  22.646   1.917
18895W        W80349  37.937  10.756   3.751
18896W        W80350  10.649  39.015   4.702
18897W        W80351  10.224  31.585  12.839
18898W        W80352  34.511  34.920   1.934
18899W        W80353  22.092  33.592   4.311
18900W        W80354  11.857  14.638   3.273
18901W        W80355  13.639  15.088   3.224
18902W        W80356  11.670  39.925   3.714
18903W        W80357  43.405  34.403  11.023
18904W        W80358  25.592  32.900  10.104
18905W        W80359  30.041   9.325  13.465
18906W        W80360  36.434  41.491  10.451
18907W        W80361  41.472  44.834   1.903
18908W        W80362   3.255  15.273   3.159
18909W        W80363  42.959  19.677  11.376
18910W        W80364  27.954  32.489   9.448
18911W        W80365  12.187  35.942  14.363
18912W        W80366   8.188  13.752  10.609
18913W        W80367   5.816  32.419  10.418
18914W        W80368  41.454  32.512  12.881
18915W        W80369  14.206  20.601  13.447
18916W        W80370  42.828  16.189  11.551
18917W        W80371  18.116  19.073   4.770
18918W        W80372  21.541  20.539  10.517
18919W        W80373  41.427   1.777   0.800
18920W        W80374  26.069   3.294  12.944
18921W        W80375  22.580   4.751   1.786
18922W        W80376  42.406  15.227  13.043
18923W        W80377  36.449  15.627  11.440
18924W        W80378   8.730  44.861   3.177
18925W        W80379  15.634  41.331   4.725
18926W        W80380  35.085  13.318  14.802
18927W        W80381  21.069   9.668  14.420
18928W        W80382  30.092   6.719   3.645
18929W        W80383  22.581  15.270   1.276
18930W        W80384   7.906  39.383  10.539
18931W        W80385   3.380  36.451   2.681
18932W        W80386  37.561  27.035   4.673
18933W        W80387  41.816  21.041  12.056
18934W        W80388  38.855  13.817  13.793
18935W        W80389   6.274  27.043   0.437
18936W        W80390   1.286  13.688  12.844
18937W        W80391  22.117  17.262   1.281
18938W        W80392  25.540  37.837  14.439
18939W        W80393  15.688  43.490  14.302
18940W        W80394  23.032  43.845   3.632
18941W        W80395  30.156  38.443   3.824
18942W        W80396  28.630  44.787   3.336
18943W        W80397  30.438  14.644   0.471
18944W        W80398  38.506  30.534  13.822
18945W        W80399   7.701   4.819  13.505
18946W        W80400  24.127  27.094   2.186
18947W        W80401  28.581  28.180  11.556
18948W        W80402  38.543   4.204  12.488
18949W        W80403  41.368  34.455   1.355
18950W        W80404  39.486  30.582  10.514
18951W        W80405  19.093  32.601   0.825
18952W        W80406   6.810  42.305   4.148
18953W        W80407   4.839  43.430   4.202
18954W        W80408   7.796  10.233   2.896
18955W        W80409  38.542   0.407  10.611
18956W        W80410  37.076   7.264  13.474
18957W        W80411  15.150  30.650   4.228
18958W        W80412  22.684  24.104  14.910
18959W        W80413  39.554   3.223   3.385
18960W        W80414  22.166  43.971   3.176
18961W        W80415  35.050  25.067  13.000
18962W        W80416  16.239  22.013  13.383
18963W        W80417  24.168  17.271  14.848
18964W        W80418   1.282  10.644  14.353
18965W        W80419  41.336  36.004  14.507
18966W        W80420  10.323   2.449  10.499
18967W        W80421  33.046  27.537  13.860
18968W        W80422   7.796  42.482  10.518
18969W        W80423  11.306  30.973  12.352
18970W        W80424  23.111   0.820  12.576
18971W        W80425  33.946   9.353   4.764
18972W        W80426  42.373  38.542   2.775
18973W        W80427   1.291  29.555   4.333
18974W        W80428  10.349   0.836   5.081
18975W        W80429  41.852  36.003  10.988
18976W        W80430  17.650   1.339   1.247
18977W        W80431  25.019  38.359  13.356
18978W        W80432   0.414  16.192   1.784
18979W        W80433  31.065  17.239   1.800
18980W        W80434  30.657  31.526  13.020
18981W        W80435  44.000  10.635  14.294
18982W        W80436  20.192  32.615   2.698
18983W        W80437   0.974  24.496  13.982
18984W        W80438  33.621  11.241  13.063
18985W        W80439  26.985  14.288   3.280
18986W        W80440  24.029  12.781  12.053
18987W        W80441  22.101  26.676   1.268
18988W        W80442  29.166   5.361  14.836
18989W        W80443  31.956  31.097   1.406
18990W        W80444  12.168  25.136  11.598
18991W        W80445  12.758  32.009  11.095
18992W        W80446  29.595  26.063  14.032
18993W        W80447   3.242  37.560  13.382
18994W        W80448  20.131   6.888   3.779
18995W        W80449  40.469  19.712  10.485
18996W        W80450   3.796  23.205   2.845
18997W        W80451  23.649  25.133   2.750
18998W        W80452  20.587  18.710   2.369
18999W        W80453  35.565  40.951  11.470
19000W        W80454   4.726  15.283   1.769
19001W        W80455  16.237   8.896  13.474
19002W        W80456  41.964   7.375   0.844
19003W        W80457  14.213  18.243  12.570
19004W        W80458   1.837  28.648   2.668
19005W        W80459  27.149  26.109  11.452
19006W        W80460  16.679  38.976   1.374
19007W        W80461   2.431  24.137   1.923
19008W        W80462  11.157   9.728  11.609
19009W        W80463  39.950  30.001  12.419
19010W        W80464  24.223  20.053  14.810
19011W        W80465  17.290  44.341   2.241
19012W        W80466  20.182  26.099  14.874
19013W        W80467  13.751  17.626   1.340
19014W        W80468  26.465  30.026  13.314
19015W        W80469  39.955  19.087   2.849
19016W        W80470  40.966  23.607  10.458
19017W        W80471  23.122  44.355   1.252
19018W        W80472  25.137  14.131  10.897
19019W        W80473   3.792   1.900  14.009
19020W        W80474  41.327  38.853  12.926
19021W        W80475  23.239   8.294  11.866
19022W        W80476  17.082   5.763   0.258
19023W        W80477  23.152  43.272  12.942
19024W        W80478  40.914  41.838   4.618
19025W        W80479  32.492  15.583   1.427
19026W        W80480  11.789   9.197  10.489
19027W        W80481  15.701   9.336   5.122
19028W        W80482   6.399  34.975   4.283
19029W        W80483  18.115   1.740   4.322
19030W        W80484  41.915  28.979  14.791
19031W        W80485  10.206  29.598  10.938
19032W        W80486  23.131   6.331   0.424
19033W        W80487   7.712  30.577  14.304
19034W        W80488   3.877   3.320   2.809
19035W        W80489  37.841   9.393   0.967
19036W        W80490  34.398  15.253  14.452
19037W        W80491  39.420  43.285  13.820
19038W        W80492  40.922  28.028   0.944
19039W        W80493   8.183  31.907   1.379
19040W        W80494  41.982  29.643  14.917
19041W        W80495  36.455  16.222   1.377
19042W        W80496  10.323  32.923  13.019
19043W        W80497  15.621  36.504   2.181
19044W        W80498   3.333  10.815  12.356
19045W        W80499   4.224   4.353   2.803
19046W        W80500  40.853  14.831   0.375
19047W        W80501  16.163   6.844  11.084
19048W        W80502  28.999  30.122   2.182
19049W        W80503  32.591  38.547  14.458
19050W        W80504   3.403  40.470  14.909
19051W        W80505   9.849  23.590  11.062
19052W        W80506  29.588  43.332  10.561
19053W        W80507  30.037  30.027  14.386
19054W        W80508  16.217  36.522   0.729
19055W        W80509  30.493   2.734  11.955
19056W        W80510  28.480  29.042  14.344
19057W        W80511   5.915  16.199   1.815
19058W        W80512  37.362  35.457   4.699
19059W        W80513  23.573  40.894  13.942
19060W        W80514   0.926  38.872   3.772
19061W        W80515   4.205  13.622   4.200
19062W        W80516  13.344  13.839   0.347
19063W        W80517   7.393   1.475   0.270
19064W        W80518  38.032  26.995   4.169
19065W        W80519  44.007  35.016   2.763
19066W        W80520  33.503  28.123  14.905
19067W        W80521  14.321  22.707   0.921
19068W        W80522  22.531   8.817   2.684
19069W        W80523  39.483  43.818   0.408
19070W        W80524  42.356  38.495  13.898
19071W        W80525  37.544   4.379  13.880
19072W        W80526  26.105   1.897   0.835
19073W        W80527   3.777  34.075   2.417
19074W        W80528  35.598  33.097   0.362
19075W        W80529  40.918  13.269  10.547
19076W        W80530  29.039  30.155   1.374
19077W        W80531  22.582  36.591  10.932
19078W        W80532  13.727  16.106  10.913
19079W        W80533  15.088  40.900  10.149
19080W        W80534  39.022  43.282  10.468
19081W        W80535  30.086   3.792  11.371
19082W        W80536  43.818  38.481   1.212
19083W        W80537  35.519  43.452  11.064
19084W        W80538  33.983  37.038  12.357
19085W        W80539  24.705  43.400  11.041
19086W        W80540  22.112  39.466  14.278
19087W        W80541  16.249  26.514  12.474
19088W        W80542  12.340   2.728   3.659
19089W        W80543  29.079  12.629  14.404
19090W        W80544  11.369  16.642  12.430
19091W        W80545  44.832   8.678   5.093
19092W        W80546  14.812  21.050   1.888
19093W        W80547  21.184  41.294  12.945
19094W        W80548  34.878  15.094  12.369
19095W        W80549  44.914  44.432  10.449
19096W        W80550   7.811  16.709   1.832
19097W        W80551  23.053   6.691  10.911
19098W        W80552  30.044  24.048   2.197
19099W        W80553   0.839  22.692  10.065
19100W        W80554  23.681  12.140   4.163
19101W        W80555  10.826   1.443  11.418
19102W        W80556  29.576  12.719  10.120
19103W        W80557  26.685  34.044  14.345
19104W        W80558  24.157  42.790   4.742
19105W        W80559  13.205  24.630   1.935
19106W        W80560  10.749  12.131  14.815
19107W        W80561   2.276  36.418  12.348
19108W        W80562  38.338  25.169  11.888
19109W        W80563  14.325  25.078   0.833
19110W        W80564   9.869  32.928   0.863
19111W        W80565  44.008  34.565   2.815
19112W        W80566  38.388   7.325  13.398
19113W        W80567  20.645   1.360   1.238
19114W        W80568  29.527  33.544   3.256
19115W        W80569  21.546  24.118  14.424
19116W        W80570  22.696  32.471   3.358
19117W        W80571  41.500  29.941   1.851
19118W        W80572  39.986   9.889  10.603
19119W        W80573  21.722  40.426  10.624
19120W        W80574  14.812  43.903  13.453
19121W        W80575  40.464   5.262  14.317
19122W        W80576  19.132  32.426  13.505
19123W        W80577   9.850  14.812   1.432
19124W        W80578  21.733   6.735   9.609
19125W        W80579  43.969   5.416  12.480
19126W        W80580  30.097  31.085   1.826
19127W        W80581  38.999  17.632   3.731
19128W        W80582  43.931  27.120   3.163
19129W        W80583  16.751  16.783   2.212
19130W        W80584  43.446  31.511   1.344
19131W        W80585  41.852  30.148  13.949
19132W        W80586  15.094  41.804   0.348
19133W        W80587   0.884  16.128  11.603
19134W        W80588  18.652  44.956   4.244
19135W        W80589  30.575  22.683   2.756
19136W        W80590  14.179  36.096   1.842
19137W        W80591  28.457  41.957  14.776
19138W        W80592  19.734  37.494   4.710
19139W        W80593  32.575   2.245  13.486
19140W        W80594  18.150  10.736  13.546
19141W        W80595  25.962  28.099  12.080
19142W        W80596  26.956  34.079   0.256
19143W        W80597  37.568  34.863  10.986
19144W        W80598  44.829  23.531   2.306
19145W        W80599   4.942  11.245  11.001
19146W        W80600  19.664  35.535   2.302
19147W        W80601  28.641  27.607   2.241
19148W        W80602  29.461  12.218  12.562
19149W        W80603  39.965  25.645  11.060
19150W        W80604  34.479  19.205   2.300
19151W        W80605  15.820  25.102  11.968
19152W        W80606   7.414  30.140  12.045
19153W        W80607  20.735  26.547   3.740
19154W        W80608  16.263   3.420  14.287
19155W        W80609  44.414  28.007   2.272
19156W        W80610  20.583  16.728   2.816
19157W        W80611  28.528  13.694  12.964
19158W        W80612  32.402  17.701   0.386
19159W        W80613  37.494  22.082   0.433
19160W        W80614  12.790  22.227  13.441
19161W        W80615  13.328  14.242   2.209
19162W        W80616  36.358  16.794  11.014
19163W        W80617  41.977  41.973   4.686
19164W        W80618   4.714  38.874   0.461
19165W        W80619  38.520  32.411   3.386
19166W        W80620   9.182   2.251   0.796
19167W        W80621  44.783  23.651   1.758
19168W        W80622   0.841  27.657  14.421
19169W        W80623  27.492  34.377   3.374
19170W        W80624   2.799   4.829  13.484
19171W        W80625  13.701  30.018  14.915
19172W        W80626  19.696  22.526  11.592
19173W        W80627  17.206  42.358  10.474
19174W        W80628  37.425  38.512   2.832
19175W        W80629  25.522  30.580   2.343
19176W        W80630  18.568  41.377  10.151
19177W        W80631  34.437  13.705   4.329
19178W        W80632  18.648  22.734  12.046
19179W        W80633  43.440  18.782  13.938
19180W        W80634  27.171  44.891  10.483
19181W        W80635   3.714  37.975  10.641
19182W        W80636  19.138  15.701   0.728
19183W        W80637  30.924  14.629  12.510
19184W        W80638  19.730   6.701   3.319
19185W        W80639   1.350  26.634   1.839
19186W        W80640  17.620  37.417   0.255
19187W        W80641  29.525  44.902  13.935
19188W        W80642  14.224  26.195   2.280
19189W        W80643  30.160  20.522   2.662
19190W        W80644  12.169  11.829   4.599
19191W        W80645   3.322   1.757   4.344
19192W        W80646  38.831  22.515  14.010
19193W        W80647  11.796   4.739  13.968
19194W        W80648  32.889  13.112   3.730
19195W        W80649  12.706  14.606   3.862
19196W        W80650   7.195  36.469  13.042
19197W        W80651  24.007  15.610   0.365
19198W        W80652  14.294   2.741  11.074
19199W        W80653  43.468   0.885   1.880
19200W        W80654  18.075   0.452   2.338
19201W        W80655  21.262  10.662   0.938
19202W        W80656  21.136  18.621   4.158
19203W        W80657  16.096   3.741  14.303
19204W        W80658  31.983  14.594  12.460
19205W        W80659  30.948   3.242   1.898
19206W        W80660   5.715  30.460  12.941
19207W        W80661   8.698  35.062   1.776
19208W        W80662   6.805  41.360  10.989
19209W        W80663  10.866  26.098  12.026
19210W        W80664  32.429  42.874  13.056
19211W        W80665  28.013  31.963   1.422
19212W        W80666  10.197  42.982   4.719
19213W        W80667  28.661  20.573  13.994
19214W        W80668  41.848   7.832  12.090
19215W        W80669   0.304   5.914  13.499
19216W        W80670  43.370  29.980  11.891
19217W        W80671  12.691  30.954   1.809
19218W        W80672  38.354   3.725   1.333
19219W        W80673  31.602  27.508   4.734
19220W        W80674   7.241  15.132  14.962
19221W        W80675  28.094   1.810   2.401
19222W        W80676  42.489  13.628   1.234
19223W        W80677  39.056  27.545  11.877
19224W        W80678  23.090  14.192  11.125
19225W        W80679  21.557  37.392  13.432
19226W        W80680  38.852  31.487  14.003
19227W        W80681  42.384  17.076   3.239
19228W        W80682  23.497  13.603   3.822
19229W        W80683   4.767  14.182   3.211
19230W        W80684  41.787  33.899   3.347
19231W        W80685  19.113  34.565  11.896
19232W        W80686  35.905  34.050   3.728
19233W        W80687  42.792  24.123  13.512
19234W        W80688   4.814   3.432  12.481
19235W        W80689  23.239   2.914  11.913
19236W        W80690  23.091  39.938  14.435
19237W        W80691  37.051  24.684  13.442
19238W        W80692  17.581  26.507  11.417
19239W        W80693  35.922   2.378  12.017
19240W        W80694   4.846  20.161   3.636
19241W        W80695   6.212  23.048   2.339
19242W        W80696  38.859  32.985  11.106
19243W        W80697   2.339  40.414   3.163
19244W        W80698  28.445  27.587  12.841
19245W        W80699  42.453  26.964  12.397
19246W        W80700   6.215  24.096   3.765
19247W        W80701  31.004  30.579   0.284
19248W        W80702  23.511  18.085   0.793
19249W        W80703  30.091   3.821  14.473
19250W        W80704  23.092  11.653   1.224
19251W        W80705  22.519  40.376   1.732
19252W        W80706   5.795  38.821  11.107
19253W        W80707  27.588  27.013  13.868
19254W        W80708  22.037  16.189   4.728
19255W        W80709   1.461  25.551  13.918
19256W        W80710   5.831  15.230  14.886
19257W        W80711  19.562  38.953   3.702
19258W        W80712  43.860  34.930  13.439
19259W        W80713  31.989  28.587   3.858
19260W        W80714  11.205  24.159  12.050
19261W        W80715   4.260   8.848   0.431
19262W        W80716   2.237  20.614  11.058
19263W        W80717  31.590   4.939   4.143
19264W        W80718  14.204  22.135  12.033
19265W        W80719   0.789  44.766   4.631
19266W        W80720  11.260  43.817  13.413
19267W        W80721  11.786  41.954   3.807
19268W        W80722  22.251  34.404   2.407
19269W        W80723  20.523   9.846  11.901
19270W        W80724  16.606  32.563  14.871
19271W        W80725  24.580  44.770  14.277
19272W        W80726   9.837   4.447  13.367
19273W        W80727  12.205   2.377  10.588
19274W        W80728  22.697  40.034  11.550
19275W        W80729   9.242  24.713  14.377
19276W        W80730   2.464   1.432   3.276
19277W        W80731  34.994  26.564  11.030
19278W        W80732  42.880  22.080  11.101
19279W        W80733  24.030  40.871   0.917
19280W        W80734   3.758   8.319  12.431
19281W        W80735  15.647  36.447  11.042
19282W        W80736  26.050  23.040   3.816
19283W        W80737  26.489  17.061   4.246
19284W        W80738  26.121  12.846  11.021
19285W        W80739  36.508   6.371  12.482
19286W        W80740   9.204  39.024  11.540
19287W        W80741  27.650   4.234   2.862
19288W        W80742  41.963  15.666  14.443
19289W        W80743  14.651  44.486   0.458
19290W        W80744  24.130  24.059   1.273
19291W        W80745  34.983  25.170   1.704
19292W        W80746  24.064  13.822  11.956
19293W        W80747  36.004   1.915  12.016
19294W        W80748  14.810  29.150   4.138
19295W        W80749  10.822  40.334   3.217
19296W        W80750  24.218  42.788  12.852
19297W        W80751   6.296  25.194   5.110
19298W        W80752   5.735  15.676   3.264
19299W        W80753  20.698  15.788   0.454
19300W        W80754  34.926  29.127  11.071
19301W        W80755  38.462   1.313   0.874
19302W        W80756  26.021   5.397   0.247
19303W        W80757  14.681  43.382  13.505
19304W        W80758   4.903  12.721   1.333
19305W        W80759  28.942  15.144   1.272
19306W        W80760  14.651  30.981  12.491
19307W        W80761  16.586  44.983  11.383
19308W        W80762  41.356  24.226  11.985
19309W        W80763  41.396  13.114  14.996
19310W        W80764  34.903  13.803   3.339
19311W        W80765  18.690  40.936   2.800
19312W        W80766  35.506   2.891  13.881
19313W        W80767   8.784   4.928   3.651
19314W        W80768  21.728  44.458  11.455
19315W        W80769  43.405  26.057  13.953
19316W        W80770  33.948  10.236   2.294
19317W        W80771   6.365  20.736  14.875
19318W        W80772  10.246  27.478   3.643
19319W        W80773  14.795   8.229   3.348
19320W        W80774  26.055  41.426  12.018
19321W        W80775  19.280  29.514  13.926
19322W        W80776  32.451  33.503  12.920
19323W        W80777   5.398  42.314  12.448
19324W        W80778   9.149   6.330  11.091
19325W        W80779  15.208   9.774   4.349
19326W        W80780   5.309   5.783  11.017
19327W        W80781   8.728   4.877  14.411
19328W        W80782  16.691  22.203   1.922
19329W        W80783  21.686  41.848  10.515
19330W        W80784  13.734  16.143  13.848
19331W        W80785  44.273   1.445  11.940
19332W        W80786  40.008  27.963  14.929
19333W        W80787  14.712  22.615   1.886
19334W        W80788  28.026   6.390   2.266
19335W        W80789  22.135  14.134  13.478
19336W        W80790  11.771  32.954   2.798
19337W        W80791  14.275  18.579   0.732
19338W        W80792   2.756  14.820   0.788
19339W        W80793  32.017  36.543   1.750
19340W        W80794  34.104   3.319   4.165
19341W        W80795  11.285   2.926  12.006
19342W        W80796  24.103  31.066   4.788
19343W        W80797  37.547   8.321   3.360
19344W        W80798  16.753  27.527  14.287
19345W        W80799  39.854  42.284  10.893
19346W        W80800   3.361  40.849  12.432
19347W        W80801  18.157   5.688   4.330
19348W        W80802  28.592  37.367  14.343
19349W        W80803   4.714  25.030  12.065
19350W        W80804   6.253  26.554  10.430
19351W        W80805  20.183  19.273   4.693
19352W        W80806  15.094  11.679  12.825
19353W        W80807  20.211  25.561   4.616
19354W        W80808   3.346   0.970  12.372
19355W        W80809  34.472  21.671  14.944
19356W        W80810  24.069  27.952   0.347
19357W        W80811  23.545  33.884   4.278
19358W        W80812   2.238  33.112   4.604
19359W        W80813  21.201  34.894  13.035
19360W        W80814  29.494  23.636   0.415
19361W        W80815  40.486  18.660  13.003
19362W        W80816   9.682  41.859   4.201
19363W        W80817  25.976  23.085   9.958
19364W        W80818  28.628  14.309  11.961
19365W        W80819  11.707  16.198  11.886
19366W        W80820  26.093  40.046   1.772
19367W        W80821  18.711  20.168   0.852
19368W        W80822  24.144  41.423  13.505
19369W        W80823  29.427   5.855  12.548
19370W        W80824   2.797  25.660   1.732
19371W        W80825   7.706  26.489   3.347
19372W        W80826  36.060  41.837   3.768
19373W        W80827  14.114  40.549  14.880
19374W        W80828  39.994   1.356  13.422
19375W        W80829  37.885  19.707  11.548
19376W        W80830  37.084  43.871   3.651
19377W        W80831  20.227  40.994  13.337
19378W        W80832  33.595   6.183  14.974
19379W        W80833   7.191  28.089  14.764
19380W        W80834  37.378  22.110  10.149
19381W        W80835  40.871  25.697  10.490
19382W        W80836  36.582  18.785  10.471
19383W        W80837  35.603  21.592   3.244
19384W        W80838  11.227  34.923   9.975
19385W        W80839  41.409  11.710  11.892
19386W        W80840  17.715  22.081  10.586
19387W        W80841  33.620  33.971  11.433
19388W        W80842  34.570  34.542  11.993
19389W        W80843  38.051  10.749  12.355
19390W        W80844  44.383   2.418  12.454
19391W        W80845  22.049  34.869   2.773
19392W        W80846  13.339  25.550   3.219
19393W        W80847  42.911  27.970   1.399
19394W        W80848   5.345  12.340   0.909
19395W        W80849  43.474   4.225   2.234
19396W        W80850  38.828  19.273   4.184
19397W        W80851  10.813  18.594   0.949
19398W        W80852  31.967  24.126   3.356
19399W        W80853   0.421   9.182  11.124
19400W        W80854  42.825  35.425   1.773
19401W        W80855  18.593  29.087  14.351
19402W        W80856  30.002  20.529  13.490
19403W        W80857   3.744   9.854   2.872
19404W        W80858  32.577  40.054   3.378
19405W        W80859  33.049  23.156  12.079
19406W        W80860   0.382  33.401  12.884
19407W        W80861  33.973  15.817   1.246
19408W        W80862  20.041   3.892  11.102
19409W        W80863  10.361  35.448   0.924
19410W        W80864  28.060   6.895  14.504
19411W        W80865  36.369   4.907   0.359
19412W        W80866  24.193  14.104  12.016
19413W        W80867  31.447  15.814   2.831
19414W        W80868  26.176  31.644  10.566
19415W        W80869  15.221  25.029   0.869
19416W        W80870  33.626  12.262  10.894
19417W        W80871  10.369  38.518   1.257
19418W        W80872  28.170  43.802   0.297
19419W        W80873  39.909   4.800   3.274
19420W        W80874  11.292  32.520   2.869
19421W        W80875  15.303  18.769   3.156
19422W        W80876  34.973  13.155  10.604
19423W        W80877   1.443  35.465   2.267
19424W        W80878   4.852  10.208  13.826
19425W        W80879  29.118   9.183  14.016
19426W        W80880  39.022  23.993   2.187
19427W        W80881  39.861  13.782  11.089
19428W        W80882  39.331  18.090  11.944
19429W        W80883  35.024  13.669  11.472
19430W        W80884  15.606  36.392  12.030
19431W        W80885  21.184  44.276   2.712
19432W        W80886  26.018  39.365   1.737
19433W        W80887  34.061  14.294   0.823
19434W        W80888  40.378  15.201  13.413
19435W        W80889  37.528  18.576   1.387
19436W        W80890  37.945  35.425   0.765
19437W        W80891  43.372  21.254   4.198
19438W        W80892  44.483  11.691   5.270
19439W        W80893  31.113   6.689  13.930
19440W        W80894   5.346   5.376  10.563
19441W        W80895   1.976   6.222  14.974
19442W        W80896  15.588  15.624  13.385
19443W        W80897  27.187  43.765   0.826
19444W        W80898  18.204   1.391   2.805
19445W        W80899  16.776   0.476   0.387
19446W        W80900  34.995  39.966  12.417
19447W        W80901  33.941  14.796   1.436
19448W        W80902  39.491  42.819   4.809
19449W        W80903   0.323   7.834   2.186
19450W        W80904   1.251   3.337   5.290
19451W        W80905   0.976   6.679  13.461
19452W        W80906   8.874  37.993   3.297
19453W        W80907  23.489   7.825  12.361
19454W        W80908   2.839  19.214   3.259
19455W        W80909   2.746   5.725   2.711
19456W        W80910   7.774  16.598   1.249
19457W        W80911  43.927  11.745  10.903
19458W        W80912   3.216  40.447  13.466
19459W        W80913  32.481  25.543   0.810
19460W        W80914  39.981   5.839   0.770
19461W        W80915  24.058  20.030  12.342
19462W        W80916  19.650  12.229   2.830
19463W        W80917  35.402  32.125  14.879
19464W        W80918   9.271  17.599  11.371
19465W        W80919   7.667  34.911   3.158
19466W        W80920  38.971  37.509   2.373
19467W        W80921   8.164   1.248  12.357
19468W        W80922  12.756  20.132   0.821
19469W        W80923  30.521   4.745  14.778
19470W        W80924  26.082  11.162  14.490
19471W        W80925  39.378  38.875  14.418
19472W        W80926   5.413  24.691  14.496
19473W        W80927  15.813  29.598  10.419
19474W        W80928   5.830  36.438   0.311
19475W        W80929  14.735  17.641  14.865
19476W        W80930  40.881  38.909   2.737
19477W        W80931   7.752   1.869   1.874
19478W        W80932   8.289   7.715   3.223
19479W        W80933  10.751  14.824  13.808
19480W        W80934  40.976  30.558   0.406
19481W        W80935  17.303  11.141  13.064
19482W        W80936   8.812   8.298   3.282
19483W        W80937  32.028  40.515   0.328
19484W        W80938  39.048   6.380   0.291
19485W        W80939  41.336  44.407   3.768
19486W        W80940  31.104   3.279   4.789
19487W        W80941   4.352   0.401   3.291
19488W        W80942   5.877  23.665   1.421
19489W        W80943   9.180  43.907  13.897
19490W        W80944  37.352  33.103  12.416
19491W        W80945  43.846   6.769  14.429
19492W        W80946  38.903  27.475  13.390
19493W        W80947  14.324  13.661  13.857
19494W        W80948  35.894   4.781  10.602
19495W        W80949   6.917  10.874   0.816
19496W        W80950  34.533   7.677   4.830
19497W        W80951   8.689   5.776  10.617
19498W        W80952  40.337  25.612   4.753
19499W        W80953   5.720  27.540   0.376
19500W        W80954  35.894  15.201  10.575
19501W        W80955  34.978  21.659  10.573
19502W        W80956   0.841  15.693   1.821
19503W        W80957  12.133  19.068  10.641
19504W        W80958  10.254  25.487   1.737
19505W        W80959   2.425  41.994  14.997
19506W        W80960  36.937  17.135   2.859
19507W        W80961  28.118  23.614  13.851
19508W        W80962  18.203  35.902   1.724
19509W        W80963  14.662  39.864  13.443
19510W        W80964  32.967   3.313   5.272
19511W        W80965  28.612  21.709   9.665
19512W        W80966  41.996  12.775   3.735
19513W        W80967  44.971  15.589  13.506
19514W        W80968  38.523  27.019  13.908
19515W        W80969  23.524  19.125  13.312
19516W        W80970  42.825  29.453  12.348
19517W        W80971  36.899  14.796   2.873
19518W        W80972  18.620   8.777   0.329
19519W        W80973  10.711  21.247   4.250
19520W        W80974  15.117  15.097  11.032
19521W        W80975  12.212  13.672   4.214
19522W        W80976  36.452  40.011   5.698
19523W        W80977   7.176  37.545  12.523
19524W        W80978   1.772  14.791   3.692
19525W        W80979  35.481  20.639  12.572
19526W        W80980   9.705  21.195  11.540
19527W        W80981   2.467  24.167   2.677
19528W        W80982  41.292  31.956   0.897
19529W        W80983  23.560   4.820  11.504
19530W        W80984  10.873   0.889  13.902
19531W        W80985  37.484  36.348   0.466
19532W        W80986  41.997  44.286   0.879
19533W        W80987  27.448   3.776   3.773
19534W        W80988  21.722  24.973   0.339
19535W        W80989  41.483  30.978  13.981
19536W        W80990   8.232   7.282  11.427
19537W        W80991  43.916  38.922   0.369
19538W        W80992  27.118  38.989  10.076
19539W        W80993  16.159  38.040   0.279
19540W        W80994  33.388  11.744  12.446
19541W        W80995  19.195  10.249   4.769
19542W        W80996   1.287   9.709  12.344
19543W        W80997   6.892   0.981   2.251
19544W        W80998  31.503  17.647   2.899
19545W        W80999  39.837  31.968  13.440
19546W        W81000  11.740  30.611  14.910
19547W        W81001  29.169  18.670   3.648
19548W        W81002  15.192  24.556  10.951
19549W        W81003  12.764   5.349   3.722
19550W        W81004  25.099  25.479  10.143
19551W        W81005  40.334  35.516  11.900
19552W        W81006  26.693  28.150  14.418
19553W        W81007  26.061   9.362  14.856
19554W        W81008  38.493   8.221   4.278
19555W        W81009   3.865  44.346   2.866
19556W        W81010  40.534  15.593  14.464
19557W        W81011  39.516  28.968  11.454
19558W        W81012   7.271  30.427  10.560
19559W        W81013  41.843  25.992  13.865
19560W        W81014  42.796  21.186  10.540
19561W        W81015  15.258   4.331   2.391
19562W        W81016  18.146  19.633  13.062
19563W        W81017   0.386  41.491   3.248
19564W        W81018  21.249   7.768  12.496
19565W        W81019  15.301  30.996  13.337
19566W        W81020  36.863  43.283  14.829
19567W        W81021  13.279   5.874   2.889
19568W        W81022  20.662  34.391  12.343
19569W        W81023   4.744   4.880  11.033
19570W        W81024  44.909  22.165   2.337
19571W        W81025  39.352  11.800   1.286
19572W        W81026  13.686  11.854   2.245
19573W        W81027  24.198   4.257   3.150
19574W        W81028  42.428   9.269   4.115
19575W        W81029  14.693  11.249  12.459
19576W        W81030  38.948  10.348  13.873
19577W        W81031  26.549  16.196   0.745
19578W        W81032  38.523  44.345   9.936
19579W        W81033   1.320   4.283  11.527
19580W        W81034  44.802  21.625  12.516
19581W        W81035  36.435  31.573   0.913
19582W        W81036  39.816  30.523   3.743
19583W        W81037  16.722  38.398   4.722
19584W        W81038  36.381  24.622  14.326
19585W        W81039  16.155  34.590  14.430
19586W        W81040  40.395  16.735  13.862
19587W        W81041  19.196   1.310  12.063
19588W        W81042  20.129   8.767   0.784
19589W        W81043  18.737   1.240  14.022
19590W        W81044   5.730   7.737   0.774
19591W        W81045  28.458  30.949   2.854
19592W        W81046  14.094   0.404   0.730
19593W        W81047  30.657  36.011   3.839
19594W        W81048   6.736  24.062   4.626
19595W        W81049  34.438   5.761   0.304
19596W        W81050   0.350   5.854   0.778
19597W        W81051  27.445  27.084   4.278
19598W        W81052  34.056  11.271   3.228
19599W        W81053  15.770  10.216   5.242
19600W        W81054   9.649   7.787  11.084
19601W        W81055   8.386   8.391   0.855
19602W        W81056  33.605  32.993   3.273
19603W        W81057  42.364   6.309  12.906
19604W        W81058   2.257  28.961  13.932
19605W        W81059   0.960  25.501  11.903
19606W        W81060   0.945  24.018  10.129
19607W        W81061  15.262  17.273   3.208
19608W        W81062   6.352   7.291   0.453
19609W        W81063  26.965  15.204  12.470
19610W        W81064  29.031  43.822   4.695
19611W        W81065  16.678  30.562  11.488
19612W        W81066  12.340  21.595   3.719
19613W        W81067  36.408  44.456   5.319
19614W        W81068  27.074   0.847  14.939
19615W        W81069  26.684  11.829  14.978
19616W        W81070  19.716  29.105  13.063
19617W        W81071  15.755  10.642  10.496
19618W        W81072   1.771   6.252   4.154
19619W        W81073  39.347  37.908  12.853
19620W        W81074  23.196   0.302  14.320
19621W        W81075   5.381  41.844   4.769
19622W        W81076  16.109  22.072   1.405
19623W        W81077  23.633  24.684   0.944
19624W        W81078   8.206  30.478  12.489
19625W        W81079  40.370  40.330  12.863
19626W        W81080  23.728  21.746   0.836
19627W        W81081  28.168  39.488   2.758
19628W        W81082   8.240  26.984  14.499
19629W        W81083  23.567  15.203  14.397
19630W        W81084  37.493  11.752  10.946
19631W        W81085  14.247  30.089  13.972
19632W        W81086   8.195  31.512   1.927
19633W        W81087   8.671  44.932  13.010
19634W        W81088  39.375   9.726  13.833
19635W        W81089  19.120  41.844   4.252
19636W        W81090   1.479  10.734   4.814
19637W        W81091   8.244   3.310   2.751
19638W        W81092   8.184  15.293  12.934
19639W        W81093  33.607   2.269   5.116
19640W        W81094  24.687  36.514  14.887
19641W        W81095   4.935  42.893  13.951
19642W        W81096   0.370  38.458   2.240
19643W        W81097  31.951  17.210  12.038
19644W        W81098  28.947   8.888  11.423
19645W        W81099  10.356  30.147   0.457
19646W        W81100  21.253  26.624  14.029
19647W        W81101  36.576  25.467   1.260
19648W        W81102   6.712  40.885  12.993
19649W        W81103  21.207  37.426   0.840
19650W        W81104  37.433  20.260   4.136
19651W        W81105  22.539  43.846  10.131
19652W        W81106   6.897  43.475   1.880
19653W        W81107  21.686  21.643   1.808
19654W        W81108  24.984  25.094   3.292
19655W        W81109  24.559   5.711   4.753
19656W        W81110  14.310  12.620   2.312
19657W        W81111  36.983  44.339  12.929
19658W        W81112  34.462  30.591   2.217
19659W        W81113  38.063  20.067  12.483
19660W        W81114  19.167  40.538   0.444
19661W        W81115   5.899   2.905   0.775
19662W        W81116  16.159  18.099  10.600
19663W        W81117  29.155  10.684  12.455
19664W        W81118  37.945  24.152   3.149
19665W        W81119  31.086  21.074   0.468
19666W        W81120   8.694  20.564   3.261
19667W        W81121  21.221  32.426   2.823
19668W        W81122  33.467  32.059   3.338
19669W        W81123  10.781  34.984  14.503
19670W        W81124  42.323   7.290   3.161
19671W        W81125  41.818  34.477   0.424
19672W        W81126  41.906  27.454  10.522
19673W        W81127  27.991  16.262   0.427
19674W        W81128  31.580  24.229  12.035
19675W        W81129  17.181   8.212   0.375
19676W        W81130  44.863   1.290   2.327
19677W        W81131   6.286  31.425  13.941
19678W        W81132   8.756   9.243  10.483
19679W        W81133  11.650  15.188   2.879
19680W        W81134  35.914  28.082   2.842
19681W        W81135   7.192  30.043   4.622
19682W        W81136   6.811  36.870   0.844
19683W        W81137  37.080  16.684   1.292
19684W        W81138  29.052  11.751   1.388
19685W        W81139  36.055  29.935  10.405
19686W        W81140  15.191  18.675   2.706
19687W        W81141  14.713  38.415   1.773
19688W        W81142  33.010  39.395   0.840
19689W        W81143   1.758   4.310   4.666
19690W        W81144  34.562   3.395  11.029
19691W        W81145  40.411   3.910  12.548
19692W        W81146  42.837   1.321  10.560
19693W        W81147  25.043  11.668  14.401
19694W        W81148  27.583  29.624   2.848
19695W        W81149  28.589  42.990   1.365
19696W        W81150  16.771   8.708  12.007
19697W        W81151  16.651  36.904   3.779
19698W        W81152  23.108  29.123  10.556
19699W        W81153  36.001  15.620  11.588
19700W        W81154  13.791  39.059  13.538
19701W        W81155   1.767   4.389   3.152
19702W        W81156  39.421  14.124  14.377
19703W        W81157   3.745  27.966  14.018
19704W        W81158  10.722  35.532  11.606
19705W        W81159  41.407   2.274   4.689
19706W        W81160   4.356  32.893  10.888
19707W        W81161  24.539  39.825   2.262
19708W        W81162   9.838   8.777   3.792
19709W        W81163  31.950  10.319   4.724
19710W        W81164   4.804  42.877  12.072
19711W        W81165  33.980  28.661   4.639
19712W        W81166   5.725  33.412   1.788
19713W        W81167   6.198  23.154   3.215
19714W        W81168  35.023  32.927   0.750
19715W        W81169  33.106  37.002  10.419
19716W        W81170  20.267  15.097   2.407
19717W        W81171  11.771   7.830  14.967
19718W        W81172  31.462  13.301   4.306
19719W        W81173  25.183  33.524   3.740
19720W        W81174  43.484  21.240  11.495
19721W        W81175   5.207   5.823  14.304
19722W        W81176  30.961  32.078   5.090
19723W        W81177  22.176   0.425   3.269
19724W        W81178   0.442  36.410  14.386
19725W        W81179  39.919  10.354  14.481
19726W        W81180  27.996  21.047   4.688
19727W        W81181  43.795  12.161   3.870
19728W        W81182  29.433  31.402   3.200
19729W        W81183  12.235   5.328  14.839
19730W        W81184  17.260  23.175  12.047
19731W        W81185   3.331  34.898   1.320
19732W        W81186  36.043  39.391   3.172
19733W        W81187   0.784  17.224   2.296
19734W        W81188  22.676  15.273  12.472
19735W        W81189  25.063  27.677  13.490
19736W        W81190   7.286  23.715  10.552
19737W        W81191  32.487  39.487   1.785
19738W        W81192  38.018   9.191   3.712
19739W        W81193  17.618  11.152  14.323
19740W        W81194   0.902  14.625   3.709
19741W        W81195  38.336  39.011   0.385
19742W        W81196  10.757   1.907  14.290
19743W        W81197  20.662  23.615   0.379
19744W        W81198   0.767   2.357  14.381
19745W        W81199  43.439  28.184  12.970
19746W        W81200  28.954  13.666   9.508
19747W        W81201  27.064  39.987  11.028
19748W        W81202  13.168   8.659  11.980
19749W        W81203  20.559  34.010  14.839
19750W        W81204   3.434  36.942  12.899
19751W        W81205  21.094  12.642   2.784
19752W        W81206  15.257  40.964  11.525
19753W        W81207  15.158  24.132  12.087
19754W        W81208  25.193  18.647   1.413
19755W        W81209  27.467   0.853   4.829
19756W        W81210   9.743  18.110  14.987
19757W        W81211  18.767   4.698   0.863
19758W        W81212  31.122  30.559  10.454
19759W        W81213  22.575  35.381   3.760
19760W        W81214   6.322  44.490   9.928
19761W        W81215  24.201   8.787   3.161
19762W        W81216  15.786   5.357   2.280
19763W        W81217  24.606  44.452  14.933
19764W        W81218  42.339  32.096  14.340
19765W        W81219  15.090  32.056   4.319
19766W        W81220  42.527  37.063   1.701
19767W        W81221  25.102   7.304   1.839
19768W        W81222  30.588  22.711   3.212
19769W        W81223  10.144  33.073   3.810
19770W        W81224   7.323  27.169   2.241
19771W        W81225  36.571  24.044  11.565
19772W        W81226   9.810  16.667   2.327
19773W        W81227  43.432   8.732  12.000
19774W        W81228   4.428   0.450  13.889
19775W        W81229  17.138  27.947   0.764
19776W        W81230  36.409  36.581  10.431
19777W        W81231   0.292  32.509   2.742
19778W        W81232  15.158  24.480  13.367
19779W        W81233  13.262   3.216   3.341
19780W        W81234  36.534  22.013   4.319
19781W        W81235  16.680   1.783   3.268
19782W        W81236  42.442  21.088   2.293
19783W        W81237  29.079  40.816  12.079
19784W        W81238   0.489   5.777  14.988
19785W        W81239  36.520   6.816   4.646
19786W        W81240  15.626   6.889  12.425
19787W        W81241  20.578   6.895   2.691
19788W        W81242  25.684  13.661   4.226
19789W        W81243  21.048  43.271  12.915
19790W        W81244  23.000  14.271   4.754
19791W        W81245  21.045  26.470  14.914
19792W        W81246  43.948  10.351   2.896
19793W        W81247  33.951  11.830   2.217
19794W        W81248  39.808   6.684   0.843
19795W        W81249  29.995  31.929  13.042
19796W        W81250  26.602  20.067  11.596
19797W        W81251  32.468  40.980  12.515
19798W        W81252   1.968   9.825  12.974
19799W        W81253  41.394  26.590  12.920
19800W        W81254  16.629  20.097   4.292
19801W        W81255  15.782   0.747   4.222
19802W        W81256  17.576  16.203   4.833
19803W        W81257  21.562  24.016   2.728
19804W        W81258  27.092  41.476   4.217
19805W        W81259  32.030   9.201   0.807
19806W        W81260  17.093   0.470   4.319
19807W        W81261  44.884  42.500   0.449
19808W        W81262  20.130   1.970   0.802
19809W        W81263  27.486  42.991   3.269
19810W        W81264   6.789  25.539  12.476
19811W        W81265  38.062   8.296   0.796
19812W        W81266  21.166  19.149   0.956
19813W        W81267  31.071  26.070   0.261
19814W        W81268  30.083  25.621   0.465
19815W        W81269  25.174   7.778  13.537
19816W        W81270   5.758  13.757  12.568
19817W        W81271  31.014  14.793  14.515
19818W        W81272  14.709   6.246  11.051
19819W        W81273  11.702  26.611  11.493
19820W        W81274  31.485  24.567  14.426
19821W        W81275  26.462  26.174   3.319
19822W        W81276  13.671  39.517   0.922
19823W        W81277  27.073  38.560  14.951
19824W        W81278  17.714  11.846  12.503
19825W        W81279  23.564   0.491   0.896
19826W        W81280  17.579   8.840   2.182
19827W        W81281  33.907  41.976  10.907
19828W        W81282  43.868  31.647  14.493
19829W        W81283  32.064  33.403   0.276
19830W        W81284  14.681  36.853  12.568
19831W        W81285  38.928   6.896  13.502
19832W        W81286  26.080  14.151  13.980
19833W        W81287   2.756   4.832  11.876
19834W        W81288  13.727  37.379   0.476
19835W        W81289  43.329  30.098   3.229
19836W        W81290  19.263  31.010  13.017
19837W        W81291  15.159   3.323  11.486
19838W        W81292  44.874  28.937   4.772
19839W        W81293  26.520  22.668   0.751
19840W        W81294   2.444  28.093   1.255
19841W        W81295  42.837  34.113   1.238
19842W        W81296   3.920  26.104   1.748
19843W        W81297  35.561   5.693  12.037
19844W        W81298  14.181   3.730  11.553
19845W        W81299  35.498  20.272   1.224
19846W        W81300  34.584  28.966  11.550
19847W        W81301  23.189  28.523  14.963
19848W        W81302   7.775  34.099  14.879
19849W        W81303   4.388  21.024   3.671
19850W        W81304  30.606   4.799  12.018
19851W        W81305  21.189  38.436   2.249
19852W        W81306  42.524  38.957   3.282
19853W        W81307  32.039  42.346  14.493
19854W        W81308   6.839   9.152  12.066
19855W        W81309   2.265  18.292   0.351
19856W        W81310  34.490  22.642   0.336
19857W        W81311  21.095  12.816  11.505
19858W        W81312  25.655  23.038  12.954
19859W        W81313  40.355  43.359  14.889
19860W        W81314  31.536  26.073   0.915
19861W        W81315  15.600  12.684  14.387
19862W        W81316   4.916   8.184   3.653
19863W        W81317  18.621   6.740   3.223
19864W        W81318  15.620  41.425  12.580
19865W        W81319   9.775  40.462  14.432
19866W        W81320  39.349  26.189  12.538
19867W        W81321   9.662   6.703   2.807
19868W        W81322   7.704  11.207  13.411
19869W        W81323  33.417  11.204   2.723
19870W        W81324  43.011  23.615   0.394
19871W        W81325   5.726  11.640   4.214
19872W        W81326  14.241  43.324   1.829
19873W        W81327  36.443   0.324   2.335
19874W        W81328  30.099  22.720   1.753
19875W        W81329   6.296  41.010   4.796
19876W        W81330  31.640  36.357  14.969
19877W        W81331   7.901  10.759  11.480
19878W        W81332  37.073  22.516  13.819
19879W        W81333  20.247   6.324   0.249
19880W        W81334  22.614  44.402  12.491
19881W        W81335   7.330   4.881  13.002
19882W        W81336  43.979  20.125  11.922
19883W        W81337   7.272  38.444   0.852
19884W        W81338  22.057   5.793   3.754
19885W        W81339  34.433   1.259   0.743
19886W        W81340  18.133  12.641  10.598
19887W        W81341  16.099  13.734   3.321
19888W        W81342   1.458  22.547   0.771
19889W        W81343  14.190  22.203  13.799
19890W        W81344  18.677  12.119   3.185
19891W        W81345  38.073  35.107   2.418
19892W        W81346  10.363  28.640  12.989
19893W        W81347  13.696  35.996   2.715
19894W        W81348   7.372  10.181   0.312
19895W        W81349  17.292  16.228   4.680
19896W        W81350  18.233  13.722  12.057
19897W        W81351  40.480  44.323  14.369
19898W        W81352   3.913  36.937  11.409
19899W        W81353  37.847  31.445   4.722
19900W        W81354   3.419  10.174   4.733
19901W        W81355  23.064  34.920  12.491
19902W        W81356   7.870  35.514   2.318
19903W        W81357  13.251  32.971  12.452
19904W        W81358  42.358  36.510   0.437
19905W        W81359  22.733  26.201   2.787
19906W        W81360  40.332  33.049  12.377
19907W        W81361   5.438   9.667  11.407
19908W        W81362  36.859   5.782  14.503
19909W        W81363  29.666  22.082   0.384
19910W        W81364   7.852  40.386   5.317
19911W        W81365  41.384   6.694  11.432
19912W        W81366   9.152  38.497   1.310
19913W        W81367  44.004   5.298  12.062
19914W        W81368  25.096  15.129   2.400
19915W        W81369  33.989  30.595   0.855
19916W        W81370  21.226   6.746   3.339
19917W        W81371  37.058  12.170   1.342
19918W        W81372   0.958  36.913  11.858
19919W        W81373  34.927  20.628  13.492
19920W        W81374  31.122  14.590  11.965
19921W        W81375  28.969   4.314  12.477
19922W        W81376  17.751  21.098  14.983
19923W        W81377  25.520  41.872   0.351
19924W        W81378  37.890  42.399  11.493
19925W        W81379  26.047  21.642  13.420
19926W        W81380  44.975   8.271   2.374
19927W        W81381  17.625  29.096  12.565
19928W        W81382  17.274   1.242   4.351
19929W        W81383  14.264  26.692   4.702
19930W        W81384  16.760   8.261   1.224
19931W        W81385   3.283  12.823  11.385
19932W        W81386  31.549  24.973  12.579
19933W        W81387  18.176  13.761  14.030
19934W        W81388  24.211  33.423   3.175
19935W        W81389  12.275  30.087   0.843
19936W        W81390  31.465  38.867  14.930
19937W        W81391  35.859  35.085   5.198
19938W        W81392   4.442  32.421  12.083
19939W        W81393  42.447   1.274  14.502
19940W        W81394  21.218  38.956   5.201
19941W        W81395  37.847  21.216   3.744
19942W        W81396  14.670  33.566  13.877
19943W        W81397  25.101   7.387  11.899
19944W        W81398  14.291  31.959   0.307
19945W        W81399  27.686  20.538   1.384
19946W        W81400  35.933  42.021   3.188
19947W        W81401  13.203  31.038   2.335
19948W        W81402  27.998  43.328  11.559
19949W        W81403  41.936  20.164  12.941
19950W        W81404  35.412  34.596   4.717
19951W        W81405   2.756  38.859   3.304
19952W        W81406  30.425   1.328  14.937
19953W        W81407  43.839  10.175  10.024
19954W        W81408  23.701   5.771   1.770
19955W        W81409   1.244  30.563   3.163
19956W        W81410  25.671  11.271  12.446
19957W        W81411   0.490  14.282  11.546
19958W        W81412  25.601  37.510   0.847
19959W        W81413   1.340  15.647  12.992
19960W        W81414  22.734  19.723   4.228
19961W        W81415  37.393  22.736  13.402
19962W        W81416  28.167  44.908   1.408
19963W        W81417  44.505  13.192  12.850
19964W        W81418  25.590  39.445   3.254
19965W        W81419  39.503  32.406  13.534
19966W        W81420  34.589  24.206   1.434
19967W        W81421  17.248   8.810  12.355
19968W        W81422  25.079   3.807   1.727
19969W        W81423  26.963   5.407  11.500
19970W        W81424  21.262  17.293  13.957
19971W        W81425   4.935  34.417  12.408
19972W        W81426  10.370  12.216   4.669
19973W        W81427   6.826  38.027  10.953
19974W        W81428  31.595  14.147   1.437
19975W        W81429  22.570  35.595  10.495
19976W        W81430  41.005  31.479  12.004
19977W        W81431   8.690  21.624  13.842
19978W        W81432  28.986   9.227   1.399
19979W        W81433   1.755  36.891  12.876
19980W        W81434  14.605  35.434   3.174
19981W        W81435   1.869  14.679   0.305
19982W        W81436  43.808  32.036   4.721
19983W        W81437  22.014  25.582   2.841
19984W        W81438  20.044  10.333  11.477
19985W        W81439  10.280  18.565  13.888
19986W        W81440  30.139  29.056   0.441
19987W        W81441  30.499  15.581   1.256
19988W        W81442  13.793  25.058   1.861
19989W        W81443  34.576  36.372  11.874
19990W        W81444  40.985  31.543   3.329
19991W        W81445  24.002  11.671  10.611
19992W        W81446  13.191  15.210  13.020
19993W        W81447   0.981  32.418  11.433
19994W        W81448   4.406  30.925  11.900
19995W        W81449  28.997   1.459  10.568
19996W        W81450  28.022  38.335   1.841
19997W        W81451  18.269  26.681   3.251
19998W        W81452  23.695  39.854  10.410
19999W        W81453  29.497  15.222  11.921
20000W        W81454   8.810  31.468   0.867
20001W        W81455  33.079  16.315  13.052
20002W        W81456  16.805  29.522  12.465
20003W        W81457  30.618  13.631  11.030
20004W        W81458   4.894  11.765   4.350
20005W        W81459  17.647   0.758  13.309
20006W        W81460  20.696  24.492  13.847
20007W        W81461  11.251  15.182  13.060
20008W        W81462  12.148  10.193   0.815
20009W        W81463   5.314  13.606  14.982
20010W        W81464  34.026  32.596   0.433
20011W        W81465   2.899  21.018  11.968
20012W        W81466  11.163   6.751  13.053
20013W        W81467  12.615  22.642  12.344
20014W        W81468  39.815  40.958   2.774
20015W        W81469  11.233  36.969   2.838
20016W        W81470   5.829  35.556   1.901
20017W        W81471   5.374   9.312   2.812
20018W        W81472  23.508  36.976  14.776
20019W        W81473  41.035  33.940   0.774
20020W        W81474  28.549  41.416   4.147
20021W        W81475  13.736  25.198   3.861
20022W        W81476   7.911  35.894  13.851
20023W        W81477  25.078   5.782  11.434
20024W        W81478  30.623  39.357  12.362
20025W        W81479   6.906  30.476  12.916
20026W        W81480  28.519  16.149   4.285
20027W        W81481  18.659   0.762   4.640
20028W        W81482   9.729  25.061  10.642
20029W        W81483  26.664  28.455  13.058
20030W        W81484  12.277  43.960  14.502
20031W        W81485  30.576  25.032   0.430
20032W        W81486  30.525  33.402  14.903
20033W        W81487   7.186  35.419   2.813
20034W        W81488  43.775  28.676  13.417
20035W        W81489   0.248  39.485  11.401
20036W        W81490  10.157  26.132   1.926
20037W        W81491  43.433  33.397   4.644
20038W        W81492   7.896   2.312   1.866
20039W        W81493  11.214  16.144  14.323
20040W        W81494  15.279  23.986  10.573
20041W        W81495  42.784  44.776  13.319
20042W        W81496  14.826  30.514  11.028
20043W        W81497  38.378  18.600  10.429
20044W        W81498  22.047  17.590  12.494
20045W        W81499  16.116  41.399  13.514
20046W        W81500  43.365  41.425   3.311
20047W        W81501  20.623  43.343  13.940
20048W        W81502  10.242  11.664   3.152
20049W        W81503  23.111  32.102  12.350
20050W        W81504  43.916  21.245   4.620
20051W        W81505  36.516  34.577   1.365
20052W        W81506  26.140   2.808  13.853
20053W        W81507  41.947  39.823  10.489
20054W        W81508   5.793  29.924   3.822
20055W        W81509   2.439  15.280  10.601
20056W        W81510  14.730  32.585  14.349
20057W        W81511  41.415  24.699   0.297
20058W        W81512  18.706  33.620   4.333
20059W        W81513  13.671  33.124   4.304
20060W        W81514  34.519  11.796  14.973
20061W        W81515  23.571  19.125  13.929
20062W        W81516  19.645   4.245   4.217
20063W        W81517   0.448   7.748   0.303
20064W        W81518  31.473  12.320   0.832
20065W        W81519  32.481   0.926  11.391
20066W        W81520   9.883  15.607  13.401
20067W        W81521  31.587  42.476  10.582
20068W        W81522   3.766  21.664   4.305
20069W        W81523  38.406  11.264   2.353
20070W        W81524  23.167  26.064  11.584
20071W        W81525  25.627  12.631   2.363
20072W        W81526  24.593  20.639  10.457
20073W        W81527   8.845   0.953  14.452
20074W        W81528  20.134  23.090   3.347
20075W        W81529  23.664  31.026  14.773
20076W        W81530  41.940  33.877  12.021
20077W        W81531  14.309  15.170   1.366
20078W        W81532  19.654  18.228  13.809
20079W        W81533  15.187  29.508   2.365
20080W        W81534  34.100  39.493  13.997
20081W        W81535   5.267  36.855   0.303
20082W        W81536   8.775  20.129   1.259
20083W        W81537   1.783   5.340   3.347
20084W        W81538  21.556  20.536  14.889
20085W        W81539  39.058  20.190  13.407
20086W        W81540  23.555   9.844  10.435
20087W        W81541  27.536  12.322  14.330
20088W        W81542  17.654  28.954   2.848
20089W        W81543   1.885  35.414   0.259
20090W        W81544  28.525  25.988  14.396
20091W        W81545  22.595   8.305   3.181
20092W        W81546  30.967  39.941  14.014
20093W        W81547  42.996  34.493   0.795
20094W        W81548  44.500   3.932  13.847
20095W        W81549  21.122  11.137   4.826
20096W        W81550  17.235  27.495   0.834
20097W        W81551  18.694  32.128   1.885
20098W        W81552  32.573  29.122  13.912
20099W        W81553   5.903  28.585   4.174
20100W        W81554  41.331  12.301   1.424
20101W        W81555   2.731  29.954  12.488
20102W        W81556  24.513  26.700   1.222
20103W        W81557   3.340   5.391  12.843
20104W        W81558  10.281  28.631  13.430
20105W        W81559  13.795  30.597  12.860
20106W        W81560   2.348  24.053  12.855
20107W        W81561  33.512  14.761  11.528
20108W        W81562   1.808   6.396   2.733
20109W        W81563  37.840  24.492   3.648
20110W        W81564  21.713   4.390  10.977
20111W        W81565  18.656  23.642   0.411
20112W        W81566  25.580  23.652   2.386
20113W        W81567   5.876  42.982   2.354
20114W        W81568  38.439  25.594  14.466
20115W        W81569  42.851  39.324  12.490
20116W        W81570  39.927  42.829  14.797
20117W        W81571   0.396  28.089   1.926
20118W        W81572  40.953  17.679   4.643
20119W        W81573  31.644  36.500   2.736
20120W        W81574  17.113  36.559   2.313
20121W        W81575  14.199  35.574  12.454
20122W        W81576  21.543  39.389   4.736
20123W        W81577  10.251  28.458  10.544
20124W        W81578  11.327  39.425  12.368
20125W        W81579  19.140  18.574  13.406
20126W        W81580  22.023  40.850  14.508
20127W        W81581   6.252  17.682   1.347
20128W        W81582  37.571   0.449  12.074
20129W        W81583  25.651  32.469  12.932
20130W        W81584   8.883  10.234  11.941
20131W        W81585  42.344  38.953  13.814
20132W        W81586  42.031  41.006   3.189
20133W        W81587  42.395  20.641   0.814
20134W        W81588  28.551  41.826  14.503
20135W        W81589  31.406  24.984   3.172
20136W        W81590  43.776  41.805   4.617
20137W        W81591  17.130   4.800   4.724
20138W        W81592  12.746  35.369   0.905
20139W        W81593  15.303  34.564   2.759
20140W        W81594  10.769  22.214   1.788
20141W        W81595   4.210  40.029  14.786
20142W        W81596  32.126  20.200  10.546
20143W        W81597   5.408  23.030   2.291
20144W        W81598  41.495  27.617  11.987
20145W        W81599  44.306   4.421  11.983
20146W        W81600  19.750   9.820   3.734
20147W        W81601  14.102  39.855  12.530
20148W        W81602  34.419  16.749   1.337
20149W        W81603  28.031   2.402   5.317
20150W        W81604  42.913  41.489  14.879
20151W        W81605  16.712  37.855   1.325
20152W        W81606  16.714  24.123   4.674
20153W        W81607   6.224   5.912   0.816
20154W        W81608  16.253  23.056  13.508
20155W        W81609  44.497   8.888   2.846
20156W        W81610  24.999  39.992  11.538
20157W        W81611  31.514  30.987   0.398
20158W        W81612  44.311  27.070   2.402
20159W        W81613  30.992  41.419  11.597
20160W        W81614  32.072   9.731  12.368
20161W        W81615   5.783  14.715  13.858
20162W        W81616  33.573   2.880  14.506
20163W        W81617  21.728  11.814  10.019
20164W        W81618  18.261  24.205  10.483
20165W        W81619  40.357  22.547  13.868
20166W        W81620   5.819  41.450   0.341
20167W        W81621  12.739  37.503  14.387
20168W        W81622   8.173   7.295  13.410
20169W        W81623  10.150   6.746  14.481
20170W        W81624  28.464  12.332   1.830
20171W        W81625  36.896  14.640   1.311
20172W        W81626  36.077  44.340   0.822
20173W        W81627  24.715  35.109   4.665
20174W        W81628   2.467  30.655   2.185
20175W        W81629  27.125   7.303   1.444
20176W        W81630  40.918  21.665   1.298
20177W        W81631   4.309  44.436  13.000
20178W        W81632   1.277  42.833  13.401
20179W        W81633  43.287   3.394  14.821
20180W        W81634   8.297   8.289  11.540
20181W        W81635  15.315   0.803   4.327
20182W        W81636   6.266  30.510  13.800
20183W        W81637   1.390  43.875   2.727
20184W        W81638   8.898  36.429  13.999
20185W        W81639  11.158  26.560   2.678
20186W        W81640   7.353  43.474  13.432
20187W        W81641  13.740  13.167   3.370
20188W        W81642  36.358  44.769   2.813
20189W        W81643   7.389  14.649   4.737
20190W        W81644  30.597   5.402  12.441
20191W        W81645   6.700  32.008   9.587
20192W        W81646  22.695  42.313   4.817
20193W        W81647  37.933  16.750  10.565
20194W        W81648   3.760   8.706  10.143
20195W        W81649   8.837  28.171   3.633
20196W        W81650  17.686  29.621  10.525
20197W        W81651  19.600  22.692  13.884
20198W        W81652  15.773  43.434  11.409
20199W        W81653  30.926  30.947  13.429
20200W        W81654   2.319  15.117  14.466
20201W        W81655  22.581  39.531   3.273
20202W        W81656   7.779   0.976  12.830
20203W        W81657   8.307  10.355   1.905
20204W        W81658   3.848  23.505   0.343
20205W        W81659  26.503   1.824  13.511
20206W        W81660  28.140   4.385  11.412
20207W        W81661  41.456  16.765  14.433
20208W        W81662  10.313  23.710   2.256
20209W        W81663  23.182  39.560  14.943
20210W        W81664  30.934  15.216  12.915
20211W        W81665  25.982  44.309  10.951
20212W        W81666   2.415  32.011  14.461
20213W        W81667  32.525   9.774  13.974
20214W        W81668  13.105   8.313   2.321
20215W        W81669   3.752  31.508  12.400
20216W        W81670   7.872   9.162   2.294
20217W        W81671  28.593  36.864  11.586
20218W        W81672  22.740  35.435   0.479
20219W        W81673  22.102  41.449   3.351
20220W        W81674  16.645  15.673   0.395
20221W        W81675  22.716  26.466   4.641
20222W        W81676  25.161  20.251   0.874
20223W        W81677   2.344  24.524  10.438
20224W        W81678   3.849  22.699  13.850
20225W        W81679   2.412  17.143   4.331
20226W        W81680  23.505  32.605   3.646
20227W        W81681   6.814  29.951   3.645
20228W        W81682   8.790   0.927   5.281
20229W        W81683   7.832  43.904  12.512
20230W        W81684   9.888  27.991   0.892
20231W        W81685   5.864   0.429   4.141
20232W        W81686   5.802  30.100   0.808
20233W        W81687  29.670  34.457   2.225
20234W        W81688  17.260  22.606  10.606
20235W        W81689  24.025   4.715   3.371
20236W        W81690  25.078   5.235   2.673
20237W        W81691   0.485  10.697  12.949
20238W        W81692   5.302  18.781  10.499
20239W        W81693  17.271  17.211   1.352
20240W        W81694  36.856  12.235   0.447
20241W        W81695  42.834  30.937  13.868
20242W        W81696  24.043   4.389   2.866
20243W        W81697  37.068  41.884   1.768
20244W        W81698  38.434  21.047  12.837
20245W        W81699   7.414   2.349   3.739
20246W        W81700  27.946  33.010   1.320
20247W        W81701  13.604  35.488   3.642
20248W        W81702  13.307   9.203   3.820
20249W        W81703   0.860  11.225  13.053
20250W        W81704  28.148  33.496  13.462
20251W        W81705  11.816  29.069  11.459
20252W        W81706  38.431  32.493   4.762
20253W        W81707   6.808  40.885  13.814
20254W        W81708  34.066  30.590   5.129
20255W        W81709  24.622   8.834   3.835
20256W        W81710   6.839  14.660   3.340
20257W        W81711  12.658  24.142  11.042
20258W        W81712   4.447   5.782  14.512
20259W        W81713  30.452  18.052   4.263
20260W        W81714  34.598  34.436   2.406
20261W        W81715  42.884  29.093  12.843
20262W        W81716  41.902  43.291   0.395
20263W        W81717  39.475  44.418  13.912
20264W        W81718   6.886   5.711  13.384
20265W        W81719  34.590   9.156  13.476
20266W        W81720  19.208   4.418  14.976
20267W        W81721  21.758  35.471   4.260
20268W        W81722  23.703  36.518   2.674
20269W        W81723  41.413  16.756  12.934
20270W        W81724  11.146  28.629   2.220
20271W        W81725  41.951  21.675  12.826
20272W        W81726  21.516  15.323  11.887
20273W        W81727  28.621  21.124   2.762
20274W        W81728  29.552  23.647  11.993
20275W        W81729  18.116  19.538  13.495
20276W        W81730  21.156   9.753  12.061
20277W        W81731   8.818  36.953   3.236
20278W        W81732  28.967  30.005  11.979
20279W        W81733  38.900   5.719   1.245
20280W        W81734  37.346  22.085  11.387
20281W        W81735  43.981  12.270   3.340
20282W        W81736   9.779   5.756   3.299
20283W        W81737  34.391  16.134   3.639
20284W        W81738   7.747  13.218   1.855
20285W        W81739   7.302  28.573  14.783
20286W        W81740  37.009  44.799   1.830
20287W        W81741  43.011  39.006  12.983
20288W        W81742  11.224  13.207  10.572
20289W        W81743  42.867  31.072  12.923
20290W        W81744   7.802  27.593  12.418
20291W        W81745  15.125  26.138   3.683
20292W        W81746  16.143  17.124  10.472
20293W        W81747  33.596  44.451   2.318
20294W        W81748  24.128  10.837  13.842
20295W        W81749  31.027  30.598   3.637
20296W        W81750  23.523   0.957   2.327
20297W        W81751  40.356  23.666   1.859
20298W        W81752  24.204   3.423   0.893
20299W        W81753  34.967   0.898  13.310
20300W        W81754  27.196  28.069   4.323
20301W        W81755  38.508  33.556  10.572
20302W        W81756  41.363  20.637  12.981
20303W        W81757  29.080  13.154  14.288
20304W        W81758   4.418   6.255  11.525
20305W        W81759  31.451  28.964  13.507
20306W        W81760   4.843  18.196   3.309
20307W        W81761   8.203  30.929   4.114
20308W        W81762  33.957  30.944  11.113
20309W        W81763   2.913  40.484   1.923
20310W        W81764   0.493  40.981  10.953
20311W        W81765  17.758  23.137   0.420
20312W        W81766  28.617  22.630   5.167
20313W        W81767   5.800  18.242  10.572
20314W        W81768   6.898   7.685   4.305
20315W        W81769  13.650  43.806   2.228
20316W        W81770  12.272   2.891   0.480
20317W        W81771  14.806  33.506   4.646
20318W        W81772   7.778  17.562  10.413
20319W        W81773  37.484   4.838  13.419
20320W        W81774  30.972  38.353   3.379
20321W        W81775  13.674  39.501  11.434
20322W        W81776  25.988  20.075   2.800
20323W        W81777  12.784  18.232  12.857
20324W        W81778   1.258  25.608   3.339
20325W        W81779  15.767   6.301   0.959
20326W        W81780  29.581  15.256   2.307
20327W        W81781  38.381  39.457  12.004
20328W        W81782  24.061  39.540   2.709
20329W        W81783  18.197  38.880   0.922
20330W        W81784  23.510  24.060   1.831
20331W        W81785  10.726   7.323  12.504
20332W        W81786  29.071  26.528   0.853
20333W        W81787  30.427  42.440  12.063
20334W        W81788   3.321  29.435   2.307
20335W        W81789  28.025  30.934  10.101
20336W        W81790  27.491  16.129   4.144
20337W        W81791  18.229  15.237   2.270
20338W        W81792  30.456  11.242   0.908
20339W        W81793  33.511  17.105  12.461
20340W        W81794  38.436  24.525   4.245
20341W        W81795   0.750  22.619   0.738
20342W        W81796  35.974  35.984   3.717
20343W        W81797  16.126  43.439  13.023
20344W        W81798  44.327  44.346  12.952
20345W        W81799  17.116   6.807  10.907
20346W        W81800   9.275  25.110  13.449
20347W        W81801  26.133  42.917  13.008
20348W        W81802  43.515  16.318   4.258
20349W        W81803  37.890  18.219  11.540
20350W        W81804  36.952  31.943  13.394
20351W        W81805  12.737  18.181  11.984
20352W        W81806  34.049   6.742   2.766
20353W        W81807  11.837  34.977  10.074
20354W        W81808   3.261  28.957   4.791
20355W        W81809  25.109  27.549   2.899
20356W        W81810  39.014  44.371  10.567
20357W        W81811  33.897  19.707   1.734
20358W        W81812  10.854  30.987  13.844
20359W        W81813  28.521  28.955   3.359
20360W        W81814  21.555   2.362   1.779
20361W        W81815  24.673  11.169  14.964
20362W        W81816  39.459   5.882  11.951
20363W        W81817  16.599   3.956  14.996
20364W        W81818  25.496  24.052   0.806
20365W        W81819  44.950   2.299   0.265
20366W        W81820  11.658  26.987  14.282
20367W        W81821  15.652  39.046   2.249
20368W        W81822  40.479  24.496   1.695
20369W        W81823  42.818  29.425   3.298
20370W        W81824  15.275  34.429   3.708
20371W        W81825  26.054  42.448   3.681
20372W        W81826  38.528  24.606   2.372
20373W        W81827   6.351  31.405   3.666
20374W        W81828  22.557  27.518  10.969
20375W        W81829   5.708  34.572   0.739
20376W        W81830  10.712  34.966  10.930
20377W        W81831  33.418   9.315   9.979
20378W        W81832  29.086  43.283   4.669
20379W        W81833  27.065   5.236  11.082
20380W        W81834  10.151  43.280   3.734
20381W        W81835  19.763  43.795  11.119
20382W        W81836  16.168  11.315  12.402
20383W        W81837  31.911  36.971   4.616
20384W        W81838   0.282  23.593  10.432
20385W        W81839  33.485  12.138   5.741
20386W        W81840   3.228  41.351   4.143
20387W        W81841  12.849  34.036   3.335
20388W        W81842  17.676  14.632   1.346
20389W        W81843  33.030   4.876  12.994
20390W        W81844   8.342  23.062  11.066
20391W        W81845  44.302   0.830  12.046
20392W        W81846  35.997  10.777  12.068
20393W        W81847  17.605  10.748  13.358
20394W        W81848   6.194  11.747   4.805
20395W        W81849  17.195  30.609  12.548
20396W        W81850  16.749   0.411  12.922
20397W        W81851   6.872  37.397  13.907
20398W        W81852  28.647  19.191   1.889
20399W        W81853  18.658  34.584  11.546
20400W        W81854  35.906  43.357  13.805
20401W        W81855  17.262  11.667  12.890
20402W        W81856  21.583  37.925   3.333
20403W        W81857  19.651  12.731  14.953
20404W        W81858   8.286   8.806   0.761
20405W        W81859  24.662  16.077   2.234
20406W        W81860  26.477  40.021  14.872
20407W        W81861  11.312   6.888  13.962
20408W        W81862  33.874   8.342   1.220
20409W        W81863  20.730  35.057  10.970
20410W        W81864   8.754  23.620  12.955
20411W        W81865  27.055  42.313  11.565
20412W        W81866  42.828  26.088  11.581
20413W        W81867  36.581   7.275  10.025
20414W        W81868  42.498   6.355  14.371
20415W        W81869  34.415  22.535  14.026
20416W        W81870  26.691  30.504   1.761
20417W        W81871  32.083  41.984  11.534
20418W        W81872   1.403   3.455  14.421
20419W        W81873   8.811   2.226  10.945
20420W        W81874  17.593  29.599  11.556
20421W        W81875  39.507   9.287   0.940
20422W        W81876  22.188  21.195   3.786
20423W        W81877  39.997   4.402   3.867
20424W        W81878  44.353   4.709   0.893
20425W        W81879   2.823  13.665   1.694
20426W        W81880  32.512  28.442   0.881
20427W        W81881   7.799   0.961  11.485
20428W        W81882  40.990  22.050   3.811
20429W        W81883  22.224  44.335  10.897
20430W        W81884  40.985  20.573  11.958
20431W        W81885  42.344  38.052  12.461
20432W        W81886  38.446  23.617  10.474
20433W        W81887  34.505  20.207  13.326
20434W        W81888  33.044  24.546   1.903
20435W        W81889  39.502  41.034  13.823
20436W        W81890  41.413   8.723  12.576
20437W        W81891  10.736   0.859   2.733
20438W        W81892  30.162  11.308   3.152
20439W        W81893  32.137  28.507  10.996
20440W        W81894  34.107  23.192  12.094
20441W        W81895  26.680  10.834   0.832
20442W        W81896  27.691  38.470   1.725
20443W        W81897   1.946  26.199   2.698
20444W        W81898  35.885   1.397  11.018
20445W        W81899  34.040  11.852  14.959
20446W        W81900  33.589  35.991  14.314
20447W        W81901  31.006  41.019   3.387
20448W        W81902   1.293  44.443  14.493
20449W        W81903   5.882  26.039  12.042
20450W        W81904  13.753   4.356  13.402
20451W        W81905   4.852   1.763   0.458
20452W        W81906  23.525  32.967  14.868
20453W        W81907  28.019  22.671  12.471
20454W        W81908   4.895   7.716   4.657
20455W        W81909  16.175  20.113   4.648
20456W        W81910  25.040  30.093  12.042
20457W        W81911  32.117  21.242  13.931
20458W        W81912  37.455  31.456  11.434
20459W        W81913  30.574  35.035   1.834
20460W        W81914  10.289  43.785  10.625
20461W        W81915   4.732  38.921  14.820
20462W        W81916  38.503   7.203  10.553
20463W        W81917  18.592  15.272  13.389
20464W        W81918  35.443  21.687  11.870
20465W        W81919  12.259  39.959   3.833
20466W        W81920  41.912  28.172   0.436
20467W        W81921   7.280  41.385  11.478
20468W        W81922  12.231  43.319  12.077
20469W        W81923  30.073  36.015  11.468
20470W        W81924  35.098  21.595   2.246
20471W        W81925  18.110  11.861  12.019
20472W        W81926  32.009  11.845  14.990
20473W        W81927  30.924  42.410  12.504
20474W        W81928  38.951   1.470  13.981
20475W        W81929  19.270  35.989   0.912
20476W        W81930  14.630  30.144  14.800
20477W        W81931  36.502  40.925   9.969
20478W        W81932  40.486  15.187  10.948
20479W        W81933  32.943  32.446   4.715
20480W        W81934  43.841   3.443   3.147
20481W        W81935   1.462  25.173  12.027
20482W        W81936  16.244  43.794  11.496
20483W        W81937  31.524  40.308  13.440
20484W        W81938  25.700   3.382   2.269
20485W        W81939  18.772  44.809  14.986
20486W        W81940  33.399  20.202   2.885
20487W        W81941   1.765   6.877  10.602
20488W        W81942  15.739   6.269  14.474
20489W        W81943   0.771  12.679   2.277
20490W        W81944  31.101  24.084  11.439
20491W        W81945  28.557  39.495  13.994
20492W        W81946  43.458  28.639   0.343
20493W        W81947  26.548  30.515  10.511
20494W        W81948   5.338  13.146   3.372
20495W        W81949   2.355  20.632  12.428
20496W        W81950  31.009  15.146  11.482
20497W        W81951   2.434   2.319   0.346
20498W        W81952   5.782   0.448   0.287
20499W        W81953   3.746   5.885  14.778
20500W        W81954   3.291   9.387  11.431
20501W        W81955   7.841  24.624   4.270
20502W        W81956  18.063  44.855  13.969
20503W        W81957  32.632  36.977  13.319
20504W        W81958  14.142  12.130   0.802
20505W        W81959  28.123  10.271  11.505
20506W        W81960  39.379  18.214  13.811
20507W        W81961  29.129  32.506   2.334
20508W        W81962  34.040  19.666   2.207
20509W        W81963  43.468   1.879  11.880
20510W        W81964  15.585  33.514   0.258
20511W        W81965   0.754  43.917   0.482
20512W        W81966   5.317  18.083  13.402
20513W        W81967  19.671  31.648  14.285
20514W        W81968  32.605  12.150   1.399
20515W        W81969   7.872   7.348  11.047
20516W        W81970  23.498  40.441  12.482
20517W        W81971   6.224   0.407  13.340
20518W        W81972  40.982  41.930  10.921
20519W        W81973  36.964  38.821   9.946
20520W        W81974  43.295  31.563  12.516
20521W        W81975  40.846  15.262  14.468
20522W        W81976  40.873  43.885  11.462
20523W        W81977  36.866  43.310  14.014
20524W        W81978  13.685  42.976  12.003
20525W        W81979   0.429  30.545  11.395
20526W        W81980  21.049  38.350  14.887
20527W        W81981  31.052   0.962   4.668
20528W        W81982  16.198  24.552  14.821
20529W        W81983  37.459  29.953  11.062
20530W        W81984   4.827  17.253  11.114
20531W        W81985  35.887  39.042   3.169
20532W        W81986   5.861  44.499   2.278
20533W        W81987  26.152  33.928  12.921
20534W        W81988  15.617  44.316  11.091
20535W        W81989   2.301  21.098   3.656
20536W        W81990  11.290  38.337   3.358
20537W        W81991  19.758  20.244   0.446
20538W        W81992   3.950  22.075   2.340
20539W        W81993  32.976  40.324   2.362
20540W        W81994  32.568  40.962  14.897
20541W        W81995  21.178  25.105  11.121
20542W        W81996  16.132  35.093   1.229
20543W        W81997   1.270  43.850  10.433
20544W        W81998  37.394   3.789   0.277
20545W        W81999  23.511  25.115  13.985
20546W        W82000  28.996  24.195  12.851
20547W        W82001  36.488  13.328   1.788
20548W        W82002   7.828  17.775  14.335
20549W        W82003  41.040  27.457  12.579
20550W        W82004  23.596  37.908  14.343
20551W        W82005  16.177   0.393   4.353
20552W        W82006  42.930  14.144  13.029
20553W        W82007  43.443  34.089  12.370
20554W        W82008  26.133  21.552   0.812
20555W        W82009   5.398   1.782   2.243
20556W        W82010  41.830  19.119   1.402
20557W        W82011   2.389  14.284  14.022
20558W        W82012  34.120   5.302   4.738
20559W        W82013  23.670  23.006   4.782
20560W        W82014  13.822  37.419   5.152
20561W        W82015  41.848   6.194   3.232
20562W        W82016   4.794  37.087   0.741
20563W        W82017  22.715  37.515  12.911
20564W        W82018   2.423  19.150   0.403
20565W        W82019  36.376  14.317   0.440
20566W        W82020  32.912   8.774  10.507
20567W        W82021   8.222  28.040   3.847
20568W        W82022   2.257   0.814   0.897
20569W        W82023  35.876   1.237   1.396
20570W        W82024  34.414   2.953   1.372
20571W        W82025  13.790  27.997  11.067
20572W        W82026  25.082  36.443   1.725
20573W        W82027  43.490  41.394  12.578
20574W        W82028  19.163  42.362   1.253
20575W        W82029  31.008  13.142   5.602
20576W        W82030  40.833  37.938   4.182
20577W        W82031  35.402   1.826  14.940
20578W        W82032  32.577  36.900  12.456
20579W        W82033  27.104   7.763  12.893
20580W        W82034  23.035   8.684   3.857
20581W        W82035  28.562  13.715  10.425
20582W        W82036  32.576   8.218   1.306
20583W        W82037  29.935  33.100   1.218
20584W        W82038  23.535  21.136  11.865
20585W        W82039  21.726  11.300   5.691
20586W        W82040  16.197  13.156  12.072
20587W        W82041  25.025  27.004   0.376
20588W        W82042  31.916  33.060  14.461
20589W        W82043   3.903  39.881  14.879
20590W        W82044  36.983  31.941   4.696
20591W        W82045  30.145  28.516   0.244
20592W        W82046   8.254  12.276  12.892
20593W        W82047  31.428  36.953  13.421
20594W        W82048   8.767  15.287   4.193
20595W        W82049  40.449  36.883  14.003
20596W        W82050  19.555  16.127   4.144
20597W        W82051  37.068   4.703   2.392
20598W        W82052  16.311  40.959   9.502
20599W        W82053   5.868  37.370   3.205
20600W        W82054  35.599  33.538   0.956
20601W        W82055  26.082  43.781   0.363
20602W        W82056  27.545  33.603   2.793
20603W        W82057  30.437  11.182  11.402
20604W        W82058  20.740  12.757   2.677
20605W        W82059  25.532  18.545  14.338
20606W        W82060  44.318  19.222   9.990
20607W        W82061  14.790  31.417   1.740
20608W        W82062   2.744  31.560   0.791
20609W        W82063  17.771  40.339  13.337
20610W        W82064  19.659  37.415   4.295
20611W        W82065  32.623   2.944  10.551
20612W        W82066   0.789  23.141  13.878
20613W        W82067   0.402  39.055   3.836
20614W        W82068   2.261   1.283   2.877
20615W        W82069  26.082  28.092  14.872
20616W        W82070  33.582  10.190   2.780
20617W        W82071  22.050  39.051  12.011
20618W        W82072  27.095   2.738   2.824
20619W        W82073   5.409  10.284   0.837
20620W        W82074   0.402  20.105  10.907
20621W        W82075  40.318  28.107  12.000
20622W        W82076  16.805  44.432  14.797
20623W        W82077   0.819  10.846  10.973
20624W        W82078   5.868   5.398   1.253
20625W        W82079   2.896  25.608  11.877
20626W        W82080  34.933   8.840   0.954
20627W        W82081  25.176  19.135   3.215
20628W        W82082   1.344  24.644   0.847
20629W        W82083  43.427  22.543  14.298
20630W        W82084  11.224  33.383   0.892
20631W        W82085   7.274  36.421   0.446
20632W        W82086  34.068  21.712   1.780
20633W        W82087  30.974  11.278  13.002
20634W        W82088  20.117  36.389   2.303
20635W        W82089  38.400  40.402  14.979
20636W        W82090   1.365  37.340  10.892
20637W        W82091  39.409  30.062   2.681
20638W        W82092  15.298  22.135  10.645
20639W        W82093   2.907  16.252  14.365
20640W        W82094  12.648  28.039   4.230
20641W        W82095  27.078  44.435  13.020
20642W        W82096   7.258  30.048  13.348
20643W        W82097  14.792   6.908   4.162
20644W        W82098  36.861   8.182  11.423
20645W        W82099  20.574   6.850   5.196
20646W        W82100  20.233  16.799   2.725
20647W        W82101  39.843  14.199   0.792
20648W        W82102   1.786  37.013  10.504
20649W        W82103  20.759  24.651  13.048
20650W        W82104  28.078  15.787   1.409
20651W        W82105  14.147  34.998  13.471
20652W        W82106  40.833  30.627  11.603
20653W        W82107  36.536  35.048   2.303
20654W        W82108  18.102  36.855  12.365
20655W        W82109   5.311  18.613  14.907
20656W        W82110  24.504   2.950  10.913
20657W        W82111  43.400   7.405  11.605
20658W        W82112  37.901  29.032   4.117
20659W        W82113  15.253  13.229   2.297
20660W        W82114  36.910  32.413  11.506
20661W        W82115  13.264  35.421   3.802
20662W        W82116  32.609  35.105   0.855
20663W        W82117  37.529  30.637  13.823
20664W        W82118  24.224  18.571   4.204
20665W        W82119  42.021  11.665  10.013
20666W        W82120  42.014   0.870  10.918
20667W        W82121  19.143  12.729  11.979
20668W        W82122  41.500  28.940   0.416
20669W        W82123   5.731  43.282   2.679
20670W        W82124   0.420  12.354   0.398
20671W        W82125  44.486   7.793  10.912
20672W        W82126  34.067  36.024  11.005
20673W        W82127  42.905  22.603   4.750
20674W        W82128   2.871  23.549   1.250
20675W        W82129   5.773  24.195  13.828
20676W        W82130  44.300  12.814  11.510
20677W        W82131   1.435   2.770   4.329
20678W        W82132  33.580  38.484  12.510
20679W        W82133  20.716   2.349  13.834
20680W        W82134  14.621   1.856   2.768
20681W        W82135   6.919  13.152  13.332
20682W        W82136  37.854  43.411  14.900
20683W        W82137  40.012  36.899   0.751
20684W        W82138  34.955   9.693   3.713
20685W        W82139  39.841  23.092  10.554
20686W        W82140  15.753  17.696   2.746
20687W        W82141  17.756  32.524   2.315
20688W        W82142  41.891  31.532  10.976
20689W        W82143  27.044  40.999  10.470
20690W        W82144  42.007   6.791  14.281
20691W        W82145   3.784  30.938  10.629
20692W        W82146  34.902  17.781  13.537
20693W        W82147  25.004  32.955  10.434
20694W        W82148   1.971  39.547   1.241
20695W        W82149  19.618  42.294  10.427
20696W        W82150   4.292  10.146  12.976
20697W        W82151   0.914  16.614  12.353
20698W        W82152  39.972  41.031   0.292
20699W        W82153   7.890  28.961  14.795
20700W        W82154  42.503  41.787   2.722
20701W        W82155  10.771  43.881  10.462
20702W        W82156  22.130   2.763  14.954
20703W        W82157  31.913  26.136   2.787
20704W        W82158  24.081  26.954  11.558
20705W        W82159  12.225  23.229   4.795
20706W        W82160  43.381  16.623   2.874
20707W        W82161  29.589   9.394  11.884
20708W        W82162  26.191  10.272   1.273
20709W        W82163  11.135  15.266   4.716
20710W        W82164  38.921  12.810  10.980
20711W        W82165  38.076   8.337  13.008
20712W        W82166  30.556   0.341  12.943
20713W        W82167  31.144  10.839   1.251
20714W        W82168  42.304  12.770  10.455
20715W        W82169  32.093  38.065   2.797
20716W        W82170   5.830  26.562   2.848
20717W        W82171  31.414   7.240   1.932
20718W        W82172  40.420  40.938   3.781
20719W        W82173  38.861   5.264  10.933
20720W        W82174  35.869  35.548  10.995
20721W        W82175  12.174  15.176   3.357
20722W        W82176  11.147  19.183  13.499
20723W        W82177  42.877  23.490  11.464
20724W        W82178  11.831  44.811   3.286
20725W        W82179   0.399  36.922   1.902
20726W        W82180  40.453  39.875   2.318
20727W        W82181  43.360  27.671  11.574
20728W        W82182   1.423  32.469   3.822
20729W        W82183  31.644   2.730  10.641
20730W        W82184  21.177  30.462  10.591
20731W        W82185  39.977   1.839  10.972
20732W        W82186  37.405  42.403   2.887
20733W        W82187  42.007  19.046   3.253
20734W        W82188   9.816  44.902  13.980
20735W        W82189  35.911  37.403  12.483
20736W        W82190  33.514   6.329   5.240
20737W        W82191  27.090  11.300   2.338
20738W        W82192  10.185   1.825  14.358
20739W        W82193  34.085  26.544   3.195
20740W        W82194  39.935   5.309  12.087
20741W        W82195  40.893   9.879  10.456
20742W        W82196  19.054  19.064  12.062
20743W        W82197  31.411  27.198   2.761
20744W        W82198  43.903  10.312  13.339
20745W        W82199   9.272  34.090   0.311
20746W        W82200  14.811   5.915   1.430
20747W        W82201   3.360  16.288  11.603
20748W        W82202  27.997  33.399   4.222
20749W        W82203  39.560   1.393  13.038
20750W        W82204  43.849  17.114  11.392
20751W        W82205   1.398   8.243  14.322
20752W        W82206  23.713  44.982  10.414
20753W        W82207  13.230  32.406  14.770
20754W        W82208  14.208  15.105   2.198
20755W        W82209  43.785  12.659   1.701
20756W        W82210  19.570  39.560   0.744
20757W        W82211  17.255  11.664  12.052
20758W        W82212  20.250  44.410  14.810
20759W        W82213  20.267  26.493   2.787
20760W        W82214  44.904   7.813   0.405
20761W        W82215   7.883  16.735   2.255
20762W        W82216   1.406  20.611   3.290
20763W        W82217  38.984  29.482   2.382
20764W        W82218  29.063   2.403  13.905
20765W        W82219   3.836  13.800   4.768
20766W        W82220   6.841  19.173  10.633
20767W        W82221  35.571  24.982  13.395
20768W        W82222  40.857  24.541   2.328
20769W        W82223  35.871   2.291   4.130
20770W        W82224   4.853  13.188   0.376
20771W        W82225   4.933  21.518   4.810
20772W        W82226   5.699  28.934  11.048
20773W        W82227  43.792   1.251   3.266
20774W        W82228  13.153  10.809  10.911
20775W        W82229  25.575  18.098  13.863
20776W        W82230  35.526  38.840  12.085
20777W        W82231  44.858  25.643   1.293
20778W        W82232  15.625  24.711   5.223
20779W        W82233  20.035  42.793   3.386
20780W        W82234  12.727   5.282  10.971
20781W        W82235  25.107   4.852  12.060
20782W        W82236  23.077  27.095   0.291
20783W        W82237  15.247  33.478   0.412
20784W        W82238  11.765  13.791   4.183
20785W        W82239  32.523  19.212   2.317
20786W        W82240   3.427  17.585   3.331
20787W        W82241  13.695  11.665  10.999
20788W        W82242  22.053  34.453   2.791
20789W        W82243  35.000   1.466   1.756
20790W        W82244  25.100  32.024  11.054
20791W        W82245  41.466  33.578   1.773
20792W        W82246  16.234  28.160   1.407
20793W        W82247  19.769  14.662  14.493
20794W        W82248  37.885   0.274  13.371
20795W        W82249  32.932  16.279  12.455
20796W        W82250  31.635   9.386  13.493
20797W        W82251   6.720  10.868  12.545
20798W        W82252   8.678  41.031  14.867
20799W        W82253  11.842  37.968   2.880
20800W        W82254  43.994   9.808  11.100
20801W        W82255  17.626  29.055   2.292
20802W        W82256  18.789  33.079  12.061
20803W        W82257  12.152  21.055   4.134
20804W        W82258  24.177  12.187   2.699
20805W        W82259  29.984  23.177   3.241
20806W        W82260  21.047  43.017  12.826
20807W        W82261  24.622  12.793   3.643
20808W        W82262   2.875  31.126   3.293
20809W        W82263  36.032   9.185  11.976
20810W        W82264  10.871   3.368  12.050
20811W        W82265  35.945  20.194  11.859
20812W        W82266  30.476  43.020  10.938
20813W        W82267   7.356  25.621  10.630
20814W        W82268  34.493  16.249  11.987
20815W        W82269  27.675  33.597  12.053
20816W        W82270  12.165  17.710   2.745
20817W        W82271  34.511  28.064  11.600
20818W        W82272   0.434  32.034  10.110
20819W        W82273  28.929  40.468   0.741
20820W        W82274   8.859   3.884   0.956
20821W        W82275   2.445  40.318   2.310
20822W        W82276  17.213  37.915   1.845
20823W        W82277  23.114  39.916  10.534
20824W        W82278  37.385  43.011   3.779
20825W        W82279  28.466  34.522   2.322
20826W        W82280  41.410  33.109   4.284
20827W        W82281  18.765  16.788   0.463
20828W        W82282  28.143  12.228  13.988
20829W        W82283  42.971  23.131   1.291
20830W        W82284  18.188  13.628   0.741
20831W        W82285  19.584  17.195  12.491
20832W        W82286  39.823  18.602  13.817
20833W        W82287  44.855  12.319   3.257
20834W        W82288  14.778   7.306   3.383
20835W        W82289  43.913  30.609  11.965
20836W        W82290  33.027   2.360   0.324
20837W        W82291  18.087  31.591   4.643
20838W        W82292  31.477  31.060  14.980
20839W        W82293   6.721  26.198  10.570
20840W        W82294  28.012   0.268   9.973
20841W        W82295  14.327  44.928  11.446
20842W        W82296  28.041   7.704   2.306
20843W        W82297  11.148  42.322   1.381
20844W        W82298  33.011  23.513   0.759
20845W        W82299  20.697  13.303  12.427
20846W        W82300  16.267  29.454  12.372
20847W        W82301  16.618  37.048  12.074
20848W        W82302  24.529  15.302  12.909
20849W        W82303  14.279  43.859  12.894
20850W        W82304  31.488  35.488   0.726
20851W        W82305  36.041  38.069   0.876
20852W        W82306  33.614  27.196   2.847
20853W        W82307  28.035  19.563   4.790
20854W        W82308  38.939  27.619  14.929
20855W        W82309  24.545  17.765   2.866
20856W        W82310  40.853  41.386   3.669
20857W        W82311   2.277  13.342   4.660
20858W        W82312   3.868  14.121  10.930
20859W        W82313   0.830  22.669   1.717
20860W        W82314  16.622  17.255  12.397
20861W        W82315  24.568  16.742  12.885
20862W        W82316  27.193   2.465  13.797
20863W        W82317   6.247   8.216   0.897
20864W        W82318  11.344  32.028   2.862
20865W        W82319  13.741  32.096  11.095
20866W        W82320  23.704  38.459   3.359
20867W        W82321  14.177  32.447  10.536
20868W        W82322  24.492  12.209   3.794
20869W        W82323  23.024   6.851   1.802
20870W        W82324  43.387   7.898   3.296
20871W        W82325  37.404  36.501  13.405
20872W        W82326  32.571  29.112   0.250
20873W        W82327  38.892  14.218   3.767
20874W        W82328  44.487  41.509  13.480
20875W        W82329  19.683   4.739  10.451
20876W        W82330   6.790  34.111  12.511
20877W        W82331  17.254  14.211   1.874
20878W        W82332  17.652  36.515   3.222
20879W        W82333  21.674   2.361  10.537
20880W        W82334  27.689  30.601  12.372
20881W        W82335  23.241  31.949   4.754
20882W        W82336  10.250   3.431   3.189
20883W        W82337   6.280  42.466   3.754
20884W        W82338  35.483  39.840  12.041
20885W        W82339  10.775  22.575  12.475
20886W        W82340  14.276  36.523   3.721
20887W        W82341  13.632   3.298  13.942
20888W        W82342   2.901  39.051   4.262
20889W        W82343  24.507  16.304  12.415
20890W        W82344   0.876  31.475   4.779
20891W        W82345   2.233   2.836  14.289
20892W        W82346   4.413  44.322   1.918
20893W        W82347  19.216  31.114   4.330
20894W        W82348  40.435  13.660  14.391
20895W        W82349  24.719  25.063  14.308
20896W        W82350  34.916   2.336   1.423
20897W        W82351  12.635  12.179   1.817
20898W        W82352   2.376  36.906  13.942
20899W        W82353  21.562   8.401   2.708
20900W        W82354  17.294  34.872   4.703
20901W        W82355  40.312   7.320   4.197
20902W        W82356  27.522  21.588  12.092
20903W        W82357   8.758   3.947  14.807
20904W        W82358  23.229  15.110   4.617
20905W        W82359  16.751  22.243  11.101
20906W        W82360  40.884  30.454  11.925
20907W        W82361   7.898  18.237   2.708
20908W        W82362  25.525  23.653  13.388
20909W        W82363  30.600  44.399   0.847
20910W        W82364  31.558  30.958  10.598
20911W        W82365  35.036  26.699  11.455
20912W        W82366  44.770  44.927  14.467
20913W        W82367  44.973  44.338  12.437
20914W        W82368  17.216  38.060  14.916
20915W        W82369   2.828  34.603   3.635
20916W        W82370  28.974   4.312   5.266
20917W        W82371  43.369  27.995   1.739
20918W        W82372  27.031  23.046  13.423
20919W        W82373  35.572   3.757   3.785
20920W        W82374  16.226   1.393   1.814
20921W        W82375   8.823  29.619   5.211
20922W        W82376   8.786   1.483  10.442
20923W        W82377  15.279  17.138  13.997
20924W        W82378  41.907  40.404   4.791
20925W        W82379   2.388   5.253  13.495
20926W        W82380  17.211  19.587  14.792
20927W        W82381  13.701   3.322   0.873
20928W        W82382  14.658  15.180   0.433
20929W        W82383  26.073  24.499   4.292
20930W        W82384   8.172  28.479  14.022
20931W        W82385  42.297  25.145   3.710
20932W        W82386  27.031   6.833   4.241
20933W        W82387  28.124  10.836   9.619
20934W        W82388   8.814   8.169   0.381
20935W        W82389  44.396  24.507   4.730
20936W        W82390   2.826  12.821   1.874
20937W        W82391  15.711  30.994  10.523
20938W        W82392  38.905  17.110  12.031
20939W        W82393  40.480  17.656  11.087
20940W        W82394  26.984  42.014  13.896
20941W        W82395   7.405   8.368   3.779
20942W        W82396  28.491   2.895  13.855
20943W        W82397  17.142  30.081  11.550
20944W        W82398  23.194  10.320   1.777
20945W        W82399  29.079  16.121  11.975
20946W        W82400  28.643  28.609  12.011
20947W        W82401  12.223   9.341   1.341
20948W        W82402   6.382   7.405  13.064
20949W        W82403  19.202  37.372  10.410
20950W        W82404  20.197   8.320   0.962
20951W        W82405  20.692   9.387   0.839
20952W        W82406   8.371  44.773  11.518
20953W        W82407   3.921  13.325  14.478
20954W        W82408  28.082  36.564  14.327
20955W        W82409  27.960  39.864  14.361
20956W        W82410  25.543  24.617   3.668
20957W        W82411  30.599  19.666   3.758
20958W        W82412  31.980  16.146   0.738
20959W        W82413  28.515  38.904   3.691
20960W        W82414  44.011   8.683   0.950
20961W        W82415  11.175  16.183   9.634
20962W        W82416  36.097  32.961  14.893
20963W        W82417  38.876  27.175   0.256
20964W        W82418  22.681  28.146  10.569
20965W        W82419  43.485  20.592   0.439
20966W        W82420  18.715  13.759   1.713
20967W        W82421  32.048  13.660   3.189
20968W        W82422  33.118  44.495   1.827
20969W        W82423  43.296  36.582   3.639
20970W        W82424  23.658  18.205  13.944
20971W        W82425  27.981  30.011   2.187
20972W        W82426  29.530  44.403  13.398
20973W        W82427  28.139  26.630  10.485
20974W        W82428  27.499   6.234  12.872
20975W        W82429  13.820  11.151  14.360
20976W        W82430  33.056   2.374   3.741
20977W        W82431  16.716  23.133   1.855
20978W        W82432  44.308  11.729   9.939
20979W        W82433  14.241   3.450   2.664
20980W        W82434  31.437  14.329  11.981
20981W        W82435  21.716  22.161  13.028
20982W        W82436  38.947   4.712  12.977
20983W        W82437  41.495  27.982  11.375
20984W        W82438   5.756  23.495   4.180
20985W        W82439  12.231  29.055   2.392
20986W        W82440   1.379  17.284   3.820
20987W        W82441  31.432  41.487   2.864
20988W        W82442  14.729  27.147   2.777
20989W        W82443  36.855  19.666  11.008
20990W        W82444  25.994  29.450   2.249
20991W        W82445  24.171  34.024   2.230
20992W        W82446  25.688  40.339  14.462
20993W        W82447  19.660  24.039   0.247
20994W        W82448  44.950  41.916  12.886
20995W        W82449  30.442  17.192  14.458
20996W        W82450  30.416  18.056  13.033
20997W        W82451   2.341  10.186  11.901
20998W        W82452  23.507   7.353  13.012
20999W        W82453  40.517  18.584   4.778
21000W        W82454  18.053   4.430  13.853
21001W        W82455  32.510  43.498  14.284
21002W        W82456  33.393  38.391   2.828
21003W        W82457   8.697   8.310   2.228
21004W        W82458  31.924   8.398   3.668
21005W        W82459  42.029   3.775   1.383
21006W        W82460  12.620  11.309  14.976
21007W        W82461  18.750  20.538  11.460
21008W        W82462  10.681  25.002   4.280
21009W        W82463  40.970  13.790  14.924
21010W        W82464  34.475  13.145  14.407
21011W        W82465  19.629  14.127   3.165
21012W        W82466  17.139   7.341  10.478
21013W        W82467  25.706  12.167  11.940
21014W        W82468  21.182  15.580   1.897
21015W        W82469  17.678   8.171  11.533
21016W        W82470  31.599  29.543   4.168
21017W        W82471  21.545  23.027   3.653
21018W        W82472  21.684  28.568  14.395
21019W        W82473  35.596  18.222  12.441
21020W        W82474  36.577  23.240   3.712
21021W        W82475  30.422  34.069  14.401
21022W        W82476  31.530  22.651   3.823
21023W        W82477   8.177   4.309  11.402
21024W        W82478  34.533  23.113  11.564
21025W        W82479  44.988  10.771  13.365
21026W        W82480  30.438  33.577   2.691
21027W        W82481  35.520  15.097   2.414
21028W        W82482  37.568  40.470  14.389
21029W        W82483  41.488  30.617  10.984
21030W        W82484  13.144  38.514   2.899
21031W        W82485  21.648  10.223  10.956
21032W        W82486  27.046  25.472   3.798
21033W        W82487  23.149  13.723   3.312
21034W        W82488  16.766  40.416  13.313
21035W        W82489  12.274   1.971   1.409
21036W        W82490  32.618  24.177  12.571
21037W        W82491  43.357  44.901   2.182
21038W        W82492  16.800   4.432  13.027
21039W        W82493  40.499  32.414  10.469
21040W        W82494  36.845  17.088   4.194
21041W        W82495  18.110  14.210   3.806
21042W        W82496  20.068  10.709  13.949
21043W        W82497  21.079  37.950  11.557
21044W        W82498  28.069  26.084   2.391
21045W        W82499  34.907  41.970  11.608
21046W        W82500  18.155  19.228  10.477
21047W        W82501  39.539  17.254  14.424
21048W        W82502  17.799  42.023  11.866
21049W        W82503  42.884  43.447  10.403
21050W        W82504  44.316  16.657  10.156
21051W        W82505  15.778   3.269   4.673
21052W        W82506  24.115   8.748  12.562
21053W        W82507   3.727  19.714  14.805
21054W        W82508  20.031  14.729  10.583
21055W        W82509  44.307   7.811  14.953
21056W        W82510  41.994  20.253   0.901
21057W        W82511  25.598   1.471  10.561
21058W        W82512  20.613   7.813  12.918
21059W        W82513  35.013   3.422  14.312
21060W        W82514  14.143   8.323  11.945
21061W        W82515  17.674  19.144  12.422
21062W        W82516  18.708  29.171   3.788
21063W        W82517  40.819  42.299   2.194
21064W        W82518  21.112  14.319  12.019
21065W        W82519  39.061  27.023   1.723
21066W        W82520  31.490  10.353   0.900
21067W        W82521  28.051   9.777  11.461
21068W        W82522  29.446  17.638   0.259
21069W        W82523   7.667   4.244   2.665
21070W        W82524  15.738  11.729   2.860
21071W        W82525  24.049  22.615  14.432
21072W        W82526  14.200  11.813   1.365
21073W        W82527  21.070  10.645   2.829
21074W        W82528  16.214  12.351  13.520
21075W        W82529  12.733  31.131   4.685
21076W        W82530  37.986  19.113  10.543
21077W        W82531  32.965  33.430   0.419
21078W        W82532  28.120  18.221  11.051
21079W        W82533  30.503  42.001   0.939
21080W        W82534  11.325   8.893  12.537
21081W        W82535  29.024  44.473  10.919
21082W        W82536   2.373   3.277   4.624
21083W        W82537  13.264  19.285   2.275
21084W        W82538   3.829   0.392  11.076
21085W        W82539  25.100   6.703   1.728
21086W        W82540  29.073  20.620   3.180
21087W        W82541  17.763  19.636  13.314
21088W        W82542  15.726  21.203   5.134
21089W        W82543   8.799  12.302  13.468
21090W        W82544  38.952  14.597  12.530
21091W        W82545   0.447  44.272  14.007
21092W        W82546  43.300   6.719   3.214
21093W        W82547  17.177   7.868  14.944
21094W        W82548  19.690  16.093   4.756
21095W        W82549   2.738  23.537   1.860
21096W        W82550  13.823  35.914  13.436
21097W        W82551  22.051  17.688  13.449
21098W        W82552  13.599  31.975   2.292
21099W        W82553   4.914  18.785   1.308
21100W        W82554   2.435  29.565   0.275
21101W        W82555  25.171   7.882  12.988
21102W        W82556   7.907   0.874   2.720
21103W        W82557   1.913  29.658  12.060
21104W        W82558   1.476   0.446   4.223
21105W        W82559  13.846  25.981  10.559
21106W        W82560   6.235  44.347   5.314
21107W        W82561   0.280  29.663  13.381
21108W        W82562  30.142  14.165   1.882
21109W        W82563  23.688  25.121  11.912
21110W        W82564  40.911   0.276  14.487
21111W        W82565   5.386  12.217   2.717
21112W        W82566  13.651  41.491  12.029
21113W        W82567  26.531   3.322   0.967
21114W        W82568  40.382   6.845  12.898
21115W        W82569  34.082  31.000  12.556
21116W        W82570  24.023  18.252   3.274
21117W        W82571   4.272  25.218  11.985
21118W        W82572  33.959  10.341   0.796
21119W        W82573  30.127  20.187  12.043
21120W        W82574  15.092   6.270   2.901
21121W        W82575  34.473   5.785   2.688
21122W        W82576  28.607  20.598  11.126
21123W        W82577   3.400   0.466  12.089
21124W        W82578  11.262  42.290   2.281
21125W        W82579  31.564  14.775   4.808
21126W        W82580  27.519  11.277   0.280
21127W        W82581  44.789  11.180  10.426
21128W        W82582  23.505  38.989  14.467
21129W        W82583  24.162  41.308   2.181
21130W        W82584  13.334  39.350   3.671
21131W        W82585  28.157  16.783   4.323
21132W        W82586  25.206   1.869   1.723
21133W        W82587  35.410   9.809  12.971
21134W        W82588  41.355  41.868   4.173
21135W        W82589  27.000  13.826   1.229
21136W        W82590  24.694  43.825   4.150
21137W        W82591  21.217  13.275  10.588
21138W        W82592  13.199   7.299  14.463
21139W        W82593   0.252  39.897  11.495
21140W        W82594  36.436  38.981   4.704
21141W        W82595   0.437  19.560   4.233
21142W        W82596  27.590   0.294   2.898
21143W        W82597  43.463  42.844  11.543
21144W        W82598  30.060   9.768   3.235
21145W        W82599  42.384  22.614  14.982
21146W        W82600   7.828   6.785   2.788
21147W        W82601  37.893  41.844   2.383
21148W        W82602  18.587  24.542  13.364
21149W        W82603  42.428  32.531   2.758
21150W        W82604  12.163  20.657  11.507
21151W        W82605   8.404   8.353   1.336
21152W        W82606  35.412  38.474  13.506
21153W        W82607   1.768  22.536  13.948
21154W        W82608  35.368  37.834   2.258
21155W        W82609  43.854  27.074   3.698
21156W        W82610  22.537  14.815  13.805
21157W        W82611  15.662   6.894   4.660
21158W        W82612  22.128  38.018   2.672
21159W        W82613   6.779  22.671   0.954
21160W        W82614  27.986  42.405   1.694
21161W        W82615  31.100  20.198   3.222
21162W        W82616  27.038  43.898   3.188
21163W        W82617  13.242  34.427  13.343
21164W        W82618  27.045  33.080  14.802
21165W        W82619  13.274  25.212  13.505
21166W        W82620   2.345  18.188  11.953
21167W        W82621  38.994  21.666  13.315
21168W        W82622   8.840  26.620   3.677
21169W        W82623  13.604  10.868  14.308
21170W        W82624  11.816  21.705   2.266
21171W        W82625   1.978  11.373  13.942
21172W        W82626  29.650   2.737  11.878
21173W        W82627  19.758  26.099   2.288
21174W        W82628  26.598  23.191  10.083
21175W        W82629  18.257  38.504   0.962
21176W        W82630  29.561   9.164   2.223
21177W        W82631   5.930  10.655  13.951
21178W        W82632  32.996  26.122   0.295
21179W        W82633  39.330  12.174   1.712
21180W        W82634  29.065  22.594   3.762
21181W        W82635  14.608  23.683  14.959
21182W        W82636  39.915  35.994   0.474
21183W        W82637  30.499  26.601   4.729
21184W        W82638   1.390  31.049   2.288
21185W        W82639  44.262  24.108  12.481
21186W        W82640   5.721  18.732  11.861
21187W        W82641  29.479  26.567   4.695
21188W        W82642  30.935  44.907  14.397
21189W        W82643  14.270  16.176   2.827
21190W        W82644  12.295  17.241   0.322
21191W        W82645   0.904   7.234   1.710
21192W        W82646  39.921  12.673  14.886
21193W        W82647  11.280  16.278   1.760
21194W        W82648  21.224  41.390   3.299
21195W        W82649   6.768  27.458  10.404
21196W        W82650  18.062   8.311   2.866
21197W        W82651  39.549  15.813  10.118
21198W        W82652  29.954  20.031   3.338
21199W        W82653  35.444  15.679  14.392
21200W        W82654  33.519  12.265   2.744
21201W        W82655  21.634  18.102   5.151
21202W        W82656  43.386  39.837   3.280
21203W        W82657  10.675  38.517   1.808
21204W        W82658  24.682  44.470  13.885
21205W        W82659  18.293  17.773  10.516
21206W        W82660  27.586  12.213  13.797
21207W        W82661  28.673  12.621  11.922
21208W        W82662  36.534  44.999  10.899
21209W        W82663  35.418   0.833  11.907
21210W        W82664  27.103  34.456  14.356
21211W        W82665  17.732   7.215  14.900
21212W        W82666  38.458  37.897   0.924
21213W        W82667  28.523  44.782  12.554
21214W        W82668  36.860  34.444   4.158
21215W        W82669  40.342   8.666  14.432
21216W        W82670  13.259   3.947  12.517
21217W        W82671  36.456   0.870  13.490
21218W        W82672   4.731   2.800  12.824
21219W        W82673   2.754  12.135  11.928
21220W        W82674  13.132  38.453  13.383
21221W        W82675   0.314  43.821  14.292
21222W        W82676  12.683  38.939   1.347
21223W        W82677  40.476  14.751  14.776
21224W        W82678  31.034  23.100  13.416
21225W        W82679   4.755  40.925  12.860
21226W        W82680  19.211  24.501   2.403
21227W        W82681  25.487   0.963  11.382
21228W        W82682   9.178  14.224  13.848
21229W        W82683  24.052  19.723  14.781
21230W        W82684  31.908  15.784  14.949
21231W        W82685  18.669   3.237  10.909
21232W        W82686  37.407  23.176  11.488
21233W        W82687  40.513  16.736   3.221
21234W        W82688  43.397  37.842  14.932
21235W        W82689  18.623  43.439  10.967
21236W        W82690  20.761  33.464   0.878
21237W        W82691  37.503   2.385  11.959
21238W        W82692  23.148  36.456  14.415
21239W        W82693  36.413   2.428   3.809
21240W        W82694  10.265  24.658  13.959
21241W        W82695  22.568  38.050  13.436
21242W        W82696  26.592  26.040  13.412
21243W        W82697   5.766   3.819   4.351
21244W        W82698  19.621  22.713   3.858
21245W        W82699  24.128  30.588  13.910
21246W        W82700  34.573  10.695  11.949
21247W        W82701  42.912  44.415   0.741
21248W        W82702  14.811   4.235   3.761
21249W        W82703  35.372  12.780  10.921
21250W        W82704  41.361  25.644   2.826
21251W        W82705  19.157  40.518   1.844
21252W        W82706  35.080  33.452  11.593
21253W        W82707  44.399   1.795  13.023
21254W        W82708  22.743  21.188  11.487
21255W        W82709  44.416   0.315   3.172
21256W        W82710  29.931  10.154  10.599
21257W        W82711   8.851  11.266  11.513
21258W        W82712  36.378  15.672  14.399
21259W        W82713   8.803  29.939   5.214
21260W        W82714  38.412  12.770   4.186
21261W        W82715  19.218  29.008  12.534
21262W        W82716  17.628   1.835  11.465
21263W        W82717   8.841  12.130  11.491
21264W        W82718  11.186  10.260  12.367
21265W        W82719  15.683  25.058  10.592
21266W        W82720  22.066  15.286   0.739
21267W        W82721  22.508  16.626   1.791
21268W        W82722  10.335  23.145  11.489
21269W        W82723  34.547   5.417  13.884
21270W        W82724  34.495  31.469  14.308
21271W        W82725  39.838  11.224   3.829
21272W        W82726  23.660   5.930   4.692
21273W        W82727  22.999  17.799  13.432
21274W        W82728  12.793  10.373  14.395
21275W        W82729  12.836  31.644   1.443
21276W        W82730   6.841  34.568   1.329
21277W        W82731  24.112   4.370  13.380
21278W        W82732  37.057  36.916   4.296
21279W        W82733  23.611  33.483  14.370
21280W        W82734  29.433  44.284   3.278
21281W        W82735  10.745  26.106   2.292
21282W        W82736  38.437  42.855  14.503
21283W        W82737  24.610  28.487  11.591
21284W        W82738  41.500  21.165   0.274
21285W        W82739  15.214  24.200   0.823
21286W        W82740  24.644   9.190   0.443
21287W        W82741  28.937  15.628   2.266
21288W        W82742  17.621  38.570  14.987
21289W        W82743  43.291   6.845  13.448
21290W        W82744  12.247  29.446   0.797
21291W        W82745  33.539  14.207  13.991
21292W        W82746  24.002   5.755   4.665
21293W        W82747  25.522  40.547   0.362
21294W        W82748  30.651   6.728  14.931
21295W        W82749   5.224  39.927  11.124
21296W        W82750  34.025  32.133  14.994
21297W        W82751  44.312   6.295  13.996
21298W        W82752  39.368   6.215  11.461
21299W        W82753  15.325   7.797   4.322
21300W        W82754  13.695  28.069  11.924
21301W        W82755  32.614  39.362   4.665
21302W        W82756  11.630   6.277   0.804
21303W        W82757  34.387   0.397  10.629
21304W        W82758  40.437   4.349   2.682
21305W        W82759   0.428  33.016   3.855
21306W        W82760  35.051  44.390   5.091
21307W        W82761  15.092   6.382   0.460
21308W        W82762   6.742  22.706   2.256
21309W        W82763   5.375  33.999   1.422
21310W        W82764  21.081  26.506   2.822
21311W        W82765  28.663   6.836   1.338
21312W        W82766  19.542   9.753  11.010
21313W        W82767  31.066  10.375  11.561
21314W        W82768  19.209  22.171   2.183
21315W        W82769  33.558  11.360  13.844
21316W        W82770  16.596  25.506   4.221
21317W        W82771   0.819  19.629   2.852
21318W        W82772  40.387  26.019  14.794
21319W        W82773  42.004  23.616  13.368
21320W        W82774  15.675  35.431  12.558
21321W        W82775  24.684  39.400  11.100
21322W        W82776  24.004  41.501  10.124
21323W        W82777   7.300  24.157   3.732
21324W        W82778  35.461  10.159  12.902
21325W        W82779  21.609  10.143  12.991
21326W        W82780  19.685  24.539   2.822
21327W        W82781  33.919   4.862  12.974
21328W        W82782  20.680  11.199  12.041
21329W        W82783  18.195  32.115  11.862
21330W        W82784  32.100  21.720   1.781
21331W        W82785  22.653   1.927  12.432
21332W        W82786  43.336  35.375   1.244
21333W        W82787  34.002  29.105  14.509
21334W        W82788  13.226  20.732  14.943
21335W        W82789  33.443  20.548  14.875
21336W        W82790   9.175  33.588   0.250
21337W        W82791  28.596  34.469  12.091
21338W        W82792  29.529  24.500   3.727
21339W        W82793  12.354   4.329  11.518
21340W        W82794  25.081  21.161  14.436
21341W        W82795  19.687   9.707  11.441
21342W        W82796  42.011  33.960   4.225
21343W        W82797  15.675   8.286   0.260
21344W        W82798  42.340  16.304   0.845
21345W        W82799  41.956  13.230  10.556
21346W        W82800  30.417  26.474  10.610
21347W        W82801  26.195   6.750   3.844
21348W        W82802  30.144  26.077   2.221
21349W        W82803  31.522  17.556  12.881
21350W        W82804   6.217  16.605  12.545
21351W        W82805  25.128   8.214  11.371
21352W        W82806  27.649   8.282   0.373
21353W        W82807  20.031  23.566   3.775
21354W        W82808  27.057  15.286  12.003
21355W        W82809  12.840   9.214   1.400
21356W        W82810  44.999  26.007  14.854
21357W        W82811  10.754  39.522   9.575
21358W        W82812  42.819   1.483   0.903
21359W        W82813  36.056  18.574   2.837
21360W        W82814   1.452  44.959   2.829
21361W        W82815  16.763  18.599   1.351
21362W        W82816  27.096   5.387   1.287
21363W        W82817  44.832  39.977   0.426
21364W        W82818  18.701  18.237  10.117
21365W        W82819  43.861  40.837  11.889
21366W        W82820  43.820  35.915  12.436
21367W        W82821  38.416  12.804  13.905
21368W        W82822   2.382  34.005   1.922
21369W        W82823   4.215  34.564  14.342
21370W        W82824  34.017  43.292  11.925
21371W        W82825  20.712  41.901   2.232
21372W        W82826  10.281  16.117  14.468
21373W        W82827   3.412  10.736   4.820
21374W        W82828  19.221   0.852  10.568
21375W        W82829  14.693  39.315  14.438
21376W        W82830   3.881   1.953   1.349
21377W        W82831  22.544  40.910  13.848
21378W        W82832  21.131  37.351   2.792
21379W        W82833  29.163  42.494   0.302
21380W        W82834  44.825  19.684  14.764
21381W        W82835   7.747  12.761  10.114
21382W        W82836  35.432   5.864   1.441
21383W        W82837  25.207  10.345  13.466
21384W        W82838   9.325  14.597  12.947
21385W        W82839  12.203  17.596   3.778
21386W        W82840  26.674  38.371  11.002
21387W        W82841   8.839  42.855  13.405
21388W        W82842  22.110  38.903   0.900
21389W        W82843  17.661  31.977  12.532
21390W        W82844  22.575   7.907  14.952
21391W        W82845   6.804  30.147   2.891
21392W        W82846  25.650  10.824   2.685
21393W        W82847   9.835  14.286   3.869
21394W        W82848  12.240  38.425  12.560
21395W        W82849  32.547  28.620   3.320
21396W        W82850  28.087  18.773  10.939
21397W        W82851   1.792  40.852  14.771
21398W        W82852   6.726  39.994  14.846
21399W        W82853  14.309  28.054   2.318
21400W        W82854  31.990  41.425  10.046
21401W        W82855   4.753  28.547   2.730
21402W        W82856   0.490   4.246   2.661
21403W        W82857  24.096  14.153   1.734
21404W        W82858  28.535  39.897   0.778
21405W        W82859  44.481  13.666   1.251
21406W        W82860   4.359  20.141  10.982
21407W        W82861   7.883  31.406  12.405
21408W        W82862   6.228   1.931  14.763
21409W        W82863  23.201  39.357   3.258
21410W        W82864  39.492  42.972   5.109
21411W        W82865   1.430  20.661   3.795
21412W        W82866  15.708  37.493   2.850
21413W        W82867   3.854  19.050   2.667
21414W        W82868  39.452  27.127   2.261
21415W        W82869   1.401  23.997  12.048
21416W        W82870   5.398  40.316   2.214
21417W        W82871   5.391  18.221   1.782
21418W        W82872  28.513  32.992   3.371
21419W        W82873  17.702  41.534   0.361
21420W        W82874   9.670  42.967   4.227
21421W        W82875  25.178   1.365   3.858
21422W        W82876  26.148  31.502  12.930
21423W        W82877  44.760   5.434   3.279
21424W        W82878  37.858  32.122   0.312
21425W        W82879  22.078   7.391  11.483
21426W        W82880  14.778   0.894   1.746
21427W        W82881  41.810  24.063   1.748
21428W        W82882  37.371  22.710  12.979
21429W        W82883   5.919  11.177   0.814
21430W        W82884  37.395  35.855  11.552
21431W        W82885  28.624   0.263  10.600
21432W        W82886  41.425  41.421   4.599
21433W        W82887  38.454  20.038  14.000
21434W        W82888  44.782  43.877  13.329
21435W        W82889  19.229  39.014   2.241
21436W        W82890  38.355   9.172  14.507
21437W        W82891   0.746   9.744  14.294
21438W        W82892  43.282  30.609  13.899
21439W        W82893  26.997   7.351   4.293
21440W        W82894  42.951  29.538   1.322
21441W        W82895  43.489  34.610   0.852
21442W        W82896  35.956  30.531  10.893
21443W        W82897  30.477   0.928   3.286
21444W        W82898  33.102  25.646  13.458
21445W        W82899  37.990  33.086  12.374
21446W        W82900   6.351  44.803  10.487
21447W        W82901  14.125   6.826  13.547
21448W        W82902  11.333  37.954   0.281
21449W        W82903   9.883  29.137  11.921
21450W        W82904  36.367  33.481   2.217
21451W        W82905  14.267   6.815   0.792
21452W        W82906  29.939  26.193   3.384
21453W        W82907   9.716  22.221   0.790
21454W        W82908  26.154  22.565  11.078
21455W        W82909  37.463  25.186  13.000
21456W        W82910  13.799  26.977  12.883
21457W        W82911  18.585  26.531   4.136
21458W        W82912  18.111  26.476   1.370
21459W        W82913  44.270  36.951   1.775
21460W        W82914  25.119   6.755  12.439
21461W        W82915  43.446  25.644   3.195
21462W        W82916  36.500   5.432   1.728
21463W        W82917  18.133   5.268  14.938
21464W        W82918  16.672   7.739   0.318
21465W        W82919  36.459  22.194  14.510
21466W        W82920  39.880  37.074  11.038
21467W        W82921  17.794  34.011   0.444
21468W        W82922   1.905  41.896  13.866
21469W        W82923  19.681  31.579   4.801
21470W        W82924  16.287   9.381  14.381
21471W        W82925  31.514   0.339  12.428
21472W        W82926  16.095   6.400   4.649
21473W        W82927  13.673   5.330   2.209
21474W        W82928  19.108  33.050  12.051
21475W        W82929  31.622  22.547   3.250
21476W        W82930  37.419  14.295  12.478
21477W        W82931  20.747  37.457   3.847
21478W        W82932  13.785  17.607   4.619
21479W        W82933  20.733   7.215   3.176
21480W        W82934   8.193  26.093   2.767
21481W        W82935  36.537  36.957   2.257
21482W        W82936  42.988   6.801  10.539
21483W        W82937  17.295  31.026  10.423
21484W        W82938  43.375  41.938  13.976
21485W        W82939  36.996   6.401  13.332
21486W        W82940   0.975  24.503  13.058
21487W        W82941  25.130   9.183  13.031
21488W        W82942  39.358  15.134  13.064
21489W        W82943  38.334  29.563   2.671
21490W        W82944  24.591   0.287  13.442
21491W        W82945  32.433  24.652   4.247
21492W        W82946  32.461  12.251  11.876
21493W        W82947  39.350  10.721   4.339
21494W        W82948  43.946  41.491   4.610
21495W        W82949   3.244  25.080   3.798
21496W        W82950  20.064  34.504  10.403
21497W        W82951  20.535  16.633   2.370
21498W        W82952  35.474   5.689  10.964
21499W        W82953  24.074  20.185   1.363
21500W        W82954  42.899  10.702  13.481
21501W        W82955  36.036  39.847   4.831
21502W        W82956  38.967  41.389  12.855
21503W        W82957  43.482  42.470  13.918
21504W        W82958   0.471   0.332  13.901
21505W        W82959  22.243  13.715   3.182
21506W        W82960  36.041   7.354  14.475
21507W        W82961  26.170   4.313  13.797
21508W        W82962   9.659  12.299  14.955
21509W        W82963   7.665   1.483   4.215
21510W        W82964   0.798   0.402  13.518
21511W        W82965  16.240  27.080  11.377
21512W        W82966  34.401  30.595   4.257
21513W        W82967  25.118   9.224   1.402
21514W        W82968  18.204  27.546   0.869
21515W        W82969  11.160  32.461  11.503
21516W        W82970  35.985  39.510   5.735
21517W        W82971  36.456  20.142  14.944
21518W        W82972  25.641  30.004   4.334
21519W        W82973   1.379  12.200   3.711
21520W        W82974  11.667   3.724   2.687
21521W        W82975  32.101  43.871  12.402
21522W        W82976  10.247   8.687  13.396
21523W        W82977  37.902  44.968   3.864
21524W        W82978  37.430  11.157   3.231
21525W        W82979  13.137  12.148  14.420
21526W        W82980  10.176  12.827   2.734
21527W        W82981   5.416  10.794  14.019
21528W        W82982  35.910  33.403   1.331
21529W        W82983   3.876  27.634   3.164
21530W        W82984  22.113  38.859   3.755
21531W        W82985   8.259   9.809   4.216
21532W        W82986  37.566   5.379   3.383
21533W        W82987  43.885  17.674  12.867
21534W        W82988  16.634   5.319   4.804
21535W        W82989  12.783  37.403   3.703
21536W        W82990  15.592   9.291  14.921
21537W        W82991   7.263  43.013   1.449
21538W        W82992  31.520  37.413   1.853
21539W        W82993   6.303  17.272  10.925
21540W        W82994  32.623   4.406   3.639
21541W        W82995  34.029  39.032  10.018
21542W        W82996  27.968  36.560   2.737
21543W        W82997  24.700  42.503   1.713
21544W        W82998   3.901  27.966   2.199
21545W        W82999  43.848  32.441   0.951
21546W        W83000  34.471  33.549   0.861
21547W        W83001   5.348  27.972   0.442
21548W        W83002  42.958  16.666   0.830
21549W        W83003   2.227  15.268   0.380
21550W        W83004  14.643  33.552   4.154
21551W        W83005  10.376  40.034  11.945
21552W        W83006   6.281  33.517  14.353
21553W        W83007  16.165  25.989  12.067
21554W        W83008   9.782  23.998  12.034
21555W        W83009  43.496  35.460  11.935
21556W        W83010   5.797   6.299   1.755
21557W        W83011   8.200   4.445  14.367
21558W        W83012  13.182  34.561   9.952
21559W        W83013  33.529  16.312   0.750
21560W        W83014   5.346   4.707   1.799
21561W        W83015  32.555   5.852   3.660
21562W        W83016  15.710  36.557  12.461
21563W        W83017  36.915  21.596   4.811
21564W        W83018  15.283  44.827   1.311
21565W        W83019  44.847  22.734  13.903
21566W        W83020  32.458  33.396   1.363
21567W        W83021  37.976  36.395  13.963
21568W        W83022  30.646   9.174  14.352
21569W        W83023  42.011  41.024  14.378
21570W        W83024   8.228   0.283  12.085
21571W        W83025  42.996   7.178  14.298
21572W        W83026  37.573   1.855  14.016
21573W        W83027  23.143  26.982   3.806
21574W        W83028  34.511  19.544  11.084
21575W        W83029  38.325  26.166   2.755
21576W        W83030   8.383   4.221   4.773
21577W        W83031   2.737  32.006  12.475
21578W        W83032  38.482   4.903  14.499
21579W        W83033  35.976   2.448  14.424
21580W        W83034  30.053  30.961   3.810
21581W        W83035   0.364  35.532   1.289
21582W        W83036   1.772  32.030   4.117
21583W        W83037  10.229  16.227   2.861
21584W        W83038  18.658  32.424   0.429
21585W        W83039  15.086   4.365   1.228
21586W        W83040  17.281   6.802  14.900
21587W        W83041  34.419  10.832   1.248
21588W        W83042  20.077  18.235  10.113
21589W        W83043  11.128   8.347  13.996
21590W        W83044  44.837  35.452  14.275
21591W        W83045  38.553  29.565  13.855
21592W        W83046  42.926  18.547   1.380
21593W        W83047  19.745  38.437  10.466
21594W        W83048  43.909  42.940   0.805
21595W        W83049  31.138  15.677  14.300
21596W        W83050  30.984   2.937  10.019
21597W        W83051  41.419  19.066  12.450
21598W        W83052  11.813  39.481  13.535
21599W        W83053  38.493   2.265   2.764
21600W        W83054  36.513   5.709  11.508
21601W        W83055  25.497   4.860   1.749
21602W        W83056  30.472  25.103  12.960
21603W        W83057   7.284   0.329   3.313
21604W        W83058   6.887  19.046  14.978
21605W        W83059  25.643  44.932  13.481
21606W        W83060  10.333  12.786   1.277
21607W        W83061  21.210  39.916   4.132
21608W        W83062   8.848   2.420   0.337
21609W        W83063  23.606  30.010   0.806
21610W        W83064  32.040  40.484   0.875
21611W        W83065  43.352   9.306  10.416
21612W        W83066  44.259  29.134   1.862
21613W        W83067  18.666  37.549   0.386
21614W        W83068   7.398  14.822  10.643
21615W        W83069   6.198  44.792  12.370
21616W        W83070  19.708   4.931  12.534
21617W        W83071   2.841  26.126   0.424
21618W        W83072  28.932   0.987  13.039
21619W        W83073  33.128  36.056  13.873
21620W        W83074  31.603  23.520   0.326
21621W        W83075  22.539   2.239  13.396
21622W        W83076  40.991  14.188   4.620
21623W        W83077   5.887   4.808   4.800
21624W        W83078  30.914  13.260  13.524
21625W        W83079   8.700  39.981  14.026
21626W        W83080  42.969  26.165  10.633
21627W        W83081  10.355   6.188   4.239
21628W        W83082  18.083   1.435   1.276
21629W        W83083  38.054  30.916  14.888
21630W        W83084  18.074   7.236  11.083
21631W        W83085  37.893  12.350   2.681
21632W        W83086   9.244  29.461  11.014
21633W        W83087  12.850  15.669   9.999
21634W        W83088   3.368  43.789   2.879
21635W        W83089  15.715   8.233   4.143
21636W        W83090   9.333  28.929   4.772
21637W        W83091  34.544   3.453   3.362
21638W        W83092   3.333  27.475   2.284
21639W        W83093  37.497  41.361  12.000
21640W        W83094   6.261  35.535  12.437
21641W        W83095   9.192  22.223  11.943
21642W        W83096   8.704  14.753   0.802
21643W        W83097   4.899   1.337  14.947
21644W        W83098  13.212  29.624   0.894
21645W        W83099  14.833  27.179   1.854
21646W        W83100   9.884  10.150  14.408
21647W        W83101  44.972  18.242   2.819
21648W        W83102  37.489  24.227  14.027
21649W        W83103   8.311  41.856  10.416
21650W        W83104  22.153  37.043  14.797
21651W        W83105  35.039   7.332  11.572
21652W        W83106  33.401  40.427   0.866
21653W        W83107  12.352  12.150  10.514
21654W        W83108  22.502  40.978  14.916
21655W        W83109   5.399   8.342  12.825
21656W        W83110  34.444  10.873  12.479
21657W        W83111  15.317  30.006  11.006
21658W        W83112  41.965  29.156  13.056
21659W        W83113  38.942  31.506   2.202
21660W        W83114  13.343  28.144   3.815
21661W        W83115   2.805  38.409   1.271
21662W        W83116   8.728  27.618   3.325
21663W        W83117  30.457   0.420   0.799
21664W        W83118  11.669  39.983   0.865
21665W        W83119  42.285  36.403  11.508
21666W        W83120  18.127  11.794  14.442
21667W        W83121   1.248   7.824   3.271
21668W        W83122  33.429  44.836   4.732
21669W        W83123   9.160  11.758   0.796
21670W        W83124   1.457  40.838   4.621
21671W        W83125  10.840   5.874   4.636
21672W        W83126   9.309  27.119  10.908
21673W        W83127  23.549  39.553  11.952
21674W        W83128  30.498   2.837   4.157
21675W        W83129  15.644   0.943  12.514
21676W        W83130   0.352  20.096  12.006
21677W        W83131  35.501  13.105  11.909
21678W        W83132   9.724  31.602   1.704
21679W        W83133  26.529   9.781   3.666
21680W        W83134  34.375  14.823   1.829
21681W        W83135  22.615  39.851   3.149
21682W        W83136  43.969  30.587  13.865
21683W        W83137  30.544   4.308   3.684
21684W        W83138  18.172  43.856  12.827
21685W        W83139   8.176  22.049   3.345
21686W        W83140   6.327   1.355   1.833
21687W        W83141   6.841   3.847  11.974
21688W        W83142  43.947  17.616   0.861
21689W        W83143  19.583  12.329  11.036
21690W        W83144   7.708  21.622  13.835
21691W        W83145  17.202  17.295  10.978
21692W        W83146  15.133   7.760  10.952
21693W        W83147  33.493  34.483   1.785
21694W        W83148  35.016  44.293  10.124
21695W        W83149  16.107  42.929   4.167
21696W        W83150  32.036  33.443  12.063
21697W        W83151  17.795  27.477  13.319
21698W        W83152  38.835  32.562   1.752
21699W        W83153  22.664  35.409  14.890
21700W        W83154  30.518   0.913   2.715
21701W        W83155  43.868  12.856   4.673
21702W        W83156  39.432  28.167   1.277
21703W        W83157  21.702  37.908   1.387
21704W        W83158  19.572   0.416  10.564
21705W        W83159  17.188  20.114  14.338
21706W        W83160  28.046   8.172  12.576
21707W        W83161  43.782  24.176   2.689
21708W        W83162  21.605  25.163   2.415
21709W        W83163  15.786  18.599  14.502
21710W        W83164  14.700  30.612   3.846
21711W        W83165  30.484  12.254  13.814
21712W        W83166  19.074  28.954   4.694
21713W        W83167  39.046  15.136   9.941
21714W        W83168  24.674  12.729  11.375
21715W        W83169   2.465   1.860   3.368
21716W        W83170  21.605   0.822   2.406
21717W        W83171  27.476   2.419   1.807
21718W        W83172   1.950  30.941   3.197
21719W        W83173  18.201  20.177   0.318
21720W        W83174  10.383  44.337  10.053
21721W        W83175   5.206  19.756  11.867
21722W        W83176  41.854  12.616   0.751
21723W        W83177  34.526   9.356   1.822
21724W        W83178  16.145  25.179   0.388
21725W        W83179   4.802   2.449   1.903
21726W        W83180  13.312  16.803  14.001
21727W        W83181  33.988  12.136   9.628
21728W        W83182  30.919  18.258  13.838
21729W        W83183  23.072  23.148  10.992
21730W        W83184  18.623   1.393   1.769
21731W        W83185  13.158  40.940   0.810
21732W        W83186  15.708  23.046   3.786
21733W        W83187   8.385  12.651   2.877
21734W        W83188  31.623  22.722  14.985
21735W        W83189  25.139  21.661   1.708
21736W        W83190   3.890  11.352   0.429
21737W        W83191  31.567  32.892  13.854
21738W        W83192  36.939   2.442  13.023
21739W        W83193  12.205  12.774  10.926
21740W        W83194  20.223  36.507  11.457
21741W        W83195  15.741  29.980  10.489
21742W        W83196  27.574  39.919  14.431
21743W        W83197   2.733  33.621  11.053
21744W        W83198  28.520  17.623  11.872
21745W        W83199  10.319   2.350   2.802
21746W        W83200  38.489  35.043  14.356
21747W        W83201   5.198  12.739   0.949
21748W        W83202   3.927  16.274  14.362
21749W        W83203  24.149   2.865  12.849
21750W        W83204  26.979  43.378   4.281
21751W        W83205  13.326   2.911  13.384
21752W        W83206  22.059   7.876  13.826
21753W        W83207   9.742  28.123   4.273
21754W        W83208  22.589  19.756  13.984
21755W        W83209  41.034  29.933  12.071
21756W        W83210   0.988  34.483   3.241
21757W        W83211   2.323   8.828   3.264
21758W        W83212  25.491   5.798  12.026
21759W        W83213  44.826  41.891   0.928
21760W        W83214  18.156  24.016  14.296
21761W        W83215  30.478  27.103  14.861
21762W        W83216   6.707  29.481   1.357
21763W        W83217  24.202  37.465   3.216
21764W        W83218   7.893  19.201  10.508
21765W        W83219  36.984  38.833   5.227
21766W        W83220  37.980   3.728  13.823
21767W        W83221  32.496  32.018  14.772
21768W        W83222  30.041  44.926  14.448
21769W        W83223  29.075  38.447  14.481
21770W        W83224  28.141  15.083  14.848
21771W        W83225  33.980  16.240  13.387
21772W        W83226   2.950  15.321   3.758
21773W        W83227  43.484  14.201  11.539
21774W        W83228  20.057  32.075   4.832
21775W        W83229  17.713  13.648   2.678
21776W        W83230  18.133  14.165   1.835
21777W        W83231  38.000  16.220   3.829
21778W        W83232   4.284  26.620  12.443
21779W        W83233  10.824  20.722  11.917
21780W        W83234  14.296   7.239   1.218
21781W        W83235  14.304  37.498   0.335
21782W        W83236  40.438  17.707  13.907
21783W        W83237   1.462   3.875   2.345
21784W        W83238   0.926  20.677  11.468
21785W        W83239   6.414  39.496   3.646
21786W        W83240  26.613  24.642   3.231
21787W        W83241  24.194  25.130   0.881
21788W        W83242  21.656   5.297   2.887
21789W        W83243   8.319  21.717   0.471
21790W        W83244  16.265  41.912   0.243
21791W        W83245  32.516   3.802  12.383
21792W        W83246  19.601   8.392  11.543
21793W        W83247  34.068  15.091  11.070
21794W        W83248  22.186  26.041   2.675
21795W        W83249   6.291  36.897  12.468
21796W        W83250  24.673  35.017   9.927
21797W        W83251  11.696  32.622  13.818
21798W        W83252   6.252  34.476  12.530
21799W        W83253  19.273  21.070   1.411
21800W        W83254  43.995  14.327   1.891
21801W        W83255  43.285  26.457   4.286
21802W        W83256  20.755  27.118   0.256
21803W        W83257  26.466  42.386  13.006
21804W        W83258   7.719  18.084  10.476
21805W        W83259  38.453   8.248  13.051
21806W        W83260  19.750   2.366  10.935
21807W        W83261  23.526  37.031   4.831
21808W        W83262  41.972  12.156  13.518
21809W        W83263  17.252  18.069  12.460
21810W        W83264  35.575  36.564  14.508
21811W        W83265  16.688   5.283  13.399
21812W        W83266  28.085  37.339  14.353
21813W        W83267  33.499  18.165   2.861
21814W        W83268  21.192   2.929   4.254
21815W        W83269  28.647  44.992  14.856
21816W        W83270  30.941  44.777   2.317
21817W        W83271  21.603  16.705   2.283
21818W        W83272  12.184  26.166   4.684
21819W        W83273  13.690   8.186   4.176
21820W        W83274  30.074   4.867  12.090
21821W        W83275  16.702  27.066   1.377
21822W        W83276  10.380  29.116  11.061
21823W        W83277  44.879  22.026   0.801
21824W        W83278  10.224  34.998  12.509
21825W        W83279  25.541  11.673   2.391
21826W        W83280   6.256  41.950  14.463
21827W        W83281  12.144  22.612   0.768
21828W        W83282  13.648  15.637  11.003
21829W        W83283  22.208   1.249   0.872
21830W        W83284  15.732  41.451  11.110
21831W        W83285  39.330  38.375  13.018
21832W        W83286  31.489  39.469  11.605
21833W        W83287  40.466  43.827  14.408
21834W        W83288  29.582  29.124   4.675
21835W        W83289  12.140   2.779  14.974
21836W        W83290  31.952  21.637   2.274
21837W        W83291  36.849  11.629   2.362
21838W        W83292  35.936   9.389  14.413
21839W        W83293  43.877  10.214  10.507
21840W        W83294  28.987  35.455   4.742
21841W        W83295  17.626  21.169  14.341
21842W        W83296  33.499  25.548   5.240
21843W        W83297   0.322   2.470  13.444
21844W        W83298  15.113   8.291   1.724
21845W        W83299  15.722  23.624   1.421
21846W        W83300   6.338  26.624  12.048
21847W        W83301  41.845  21.157  14.013
21848W        W83302  30.983  25.977   3.800
21849W        W83303  39.887  22.565   3.156
21850W        W83304  24.524  18.689   0.860
21851W        W83305  14.637  23.555   0.344
21852W        W83306  18.120  21.661   2.671
21853W        W83307   8.348   3.912   2.675
21854W        W83308   7.347  39.958   4.208
21855W        W83309   0.934  38.864  13.332
21856W        W83310   5.716  19.647   3.291
21857W        W83311  36.384   8.758   0.894
21858W        W83312   4.268  35.433  12.983
21859W        W83313  18.256  37.475   3.634
21860W        W83314  30.509  13.333  12.451
21861W        W83315  16.722  37.507  11.531
21862W        W83316  22.049   2.466  11.080
21863W        W83317  35.590  42.473   4.201
21864W        W83318   7.689  17.213  12.856
21865W        W83319  22.044  33.019   1.327
21866W        W83320   6.708  15.716  11.503
21867W        W83321  22.082   0.982  13.348
21868W        W83322  12.805   0.363  12.837
21869W        W83323  43.318   9.325   2.414
21870W        W83324  24.480  30.622   0.944
21871W        W83325  40.445  44.849  13.317
21872W        W83326  15.701  20.525   0.816
21873W        W83327  38.899  43.498  12.972
21874W        W83328  32.133  32.012  13.522
21875W        W83329  11.803  32.599  10.416
21876W        W83330  27.617  42.940   1.859
21877W        W83331  39.829  43.896   2.670
21878W        W83332  25.475  23.649   1.713
21879W        W83333   7.832  14.256   3.272
21880W        W83334  22.640   5.311   4.771
21881W        W83335  16.741  34.921   4.747
21882W        W83336  29.622  26.579   5.129
21883W        W83337  37.548  29.660  14.989
21884W        W83338  27.980  27.104  10.548
21885W        W83339  41.825  36.521  14.829
21886W        W83340   2.889  12.156   3.243
21887W        W83341   0.949  37.346  13.386
21888W        W83342   6.743  26.160  13.988
21889W        W83343   0.943  32.974  14.826
21890W        W83344  12.353   7.192  14.341
21891W        W83345  33.559  14.235   4.332
21892W        W83346  39.870   4.266   1.833
21893W        W83347  30.048   4.759   3.374
21894W        W83348  18.581  27.160   2.277
21895W        W83349  41.813  39.535  10.999
21896W        W83350  24.974  35.409   3.713
21897W        W83351  27.179   6.218   5.236
21898W        W83352  26.582  38.968   0.811
21899W        W83353  11.245  43.903   2.710
21900W        W83354   3.799  31.509  11.454
21901W        W83355   5.715   4.791   0.888
21902W        W83356  19.629  41.961   3.723
21903W        W83357  18.277  37.388  13.838
21904W        W83358  11.149  13.732  14.325
21905W        W83359  22.732  29.604  12.379
21906W        W83360  23.560  35.859   3.230
21907W        W83361   6.410  17.653   3.300
21908W        W83362  14.615   6.752   1.306
21909W        W83363  22.650   9.371   1.707
21910W        W83364  18.639   5.819   2.842
21911W        W83365  34.029  27.181  11.496
21912W        W83366   2.453  28.185   2.713
21913W        W83367   7.847  39.450  14.406
21914W        W83368  12.246   0.305   3.225
21915W        W83369  44.491   7.289   1.212
21916W        W83370  28.940  40.841   4.646
21917W        W83371  17.601  16.643   2.747
21918W        W83372  37.345   2.282  10.999
21919W        W83373  13.619  30.619  10.928
21920W        W83374  12.168  11.323   0.747
21921W        W83375   1.400   0.829   0.884
21922W        W83376  25.588  21.099   4.797
21923W        W83377  20.724  20.694  14.479
21924W        W83378  35.048  30.532   4.782
21925W        W83379  43.324  18.142  11.865
21926W        W83380  34.409  38.991  13.904
21927W        W83381  29.959  23.207  11.432
21928W        W83382  32.064   1.385  10.409
21929W        W83383   3.274  16.089  10.414
21930W        W83384  22.553  19.204  13.045
21931W        W83385   8.819  29.437  11.093
21932W        W83386  22.659   8.363   9.925
21933W        W83387  19.539  13.644   2.820
21934W        W83388  18.741  12.233  13.532
21935W        W83389  41.349  26.492  14.959
21936W        W83390  34.369  14.262  13.939
21937W        W83391  18.743  26.613   2.345
21938W        W83392  33.012   9.282   5.201
21939W        W83393   6.770   2.424  10.548
21940W        W83394  16.632   1.447  13.931
21941W        W83395  33.118  28.664  12.071
21942W        W83396  33.058  40.857  11.890
21943W        W83397  19.268  15.207  13.454
21944W        W83398  22.695  42.900   2.234
21945W        W83399  24.634  17.776   4.154
21946W        W83400  42.470  16.661   1.892
21947W        W83401  11.367  28.063   0.392
21948W        W83402   1.804   7.846  14.798
21949W        W83403  15.249  22.695  11.452
21950W        W83404  32.944  25.009   0.741
21951W        W83405  40.014  10.376  11.952
21952W        W83406   0.385   8.402   2.665
21953W        W83407  13.697   9.230   4.133
21954W        W83408  38.344  44.293  13.328
21955W        W83409  20.220  26.168   1.297
21956W        W83410  36.019   1.239   4.678
21957W        W83411  19.675  13.331   1.278
21958W        W83412  44.810  37.860  14.806
21959W        W83413  28.079  18.732   2.801
21960W        W83414  29.118  34.053   0.901
21961W        W83415  24.672  19.616   0.444
21962W        W83416   3.889   4.236  10.496
21963W        W83417  36.964  23.558  14.840
21964W        W83418   5.341   0.288   3.854
21965W        W83419  21.730   8.835   2.780
21966W        W83420   2.255   9.331  11.016
21967W        W83421  17.650  38.852   2.398
21968W        W83422   7.389  11.722  11.066
21969W        W83423  43.868  42.411  14.319
21970W        W83424  34.483  44.501  11.897
21971W        W83425   6.860  41.398  14.444
21972W        W83426  17.591   6.411   3.322
21973W        W83427  41.414  13.651  13.547
21974W        W83428  25.083  31.907   3.323
21975W        W83429  28.967   2.784   1.327
21976W        W83430  26.071  22.200   1.733
21977W        W83431  30.479  37.567  11.871
21978W        W83432   0.368   7.174  10.480
21979W        W83433  29.477  39.439  13.896
21980W        W83434  36.037   1.277   1.778
21981W        W83435  22.600  28.042  11.467
21982W        W83436  33.120  16.172   1.783
21983W        W83437   3.283   3.948   1.806
21984W        W83438  39.552   9.805  13.387
21985W        W83439  13.633   8.827  14.962
21986W        W83440  26.520  20.563   4.772
21987W        W83441  25.568  44.349  13.963
21988W        W83442   2.864  26.479  14.956
21989W        W83443   9.282  23.125  10.410
21990W        W83444  28.184  14.319   1.871
21991W        W83445   7.707   0.929  11.872
21992W        W83446  27.448   6.367  10.453
21993W        W83447  40.457  30.444  13.417
21994W        W83448  43.461   3.265  11.414
21995W        W83449  42.480  11.714   3.629
21996W        W83450  31.092  36.905   0.852
21997W        W83451  28.009  12.847  14.437
21998W        W83452  42.013  26.471  11.045
21999W        W83453  43.021   0.350  10.610
22000W        W83454  22.501  24.083   2.301
22001W        W83455  35.962   0.316   4.600
22002W        W83456  41.854  16.310  11.386
22003W        W83457  18.611  23.713  10.583
22004W        W83458  15.708  41.402   0.728
22005W        W83459  39.442  24.725  12.911
22006W        W83460  33.029   9.885  11.013
22007W        W83461   1.252  38.347   2.214
22008W        W83462  16.120  39.401  10.896
22009W        W83463  16.140  24.025   0.747
22010W        W83464  43.414  17.793   1.789
22011W        W83465  21.246  30.961   2.773
22012W        W83466   4.852   5.371   4.131
22013W        W83467  18.773   3.289   2.697
22014W        W83468  10.360   1.274   0.454
22015W        W83469  22.550  28.016   2.278
22016W        W83470  15.244  15.131   4.681
22017W        W83471  15.783  28.482   0.297
22018W        W83472  31.991  20.617  14.007
22019W        W83473  40.361   7.409   1.719
22020W        W83474  14.801  14.712  11.609
22021W        W83475  17.176  20.640   0.864
22022W        W83476  39.899  25.577   2.408
22023W        W83477  22.589   1.814   2.688
22024W        W83478  43.428  40.969  11.933
22025W        W83479   3.327  26.598  12.486
22026W        W83480  27.159  26.496   0.927
22027W        W83481  22.572  23.235   4.248
22028W        W83482   8.193  31.091   2.816
22029W        W83483   4.713  20.125   5.110
22030W        W83484  23.572  18.145  12.379
22031W        W83485   1.368  22.017   4.263
22032W        W83486  37.984   9.800  11.502
22033W        W83487  15.616   3.741   2.219
22034W        W83488  39.348  26.627  14.450
22035W        W83489  25.492  24.501   1.907
22036W        W83490  40.898  17.131   1.376
22037W        W83491  32.892  14.114   3.819
22038W        W83492  43.878  38.550  14.455
22039W        W83493  42.804  33.399   2.204
22040W        W83494  43.892   6.210  11.487
22041W        W83495  30.474  31.078  13.018
22042W        W83496  17.717  17.731   0.341
22043W        W83497   0.823  19.259  12.563
22044W        W83498   1.250  29.004  13.829
22045W        W83499   2.886  10.277   4.650
22046W        W83500  38.906  32.082   2.331
22047W        W83501  20.764  17.630  11.012
22048W        W83502   3.729  21.114   2.728
22049W        W83503   0.299   3.394   4.727
22050W        W83504   9.388  27.173   2.814
22051W        W83505   8.265  41.803  14.491
22052W        W83506  43.485   7.814  14.493
22053W        W83507  26.103  27.956   2.265
22054W        W83508  32.481  34.121  12.076
22055W        W83509  13.606  17.225  14.323
22056W        W83510  26.113  32.428   2.739
22057W        W83511  41.829   9.392  13.542
22058W        W83512  29.605  40.955  12.886
22059W        W83513  23.554   8.661  14.389
22060W        W83514   0.386   0.987  13.399
22061W        W83515   5.419   0.878  14.304
22062W        W83516  18.283  37.496  12.517
22063W        W83517  10.253  25.592   2.710
22064W        W83518   9.195  33.015   1.239
22065W        W83519  37.393  37.541   0.312
22066W        W83520  34.972   8.370   1.290
22067W        W83521  30.122  15.221   1.407
22068W        W83522  38.450  35.048   0.257
22069W        W83523  41.535  42.817  11.078
22070W        W83524  18.175  17.102   3.317
22071W        W83525  29.919  40.395  12.907
22072W        W83526  15.170  14.226  14.922
22073W        W83527   9.821  32.093  12.031
22074W        W83528  15.253  33.511  10.970
22075W        W83529  22.714   7.239  13.795
22076W        W83530  39.867  37.428   4.149
22077W        W83531  26.463  27.158   2.342
22078W        W83532  41.422   4.765  13.526
22079W        W83533  21.256  36.529   4.150
22080W        W83534  41.865  43.004   2.251
22081W        W83535  15.125  21.145   4.265
22082W        W83536  14.310   8.266  11.487
22083W        W83537  42.511  41.856  11.385
22084W        W83538   3.288  11.243  11.920
22085W        W83539  17.085  31.473   0.886
22086W        W83540  38.505  27.052  14.480
22087W        W83541  39.040  33.514  12.933
22088W        W83542  10.337  12.219  12.898
22089W        W83543  33.983  22.126  10.621
22090W        W83544  33.936   9.155   2.400
22091W        W83545   1.405  23.173   0.319
22092W        W83546  27.562  11.200   2.662
22093W        W83547  37.937  42.338   0.805
22094W        W83548  30.126  41.417  10.439
22095W        W83549  10.273  33.455   2.759
22096W        W83550  42.377  17.159  13.844
22097W        W83551  33.107  33.889   0.432
22098W        W83552  44.920  15.716   3.325
22099W        W83553  24.585  39.001   3.713
22100W        W83554  17.159  20.168  12.434
22101W        W83555  43.781   9.742   4.817
22102W        W83556  44.956  26.134   4.306
22103W        W83557  13.136  11.639   0.449
22104W        W83558  22.056   1.241   3.781
22105W        W83559  14.601  38.022   3.785
22106W        W83560  33.398  26.591  10.928
22107W        W83561   4.401  10.223   4.184
22108W        W83562  34.985  34.996  14.301
22109W        W83563  18.054  34.952   3.698
22110W        W83564  28.580  26.964  12.067
22111W        W83565  20.609  15.267  11.034
22112W        W83566  41.801  31.096  14.368
22113W        W83567  11.235  21.085  13.794
22114W        W83568   0.949  25.119   0.834
22115W        W83569   2.837   7.737   0.825
22116W        W83570   3.340   3.717  10.950
22117W        W83571  37.450  16.091  14.878
22118W        W83572  29.945  21.549   4.296
22119W        W83573  31.538  39.376   3.294
22120W        W83574  28.983   5.303   2.326
22121W        W83575  44.278  30.637  13.940
22122W        W83576  44.377  18.182   4.240
22123W        W83577  28.950  27.558  11.395
22124W        W83578   0.485  18.613  14.494
22125W        W83579  25.633  38.436   0.902
22126W        W83580  18.193  23.607  13.003
22127W        W83581  42.895  33.552  12.874
22128W        W83582  14.625   6.339   1.270
22129W        W83583  42.490   4.386  14.482
22130W        W83584   7.214   6.682   3.801
22131W        W83585  19.236   3.922  14.000
22132W        W83586  38.403  38.068   4.797
22133W        W83587  30.129   9.344   5.140
22134W        W83588   8.854  15.289   2.321
22135W        W83589  10.786  15.625  10.036
22136W        W83590  34.583  17.680   2.879
22137W        W83591  37.068  29.465  14.415
22138W        W83592  42.456   5.290  11.038
22139W        W83593   0.794  35.526  14.504
22140W        W83594  42.463  10.160   0.393
22141W        W83595  23.501   0.350   3.868
22142W        W83596  25.006  16.628  10.984
22143W        W83597  35.096  28.530  11.881
22144W        W83598   9.873   8.657  13.886
22145W        W83599   3.249  39.539  11.944
22146W        W83600   3.926  24.641  11.505
22147W        W83601  31.545   2.788  14.308
22148W        W83602  20.072  10.289   2.405
22149W        W83603  14.797  29.591   0.464
22150W        W83604  34.422  42.982   3.820
22151W        W83605   0.874  36.482  12.364
22152W        W83606  33.548  35.418   3.841
22153W        W83607  11.627  18.148   1.733
22154W        W83608  25.051  44.879   2.185
22155W        W83609  16.251  43.451  10.554
22156W        W83610   0.485   6.355  10.444
22157W        W83611   0.885  40.369   4.805
22158W        W83612  25.704  19.693  13.887
22159W        W83613  44.935  36.965   2.352
22160W        W83614  24.494  17.604  14.800
22161W        W83615  14.830  18.783  14.850
22162W        W83616   8.747  28.510  13.823
22163W        W83617  18.694  32.619  10.605
22164W        W83618  33.532   6.254   1.271
22165W        W83619   0.481  12.340  11.561
22166W        W83620  36.999  32.991  13.047
22167W        W83621  25.173  36.398   0.821
22168W        W83622  17.199  17.170   2.255
22169W        W83623  33.962  35.104   4.220
22170W        W83624  15.773   6.776  13.829
22171W        W83625   6.865  37.477   0.923
22172W        W83626  34.554   4.797   4.700
22173W        W83627  36.861  30.132  13.447
22174W        W83628   4.276   0.882  13.993
22175W        W83629  32.903   6.305   0.294
22176W        W83630  18.073  25.693  12.828
22177W        W83631  39.841   1.464   2.736
22178W        W83632  10.267  27.650  10.626
22179W        W83633   2.746   8.800   1.331
22180W        W83634   0.839  18.277  12.403
22181W        W83635  17.298  36.560   1.795
22182W        W83636  32.132  42.479   4.713
22183W        W83637  14.749  11.295   2.698
22184W        W83638  43.984   3.789  12.486
22185W        W83639  20.647   4.821  14.849
22186W        W83640  24.556  18.229  11.593
22187W        W83641  17.620   1.967   3.329
22188W        W83642  14.768  36.476   1.283
22189W        W83643  28.180  39.407   1.380
22190W        W83644   1.752  11.135  12.488
22191W        W83645  21.122  44.414  11.592
22192W        W83646  40.464   7.848   1.215
22193W        W83647  17.590  37.980   4.693
22194W        W83648  34.557  18.111  10.515
22195W        W83649   6.239  18.573   2.871
22196W        W83650  11.800  17.760   0.362
22197W        W83651  10.295  37.336  11.002
22198W        W83652  37.048  10.260   1.837
22199W        W83653  33.978  24.053   4.613
22200W        W83654  30.464   8.400   3.286
22201W        W83655  16.195  22.575  10.136
22202W        W83656  17.632   5.202  14.814
22203W        W83657  38.954  35.556  14.966
22204W        W83658  12.280  12.210   2.879
22205W        W83659  24.707   7.230   5.129
22206W        W83660  12.347  34.087  13.057
22207W        W83661  23.989  41.394  13.919
22208W        W83662  18.277  39.877   4.667
22209W        W83663  28.114   3.946   3.725
22210W        W83664  24.186  29.151   3.737
22211W        W83665  23.023   3.440   1.249
22212W        W83666   0.266  19.094   1.811
22213W        W83667  10.662  40.373   2.678
22214W        W83668  21.713  11.226   3.151
22215W        W83669  17.684   1.457   3.196
22216W        W83670  29.172  31.121   1.808
22217W        W83671  28.675  10.153  14.367
22218W        W83672   1.242  28.052  14.320
22219W        W83673  14.826  22.153   2.310
22220W        W83674   6.856  31.618  13.928
22221W        W83675  30.630  44.908  11.586
22222W        W83676  31.608  33.109   3.381
22223W        W83677  38.010  18.711  11.981
22224W        W83678   7.375  13.258  12.033
22225W        W83679   7.785  41.517  10.152
22226W        W83680   1.466  35.951   1.848
22227W        W83681  23.606  13.322  10.504
22228W        W83682  21.240  36.860   1.842
22229W        W83683  39.432   5.405   3.299
22230W        W83684   1.786  15.262   2.404
22231W        W83685  39.348  40.886  12.527
22232W        W83686  26.044  15.783  11.955
22233W        W83687  29.066  20.074  14.499
22234W        W83688   3.741  13.683   3.367
22235W        W83689   1.252  26.965   3.347
22236W        W83690  35.523   7.910  12.934
22237W        W83691   2.402  34.500  14.928
22238W        W83692  29.572  36.372  13.972
22239W        W83693  30.137  42.003  11.875
22240W        W83694  10.203  24.623  14.856
22241W        W83695  31.022  12.610   5.736
22242W        W83696  25.128  44.444  12.440
22243W        W83697   1.434   1.753   3.748
22244W        W83698  10.683   8.677   3.164
22245W        W83699  44.498  31.055  12.889
22246W        W83700  22.565  36.911  11.903
22247W        W83701  33.056  34.950   4.820
22248W        W83702  34.090  25.211   0.759
22249W        W83703  24.642  19.627   1.883
22250W        W83704  12.629  38.379   1.421
22251W        W83705  32.939  32.588  13.354
22252W        W83706  20.120  20.684  12.493
22253W        W83707  38.871  27.581   4.707
22254W        W83708  28.181  43.930  14.024
22255W        W83709   8.662  15.612   3.185
22256W        W83710  19.606  41.805  12.536
22257W        W83711  10.816  10.723   3.281
22258W        W83712   8.704   7.222   3.205
22259W        W83713  35.510   5.927   3.785
22260W        W83714  42.781  42.471   4.600
22261W        W83715  41.403  44.806   0.780
22262W        W83716  29.580   5.332  11.527
22263W        W83717  34.868  27.466  13.795
22264W        W83718  10.672  40.323  10.910
22265W        W83719  15.178   2.340  11.503
22266W        W83720  20.076   7.189  11.600
22267W        W83721  29.000  15.084  13.829
22268W        W83722  26.484  24.058   1.378
22269W        W83723  37.369   1.788   3.633
22270W        W83724  12.349  24.527  14.841
22271W        W83725  29.646  29.060   1.308
22272W        W83726   1.281  23.123   3.218
22273W        W83727  24.063  37.924   3.631
22274W        W83728  41.837   5.220  14.030
22275W        W83729  41.496  25.095   1.347
22276W        W83730  11.335  26.036   1.293
22277W        W83731  19.704  19.737  14.340
22278W        W83732  16.174  14.201  11.028
22279W        W83733  22.712  41.917  13.821
22280W        W83734  27.105  26.465   2.406
22281W        W83735  35.102  20.089  14.920
22282W        W83736  10.650  41.974  13.973
22283W        W83737  32.959  17.101   3.381
22284W        W83738  43.420  35.543  13.912
22285W        W83739  40.312  40.014  12.378
22286W        W83740  31.516  21.230  13.402
22287W        W83741  19.705  24.489  10.465
22288W        W83742  17.599  26.028   3.657
22289W        W83743  44.860  23.513   4.321
22290W        W83744  20.543  25.990  10.490
22291W        W83745   4.276  44.927  11.000
22292W        W83746  29.970  21.563  12.968
22293W        W83747  21.110  22.196  11.056
22294W        W83748  20.218  11.318  10.545
22295W        W83749  34.046  29.637   0.817
22296W        W83750  10.268   8.790   2.849
22297W        W83751   4.812  43.477   3.749
22298W        W83752  22.062  21.088   1.898
22299W        W83753  16.607  44.849  12.918
22300W        W83754  13.213   3.730  14.996
22301W        W83755  21.592   0.791  14.942
22302W        W83756   9.779  33.518  13.898
22303W        W83757  35.092  26.467  14.921
22304W        W83758  24.519  40.361  11.060
22305W        W83759  43.496  37.428   0.915
22306W        W83760   6.412  43.480  11.897
22307W        W83761  37.516  11.804  10.406
22308W        W83762  31.539  16.797  14.901
22309W        W83763  28.537  34.960   5.608
22310W        W83764  30.505  41.886   3.635
22311W        W83765   2.371   4.850  12.405
22312W        W83766   8.702  41.340   3.225
22313W        W83767   5.784  15.212  14.005
22314W        W83768  38.463  34.006   3.202
22315W        W83769  44.850  21.530   1.754
22316W        W83770  43.796  25.697   0.330
22317W        W83771  17.163  13.185   1.234
22318W        W83772  20.524  42.525  13.927
22319W        W83773  19.074  14.761   4.337
22320W        W83774  18.619  39.029  11.546
22321W        W83775   6.290  12.654  11.919
22322W        W83776  34.611  43.773  14.866
22323W        W83777  29.027  28.143  11.896
22324W        W83778  17.765  16.781   0.294
22325W        W83779  26.977  33.426   1.924
22326W        W83780  25.625  15.787  12.502
22327W        W83781  44.949  37.943   0.253
22328W        W83782  11.373   6.226  13.369
22329W        W83783  41.383   7.901   4.665
22330W        W83784  40.948   1.467  14.984
22331W        W83785   8.777  35.931  11.024
22332W        W83786  22.168  21.093   1.323
22333W        W83787  22.641  31.477   1.819
22334W        W83788  28.672   5.200   0.728
22335W        W83789  44.466  34.566  11.067
22336W        W83790  44.823  19.638   3.798
22337W        W83791  16.237  25.035  11.449
22338W        W83792  36.938  17.621  12.972
22339W        W83793  12.179  38.516  11.992
22340W        W83794   0.414  16.654  10.500
22341W        W83795  22.657  14.774  12.466
22342W        W83796  27.576  32.542   4.712
22343W        W83797  42.818   5.243   1.420
22344W        W83798  18.627   8.692  12.934
22345W        W83799  17.192  40.408  10.638
22346W        W83800  10.355  40.048   2.403
22347W        W83801  26.502  30.966   2.703
22348W        W83802  39.818  39.959   1.695
22349W        W83803   5.298  21.711  11.015
22350W        W83804  11.323  32.632  11.976
22351W        W83805  10.320  18.192  11.517
22352W        W83806  11.267  23.211   2.267
22353W        W83807  21.526  34.445  10.591
22354W        W83808  20.234   6.254   3.189
22355W        W83809  21.713   6.386   0.302
22356W        W83810   9.748  18.583  10.132
22357W        W83811  34.369  43.863  12.063
22358W        W83812  37.831  11.186   0.428
22359W        W83813   9.162   9.295   4.286
22360W        W83814  42.318  18.217  12.074
22361W        W83815  42.897   9.724   2.755
22362W        W83816  13.659  21.233  13.858
22363W        W83817   2.753  33.446   2.740
22364W        W83818  34.927   5.864   3.870
22365W        W83819  25.987   4.409   9.660
22366W        W83820   1.866  32.903   0.279
22367W        W83821  41.966  26.968  10.996
22368W        W83822  31.628  15.632   5.116
22369W        W83823  11.164  26.685  10.639
22370W        W83824  16.134  36.585  14.409
22371W        W83825  16.648  21.646  11.912
22372W        W83826  12.361  10.226  10.913
22373W        W83827  19.773  10.192  13.517
22374W        W83828  41.881  13.324   1.429
22375W        W83829  33.106  19.195  11.449
22376W        W83830  36.931  40.035   3.381
22377W        W83831  11.762   6.326   1.386
22378W        W83832  34.868  13.309  12.978
22379W        W83833  36.886  15.764   3.374
22380W        W83834  44.937  31.416  11.084
22381W        W83835  40.330  33.983  12.936
22382W        W83836   1.834  23.083  13.824
22383W        W83837  14.671  27.623   2.277
22384W        W83838   3.291  38.936  14.816
22385W        W83839  20.630  37.081   1.785
22386W        W83840  30.424  21.224   3.671
22387W        W83841  44.855  38.928   3.636
22388W        W83842   9.244   9.292   1.779
22389W        W83843   6.773  26.508  11.041
22390W        W83844  10.202   1.473   3.257
22391W        W83845  15.309   6.303  14.811
22392W        W83846  43.293   8.779   1.771
22393W        W83847  40.912  12.685  11.029
22394W        W83848   3.789   2.291  13.803
22395W        W83849  36.917  14.125  14.452
22396W        W83850   7.891  24.985   0.357
22397W        W83851  25.691  26.034   4.800
22398W        W83852  19.668  31.075  10.988
22399W        W83853   8.738   0.398  12.885
22400W        W83854  25.537  20.197   2.816
22401W        W83855  38.852  17.145   1.353
22402W        W83856  29.055  41.958  14.422
22403W        W83857  25.628  27.679   4.237
22404W        W83858  28.123  39.811   3.354
22405W        W83859   4.748  27.660  12.075
22406W        W83860  17.792  30.544  12.015
22407W        W83861   5.858  26.495  14.812
22408W        W83862  31.039  13.630   5.172
22409W        W83863  16.189  20.225   2.868
22410W        W83864  40.332   5.343   4.734
22411W        W83865  26.058  33.102   5.645
22412W        W83866  37.950  34.916  11.402
22413W        W83867   6.827   4.239  12.492
22414W        W83868  17.271  11.242   2.242
22415W        W83869  21.025  10.166  14.914
22416W        W83870  10.707  16.218   0.433
22417W        W83871  43.989  13.164  13.999
22418W        W83872   9.172  25.614  12.366
22419W        W83873  11.368  26.134   1.935
22420W        W83874  25.024  31.451   3.700
22421W        W83875  16.723  24.621   2.186
22422W        W83876  34.872   6.246  12.863
22423W        W83877  25.176  29.452   1.809
22424W        W83878  21.100  33.080   3.637
22425W        W83879  39.896  33.933   2.756
22426W        W83880  13.777   3.797  12.030
22427W        W83881  29.128  13.622   4.673
22428W        W83882   8.772  26.197  10.556
22429W        W83883  14.202  14.129   3.684
22430W        W83884  42.397  30.927   1.307
22431W        W83885  41.374  16.267  14.428
22432W        W83886  18.642  21.516   3.707
22433W        W83887  18.107   9.266   3.260
22434W        W83888  42.360  43.950  12.039
22435W        W83889  42.011  10.870   4.764
22436W        W83890  21.605  26.095  12.072
22437W        W83891  17.801  33.587  10.568
22438W        W83892  24.987  43.826   4.821
22439W        W83893  41.890  12.680  11.569
22440W        W83894  16.804  12.288  14.299
22441W        W83895  33.947   1.250   3.801
22442W        W83896  14.308  14.294   1.324
22443W        W83897   0.746  14.773  12.034
22444W        W83898  27.956  17.656   2.833
22445W        W83899  37.576  33.483  14.279
22446W        W83900  15.694  30.475  14.414
22447W        W83901  38.983  12.761  11.578
22448W        W83902   2.259  15.628   4.639
22449W        W83903  29.034  15.270  14.452
22450W        W83904  43.356  26.160   0.371
22451W        W83905   4.253  34.552  13.526
22452W        W83906  40.431   9.321   2.251
22453W        W83907  33.108  43.342  11.034
22454W        W83908   7.699   6.230  10.149
22455W        W83909  39.032  30.060  14.878
22456W        W83910  18.287  43.510   1.369
22457W        W83911   9.379  32.552   2.791
22458W        W83912  34.029  42.815   0.911
22459W        W83913  29.657  40.506   0.747
22460W        W83914  36.969   4.348   1.395
22461W        W83915  43.469  38.895   3.862
22462W        W83916  20.224  12.136   2.419
22463W        W83917  41.529   7.258   4.354
22464W        W83918  39.483  38.545   1.389
22465W        W83919  44.809  36.846   4.767
22466W        W83920  27.993  41.342  12.031
22467W        W83921  16.778   0.894   4.676
22468W        W83922   1.944  37.888   1.330
22469W        W83923  31.992  44.766   2.214
22470W        W83924   1.462  23.060   4.173
22471W        W83925   0.751  13.308  11.906
22472W        W83926  36.047  21.260   2.270
22473W        W83927  38.035  38.526  13.309
22474W        W83928  10.184  34.085   3.841
22475W        W83929  11.360  37.424   4.142
22476W        W83930  13.271  38.535   3.269
22477W        W83931  42.304  24.546  12.556
22478W        W83932  31.013  26.995   3.869
22479W        W83933  40.878  27.553   4.149
22480W        W83934  27.971  25.156   4.261
22481W        W83935  24.125  38.860   2.413
22482W        W83936  38.981  36.555   0.844
22483W        W83937  16.782  33.422  12.566
22484W        W83938  33.525  28.035  11.953
22485W        W83939  21.113  10.303   4.184
22486W        W83940   3.355  31.608   1.240
22487W        W83941  21.748  29.495   1.752
22488W        W83942   9.703  17.285   2.713
22489W        W83943  27.652   2.864   0.733
22490W        W83944  10.319  27.669   1.401
22491W        W83945   0.481   2.752  12.920
22492W        W83946  19.202  27.950  13.897
22493W        W83947  29.455  32.085  10.902
22494W        W83948  19.269  36.021  12.866
22495W        W83949  12.614  39.931  13.348
22496W        W83950   4.787   2.783   3.785
22497W        W83951  40.867  42.437   9.991
22498W        W83952  43.821  22.575  12.553
22499W        W83953  44.010   7.180  12.086
22500W        W83954  10.300  19.699   4.128
22501W        W83955  14.688  37.516   1.841
22502W        W83956   4.375   5.401   3.247
22503W        W83957  34.048   3.721  13.043
22504W        W83958   4.332   1.374  12.441
22505W        W83959  13.604   2.446   1.700
22506W        W83960  40.334   1.462  13.404
22507W        W83961  14.771  29.037  10.626
22508W        W83962  30.656  37.079  14.370
22509W        W83963  25.977  44.815  10.565
22510W        W83964  39.039  22.672   3.169
22511W        W83965   0.458  33.383  10.488
22512W        W83966   6.243  37.504   0.313
22513W        W83967  23.085  18.084  14.444
22514W        W83968  42.444  12.642   3.302
22515W        W83969  43.351  36.467   0.247
22516W        W83970  36.348  35.888  13.877
22517W        W83971  28.125  30.974   2.681
22518W        W83972  27.014   6.899   0.360
22519W        W83973  31.963  34.993   4.642
22520W        W83974  36.514  13.249   3.633
22521W        W83975  25.669  12.290  11.071
22522W        W83976  25.519  21.651   2.305
22523W        W83977  24.692  10.205   2.813
22524W        W83978  13.800   6.694   2.328
22525W        W83979   1.468  29.918  13.376
22526W        W83980  18.130  39.935  13.048
22527W        W83981  11.867  43.428   0.288
22528W        W83982  17.224  42.947  13.046
22529W        W83983  16.221   5.785  14.460
22530W        W83984  38.035  38.937   5.646
22531W        W83985   3.404  41.438   4.763
22532W        W83986  40.481  37.871  13.793
22533W        W83987  11.268  11.170  12.529
22534W        W83988  13.166   4.887  13.540
22535W        W83989  33.473  10.181   3.646
22536W        W83990   1.775   5.211  13.428
22537W        W83991   4.312   5.379  13.384
22538W        W83992  40.872  20.197   4.814
22539W        W83993  28.961  10.731   3.357
22540W        W83994   3.270   8.301  14.967
22541W        W83995   3.269   5.214  12.350
22542W        W83996  18.731  12.157   0.767
22543W        W83997  43.405  15.262  14.008
22544W        W83998  13.787  41.381   1.748
22545W        W83999  13.296  43.318  14.914
22546W        W84000   0.352  36.542   3.781
22547W        W84001  14.672   1.240   2.232
22548W        W84002  14.303   0.406  13.792
22549W        W84003  21.616  37.358   1.304
22550W        W84004   2.892  42.460   0.472
22551W        W84005   5.337  34.488  13.433
22552W        W84006  43.295  25.559  14.335
22553W        W84007  13.298  42.840  10.478
22554W        W84008  39.871  34.888  14.001
22555W        W84009   7.235  27.962  12.910
22556W        W84010  40.045  17.193   0.953
22557W        W84011  15.748  41.035   0.752
22558W        W84012  34.987  32.897   2.877
22559W        W84013   8.862  43.356   3.826
22560W        W84014  29.009  22.528  13.476
22561W        W84015   8.834  37.053   2.817
22562W        W84016  25.571  44.348  13.518
22563W        W84017  40.340   8.188  14.505
22564W        W84018  31.440   4.790  13.898
22565W        W84019  30.444  38.551   1.225
22566W        W84020  32.991   0.807  10.434
22567W        W84021   7.837   2.799   0.428
22568W        W84022  39.350   5.205  12.543
22569W        W84023  10.167   4.751  10.065
22570W        W84024   6.363  41.040   4.149
22571W        W84025  37.851   3.383   4.315
22572W        W84026  41.940  11.751   2.419
22573W        W84027  42.010  23.073  14.914
22574W        W84028  21.642  35.358  14.992
22575W        W84029  43.978  41.533  11.948
22576W        W84030   9.269  27.123   0.266
22577W        W84031  10.723  33.567  10.478
22578W        W84032  14.722  31.993  10.611
22579W        W84033  20.567  43.488  11.918
22580W        W84034   8.389   8.723  10.109
22581W        W84035  32.526  40.314   1.807
22582W        W84036  13.653  17.754  14.767
22583W        W84037   9.644  22.622   0.421
22584W        W84038  22.690  12.136  10.471
22585W        W84039  28.121  32.117   0.845
22586W        W84040   6.693  16.626  11.420
22587W        W84041   1.837  33.571   1.822
22588W        W84042   5.335   9.254  14.489
22589W        W84043  20.669  25.090   0.398
22590W        W84044  42.901  39.383  13.444
22591W        W84045   4.318   9.706   1.756
22592W        W84046  39.472   8.879   5.082
22593W        W84047  33.034  18.760  12.358
22594W        W84048  41.980  37.031  10.487
22595W        W84049   0.465  12.295   1.810
22596W        W84050  32.521  34.908   0.388
22597W        W84051  34.034   9.727   0.397
22598W        W84052  26.968  44.303   1.422
22599W        W84053  17.701  24.172  13.988
22600W        W84054  13.799   6.831  14.827
22601W        W84055  42.952  31.586  13.031
22602W        W84056  43.453  18.124  12.346
22603W        W84057  29.527  14.770   2.269
22604W        W84058  25.207  25.472   1.357
22605W        W84059  39.488  31.447  12.990
22606W        W84060   5.413  22.687  13.496
22607W        W84061  42.996  14.806   5.320
22608W        W84062  37.448  32.968  12.948
22609W        W84063  19.280  23.111   3.818
22610W        W84064   1.953  27.539   4.131
22611W        W84065   5.288   8.792   1.865
22612W        W84066  15.794  42.501  13.939
22613W        W84067  42.308   1.351  12.461
22614W        W84068  32.051  19.071   4.303
22615W        W84069  36.092   4.785  12.829
22616W        W84070  25.058  12.189   0.736
22617W        W84071   7.331  37.856   1.887
22618W        W84072  32.046  14.217   9.946
22619W        W84073   1.898  37.845  11.040
22620W        W84074  44.835  17.191   2.235
22621W        W84075  34.864  30.116   0.875
22622W        W84076  37.524  31.453  11.863
22623W        W84077  36.986  44.923   3.830
22624W        W84078  33.516  35.454  14.881
22625W        W84079   7.719   7.697   0.927
22626W        W84080  16.595  36.552  13.022
22627W        W84081  21.041  38.337  10.545
22628W        W84082  11.708  10.876  12.829
22629W        W84083  40.456   8.747   4.748
22630W        W84084  44.801  34.978  12.009
22631W        W84085  15.680   6.868   2.230
22632W        W84086   8.291  14.734   2.757
22633W        W84087  26.046   0.371   1.321
22634W        W84088  35.587  35.905  12.998
22635W        W84089   0.469  28.058  13.881
22636W        W84090  12.292  34.506   0.275
22637W        W84091  32.589  30.111   0.742
22638W        W84092  39.438  44.765   0.453
22639W        W84093  18.599  32.104  14.501
22640W        W84094  10.734  12.125   3.343
22641W        W84095  11.801  23.189   4.684
22642W        W84096  19.103  44.326  11.437
22643W        W84097   3.895  33.530   1.762
22644W        W84098  25.200  35.582  10.154
22645W        W84099  28.539  14.126  12.989
22646W        W84100  26.205  35.604   0.356
22647W        W84101  28.530  19.197  10.891
22648W        W84102   0.791   9.277   2.316
22649W        W84103   4.376  16.662  10.508
22650W        W84104  26.040  15.191   2.414
22651W        W84105   2.347  23.043   0.308
22652W        W84106  16.697   7.911   2.337
22653W        W84107  32.603   0.395   2.385
22654W        W84108   3.919   9.314   4.783
22655W        W84109  22.233  32.637  11.090
22656W        W84110   7.390  12.207   0.271
22657W        W84111  39.929  27.454   0.871
22658W        W84112  29.612  25.621   4.183
22659W        W84113  12.201  22.188  14.984
22660W        W84114   3.929  16.766  11.077
22661W        W84115  10.300  11.796  14.857
22662W        W84116  14.119  39.527   0.842
22663W        W84117  19.562  33.027  14.512
22664W        W84118  34.034   3.445   0.791
22665W        W84119  37.531  15.257  11.604
22666W        W84120  29.025   7.346  14.857
22667W        W84121  35.869   0.960  10.962
22668W        W84122  12.842  41.014   4.805
22669W        W84123  23.199   5.909   1.775
22670W        W84124  28.100  16.120   1.868
22671W        W84125  37.837   1.430  10.949
22672W        W84126  37.575  37.911   2.334
22673W        W84127  40.438  44.427  11.578
22674W        W84128  15.629  11.166   3.827
22675W        W84129  10.868   4.295   3.837
22676W        W84130  16.106  14.609  14.450
22677W        W84131   7.684   9.805   0.738
22678W        W84132  38.846   7.799   0.790
22679W        W84133  37.405   2.420  13.816
22680W        W84134  12.743   4.751   0.453
22681W        W84135  13.757  14.302   4.129
22682W        W84136  25.985  20.145   0.901
22683W        W84137  21.229   9.160   0.393
22684W        W84138   6.304  34.974   5.082
22685W        W84139  24.537  10.669  10.459
22686W        W84140  20.143  18.197  10.469
22687W        W84141  15.764  32.975  10.619
22688W        W84142  27.167  13.260   2.864
22689W        W84143   2.263  26.016  13.528
22690W        W84144  19.537   3.943  10.575
22691W        W84145  23.695  38.467  12.483
22692W        W84146  28.612  12.730  12.931
22693W        W84147  43.883  35.487  11.422
22694W        W84148  13.238  41.388   9.615
22695W        W84149  31.480  37.487  11.976
22696W        W84150  35.008  31.927  10.936
22697W        W84151  28.092   5.228   1.876
22698W        W84152  36.580   7.182   4.711
22699W        W84153  38.849  25.072   0.956
22700W        W84154   9.704  24.173  13.967
22701W        W84155  42.879  38.903   4.255
22702W        W84156   2.349  20.562  10.507
22703W        W84157  21.106   3.723   0.452
22704W        W84158  30.045  27.066   3.281
22705W        W84159   2.953  40.404   2.206
22706W        W84160  23.047  28.498  12.081
22707W        W84161  40.438  15.091   3.188
22708W        W84162  34.026  42.373   4.135
22709W        W84163  24.992  26.661   1.779
22710W        W84164   1.807  38.823   4.212
22711W        W84165   1.457   3.765   0.839
22712W        W84166  17.097   4.306   0.945
22713W        W84167   9.838  44.968  12.970
22714W        W84168  44.892  10.877   0.409
22715W        W84169  30.963  15.180  10.931
22716W        W84170  28.006   1.932  14.307
22717W        W84171  29.093  33.486  13.844
22718W        W84172   8.678  37.913  13.308
22719W        W84173  34.971  31.472  12.386
22720W        W84174   8.688  31.531   4.713
22721W        W84175  39.839  13.242  14.836
22722W        W84176  44.757  30.158  11.034
22723W        W84177  14.820  21.698   9.975
22724W        W84178  39.938  34.063   1.913
22725W        W84179  34.059  23.098   3.254
22726W        W84180   5.366  17.265   3.150
22727W        W84181  35.519  34.602  12.956
22728W        W84182  40.022   4.209  12.421
22729W        W84183  35.010  17.746   1.251
22730W        W84184  16.307  41.956  11.942
22731W        W84185  27.134  23.155  14.897
22732W        W84186   6.280  15.220   2.358
22733W        W84187   7.347  17.264   2.385
22734W        W84188  13.737   9.817   2.719
22735W        W84189  31.918  33.908  14.457
22736W        W84190  38.842  40.547   0.453
22737W        W84191  43.414   2.300   3.709
22738W        W84192  32.065  38.999  13.031
22739W        W84193   0.374  41.041   2.900
22740W        W84194  41.800  22.052   4.330
22741W        W84195   0.478   2.355  12.962
22742W        W84196  44.983  11.660  10.510
22743W        W84197  13.713  37.968  11.015
22744W        W84198  38.983  38.861  10.951
22745W        W84199  24.597  37.410  14.960
22746W        W84200  43.973  43.361   4.729
22747W        W84201  37.547  31.067  11.543
22748W        W84202  20.155   6.793   2.836
22749W        W84203  17.671  40.864  14.867
22750W        W84204  39.480  10.632  12.390
22751W        W84205  16.600  39.916  13.928
22752W        W84206  24.584  37.849   3.282
22753W        W84207  13.272  16.644  14.421
22754W        W84208  30.978  16.747  13.809
22755W        W84209   7.194  41.515   2.757
22756W        W84210   8.731  25.494  12.033
22757W        W84211  24.518  19.042  10.924
22758W        W84212  17.254  10.349  12.058
22759W        W84213  44.782  22.218   0.325
22760W        W84214   8.244  31.044   3.723
22761W        W84215  43.286  44.824  13.009
22762W        W84216  25.131  26.467  11.485
22763W        W84217   5.810  22.028  13.514
22764W        W84218   4.944  44.831   3.863
22765W        W84219  16.121   7.785   2.319
22766W        W84220  29.115  26.131  11.523
22767W        W84221  11.239  32.632  13.808
22768W        W84222  13.790  37.947   1.735
22769W        W84223   7.365  34.005   2.288
22770W        W84224   9.326  43.453   4.607
22771W        W84225  30.067   3.335  11.588
22772W        W84226  41.916  37.951  12.844
22773W        W84227  29.515  25.068  14.319
22774W        W84228   5.430  29.036   3.296
22775W        W84229   2.778  25.143  10.587
22776W        W84230  37.525  42.825  13.025
22777W        W84231  20.608   6.289  12.889
22778W        W84232   1.853  28.984   2.291
22779W        W84233  40.483  39.519  12.848
22780W        W84234  36.894  25.135   0.315
22781W        W84235   1.291  19.567  14.376
22782W        W84236   1.951   2.373   3.175
22783W        W84237  29.068   2.796   2.774
22784W        W84238  10.772  11.788   0.293
22785W        W84239  31.578  30.150   3.349
22786W        W84240  30.616  35.082  12.454
22787W        W84241  41.533  34.079   3.285
22788W        W84242  31.979  28.641  13.878
22789W        W84243  12.689  30.461   1.390
22790W        W84244  21.748  30.023   4.801
22791W        W84245  21.252  16.093   0.741
22792W        W84246  10.185  30.465   1.739
22793W        W84247  43.514  43.298   1.770
22794W        W84248  26.551  37.540   3.193
22795W        W84249  20.546  43.832  13.358
22796W        W84250  20.598  30.590  14.325
22797W        W84251  38.441   2.933   2.716
22798W        W84252  24.146  35.518   2.778
22799W        W84253  26.569  39.922   1.246
22800W        W84254   7.382   1.956  10.438
22801W        W84255   8.386  44.857   4.630
22802W        W84256  13.174   9.201  13.463
22803W        W84257  17.280  19.631   3.850
22804W        W84258  16.706   4.360  13.379
22805W        W84259  11.826  18.212  13.393
22806W        W84260  11.762   0.874   0.297
22807W        W84261  27.476   9.296   4.727
22808W        W84262  25.629  30.924  12.447
22809W        W84263  29.015  23.143   2.793
22810W        W84264  28.164  30.641  14.810
22811W        W84265  14.308   1.355  12.533
22812W        W84266  34.378  31.027   0.886
22813W        W84267  38.344  12.264   2.224
22814W        W84268  27.049  36.483   2.249
22815W        W84269  32.943  38.023  14.392
22816W        W84270  41.343  26.545   1.255
22817W        W84271   3.950  26.488   2.763
22818W        W84272  15.257  36.858  12.435
22819W        W84273  21.249  39.837   3.728
22820W        W84274  13.703   8.188  11.917
22821W        W84275  29.977  29.430  13.431
22822W        W84276  20.587  38.401  11.970
22823W        W84277  36.849  18.624  13.322
22824W        W84278  37.843  34.027  13.811
22825W        W84279   3.711  18.156   4.350
22826W        W84280  37.380  32.406   0.472
22827W        W84281  23.166  27.676  10.632
22828W        W84282  27.072  17.691  14.766
22829W        W84283  43.017  20.730   4.717
22830W        W84284  36.004  15.595  12.438
22831W        W84285  14.190   4.235   4.811
22832W        W84286  27.556  17.605   0.770
22833W        W84287  17.271  31.070  11.037
22834W        W84288  34.563   1.742   3.768
22835W        W84289  18.098  40.506  14.464
22836W        W84290  25.195   6.280   4.132
22837W        W84291   2.793  44.282   2.242
22838W        W84292  40.046  44.430  12.474
22839W        W84293   5.435  10.243   3.272
22840W        W84294  41.319   5.301  13.028
22841W        W84295   8.810   8.753  10.904
22842W        W84296  16.250  32.996  12.382
22843W        W84297   4.895   9.701  14.940
22844W        W84298  25.479   7.406  11.882
22845W        W84299  33.624  39.927  12.506
22846W        W84300  42.482   3.928  14.006
22847W        W84301   6.426  41.851  11.604
22848W        W84302  25.970  21.729   5.104
22849W        W84303  42.361  25.099   3.322
22850W        W84304  35.996  19.272  11.023
22851W        W84305   5.306   7.389  11.444
22852W        W84306  42.918  10.745   0.856
22853W        W84307   0.974  43.769   1.729
22854W        W84308  12.347   0.405  14.459
22855W        W84309  30.150   1.459   3.629
22856W        W84310   5.754  12.273   4.120
22857W        W84311  14.099  30.581   2.265
22858W        W84312  26.017  24.556   0.762
22859W        W84313  17.624  30.989  12.439
22860W        W84314   8.839  12.812   2.243
22861W        W84315  23.603  28.945   2.376
22862W        W84316  23.996   3.346  12.460
22863W        W84317  32.391  30.094   3.689
22864W        W84318  23.208  12.166  12.428
22865W        W84319  44.754  27.179  10.520
22866W        W84320  19.220   7.873  13.429
22867W        W84321  31.593  26.112   4.676
22868W        W84322  22.533   4.709   3.664
22869W        W84323  41.933  28.992  13.502
22870W        W84324  11.714  37.079   1.338
22871W        W84325  16.268  43.971  13.403
22872W        W84326   5.218  35.903   4.639
22873W        W84327  28.170  28.083  12.846
22874W        W84328   4.838   8.172   0.384
22875W        W84329  34.955  36.460   3.796
22876W        W84330  41.537   9.759  12.965
22877W        W84331  22.658   2.749   4.753
22878W        W84332  37.989  10.230  11.050
22879W        W84333  27.534  22.034  10.549
22880W        W84334  27.156  44.380  11.972
22881W        W84335  14.177  44.259  13.812
22882W        W84336  33.070  36.949   3.215
22883W        W84337   8.258   7.827  12.883
22884W        W84338  18.683  42.834   1.229
22885W        W84339  35.409  29.423   4.163
22886W        W84340  23.549  35.032   0.270
22887W        W84341  37.955  11.637   3.650
22888W        W84342  42.380  21.085  14.500
22889W        W84343  35.054  34.601   1.215
22890W        W84344  32.077  37.021   0.799
22891W        W84345  18.251  18.595   1.220
22892W        W84346  28.076  34.535   5.639
22893W        W84347  12.332  40.886   2.279
22894W        W84348  34.117  12.766   2.696
22895W        W84349   6.349  24.706   4.641
22896W        W84350  13.829  40.478   0.797
22897W        W84351  32.003   9.311  14.401
22898W        W84352  33.081   0.478  11.110
22899W        W84353  42.815  21.746   0.409
22900W        W84354  42.776  19.703   0.878
22901W        W84355  36.850   4.719   1.777
22902W        W84356  32.086  42.858  10.075
22903W        W84357  41.977  14.809  12.518
22904W        W84358   1.276   6.752  14.020
22905W        W84359  20.726  25.154   2.801
22906W        W84360  30.659   3.757   1.394
22907W        W84361  44.351  34.891   4.307
22908W        W84362  14.109  37.508  14.303
22909W        W84363   3.405   5.418  11.115
22910W        W84364  27.130   0.856  12.893
22911W        W84365   1.318  38.857  12.843
22912W        W84366   6.904  11.301  14.983
22913W        W84367  42.981   1.446   3.301
22914W        W84368  11.152  19.131  14.809
22915W        W84369   5.845  18.093   3.838
22916W        W84370   8.390  42.781   4.308
22917W        W84371  20.196  22.654  10.078
22918W        W84372  23.053  44.331   3.324
22919W        W84373  17.255  36.045   3.773
22920W        W84374   4.929  25.487  12.079
22921W        W84375  27.692  13.251   3.274
22922W        W84376  41.358   0.394  13.408
22923W        W84377  33.935   7.872   0.273
22924W        W84378  11.654  22.013  11.947
22925W        W84379   0.313  25.082   1.292
22926W        W84380  32.953  10.248   0.742
22927W        W84381  29.540  30.435   1.787
22928W        W84382  31.595   3.438  13.546
22929W        W84383   2.314  19.281  11.408
22930W        W84384  23.026  12.727  14.422
22931W        W84385  40.016   7.897  13.350
22932W        W84386  29.504   5.716   3.844
22933W        W84387   2.388  37.401  13.379
22934W        W84388  36.472  29.096   4.820
22935W        W84389  40.953  43.369  10.603
22936W        W84390   2.330   5.351   3.681
22937W        W84391  13.143   9.222  14.809
22938W        W84392  18.606  31.962  10.412
22939W        W84393  24.671  16.593  12.029
22940W        W84394  29.550  27.158  13.516
22941W        W84395  44.408   6.420   9.973
22942W        W84396   2.849   0.345  12.828
22943W        W84397  31.004  24.480   5.623
22944W        W84398  12.673  11.152   1.823
22945W        W84399  17.637  27.956  12.862
22946W        W84400   0.414  37.446  10.935
22947W        W84401  25.150  44.486  12.053
22948W        W84402  23.613  19.276   2.243
22949W        W84403   7.696  23.572  13.952
22950W        W84404   9.266   6.720   0.928
22951W        W84405  35.941  11.330   1.758
22952W        W84406   0.469  16.788   1.297
22953W        W84407  25.651  36.520  14.900
22954W        W84408  26.064  43.399   0.350
22955W        W84409  24.076  35.449  14.457
22956W        W84410  21.674  16.756   3.784
22957W        W84411  26.046  21.210  14.358
22958W        W84412  35.495   5.902  10.614
22959W        W84413  12.344  37.565   3.286
22960W        W84414  42.850   8.208   4.157
22961W        W84415  44.863  43.876   1.417
22962W        W84416  10.179  37.406   3.289
22963W        W84417   0.939  34.011   1.361
22964W        W84418  26.493  32.002   3.781
22965W        W84419  33.878  32.492   0.829
22966W        W84420  13.230  25.045   3.258
22967W        W84421  24.014  34.905  13.912
22968W        W84422   6.903  25.589  13.340
22969W        W84423  13.124  24.121   5.226
22970W        W84424  24.198  31.935   0.821
22971W        W84425   9.729  34.016  13.900
22972W        W84426  26.032  19.728   1.807
22973W        W84427  28.546  20.556   1.796
22974W        W84428   8.265   8.256   0.302
22975W        W84429   8.822  11.180  13.356
22976W        W84430  29.983   0.366   2.198
22977W        W84431  12.798  16.316  12.972
22978W        W84432  25.509  20.725   2.408
22979W        W84433  20.741   7.326  10.924
22980W        W84434  26.693  39.477   4.671
22981W        W84435   9.167  22.577   0.746
22982W        W84436  37.424  40.053   0.364
22983W        W84437  34.018  31.456   4.346
22984W        W84438  29.657  11.802   0.939
22985W        W84439  36.883  32.584   3.287
22986W        W84440  39.052   7.810  13.847
22987W        W84441   3.301  18.626  12.920
22988W        W84442  14.195  43.497  13.952
22989W        W84443  15.659  23.728  11.450
22990W        W84444  28.062  21.181   4.189
22991W        W84445   0.897   4.911  11.964
22992W        W84446  31.129  43.936   3.843
22993W        W84447  38.348  28.573   0.731
22994W        W84448   7.726  15.262   2.825
22995W        W84449  10.341  18.244   4.127
22996W        W84450   0.818  40.035   2.690
22997W        W84451  12.250  35.594   4.342
22998W        W84452  20.253   6.362   1.215
22999W        W84453  18.249  31.092   1.720
23000W        W84454  25.657  35.911   1.296
23001W        W84455  31.054   1.940   0.824
23002W        W84456  17.069  44.761   1.892
23003W        W84457  16.569   1.445   3.681
23004W        W84458   0.307  27.190   0.370
23005W        W84459  24.107  34.948   1.865
23006W        W84460  18.611  11.206   2.666
23007W        W84461   4.829  28.160  13.894
23008W        W84462  12.172  33.479   0.441
23009W        W84463  12.264   1.382  11.606
23010W        W84464  32.618  13.651  14.911
23011W        W84465  14.190   0.380   3.322
23012W        W84466  43.283  44.502  14.808
23013W        W84467  35.958  10.329   1.392
23014W        W84468  26.140  42.931   2.673
23015W        W84469  25.166  40.845   2.667
23016W        W84470  10.691  39.556   1.259
23017W        W84471  42.411   6.772   1.792
23018W        W84472  18.578  44.447  11.594
23019W        W84473  36.041   8.336   4.187
23020W        W84474   5.369  43.807   4.259
23021W        W84475  29.112  37.897   2.899
23022W        W84476  15.770  18.638   2.189
23023W        W84477  20.638  14.107  12.843
23024W        W84478  35.523  28.583  13.906
23025W        W84479  31.419  11.839   0.856
23026W        W84480   6.757  41.522   2.419
23027W        W84481   5.349  27.174   2.704
23028W        W84482  30.612   2.395   3.697
23029W        W84483   6.321  26.588   2.330
23030W        W84484   2.325   6.214  11.486
23031W        W84485  37.876   2.364  12.975
23032W        W84486   4.703  12.214  12.558
23033W        W84487  11.334  22.685  14.903
23034W        W84488  29.944   9.726  12.839
23035W        W84489  28.530  36.914  13.496
23036W        W84490  40.323  21.102  11.588
23037W        W84491   0.296   8.335  12.050
23038W        W84492  23.102  34.488  13.352
23039W        W84493   3.351  31.990   4.737
23040W        W84494  15.765   6.686  11.398
23041W        W84495  42.850   1.861   4.621
23042W        W84496  38.056  18.691  12.380
23043W        W84497  10.657  13.688   2.383
23044W        W84498  27.473  22.125   3.694
23045W        W84499  13.614   6.233  11.119
23046W        W84500  40.833  23.574   4.778
23047W        W84501  32.089  27.173  12.031
23048W        W84502  14.321  20.063   2.722
23049W        W84503  35.874   2.341   3.226
23050W        W84504  43.898   3.243   1.264
23051W        W84505  33.943  40.506   0.832
23052W        W84506  37.846  20.573  11.420
23053W        W84507  41.004  23.036   2.302
23054W        W84508  19.141  31.904   3.286
23055W        W84509  16.672  35.937   3.151
23056W        W84510  16.643   3.265   4.705
23057W        W84511  26.676  15.805   5.081
23058W        W84512  36.459  39.410  14.763
23059W        W84513   4.296  44.991  14.021
23060W        W84514  31.977  26.575  11.555
23061W        W84515  19.263   6.825  14.765
23062W        W84516   5.696  30.071  14.768
23063W        W84517  32.942  12.641  12.393
23064W        W84518  12.326  33.432  10.925
23065W        W84519  22.143  27.061   3.685
23066W        W84520  14.252  43.482   5.681
23067W        W84521  31.041  30.931  12.907
23068W        W84522  15.780  25.984  14.449
23069W        W84523  22.083  20.594   0.333
23070W        W84524   8.374  32.406  14.392
23071W        W84525   0.948  13.719   2.781
23072W        W84526  30.571  43.822   1.772
23073W        W84527  38.832  43.012  13.468
23074W        W84528  19.537  18.125   2.373
23075W        W84529  11.780  10.324   2.267
23076W        W84530  25.981  15.683   5.138
23077W        W84531  36.039  15.766   2.752
23078W        W84532  16.811  16.311   9.992
23079W        W84533  32.913  40.528   2.792
23080W        W84534   0.808  41.902  12.409
23081W        W84535  13.258  11.311   1.848
23082W        W84536  36.443  38.909   2.407
23083W        W84537  21.628  42.779  10.590
23084W        W84538  29.636  18.592   0.847
23085W        W84539  28.487  25.632   0.432
23086W        W84540  32.424  23.558   0.860
23087W        W84541   9.225  31.557  13.015
23088W        W84542   1.480  31.556   2.311
23089W        W84543  20.258   4.804  14.009
23090W        W84544  15.637   8.881   1.739
23091W        W84545  40.938  25.176   3.799
23092W        W84546  13.839  22.721   1.397
23093W        W84547  25.531   7.743   4.234
23094W        W84548  24.039  14.663   0.878
23095W        W84549  36.878  15.132   0.253
23096W        W84550  22.209   5.265  12.398
23097W        W84551  28.179  35.048   1.707
23098W        W84552  12.799  23.130   1.389
23099W        W84553  11.181  17.604  12.521
23100W        W84554   3.838  28.567   0.300
23101W        W84555  19.545  44.336   1.422
23102W        W84556  16.107   1.782   0.841
23103W        W84557   4.369  37.492   1.730
23104W        W84558  27.608  36.439   1.270
23105W        W84559  14.311  22.030   2.873
23106W        W84560  11.335  14.641   3.868
23107W        W84561  25.064   5.385   3.656
23108W        W84562   2.447  15.296   2.406
23109W        W84563   5.283  13.810   1.857
23110W        W84564   9.789  36.999  12.450
23111W        W84565  41.805  37.431  13.379
23112W        W84566  31.134  42.499   1.341
23113W        W84567  24.575  22.604   4.234
23114W        W84568  22.126  38.460  11.861
23115W        W84569   4.899  18.555   0.278
23116W        W84570  36.074   2.878  10.462
23117W        W84571   5.860   0.934   0.342
23118W        W84572  30.602   6.773   1.385
23119W        W84573  13.797   8.376   2.747
23120W        W84574  10.702  31.975  14.380
23121W        W84575  40.876  30.456   1.863
23122W        W84576  31.484  23.502  12.351
23123W        W84577  10.674  36.892   0.334
23124W        W84578   2.329  33.406   4.812
23125W        W84579  30.085   8.320   5.795
23126W        W84580  43.914  42.467  12.073
23127W        W84581  42.366  22.995  12.005
23128W        W84582   7.219  26.134   0.873
23129W        W84583   0.345  43.460   4.599
23130W        W84584  13.789  22.543  13.492
23131W        W84585  12.638  19.547  12.534
23132W        W84586   5.266   1.463   4.175
23133W        W84587  12.201  25.073   4.835
23134W        W84588  43.926   3.344  14.832
23135W        W84589   5.358  42.023  10.531
23136W        W84590   3.304   9.330   4.822
23137W        W84591  22.199  33.886  13.310
23138W        W84592  31.451  33.028   5.667
23139W        W84593  16.248  32.032  13.476
23140W        W84594  10.664   4.264   2.321
23141W        W84595   2.250   3.423   1.300
23142W        W84596   6.723   1.240   0.963
23143W        W84597  41.327  24.209   2.872
23144W        W84598   3.942  39.358  10.577
23145W        W84599   8.741  12.845   4.774
23146W        W84600  12.296  10.341   3.250
23147W        W84601   9.321  38.555  12.907
23148W        W84602  23.597   0.464  11.935
23149W        W84603  23.220  18.099  14.900
23150W        W84604  21.749  39.515  11.535
23151W        W84605   3.407  25.032  10.611
23152W        W84606  32.113  20.221  11.537
23153W        W84607   0.879  44.817  14.279
23154W        W84608  25.566  35.407   0.263
23155W        W84609  35.577   9.818   1.767
23156W        W84610  37.003  22.572  10.542
23157W        W84611  17.198  41.391  10.143
23158W        W84612  16.095  40.334  10.413
23159W        W84613  29.586  31.898  14.865
23160W        W84614  20.195  10.165  10.921
23161W        W84615  23.699  37.056   1.758
23162W        W84616  15.818  30.531   3.216
23163W        W84617  39.009  40.964  14.009
23164W        W84618  17.128  34.374  12.460
23165W        W84619  10.873  30.999   3.288
23166W        W84620  16.663  11.719  14.804
23167W        W84621  37.983  18.256   0.939
23168W        W84622  21.626  40.989  14.959
23169W        W84623   8.860  29.596   2.861
23170W        W84624   7.224  19.698  12.963
23171W        W84625  10.851  15.704   2.254
23172W        W84626  35.590  33.123  12.430
23173W        W84627  44.901  14.130   1.832
23174W        W84628  42.030  38.897  13.526
23175W        W84629  37.913  31.985  11.065
23176W        W84630  12.741  38.484  10.609
23177W        W84631  15.231  10.801   3.231
23178W        W84632  21.549  23.570   0.938
23179W        W84633  44.877  15.122   1.282
23180W        W84634   2.936  31.414  14.938
23181W        W84635  20.679   2.386  13.447
23182W        W84636  33.915   8.211   0.810
23183W        W84637  43.331  27.552   1.824
23184W        W84638   8.372  44.776   1.275
23185W        W84639  31.899   3.886   0.299
23186W        W84640  31.592   7.824  11.976
23187W        W84641  37.061  43.917   0.451
23188W        W84642  18.753  33.570   3.381
23189W        W84643  11.826  27.681  12.870
23190W        W84644  37.967  44.297  13.352
23191W        W84645  42.029   1.361   3.640
23192W        W84646  10.816  32.436   3.764
23193W        W84647  42.446  16.085   2.222
23194W        W84648  41.911   0.975   1.386
23195W        W84649  19.661   4.794   2.782
23196W        W84650  34.517   3.449   3.653
23197W        W84651  12.757  37.882  13.862
23198W        W84652   4.938  19.597   2.769
23199W        W84653  33.558  13.735  11.548
23200W        W84654  28.030  33.932   4.292
23201W        W84655  34.948  31.460   1.784
23202W        W84656  41.401  25.556  14.966
23203W        W84657  21.570   6.316   2.387
23204W        W84658  39.009  44.389  12.032
23205W        W84659  32.558   8.838  14.465
23206W        W84660   6.874  41.501  14.901
23207W        W84661   6.301  26.177  13.316
23208W        W84662  43.954  37.418   9.969
23209W        W84663  10.184  12.659  12.429
23210W        W84664  16.795   9.764  10.632
23211W        W84665  18.198  42.017  12.504
23212W        W84666  38.472   2.790   4.158
23213W        W84667  31.571  29.658  11.546
23214W        W84668   4.269  41.323  11.430
23215W        W84669  19.622  19.263   1.234
23216W        W84670  40.524  25.485  11.043
23217W        W84671   3.923  37.407  13.877
23218W        W84672  10.149  42.885   0.420
23219W        W84673  30.550  26.076   1.254
23220W        W84674   1.297  22.568  11.913
23221W        W84675  41.452  31.559  11.976
23222W        W84676  42.505   3.323  13.968
23223W        W84677  41.897  17.566   0.833
23224W        W84678  15.712  24.026   0.359
23225W        W84679   9.804   0.902  11.390
23226W        W84680  12.270  15.750   4.348
23227W        W84681  15.182   4.237   0.916
23228W        W84682  21.096   2.934   1.759
23229W        W84683  41.026  43.274   0.327
23230W        W84684  13.276  32.106   2.360
23231W        W84685  12.681  40.544   2.884
23232W        W84686  31.915  38.384  10.538
23233W        W84687  36.534  43.769   2.239
23234W        W84688   9.655  30.616  11.126
23235W        W84689  40.520  16.643  11.480
23236W        W84690   2.396  29.001  11.874
23237W        W84691   4.287  40.836  12.414
23238W        W84692  24.572  26.461  10.907
23239W        W84693  33.565  23.013   3.752
23240W        W84694   7.182  20.609   2.277
23241W        W84695  17.783  24.137   3.773
23242W        W84696  31.408  14.103   0.255
23243W        W84697  22.564  25.537   4.147
23244W        W84698  17.784   0.278  13.822
23245W        W84699  35.066  13.760  14.398
23246W        W84700  38.453   1.433   2.419
23247W        W84701  40.539  19.591   0.834
23248W        W84702  22.044  42.805   0.762
23249W        W84703  34.097  13.204  14.827
23250W        W84704  27.128  14.693  12.566
23251W        W84705   4.752   8.387  12.428
23252W        W84706  21.196  35.502  11.913
23253W        W84707  12.841  29.173   4.645
23254W        W84708  28.436  11.765   4.282
23255W        W84709  38.363  15.723  12.055
23256W        W84710  28.060  29.577  13.931
23257W        W84711  11.677  40.511  11.466
23258W        W84712   8.842  44.806  10.595
23259W        W84713  35.388  39.984  10.054
23260W        W84714  28.969  23.096   2.229
23261W        W84715  12.735  37.880  14.382
23262W        W84716   1.296  22.502   1.427
23263W        W84717  34.094  36.091   1.836
23264W        W84718  16.080  27.026   3.648
23265W        W84719  20.538  24.604  14.341
23266W        W84720  28.148  42.913   1.335
23267W        W84721  31.526  29.498   2.362
23268W        W84722  20.161   3.900   4.289
23269W        W84723   0.744  32.085  10.427
23270W        W84724  19.215  20.567   0.739
23271W        W84725  29.460  19.637  14.959
23272W        W84726  34.424   4.344   2.849
23273W        W84727  17.284  16.187   3.383
23274W        W84728  11.661  18.059   3.796
23275W        W84729  44.879  20.670   2.375
23276W        W84730  22.092  33.115   3.273
23277W        W84731  44.449  39.048   1.763
23278W        W84732  42.420  20.118   1.792
23279W        W84733   2.924  12.727   1.263
23280W        W84734  20.558  37.026  14.972
23281W        W84735  21.187   4.933   3.861
23282W        W84736  27.623  21.610  14.343
23283W        W84737  20.712  43.894   0.950
23284W        W84738  27.466   4.775   0.326
23285W        W84739  24.677  29.119   2.221
23286W        W84740   5.814  34.377  14.278
23287W        W84741  21.561  21.623   4.772
23288W        W84742  22.099  30.637   0.750
23289W        W84743   9.870  35.992   1.288
23290W        W84744  35.917   0.915  13.888
23291W        W84745   9.244  37.428  13.526
23292W        W84746  11.276   3.775  13.429
23293W        W84747  29.548   4.866   2.772
23294W        W84748  39.532  32.925  12.823
23295W        W84749  18.271   1.954  13.823
23296W        W84750  26.648   9.804  13.997
23297W        W84751  22.719  31.924  11.577
23298W        W84752  25.168  35.386   4.265
23299W        W84753  25.639  23.033  11.573
23300W        W84754  16.721  30.968   0.390
23301W        W84755  37.460  37.406   2.782
23302W        W84756  14.180  19.252   1.705
23303W        W84757   2.384  31.589   0.911
23304W        W84758   6.739  37.449  10.899
23305W        W84759   9.311  30.654   1.756
23306W        W84760  44.755  22.112  14.015
23307W        W84761  10.836  32.078  11.914
23308W        W84762  10.688   2.430   1.843
23309W        W84763  22.135  37.505  10.548
23310W        W84764  28.084  44.410   1.848
23311W        W84765  21.651   5.878   4.653
23312W        W84766  43.971  20.032   2.187
23313W        W84767  23.202  35.090  14.964
23314W        W84768  13.719  41.023   1.819
23315W        W84769  24.652  26.104  11.032
23316W        W84770  28.136  24.222  12.449
23317W        W84771   5.819  18.640   3.343
23318W        W84772  30.964  41.422   9.976
23319W        W84773  23.188   1.245   4.834
23320W        W84774   2.416  31.035  12.529
23321W        W84775   2.465  32.958  10.602
23322W        W84776   0.376  36.890   0.736
23323W        W84777   7.277  43.507  13.891
23324W        W84778  33.613  14.115   1.784
23325W        W84779  28.647   8.754  12.365
23326W        W84780  40.978   4.332   2.347
23327W        W84781  11.716  37.564  13.414
23328W        W84782  20.240  30.506   4.323
23329W        W84783  43.283  14.106  12.046
23330W        W84784  37.081  17.254   2.270
23331W        W84785  24.093  39.549   0.905
23332W        W84786  28.034  15.768  14.471
23333W        W84787  31.085  33.424  11.894
23334W        W84788   0.406  25.709   0.835
23335W        W84789  42.795  37.912   3.810
23336W        W84790  24.996  42.847  14.985
23337W        W84791  31.520   2.230   1.786
23338W        W84792  12.850  38.336  12.404
23339W        W84793  18.144  38.015   4.298
23340W        W84794  20.164  31.026   2.405
23341W        W84795  36.399  41.310   2.311
23342W        W84796  31.145  19.176  14.364
23343W        W84797  16.090  16.570   2.213
23344W        W84798  23.718   9.158   3.310
23345W        W84799  35.953   0.970   1.753
23346W        W84800  39.950  11.318  10.498
23347W        W84801  30.958  36.024  12.370
23348W        W84802   8.709  27.646  13.316
23349W        W84803  38.372  19.227  11.070
23350W        W84804  22.246  24.721  10.441
23351W        W84805  41.929  22.167   3.794
23352W        W84806  41.809  19.144  11.528
23353W        W84807  42.960   6.698   4.231
23354W        W84808  44.924  21.096  14.316
23355W        W84809   7.695  13.677  14.974
23356W        W84810  42.892   0.764   5.082
23357W        W84811   2.353  31.980   4.829
23358W        W84812   0.273   7.734  11.084
23359W        W84813  15.767   8.315  12.967
23360W        W84814  21.628  38.876  10.912
23361W        W84815  10.774  29.174  13.341
23362W        W84816  13.209  29.059   1.784
23363W        W84817  34.388   7.692  10.481
23364W        W84818  16.309  44.353  14.779
23365W        W84819   2.863  19.095  12.992
23366W        W84820   6.339  42.798   3.346
23367W        W84821  39.019  25.679   2.728
23368W        W84822   8.696   3.267  14.984
23369W        W84823  13.653   6.208  13.944
23370W        W84824   1.886  19.168   4.669
23371W        W84825  33.399   9.348  14.855
23372W        W84826  14.144  42.836  13.403
23373W        W84827  43.997   2.370  10.910
23374W        W84828  22.024  15.132   0.342
23375W        W84829  38.391  43.343   2.718
23376W        W84830   9.676   0.282   0.432
23377W        W84831  43.818  44.957  11.465
23378W        W84832  12.130   5.217  13.906
23379W        W84833  19.113  39.321  13.961
23380W        W84834  22.146  18.166   1.822
23381W        W84835  11.252   1.851   2.791
23382W        W84836  35.390  20.672   0.902
23383W        W84837   6.272  10.678   1.339
23384W        W84838  25.140   8.831  11.518
23385W        W84839  17.074  33.454   3.667
23386W        W84840  28.029   0.909   4.832
23387W        W84841  26.057  38.963  11.911
23388W        W84842  17.758  38.325   2.721
23389W        W84843  40.497  31.093   0.266
23390W        W84844  27.964  38.358   4.266
23391W        W84845  26.952  28.648   0.361
23392W        W84846   1.288  12.849  12.958
23393W        W84847  13.758  19.250   1.710
23394W        W84848  26.017  42.475   2.694
23395W        W84849  15.194   0.480  12.881
23396W        W84850  44.922  36.039   2.868
23397W        W84851  25.071  35.459   3.324
23398W        W84852  35.464  30.498  12.846
23399W        W84853   5.790  35.434  14.449
23400W        W84854   8.240   8.710  10.520
23401W        W84855  31.956  25.165   1.817
23402W        W84856  25.642  14.593   0.268
23403W        W84857   4.789   0.955   1.308
23404W        W84858  33.944  12.721   9.559
23405W        W84859  39.061  34.909   5.127
23406W        W84860  13.769  30.015   4.300
23407W        W84861   2.468  18.585  14.837
23408W        W84862  36.482  29.977   0.335
23409W        W84863  11.336  27.486  13.507
23410W        W84864  16.791  26.556  11.427
23411W        W84865   0.744  37.916  14.324
23412W        W84866  20.219   3.722  13.819
23413W        W84867  42.462  24.991  13.375
23414W        W84868   1.359   8.720   2.386
23415W        W84869   7.286  35.012   0.887
23416W        W84870  11.320  11.751  14.781
23417W        W84871  34.952  32.137   4.192
23418W        W84872  22.186  37.545   1.924
23419W        W84873  13.767  31.606  11.862
23420W        W84874   9.341  10.657  13.063
23421W        W84875  16.580  43.865   2.809
23422W        W84876  21.588   3.356   1.836
23423W        W84877  30.007   2.329  14.333
23424W        W84878  23.029  35.030   3.271
23425W        W84879  25.065  33.060  12.424
23426W        W84880  13.724   1.442   0.340
23427W        W84881  16.635  23.202  14.395
23428W        W84882   4.933   8.668  14.394
23429W        W84883  12.717  24.572   0.341
23430W        W84884  39.550  21.239  14.983
23431W        W84885  23.093  36.061   1.236
23432W        W84886   5.736  25.652  12.989
23433W        W84887  27.979   1.825  12.525
23434W        W84888  37.984  23.600  14.013
23435W        W84889  34.596  23.589  12.461
23436W        W84890  21.198   0.982   0.433
23437W        W84891   7.802  16.737   0.278
23438W        W84892  30.434  13.640   3.268
23439W        W84893  33.565  17.627  13.312
23440W        W84894   0.855  10.340  12.474
23441W        W84895  31.576  37.559  14.382
23442W        W84896   0.848  27.991   2.356
23443W        W84897  19.552  44.378   5.114
23444W        W84898   7.269  29.457   1.216
23445W        W84899   0.884  11.280   3.814
23446W        W84900   9.391  25.617  14.402
23447W        W84901  30.128  17.777   4.598
23448W        W84902   2.227  21.261  14.349
23449W        W84903  33.915  33.616   0.919
23450W        W84904  13.261   5.399  12.861
23451W        W84905  21.597  41.375   5.258
23452W        W84906   6.751   9.683   1.859
23453W        W84907  14.099   3.344   3.800
23454W        W84908  24.127  13.129  12.532
23455W        W84909   2.784  19.171  11.459
23456W        W84910  19.577  11.210   3.165
23457W        W84911   6.295  20.119   1.342
23458W        W84912   9.343  32.903   0.826
23459W        W84913   2.846  41.902   3.346
23460W        W84914   0.450  42.962   2.400
23461W        W84915  31.001  26.594   5.281
23462W        W84916   0.323  43.865   3.244
23463W        W84917  33.963  14.709  11.430
23464W        W84918   3.844  37.447  14.420
23465W        W84919  27.485  44.954   4.606
23466W        W84920   1.949  37.446  11.543
23467W        W84921  25.037  15.624  14.985
23468W        W84922  19.562  42.422   2.787
23469W        W84923  40.800  40.867  12.493
23470W        W84924  36.379  13.170  11.032
23471W        W84925  41.001  17.152   0.757
23472W        W84926   8.360  29.429   3.686
23473W        W84927   7.713  23.030  12.907
23474W        W84928  13.762  18.646   1.429
23475W        W84929  18.631  14.102  14.869
23476W        W84930  15.694  15.817  11.057
23477W        W84931  37.336  30.052   0.272
23478W        W84932  24.124  36.009   0.843
23479W        W84933  10.703   7.868   2.813
23480W        W84934   6.356  43.508   3.777
23481W        W84935  41.507  17.608   2.825
23482W        W84936  27.160   2.834  14.770
23483W        W84937   5.294  13.285  10.950
23484W        W84938  24.704  30.912  11.006
23485W        W84939  14.756  23.160  13.519
23486W        W84940  22.203  12.699  13.394
23487W        W84941   6.903  42.838   3.719
23488W        W84942  23.049  12.826   2.700
23489W        W84943  38.381   2.436   3.236
23490W        W84944  18.757  29.616   4.788
23491W        W84945  36.917  15.592  13.374
23492W        W84946  13.636   4.852  14.481
23493W        W84947  28.496   1.346   1.304
23494W        W84948   9.249  43.840   2.337
23495W        W84949  38.367  34.997  13.929
23496W        W84950  44.263  13.125   1.769
23497W        W84951  16.603  31.549  13.310
23498W        W84952   4.303  30.624  11.518
23499W        W84953  26.541  32.460   3.308
23500W        W84954  32.927   1.919  10.500
23501W        W84955  13.152   3.224  10.123
23502W        W84956  31.133   9.868  10.466
23503W        W84957   0.864  27.191   2.219
23504W        W84958  28.435  24.039   1.380
23505W        W84959  16.219   8.345   0.286
23506W        W84960  38.571   1.253   4.770
23507W        W84961  34.081  19.700   3.763
23508W        W84962  31.556  43.950   3.152
23509W        W84963  23.122  27.090   4.325
23510W        W84964  10.144  17.297   0.433
23511W        W84965  40.378  27.659   4.161
23512W        W84966  11.655  18.697   1.781
23513W        W84967  25.174  13.133   3.746
23514W        W84968  17.578  39.910   3.774
23515W        W84969  16.291  11.238   0.727
23516W        W84970  41.969  25.583  12.577
23517W        W84971  10.794  39.405  14.367
23518W        W84972  39.362  33.114  11.426
23519W        W84973  11.621  14.130  11.879
23520W        W84974  34.009  26.471  14.442
23521W        W84975  22.136  39.954  11.889
23522W        W84976  42.933  16.633   0.251
23523W        W84977  42.930  31.609   3.740
23524W        W84978  37.027  33.891   4.270
23525W        W84979  18.613  19.550  12.509
23526W        W84980  22.515   7.677   3.690
23527W        W84981  14.655   3.854   0.296
23528W        W84982  38.352   3.289   4.819
23529W        W84983  22.614  28.532  11.543
23530W        W84984  24.586  18.738   3.218
23531W        W84985   7.842  41.467  12.937
23532W        W84986  33.971  34.024  13.535
23533W        W84987  15.824   9.392  12.572
23534W        W84988  15.089  29.981  14.368
23535W        W84989  43.424  14.665  12.046
23536W        W84990  33.482  19.126   4.251
23537W        W84991  11.840  10.199   0.319
23538W        W84992  27.165  43.313  13.389
23539W        W84993   3.274   1.293  10.598
23540W        W84994  35.921  15.635   2.375
23541W        W84995   8.683  31.454  13.328
23542W        W84996  17.161  41.467   4.192
23543W        W84997  14.783  27.471  14.491
23544W        W84998   9.313  15.327   2.180
23545W        W84999  18.572  31.567   1.855
23546W        W85000  20.608  14.812  12.539
23547W        W85001  19.544  40.999  11.040
23548W        W85002  12.188  21.622  12.926
23549W        W85003  14.219  23.041   2.194
23550W        W85004  19.671  39.341   3.244
23551W        W85005  32.927  33.424  12.970
23552W        W85006  33.601  14.777   0.391
23553W        W85007  36.031  39.443  12.535
23554W        W85008  33.005  11.143  12.564
23555W        W85009  23.663   3.749   0.821
23556W        W85010  15.195  19.603   4.117
23557W        W85011  11.679  30.456   5.279
23558W        W85012   3.398  32.508   3.671
23559W        W85013  33.003  38.053   0.813
23560W        W85014  18.547   7.782  12.540
23561W        W85015  27.031  40.979  10.919
23562W        W85016   1.423  38.032   1.255
23563W        W85017   0.905   8.281  13.963
23564W        W85018  43.349  21.233  13.844
23565W        W85019  10.221  14.729  14.406
23566W        W85020  12.667  17.788  10.475
23567W        W85021  21.151   3.341  13.934
23568W        W85022  42.984  16.581  10.516
23569W        W85023  42.331  43.367   1.829
23570W        W85024   7.383  22.632  12.090
23571W        W85025  35.436  18.083  11.947
23572W        W85026  44.286   2.900  14.986
23573W        W85027  32.142  31.926  14.008
23574W        W85028  38.011  29.490   1.742
23575W        W85029  17.630  20.705   4.615
23576W        W85030  14.157   9.835   4.143
23577W        W85031  38.365   2.459  13.044
23578W        W85032  32.407  43.875  11.459
23579W        W85033  31.996  31.011   0.471
23580W        W85034  29.036  32.100   4.269
23581W        W85035  28.557  18.633  10.432
23582W        W85036  37.443   0.790   2.329
23583W        W85037   4.940  38.054  12.479
23584W        W85038  21.164  43.435  12.467
23585W        W85039  27.461  17.624  11.037
23586W        W85040  24.114  34.566   4.344
23587W        W85041  44.483  28.543  11.859
23588W        W85042   0.353  14.277   2.279
23589W        W85043  13.234  34.402   3.368
23590W        W85044   6.917  10.723  11.932
23591W        W85045  40.417  17.573  10.627
23592W        W85046  28.571  32.131   0.339
23593W        W85047  44.470  29.656  12.550
23594W        W85048  29.080  34.376  13.414
23595W        W85049   0.322  41.019  12.934
23596W        W85050   2.306  28.469   2.852
23597W        W85051  29.527   6.753  11.571
23598W        W85052  32.607  41.876  10.980
23599W        W85053  35.389  14.114  12.525
23600W        W85054  14.827   3.420   3.273
23601W        W85055  25.472  16.092  10.437
23602W        W85056  16.806  32.440  13.932
23603W        W85057  23.606   4.241   3.252
23604W        W85058   6.266   0.351   0.385
23605W        W85059   3.386   1.767   1.248
23606W        W85060   8.170  22.563  11.895
23607W        W85061  17.725  20.716  13.355
23608W        W85062  42.329   9.297  12.828
23609W        W85063  20.654  44.454   3.716
23610W        W85064  15.672   8.810   4.671
23611W        W85065   2.415  44.487  12.529
23612W        W85066  16.142  39.387  12.862
23613W        W85067  10.365   0.910  14.812
23614W        W85068  19.645  34.597  14.331
23615W        W85069   3.881   4.806  10.625
23616W        W85070  42.526   0.946  12.467
23617W        W85071   8.747   3.923   1.431
23618W        W85072   8.213  37.532  10.411
23619W        W85073  36.404  21.748  12.009
23620W        W85074  15.320  10.187  11.426
23621W        W85075   9.875   8.348  12.842
23622W        W85076  17.137  16.711  13.449
23623W        W85077  19.606  22.510   0.377
23624W        W85078  36.548  23.233  13.863
23625W        W85079  23.605  21.208  12.853
23626W        W85080  24.572  10.383  11.030
23627W        W85081   0.941   7.314   3.714
23628W        W85082   8.369  19.774  13.794
23629W        W85083  28.074  11.738  11.020
23630W        W85084  30.927  20.692  11.598
23631W        W85085   3.852  10.324  11.554
23632W        W85086  33.568   8.804  13.889
23633W        W85087   1.737  10.170  10.159
23634W        W85088  36.381  32.921   1.445
23635W        W85089  26.160  20.641  11.506
23636W        W85090  26.971  33.491  11.972
23637W        W85091   5.894  29.607  12.060
23638W        W85092  11.791  32.936  12.407
23639W        W85093  11.652  24.118   2.728
23640W        W85094   4.839  22.668   0.400
23641W        W85095  18.732  36.418   2.306
23642W        W85096  44.480  12.286  12.841
23643W        W85097  24.588  44.965   1.701
23644W        W85098   2.315  28.602   4.705
23645W        W85099  29.065  11.653   0.444
23646W        W85100  19.701  42.478   4.202
23647W        W85101  30.919  37.422   1.923
23648W        W85102  43.309   5.400   1.699
23649W        W85103  24.199  33.586   5.235
23650W        W85104  35.872  35.484  13.821
23651W        W85105  22.049  11.186  12.494
23652W        W85106  37.382  26.071   1.411
23653W        W85107  30.476  28.176   1.929
23654W        W85108   2.299  40.466  11.903
23655W        W85109  19.716   1.827   1.448
23656W        W85110   9.314  34.556  11.937
23657W        W85111  13.109   4.413  10.498
23658W        W85112  38.528   4.351  14.866
23659W        W85113  10.312  38.522  10.563
23660W        W85114  14.288  39.517  14.933
23661W        W85115  16.774  18.281  14.788
23662W        W85116  20.165   9.331   3.864
23663W        W85117  21.199  10.341   3.670
23664W        W85118  37.579  23.612  11.524
23665W        W85119  42.875   8.246   2.227
23666W        W85120  40.930   7.715   3.255
23667W        W85121  28.582  22.676  13.823
23668W        W85122  14.309  26.991   2.374
23669W        W85123  41.305  23.991   3.803
23670W        W85124  44.462  40.543  14.347
23671W        W85125  25.122  27.448   4.268
23672W        W85126  33.425   9.873   1.409
23673W        W85127   1.410  26.658   0.427
23674W        W85128   1.782   1.284  12.529
23675W        W85129  19.259  28.164   1.366
23676W        W85130   1.962  31.952   1.788
23677W        W85131  22.019  20.180   0.324
23678W        W85132   2.258  30.581  13.848
23679W        W85133  24.056   5.884   2.720
23680W        W85134   8.209  14.227  13.532
23681W        W85135  26.143  11.722  12.964
23682W        W85136  29.614   5.338   3.263
23683W        W85137  35.434  13.718   4.280
23684W        W85138  37.428   9.648  12.891
23685W        W85139   5.301  32.940  14.930
23686W        W85140  11.681  14.726  14.374
23687W        W85141  18.649   6.423   3.655
23688W        W85142  20.231  22.146  11.948
23689W        W85143  19.133   3.272   0.245
23690W        W85144  12.698  43.420   1.767
23691W        W85145   1.905  40.410  12.912
23692W        W85146   0.417   8.779  13.989
23693W        W85147  30.991  10.141   3.697
23694W        W85148   8.161  24.177  11.100
23695W        W85149   1.859  16.703   2.213
23696W        W85150  17.613  36.568   4.188
23697W        W85151  13.621  24.981  13.926
23698W        W85152  25.190   0.376  11.119
23699W        W85153  33.620  30.608  13.889
23700W        W85154  15.188  18.638  13.529
23701W        W85155  27.181  10.209   1.723
23702W        W85156  15.820  28.037  12.424
23703W        W85157   0.787  41.818  12.034
23704W        W85158   9.786   5.385  14.448
23705W        W85159   8.835  15.107   3.282
23706W        W85160  42.444  27.609  13.886
23707W        W85161   7.329  30.516   4.768
23708W        W85162  27.557  12.179   2.208
23709W        W85163   9.876   4.270  11.967
23710W        W85164  18.561  27.506  12.522
23711W        W85165  41.487  17.247   1.774
23712W        W85166  36.556  34.992  14.831
23713W        W85167  19.537   4.223  12.935
23714W        W85168  37.532  42.929   0.444
23715W        W85169  44.498   5.703  11.483
23716W        W85170  17.630  37.033  13.319
23717W        W85171  23.570  26.017  12.966
23718W        W85172  39.887  24.008   4.239
23719W        W85173  40.830  42.411   3.744
23720W        W85174   1.866  39.541   4.663
23721W        W85175  31.624  22.695  10.530
23722W        W85176  31.561  34.458  11.528
23723W        W85177   0.988  14.282   4.620
23724W        W85178  44.880  17.568   2.867
23725W        W85179  12.199  11.333   4.252
23726W        W85180  43.886  19.751  14.804
23727W        W85181  16.723  29.074   3.809
23728W        W85182  17.105  10.854  10.434
23729W        W85183   1.319  35.565   0.862
23730W        W85184  31.553  23.042   9.650
23731W        W85185  26.126  36.592   2.771
23732W        W85186  16.587  42.032   9.973
23733W        W85187  15.752  23.236   2.354
23734W        W85188   2.329  27.082  14.783
23735W        W85189   3.744  18.597   1.844
23736W        W85190  10.218  15.662   4.202
23737W        W85191   8.304  21.108  14.936
23738W        W85192  10.286  30.507   3.647
23739W        W85193  44.398  28.003   3.251
23740W        W85194  26.639   3.426  11.987
23741W        W85195  38.982  42.508  11.971
23742W        W85196  34.974  44.775   0.749
23743W        W85197  28.493  30.588  10.969
23744W        W85198   1.439  10.860   0.962
23745W        W85199  31.423  42.887   3.714
23746W        W85200  22.206  32.925   1.916
23747W        W85201  43.867  16.710   2.864
23748W        W85202   9.649  19.644   5.290
23749W        W85203  44.259   2.270  13.398
23750W        W85204  39.025   5.861  10.437
23751W        W85205  34.082   7.713   3.785
23752W        W85206  41.040  22.605   0.726
23753W        W85207  40.466  34.516  11.417
23754W        W85208  43.911  10.751  13.523
23755W        W85209  12.611  34.612  14.277
23756W        W85210  36.478  35.969  11.902
23757W        W85211  40.925  31.121   2.699
23758W        W85212  19.258  15.256  14.854
23759W        W85213  14.111   9.317  14.437
23760W        W85214   8.658   5.727   4.826
23761W        W85215  31.976  22.620  11.047
23762W        W85216  12.836  30.546   4.692
23763W        W85217  27.947  16.758   0.804
23764W        W85218  43.933  32.983  10.405
23765W        W85219  16.125  25.707   2.714
23766W        W85220   8.253  29.006   5.645
23767W        W85221  40.420  13.189  10.436
23768W        W85222  17.694   7.686   1.857
23769W        W85223  20.567  10.254  11.571
23770W        W85224  37.560   0.758   1.909
23771W        W85225  34.941  33.934  11.441
23772W        W85226  10.380  24.509   5.226
23773W        W85227  29.528  39.966  12.839
23774W        W85228   3.906   3.270  10.511
23775W        W85229  28.985  24.586  11.547
23776W        W85230  41.357  43.473  13.392
23777W        W85231   6.255  40.408  13.870
23778W        W85232  12.691  29.499   1.359
23779W        W85233   1.431  44.008   1.234
23780W        W85234   0.321   1.347  12.365
23781W        W85235  40.482  31.561  12.428
23782W        W85236  38.400  39.483   3.250
23783W        W85237  34.091  29.653   2.681
23784W        W85238   8.738  23.540  11.116
23785W        W85239  14.771  38.460   4.156
23786W        W85240  26.471  39.549  10.569
23787W        W85241  41.472  35.884  13.057
23788W        W85242  25.685  23.730   3.714
23789W        W85243  13.840  19.599  11.110
23790W        W85244   0.791  28.505   0.273
23791W        W85245   7.904  17.748   1.881
23792W        W85246  14.225  39.903  11.892
23793W        W85247  22.648  42.024  11.445
23794W        W85248  44.831  31.421  14.508
23795W        W85249   4.906   3.445  13.972
23796W        W85250  43.786  41.339  13.035
23797W        W85251  44.980  33.093  13.407
23798W        W85252  42.388  24.588   4.258
23799W        W85253  13.193  44.452  12.545
23800W        W85254  44.377   5.378  12.527
23801W        W85255  24.598   8.188  10.044
23802W        W85256  16.710  32.999  10.563
23803W        W85257  33.039   7.752  13.826
23804W        W85258  22.561  24.656  11.596
23805W        W85259   8.828  17.191   2.389
23806W        W85260  12.338  33.451  11.868
23807W        W85261  34.098   2.861  10.569
23808W        W85262  22.716  43.994  11.549
23809W        W85263  10.268  44.826   0.385
23810W        W85264  44.772  22.710  12.845
23811W        W85265  22.539  29.989  12.938
23812W        W85266  17.663   7.356   0.356
23813W        W85267  10.326  19.255  12.938
23814W        W85268  44.371  11.689  12.070
23815W        W85269   2.298  14.213   4.306
23816W        W85270  23.062   6.851   4.763
23817W        W85271   5.294  24.615  12.548
23818W        W85272  37.028  23.004  13.794
23819W        W85273  20.144  14.801   2.398
23820W        W85274  40.308  29.125   3.253
23821W        W85275  30.630  27.533  14.355
23822W        W85276  33.405  31.133  10.490
23823W        W85277  16.628  20.683   3.720
23824W        W85278   1.356  32.613   0.473
23825W        W85279   2.455  13.270  10.442
23826W        W85280  32.068  13.693  10.987
23827W        W85281  28.587  44.305  10.625
23828W        W85282  12.301   2.853   4.332
23829W        W85283  15.602  43.411   3.820
23830W        W85284  35.600  33.116  14.301
23831W        W85285  42.384  27.071  12.841
23832W        W85286   2.278  35.034  12.086
23833W        W85287  24.159  39.816   3.230
23834W        W85288   3.350  30.060  13.855
23835W        W85289  41.406  35.357  11.407
23836W        W85290  35.418  38.525  11.531
23837W        W85291  31.149  13.342   0.944
23838W        W85292  27.605  35.023  13.845
23839W        W85293  37.365  15.278   3.192
23840W        W85294   4.204   8.785   1.758
23841W        W85295  22.719  34.377  14.411
23842W        W85296  43.798  26.132   0.357
23843W        W85297  11.265  17.718  11.557
23844W        W85298  35.987  41.299  10.430
23845W        W85299  33.047  44.006   0.401
23846W        W85300  17.667  23.596  13.512
23847W        W85301  37.956  42.299  11.072
23848W        W85302   1.904  42.027   2.884
23849W        W85303  36.386  30.605   4.157
23850W        W85304  36.550  38.551   1.791
23851W        W85305  37.022  36.576   0.373
23852W        W85306  12.688  40.939  12.554
23853W        W85307  41.440  23.082   0.422
23854W        W85308  42.288  13.232  14.908
23855W        W85309  18.175  35.477   4.774
23856W        W85310   2.932  33.544  12.003
23857W        W85311  22.683  31.617  14.403
23858W        W85312  15.716  35.529  14.800
23859W        W85313  26.180  19.752   1.306
23860W        W85314  28.008  33.599  11.085
23861W        W85315  31.518  13.640  13.883
23862W        W85316   5.878  30.033  11.414
23863W        W85317  22.605   9.360   4.730
23864W        W85318   1.801  28.966  11.495
23865W        W85319   4.758  33.037   0.857
23866W        W85320  27.983  26.697   1.339
23867W        W85321  44.394  42.466   4.701
23868W        W85322  10.852  33.447  12.960
23869W        W85323  28.681  34.076   2.788
23870W        W85324  21.576  27.038   1.251
23871W        W85325  20.522  36.566   3.235
23872W        W85326   0.397  33.022  11.491
23873W        W85327  22.671  30.448  12.416
23874W        W85328   5.422   6.826  12.420
23875W        W85329  37.468   8.294  13.528
23876W        W85330   9.266  36.562  12.939
23877W        W85331   7.778  20.248  14.410
23878W        W85332  11.698  11.622   0.389
23879W        W85333  11.739   9.189   0.393
23880W        W85334   9.281  11.147   1.816
23881W        W85335   3.877   3.833   4.635
23882W        W85336  15.174   3.830   0.757
23883W        W85337   8.686  15.819  10.935
23884W        W85338  40.304  37.422  14.914
23885W        W85339  10.382  43.442  13.411
23886W        W85340  40.530   3.729   0.296
23887W        W85341  21.582   2.805   3.720
23888W        W85342  11.137   6.419   2.779
23889W        W85343  24.645  40.474   4.294
23890W        W85344   9.724  23.144  14.432
23891W        W85345  37.869   1.437   4.816
23892W        W85346  13.612   4.771   4.779
23893W        W85347  19.208  24.982   4.704
23894W        W85348  21.694  38.873   1.846
23895W        W85349  17.588  25.103   4.124
23896W        W85350  16.567  18.709   1.852
23897W        W85351  35.597  40.465   2.775
23898W        W85352   2.355   2.931   4.240
23899W        W85353  44.423  23.568  12.422
23900W        W85354  18.137  33.084   1.273
23901W        W85355  20.654  15.142   3.653
23902W        W85356  31.604  31.036   2.875
23903W        W85357  19.148  38.955  10.990
23904W        W85358  40.515  25.686  14.965
23905W        W85359  24.151  32.529  11.066
23906W        W85360  39.023  43.916   5.277
23907W        W85361   0.268  30.497   0.895
23908W        W85362  10.759  33.516   4.147
23909W        W85363  31.478  10.879   3.168
23910W        W85364  14.782  11.155   4.624
23911W        W85365  33.976  40.510  14.792
23912W        W85366  10.226  20.043   1.341
23913W        W85367  38.420  30.926  11.604
23914W        W85368   2.874  40.337  13.517
23915W        W85369  17.297  35.018  14.309
23916W        W85370  22.149  28.065   0.335
23917W        W85371  36.903  41.914  14.914
23918W        W85372  15.183  33.925  13.973
23919W        W85373  23.664  19.564   1.854
23920W        W85374   8.891  32.506   0.918
23921W        W85375  18.719  44.481  10.425
23922W        W85376  18.198   5.845  14.916
23923W        W85377   9.679  14.099  12.849
23924W        W85378  30.093   6.866   2.672
23925W        W85379   3.722  26.684  10.502
23926W        W85380  42.958  40.027   0.404
23927W        W85381  13.623   6.294   3.783
23928W        W85382  22.066   0.841  14.363
23929W        W85383  26.621  32.502  14.391
23930W        W85384  27.621  19.059   0.274
23931W        W85385   8.188  10.728   3.716
23932W        W85386   0.775  10.200   4.783
23933W        W85387  21.518  23.196   0.461
23934W        W85388   7.759   9.794  13.798
23935W        W85389  40.505  33.130   3.299
23936W        W85390  27.027  43.774   0.247
23937W        W85391  21.682  36.372  13.375
23938W        W85392  37.537  18.264   3.868
23939W        W85393   9.864  12.305  11.405
23940W        W85394  17.067   7.176  12.443
23941W        W85395  33.384   0.363   1.411
23942W        W85396  26.185  25.965  11.490
23943W        W85397  41.016  39.808   2.210
23944W        W85398  13.196  44.817  12.939
23945W        W85399  42.337  40.001  11.457
23946W        W85400  44.365   0.922  11.385
23947W        W85401  31.432   2.295   2.193
23948W        W85402  27.111   9.270   4.826
23949W        W85403  44.917  21.696   2.207
23950W        W85404  16.622  35.870   2.837
23951W        W85405  19.066   8.893  14.411
23952W        W85406  16.312   1.306  12.361
23953W        W85407  21.130  22.121  14.991
23954W        W85408   9.195  36.447   1.311
23955W        W85409   1.954  20.220  12.444
23956W        W85410  29.459  19.553   3.378
23957W        W85411  21.515   3.330  10.929
23958W        W85412   6.767  28.646  13.490
23959W        W85413   8.361  17.636  14.895
23960W        W85414  26.578   6.908   4.241
23961W        W85415  13.199  39.932  12.923
23962W        W85416  41.869  30.978   1.846
23963W        W85417   5.242  28.083  12.447
23964W        W85418  42.899  28.120   0.377
23965W        W85419  41.004  36.847   3.331
23966W        W85420  25.676  20.755  14.406
23967W        W85421  13.741  11.632  14.329
23968W        W85422   8.246   4.788  12.362
23969W        W85423  13.602  34.444   2.375
23970W        W85424  18.740   7.372  11.936
23971W        W85425  20.198  38.849   1.320
23972W        W85426  41.024  30.150  12.968
23973W        W85427  28.606  31.474   4.797
23974W        W85428  29.931   6.254   3.210
23975W        W85429   8.897  25.571   4.272
23976W        W85430  43.897  36.945  12.552
23977W        W85431  30.940  43.516   1.390
23978W        W85432  32.041  23.584  14.856
23979W        W85433  22.659   2.788   3.818
23980W        W85434   3.454   2.742  11.072
23981W        W85435  42.965  12.662  12.411
23982W        W85436  28.149  12.665  12.929
23983W        W85437  41.422  37.403  10.604
23984W        W85438  20.577   0.368   2.671
23985W        W85439  19.110  35.535   2.776
23986W        W85440  44.997  30.591   5.272
23987W        W85441  29.536  10.650  13.393
23988W        W85442  33.020  30.421   0.388
23989W        W85443  35.876  18.247  11.011
23990W        W85444  23.618  35.482   0.303
23991W        W85445   6.398   2.786  14.872
23992W        W85446  33.040  41.525   4.721
23993W        W85447  36.945  28.177   0.901
23994W        W85448  20.549  29.470  11.588
23995W        W85449  26.980  11.365  13.827
23996W        W85450  10.379  21.708   0.248
23997W        W85451  30.098  41.927   2.203
23998W        W85452   2.283  36.583  14.828
23999W        W85453  19.052   8.321   1.436
24000W        W85454  12.834  19.133   1.698
24001W        W85455  27.463  30.040  13.540
24002W        W85456  37.055  16.745  10.909
24003W        W85457  40.448  12.280   0.951
24004W        W85458  30.588   5.772   2.223
24005W        W85459  40.454   3.374   1.827
24006W        W85460  24.682  37.079  12.409
24007W        W85461  24.570  34.879   4.295
24008W        W85462  38.403  17.648   3.353
24009W        W85463  35.467  29.461  14.301
24010W        W85464  20.169  31.916  11.588
24011W        W85465  32.024  40.919   4.764
24012W        W85466  17.625   0.876  13.890
24013W        W85467   6.407  35.374  14.388
24014W        W85468  18.153  33.121   0.945
24015W        W85469   9.245   9.790  14.950
24016W        W85470  41.799  16.620   1.333
24017W        W85471  32.403  11.783  11.934
24018W        W85472  43.894  27.659  11.612
24019W        W85473   0.323   1.279  11.966
24020W        W85474   5.782  18.622   0.956
24021W        W85475  26.059  30.515  12.956
24022W        W85476  20.712  16.131  13.940
24023W        W85477   4.273  19.621   0.817
24024W        W85478  37.878  30.552  14.826
24025W        W85479  44.771  27.565  11.997
24026W        W85480   8.804   3.389  14.455
24027W        W85481  21.514  33.029   1.768
24028W        W85482  12.758  12.664  13.409
24029W        W85483  33.011  42.975   1.790
24030W        W85484  28.054  12.137   3.865
24031W        W85485  28.511  27.650   4.600
24032W        W85486  40.415  44.875   3.182
24033W        W85487  19.138  14.794  10.467
24034W        W85488  30.544  38.365   2.835
24035W        W85489  32.530  41.454   0.856
24036W        W85490   7.245  23.011   3.333
24037W        W85491  23.099  24.482  10.896
24038W        W85492   5.432  19.770  12.380
24039W        W85493  23.727  18.577   2.737
24040W        W85494  40.325  23.065  14.469
24041W        W85495  29.132  30.506  10.430
24042W        W85496  20.652  10.257  14.502
24043W        W85497  36.984  30.586  10.620
24044W        W85498  10.769  16.234  10.906
24045W        W85499  44.363  38.879   0.367
24046W        W85500   2.366  38.965   1.299
24047W        W85501  43.390   6.294  13.987
24048W        W85502   8.240  32.625   1.931
24049W        W85503  17.122   8.796   3.327
24050W        W85504  13.214  14.601  11.509
24051W        W85505   0.373  17.277  14.918
24052W        W85506   0.334  34.904  13.338
24053W        W85507   3.889   7.381   3.273
24054W        W85508   9.346  39.947   2.699
24055W        W85509  30.449   2.732   1.351
24056W        W85510   3.947   9.732  11.390
24057W        W85511  40.921  25.185  10.499
24058W        W85512  41.531  27.526  11.020
24059W        W85513  44.909   5.904  10.510
24060W        W85514   9.649   8.169   1.848
24061W        W85515  39.415  29.102  11.927
24062W        W85516  35.107  24.650   4.298
24063W        W85517  29.625  40.843  12.473
24064W        W85518  19.665  33.980  11.483
24065W        W85519  12.725  17.158  12.956
24066W        W85520  15.720  19.181  13.922
24067W        W85521  40.536   3.287  11.372
24068W        W85522  42.293  19.571  12.482
24069W        W85523  14.214  31.000   3.763
24070W        W85524   4.425   9.757   0.360
24071W        W85525  41.877  19.594  14.871
24072W        W85526  44.430  34.879  13.361
24073W        W85527  42.800  19.087   4.833
24074W        W85528  15.580  19.148   3.862
24075W        W85529  24.131  42.958   5.242
24076W        W85530  33.094  14.737  12.068
24077W        W85531  44.951   8.285   3.690
24078W        W85532  19.676  24.152   2.214
24079W        W85533  37.038  44.441   2.806
24080W        W85534  22.128  36.910  12.971
24081W        W85535  36.991   2.470  13.990
24082W        W85536  21.235  28.640  11.591
24083W        W85537  36.881  23.124   4.147
24084W        W85538   2.897  16.651  14.500
24085W        W85539  36.052   1.877   2.874
24086W        W85540  23.024  18.081   1.863
24087W        W85541  34.870  25.589  12.844
24088W        W85542   8.807   2.251  11.890
24089W        W85543  27.545  10.690  12.007
24090W        W85544  41.381  39.014   2.289
24091W        W85545  13.673  12.700   2.803
24092W        W85546  11.827  28.557   4.290
24093W        W85547  26.954   8.349   2.355
24094W        W85548  12.242   4.405  13.451
24095W        W85549   0.788  10.714  12.558
24096W        W85550  23.154   1.890  14.388
24097W        W85551  23.027  25.033  14.440
24098W        W85552   1.803  44.871   1.358
24099W        W85553  38.955  29.659   3.183
24100W        W85554  34.054  22.189  10.975
24101W        W85555  23.184  17.250  11.026
24102W        W85556  15.319  41.971  13.802
24103W        W85557  34.921   1.975  10.583
24104W        W85558  44.857  20.744   4.627
24105W        W85559  22.602  43.307   2.708
24106W        W85560  22.702  43.979  12.994
24107W        W85561  37.486  10.731   0.934
24108W        W85562  33.579  16.108  11.973
24109W        W85563   3.405  34.027  11.401
24110W        W85564  14.827   2.920  12.866
24111W        W85565  32.928  27.181  12.539
24112W        W85566  23.654  34.425   3.293
24113W        W85567  17.159  14.766  10.988
24114W        W85568  17.243  25.106   1.888
24115W        W85569  42.949  27.073   2.808
24116W        W85570  43.365  36.983  14.305
24117W        W85571  34.078  38.385  13.429
24118W        W85572  43.451  15.303  11.413
24119W        W85573  23.178  32.397   4.675
24120W        W85574  12.783   3.795   4.818
24121W        W85575  28.451   2.957  11.979
24122W        W85576  28.586  34.506  12.826
24123W        W85577   3.806  33.082  11.062
24124W        W85578   6.386  30.490  12.041
24125W        W85579  10.796  43.949  13.501
24126W        W85580  36.428  39.350  13.883
24127W        W85581   0.881  31.113   3.743
24128W        W85582  32.115  21.213  11.949
24129W        W85583  18.709  25.592   4.241
24130W        W85584  20.711  33.559   3.245
24131W        W85585  10.350  28.943  14.949
24132W        W85586   1.470  37.996   4.628
24133W        W85587   0.857  28.961   1.706
24134W        W85588  13.748  39.905  12.845
24135W        W85589  41.415  33.043   2.745
24136W        W85590   5.361   1.470  14.394
24137W        W85591   3.238  24.154   0.750
24138W        W85592   9.385  37.962   2.726
24139W        W85593  43.856  27.676   2.239
24140W        W85594  13.149  30.992  11.375
24141W        W85595  24.103  35.962  11.101
24142W        W85596   0.851   1.350   0.278
24143W        W85597   5.249  13.335   2.846
24144W        W85598  16.619  44.418   2.687
24145W        W85599  40.340  27.154   1.754
24146W        W85600  27.128  31.030   4.154
24147W        W85601  10.763  43.278   4.644
24148W        W85602  20.083  37.910  12.446
24149W        W85603  11.693  22.091   1.441
24150W        W85604  40.469  40.934  12.948
24151W        W85605  38.027  27.589  13.502
24152W        W85606  44.873  30.421   2.269
24153W        W85607   5.395  44.785  10.466
24154W        W85608  41.491  38.565   3.319
24155W        W85609  38.566  21.755   3.263
24156W        W85610   6.870  43.436  12.519
24157W        W85611   9.256   5.218  10.563
24158W        W85612  14.288  37.840   2.402
24159W        W85613  23.203  43.359   0.773
24160W        W85614   8.810   6.790  14.466
24161W        W85615  39.883  38.545   3.705
24162W        W85616  35.529  16.137  11.591
24163W        W85617  11.683  12.298   4.255
24164W        W85618  31.918  35.051  14.901
24165W        W85619  33.982  36.528   0.298
24166W        W85620  21.218  20.646   3.719
24167W        W85621  33.475   7.404   4.709
24168W        W85622  13.642  13.226  11.599
24169W        W85623  17.236  15.255  10.508
24170W        W85624  22.253  36.457  11.373
24171W        W85625   8.875   6.277   3.192
24172W        W85626  30.458  27.025  13.988
24173W        W85627  38.067  29.442  13.987
24174W        W85628   3.390  32.562   4.337
24175W        W85629  30.487  39.952   0.359
24176W        W85630   6.700  43.787   3.844
24177W        W85631  33.572  26.699   0.369
24178W        W85632  23.593  26.609  10.623
24179W        W85633  41.988  13.330  13.862
24180W        W85634   7.405   1.411   4.602
24181W        W85635  17.270  33.080   2.358
24182W        W85636   5.432  44.893   0.297
24183W        W85637  38.334   2.233  13.354
24184W        W85638   8.778   2.300  11.593
24185W        W85639  44.005   3.865   2.694
24186W        W85640   2.894  12.798  12.913
24187W        W85641  31.577  26.976   0.365
24188W        W85642  23.585   2.355  11.964
24189W        W85643  21.236  18.247   1.324
24190W        W85644  24.522  41.941   1.854
24191W        W85645   7.402  34.456  13.319
24192W        W85646  10.648   7.348  10.466
24193W        W85647  42.428  44.795   2.212
24194W        W85648  32.514  19.081   0.302
24195W        W85649  32.452  24.484  11.985
24196W        W85650  36.936  27.625  10.580
24197W        W85651  34.435   8.768  14.318
24198W        W85652  26.988  37.925   0.377
24199W        W85653  15.693  35.506   4.354
24200W        W85654  23.536  30.556  11.559
24201W        W85655  35.414  11.271   1.821
24202W        W85656  31.966  40.351  13.958
24203W        W85657  14.282  26.625  13.051
24204W        W85658   2.890  35.080   3.304
24205W        W85659   9.716  36.879   3.665
24206W        W85660  41.301   1.874  13.953
24207W        W85661   3.778  25.511   3.643
24208W        W85662  19.144  44.382   0.897
24209W        W85663  30.536  29.012   4.141
24210W        W85664  37.044  28.518   4.837
24211W        W85665  17.612  41.359   2.863
24212W        W85666  34.558  12.260  10.634
24213W        W85667  13.818  20.200   3.330
24214W        W85668  15.607   3.417   3.377
24215W        W85669   0.987  27.985  10.071
24216W        W85670   6.338  10.212   0.809
24217W        W85671  15.265   3.270   0.322
24218W        W85672  18.560  36.372  12.543
24219W        W85673   2.359  18.197  10.464
24220W        W85674  34.938  31.522  13.914
24221W        W85675   7.398  43.933   0.288
24222W        W85676   0.875  14.771  10.547
24223W        W85677  42.475   9.707   1.274
24224W        W85678  32.495  37.375   0.442
24225W        W85679  31.909   7.175   2.747
24226W        W85680  33.119  15.788  10.552
24227W        W85681  34.961   5.791   0.776
24228W        W85682  10.784   2.273  12.859
24229W        W85683  33.424  20.727   4.783
24230W        W85684  37.973  18.630   2.333
24231W        W85685  42.404  27.108   4.824
24232W        W85686  17.732   7.300  12.368
24233W        W85687  36.953  26.462   4.606
24234W        W85688  12.139  34.586   4.316
24235W        W85689  36.366  20.035   3.380
24236W        W85690  22.114   4.921  12.831
24237W        W85691   4.254  29.667  11.411
24238W        W85692  25.701   5.436   1.264
24239W        W85693  41.408  27.168  14.468
24240W        W85694  18.116  14.646   4.188
24241W        W85695  20.761   9.197  12.968
24242W        W85696  14.137   4.864   0.428
24243W        W85697   2.401   1.427   3.816
24244W        W85698  13.786  39.895  10.540
24245W        W85699  41.800  43.982  13.402
24246W        W85700  37.549   5.376  11.450
24247W        W85701  27.641  18.598  14.350
24248W        W85702   7.881  29.924   3.207
24249W        W85703  11.709   2.383  11.061
24250W        W85704  22.243  21.729  12.879
24251W        W85705  40.396  36.845   4.629
24252W        W85706  34.941  44.966   4.622
24253W        W85707   0.345   1.817  13.950
24254W        W85708  36.919  32.122  11.436
24255W        W85709  33.553  14.233  14.410
24256W        W85710  38.906  39.042   0.827
24257W        W85711   9.320  38.976  14.441
24258W        W85712  44.928   9.296  13.529
24259W        W85713  41.008  32.034  11.399
24260W        W85714  24.496  17.774  14.458
24261W        W85715   1.332  39.847  11.933
24262W        W85716  30.039  16.230   1.352
24263W        W85717  10.165   2.756   3.265
24264W        W85718  13.159  12.812   2.316
24265W        W85719  13.649  43.438   0.285
24266W        W85720  13.226  11.710  10.084
24267W        W85721  35.504  19.658  11.028
24268W        W85722  29.652  17.150   5.173
24269W        W85723  29.994  27.180   1.853
24270W        W85724  22.682  31.001   2.821
24271W        W85725  40.491  27.599  11.945
24272W        W85726  29.970  41.998  14.763
24273W        W85727  41.425  17.204   3.171
24274W        W85728   7.187  30.058  12.855
24275W        W85729  19.552  15.210   0.958
24276W        W85730  35.962  39.919  14.775
24277W        W85731  30.024  43.469  10.631
24278W        W85732  42.024   2.771   2.408
24279W        W85733   6.776  40.988  13.440
24280W        W85734  23.044  27.663   2.264
24281W        W85735  27.569  27.573   9.467
24282W        W85736  13.821   6.764   1.260
24283W        W85737  31.590  11.711  10.574
24284W        W85738  38.068  10.206  11.390
24285W        W85739  23.716  16.285  11.484
24286W        W85740  33.463  35.452  11.387
24287W        W85741  17.230  15.189  14.391
24288W        W85742  41.937   3.854   4.798
24289W        W85743  14.158   8.722  11.896
24290W        W85744  28.487  22.193  13.967
24291W        W85745  17.630  12.255   2.266
24292W        W85746  28.511  19.219   0.803
24293W        W85747  15.136  27.165  14.956
24294W        W85748   8.807   7.803   1.363
24295W        W85749  33.391  13.321   2.808
24296W        W85750  27.674  10.337  11.888
24297W        W85751  21.742   4.884   1.759
24298W        W85752  38.442  33.028  10.524
24299W        W85753  34.015  19.537   4.309
24300W        W85754  20.644  27.094  14.821
24301W        W85755  35.601  10.152  13.907
24302W        W85756   2.737  22.224   1.894
24303W        W85757  23.095  40.932   2.894
24304W        W85758  41.316  24.099  12.394
24305W        W85759  35.918  28.554   4.270
24306W        W85760   3.293   1.796   2.288
24307W        W85761  34.553  13.341   4.745
24308W        W85762  30.480  29.614   2.825
24309W        W85763  15.779   4.245   4.157
24310W        W85764   2.292  17.082   2.189
24311W        W85765  18.081   8.292  14.016
24312W        W85766   6.847  26.487  13.879
24313W        W85767  34.052  16.315   1.857
24314W        W85768   9.861   7.248  12.858
24315W        W85769  41.362  24.152   0.268
24316W        W85770   3.833   3.852  10.548
24317W        W85771  40.456  16.711  11.877
24318W        W85772   1.302  27.976   4.268
24319W        W85773  34.902  17.233   3.239
24320W        W85774  25.709  40.974   2.707
24321W        W85775  14.148  25.209   3.848
24322W        W85776  37.038  31.980  12.882
24323W        W85777  21.185  19.551   4.771
24324W        W85778  35.856  11.143   2.282
24325W        W85779  44.436  19.722   0.801
24326W        W85780  36.001   4.392   2.307
24327W        W85781  16.613  31.121  11.612
24328W        W85782  35.584  27.646  11.588
24329W        W85783  11.695  17.575   3.277
24330W        W85784   6.232  32.887   5.641
24331W        W85785  14.680   5.306   1.328
24332W        W85786   2.349  25.113   3.746
24333W        W85787  16.184  19.747   0.770
24334W        W85788   0.379  22.705  10.530
24335W        W85789  27.135  37.895  11.560
24336W        W85790  40.535  42.997   3.740
24337W        W85791  26.148  30.466  12.509
24338W        W85792  41.912  25.184   2.365
24339W        W85793  14.602  22.704  11.126
24340W        W85794  39.976  28.622   2.798
24341W        W85795  42.309  42.996  13.310
24342W        W85796  28.063  44.893  11.891
24343W        W85797  37.857  44.433  13.042
24344W        W85798  42.869   8.896  13.866
24345W        W85799  17.686  23.504   0.289
24346W        W85800   5.281  30.417  14.900
24347W        W85801   2.385   2.265   4.708
24348W        W85802   9.152  21.146  12.393
24349W        W85803  13.220  16.181   0.761
24350W        W85804  33.874  30.646  13.384
24351W        W85805   4.294  39.558   0.756
24352W        W85806  40.984   3.327  13.467
24353W        W85807  38.942  28.072  14.894
24354W        W85808  21.171  31.923   4.775
24355W        W85809  16.710  25.710   2.741
24356W        W85810  22.013   9.766   0.829
24357W        W85811  27.628  25.035  13.526
24358W        W85812  17.787  17.179  14.475
24359W        W85813  30.482  17.639  11.402
24360W        W85814  15.086  28.949   0.770
24361W        W85815  24.588   3.912  12.024
24362W        W85816  20.662  34.439   2.766
24363W        W85817   3.892  25.645  13.500
24364W        W85818  23.012  41.994  12.482
24365W        W85819  19.166  41.995  13.026
24366W        W85820   4.837  44.344   4.732
24367W        W85821  38.887  32.445  10.493
24368W        W85822  12.242  21.117  10.107
24369W        W85823  18.649  43.846   2.413
24370W        W85824  11.650  44.412   1.747
24371W        W85825  37.566  19.607   3.282
24372W        W85826   4.248  30.073  11.403
24373W        W85827  14.323  17.571  10.479
24374W        W85828   8.396  12.250   2.251
24375W        W85829  12.686  33.131  14.910
24376W        W85830  21.240  43.963   2.797
24377W        W85831  29.128  18.776  12.372
24378W        W85832  23.997   2.254  14.005
24379W        W85833  34.441  17.677   1.843
24380W        W85834  43.902  43.303   4.213
24381W        W85835  21.228  20.088   4.719
24382W        W85836  41.428  35.436   2.760
24383W        W85837  35.452  29.440  12.025
24384W        W85838  41.845  43.274   2.232
24385W        W85839   2.285  30.436  11.493
24386W        W85840  29.608  16.083   3.282
24387W        W85841  40.495   7.715   3.643
24388W        W85842  28.468   8.328  12.497
24389W        W85843  20.625   4.407  13.403
24390W        W85844  10.645  16.281   2.374
24391W        W85845  11.688  20.108   0.905
24392W        W85846   4.923  35.436   0.773
24393W        W85847  17.110  32.602  12.947
24394W        W85848   5.882  44.994  11.395
24395W        W85849  20.741  36.073   4.219
24396W        W85850  27.484  28.513  11.543
24397W        W85851   7.665  39.389  11.923
24398W        W85852  37.364  28.651  14.759
24399W        W85853  43.932  31.025   0.477
24400W        W85854  16.797  29.085  14.758
24401W        W85855  14.142  40.350   2.229
24402W        W85856  44.453  40.311   2.746
24403W        W85857   6.297  12.831  12.938
24404W        W85858  19.642  23.108  11.974
24405W        W85859   7.901  15.819  13.818
24406W        W85860  20.178  11.703   0.310
24407W        W85861  10.651  21.591   1.786
24408W        W85862  30.975  23.726  13.532
24409W        W85863  29.506  32.084  10.550
24410W        W85864  18.178  15.145  11.441
24411W        W85865  31.904  41.373   0.434
24412W        W85866  43.271  37.913  12.027
24413W        W85867  27.549  32.468  14.860
24414W        W85868  39.415  17.738   4.741
24415W        W85869   4.760   0.917  13.466
24416W        W85870  21.613  36.881   4.801
24417W        W85871   3.315   3.226   2.857
24418W        W85872   7.893  22.530  11.407
24419W        W85873  42.880  26.147   2.323
24420W        W85874  22.078  18.203  11.011
24421W        W85875  21.042   1.343   2.676
24422W        W85876  43.894   6.860  11.964
24423W        W85877  41.900  11.149  11.506
24424W        W85878   2.813  40.486  12.519
24425W        W85879  19.109   9.199   9.565
24426W        W85880  35.527  17.175  14.360
24427W        W85881  28.117   1.909   0.465
24428W        W85882   3.727  44.915   3.337
24429W        W85883  35.054  12.804   4.691
24430W        W85884   5.393  10.875   1.703
24431W        W85885  13.120  12.640  11.916
24432W        W85886  16.242  31.922  13.877
24433W        W85887   0.255   2.965  10.447
24434W        W85888  33.128  24.199  13.478
24435W        W85889  10.734  31.900   2.312
24436W        W85890  29.069   6.276  11.005
24437W        W85891  22.673  26.120  12.906
24438W        W85892  38.901  10.685  12.878
24439W        W85893  42.790  24.060  11.481
24440W        W85894  14.769  15.242  14.486
24441W        W85895   5.772   6.210  12.384
24442W        W85896  39.882  41.814   3.298
24443W        W85897  22.060   7.843   3.228
24444W        W85898  34.561  40.965   2.280
24445W        W85899   3.292  33.012   0.294
24446W        W85900  44.950  31.052  13.396
24447W        W85901   3.355  36.358  13.904
24448W        W85902  17.592  28.551   4.256
24449W        W85903  28.093  36.413  10.963
24450W        W85904  34.103  14.588   3.352
24451W        W85905  31.039  21.667  11.411
24452W        W85906  26.588  36.027   1.436
24453W        W85907  23.569  21.528  13.856
24454W        W85908   1.793   2.307  11.485
24455W        W85909  17.261  30.549  13.827
24456W        W85910  34.416  36.067  14.016
24457W        W85911  14.098  30.472   1.885
24458W        W85912  25.709  21.671  12.567
24459W        W85913  30.441  39.358   0.350
24460W        W85914  28.492   3.266   1.384
24461W        W85915   7.808  13.655   3.196
24462W        W85916  40.009   8.273  13.862
24463W        W85917  20.556  14.233  11.912
24464W        W85918  28.939  23.688   0.751
24465W        W85919  37.420  22.639  10.575
24466W        W85920  27.606  36.869   3.646
24467W        W85921  36.371  33.409  13.419
24468W        W85922  37.051  44.957  14.937
24469W        W85923  42.366  13.623  12.479
24470W        W85924  29.475  13.605  12.009
24471W        W85925   5.789  33.447  11.901
24472W        W85926  32.622  43.903   2.214
24473W        W85927   8.286  37.895  14.795
24474W        W85928  21.055  24.054   3.227
24475W        W85929   4.444  22.113   1.359
24476W        W85930  44.426  18.591   2.822
24477W        W85931  38.426  20.638  11.016
24478W        W85932  41.325  29.041   2.274
24479W        W85933  18.139  16.590  10.973
24480W        W85934  24.573  27.114  13.792
24481W        W85935  35.930   9.316   1.763
24482W        W85936  30.576   0.335  11.410
24483W        W85937  38.064  22.054  13.982
24484W        W85938   3.932  43.330  12.957
24485W        W85939  11.803  22.202   4.813
24486W        W85940  14.111   9.346   3.767
24487W        W85941   8.298  32.928   2.781
24488W        W85942   8.289  36.543   2.245
24489W        W85943  24.700   7.327   5.731
24490W        W85944  43.906   0.394  13.898
24491W        W85945  39.485  35.045   0.318
24492W        W85946   1.892   5.884   4.600
24493W        W85947  17.557  10.282  12.370
24494W        W85948  43.333  43.965   3.718
24495W        W85949  12.834   1.372  14.772
24496W        W85950  27.500  23.078  14.512
24497W        W85951  14.679  41.792  12.424
24498W        W85952  17.605  15.194  11.608
24499W        W85953  26.200   7.782  13.447
24500W        W85954  22.067  24.661  12.507
24501W        W85955  34.597  20.149  10.538
24502W        W85956  25.588  29.498  10.965
24503W        W85957   9.229  20.268  14.954
24504W        W85958  31.066  24.105  14.797
24505W        W85959  35.393  21.085  11.497
24506W        W85960   6.904   3.732   1.237
24507W        W85961   6.232  28.636  10.519
24508W        W85962  31.974  29.115  14.846
24509W        W85963  28.147  40.477   0.811
24510W        W85964  21.514  25.495  10.462
24511W        W85965  24.600  27.136   3.692
24512W        W85966  37.022  22.099  14.339
24513W        W85967  35.877  42.385  10.057
24514W        W85968  22.063  43.432   3.260
24515W        W85969  38.336  41.470   3.799
24516W        W85970   5.868  44.271   4.128
24517W        W85971  33.012  10.789   1.728
24518W        W85972  21.608  30.614  14.001
24519W        W85973  30.077  35.045  14.003
24520W        W85974   6.767  36.921  13.991
24521W        W85975   4.311  26.168  12.921
24522W        W85976   6.799  42.010   4.237
24523W        W85977  37.452  13.750   1.708
24524W        W85978  24.580   0.290   0.748
24525W        W85979  20.711  24.055   2.788
24526W        W85980  10.255  29.587  12.511
24527W        W85981  14.243  20.663   1.438
24528W        W85982  35.454   1.912   2.246
24529W        W85983  30.004  24.190   3.670
24530W        W85984  14.292   2.756   2.393
24531W        W85985  10.804  31.607   1.790
24532W        W85986  42.022  38.819  13.810
24533W        W85987  40.478  30.584  10.494
24534W        W85988  28.022  38.001   4.125
24535W        W85989  30.092  34.427  13.853
24536W        W85990  31.011   5.897  12.488
24537W        W85991  17.711   6.264  10.588
24538W        W85992  11.629  24.709  13.535
24539W        W85993  27.671  31.576   5.280
24540W        W85994  10.308  25.524   2.208
24541W        W85995  14.178  23.088   1.707
24542W        W85996  22.694  14.283   4.599
24543W        W85997  12.177  37.342   1.857
24544W        W85998   8.868  13.843  11.008
24545W        W85999  30.059   1.877   4.730
24546W        W86000  36.061  33.936  13.316
24547W        W86001   0.803  24.199  11.001
24548W        W86002   4.256  35.887   1.747
24549W        W86003  42.343   3.413   0.784
24550W        W86004   9.789   3.433   3.208
24551W        W86005  38.496  42.991  13.815
24552W        W86006  40.537   1.359  11.065
24553W        W86007   9.746  37.031  13.465
24554W        W86008  42.373   2.434   3.148
24555W        W86009  31.582  33.424  13.873
24556W        W86010  39.034  12.636  12.016
24557W        W86011  16.218  19.204  11.382
24558W        W86012  26.069  21.755   3.324
24559W        W86013  42.472   3.887   1.356
24560W        W86014  24.070  14.759  12.526
24561W        W86015  24.569  28.032  14.313
24562W        W86016  16.638  10.217  10.503
24563W        W86017  11.224   6.184   0.310
24564W        W86018   4.849  28.051   0.885
24565W        W86019  23.528  18.151   0.308
24566W        W86020  24.168  22.249  14.285
24567W        W86021  20.568  33.992   3.768
24568W        W86022  32.908   5.774  11.929
24569W        W86023  12.806  37.039  13.056
24570W        W86024  26.698  40.316   0.399
24571W        W86025  44.783  40.432   1.699
24572W        W86026  24.068  38.050  12.426
24573W        W86027  28.027  11.316   5.591
24574W        W86028   9.700  21.564   0.936
24575W        W86029   5.395  10.271   1.450
24576W        W86030  29.573   9.229  12.928
24577W        W86031  36.057  11.707  11.866
24578W        W86032  20.262   2.265  12.410
24579W        W86033  33.423  29.506  11.587
24580W        W86034   5.348  36.955  11.997
24581W        W86035  37.481  43.813  14.021
24582W        W86036  43.891  38.838  11.042
24583W        W86037  21.262  25.024  13.978
24584W        W86038  14.715  32.425   4.601
24585W        W86039  15.798  28.656   2.845
24586W        W86040  44.344  23.032  11.107
24587W        W86041  19.250   8.352  14.996
24588W        W86042  29.601  16.597   1.286
24589W        W86043  34.911  37.004   4.325
24590W        W86044  27.489  27.158   2.239
24591W        W86045  27.944  28.945  13.811
24592W        W86046  16.749  35.504   2.246
24593W        W86047   6.249  30.579   0.759
24594W        W86048  42.031  13.142   3.236
24595W        W86049  32.114  26.018   4.761
24596W        W86050   6.704   8.403  11.129
24597W        W86051  38.527  30.628  10.578
24598W        W86052  29.079  27.514   0.886
24599W        W86053   7.339  40.826  12.938
24600W        W86054   4.314  17.581  13.903
24601W        W86055  15.713  17.237   2.715
24602W        W86056   7.258  40.995  14.412
24603W        W86057  18.606  22.102  11.080
24604W        W86058  39.969  10.308  11.480
24605W        W86059  20.746   5.251  11.436
24606W        W86060  33.973   9.744   4.174
24607W        W86061  18.286  33.610  13.990
24608W        W86062   6.252   1.295   2.181
24609W        W86063   9.370  40.459   9.959
24610W        W86064  31.116   8.257  12.916
24611W        W86065   5.323  32.549   1.345
24612W        W86066  19.273  28.459  10.564
24613W        W86067  29.582  19.174  11.574
24614W        W86068  10.365  39.315  14.459
24615W        W86069  27.991  23.691  13.413
24616W        W86070  37.973  21.520   1.869
24617W        W86071   5.242  15.798  12.894
24618W        W86072  23.144  30.941   0.766
24619W        W86073  37.024  19.263   1.417
24620W        W86074  41.471  28.976  10.615
24621W        W86075  11.863  23.082   0.434
24622W        W86076  24.997  29.521   2.709
24623W        W86077  34.497   6.374   4.140
24624W        W86078  33.522   4.239  11.077
24625W        W86079  19.150   1.911  12.082
24626W        W86080   3.814  10.360   0.420
24627W        W86081   2.438  39.435  14.489
24628W        W86082  38.906  26.668   3.663
24629W        W86083   5.771  25.026  12.878
24630W        W86084  15.112   0.922   4.814
24631W        W86085  44.265  16.678  10.602
24632W        W86086  25.988  10.742  14.479
24633W        W86087   7.175  14.260  13.340
24634W        W86088  26.624  22.740  10.093
24635W        W86089  25.508   3.776   5.194
24636W        W86090  25.637  24.003  13.491
24637W        W86091  44.415  12.828  10.412
24638W        W86092   4.922  10.330  14.318
24639W        W86093  42.352  23.002  13.031
24640W        W86094   2.370  31.527   1.254
24641W        W86095  10.144  44.358  10.429
24642W        W86096  23.047  21.160  13.399
24643W        W86097  19.733   2.239  11.895
24644W        W86098  22.586  25.489  11.419
24645W        W86099  34.476  32.094   9.998
24646W        W86100  36.841  40.926   1.718
24647W        W86101  31.940  20.763   4.698
24648W        W86102  30.500   6.350   4.603
24649W        W86103  44.839  37.519  14.307
24650W        W86104  14.218  14.707  14.311
24651W        W86105  21.553  29.977   0.873
24652W        W86106  38.563  40.960  10.078
24653W        W86107  18.147  35.050  14.910
24654W        W86108  35.357   2.258  14.441
24655W        W86109  38.862  13.266   0.432
24656W        W86110  30.642  11.798   0.447
24657W        W86111  42.033  43.275  11.941
24658W        W86112   9.654   7.312  10.451
24659W        W86113  44.274  14.298   4.213
24660W        W86114   5.903   4.905  12.345
24661W        W86115  15.668  14.607  13.520
24662W        W86116  27.983  26.546  14.278
24663W        W86117  16.606  24.485   1.751
24664W        W86118  23.017  36.545  14.949
24665W        W86119  12.714  40.825   1.695
24666W        W86120  27.087  10.747  11.972
24667W        W86121  43.914  14.590  10.550
24668W        W86122  27.959  33.454  14.985
24669W        W86123  27.180  10.215   3.178
24670W        W86124  37.518  20.266   1.899
24671W        W86125  28.502  10.207  13.940
24672W        W86126  22.245  11.784   3.713
24673W        W86127  14.154  33.067   0.860
24674W        W86128   1.254   2.926  14.913
24675W        W86129  12.323   4.809   4.246
24676W        W86130   4.744  21.040   0.283
24677W        W86131  10.371  16.133   1.273
24678W        W86132  31.969  31.983   5.121
24679W        W86133   0.291  19.214   2.796
24680W        W86134  39.332   5.919   4.650
24681W        W86135  41.348  40.339  13.797
24682W        W86136   1.471  39.440  13.478
24683W        W86137  34.878  10.314   2.830
24684W        W86138  41.525  43.317  10.943
24685W        W86139  16.748  15.245  11.014
24686W        W86140   3.400  22.599   1.362
24687W        W86141  20.539   2.844  13.401
24688W        W86142   3.280  11.755   2.673
24689W        W86143   6.265  21.568  13.935
24690W        W86144  18.611   1.859   4.696
24691W        W86145   6.206  34.382   9.503
24692W        W86146  10.645  35.959   0.744
24693W        W86147   5.251   6.920   0.254
24694W        W86148   6.906  34.118   1.717
24695W        W86149  15.185   6.693  13.932
24696W        W86150  40.914  24.592  14.924
24697W        W86151  36.047  44.005   0.424
24698W        W86152  39.816  23.520  11.526
24699W        W86153   5.761  41.013   4.212
24700W        W86154  21.232  42.992  10.019
24701W        W86155  19.776  19.169   3.269
24702W        W86156  11.314  23.088   3.800
24703W        W86157  28.138  10.211   4.773
24704W        W86158  14.695  22.080  14.373
24705W        W86159   3.310   3.306  10.046
24706W        W86160   8.899  14.675  14.798
24707W        W86161  25.170  36.393  11.438
24708W        W86162  41.481  33.620   5.206
24709W        W86163   7.883   5.876   1.911
24710W        W86164   9.729  36.526   0.924
24711W        W86165  15.278  39.457   3.802
24712W        W86166  11.145  43.479  11.456
24713W        W86167  42.975  26.158   1.700
24714W        W86168  13.213   7.374  11.066
24715W        W86169  25.696  40.916   2.195
24716W        W86170   3.324   1.385   1.385
24717W        W86171  20.030  43.447   1.810
24718W        W86172  19.040  28.595  13.980
24719W        W86173  28.951   8.333  14.829
24720W        W86174  24.097  17.144   3.715
24721W        W86175   3.335   9.827   4.179
24722W        W86176  24.121  23.640   5.250
24723W        W86177  22.555  16.652   4.798
24724W        W86178   7.800  37.005   3.214
24725W        W86179   6.340   2.438  14.889
24726W        W86180  39.520  15.711  11.572
24727W        W86181  18.633  37.943   3.759
24728W        W86182  38.029  19.778  10.617
24729W        W86183  43.383  35.400  10.912
24730W        W86184  44.260  28.614   0.754
24731W        W86185  23.611  18.222  11.058
24732W        W86186  15.795  24.070  10.935
24733W        W86187  27.682  16.803  14.775
24734W        W86188  31.488   9.316   2.900
24735W        W86189  37.511   5.259   1.781
24736W        W86190  26.976  11.139   3.367
24737W        W86191  13.694   9.681  10.889
24738W        W86192  23.636  31.503   1.267
24739W        W86193  42.404  25.607   0.874
24740W        W86194   3.837  32.943   1.774
24741W        W86195  15.684  25.980  13.926
24742W        W86196  20.158  27.527   1.848
24743W        W86197  14.118  18.136   3.822
24744W        W86198  20.206  34.538   1.799
24745W        W86199  18.770  36.910  12.568
24746W        W86200  14.149  12.254   0.330
24747W        W86201  13.775   4.432   3.863
24748W        W86202  25.498  25.002   2.336
24749W        W86203  39.969   6.755   1.373
24750W        W86204   1.777  40.471  14.803
24751W        W86205  18.203   8.189   3.672
24752W        W86206  33.507  43.418   0.453
24753W        W86207  16.073  35.484   2.741
24754W        W86208  28.162  42.895   3.772
24755W        W86209  43.896   9.170   3.845
24756W        W86210  27.635  36.513  14.863
24757W        W86211  38.962  30.460  14.905
24758W        W86212  26.174   5.903   2.281
24759W        W86213  42.394  20.540   3.718
24760W        W86214  30.474  19.214   4.621
24761W        W86215  40.854  17.730   0.261
24762W        W86216   9.310  37.478  10.128
24763W        W86217  29.544   5.868  13.438
24764W        W86218  25.528  44.859  10.985
24765W        W86219  12.827  14.117  13.537
24766W        W86220  20.051  31.951  11.010
24767W        W86221  22.197  37.529  13.511
24768W        W86222  42.394  15.735   3.234
24769W        W86223  17.763  19.662   4.678
24770W        W86224  13.638   2.832   3.677
24771W        W86225   6.421  41.437   2.279
24772W        W86226  12.200  26.532   1.727
24773W        W86227  41.340   0.378   4.627
24774W        W86228  32.493  21.702  13.853
24775W        W86229  44.925  33.971   1.215
24776W        W86230  39.818  19.582   4.194
24777W        W86231  21.523  32.904   0.939
24778W        W86232  43.277  18.175  12.856
24779W        W86233  38.899  26.486  13.334
24780W        W86234  43.859  34.863  11.390
24781W        W86235  23.082  40.532   0.779
24782W        W86236   5.804   6.894  10.631
24783W        W86237   0.426  29.594  11.922
24784W        W86238  35.395  21.183  13.452
24785W        W86239  30.040   0.290  12.909
24786W        W86240  30.066   8.658  14.487
24787W        W86241  16.755  32.001  12.532
24788W        W86242  28.972  41.974   4.333
24789W        W86243  18.713  17.068  14.279
24790W        W86244   6.372  19.730   3.362
24791W        W86245  15.765  28.514  10.924
24792W        W86246   1.788  43.373  12.440
24793W        W86247  13.729  15.265  14.909
24794W        W86248  35.060  21.190   0.453
24795W        W86249  42.915  27.103   3.351
24796W        W86250  17.125  36.845  13.057
24797W        W86251  30.520  14.188  14.016
24798W        W86252  44.276  38.414  11.859
24799W        W86253  40.967  10.284   4.239
24800W        W86254  15.105  11.141  13.841
24801W        W86255  11.792   1.965   1.735
24802W        W86256  21.060  40.536  13.383
24803W        W86257  38.882  11.622  10.619
24804W        W86258  30.969   9.371  11.076
24805W        W86259   7.715  43.875   0.907
24806W        W86260  21.731  33.513   4.287
24807W        W86261  16.130   9.320  12.084
24808W        W86262   7.844  38.435   4.186
24809W        W86263  36.557   8.214  10.926
24810W        W86264  31.405   4.856  13.023
24811W        W86265  33.005  10.873  14.326
24812W        W86266   3.444   5.709  13.499
24813W        W86267  18.570  17.110   0.787
24814W        W86268  39.838  13.743  13.812
24815W        W86269  15.737  32.906  11.547
24816W        W86270  29.144  17.594  14.346
24817W        W86271  32.095   9.324   2.837
24818W        W86272  15.716  41.943   4.320
24819W        W86273  32.983  20.579  14.843
24820W        W86274   8.832   7.288   0.820
24821W        W86275  23.525   4.336   3.848
24822W        W86276  41.326  43.490   2.279
24823W        W86277  44.865  20.258  14.014
24824W        W86278  36.875   5.243   1.401
24825W        W86279  41.352  12.340   4.605
24826W        W86280  37.535  41.828   4.247
24827W        W86281  22.171  36.391  13.819
24828W        W86282  34.070  41.843   2.740
24829W        W86283   9.163  19.052   4.298
24830W        W86284  14.616  43.869   4.720
24831W        W86285   2.413  38.449  10.583
24832W        W86286   5.740  35.431   3.257
24833W        W86287  13.611   2.807  11.571
24834W        W86288  41.484  10.227  11.915
24835W        W86289  27.077  37.052  12.579
24836W        W86290  41.403  12.709   0.833
24837W        W86291  40.848  44.830   1.731
24838W        W86292  38.413  11.625  11.096
24839W        W86293   2.362   9.653  12.049
24840W        W86294  41.365  14.323  10.948
24841W        W86295  18.219  41.851   3.242
24842W        W86296   5.319   9.389   1.425
24843W        W86297  16.605  14.759  10.954
24844W        W86298  26.951   6.205  13.866
24845W        W86299  12.278  40.052  11.887
24846W        W86300  25.623   6.328   3.804
24847W        W86301  11.796  16.572   1.287
24848W        W86302   3.437  22.528   4.734
24849W        W86303   4.716  40.504  12.362
24850W        W86304  15.296  41.488   2.808
24851W        W86305  22.593  30.060  10.927
24852W        W86306   2.297  19.094   3.186
24853W        W86307  14.607  37.342   3.230
24854W        W86308  26.624   6.208   4.671
24855W        W86309  38.988  43.802   1.428
24856W        W86310  37.569  11.266   1.741
24857W        W86311   6.219  37.960  14.865
24858W        W86312  19.655  32.997  10.909
24859W        W86313  33.011  15.326   3.171
24860W        W86314  30.594  27.538  12.455
24861W        W86315  18.249  41.906  10.627
24862W        W86316  32.119  19.159   2.738
24863W        W86317  29.133  24.984   2.673
24864W        W86318  27.594   0.768  13.442
24865W        W86319  27.474  30.434  13.883
24866W        W86320  12.121  26.647   2.389
24867W        W86321  11.369  23.526   1.694
24868W        W86322  10.863  42.958   4.170
24869W        W86323  21.172  13.813   4.643
24870W        W86324  36.482   6.855   2.751
24871W        W86325   2.272  13.194  12.494
24872W        W86326  44.266  25.167   3.840
24873W        W86327  22.079  41.965  10.453
24874W        W86328  21.679  14.137   1.906
24875W        W86329   3.868   0.369   1.835
24876W        W86330   4.898  22.636   3.225
24877W        W86331   8.823  18.104   4.219
24878W        W86332   1.297  41.870   4.600
24879W        W86333  40.983  36.090  14.769
24880W        W86334  21.623  40.918   4.716
24881W        W86335   6.406  41.339  11.385
24882W        W86336  36.409  40.846   0.955
24883W        W86337  23.694  37.523   2.205
24884W        W86338  30.609  20.618   4.814
24885W        W86339  27.084  22.154   3.274
24886W        W86340   2.240  37.934   2.397
24887W        W86341  17.581  31.566  11.122
24888W        W86342  30.943  24.621  11.427
24889W        W86343  38.454  27.634  11.559
24890W        W86344   6.696  12.160   0.798
24891W        W86345   5.246  19.224   2.745
24892W        W86346  29.565  44.782  12.929
24893W        W86347  34.524  19.078  12.416
24894W        W86348  16.163  16.730  10.419
24895W        W86349  34.083   9.183  14.383
24896W        W86350   7.724  32.109  11.908
24897W        W86351  38.369  44.959   3.663
24898W        W86352  39.839  34.918   4.149
24899W        W86353  13.645  20.600   2.701
24900W        W86354  30.049  19.212   2.896
24901W        W86355  23.143  19.558  10.600
24902W        W86356  19.191  15.177   1.337
24903W        W86357   9.247  20.202  11.404
24904W        W86358  26.054  19.743  14.333
24905W        W86359  17.761  21.213   4.353
24906W        W86360  40.462  26.598  13.793
24907W        W86361  11.204  20.045   0.358
24908W        W86362  13.683   1.809   4.308
24909W        W86363  22.689  14.252   1.436
24910W        W86364  15.812  39.412  14.776
24911W        W86365  18.719  15.766   2.699
24912W        W86366  34.587   9.706   4.599
24913W        W86367   7.807  14.624   3.639
24914W        W86368  19.206  21.111   2.363
24915W        W86369  11.695  41.916   1.911
24916W        W86370   7.258  30.600   1.903
24917W        W86371   4.864  29.160   2.735
24918W        W86372  10.207  34.549  13.333
24919W        W86373  19.772  23.044   0.319
24920W        W86374  23.173  39.406   0.734
24921W        W86375  18.689  19.714   0.903
24922W        W86376  20.645  15.609   1.744
24923W        W86377  24.482  11.184  14.428
24924W        W86378  16.078  29.669  14.772
24925W        W86379   5.794  43.334   1.405
24926W        W86380  20.762  10.215  12.854
24927W        W86381  28.012  22.653   3.819
24928W        W86382  24.124  42.371  11.911
24929W        W86383  13.704  38.046   0.336
24930W        W86384  15.705  27.625   4.606
24931W        W86385   7.365   0.942   0.327
24932W        W86386  10.763  40.546   4.121
24933W        W86387  42.801  19.106  11.062
24934W        W86388  23.588  36.969  10.560
24935W        W86389  41.476  13.612  14.339
24936W        W86390  37.869  44.269   9.961
24937W        W86391   2.378   9.296  13.400
24938W        W86392   0.767  19.284  14.430
24939W        W86393  41.940  22.513  11.392
24940W        W86394  43.441  15.235   3.698
24941W        W86395  44.903  33.450   1.705
24942W        W86396   5.731  22.059   0.381
24943W        W86397   0.966  32.904  13.835
24944W        W86398  21.223  20.714   1.397
24945W        W86399   9.361  14.639   1.351
24946W        W86400  17.166  41.881   3.196
24947W        W86401  23.053   3.726  12.351
24948W        W86402  31.103  18.190  12.862
24949W        W86403  42.302   9.852  11.374
24950W        W86404  37.465  17.793  12.348
24951W        W86405  18.162  18.127  13.001
24952W        W86406  41.836  28.094   3.691
24953W        W86407   7.873  26.162  14.030
24954W        W86408  38.974  19.177   1.262
24955W        W86409  14.248  36.932   1.210
24956W        W86410  43.424   5.260   3.656
24957W        W86411  43.336  30.912  11.516
24958W        W86412   2.459  35.381   2.227
24959W        W86413  37.088  38.444   0.953
24960W        W86414  27.187   4.430   1.703
24961W        W86415  26.518  22.142  11.381
24962W        W86416  37.843  21.196   0.335
24963W        W86417  22.089   4.383   3.314
24964W        W86418  21.716  30.576   3.284
24965W        W86419   9.811  43.374   4.228
24966W        W86420  10.757  17.267  14.398
24967W        W86421  14.271  18.768  13.537
24968W        W86422   2.906  28.022  11.434
24969W        W86423  34.011  37.956   3.380
24970W        W86424   6.188  21.573   4.269
24971W        W86425  12.322  41.399  12.446
24972W        W86426   8.383   5.785  11.568
24973W        W86427  20.226  24.018  12.382
24974W        W86428  32.408  25.651  12.364
24975W        W86429  27.112   3.849  14.966
24976W        W86430  27.941  10.819   4.353
24977W        W86431  31.952  16.599   4.766
24978W        W86432  25.989   8.287  12.410
24979W        W86433  24.033   4.848   1.386
24980W        W86434   1.933  13.788   3.385
24981W        W86435  38.903  21.651   3.173
24982W        W86436   8.783   8.668   0.741
24983W        W86437  11.302  29.927  13.964
24984W        W86438  43.814  22.682  12.932
24985W        W86439  32.136  41.360   2.416
24986W        W86440  20.611  20.063  14.333
24987W        W86441  27.004  24.976   0.812
24988W        W86442   3.249  13.622   3.808
24989W        W86443   2.865  42.380   1.373
24990W        W86444  41.828  44.382   1.389
24991W        W86445   2.445  19.574   2.393
24992W        W86446   0.429  33.483  13.865
24993W        W86447  40.472  38.430   2.668
24994W        W86448  37.431  21.584   0.880
24995W        W86449  32.591  29.919   0.258
24996W        W86450  24.110  37.517   3.641
24997W        W86451  44.376  12.620   9.953
24998W        W86452   3.952  25.537  12.543
24999W        W86453   0.348  39.502   0.290
25000W        W86454  40.311   2.955   2.838
25001W        W86455   0.868  35.563   0.912
25002W        W86456  25.999   6.706   2.688
25003W        W86457   1.285   3.869   3.374
25004W        W86458  16.631  28.640   3.739
25005W        W86459  26.529  11.267  13.467
25006W        W86460  20.269  28.076  10.565
25007W        W86461  19.651  39.436   4.338
25008W        W86462  44.284  27.642  13.032
25009W        W86463  24.017  15.657   2.234
25010W        W86464  26.051  22.715   2.372
25011W        W86465  31.480  21.702  11.885
25012W        W86466  40.968   9.807  13.057
25013W        W86467  24.214  12.157   4.724
25014W        W86468  30.480  34.447  13.920
25015W        W86469  12.781   8.323   4.253
25016W        W86470  44.348  15.795  11.383
25017W        W86471   1.416   5.364  13.863
25018W        W86472  17.760  41.479   0.778
25019W        W86473  42.791  16.700  11.504
25020W        W86474  44.453   8.761   3.648
25021W        W86475  16.277  12.848   3.754
25022W        W86476  34.915  39.885   0.425
25023W        W86477  12.125  43.393  14.452
25024W        W86478   6.376   6.264  13.455
25025W        W86479  37.402  30.563   4.726
25026W        W86480  43.775  38.012   2.827
25027W        W86481  10.360  17.764  14.874
25028W        W86482  39.511   5.878   0.406
25029W        W86483  24.015  17.283  14.305
25030W        W86484  43.791  11.822   1.730
25031W        W86485  22.200  16.668   3.788
25032W        W86486   9.273  38.928  10.897
25033W        W86487  18.710   0.313  11.923
25034W        W86488  19.119   3.281  12.881
25035W        W86489  25.013   2.853  14.472
25036W        W86490  23.227  18.585  11.521
25037W        W86491  35.397  39.982  13.925
25038W        W86492  29.101   9.188  11.116
25039W        W86493   3.294  42.001  11.060
25040W        W86494  26.179  32.093   2.827
25041W        W86495  32.407  44.453  12.887
25042W        W86496  29.618   8.306  10.610
25043W        W86497  27.108  39.421  11.573
25044W        W86498  33.936  28.590  14.448
25045W        W86499  22.568   3.330   4.262
25046W        W86500  37.582  31.426  11.029
25047W        W86501  44.899  41.403   1.447
25048W        W86502  21.651   1.476   4.247
25049W        W86503  41.301  28.627   1.708
25050W        W86504  43.948  18.567   2.684
25051W        W86505  17.177  11.269  13.410
25052W        W86506  37.988  25.214  12.518
25053W        W86507  41.435   3.812   1.729
25054W        W86508  40.998   6.765   2.867
25055W        W86509  42.958   3.269   0.286
25056W        W86510  19.743  29.938   1.715
25057W        W86511  15.304   5.699   1.843
25058W        W86512   1.830   9.865   2.691
25059W        W86513  12.811  22.201  14.919
25060W        W86514  19.051  25.060  11.008
25061W        W86515  30.109  34.596   5.180
25062W        W86516  22.188  16.771   0.346
25063W        W86517  18.180  14.160   2.899
25064W        W86518  36.975  21.754   1.915
25065W        W86519  20.186  25.502  11.431
25066W        W86520  19.661  39.535  12.535
25067W        W86521  11.159  38.444  10.927
25068W        W86522  43.785  40.927   3.331
25069W        W86523  15.151   3.215  11.880
25070W        W86524   0.958  14.116  12.021
25071W        W86525  36.972  39.451   1.920
25072W        W86526  24.994  34.074   1.440
25073W        W86527  13.293  39.347  10.589
25074W        W86528  28.537  22.136  12.356
25075W        W86529  19.596  17.717   2.308
25076W        W86530  35.946   3.352  10.981
25077W        W86531  25.965  19.559  11.969
25078W        W86532  12.189  26.965  10.577
25079W        W86533  20.702   3.369  11.112
25080W        W86534  25.039  28.528  11.905
25081W        W86535  37.570  28.592  11.981
25082W        W86536  37.915  22.588   0.919
25083W        W86537  40.803   5.745   4.323
25084W        W86538  21.032  32.925  11.982
25085W        W86539  33.597  14.621  14.886
25086W        W86540  44.269   6.372  10.975
25087W        W86541   4.856  35.009   1.385
25088W        W86542   5.322  19.218   4.199
25089W        W86543  35.565  21.674  12.393
25090W        W86544  25.144  13.275   4.262
25091W        W86545   8.402  15.244   2.722
25092W        W86546  12.692  13.703  10.603
25093W        W86547  31.425  24.528  14.913
25094W        W86548  31.617  22.735  14.350
25095W        W86549  43.816  41.798  12.909
25096W        W86550  30.639  38.979  14.849
25097W        W86551  16.594  18.191  11.600
25098W        W86552   7.195  18.222  14.764
25099W        W86553  10.202  22.090   0.335
25100W        W86554  34.546   6.757   4.251
25101W        W86555  36.521  34.027  10.469
25102W        W86556   0.750  37.979  14.982
25103W        W86557  24.490  28.021   0.947
25104W        W86558  43.448  31.494   2.238
25105W        W86559  19.168   7.312  12.063
25106W        W86560   5.802  35.944  11.439
25107W        W86561  37.416   8.312   3.786
25108W        W86562  22.520   4.828   2.268
25109W        W86563  21.208  29.061  11.971
25110W        W86564  15.213  14.632   4.792
25111W        W86565  31.973  20.061  13.927
25112W        W86566  21.206   1.799  13.443
25113W        W86567  41.385  16.609  13.798
25114W        W86568   9.180  28.986   0.803
25115W        W86569  26.520  19.587  10.936
25116W        W86570  17.757   8.295   4.650
25117W        W86571  32.987  43.494   2.348
25118W        W86572  40.368  36.916   0.350
25119W        W86573  12.164  44.399  12.870
25120W        W86574   4.780  16.075   3.187
25121W        W86575  37.358   5.340  10.984
25122W        W86576  42.479   9.646  11.929
25123W        W86577  23.008  30.485   1.900
25124W        W86578  27.522   0.886  11.927
25125W        W86579   6.368  26.506   1.436
25126W        W86580  26.063  21.244   4.258
25127W        W86581  36.386  41.374   4.279
25128W        W86582  33.525   9.675   2.400
25129W        W86583  29.170  36.048  13.524
25130W        W86584  36.449  28.176   4.725
25131W        W86585  35.042  13.310   5.236
25132W        W86586  35.921  30.936   4.706
25133W        W86587  41.805  39.552  13.840
25134W        W86588  38.007  12.817  12.508
25135W        W86589  36.379  44.901  14.786
25136W        W86590   1.364   2.309  12.909
25137W        W86591  19.070  31.494   4.778
25138W        W86592  10.286  38.075  14.807
25139W        W86593  25.686  26.657  12.972
25140W        W86594  41.926   6.781  10.473
25141W        W86595  24.660  33.492   4.312
25142W        W86596  29.493   5.794   2.322
25143W        W86597  34.472  22.567   3.303
25144W        W86598  14.306  14.668   3.751
25145W        W86599   5.690  15.273  11.460
25146W        W86600  35.088  25.130   2.213
25147W        W86601  44.421   7.187  10.631
25148W        W86602  40.839   3.284  11.021
25149W        W86603  38.332  33.069  13.930
25150W        W86604  32.139  18.101  11.571
25151W        W86605  23.615  10.255   0.370
25152W        W86606  43.997   2.884   4.830
25153W        W86607  44.327  41.314  10.968
25154W        W86608   3.829  43.796  10.491
25155W        W86609  13.704   9.381  14.488
25156W        W86610  14.297  33.617   0.381
25157W        W86611  26.957  10.317   4.756
25158W        W86612  28.533   1.323  12.007
25159W        W86613  32.495  26.033  13.861
25160W        W86614  40.959  15.207   0.760
25161W        W86615  34.599   1.969   4.732
25162W        W86616  18.707  23.043   3.718
25163W        W86617   7.687   7.372  13.334
25164W        W86618  34.504  13.261   2.364
25165W        W86619  44.361   8.797  12.429
25166W        W86620  34.049  24.046   1.759
25167W        W86621   7.686  44.292   3.212
25168W        W86622   3.366  43.020  13.804
25169W        W86623  43.413  34.465   0.407
25170W        W86624   4.884   4.365   3.736
25171W        W86625  23.178  41.036   3.762
25172W        W86626  37.354  42.014  10.475
25173W        W86627  16.139  10.710  11.870
25174W        W86628  39.826  22.646  14.837
25175W        W86629  38.002  22.682   4.207
25176W        W86630   3.245  39.054  12.374
25177W        W86631   2.454  34.428   4.199
25178W        W86632  38.499  24.086  11.588
25179W        W86633  14.218   9.203  13.380
25180W        W86634  20.725   8.165   3.791
25181W        W86635  23.050  38.512  14.491
25182W        W86636   0.855   3.748   0.854
25183W        W86637   7.807   0.394   1.259
25184W        W86638  41.392   7.180  11.546
25185W        W86639  39.034   7.331  12.402
25186W        W86640  31.110  17.686  12.895
25187W        W86641  32.545  21.636   3.282
25188W        W86642   2.810  40.016   3.170
25189W        W86643   5.919  35.480   0.307
25190W        W86644  24.974  29.961  12.965
25191W        W86645  16.160   3.717   0.774
25192W        W86646  28.070   7.786  11.897
25193W        W86647  14.732  37.346  14.462
25194W        W86648  15.094  44.333  13.876
25195W        W86649  14.257   8.370   4.320
25196W        W86650  32.921  41.018  12.865
25197W        W86651  18.731  28.514   4.249
25198W        W86652   5.303  11.133  14.384
25199W        W86653  11.834  32.096  11.610
25200W        W86654  20.203  31.921   4.221
25201W        W86655  16.231  21.702   4.314
25202W        W86656  28.597  10.219  13.357
25203W        W86657  32.619  38.819   0.836
25204W        W86658  28.475  17.638   2.205
25205W        W86659   0.786  15.731   4.337
25206W        W86660  20.194   8.221   1.761
25207W        W86661  44.397  42.958   4.787
25208W        W86662  35.561   1.400  12.989
25209W        W86663  39.993  10.740  11.104
25210W        W86664  37.479  17.661   0.257
25211W        W86665   5.389  17.127  10.453
25212W        W86666  20.035  11.248  11.924
25213W        W86667  11.154  34.497   3.712
25214W        W86668  20.222  36.507  12.503
25215W        W86669  30.642  42.874  12.864
25216W        W86670  32.105  18.119  12.385
25217W        W86671  23.708   5.259   1.255
25218W        W86672  22.178  25.077   0.421
25219W        W86673  15.741  29.154   4.198
25220W        W86674   3.354  42.490   2.708
25221W        W86675  16.809  41.448  11.910
25222W        W86676  35.361  23.029  12.507
25223W        W86677  32.625  42.326  12.507
25224W        W86678  13.712   0.943  14.790
25225W        W86679  28.074   0.453  12.086
25226W        W86680  15.708  28.609  13.418
25227W        W86681  42.422  10.326   3.387
25228W        W86682  41.487  23.105   3.718
25229W        W86683  17.604  32.586   1.927
25230W        W86684  17.590   9.749  10.101
25231W        W86685  34.078   2.913  12.430
25232W        W86686  14.265  30.461  10.975
25233W        W86687  16.294  27.581   1.345
25234W        W86688  34.038  26.118   3.158
25235W        W86689  33.122  39.336   2.691
25236W        W86690  23.989  14.254  13.030
25237W        W86691   1.856  36.453  13.967
25238W        W86692  23.014  22.574  12.469
25239W        W86693   0.328  36.480   1.747
25240W        W86694  33.417  38.965   2.377
25241W        W86695  38.040   9.890  12.394
25242W        W86696   5.715  10.225   4.178
25243W        W86697  11.284  34.065  11.043
25244W        W86698  27.125   4.265  12.050
25245W        W86699  31.474  43.370  13.524
25246W        W86700  32.039  40.433  14.902
25247W        W86701  24.565  35.364   3.777
25248W        W86702  35.974  17.116  10.894
25249W        W86703  43.431  32.531   3.657
25250W        W86704  28.008  30.970   4.262
25251W        W86705   9.812  19.676  10.100
25252W        W86706  39.906  24.490  11.977
25253W        W86707   3.852  33.477  14.323
25254W        W86708   1.374   0.967  13.930
25255W        W86709  21.689  36.521   3.254
25256W        W86710  11.345   4.406  14.300
25257W        W86711  41.313  39.384  10.997
25258W        W86712  35.556   7.334  11.023
25259W        W86713  14.306  34.951   2.897
25260W        W86714  31.469  27.557  14.508
25261W        W86715   6.748  38.829   0.294
25262W        W86716  17.662  19.263  10.920
25263W        W86717  33.545  15.635   3.290
25264W        W86718  35.514  36.542  14.790
25265W        W86719  15.692   8.201  12.366
25266W        W86720  33.514  29.149   4.320
25267W        W86721   9.394   7.811  11.503
25268W        W86722  15.669  41.898   0.948
25269W        W86723   1.375  26.572  12.483
25270W        W86724  26.529  37.491   3.668
25271W        W86725  22.707  39.470  14.844
25272W        W86726   9.785   1.873   1.251
25273W        W86727  20.171  15.273  10.519
25274W        W86728  43.848  18.237   2.213
25275W        W86729   9.163  16.673   4.662
25276W        W86730  16.157  27.632   0.752
25277W        W86731  28.509  11.829  11.958
25278W        W86732   6.345  37.880   3.670
25279W        W86733  10.380   3.451   5.195
25280W        W86734  20.637   1.780  12.968
25281W        W86735  14.103  28.652   2.708
25282W        W86736  30.585  25.538  14.399
25283W        W86737   4.761  19.075  14.955
25284W        W86738  15.754   8.700  13.010
25285W        W86739  11.232  43.278  12.052
25286W        W86740  16.783  23.624   3.316
25287W        W86741   3.307  20.719  14.951
25288W        W86742  41.356  38.558  10.063
25289W        W86743   1.317   1.374   3.353
25290W        W86744  28.018  14.635  10.597
25291W        W86745  10.273  15.280  11.588
25292W        W86746  24.509  14.665  13.840
25293W        W86747  18.138   8.666   2.348
25294W        W86748  11.656  15.644   4.646
25295W        W86749  22.576   3.292   1.273
25296W        W86750  30.626  41.346   0.855
25297W        W86751  27.050  18.764  10.946
25298W        W86752  17.107  33.118  13.942
25299W        W86753   8.843  25.501  11.411
25300W        W86754   7.773  20.678   2.683
25301W        W86755  24.190  38.357   0.816
25302W        W86756  36.561   7.745  12.349
25303W        W86757  35.037  32.552   1.758
25304W        W86758   3.221  20.054  11.054
25305W        W86759  36.030  42.473  13.487
25306W        W86760   0.252  20.148   3.239
25307W        W86761   7.211  24.036  12.953
25308W        W86762  30.160  15.735  14.357
25309W        W86763  31.085  24.230   1.910
25310W        W86764   5.762  24.725  11.576
25311W        W86765  18.215  17.758  14.925
25312W        W86766   5.765   7.346   4.194
25313W        W86767  44.877  38.401   2.338
25314W        W86768  35.096  15.655  14.020
25315W        W86769  18.569   3.883  14.919
25316W        W86770  12.694  22.541   3.854
25317W        W86771   5.330  13.315  12.365
25318W        W86772   8.225   6.338   1.758
25319W        W86773  35.956  30.522  12.392
25320W        W86774  20.688  40.881  11.588
25321W        W86775   6.769  18.053  11.484
25322W        W86776  24.501  32.083   2.807
25323W        W86777  40.876  33.972   3.232
25324W        W86778   1.445  38.431  11.024
25325W        W86779   3.319  11.678  12.037
25326W        W86780  19.646   4.877  14.813
25327W        W86781  35.872  44.363  14.767
25328W        W86782   9.644  40.845   3.381
25329W        W86783  16.590  26.982  10.935
25330W        W86784   5.197  26.053  14.788
25331W        W86785  10.718  39.549  10.503
25332W        W86786  40.370  30.540  14.838
25333W        W86787  29.007  22.587   0.780
25334W        W86788  35.925  26.129   3.356
25335W        W86789  27.181  10.282  14.468
25336W        W86790  42.985  35.573  10.911
25337W        W86791  24.653  10.163   1.928
25338W        W86792  44.933   5.934   2.814
25339W        W86793  14.664  18.702   0.244
25340W        W86794   6.308  20.582   2.719
25341W        W86795  22.088  16.809  10.930
25342W        W86796  33.123  43.455   1.912
25343W        W86797  37.422  11.819   4.263
25344W        W86798  22.131   4.293  12.341
25345W        W86799  43.948   1.959  12.400
25346W        W86800  25.047  40.837   3.346
25347W        W86801   9.812  16.591   2.732
25348W        W86802  43.781  31.603  12.381
25349W        W86803   9.866  44.907   2.679
25350W        W86804   2.930  27.464  13.037
25351W        W86805   6.767   9.825   4.720
25352W        W86806  16.160   8.201  12.512
25353W        W86807  21.167  44.967  12.454
25354W        W86808   5.274   1.246   4.820
25355W        W86809  18.619  21.032   0.935
25356W        W86810   1.928  29.590   4.724
25357W        W86811  35.553  10.301   2.823
25358W        W86812  34.951  25.116  10.970
25359W        W86813  16.146  34.900  12.972
25360W        W86814  32.929  16.310  13.965
25361W        W86815  41.356  25.611  11.408
25362W        W86816   6.263   0.463  14.500
25363W        W86817  14.119  32.133  13.833
25364W        W86818  25.020   2.408  14.984
25365W        W86819  21.659  40.940   0.795
25366W        W86820   5.202  28.588   2.763
25367W        W86821  37.901  44.426   2.368
25368W        W86822  14.296  17.100   4.643
25369W        W86823  39.927  44.300  13.421
25370W        W86824   8.381  18.174   1.328
25371W        W86825   9.341  14.641  13.436
25372W        W86826  36.463  10.765   3.261
25373W        W86827  31.046  38.395  13.886
25374W        W86828   6.784  21.722   3.270
25375W        W86829   9.160  32.024  14.382
25376W        W86830  11.282  10.158  14.356
25377W        W86831  12.341  39.485  12.080
25378W        W86832  38.973  35.909  14.363
25379W        W86833   3.725  14.203   5.120
25380W        W86834  28.462  11.698  11.021
25381W        W86835  36.520  13.731  11.956
25382W        W86836  18.152  19.231   0.898
25383W        W86837   3.454   9.286   4.160
25384W        W86838  43.443  23.538   2.343
25385W        W86839  44.975  30.492   0.744
25386W        W86840  17.715  16.663   0.910
25387W        W86841  28.169  44.458  11.448
25388W        W86842  19.769  36.982   2.744
25389W        W86843  11.277  21.044   0.868
25390W        W86844  29.630   1.927   1.862
25391W        W86845  20.079  14.102   0.402
25392W        W86846  35.399  27.521   4.148
25393W        W86847  19.072  20.181  13.956
25394W        W86848  30.145  32.912   4.114
25395W        W86849  20.705  32.473  13.959
25396W        W86850   4.219   0.262  13.410
25397W        W86851  30.036  28.110  11.473
25398W        W86852   6.367  30.486   2.246
25399W        W86853  35.094  22.529  14.332
25400W        W86854  36.034  37.562  14.901
25401W        W86855  22.115  32.954   4.607
25402W        W86856   7.757  43.374  12.860
25403W        W86857  14.266   4.408  12.461
25404W        W86858  29.040  31.516   3.172
25405W        W86859  33.430  14.803   1.272
25406W        W86860  40.843  29.159  13.495
25407W        W86861   2.777  14.306   1.255
25408W        W86862  10.811  20.699   3.371
25409W        W86863  20.064  27.679  14.304
25410W        W86864  30.118  30.462  10.436
25411W        W86865   2.852  41.931   2.772
25412W        W86866  38.555   7.193  11.593
25413W        W86867  16.700  39.419   0.942
25414W        W86868  40.817  23.493   3.645
25415W        W86869  33.996  17.098  10.992
25416W        W86870  25.127   2.765  12.344
25417W        W86871  39.557  19.739   1.848
25418W        W86872   0.845   9.750  13.928
25419W        W86873  27.512  21.207  11.549
25420W        W86874   6.245  25.635  12.017
25421W        W86875  41.871  17.572   1.265
25422W        W86876   4.713  40.877   1.774
25423W        W86877  37.528  30.482   2.397
25424W        W86878   0.801  18.627  11.519
25425W        W86879  26.014  34.966  11.446
25426W        W86880  39.962  40.898   0.932
25427W        W86881  39.531  43.505  11.524
25428W        W86882   8.235  41.960   2.178
25429W        W86883  14.814  19.133  11.102
25430W        W86884  28.078  34.558   0.852
25431W        W86885  15.265   9.823   0.891
25432W        W86886   3.236   1.405  13.844
25433W        W86887   9.195  43.987   3.245
25434W        W86888   8.881  23.531  12.416
25435W        W86889  10.306  36.553  10.912
25436W        W86890   1.894  27.015   3.277
25437W        W86891  38.350  11.807  14.394
25438W        W86892  12.759  21.218  12.852
25439W        W86893  11.728   9.227  11.970
25440W        W86894  43.289   8.321  13.523
25441W        W86895  44.414  40.001   1.837
25442W        W86896  17.657  28.997   1.450
25443W        W86897  41.450   2.898  14.401
25444W        W86898  23.613  31.445  11.891
25445W        W86899  14.331   6.772   2.715
25446W        W86900  10.306   8.856  13.064
25447W        W86901   8.223  42.857   0.761
25448W        W86902  34.875   5.861  13.978
25449W        W86903  33.431  22.224  10.547
25450W        W86904  31.425  14.748   3.338
25451W        W86905  42.977   8.254  10.474
25452W        W86906  22.674   5.749   2.268
25453W        W86907  22.037   6.818   1.780
25454W        W86908  22.541  36.373   0.405
25455W        W86909  12.723  14.167  10.095
25456W        W86910   2.280  20.687   1.376
25457W        W86911  25.630  24.688   4.126
25458W        W86912   0.801   9.701  13.488
25459W        W86913  20.549  21.642   3.838
25460W        W86914  37.059  42.302   3.812
25461W        W86915  13.806  42.896   3.751
25462W        W86916  28.184  33.500   2.875
25463W        W86917  22.101  36.556   1.732
25464W        W86918  31.041  33.121  13.972
25465W        W86919  18.588  39.546   1.873
25466W        W86920  11.804  34.913   3.776
25467W        W86921   5.793  10.189   2.347
25468W        W86922  18.113  44.293   0.799
25469W        W86923  30.613  37.937  13.839
25470W        W86924  10.822  43.983   3.703
25471W        W86925  32.408  26.657  12.486
25472W        W86926  10.338  24.543   2.793
25473W        W86927  39.429   7.403  12.825
25474W        W86928   3.380  21.551  14.782
25475W        W86929  10.840  28.552   4.317
25476W        W86930  15.264  33.398   4.692
25477W        W86931   2.811  13.816  11.992
25478W        W86932  21.560  10.694   1.900
25479W        W86933  43.001  13.603   0.923
25480W        W86934  13.315  11.768   1.259
25481W        W86935  14.247  12.766   0.853
25482W        W86936  43.842  30.566   2.209
25483W        W86937  43.326  27.536  11.925
25484W        W86938   1.791  20.591   1.259
25485W        W86939  43.906  12.196  11.404
25486W        W86940  37.530  11.816   2.299
25487W        W86941  44.307   6.840   4.814
25488W        W86942  23.500   2.878  11.523
25489W        W86943  20.631  13.221   1.862
25490W        W86944  19.256  43.355  13.415
25491W        W86945  21.070   5.837  11.545
25492W        W86946  31.909   6.717   0.813
25493W        W86947   7.208  26.137  10.509
25494W        W86948   8.822  32.449   2.271
25495W        W86949  38.440  31.133   3.277
25496W        W86950  20.215   4.859   4.333
25497W        W86951  31.937   9.394   2.327
25498W        W86952   9.643   0.862   1.425
25499W        W86953  18.790   0.285  12.514
25500W        W86954  16.174  10.207   3.854
25501W        W86955   4.743  22.246   0.479
25502W        W86956  39.492   0.347   1.870
25503W        W86957  41.389  37.043  14.415
25504W        W86958  25.166  44.339  13.841
25505W        W86959   7.239  28.506   0.480
25506W        W86960  21.095  43.309   4.654
25507W        W86961  21.058  34.565  13.458
25508W        W86962  27.528  22.131  10.051
25509W        W86963  17.643   9.802  10.912
25510W        W86964  29.978   1.875  11.595
25511W        W86965  15.302  44.974  14.330
25512W        W86966   5.378  37.476  13.853
25513W        W86967  12.198   5.817   0.372
25514W        W86968   5.770  27.010  12.851
25515W        W86969  43.822  27.615   1.343
25516W        W86970  29.993  11.134  14.448
25517W        W86971   0.342  31.441   4.686
25518W        W86972  20.661  17.108   4.715
25519W        W86973  24.511  27.489  10.921
25520W        W86974  21.237  27.465  11.467
25521W        W86975  12.207  11.639   0.815
25522W        W86976  16.614   5.234  13.980
25523W        W86977  20.074   2.909   2.858
25524W        W86978  34.041  25.521  12.921
25525W        W86979  20.269  44.981   4.632
25526W        W86980  14.643  28.024   1.924
25527W        W86981   0.874  16.114   2.182
25528W        W86982  27.038  40.471  10.645
25529W        W86983  17.234  22.554  11.438
25530W        W86984  40.433   7.280   1.374
25531W        W86985  25.613  40.547   2.240
25532W        W86986   8.880  34.588  10.896
25533W        W86987  31.029  13.327   2.221
25534W        W86988  11.343  21.748   2.196
25535W        W86989  28.064   7.247   1.746
25536W        W86990   7.211  39.934   2.381
25537W        W86991   0.248   2.891   3.310
25538W        W86992  26.477  10.175  13.354
25539W        W86993   1.802   7.411  13.406
25540W        W86994   0.388  25.613   0.339
25541W        W86995  12.279   6.806  12.519
25542W        W86996  17.160  30.658   2.878
25543W        W86997  24.628  41.503   0.752
25544W        W86998  35.954  39.430   0.463
25545W        W86999  34.393  40.452   4.290
25546W        W87000   5.793  24.561  13.388
25547W        W87001  21.122   8.804   0.422
25548W        W87002  37.493  20.653   0.883
25549W        W87003   9.793  39.052  14.788
25550W        W87004  31.025   9.722   2.751
25551W        W87005   7.329  21.194  10.961
25552W        W87006   7.224  33.072   0.855
25553W        W87007  14.177  25.066  12.883
25554W        W87008  19.579  21.021   2.412
25555W        W87009  30.621  17.137   2.216
25556W        W87010  23.698   1.769  14.850
25557W        W87011  41.859   0.371   1.792
25558W        W87012  35.078  35.390   2.252
25559W        W87013  34.992  32.626   4.613
25560W        W87014  21.097   5.853  10.139
25561W        W87015  35.087  36.043  14.487
25562W        W87016  17.207  22.646   2.704
25563W        W87017  18.237  11.299  13.486
25564W        W87018  39.863  14.750  14.841
25565W        W87019  20.130   3.311   5.199
25566W        W87020  30.930  34.951   0.887
25567W        W87021   8.297  15.221  11.079
25568W        W87022  37.381  33.529   0.843
25569W        W87023  28.580  34.912   1.223
25570W        W87024   4.854  29.547  10.144
25571W        W87025   9.353  27.185  12.862
25572W        W87026  33.393  38.053  14.387
25573W        W87027   0.960  19.760   1.376
25574W        W87028   1.765  22.999  11.496
25575W        W87029  19.136   1.355  14.417
25576W        W87030  29.166  20.074  11.118
25577W        W87031  38.017  34.611   4.192
25578W        W87032  16.798   2.313   1.219
25579W        W87033  33.879  14.660   1.930
25580W        W87034  37.363  40.034   0.795
25581W        W87035  20.066  37.575  12.844
25582W        W87036  23.204   6.718  10.634
25583W        W87037   1.391  43.899  11.574
25584W        W87038   2.384  27.482  10.553
25585W        W87039  25.009  23.236   1.712
25586W        W87040  10.346   4.435   4.718
25587W        W87041  21.712  44.404  10.471
25588W        W87042  32.631  19.184  14.321
25589W        W87043  43.885  19.706   1.437
25590W        W87044  28.934  31.582  13.872
25591W        W87045  35.512   1.440   3.816
25592W        W87046  41.460   9.871  11.574
25593W        W87047  31.949   6.340  12.999
25594W        W87048  39.457  38.475   0.967
25595W        W87049   3.826  34.423   0.448
25596W        W87050  24.032  36.098   4.677
25597W        W87051   7.717   8.834   0.408
25598W        W87052  18.071  27.631   2.287
25599W        W87053  41.911   8.724  10.517
25600W        W87054  23.708  42.443   3.297
25601W        W87055  29.018   0.257  11.965
25602W        W87056  41.808  32.444   1.294
25603W        W87057  18.766  17.147  12.453
25604W        W87058  29.936  14.662  12.462
25605W        W87059  27.557  36.486  10.621
25606W        W87060  34.582  37.082  10.515
25607W        W87061  19.731  25.210   1.340
25608W        W87062  29.449  18.598   2.404
25609W        W87063  33.034  13.105  13.823
25610W        W87064  37.481  30.030  13.869
25611W        W87065  19.078   4.206   3.297
25612W        W87066  14.253  10.328   2.685
25613W        W87067  19.581  40.839  10.563
25614W        W87068  35.519  24.074  12.506
25615W        W87069   2.791  32.401   1.374
25616W        W87070   9.221  36.920   2.893
25617W        W87071  33.419  20.666  11.073
25618W        W87072  24.589  26.680  11.872
25619W        W87073  18.569  43.324  10.633
25620W        W87074  24.215  36.051  12.892
25621W        W87075   4.298  19.608  11.456
25622W        W87076  24.625  36.369  13.933
25623W        W87077  31.050  18.547  11.054
25624W        W87078  10.175  43.494   2.217
25625W        W87079  37.427  44.958  14.419
25626W        W87080   7.665   5.756   4.295
25627W        W87081  22.021  32.597   3.308
25628W        W87082  29.960  15.697   3.166
25629W        W87083  34.537  34.453  14.964
25630W        W87084  32.018  35.048  11.493
25631W        W87085  21.579  11.825   0.789
25632W        W87086  33.077  25.547  13.875
25633W        W87087  41.965  41.508   3.862
25634W        W87088  10.283  23.140   2.233
25635W        W87089   1.936  29.630   3.640
25636W        W87090  37.549  25.595   0.478
25637W        W87091  34.870  28.115   0.390
25638W        W87092  42.846  44.794  13.063
25639W        W87093  25.667  11.138   3.251
25640W        W87094   1.288  21.528  13.905
25641W        W87095  29.122   2.911   0.330
25642W        W87096   8.231  33.524  13.923
25643W        W87097  25.674  24.050  12.839
25644W        W87098  16.724  41.389  13.332
25645W        W87099  18.254  13.117   3.774
25646W        W87100   4.884  11.631   0.288
25647W        W87101  41.976  23.198  13.438
25648W        W87102   1.762   7.710   2.898
25649W        W87103   2.344   7.778   5.114
25650W        W87104  24.637  37.889  12.921
25651W        W87105  32.512  39.476  14.931
25652W        W87106  15.147  27.147   0.360
25653W        W87107  43.010  15.712   2.825
25654W        W87108  26.519  22.204   2.238
25655W        W87109  43.870   7.413   3.670
25656W        W87110  11.347  31.635   3.815
25657W        W87111  10.145  24.168   2.351
25658W        W87112  32.560  36.904   3.220
25659W        W87113  12.314  40.442   0.727
25660W        W87114  20.044  17.576   4.157
25661W        W87115   3.932   2.792  13.969
25662W        W87116  28.668   4.897   0.323
25663W        W87117  13.776  21.170  14.476
25664W        W87118  23.587  14.656  11.413
25665W        W87119  21.221   9.201   2.293
25666W        W87120  36.491   0.296  11.021
25667W        W87121  27.065  43.796   2.708
25668W        W87122  41.361   9.836  10.909
25669W        W87123   4.748  24.531  12.841
25670W        W87124   0.912  31.583   2.199
25671W        W87125  16.199   0.469  14.855
25672W        W87126  44.289  40.974  11.977
25673W        W87127  19.244  29.052  12.078
25674W        W87128  27.580  43.986   0.739
25675W        W87129  21.233   5.383   0.731
25676W        W87130  40.920  40.956  12.062
25677W        W87131  29.519  35.030  12.936
25678W        W87132  29.661   6.839   0.374
25679W        W87133  31.899  31.084  12.563
25680W        W87134   1.923  43.970   2.724
25681W        W87135   2.859  19.181  12.076
25682W        W87136  39.888  16.260   1.368
25683W        W87137   3.386   1.328  13.040
25684W        W87138  42.804  17.190   4.812
25685W        W87139  43.355  23.037  14.297
25686W        W87140   8.348  22.720   3.849
25687W        W87141  28.011  38.386   4.749
25688W        W87142  35.979  17.137   0.319
25689W        W87143  19.724  32.394   1.907
25690W        W87144  34.597  34.885  14.024
25691W        W87145   0.424   2.877   2.354
25692W        W87146  28.537   0.858   1.734
25693W        W87147   8.842  32.937   2.709
25694W        W87148  13.210  26.058  13.803
25695W        W87149   4.248  17.595   0.912
25696W        W87150  10.247  24.543   1.421
25697W        W87151  34.954  28.993   3.282
25698W        W87152  25.966   9.219  11.550
25699W        W87153  18.288  27.656   2.729
25700W        W87154   0.428  16.694   3.374
25701W        W87155   9.199  32.000  12.579
25702W        W87156   5.331   1.968   3.822
25703W        W87157  11.694  16.779   3.247
25704W        W87158  13.268  30.549  14.764
25705W        W87159   1.248  16.099  12.886
25706W        W87160   0.763  29.127  12.421
25707W        W87161  25.644  11.336   1.849
25708W        W87162   9.264  39.866  12.373
25709W        W87163  37.427  13.735  13.349
25710W        W87164  38.857  28.487  12.378
25711W        W87165  21.085  42.943  11.080
25712W        W87166   0.396  26.185  14.404
25713W        W87167  16.091   1.474  12.083
25714W        W87168   6.188  39.407  11.107
25715W        W87169  11.279  23.662   2.756
25716W        W87170  19.263  18.080   0.408
25717W        W87171  24.582  22.195   1.738
25718W        W87172   6.885  29.036   0.256
25719W        W87173  21.598  32.604  14.500
25720W        W87174  24.221   9.314   4.664
25721W        W87175  34.580  13.812  12.942
25722W        W87176  30.593  32.076   2.896
25723W        W87177  16.217   2.893   0.865
25724W        W87178  28.498  30.651   1.915
25725W        W87179  27.187   8.325  14.019
25726W        W87180  20.595   8.799   3.232
25727W        W87181  44.903  41.868   0.431
25728W        W87182  34.381  18.553   3.698
25729W        W87183  24.501   5.358  11.532
25730W        W87184  10.256   1.453  13.476
25731W        W87185  42.808  42.937  13.953
25732W        W87186  14.802  10.873   0.437
25733W        W87187  35.101  37.071  14.445
25734W        W87188  20.046   0.316   1.812
25735W        W87189  16.297  18.583  11.084
25736W        W87190   6.860   8.386   2.756
25737W        W87191  12.623   1.775  11.404
25738W        W87192  24.048  16.293  13.527
25739W        W87193  26.977  41.823   2.349
25740W        W87194   6.251  24.164  10.542
25741W        W87195   9.877   1.974   0.290
25742W        W87196  41.938   0.262  10.911
25743W        W87197  21.146  23.722   3.148
25744W        W87198  23.241   3.835  11.008
25745W        W87199   8.191  32.556   3.716
25746W        W87200  36.476  44.437   0.450
25747W        W87201  13.212  42.364  10.907
25748W        W87202   2.883  25.651   4.202
25749W        W87203  33.464  15.675  11.036
25750W        W87204  27.568   7.905  14.856
25751W        W87205   2.408  43.303  14.298
25752W        W87206   5.433  19.238  11.545
25753W        W87207  25.175  43.338   2.332
25754W        W87208  41.828  41.790   0.456
25755W        W87209  17.087  43.875   4.612
25756W        W87210  16.227   3.397   0.281
25757W        W87211  20.208  24.524  11.902
25758W        W87212  29.010  33.468  12.977
25759W        W87213   8.831  11.837  14.781
25760W        W87214  41.805   9.819  13.021
25761W        W87215  10.204   4.795   4.769
25762W        W87216  32.573  12.227  13.876
25763W        W87217  27.035  32.622   1.210
25764W        W87218  20.224  18.112  14.942
25765W        W87219   0.774  13.151   3.826
25766W        W87220  27.986  38.859   3.805
25767W        W87221  38.018  27.118   0.940
25768W        W87222   4.716  42.895   3.181
25769W        W87223   1.308  27.517   3.741
25770W        W87224  28.505   6.790  10.643
25771W        W87225  21.164  23.136   2.188
25772W        W87226  18.121  25.563   1.328
25773W        W87227  37.362  10.138  11.014
25774W        W87228  40.834   6.331   3.702
25775W        W87229   7.178  25.666   5.129
25776W        W87230  28.514  32.125  10.493
25777W        W87231  33.623   5.257   4.280
25778W        W87232   9.766  30.020  13.849
25779W        W87233  23.225  26.114   1.709
25780W        W87234  40.877  32.070   2.675
25781W        W87235  23.176  43.778   0.782
25782W        W87236   2.393  41.894  13.423
25783W        W87237  19.283   6.287   2.258
25784W        W87238  12.690  36.966  14.805
25785W        W87239   4.204   5.419  10.458
25786W        W87240  11.347   5.326   1.838
25787W        W87241  32.424  14.614  14.409
25788W        W87242  32.914  34.475  13.999
25789W        W87243   2.907  17.562  12.980
25790W        W87244  14.168   5.435   2.323
25791W        W87245  26.159  38.404  12.949
25792W        W87246   8.873  15.766  11.859
25793W        W87247   8.747  42.450  13.009
25794W        W87248   8.786  39.869   3.636
25795W        W87249  38.021   9.720  12.962
25796W        W87250   3.832  39.871   3.727
25797W        W87251  29.561  35.083   3.798
25798W        W87252  36.404  25.516   4.689
25799W        W87253  32.972  11.829  14.837
25800W        W87254  20.141   7.667   3.813
25801W        W87255   6.766  13.347  12.342
25802W        W87256   0.815   5.792   4.709
25803W        W87257  15.729  34.945   1.914
25804W        W87258  41.913   4.836  10.074
25805W        W87259  10.364  26.975  14.358
25806W        W87260   2.880  40.853   4.283
25807W        W87261  35.042  14.097  12.364
25808W        W87262  11.128  26.671  11.378
25809W        W87263   6.902  24.642  13.419
25810W        W87264  22.703   9.236   1.309
25811W        W87265  20.612  40.868   4.765
25812W        W87266  24.534  34.067   4.830
25813W        W87267  37.083   0.327   2.881
25814W        W87268  24.602  10.252   5.278
25815W        W87269  31.935  19.044  14.814
25816W        W87270  40.034  34.571  12.014
25817W        W87271  11.339   2.355   0.373
25818W        W87272  38.422  30.128  13.878
25819W        W87273  30.960  34.902  12.416
25820W        W87274   7.739   7.367  12.944
25821W        W87275  19.093  44.362   1.326
25822W        W87276  29.637   2.386  12.556
25823W        W87277  15.296  22.675  12.413
25824W        W87278  36.445  31.127  13.395
25825W        W87279  12.341  28.038  13.950
25826W        W87280  41.327   4.394  14.349
25827W        W87281  27.589  38.050   2.296
25828W        W87282  37.938  28.657   4.615
25829W        W87283  15.240  26.979  12.423
25830W        W87284  18.670  19.138   4.625
25831W        W87285   1.341  39.980  13.403
25832W        W87286  28.534  37.368   2.845
25833W        W87287  32.525  10.719   3.862
25834W        W87288  27.451   0.408  12.929
25835W        W87289   6.227  21.052   0.834
25836W        W87290  41.501  27.495   3.158
25837W        W87291  22.155  21.664   1.738
25838W        W87292  41.795  22.107  12.518
25839W        W87293  15.655  39.324  11.571
25840W        W87294   4.795  15.306  14.796
25841W        W87295  14.677  30.580  12.824
25842W        W87296  33.001  29.579   2.667
25843W        W87297  24.479  36.852  13.335
25844W        W87298  33.905   6.711  13.007
25845W        W87299   9.800  10.792  14.314
25846W        W87300  37.544  16.720  12.552
25847W        W87301  32.582   3.386   1.448
25848W        W87302  12.825   5.399  12.952
25849W        W87303  31.538  21.549  10.626
25850W        W87304  11.163  11.767  12.845
25851W        W87305  19.560   2.378   4.683
25852W        W87306  18.768   4.347   2.336
25853W        W87307   4.241  35.966  14.864
25854W        W87308  17.163  25.538   3.760
25855W        W87309  37.849  23.994  14.808
25856W        W87310  12.140  25.525  10.928
25857W        W87311  43.968  41.500  12.479
25858W        W87312  31.998  37.538  12.439
25859W        W87313  20.065   1.436  11.590
25860W        W87314  37.446  44.946   3.630
25861W        W87315  32.020  33.507  10.494
25862W        W87316  11.855  35.975   2.179
25863W        W87317   8.349  27.158   4.656
25864W        W87318  36.862  37.356   3.373
25865W        W87319  26.474  14.732  10.530
25866W        W87320   9.200  41.020   0.282
25867W        W87321  34.925  43.800   3.779
25868W        W87322  12.130  16.669   4.686
25869W        W87323  28.184  16.727  12.836
25870W        W87324  39.844  25.148  11.004
25871W        W87325  28.440   5.252   3.797
25872W        W87326  42.893  15.207  13.373
25873W        W87327   1.353  35.558  11.391
25874W        W87328   4.424   1.761  10.465
25875W        W87329  15.783  12.303  14.031
25876W        W87330  13.172  29.098  13.494
25877W        W87331  21.518  33.552  13.404
25878W        W87332   1.757  35.999  13.996
25879W        W87333  23.528  21.157   0.450
25880W        W87334  20.173  41.354  12.500
25881W        W87335  41.987  25.045  10.018
25882W        W87336  35.920  28.576  11.045
25883W        W87337  11.142  21.658   3.708
25884W        W87338  42.957  28.185   0.817
25885W        W87339   6.894  29.445  10.613
25886W        W87340  28.657  33.112   0.345
25887W        W87341  13.786  26.175  11.488
25888W        W87342  32.465  15.145  12.980
25889W        W87343   5.842  15.772   0.826
25890W        W87344  31.012   0.956   3.648
25891W        W87345  39.867  42.912   1.235
25892W        W87346  29.003  13.764  13.962
25893W        W87347  32.117   7.844   3.864
25894W        W87348  37.084   0.307  10.904
25895W        W87349  12.633  43.448  10.071
25896W        W87350  15.598  15.606  13.018
25897W        W87351  35.555  35.946  12.015
25898W        W87352   4.725   9.256  12.384
25899W        W87353   6.800  10.687   2.341
25900W        W87354  40.535   4.326  10.645
25901W        W87355  33.404  34.022   4.668
25902W        W87356   4.778  41.794   4.264
25903W        W87357  32.446  39.812  14.427
25904W        W87358  30.418  38.486   2.388
25905W        W87359  29.481  38.819  10.410
25906W        W87360  43.477  44.374   2.669
25907W        W87361  18.632  31.058  10.599
25908W        W87362   3.382   4.758  14.869
25909W        W87363  27.155   6.275  11.398
25910W        W87364  12.677   1.825   2.760
25911W        W87365  40.856  32.061   4.750
25912W        W87366  37.994  25.019   2.409
25913W        W87367  20.127   7.721   1.860
25914W        W87368  15.696  25.528  12.096
25915W        W87369  43.811  33.557   2.750
25916W        W87370   9.200  18.097   0.392
25917W        W87371   9.655  23.099   1.270
25918W        W87372   9.369  41.439   1.315
25919W        W87373  10.634  29.075  10.932
25920W        W87374  23.680  12.256  11.038
25921W        W87375  14.595  17.265  12.577
25922W        W87376  15.084   8.758   0.322
25923W        W87377  19.122  30.980  14.339
25924W        W87378  26.596  29.461  10.931
25925W        W87379  15.632  17.594   0.820
25926W        W87380  13.196  13.609  14.515
25927W        W87381  40.475  33.050  14.311
25928W        W87382  41.987  29.934  14.453
25929W        W87383   9.152  34.063   2.693
25930W        W87384  28.930  14.267  11.049
25931W        W87385  20.698   5.884   4.599
25932W        W87386  13.633  11.278   1.369
25933W        W87387   9.688  41.981  11.088
25934W        W87388  11.717  26.685   0.378
25935W        W87389  15.735  18.137   2.896
25936W        W87390  20.636  18.737   1.417
25937W        W87391  31.982  33.896  12.834
25938W        W87392   7.385   6.776  10.472
25939W        W87393  14.195  12.701  11.083
25940W        W87394  41.995  31.603  11.578
25941W        W87395   8.822  23.700   4.139
25942W        W87396   5.893  31.481   4.286
25943W        W87397  38.403   3.946   4.309
25944W        W87398  35.557  19.238   4.226
25945W        W87399   0.893  33.885   4.206
25946W        W87400   9.153  37.381  12.087
25947W        W87401  23.163  19.247  11.865
25948W        W87402  43.295  31.125   4.704
25949W        W87403   2.233  28.589  13.058
25950W        W87404  40.380  27.491   0.926
25951W        W87405   3.448  32.918  11.953
25952W        W87406  37.539  26.479   9.971
25953W        W87407   8.401  10.759   4.690
25954W        W87408  13.670  35.491  12.871
25955W        W87409  18.573   6.921  14.439
25956W        W87410  23.209  42.334  12.542
25957W        W87411  17.307   8.868   2.403
25958W        W87412  14.831   0.329   1.871
25959W        W87413  28.621  20.608   9.940
25960W        W87414  36.904  12.288  14.415
25961W        W87415   3.889  37.026   0.822
25962W        W87416  27.580   3.417   2.271
25963W        W87417  33.084  14.722   5.230
25964W        W87418  18.131  14.767   3.380
25965W        W87419  24.033  34.087  10.931
25966W        W87420  12.816  16.274   4.219
25967W        W87421  16.161  11.290   3.290
25968W        W87422  27.485   6.807  11.549
25969W        W87423  34.553  11.742  10.545
25970W        W87424  24.582  27.177  14.429
25971W        W87425  31.996  23.733   2.744
25972W        W87426   4.819  14.222  11.448
25973W        W87427  12.303  32.950   5.801
25974W        W87428  31.123  17.081  12.441
25975W        W87429  11.712  39.498  11.604
25976W        W87430  34.960  18.579   1.858
25977W        W87431  15.804  33.498   2.197
25978W        W87432  39.930  13.844   0.763
25979W        W87433  34.424   2.754  14.017
25980W        W87434  23.520  16.727  14.373
25981W        W87435  43.866  39.429  12.391
25982W        W87436  39.843  26.579  14.372
25983W        W87437  35.580  17.203   2.785
25984W        W87438  25.522  21.522  11.873
25985W        W87439  35.512  12.297   2.289
25986W        W87440   9.200  21.662   3.172
25987W        W87441  38.381  20.667   1.400
25988W        W87442  22.720  31.145  13.871
25989W        W87443  17.624  16.076  14.862
25990W        W87444  34.447  42.888  12.953
25991W        W87445   6.367  25.011   2.681
25992W        W87446  22.237   6.253  12.519
25993W        W87447  28.583   3.435   2.312
25994W        W87448   2.286  34.007   0.456
25995W        W87449  32.546  21.043   1.286
25996W        W87450  18.086  20.654  14.513
25997W        W87451  31.526  38.333   0.417
25998W        W87452  39.338  26.007  14.011
25999W        W87453  34.960  23.014   2.313
26000W        W87454  36.901  19.537   1.715
26001W        W87455  32.464  21.191  13.973
26002W        W87456   3.454   1.899  10.470
26003W        W87457   7.769  21.038   4.150
26004W        W87458  40.029  44.283   3.786
26005W        W87459  30.634  11.719   1.364
26006W        W87460  28.619  32.625   2.717
26007W        W87461  29.564  16.597  12.549
26008W        W87462  23.087  11.711  13.473
26009W        W87463  21.135   3.405   4.113
26010W        W87464   3.285  34.520   4.318
26011W        W87465  31.072   0.306   0.832
26012W        W87466  25.615  19.673  10.525
26013W        W87467  21.121   6.778   5.149
26014W        W87468  31.141  26.504  12.345
26015W        W87469   4.866  36.948   4.630
26016W        W87470   9.365  20.049   2.839
26017W        W87471  32.589   4.852   3.222
26018W        W87472  25.673   3.373   9.609
26019W        W87473   8.765   2.250   2.313
26020W        W87474  37.958  24.515   2.786
26021W        W87475  12.148   7.263  13.867
26022W        W87476   4.400  21.142   4.772
26023W        W87477  35.068  15.096   0.910
26024W        W87478  36.023  30.657   3.260
26025W        W87479   7.356  35.893  10.464
26026W        W87480  25.138  28.981  14.341
26027W        W87481  29.081   6.412  14.334
26028W        W87482  35.440   9.768   4.300
26029W        W87483  10.156  21.693  13.825
26030W        W87484   1.447  23.205   3.634
26031W        W87485  36.074  23.025   0.920
26032W        W87486   9.689   2.306  10.434
26033W        W87487  31.953  27.104  14.355
26034W        W87488  29.622  44.764  10.533
26035W        W87489   3.743  14.772  12.847
26036W        W87490  10.358  21.534  10.021
26037W        W87491  42.486  38.554  13.452
26038W        W87492  39.855  20.736   3.278
26039W        W87493  10.254  41.419  14.490
26040W        W87494  32.577  37.010   0.369
26041W        W87495   5.435  30.083   0.349
26042W        W87496  25.081  34.381   4.762
26043W        W87497  39.814   2.285   4.822
26044W        W87498  31.122   0.905  10.437
26045W        W87499  27.114   0.910   2.261
26046W        W87500   9.657  28.435  10.548
26047W        W87501  22.543   7.321   1.399
26048W        W87502  38.336  43.891   1.377
26049W        W87503  23.144  12.116  11.091
26050W        W87504  41.929  25.188  13.945
26051W        W87505  25.204  25.119   4.198
26052W        W87506  29.440   8.405  11.401
26053W        W87507  12.747  35.101   3.725
26054W        W87508   1.409  30.579  12.548
26055W        W87509  31.541  22.070   0.443
26056W        W87510   8.677  22.709  12.070
26057W        W87511  15.276  33.970   4.269
26058W        W87512  15.162  38.407   3.363
26059W        W87513  29.664  26.523   2.246
26060W        W87514   4.338   6.724  14.818
26061W        W87515  10.789   9.159   4.123
26062W        W87516  32.505  40.952   0.743
26063W        W87517  10.665  14.111   0.898
26064W        W87518   6.197  19.647   9.930
26065W        W87519   7.335   1.857   2.665
26066W        W87520  14.289   0.438  13.393
26067W        W87521   8.844  23.670  13.948
26068W        W87522  37.918  29.614  14.885
26069W        W87523  23.657  19.255  12.915
26070W        W87524   1.757   0.430   2.395
26071W        W87525   5.410  41.833  11.009
26072W        W87526   0.902  43.515  10.470
26073W        W87527   4.830   2.328   4.721
26074W        W87528  34.463  22.727  10.952
26075W        W87529   3.807  44.282  12.963
26076W        W87530  20.083   0.935  14.834
26077W        W87531  24.671  38.376   3.171
26078W        W87532  17.209  35.875   4.600
26079W        W87533  13.339  44.408   3.317
26080W        W87534  23.013  15.264  14.877
26081W        W87535   9.232  21.181   1.762
26082W        W87536   5.919  21.077   4.156
26083W        W87537  13.133   1.469   1.816
26084W        W87538   0.268  17.213  11.444
26085W        W87539  44.755  29.025   2.377
26086W        W87540   0.960  16.733   3.372
26087W        W87541  26.144  16.082   2.364
26088W        W87542   5.305   1.814  13.432
26089W        W87543   2.782  24.149   2.788
26090W        W87544  44.863  10.877  14.442
26091W        W87545  33.933   2.943  13.344
26092W        W87546   7.335  30.054   0.846
26093W        W87547  32.033  29.603  12.579
26094W        W87548   6.257  41.495  11.988
26095W        W87549  25.202  37.948  11.404
26096W        W87550   5.250   5.857   3.305
26097W        W87551  25.066  11.324  12.496
26098W        W87552  27.447  30.004  11.925
26099W        W87553   6.290  21.712  11.097
26100W        W87554  26.600  12.230  12.857
26101W        W87555  28.563  29.468   4.777
26102W        W87556   3.324  15.750  13.802
26103W        W87557  13.277  32.048  10.017
26104W        W87558  27.574  44.487  13.331
26105W        W87559  39.475  41.351  11.981
26106W        W87560   6.377  22.075   3.756
26107W        W87561  26.149  42.345   4.646
26108W        W87562  10.655  40.457   3.829
26109W        W87563  11.372  11.778  11.395
26110W        W87564   3.437  24.988   1.407
26111W        W87565   5.768  42.962   1.428
26112W        W87566   2.757  22.634  13.029
26113W        W87567  30.935  19.556   0.289
26114W        W87568  26.023  18.273  11.371
26115W        W87569  29.550  10.836   4.296
26116W        W87570   4.844  18.258  14.984
26117W        W87571  19.201  37.876  14.943
26118W        W87572   9.257  22.641   2.766
26119W        W87573  29.119  23.174  13.365
26120W        W87574  35.574   9.372  11.917
26121W        W87575  10.738  31.626  14.999
26122W        W87576  35.471   8.399  14.990
26123W        W87577  36.921  16.277   1.223
26124W        W87578  19.609  44.842   3.377
26125W        W87579   5.198   9.650  13.939
26126W        W87580  43.832  27.004   4.630
26127W        W87581  26.589  28.987   3.723
26128W        W87582  25.192  23.211  13.468
26129W        W87583  44.497  41.482  14.304
26130W        W87584  15.738  39.945   4.214
26131W        W87585  16.772  29.025   4.712
26132W        W87586  23.241   2.829   3.861
26133W        W87587  25.152   2.285  12.906
26134W        W87588  13.192  14.197  10.494
26135W        W87589   1.907  24.658   2.689
26136W        W87590  12.241  24.017   3.734
26137W        W87591  41.043   3.322  11.943
26138W        W87592  33.487  20.754   4.176
26139W        W87593   3.844  21.024   0.455
26140W        W87594   0.775  24.615  14.363
26141W        W87595   7.200  42.991   5.228
26142W        W87596   5.818  10.203   1.266
26143W        W87597  26.536  24.139  12.047
26144W        W87598  14.174  26.957   0.424
26145W        W87599   2.470   0.799  11.553
26146W        W87600  41.974  36.443   4.227
26147W        W87601  39.413   3.934  12.451
26148W        W87602  44.778  21.223   4.181
26149W        W87603  21.561  31.011   3.329
26150W        W87604   7.183  20.048  14.863
26151W        W87605   8.836   2.923  14.962
26152W        W87606   2.340  34.612  14.332
26153W        W87607  40.040  31.492  12.920
26154W        W87608  19.254  19.173   0.294
26155W        W87609  41.025  10.282   2.843
26156W        W87610   2.763  11.256   4.320
26157W        W87611  19.131  31.061  10.464
26158W        W87612  42.355  39.828   2.774
26159W        W87613  18.294   0.855   4.607
26160W        W87614  28.523  24.713   2.735
26161W        W87615  37.427  42.527  13.816
26162W        W87616   6.700   0.259   0.453
26163W        W87617   5.829  19.210  14.888
26164W        W87618  26.991  24.478  14.823
26165W        W87619  24.484  17.114  11.949
26166W        W87620  32.976  34.997   1.718
26167W        W87621  11.232  27.156  10.636
26168W        W87622  21.159  11.808   3.226
26169W        W87623  41.331  16.696   1.213
26170W        W87624  20.198  14.307   1.757
26171W        W87625  30.934  37.000   0.252
26172W        W87626  25.701  22.148  13.395
26173W        W87627  35.004  21.056   1.278
26174W        W87628  15.757  20.050   0.280
26175W        W87629  38.991  16.165   4.190
26176W        W87630   5.290   4.432   2.284
26177W        W87631   1.929  29.978   2.745
26178W        W87632  17.107  15.325  13.806
26179W        W87633   3.225   5.719   2.243
26180W        W87634  37.346  12.628  13.817
26181W        W87635  33.447   2.917   4.348
26182W        W87636  28.633   9.334  13.416
26183W        W87637  29.167   4.749  11.898
26184W        W87638   4.853  25.036  10.102
26185W        W87639   3.312  25.012  12.960
26186W        W87640  22.670  30.517   5.246
26187W        W87641  31.446   1.311  11.071
26188W        W87642  19.637  30.492  11.019
26189W        W87643  43.825   1.976  11.435
26190W        W87644   3.760  22.144  12.499
26191W        W87645  29.092  41.920   2.382
26192W        W87646  27.081  30.975  11.985
26193W        W87647  14.294  18.672  14.968
26194W        W87648  19.769  18.635  11.481
26195W        W87649  23.548  20.754  14.403
26196W        W87650   4.363  39.493  11.493
26197W        W87651  41.040  35.600  13.397
26198W        W87652  38.994  38.065   4.121
26199W        W87653  36.387  33.560   9.957
26200W        W87654  33.490  12.156   4.288
26201W        W87655  19.143   8.340  12.456
26202W        W87656  35.411  30.109   1.210
26203W        W87657  39.996  30.596   1.391
26204W        W87658  26.541  27.648   3.783
26205W        W87659  17.198   1.844  10.623
26206W        W87660   3.786   5.898   4.181
26207W        W87661  43.422  42.519  14.384
26208W        W87662   2.235   3.429  11.054
26209W        W87663  22.186  11.788  14.398
26210W        W87664  36.545  12.847  14.293
26211W        W87665  42.487   9.274   1.868
26212W        W87666  28.569  31.135  12.834
26213W        W87667  35.469  43.368  13.053
26214W        W87668  43.985  33.622   2.315
26215W        W87669  37.460  37.417   5.294
26216W        W87670  14.682   7.229   5.317
26217W        W87671  14.714  22.580   0.745
26218W        W87672   4.932   5.717  12.973
26219W        W87673  42.949  40.435   3.637
26220W        W87674  13.818  32.416  12.064
26221W        W87675  26.993  38.440  14.487
26222W        W87676  42.800  39.952  14.362
26223W        W87677  11.761  40.809  10.503
26224W        W87678  29.515  42.413  11.883
26225W        W87679   6.913  42.350  14.403
26226W        W87680  28.643  37.898   3.306
26227W        W87681   2.728  10.314  10.566
26228W        W87682  19.760  44.780  11.416
26229W        W87683   9.874   4.215   0.419
26230W        W87684  43.932  25.534   2.755
26231W        W87685  18.058  43.391   2.820
26232W        W87686  32.068   8.844   2.309
26233W        W87687  38.410   2.393   2.407
26234W        W87688  17.609  39.387   1.384
26235W        W87689   2.913   6.694   0.279
26236W        W87690  13.237  28.021   2.741
26237W        W87691  44.357  16.147  14.871
26238W        W87692  31.479  18.599  14.503
26239W        W87693  16.688  36.502  11.413
26240W        W87694  27.171   8.897  10.548
26241W        W87695  17.639  13.712   1.388
26242W        W87696  38.457  41.426  10.048
26243W        W87697   5.252   8.213  14.775
26244W        W87698  20.072  31.954  14.365
26245W        W87699   7.183  31.107   4.304
26246W        W87700   4.323  33.427   4.791
26247W        W87701  40.319  32.054  14.930
26248W        W87702  15.714  38.335   4.763
26249W        W87703   9.175  30.135  10.486
26250W        W87704  23.549  14.145  12.944
26251W        W87705  12.840  43.356   2.887
26252W        W87706  34.568  16.718  13.502
26253W        W87707  34.577  34.898   3.861
26254W        W87708  22.649   0.798  11.515
26255W        W87709  33.574  21.649   4.245
26256W        W87710  27.115  31.402  12.964
26257W        W87711  38.365   6.258   4.305
26258W        W87712  19.760  24.201   4.694
26259W        W87713  38.450  27.013   0.932
26260W        W87714  28.025  11.219  13.939
26261W        W87715   2.256  26.135   0.936
26262W        W87716  44.327  20.769   2.181
26263W        W87717  40.900   3.382  13.011
26264W        W87718   9.754  15.322  12.901
26265W        W87719  19.197  27.685  14.797
26266W        W87720  29.477  19.191   3.270
26267W        W87721  38.367  38.875  14.411
26268W        W87722  44.410   2.810  13.350
26269W        W87723  38.370  11.175   1.881
26270W        W87724  21.184  10.368   3.338
26271W        W87725  20.115  12.817   1.384
26272W        W87726   9.385  25.582   2.381
26273W        W87727  40.491  40.544  12.383
26274W        W87728  25.621  34.006  13.792
26275W        W87729  15.232   6.896  12.010
26276W        W87730  25.663  10.333  13.794
26277W        W87731  19.132  41.405   4.127
26278W        W87732  36.041  17.079   3.721
26279W        W87733   6.206  22.206   4.148
26280W        W87734  12.328  20.226   0.299
26281W        W87735  23.031   6.234   2.851
26282W        W87736  34.368  33.393  14.995
26283W        W87737  12.727  38.378   3.751
26284W        W87738  16.577  30.030  11.511
26285W        W87739  16.651  33.052   3.215
26286W        W87740  15.655  36.440   3.243
26287W        W87741  19.750  29.441   0.793
26288W        W87742  35.445  11.308  13.428
26289W        W87743  11.622  17.087   1.379
26290W        W87744  20.661  38.414   4.688
26291W        W87745   3.457  35.443  11.486
26292W        W87746   3.844  31.589  12.873
26293W        W87747  30.429  31.443  14.777
26294W        W87748  24.083  10.796   3.744
26295W        W87749  40.418  42.412  11.090
26296W        W87750  26.680   9.769  12.993
26297W        W87751  22.065  41.482   2.669
26298W        W87752  27.021   9.308  13.377
26299W        W87753  36.555  10.815  14.862
26300W        W87754  29.637   2.804  13.945
26301W        W87755  33.904  33.393   2.346
26302W        W87756   5.354   1.977   0.806
26303W        W87757  25.493  23.152   4.275
26304W        W87758   5.827   8.166  10.637
26305W        W87759  33.076  29.980  14.855
26306W        W87760  28.985  43.973   1.361
26307W        W87761  37.948  43.417  13.491
26308W        W87762  44.463  21.223   4.718
26309W        W87763  25.184   0.916   4.184
26310W        W87764  11.675  34.978   1.901
26311W        W87765  37.013  11.642  13.504
26312W        W87766  23.582  17.138   2.685
26313W        W87767  35.403   9.817   2.815
26314W        W87768  24.685  11.138   4.675
26315W        W87769   4.308  31.937  11.388
26316W        W87770   6.789  17.081  13.989
26317W        W87771   8.763   1.238   3.162
26318W        W87772  25.989  30.149  14.835
26319W        W87773  34.963   8.357  12.418
26320W        W87774  15.590  24.645  14.780
26321W        W87775  19.180  31.147   4.627
26322W        W87776  28.143   2.441   1.300
26323W        W87777  13.296   3.844   3.801
26324W        W87778  12.263  32.450  12.436
26325W        W87779  39.906  32.457  13.498
26326W        W87780  42.883  40.825   3.696
26327W        W87781  43.965   0.812  10.586
26328W        W87782  15.706   9.884   1.292
26329W        W87783  38.446  29.512   0.428
26330W        W87784  17.567  27.506  14.964
26331W        W87785  26.682   0.904   5.306
26332W        W87786   8.383  36.392   0.876
26333W        W87787  32.103  11.788  11.421
26334W        W87788  41.443  27.482  14.018
26335W        W87789  27.516   2.393   0.934
26336W        W87790   4.854  29.655   2.720
26337W        W87791  36.496  29.075  12.825
26338W        W87792  43.914   2.808  11.424
26339W        W87793  29.032  19.676  11.934
26340W        W87794  25.622  14.638   3.303
26341W        W87795  25.111  33.075   0.336
26342W        W87796  20.115  16.105   0.303
26343W        W87797  22.064  12.633  10.922
26344W        W87798  14.130  14.759   0.405
26345W        W87799   4.258  39.536  11.025
26346W        W87800   1.337  25.536   4.798
26347W        W87801   2.852  14.703  13.888
26348W        W87802   7.830  18.555   2.341
26349W        W87803   3.391  35.879  11.058
26350W        W87804  20.605  38.908  14.341
26351W        W87805  38.394   9.243   2.805
26352W        W87806  11.838  38.971   9.447
26353W        W87807  40.988   8.771  11.940
26354W        W87808  42.998  22.604   4.133
26355W        W87809  11.686   0.800   1.249
26356W        W87810  39.952   1.310   1.310
26357W        W87811  18.054  42.339  13.399
26358W        W87812  30.109   4.224   9.500
26359W        W87813  11.252  20.205  11.441
26360W        W87814   8.838  28.137  12.372
26361W        W87815  12.668  24.172  14.964
26362W        W87816  18.669  20.737   0.356
26363W        W87817  19.176  36.389  10.948
26364W        W87818  23.605  42.026   1.308
26365W        W87819   9.692  42.007  13.870
26366W        W87820   8.333  16.093  12.985
26367W        W87821  36.359  43.456   0.341
26368W        W87822   3.219   4.699  11.389
26369W        W87823  41.442  12.262  11.408
26370W        W87824  41.533  34.385  11.407
26371W        W87825  37.340   6.758   0.348
26372W        W87826  15.739  14.175  12.077
26373W        W87827  23.998  16.303   0.795
26374W        W87828   5.271   0.957   1.706
26375W        W87829  33.392  12.350   2.202
26376W        W87830  40.329   0.930  14.988
26377W        W87831  36.849  13.843  14.276
26378W        W87832  16.203  34.550   2.817
26379W        W87833  25.515  21.019  10.963
26380W        W87834  33.887  11.703  12.974
26381W        W87835  19.617  38.413   1.269
26382W        W87836  34.397   2.423   2.269
26383W        W87837  16.596  37.841  12.344
26384W        W87838  16.587   0.825  14.792
26385W        W87839   1.267  27.469  10.642
26386W        W87840  27.634  29.573  12.831
26387W        W87841   8.381  29.123  12.066
26388W        W87842  26.624  12.122  14.847
26389W        W87843   8.264  21.726  12.382
26390W        W87844  29.046  19.772   1.217
26391W        W87845  36.860  20.073  14.853
26392W        W87846  16.734   7.309   0.323
26393W        W87847   6.767  11.304  12.490
26394W        W87848  40.441  33.499   1.788
26395W        W87849  17.796   3.884   1.215
26396W        W87850  22.626  15.724  11.953
26397W        W87851  26.202  14.100   2.813
26398W        W87852  26.175  23.208  11.574
26399W        W87853  34.060  26.970   1.242
26400W        W87854  37.486  19.040  10.498
26401W        W87855  16.736   6.345   1.758
26402W        W87856  23.535   5.222   0.732
26403W        W87857  28.975  32.587   0.265
26404W        W87858   2.390  19.067  13.509
26405W        W87859  32.552   3.945  11.088
26406W        W87860   3.762   5.884   3.332
26407W        W87861  34.037   2.278  12.019
26408W        W87862  33.484  40.451   2.400
26409W        W87863  22.537  11.320   4.811
26410W        W87864  34.590  11.237  14.770
26411W        W87865  29.450  14.327  11.398
26412W        W87866  38.906  40.409  14.337
26413W        W87867  25.492  23.691  13.932
26414W        W87868  38.886   1.297   4.140
26415W        W87869  10.689  37.515  14.002
26416W        W87870  43.964  18.726  14.793
26417W        W87871  23.094  26.992  14.851
26418W        W87872   4.844  12.640  13.448
26419W        W87873  19.669  17.280   0.441
26420W        W87874  23.539  19.592  13.347
26421W        W87875  36.498  41.998  12.579
26422W        W87876  18.634   1.258   0.901
26423W        W87877   3.269  31.562  13.953
26424W        W87878   8.356  41.919   1.290
26425W        W87879  10.263  32.032  14.921
26426W        W87880   3.394  16.225   3.642
26427W        W87881  28.067   9.663  14.404
26428W        W87882  39.884  11.361  14.891
26429W        W87883  13.337  27.497   3.153
26430W        W87884  36.999  27.167   0.401
26431W        W87885  31.079  31.998  13.809
26432W        W87886  35.984   6.906  14.814
26433W        W87887   8.373  33.393   1.890
26434W        W87888   1.362   8.390   4.122
26435W        W87889  29.920  32.981  10.156
26436W        W87890   6.202  29.619  10.411
26437W        W87891  31.545  40.963   0.415
26438W        W87892  38.872   2.739  12.554
26439W        W87893  44.968   8.724  12.451
26440W        W87894   2.833  29.055  14.276
26441W        W87895  35.895   3.867   1.431
26442W        W87896  31.410   5.705   2.881
26443W        W87897  22.557  38.064  12.508
26444W        W87898  39.525  17.707   0.801
26445W        W87899  41.794  31.559  14.872
26446W        W87900  15.798  41.316   2.723
26447W        W87901  30.984   5.808  12.016
26448W        W87902  31.622  16.105  12.032
26449W        W87903   0.956  27.581   4.628
26450W        W87904   3.865  40.814  12.400
26451W        W87905   0.982  33.902   4.837
26452W        W87906  33.898  40.871  11.931
26453W        W87907   3.237  14.832  14.302
26454W        W87908   8.886  39.843   0.445
26455W        W87909  38.484  13.630   4.775
26456W        W87910   4.877  25.142   4.195
26457W        W87911  16.706  16.663  12.439
26458W        W87912   1.974  37.409   2.198
26459W        W87913  41.936  32.084  10.001
26460W        W87914  14.169  33.912  11.424
26461W        W87915  25.667  22.163  14.290
26462W        W87916  43.452   9.761   0.291
26463W        W87917  13.152  39.870  12.094
26464W        W87918   1.817  42.387   3.340
26465W        W87919  34.432  24.632  13.852
26466W        W87920  29.426   7.870  11.088
26467W        W87921  29.952  10.647  13.983
26468W        W87922  10.775  12.251  12.053
26469W        W87923   2.345  11.144  13.815
26470W        W87924  18.285   1.963  11.010
26471W        W87925  13.839   3.288   4.115
26472W        W87926  35.996   4.443   4.726
26473W        W87927   8.358  40.890   0.431
26474W        W87928  11.813   0.950   4.346
26475W        W87929   8.176  32.522  13.952
26476W        W87930  27.106  30.438  14.780
26477W        W87931  16.640   3.227   0.483
26478W        W87932  34.986  42.799   1.746
26479W        W87933  39.821  23.603   2.808
26480W        W87934  11.201  39.992  12.857
26481W        W87935  32.537  19.726  11.597
26482W        W87936   6.796   6.699  12.950
26483W        W87937  44.921  16.178   1.880
26484W        W87938   9.805  38.348  13.799
26485W        W87939  38.824  12.801   4.239
26486W        W87940  32.895  44.288   3.198
26487W        W87941  44.974   1.317   1.436
26488W        W87942  37.988  13.781   2.383
26489W        W87943  20.585  26.558   4.147
26490W        W87944  24.039   7.841   2.726
26491W        W87945  24.042  18.088  13.348
26492W        W87946  44.875  44.006  14.993
26493W        W87947   1.411  41.466  11.911
26494W        W87948   4.750  22.247   4.737
26495W        W87949  28.445   4.290  14.905
26496W        W87950  20.198   8.793   5.093
26497W        W87951  16.588  22.640   0.391
26498W        W87952   9.292   5.201   2.214
26499W        W87953   6.288   7.851  14.852
26500W        W87954  41.436  38.965  12.511
26501W        W87955  29.958   2.725   5.137
26502W        W87956   1.363  10.368  14.450
26503W        W87957  25.062  36.052   1.926
26504W        W87958  15.823  18.256  11.394
26505W        W87959   0.941  28.100  10.452
26506W        W87960   0.822  13.732   2.401
26507W        W87961  29.169   3.767   3.656
26508W        W87962  14.266  43.441   5.268
26509W        W87963   4.388   6.376  14.397
26510W        W87964  29.934  31.490  13.473
26511W        W87965  25.119   1.834   3.822
26512W        W87966  14.634   1.767   0.855
26513W        W87967  26.694   6.874   1.897
26514W        W87968  20.551   4.717   3.260
26515W        W87969  28.968  10.350   1.391
26516W        W87970  14.727   2.288   3.152
26517W        W87971  11.180  24.662  11.127
26518W        W87972  19.651  20.644  11.971
26519W        W87973  23.985   7.890  11.598
26520W        W87974   4.836  28.666  13.545
26521W        W87975   0.401  40.008  12.053
26522W        W87976  43.969  41.947   2.800
26523W        W87977  36.915  21.753  11.556
26524W        W87978   8.683   4.903  13.930
26525W        W87979   7.764  10.281   0.864
26526W        W87980  11.816  23.154  13.878
26527W        W87981   9.678   0.855  10.562
26528W        W87982  28.933  36.398  12.515
26529W        W87983   7.843   5.430  13.861
26530W        W87984  30.072  37.348  14.382
26531W        W87985  19.737  29.145   1.727
26532W        W87986  13.257  44.982  13.982
26533W        W87987   6.813   3.804  13.339
26534W        W87988  14.711  31.579   1.327
26535W        W87989   3.371  37.470   0.736
26536W        W87990  35.983  19.057  14.951
26537W        W87991   8.742  44.432  14.869
26538W        W87992   9.665  19.122   0.951
26539W        W87993  27.009   0.778  14.380
26540W        W87994   0.253  20.574   2.868
26541W        W87995   4.440  25.598  12.402
26542W        W87996  40.391  42.824  14.014
26543W        W87997  43.385   5.706   3.724
26544W        W87998  19.225  38.891   4.223
26545W        W87999   0.314  44.494   2.789
26546W        W88000  42.332  31.621  13.461
26547W        W88001  35.375   1.770   4.747
26548W        W88002   3.239  10.143   1.233
26549W        W88003  26.098  44.292   1.322
26550W        W88004  21.240  42.323   0.735
26551W        W88005  15.321   1.306  12.041
26552W        W88006  19.613  36.493   1.710
26553W        W88007  35.516  33.912   3.294
26554W        W88008  15.786   7.368  14.880
26555W        W88009  29.485  30.650   2.787
26556W        W88010  40.411   6.207   0.834
26557W        W88011  26.575   6.255  11.465
26558W        W88012  38.872  32.987   4.275
26559W        W88013  41.826  42.504  10.008
26560W        W88014   9.848  37.428   0.246
26561W        W88015  27.955  14.268  10.428
26562W        W88016  23.183  15.772   4.239
26563W        W88017  31.631   8.776   0.738
26564W        W88018   5.849  21.123   0.308
26565W        W88019  38.951  25.168  12.945
26566W        W88020  13.200  16.717   3.716
26567W        W88021  25.967  10.649   2.670
26568W        W88022  26.142  17.744   3.703
26569W        W88023  41.458  12.158  13.307
26570W        W88024  13.150  40.417  13.017
26571W        W88025  14.782  10.839   2.372
26572W        W88026   0.378  43.466  11.516
26573W        W88027   0.451  38.834   0.370
26574W        W88028  44.316  29.095   4.302
26575W        W88029  29.512  10.188  10.942
26576W        W88030  18.275   7.348  13.821
26577W        W88031   9.160  37.551   0.472
26578W        W88032   0.925  34.460  12.451
26579W        W88033  30.095  40.904  12.440
26580W        W88034  15.623  27.623   2.361
26581W        W88035  37.490   2.242  13.413
26582W        W88036   7.233  35.920  14.332
26583W        W88037   9.361   6.325   4.704
26584W        W88038  21.617  16.205   1.771
26585W        W88039  15.740  24.155  13.373
26586W        W88040  14.591   2.837  11.443
26587W        W88041   1.778  41.876  10.487
26588W        W88042  35.583  22.709   4.823
26589W        W88043  17.720  44.927   1.924
26590W        W88044  16.714  24.125   4.269
26591W        W88045  43.901  13.299   0.787
26592W        W88046  27.601  12.241   4.610
26593W        W88047   2.343   8.697   3.647
26594W        W88048  23.242  20.736  12.441
26595W        W88049  11.274  41.823  13.494
26596W        W88050  18.782  43.790   1.890
26597W        W88051  34.438  35.410  13.993
26598W        W88052  44.906  11.711   1.933
26599W        W88053  41.326  22.019   4.824
26600W        W88054  19.553  30.915   1.877
26601W        W88055  22.616  39.843  12.468
26602W        W88056  24.050  27.588   2.823
26603W        W88057  43.353   1.854  10.639
26604W        W88058  11.337  31.023  13.453
26605W        W88059  35.011   9.302  12.982
26606W        W88060   7.380   2.448  13.974
26607W        W88061  18.151   0.776  11.408
26608W        W88062   0.934  43.831  14.955
26609W        W88063  42.842  22.666   2.788
26610W        W88064  13.138  37.534   4.190
26611W        W88065  28.619  30.632  14.809
26612W        W88066  19.741  18.196  12.380
26613W        W88067  41.314   6.250  13.013
26614W        W88068  44.961  39.488   2.749
26615W        W88069  10.144  43.429  11.977
26616W        W88070  19.238   0.466   2.419
26617W        W88071   0.770  16.133   3.305
26618W        W88072  38.819  18.719  11.002
26619W        W88073   9.334  35.010  12.081
26620W        W88074  39.021  44.445   9.949
26621W        W88075  30.571  22.106   4.271
26622W        W88076   6.251   2.380  10.478
26623W        W88077  35.451  37.034   3.805
26624W        W88078   0.466   5.853   1.226
26625W        W88079  17.702   2.784  11.569
26626W        W88080   3.295  18.579   5.214
26627W        W88081  29.927  20.556  11.427
26628W        W88082   6.856  30.008  10.564
26629W        W88083  33.058   9.662   0.802
26630W        W88084   9.385   9.757  12.411
26631W        W88085  11.245   2.234   3.340
26632W        W88086  33.031  20.524  12.444
26633W        W88087  34.059  18.549  13.356
26634W        W88088   3.422  13.813  14.830
26635W        W88089  39.041   1.831  13.053
26636W        W88090   6.903   8.224  14.365
26637W        W88091  21.044  19.673   0.278
26638W        W88092  22.076  20.714  12.545
26639W        W88093   0.766  35.048   4.119
26640W        W88094  33.567  21.641  14.302
26641W        W88095  41.833  10.249  11.065
26642W        W88096  21.108  43.858   4.243
26643W        W88097  40.389   6.756   3.312
26644W        W88098  34.084  32.558  11.517
26645W        W88099  39.523  10.334   3.669
26646W        W88100  18.664   5.831   3.696
26647W        W88101   4.829  38.015   4.703
26648W        W88102  16.123   3.824  12.032
26649W        W88103  23.061   5.322  11.972
26650W        W88104  29.606  32.930  14.282
26651W        W88105  41.461  41.913   0.427
26652W        W88106   9.302  38.880  13.525
26653W        W88107  18.213   5.837  13.884
26654W        W88108   9.267  37.965  13.350
26655W        W88109  16.254  25.086  14.835
26656W        W88110  23.666  13.699  10.934
26657W        W88111  36.498   9.325  13.915
26658W        W88112  17.571  43.308   0.367
26659W        W88113  27.467  37.554   2.229
26660W        W88114  29.152   9.864   4.131
26661W        W88115  41.996  25.472  10.507
26662W        W88116   3.769  31.061   4.137
26663W        W88117  11.712  30.063  14.782
26664W        W88118  25.083  14.171   0.950
26665W        W88119  13.706   3.885   2.402
26666W        W88120  35.931  24.987   1.280
26667W        W88121  33.614  16.681  11.856
26668W        W88122  31.929  41.479   2.871
26669W        W88123  14.748  43.297  14.361
26670W        W88124  11.689  34.511  11.429
26671W        W88125  26.173  36.416  14.493
26672W        W88126  44.843  10.247  13.808
26673W        W88127  19.088  44.329  12.970
26674W        W88128  24.628  34.014   3.327
26675W        W88129   0.780  17.670  11.557
26676W        W88130   7.296  43.018  12.835
26677W        W88131  36.574  27.635   1.422
26678W        W88132  15.099   2.761  14.895
26679W        W88133  22.563   6.821  10.045
26680W        W88134  39.960  23.578  13.017
26681W        W88135  30.948  26.027   1.714
26682W        W88136  15.282  37.554  10.619
26683W        W88137   0.433  11.713  12.992
26684W        W88138  23.131  10.211   0.248
26685W        W88139  35.592  42.922  12.517
26686W        W88140  43.445  24.626  10.469
26687W        W88141  41.987  28.176  10.480
26688W        W88142  15.727  26.027   2.780
26689W        W88143  28.132  24.213  13.328
26690W        W88144  41.861  15.809  14.873
26691W        W88145  22.551  30.551   2.714
26692W        W88146  42.933  25.088   3.270
26693W        W88147  16.114   2.906  11.870
26694W        W88148  41.476  35.463  14.410
26695W        W88149  24.147  10.372  10.605
26696W        W88150  11.746  23.611   4.299
26697W        W88151  37.966  19.261   1.415
26698W        W88152  40.326   9.171   4.205
26699W        W88153  27.125   2.953  12.934
26700W        W88154  24.201   8.808   3.684
26701W        W88155  24.694   2.335  13.369
26702W        W88156  28.992  15.783   0.731
26703W        W88157  34.989  17.587   2.416
26704W        W88158   8.260  23.600  12.022
26705W        W88159  11.743  19.279  14.409
26706W        W88160  25.038  17.761  11.411
26707W        W88161  28.466  10.177   0.430
26708W        W88162  36.945  44.869  13.986
26709W        W88163  11.147  40.452  13.980
26710W        W88164  10.648  33.998  12.018
26711W        W88165   5.196  12.813   3.148
26712W        W88166  30.072  28.987  14.986
26713W        W88167  15.325   0.466   2.218
26714W        W88168  28.468  24.673   5.204
26715W        W88169  21.093   0.424  12.969
26716W        W88170   9.387  40.863   3.817
26717W        W88171  21.622  20.644   4.155
26718W        W88172  18.109  32.044  14.839
26719W        W88173   5.817  10.278  12.844
26720W        W88174  24.178  39.024  12.405
26721W        W88175  10.827   3.792   2.901
26722W        W88176  22.567  25.560   3.288
26723W        W88177  16.245  16.717  14.937
26724W        W88178   7.851  35.096   3.779
26725W        W88179  30.597  37.522  12.474
26726W        W88180  16.688   6.743  14.353
26727W        W88181  44.954  23.008  13.386
26728W        W88182  25.509   2.752   4.776
26729W        W88183   2.757  26.093  10.443
26730W        W88184   1.320   6.759  12.888
26731W        W88185  36.057  11.156  13.870
26732W        W88186  20.029  44.833   0.754
26733W        W88187  16.710  37.563   1.855
26734W        W88188  36.945   8.854   5.224
26735W        W88189  26.181  15.128   1.385
26736W        W88190  32.998  18.295   1.213
26737W        W88191  13.329   1.358  11.396
26738W        W88192  13.184  17.221  14.390
26739W        W88193   0.890   8.305   1.719
26740W        W88194  35.397  27.009  10.913
26741W        W88195  34.046  43.307   4.325
26742W        W88196  14.229   7.832  13.539
26743W        W88197  23.602  38.337  10.938
26744W        W88198  38.940   4.923  11.433
26745W        W88199  25.615  18.272   3.356
26746W        W88200  39.851  28.604  12.958
26747W        W88201   8.712   0.862  13.441
26748W        W88202  29.107  25.668  12.072
26749W        W88203  42.807  20.256   3.848
26750W        W88204  39.490  29.509   4.707
26751W        W88205  34.049   1.843   0.730
26752W        W88206  14.164  27.191   1.231
26753W        W88207   8.325  36.868  11.991
26754W        W88208  32.466  36.399  11.479
26755W        W88209  32.597  36.030   3.694
26756W        W88210  14.810  28.663   3.293
26757W        W88211  31.154  29.604   4.297
26758W        W88212  38.400   9.769  13.984
26759W        W88213  35.570  17.614  13.959
26760W        W88214  32.538   9.806   2.392
26761W        W88215  44.846  13.324   2.286
26762W        W88216   4.294  44.926  12.056
26763W        W88217  30.568  43.485  12.921
26764W        W88218  30.921  14.119  14.468
26765W        W88219   4.430   6.293  13.794
26766W        W88220  44.318  42.442  10.626
26767W        W88221  30.558  18.562  14.305
26768W        W88222  33.543  12.643   0.392
26769W        W88223   4.258   1.350  12.856
26770W        W88224  38.411  15.113   3.161
26771W        W88225  23.209  20.651   0.751
26772W        W88226   7.377  29.592   4.755
26773W        W88227  21.231   2.361   3.310
26774W        W88228  25.528   4.928  13.046
26775W        W88229  25.176   8.161   4.206
26776W        W88230  43.842  25.568   1.833
26777W        W88231  25.057  40.496   5.273
26778W        W88232  21.172  13.634  12.499
26779W        W88233   9.249  44.837  12.014
26780W        W88234  37.834   9.689   4.256
26781W        W88235  42.363   4.900  10.563
26782W        W88236   1.776  39.956  10.515
26783W        W88237   2.954  36.478  14.807
26784W        W88238   7.281   4.372  11.934
26785W        W88239   3.862   7.899  13.401
26786W        W88240  21.685  20.712  12.018
26787W        W88241   2.860   8.846   3.374
26788W        W88242  24.204   2.320   0.393
26789W        W88243  40.394  27.068   2.675
26790W        W88244  12.619  35.402   4.171
26791W        W88245  28.955   7.215  10.482
26792W        W88246  43.431  29.481  14.391
26793W        W88247  18.784  34.561  12.518
26794W        W88248  12.700   4.440  12.007
26795W        W88249  29.637  41.503   3.317
26796W        W88250  18.207   0.984   2.775
26797W        W88251  17.624   5.294  13.930
26798W        W88252  24.092   7.332   0.286
26799W        W88253  39.457  31.419  11.105
26800W        W88254  12.303  12.246   0.757
26801W        W88255  15.138  36.945   1.350
26802W        W88256   2.253  37.553  11.056
26803W        W88257   7.400  15.654   3.207
26804W        W88258  16.776  41.425   3.311
26805W        W88259   3.220  19.237  12.500
26806W        W88260  20.089   8.721  11.384
26807W        W88261  10.330   3.932  10.564
26808W        W88262  43.418  16.706  14.494
26809W        W88263  30.565  17.208  13.474
26810W        W88264  21.149  43.479   3.362
26811W        W88265  44.394   0.795  14.877
26812W        W88266  28.167  34.514   5.235
26813W        W88267  37.909  17.641  13.385
26814W        W88268  28.089   5.388   0.785
26815W        W88269  14.121  32.583  14.960
26816W        W88270  20.715   9.300   2.786
26817W        W88271  38.983   3.229   4.274
26818W        W88272   4.398  26.027  10.563
26819W        W88273  30.632  24.627   2.255
26820W        W88274  19.060  17.208   0.750
26821W        W88275   2.906  42.301  12.545
26822W        W88276  16.221  29.655  10.592
26823W        W88277  24.101  34.067  12.444
26824W        W88278  18.208  16.256  14.885
26825W        W88279  32.396  12.177   3.198
26826W        W88280  39.360  20.593   0.270
26827W        W88281  30.483  11.643   3.782
26828W        W88282  28.549  22.593   0.773
26829W        W88283  44.915  41.036   0.872
26830W        W88284  27.158  37.493  12.475
26831W        W88285  30.162  29.096  10.413
26832W        W88286  33.049  31.531  11.046
26833W        W88287  34.462  12.636   4.198
26834W        W88288  41.376  26.017   3.752
26835W        W88289   4.360  27.629  12.993
26836W        W88290  34.442  20.080  13.944
26837W        W88291  31.621  41.369   0.802
26838W        W88292   9.197   2.922   0.478
26839W        W88293   8.174   3.337  13.380
26840W        W88294  23.680  14.800   1.845
26841W        W88295   3.353   7.672   0.445
26842W        W88296  10.275   4.450  13.954
26843W        W88297  37.410  14.114  10.544
26844W        W88298  32.080   4.231   4.614
26845W        W88299  12.785   6.274   4.649
26846W        W88300  31.480   5.787  12.456
26847W        W88301  28.436   0.340   2.363
26848W        W88302   2.767  38.448   2.682
26849W        W88303  39.393  43.884   3.318
26850W        W88304  20.712   1.325   1.933
26851W        W88305   9.866   9.830   1.740
26852W        W88306  29.479  22.579   0.925
26853W        W88307  27.049   1.760  13.310
26854W        W88308  37.981  31.493   1.337
26855W        W88309  13.809   1.822   4.672
26856W        W88310  40.526  21.672  12.042
26857W        W88311   1.772  25.184   4.665
26858W        W88312  36.531  17.081  10.146
26859W        W88313  27.160  10.300  11.601
26860W        W88314  39.429   3.305  10.591
26861W        W88315   5.365  39.925  14.926
26862W        W88316  29.125  20.642   1.786
26863W        W88317   5.743   1.795  14.486
26864W        W88318  40.357   9.370   0.320
26865W        W88319  15.227  40.316   2.395
26866W        W88320   2.425   6.228  11.954
26867W        W88321   5.896  15.297  11.862
26868W        W88322  13.808  41.027   4.236
26869W        W88323  13.169  34.934   5.264
26870W        W88324   9.779   0.459   0.779
26871W        W88325   3.763  19.733   4.797
26872W        W88326  12.121  14.210  13.042
26873W        W88327  30.477   6.213   2.810
26874W        W88328  25.576   4.924  10.920
26875W        W88329   4.262  36.542  13.350
26876W        W88330   7.241   7.195   0.770
26877W        W88331   6.755   1.887  11.517
26878W        W88332  22.744  36.930  14.903
26879W        W88333  26.124  14.779   3.340
26880W        W88334   8.738  44.905  11.489
26881W        W88335  22.235  14.213  14.826
26882W        W88336  16.752  17.615   3.316
26883W        W88337  19.135  42.813   1.746
26884W        W88338  16.810  25.484   1.777
26885W        W88339  20.573  15.773  12.390
26886W        W88340  16.598   4.869   2.371
26887W        W88341  15.240  16.721   0.373
26888W        W88342  14.761   0.285  14.979
26889W        W88343  22.563  30.024  14.802
26890W        W88344  17.265   9.674   3.840
26891W        W88345   3.283  22.066  10.631
26892W        W88346  38.989   2.886   0.301
26893W        W88347  17.158   1.238  12.417
26894W        W88348   3.729   0.944   1.366
26895W        W88349  36.494  33.118   2.790
26896W        W88350  34.038  27.940   0.283
26897W        W88351  34.053  40.504   3.758
26898W        W88352  30.051  25.053   4.733
26899W        W88353  27.011   4.894   5.118
26900W        W88354  38.521  42.919   4.139
26901W        W88355  31.969  27.552  12.010
26902W        W88356   0.855  31.422  11.872
26903W        W88357   1.433  15.714   4.678
26904W        W88358  14.104  31.468   1.249
26905W        W88359   3.788   5.325   4.274
26906W        W88360  24.543  17.716   0.887
26907W        W88361  42.994  27.083  13.893
26908W        W88362  21.115   7.352   1.386
26909W        W88363   1.317   8.254  14.903
26910W        W88364  44.483   8.837  11.480
26911W        W88365  37.069  28.551  11.406
26912W        W88366  37.988  10.799  14.863
26913W        W88367   9.705  38.345   0.297
26914W        W88368  33.528   3.254  13.355
26915W        W88369  27.556  34.885  14.805
26916W        W88370  15.199  31.911   1.718
26917W        W88371  40.481   7.406  14.327
26918W        W88372  18.212   3.805   2.225
26919W        W88373  20.541  22.501   0.370
26920W        W88374  42.838  35.370   2.833
26921W        W88375  19.050  41.918  14.791
26922W        W88376  25.008   0.935  11.984
26923W        W88377  23.086  21.700   1.222
26924W        W88378   9.219  32.509   3.845
26925W        W88379  38.999  21.568  11.032
26926W        W88380  32.602  27.046  10.643
26927W        W88381  10.875  14.820   3.151
26928W        W88382  12.627  28.959  14.276
26929W        W88383  34.911  13.788  10.926
26930W        W88384   3.713  21.115  13.816
26931W        W88385  36.881   2.841   1.799
26932W        W88386  17.700  13.177  11.922
26933W        W88387   8.401  13.794   3.239
26934W        W88388  11.779  12.813  12.527
26935W        W88389  38.453  18.567  11.525
26936W        W88390  22.738  35.055   0.949
26937W        W88391  42.910  26.083  14.805
26938W        W88392  37.039  37.835   0.323
26939W        W88393  42.815  36.472  13.307
26940W        W88394  29.930  42.866  14.403
26941W        W88395  22.248  10.245   3.730
26942W        W88396   7.822  16.274  12.345
26943W        W88397  18.748  28.187   0.461
26944W        W88398  26.204  16.767  11.412
26945W        W88399  30.943  14.169   3.232
26946W        W88400   6.238  29.119   2.381
26947W        W88401   4.318  33.066   1.783
26948W        W88402  13.247  15.779   2.282
26949W        W88403  27.661   9.184  13.351
26950W        W88404  34.406  44.847  13.502
26951W        W88405  14.646   5.336   1.695
26952W        W88406   1.928  21.754   1.817
26953W        W88407  25.200  16.131  11.960
26954W        W88408  41.516   6.188  10.432
26955W        W88409   2.742  31.073  10.573
26956W        W88410  12.711   0.290   4.698
26957W        W88411  31.100  39.935   4.319
26958W        W88412  25.658  27.455  11.434
26959W        W88413  38.326   3.347   1.324
26960W        W88414  16.660  14.710  12.972
26961W        W88415   3.432   3.895  13.358
26962W        W88416  43.982  31.908  12.522
26963W        W88417   4.711  21.161   3.822
26964W        W88418  27.510   8.810  11.056
26965W        W88419   7.686  21.050   2.788
26966W        W88420  37.025  29.467   3.739
26967W        W88421  28.571  22.022   9.539
26968W        W88422   9.164  25.149  11.898
26969W        W88423  23.643   3.436   0.837
26970W        W88424  12.243  44.997  13.307
26971W        W88425  29.476  34.962  14.807
26972W        W88426  36.485  43.814   3.375
26973W        W88427  39.837  34.590  14.507
26974W        W88428  37.938  16.086  14.363
26975W        W88429   1.398  26.006   2.283
26976W        W88430  17.105  20.094   4.798
26977W        W88431  33.923  25.166   3.375
26978W        W88432  16.099  21.722   3.667
26979W        W88433   4.226  31.456  14.999
26980W        W88434  15.271  35.859   1.722
26981W        W88435  26.042  33.590   3.146
26982W        W88436  38.935  11.141  10.508
26983W        W88437  33.976   0.779   2.896
26984W        W88438  14.148  44.454   2.289
26985W        W88439   6.719   0.925  11.012
26986W        W88440  37.875   5.376  14.507
26987W        W88441  21.094   1.942   1.229
26988W        W88442   0.767  24.976   4.154
26989W        W88443   6.771  31.103   3.182
26990W        W88444  16.782  25.064   0.398
26991W        W88445  44.950  18.070  11.872
26992W        W88446  19.113   4.819   0.727
26993W        W88447   3.319  22.034  13.836
26994W        W88448   8.254  42.283   0.846
26995W        W88449  44.908  26.535   0.795
26996W        W88450  17.218  39.354   5.261
26997W        W88451  20.190  33.622   1.298
26998W        W88452  14.126  13.137  13.420
26999W        W88453  39.507  22.130   1.423
27000W        W88454  10.229  19.689  13.400
27001W        W88455  17.114  41.401  13.858
27002W        W88456  14.615  39.051   5.668
27003W        W88457  41.933  16.119   3.372
27004W        W88458  40.020  38.037  13.526
27005W        W88459  34.387  33.970   0.275
27006W        W88460  13.126  19.683   1.775
27007W        W88461  44.466  32.402  12.963
27008W        W88462  18.142  17.242   4.762
27009W        W88463  30.601  38.349  11.431
27010W        W88464   0.904  35.931   4.272
27011W        W88465  13.688   9.225   1.722
27012W        W88466  13.268  27.572   0.729
27013W        W88467  16.183  21.742  10.499
27014W        W88468  23.990   0.800   3.688
27015W        W88469  33.986  43.884   1.816
27016W        W88470  25.989  24.586   9.923
27017W        W88471  27.161  20.610   0.408
27018W        W88472  44.874  36.354   0.823
27019W        W88473   7.730  18.566   3.284
27020W        W88474   1.919  14.327   1.697
27021W        W88475  31.450   8.344  12.474
27022W        W88476  42.987   5.702   1.900
27023W        W88477  11.318  21.655   0.250
27024W        W88478  29.079  11.831  13.821
27025W        W88479  24.107  36.965  13.348
27026W        W88480  43.394   3.721  14.362
27027W        W88481  12.636  30.129  14.350
27028W        W88482  18.628  30.428   1.279
27029W        W88483  42.894  16.598  14.994
27030W        W88484  28.945  26.543   9.999
27031W        W88485   4.728  34.031  13.405
27032W        W88486  15.733  29.114  13.047
27033W        W88487  41.325  40.886  14.765
27034W        W88488  12.147  27.605   2.412
27035W        W88489   1.277  37.582   5.268
27036W        W88490   2.786  10.347   2.373
27037W        W88491  20.055  42.968   2.746
27038W        W88492  12.773   2.780   2.857
27039W        W88493  35.594  21.095  10.612
27040W        W88494  15.704   4.424   4.636
27041W        W88495  22.565  17.674   0.755
27042W        W88496  14.792   1.869   2.184
27043W        W88497  43.967   3.832  12.859
27044W        W88498  24.669  23.595  12.532
27045W        W88499  35.546  40.000  12.357
27046W        W88500  12.668  34.059  13.810
27047W        W88501   2.951  29.943  11.875
27048W        W88502  38.957   7.254  10.541
27049W        W88503   3.749  36.951  11.966
27050W        W88504  31.550  24.052   0.955
27051W        W88505  34.398  25.665   4.616
27052W        W88506  41.948  16.608  11.974
27053W        W88507  18.196  25.714   0.853
27054W        W88508  20.263  32.502   1.295
27055W        W88509  42.904  32.089  10.060
27056W        W88510  34.913  42.837   4.746
27057W        W88511  13.217  34.868   3.344
27058W        W88512   3.419  31.037  11.468
27059W        W88513  27.174  37.031  12.072
27060W        W88514  41.789  32.054   4.223
27061W        W88515   8.168   6.819  13.866
27062W        W88516  31.461   3.249   3.368
27063W        W88517  43.766  26.583  11.384
27064W        W88518  20.128   1.799  14.434
27065W        W88519  20.234  13.610  10.923
27066W        W88520  36.880  27.097   1.740
27067W        W88521   4.316   7.298  13.976
27068W        W88522  35.105   9.782  13.442
27069W        W88523  11.181  24.482   0.900
27070W        W88524  14.827   1.967   4.598
27071W        W88525   1.816  17.621  14.990
27072W        W88526  18.065  32.400  12.471
27073W        W88527  31.934  43.320   2.873
27074W        W88528   2.376   9.784   1.700
27075W        W88529  43.879   0.972  11.501
27076W        W88530   9.186  42.834   2.184
27077W        W88531   6.812   2.904  11.007
27078W        W88532  14.168   8.669  11.449
27079W        W88533  34.541  15.628   4.734
27080W        W88534  38.481  14.324   4.642
27081W        W88535  13.264   1.887  14.312
27082W        W88536   8.286  36.391  13.524
27083W        W88537  32.426  34.428   0.283
27084W        W88538  41.501   5.324  14.322
27085W        W88539   9.867  31.048  14.354
27086W        W88540  21.647  20.744   0.451
27087W        W88541  17.246  35.580  14.031
27088W        W88542  39.475  10.320   2.880
27089W        W88543  39.446  37.439   4.134
27090W        W88544  18.203  10.175  11.470
27091W        W88545  29.446  35.101  12.064
27092W        W88546  17.111   7.848   4.330
27093W        W88547   0.892  36.584   0.787
27094W        W88548  30.635  24.549   3.756
27095W        W88549  25.175  22.136  10.999
27096W        W88550   4.229  18.687   4.278
27097W        W88551  42.520  19.120   0.777
27098W        W88552  34.539  13.842  10.551
27099W        W88553  16.125   2.276   1.929
27100W        W88554  19.195  27.163  12.507
27101W        W88555   0.811  25.589  13.932
27102W        W88556  38.499  36.482  14.963
27103W        W88557  12.841   7.879   2.356
27104W        W88558  35.509  27.940   1.346
27105W        W88559  41.861  21.750  12.566
27106W        W88560  21.699  41.318   3.238
27107W        W88561  16.582   8.339   2.680
27108W        W88562  29.051   3.907  12.959
27109W        W88563  16.091  44.337  10.639
27110W        W88564  31.926  18.262   1.318
27111W        W88565  16.198  25.004   4.184
27112W        W88566  21.544  27.196   4.292
27113W        W88567  30.083  44.965   0.732
27114W        W88568  14.241  32.904   4.707
27115W        W88569   3.846  14.236   3.331
27116W        W88570   3.436  26.112  12.488
27117W        W88571  15.798   7.769  11.501
27118W        W88572  33.448  19.147  10.134
27119W        W88573  13.182   5.909   3.812
27120W        W88574  24.034  13.306  10.939
27121W        W88575  44.888   7.852  14.309
27122W        W88576  28.099  42.788  10.619
27123W        W88577  13.161  20.675   1.265
27124W        W88578   9.281   8.711   3.176
27125W        W88579   1.300  32.056  13.462
27126W        W88580  25.046  25.002   5.121
27127W        W88581  42.821  21.643  10.540
27128W        W88582  25.547   0.963  14.844
27129W        W88583  41.467  30.067   3.222
27130W        W88584   4.768  24.032  14.442
27131W        W88585  39.510  41.383   3.243
27132W        W88586  19.139  30.653   3.156
27133W        W88587  18.718  41.894  11.930
27134W        W88588  44.378  43.473   3.782
27135W        W88589  31.102  22.060   2.745
27136W        W88590  18.056   6.360  12.393
27137W        W88591   4.398  43.324   4.182
27138W        W88592  17.614   9.310   0.290
27139W        W88593  33.598  32.453  12.896
27140W        W88594  18.145  18.622   3.631
27141W        W88595   7.357  25.663  13.989
27142W        W88596  39.978  19.727  11.534
27143W        W88597  29.158  29.047   0.444
27144W        W88598  20.550  17.156   2.664
27145W        W88599  33.498  11.133   4.763
27146W        W88600   1.857   8.693   0.343
27147W        W88601   7.817   8.778   0.949
27148W        W88602   4.239   4.819  11.569
27149W        W88603   1.443   7.263  14.348
27150W        W88604  12.200  25.698  13.325
27151W        W88605  18.640   5.266   2.183
27152W        W88606  17.118   1.245   1.838
27153W        W88607  31.044  18.679   3.677
27154W        W88608  15.613  25.180   3.634
27155W        W88609   4.425   2.843   0.883
27156W        W88610  30.039   5.408  13.370
27157W        W88611   5.919  25.497  13.370
27158W        W88612  27.086   8.249  11.539
27159W        W88613  19.076  27.633   4.133
27160W        W88614  11.202  42.446   4.291
27161W        W88615   6.394  33.077  11.876
27162W        W88616  32.930  37.559  11.007
27163W        W88617  14.175  36.491   4.696
27164W        W88618  33.594  35.857   3.149
27165W        W88619  28.000  34.953  14.400
27166W        W88620  34.472  35.067   4.611
27167W        W88621  39.331  21.148   2.872
27168W        W88622  27.665  22.587  13.389
27169W        W88623   6.191  22.515  13.880
27170W        W88624   5.327  14.143  13.472
27171W        W88625  22.727  20.690  10.599
27172W        W88626  43.300  27.186  11.601
27173W        W88627  16.278  18.297  12.459
27174W        W88628   9.747   5.895   1.358
27175W        W88629  34.931   4.707  10.519
27176W        W88630  18.753   0.363   3.280
27177W        W88631   9.852  12.310  12.458
27178W        W88632   4.394  31.931   5.142
27179W        W88633  28.582  43.845  14.389
27180W        W88634  36.059  21.750   0.780
27181W        W88635  22.730  12.625  14.294
27182W        W88636  38.075  23.660   3.800
27183W        W88637  14.299  34.084   4.815
27184W        W88638   2.283  28.156  14.905
27185W        W88639   1.814  31.965  10.547
27186W        W88640  24.103  26.194  11.127
27187W        W88641  15.652  32.906   2.675
27188W        W88642  23.011  21.692  12.389
27189W        W88643  30.512   1.279   0.912
27190W        W88644  33.883  43.820   3.807
27191W        W88645   7.364   3.277  10.903
27192W        W88646  25.636  23.587   1.287
27193W        W88647  10.234  18.586   3.737
27194W        W88648  20.206  13.681   2.193
27195W        W88649   7.781  22.161   0.891
27196W        W88650  24.639  21.138  10.950
27197W        W88651   9.793  13.140   1.410
27198W        W88652  25.564  42.473   2.706
27199W        W88653  21.552  27.544   3.762
27200W        W88654   7.838  37.455  13.023
27201W        W88655  22.732  41.342  12.067
27202W        W88656  24.193  11.751  11.865
27203W        W88657   2.913  25.537  12.405
27204W        W88658   3.923  11.765  13.993
27205W        W88659  22.040  15.160  13.821
27206W        W88660  14.205  11.230  14.515
27207W        W88661  43.839  20.149   3.286
27208W        W88662   8.171  16.210  13.369
27209W        W88663   4.361  37.891  13.798
27210W        W88664  44.344  10.167  10.528
27211W        W88665  37.521  17.774  12.868
27212W        W88666  31.604  32.394  13.354
27213W        W88667  32.083  37.927  13.328
27214W        W88668   6.424  39.860  14.502
27215W        W88669  20.721  22.605   4.603
27216W        W88670  15.823  21.570   0.909
27217W        W88671  23.201  16.317  14.854
27218W        W88672   6.720  16.791  10.452
27219W        W88673  41.303  42.343   4.172
27220W        W88674   3.870  31.117   3.275
27221W        W88675  22.628   9.702   5.240
27222W        W88676  18.725  32.045  13.014
27223W        W88677  22.013  42.814  10.642
27224W        W88678  30.997  28.133  12.979
27225W        W88679  22.103  26.463  12.932
27226W        W88680   9.884  41.794  13.469
27227W        W88681  36.968  15.628  11.456
27228W        W88682   7.180  14.099  14.424
27229W        W88683  18.580   7.333  14.013
27230W        W88684   2.401  30.999  14.506
27231W        W88685  38.032  13.636  12.007
27232W        W88686  18.263   3.928  12.848
27233W        W88687  17.221  16.633  12.856
27234W        W88688   4.399  31.472  14.496
27235W        W88689   9.183  11.852  10.089
27236W        W88690  33.093  30.470   3.802
27237W        W88691  11.705  16.750   2.854
27238W        W88692  38.452   5.863   0.255
27239W        W88693  38.360   4.311   1.250
27240W        W88694  11.867  34.999  11.122
27241W        W88695  42.380   6.849  14.388
27242W        W88696  10.731   4.720   3.252
27243W        W88697  14.825  24.106  13.917
27244W        W88698  25.605  36.877  12.384
27245W        W88699  37.087  36.963  13.521
27246W        W88700   3.763  27.995   4.782
27247W        W88701  35.435  25.976  13.012
27248W        W88702  30.915  13.794  13.950
27249W        W88703  34.066  35.508  11.482
27250W        W88704   9.686  13.129   3.177
27251W        W88705  44.407  14.104  14.794
27252W        W88706  35.476  32.431   3.365
27253W        W88707  27.182  42.480   2.323
27254W        W88708   5.811  28.515  11.465
27255W        W88709  42.414  40.335   3.682
27256W        W88710  26.993   9.150  11.059
27257W        W88711  33.560  23.074   4.318
27258W        W88712  39.466  39.407  13.388
27259W        W88713  28.450   5.267   2.691
27260W        W88714   6.690  32.075  12.500
27261W        W88715   1.963  29.470  12.471
27262W        W88716   5.283   2.812   0.763
27263W        W88717   5.343  34.451  14.333
27264W        W88718   8.221  33.085   1.706
27265W        W88719  12.643   7.417   3.836
27266W        W88720   4.346   6.719  13.352
27267W        W88721  24.498  22.232  10.890
27268W        W88722  24.600  15.649   3.342
27269W        W88723  12.141  20.550   1.231
27270W        W88724   9.650  20.559  14.922
27271W        W88725  42.402  41.999  13.485
27272W        W88726  29.450  43.790  13.058
27273W        W88727  40.016  30.990   4.138
27274W        W88728  31.641   0.772   4.678
27275W        W88729  44.298  26.622  11.928
27276W        W88730  37.356  29.059   1.776
27277W        W88731  15.094  31.641  10.938
27278W        W88732  22.155  17.600  14.348
27279W        W88733  36.439  22.246  11.088
27280W        W88734   9.362  39.406   1.211
27281W        W88735  44.362  31.529  12.079
27282W        W88736  23.170   9.873  12.848
27283W        W88737  16.124  27.174   1.369
27284W        W88738  29.026  12.191  11.900
27285W        W88739  38.360  31.644   3.260
27286W        W88740   9.723  38.335   3.360
27287W        W88741  41.477  37.525  12.915
27288W        W88742   9.746   4.376  14.917
27289W        W88743   7.693   9.270  13.493
27290W        W88744  38.939  19.212   2.311
27291W        W88745  27.597  11.190  12.831
27292W        W88746  30.965  14.107  14.919
27293W        W88747  40.451  13.213   3.643
27294W        W88748   6.289  21.613   4.688
27295W        W88749  22.703  43.834   3.274
27296W        W88750  10.698  31.431   3.363
27297W        W88751  32.502  24.226  13.863
27298W        W88752  36.457  25.136  10.578
27299W        W88753  14.213   3.879  12.856
27300W        W88754   3.841   5.692  12.859
27301W        W88755  14.593  30.105   2.794
27302W        W88756  26.162   6.883  12.845
27303W        W88757   7.307  14.105   4.822
27304W        W88758  24.636  10.227   5.621
27305W        W88759  10.835  13.819  11.522
27306W        W88760  11.329  24.706  13.966
27307W        W88761  32.439   4.820  14.320
27308W        W88762   9.816  13.604   2.700
27309W        W88763  31.901  19.046   1.918
27310W        W88764  24.041  44.935  13.853
27311W        W88765   8.247  27.670   1.902
27312W        W88766  24.634  29.962  12.847
27313W        W88767   3.944  21.574  12.928
27314W        W88768  30.610  11.634  13.980
27315W        W88769  36.572  10.141  10.495
27316W        W88770  37.422  37.440   4.628
27317W        W88771  35.936   3.459  10.587
27318W        W88772  34.514  42.907   0.262
27319W        W88773  32.935  29.139  14.332
27320W        W88774  23.174  44.774   1.745
27321W        W88775   6.871   8.857   4.302
27322W        W88776  22.583   4.308   4.736
27323W        W88777  19.156  26.525  10.948
27324W        W88778  44.258  25.164  11.586
27325W        W88779  36.347  13.112  14.826
27326W        W88780  33.083   9.670  13.889
27327W        W88781  33.503  11.855   9.969
27328W        W88782   9.728  36.847  10.597
27329W        W88783   3.826  38.834  11.384
27330W        W88784  13.184  27.958   1.276
27331W        W88785  16.755  18.672   3.220
27332W        W88786   1.874  23.013   1.850
27333W        W88787  21.093  37.025   1.448
27334W        W88788  32.004  24.656   4.327
27335W        W88789  30.048  13.843   0.301
27336W        W88790  24.646   9.217  10.946
27337W        W88791   1.825  30.478   3.210
27338W        W88792  31.110   4.332   5.256
27339W        W88793  35.898  25.168  13.440
27340W        W88794  11.867  11.851   4.343
27341W        W88795  26.165  31.058  12.947
27342W        W88796  41.916  42.896  11.105
27343W        W88797  32.083   7.389  14.819
27344W        W88798  36.873  39.333   0.258
27345W        W88799   9.788  38.011  12.420
27346W        W88800  11.271   1.763   0.854
27347W        W88801  19.619  15.311  10.539
27348W        W88802  37.006  21.179   0.965
27349W        W88803   8.668  44.775   1.223
27350W        W88804  41.515  20.710   2.284
27351W        W88805  28.524  39.480  14.405
27352W        W88806  27.121   4.824   1.890
27353W        W88807  30.133  33.591   3.354
27354W        W88808  20.612  22.601   3.702
27355W        W88809  30.115  17.152  11.562
27356W        W88810   3.900   6.383   0.842
27357W        W88811  42.313  31.438   1.866
27358W        W88812  23.725  20.538  12.432
27359W        W88813   8.855  44.812  11.115
27360W        W88814  44.400  28.998  10.596
27361W        W88815  26.636   0.794   0.924
27362W        W88816   1.846  26.147   3.320
27363W        W88817  27.479  38.849   2.387
27364W        W88818  27.103  29.095   1.394
27365W        W88819  12.132  40.045  14.913
27366W        W88820   0.290  14.325  13.035
27367W        W88821  36.921  22.204   4.710
27368W        W88822   2.858  15.649   2.727
27369W        W88823  41.355  22.552  13.039
27370W        W88824  18.735   1.448   3.714
27371W        W88825  44.964  33.937   1.847
27372W        W88826   1.314  16.168  13.314
27373W        W88827  18.103  27.681  11.905
27374W        W88828  30.986  21.024   4.269
27375W        W88829   8.233   9.717   1.809
27376W        W88830  24.108  19.551   3.265
27377W        W88831  35.588  15.704   0.873
27378W        W88832  40.311  21.576  14.464
27379W        W88833   7.756  39.890   2.696
27380W        W88834  11.760   0.279   3.808
27381W        W88835   6.295  24.712  13.876
27382W        W88836  22.219   4.431   3.739
27383W        W88837  24.112  15.686  11.588
27384W        W88838  11.242  16.088   0.798
27385W        W88839  26.109  34.892  13.313
27386W        W88840  29.034   8.220  11.936
27387W        W88841  26.031  28.024   2.811
27388W        W88842  17.698  33.457  12.397
27389W        W88843  20.536  15.326   1.935
27390W        W88844  19.692  20.203   1.700
27391W        W88845   3.865  40.326  12.870
27392W        W88846   3.768   3.903  13.950
27393W        W88847  10.677  25.067   1.438
27394W        W88848  19.200  27.516   0.862
27395W        W88849  22.693   5.282   0.873
27396W        W88850  36.864   7.724   4.321
27397W        W88851  38.459  31.535  12.860
27398W        W88852   5.918  23.517  12.964
27399W        W88853  21.114  35.049  14.997
27400W        W88854  30.041  36.591   4.617
27401W        W88855  42.927  37.991   2.730
27402W        W88856  21.703  17.161  14.810
27403W        W88857  22.652  10.163  10.512
27404W        W88858  40.527  38.401   4.138
27405W        W88859  22.637  39.437   4.123
27406W        W88860   3.759   6.217  10.034
27407W        W88861  14.319  27.611  12.439
27408W        W88862  43.318  28.936  10.426
27409W        W88863  40.458  13.700  12.386
27410W        W88864  23.504  35.002  12.030
27411W        W88865   6.923  24.635   4.627
27412W        W88866  36.378  19.694   4.183
27413W        W88867  11.748   5.763   3.749
27414W        W88868  17.717  24.077   4.679
27415W        W88869  15.194   7.220   0.799
27416W        W88870  32.966  19.190   0.759
27417W        W88871  11.796   7.789  12.028
27418W        W88872  23.995   0.462  12.424
27419W        W88873  27.562  39.816   0.426
27420W        W88874  32.421  24.994   3.157
27421W        W88875  25.142  41.972   3.692
27422W        W88876  43.987   9.180  11.101
27423W        W88877  13.282  14.738  12.073
27424W        W88878   5.924  10.674   0.908
27425W        W88879  42.327  27.966   1.872
27426W        W88880   7.904   2.735   3.653
27427W        W88881  44.831  44.289   1.750
27428W        W88882   8.401  21.121  11.078
27429W        W88883  11.652  30.912  11.101
27430W        W88884  44.886  17.715  12.561
27431W        W88885   7.384  21.558  10.439
27432W        W88886  33.483  13.288  14.405
27433W        W88887  24.154   1.736   2.871
27434W        W88888  42.466  30.444   0.253
27435W        W88889  33.072  26.636   5.277
27436W        W88890  11.767  13.180  14.304
27437W        W88891  18.751   8.767  11.398
27438W        W88892  11.761  41.961   0.802
27439W        W88893  37.492  35.429  11.968
27440W        W88894  11.862  11.363  12.373
27441W        W88895   3.448  30.528   4.329
27442W        W88896  30.466  23.068   1.320
27443W        W88897  43.906  15.256  11.575
27444W        W88898  22.586  30.573   3.210
27445W        W88899  40.381  39.443  10.539
27446W        W88900  18.075  15.742   1.247
27447W        W88901  13.246  14.732  14.958
27448W        W88902  32.401   6.767  11.401
27449W        W88903   4.409  28.628  11.414
27450W        W88904  23.226  31.545   1.852
27451W        W88905  14.758  38.986   3.824
27452W        W88906  37.533   3.322  12.388
27453W        W88907  34.429  35.420  12.979
27454W        W88908  26.967  29.986  14.810
27455W        W88909  13.704  24.539   0.754
27456W        W88910  36.033  23.010  13.817
27457W        W88911  40.851  10.872   4.700
27458W        W88912  23.601  27.027  11.580
27459W        W88913   0.343  43.342   0.769
27460W        W88914   7.260   9.343   0.480
27461W        W88915  12.242  14.145  14.984
27462W        W88916  25.502   3.458  12.077
27463W        W88917  32.402  19.695   5.191
27464W        W88918   2.305  37.949   1.236
27465W        W88919  25.020  29.491  14.418
27466W        W88920  38.563  23.700  14.817
27467W        W88921   5.707  14.639   3.363
27468W        W88922  42.345  13.317  10.888
27469W        W88923  23.615  38.467   1.900
27470W        W88924   1.775  17.745   1.277
27471W        W88925  33.958  17.640  13.526
27472W        W88926  34.588   1.422  10.488
27473W        W88927  33.927  17.675   0.883
27474W        W88928  41.817   9.748   4.809
27475W        W88929  18.075  26.154  10.577
27476W        W88930  15.742  33.085   0.932
27477W        W88931   6.334  40.992  10.422
27478W        W88932  29.661   6.920   1.423
27479W        W88933  40.348   7.743  12.438
27480W        W88934  21.233  34.926   0.844
27481W        W88935  22.538  36.955   3.206
27482W        W88936  26.504  38.978   3.765
27483W        W88937  34.552  18.578  11.539
27484W        W88938  10.312  12.181  11.456
27485W        W88939  23.144   4.417   4.260
27486W        W88940  12.755  25.136  10.911
27487W        W88941  14.762   1.448  14.300
27488W        W88942  10.344  12.719  14.909
27489W        W88943  25.562  40.371   3.790
27490W        W88944   2.263  16.576  12.843
27491W        W88945  12.812  15.707  12.426
27492W        W88946   6.859   9.259   4.145
27493W        W88947  12.126   9.745   2.333
27494W        W88948  32.554   2.256  12.084
27495W        W88949  38.951  41.873   5.206
27496W        W88950  28.990  32.089   1.803
27497W        W88951  20.660   5.407   0.822
27498W        W88952  11.150  44.900  10.986
27499W        W88953  11.261   4.435   3.200
27500W        W88954   4.939  27.509   9.963
27501W        W88955   1.321  38.473   0.374
27502W        W88956  14.160  23.036   1.368
27503W        W88957  30.529  35.505  13.934
27504W        W88958   6.204   0.337   4.254
27505W        W88959  39.898  41.303   0.462
27506W        W88960  33.428  24.011  13.419
27507W        W88961   6.234  17.563  11.453
27508W        W88962   7.383  11.645   1.217
27509W        W88963  42.787  41.002  12.432
27510W        W88964  41.037  28.473  14.921
27511W        W88965  16.764   6.741   3.373
27512W        W88966   4.424   9.362  14.846
27513W        W88967  40.883  42.794  13.843
27514W        W88968  24.674  15.706   0.912
27515W        W88969   9.825  40.963  13.459
27516W        W88970  11.362   2.370   1.724
27517W        W88971   1.263  26.130  10.600
27518W        W88972  15.322  13.164   0.809
27519W        W88973  38.824  21.230  11.007
27520W        W88974  15.243  42.355   4.155
27521W        W88975  11.179  16.750  10.028
27522W        W88976  30.997  33.086   0.259
27523W        W88977  44.290  33.473   1.715
27524W        W88978  28.003  41.952   4.268
27525W        W88979  34.596  26.639  12.474
27526W        W88980  10.744  34.085  12.378
27527W        W88981  38.527  12.738  12.902
27528W        W88982  38.967  10.705  13.352
27529W        W88983  18.607  24.178   1.444
27530W        W88984  13.291  30.013   1.291
27531W        W88985  33.113  30.647   0.824
27532W        W88986   1.865  30.057  10.956
27533W        W88987  40.335   3.751  12.921
27534W        W88988  38.831  15.206   0.310
27535W        W88989  32.929  35.961   4.607
27536W        W88990  18.576  29.467  11.449
27537W        W88991   9.211  40.330  14.411
27538W        W88992  30.508  37.060   0.751
27539W        W88993  12.847  37.871   3.650
27540W        W88994  29.960  37.836  12.933
27541W        W88995  29.118  40.388  14.288
27542W        W88996   5.402  14.205  10.915
27543W        W88997  32.477  43.456  14.884
27544W        W88998  19.134   6.712  13.374
27545W        W88999  42.290  42.954   0.449
27546W        W89000  28.180  13.824   2.371
27547W        W89001   9.841  42.416   3.824
27548W        W89002  20.531  34.891  14.991
27549W        W89003  33.448  14.131  12.826
27550W        W89004  29.168  29.524   0.740
27551W        W89005  26.526  44.453   0.462
27552W        W89006  22.692  44.290  11.997
27553W        W89007  29.112  16.182  14.410
27554W        W89008  15.131  27.686  10.924
27555W        W89009   3.291  15.760   3.181
27556W        W89010  25.147   3.823   1.413
27557W        W89011  19.643  17.193   1.307
27558W        W89012   9.354   7.324  10.495
27559W        W89013   9.659   6.226  13.998
27560W        W89014  16.602  44.356   4.189
27561W        W89015  33.541  36.036  12.369
27562W        W89016   7.252  20.270   2.273
27563W        W89017   7.290  43.435  11.431
27564W        W89018  43.018  26.590  12.905
27565W        W89019   0.422  31.119  11.456
27566W        W89020   7.379  13.170  10.448
27567W        W89021   6.284  19.128   0.774
27568W        W89022  25.207   9.885  12.890
27569W        W89023  11.189  31.990   1.376
27570W        W89024  21.071   0.768  14.958
27571W        W89025   4.820  41.294  12.863
27572W        W89026  11.741  18.127   2.893
27573W        W89027  31.041   0.850   3.253
27574W        W89028  27.085  16.789   3.259
27575W        W89029  30.907  38.831  14.421
27576W        W89030   9.717  20.076  14.813
27577W        W89031  25.587  33.019   3.190
27578W        W89032  26.064  31.133  10.440
27579W        W89033  18.115  22.186   4.735
27580W        W89034   1.789  23.656   1.249
27581W        W89035  26.564   0.943  13.424
27582W        W89036  20.034  44.481   1.399
27583W        W89037   3.387   8.369   3.773
27584W        W89038  18.731  37.346  13.533
27585W        W89039  18.670  17.627   0.779
27586W        W89040  12.784   7.194   4.602
27587W        W89041   3.949  15.228   3.832
27588W        W89042  19.605  43.899   1.294
27589W        W89043  32.950  20.701   2.717
27590W        W89044   4.206  18.632   0.385
27591W        W89045  22.095  19.534  13.433
27592W        W89046  10.809  24.585   2.340
27593W        W89047  35.534  33.991  11.089
27594W        W89048   0.402  36.896  14.884
27595W        W89049  33.493  16.607  11.094
27596W        W89050  35.872  35.003  12.410
27597W        W89051  30.434   2.434   1.412
27598W        W89052  11.214  26.187   4.793
27599W        W89053  10.667  36.955  14.001
27600W        W89054  29.088  34.450  14.784
27601W        W89055  36.928  28.987   4.597
27602W        W89056  14.217  35.526  11.533
27603W        W89057  44.908  14.233   0.371
27604W        W89058  28.124  10.639   2.399
27605W        W89059   5.805  18.201  12.515
27606W        W89060  12.766  25.146  12.951
27607W        W89061  30.966  40.996   1.735
27608W        W89062  13.745   4.327  11.449
27609W        W89063  17.134  26.041  14.881
27610W        W89064  20.176  21.027  13.981
27611W        W89065  24.547  33.922   0.940
27612W        W89066   7.772  26.077  11.557
27613W        W89067  41.437  34.041   4.605
27614W        W89068   7.284  35.413  13.986
27615W        W89069  10.822  13.300   4.273
27616W        W89070  25.969  30.000   3.371
27617W        W89071  21.519  19.130   1.902
27618W        W89072  17.725  23.032   1.329
27619W        W89073  42.371  32.991   0.361
27620W        W89074  33.932  44.406   2.208
27621W        W89075  12.300  31.466  10.486
27622W        W89076  31.422  16.097  13.814
27623W        W89077  37.073  12.173  14.759
27624W        W89078  17.300  43.004  14.965
27625W        W89079  33.064  32.559  10.956
27626W        W89080  20.764  11.243  10.516
27627W        W89081  17.610  29.067   0.374
27628W        W89082  17.208  23.217  14.974
27629W        W89083  29.138  44.877  12.522
27630W        W89084  43.409  16.762   1.258
27631W        W89085  30.937   6.407   0.796
27632W        W89086  13.652  21.581  14.513
27633W        W89087  22.610  15.748   1.360
27634W        W89088  41.496  29.925  11.097
27635W        W89089  17.794  19.210   0.367
27636W        W89090  25.093  33.920  13.854
27637W        W89091  28.046  26.483   2.346
27638W        W89092  28.974   5.895   3.807
27639W        W89093  24.070  12.667   9.989
27640W        W89094  28.021   6.258  10.570
27641W        W89095  40.979  28.533  13.847
27642W        W89096  21.710  10.304  14.442
27643W        W89097  39.049   4.815   0.371
27644W        W89098  17.558  13.156   2.395
27645W        W89099  26.572  29.540   0.425
27646W        W89100   9.196   6.335   3.648
27647W        W89101  29.504  25.029   4.337
27648W        W89102   4.402  14.738   2.857
27649W        W89103  22.140   7.404   2.181
27650W        W89104  42.953   7.707  12.904
27651W        W89105  20.766  19.753   0.427
27652W        W89106  17.613  29.600   1.390
27653W        W89107  15.583   2.936   1.808
27654W        W89108   5.876  12.136  13.359
27655W        W89109  18.293  21.105  10.462
27656W        W89110   1.278  33.621  14.788
27657W        W89111  27.079  42.858  14.797
27658W        W89112  19.549  33.386   4.305
27659W        W89113  32.126  26.568  14.348
27660W        W89114  18.102  31.097  10.435
27661W        W89115  35.572  33.439  13.325
27662W        W89116  19.575  32.398   1.226
27663W        W89117  39.924  21.638   1.914
27664W        W89118   5.804  27.498  14.434
27665W        W89119   6.754  35.931  13.035
27666W        W89120   2.312   0.316   3.663
27667W        W89121  34.073  40.458  14.457
27668W        W89122  20.623  23.195   2.780
27669W        W89123  19.637   7.741   5.700
27670W        W89124   0.962   1.379   4.660
27671W        W89125  36.543  40.468   0.734
27672W        W89126  25.013  28.981  11.026
27673W        W89127  27.590  29.995   2.799
27674W        W89128  42.305  16.719  11.092
27675W        W89129  40.817  11.738  12.531
27676W        W89130  28.616  38.824   0.356
27677W        W89131  11.704  36.433  11.053
27678W        W89132  30.640  34.064  13.020
27679W        W89133  41.421  22.689   0.940
27680W        W89134  29.967   3.330  14.797
27681W        W89135   7.696  37.965  10.464
27682W        W89136  37.468  23.160   3.146
27683W        W89137  25.575  10.149  10.628
27684W        W89138  39.351  16.717  10.960
27685W        W89139  31.106  29.039  11.880
27686W        W89140  29.008  44.452  14.279
27687W        W89141  15.143  32.569  12.862
27688W        W89142  39.939  44.757  12.069
27689W        W89143  15.641  13.799   1.891
27690W        W89144   9.259  35.561  11.555
27691W        W89145  40.878  17.291   2.202
27692W        W89146  28.485  20.214  13.462
27693W        W89147  41.470  23.226   2.765
27694W        W89148  24.499  39.454  13.792
27695W        W89149  43.330  19.701  11.101
27696W        W89150  23.224  10.214  10.410
27697W        W89151   3.816   3.863  13.517
27698W        W89152  18.715  19.112  11.584
27699W        W89153  25.059  12.227  11.589
27700W        W89154   7.835   4.288   3.383
27701W        W89155  26.623  39.398   0.343
27702W        W89156  24.634  20.197  11.870
27703W        W89157   7.899  33.124   2.733
27704W        W89158  13.790   8.310  10.454
27705W        W89159  24.164   9.669  12.955
27706W        W89160  41.837  23.622   0.822
27707W        W89161   3.939   3.788   0.255
27708W        W89162   3.432   2.904   2.288
27709W        W89163   8.835  31.041   2.860
27710W        W89164  16.629  16.223   5.753
27711W        W89165  39.465  32.395   4.303
27712W        W89166  29.668  42.493  11.469
27713W        W89167  40.822  42.940   1.418
27714W        W89168  23.989   7.736   0.849
27715W        W89169  13.747  14.714  10.510
27716W        W89170   5.202  33.529   3.277
27717W        W89171  17.179  27.192  13.418
27718W        W89172  13.639  37.027   2.331
27719W        W89173  42.778   2.818   1.882
27720W        W89174  34.910  15.595  10.945
27721W        W89175  42.995   0.319   1.910
27722W        W89176  27.477  31.510   1.762
27723W        W89177  22.198   7.223  11.897
27724W        W89178  32.634  23.012  10.902
27725W        W89179  17.164   8.340  14.464
27726W        W89180  24.611  26.014   3.154
27727W        W89181   7.782  20.617   0.829
27728W        W89182  37.859  25.567  13.347
27729W        W89183  19.648   9.175   2.852
27730W        W89184   0.436   5.408  12.561
27731W        W89185  33.954  13.217   4.640
27732W        W89186  34.555  34.412  11.097
27733W        W89187  27.570  33.451  11.456
27734W        W89188  20.630  11.741  14.470
27735W        W89189  26.074  24.576   1.934
27736W        W89190  39.012  15.281  11.934
27737W        W89191   5.862   5.359   0.919
27738W        W89192  39.427  14.260  13.792
27739W        W89193  16.734  41.473   3.743
27740W        W89194  11.340  28.138  14.352
27741W        W89195  18.650  24.567  13.907
27742W        W89196  42.323  25.151  10.919
27743W        W89197  44.794  41.399  14.917
27744W        W89198  41.431  26.175  12.964
27745W        W89199   5.689  37.357  11.858
27746W        W89200   2.948  44.937   4.244
27747W        W89201  26.477  43.355  13.847
27748W        W89202  27.535  35.568   0.435
27749W        W89203   8.755   1.861  14.460
27750W        W89204  41.019  12.214  14.016
27751W        W89205  39.886  20.144   1.364
27752W        W89206   7.285  30.150   2.691
27753W        W89207  44.322   7.783  12.066
27754W        W89208   8.748  37.551   2.290
27755W        W89209  20.214  44.345   2.199
27756W        W89210   8.756  42.782   0.316
27757W        W89211  14.108  31.571   2.233
27758W        W89212  12.814   3.397   0.873
27759W        W89213  31.115  41.804   0.874
27760W        W89214  13.839  19.559   0.912
27761W        W89215  26.987  21.718   0.783
27762W        W89216  14.732  22.608  14.415
27763W        W89217  37.990  21.255  11.116
27764W        W89218   5.750  31.968  13.978
27765W        W89219  26.092  21.152   2.678
27766W        W89220  24.662  11.253   2.717
27767W        W89221   3.296  41.306   0.763
27768W        W89222  22.119   9.165   5.740
27769W        W89223  40.433   0.972   1.716
27770W        W89224  24.118  24.634   4.675
27771W        W89225  21.750   2.913  10.406
27772W        W89226  28.593   0.308   4.697
27773W        W89227   5.315  25.137   5.155
27774W        W89228  42.498   0.429   4.669
27775W        W89229  20.589   4.428  12.976
27776W        W89230  25.546   2.896   1.408
27777W        W89231  22.510  43.502   2.256
27778W        W89232  33.614  26.554   4.289
27779W        W89233  32.959  39.953  14.928
27780W        W89234   5.289  20.671  11.986
27781W        W89235  23.679  37.519   1.798
27782W        W89236   3.876  40.869  12.007
27783W        W89237  18.581  40.027   1.423
27784W        W89238   7.178  28.442   1.424
27785W        W89239   0.946   3.808   3.729
27786W        W89240  28.577  21.216   5.222
27787W        W89241  38.997  21.616  11.907
27788W        W89242  29.652  37.965   0.278
27789W        W89243  13.810  31.047  11.484
27790W        W89244   5.699  40.895  11.379
27791W        W89245  31.038  37.976   0.866
27792W        W89246  21.069   4.327   1.737
27793W        W89247   8.818  33.922   3.663
27794W        W89248   3.356  11.728   3.311
27795W        W89249  11.303  34.566  12.834
27796W        W89250  29.530  20.221  14.943
27797W        W89251   0.481   9.292  12.828
27798W        W89252  20.685  42.337  12.896
27799W        W89253  37.440  25.693   4.342
27800W        W89254  32.593   7.222   2.182
27801W        W89255  29.479  13.798  13.880
27802W        W89256   2.294   8.371  13.518
27803W        W89257  16.769  10.214   2.296
27804W        W89258  10.703  23.240   4.625
27805W        W89259   7.897  21.041  10.967
27806W        W89260   6.708  27.973  11.124
27807W        W89261   4.222  31.605  11.931
27808W        W89262   8.804  30.650  10.011
27809W        W89263  29.035  31.444   2.669
27810W        W89264   8.745   9.192   0.838
27811W        W89265  21.606   5.368   1.226
27812W        W89266  10.195  15.702  14.379
27813W        W89267  24.016  27.037   3.280
27814W        W89268  20.209  27.562  13.926
27815W        W89269  27.039  18.600  14.331
27816W        W89270  39.032  23.049   3.247
27817W        W89271  11.318  32.018   0.246
27818W        W89272  11.777  24.659  14.982
27819W        W89273   0.932  26.991  14.837
27820W        W89274  27.001  36.426  12.432
27821W        W89275  40.340  41.952  10.439
27822W        W89276  19.277  42.785  12.390
27823W        W89277   3.771   4.871  13.369
27824W        W89278  26.031  13.203  11.992
27825W        W89279  21.529   7.739   2.722
27826W        W89280   3.323  38.002   3.200
27827W        W89281  21.643  15.154  13.941
27828W        W89282  31.480  15.218  13.373
27829W        W89283  30.437  24.196  14.486
27830W        W89284   3.377  40.973   0.364
27831W        W89285  38.982  20.055   4.346
27832W        W89286  24.507   3.237   9.986
27833W        W89287  44.405  10.874   1.900
27834W        W89288  35.985  40.960  12.897
27835W        W89289  27.503  22.549   5.266
27836W        W89290   8.245  15.237   4.268
27837W        W89291   2.323  12.804   3.273
27838W        W89292  29.106   8.882   0.754
27839W        W89293  11.177  25.146   0.874
27840W        W89294  26.110  23.510  13.507
27841W        W89295   8.746  14.114  12.863
27842W        W89296  33.898  39.424  11.004
27843W        W89297  35.033  24.711   0.421
27844W        W89298  12.801  23.112  14.869
27845W        W89299   5.881   8.819  11.045
27846W        W89300  24.000  12.725  11.102
27847W        W89301   0.836   6.416   3.787
27848W        W89302   4.740  26.115  12.551
27849W        W89303  21.017  34.884   2.312
27850W        W89304  14.102  19.595  14.786
27851W        W89305   3.818   1.826   5.286
27852W        W89306  35.060   5.887   3.263
27853W        W89307  22.119  24.211   3.753
27854W        W89308  20.223   5.400  12.042
27855W        W89309  28.168   7.709  12.845
27856W        W89310  34.865  34.587  11.493
27857W        W89311  41.452  43.377  10.543
27858W        W89312   0.898   7.805  12.570
27859W        W89313  43.838  16.076   3.272
27860W        W89314  24.619  40.990  14.876
27861W        W89315  26.086  20.629   2.756
27862W        W89316  24.519  18.714  12.477
27863W        W89317  36.352  10.273   3.271
27864W        W89318  40.987  24.196   1.710
27865W        W89319   6.796  27.084  14.436
27866W        W89320  13.192  13.197   3.787
27867W        W89321  22.694  42.776   2.690
27868W        W89322  30.052  44.503   3.656
27869W        W89323  21.635  25.166  12.936
27870W        W89324  22.122  22.082   0.868
27871W        W89325  40.412  29.147  11.010
27872W        W89326  22.560  18.215   3.737
27873W        W89327  15.725   0.335   2.850
27874W        W89328  19.655  28.438  12.486
27875W        W89329  28.445  27.080   2.367
27876W        W89330   8.234  24.011   4.119
27877W        W89331  20.663   0.410  14.768
27878W        W89332   9.850  25.711   4.311
27879W        W89333  26.566  43.339   0.828
27880W        W89334  26.667   5.891   0.855
27881W        W89335   9.773  38.568  11.079
27882W        W89336  36.473   1.340  13.906
27883W        W89337   9.326  42.389   4.762
27884W        W89338  17.718   3.769  14.933
27885W        W89339  40.322  13.297  11.484
27886W        W89340  44.435   3.931   2.408
27887W        W89341   1.483   6.236  14.925
27888W        W89342  14.129  24.706  13.922
27889W        W89343  32.495  30.610   3.723
27890W        W89344  44.000  20.556   4.742
27891W        W89345  40.916  37.054   4.256
27892W        W89346  32.036  35.440  14.016
27893W        W89347  22.669  10.252   2.664
27894W        W89348   5.195  29.617  13.393
27895W        W89349  40.894  42.304   4.750
27896W        W89350  22.599  21.257   4.210
27897W        W89351  33.557  36.436  11.403
27898W        W89352  29.582   4.749  14.445
27899W        W89353  11.267  23.235  10.576
27900W        W89354  33.112  18.610  11.391
27901W        W89355   6.393   5.805  13.960
27902W        W89356  14.768  31.448  14.946
27903W        W89357  34.008  39.409   4.228
27904W        W89358  29.017  42.944   3.631
27905W        W89359  33.016  13.793  10.595
27906W        W89360  43.975  21.201   0.249
27907W        W89361   4.878   7.785  13.333
27908W        W89362  40.996  15.594  13.936
27909W        W89363  27.487  16.742   3.837
27910W        W89364  17.221  19.652   0.401
27911W        W89365  21.202  18.631  13.373
27912W        W89366  39.826  11.758  11.452
27913W        W89367  27.520   3.307   1.250
27914W        W89368  13.334  44.897   2.297
27915W        W89369  26.085  35.972  12.958
27916W        W89370  15.765  41.888   1.360
27917W        W89371  37.574  38.384   1.764
27918W        W89372  42.824  11.324  13.979
27919W        W89373  22.744  10.802  11.033
27920W        W89374  16.796  18.596  11.053
27921W        W89375   6.903   1.830  10.478
27922W        W89376   1.330   5.434  14.788
27923W        W89377   1.741  21.634   3.859
27924W        W89378   0.456   3.753   4.341
27925W        W89379  42.389  40.905   4.352
27926W        W89380  33.433  25.486  11.425
27927W        W89381  39.871  19.689  14.909
27928W        W89382  18.212  11.239  13.979
27929W        W89383  21.146  26.093   0.463
27930W        W89384  32.969  38.030  10.568
27931W        W89385   4.835   5.436   9.960
27932W        W89386  17.800   8.672  10.521
27933W        W89387  38.853  11.790   1.292
27934W        W89388  22.602  30.064   4.825
27935W        W89389  35.397  14.680   3.763
27936W        W89390   3.736  36.084  14.301
27937W        W89391  15.630  13.215  13.350
27938W        W89392  18.095  44.823   4.613
27939W        W89393  14.143  14.707  11.491
27940W        W89394  11.140   2.419  12.889
27941W        W89395  14.732  20.184   2.336
27942W        W89396  11.736  26.570   2.803
27943W        W89397  10.706  28.463   1.280
27944W        W89398   7.850  22.709   3.320
27945W        W89399  28.081  33.464  14.410
27946W        W89400   6.707  18.587  14.457
27947W        W89401  43.436  42.030  12.030
27948W        W89402  36.842   3.723  11.111
27949W        W89403  40.012  36.857   2.872
27950W        W89404  36.584  38.926   0.364
27951W        W89405  15.287  23.521  11.426
27952W        W89406  25.622  43.822  11.402
27953W        W89407  25.065  28.080   4.639
27954W        W89408  38.940  14.221  10.607
27955W        W89409  32.903  14.651  13.855
27956W        W89410  40.824   9.810   4.663
27957W        W89411   1.930   8.803  13.926
27958W        W89412   8.676  32.885  10.069
27959W        W89413  18.203  21.204  10.151
27960W        W89414  31.519   2.377  10.899
27961W        W89415  44.834  39.882   1.899
27962W        W89416  28.579   4.745   1.719
27963W        W89417  32.481   6.422   2.687
27964W        W89418   8.300  27.654  14.792
27965W        W89419  34.371  12.750  14.005
27966W        W89420  22.713  29.489   0.254
27967W        W89421  42.511  21.567   2.390
27968W        W89422  31.968  23.686  10.521
27969W        W89423  31.462  24.152   3.632
27970W        W89424  14.127   1.395  14.957
27971W        W89425  31.506  39.360  10.567
27972W        W89426  39.870  16.315  14.923
27973W        W89427  27.036  12.333  14.999
27974W        W89428  28.185  40.041  14.799
27975W        W89429  29.962  27.526   0.260
27976W        W89430  14.143  35.551  10.635
27977W        W89431   0.749  19.613  14.016
27978W        W89432  25.470  33.080   9.611
27979W        W89433   9.165   1.342   4.151
27980W        W89434  27.128  17.276  14.341
27981W        W89435  39.035  32.914  13.060
27982W        W89436  16.638  17.718  14.447
27983W        W89437  26.685   8.189  12.002
27984W        W89438  31.035  24.501   3.193
27985W        W89439  14.111   3.265   0.329
27986W        W89440  22.506  21.596  13.324
27987W        W89441  44.423   2.365  12.882
27988W        W89442  28.175   8.733   0.353
27989W        W89443  43.380   4.789   2.204
27990W        W89444  29.478  29.487   3.296
27991W        W89445  13.646  15.739   0.421
27992W        W89446  16.701  23.736   2.317
27993W        W89447  23.524  39.968   1.742
27994W        W89448  32.497  42.776   3.661
27995W        W89449  19.242  25.503   0.283
27996W        W89450  43.907   2.408  11.983
27997W        W89451  31.119  10.183  12.871
27998W        W89452  29.108  14.164   5.271
27999W        W89453  36.092  31.979  13.976
28000W        W89454  38.925   2.470   3.172
28001W        W89455   2.461  30.562  12.989
28002W        W89456  13.238   0.983  10.439
28003W        W89457  12.345   7.274   4.806
28004W        W89458   8.791  31.485  13.041
28005W        W89459   3.415  17.233   0.800
28006W        W89460   1.858  43.989   1.295
28007W        W89461  30.156   2.779  12.580
28008W        W89462   1.937  42.788  10.151
28009W        W89463  26.545   0.988   1.329
28010W        W89464   2.459  22.160   2.707
28011W        W89465   0.278  35.018  11.511
28012W        W89466  41.386   2.468   2.860
28013W        W89467   0.367  10.202   0.776
28014W        W89468  40.842  11.809   1.438
28015W        W89469  36.513  27.142   0.740
28016W        W89470  19.193  13.649   4.713
28017W        W89471  31.962  28.574   1.235
28018W        W89472  21.034  26.015  11.016
28019W        W89473  24.547  37.573  10.557
28020W        W89474  22.591  18.105  13.793
28021W        W89475  28.027  24.687  12.840
28022W        W89476  13.110  39.380   0.828
28023W        W89477   2.301  27.983   3.344
28024W        W89478  21.137  24.666  12.851
28025W        W89479  39.830  32.049  12.050
28026W        W89480  10.285  12.745   4.652
28027W        W89481  23.705   6.280   2.187
28028W        W89482   7.332  32.094   3.376
28029W        W89483   2.340  13.171  12.828
28030W        W89484  12.342  28.113   0.310
28031W        W89485  29.060  28.527   1.319
28032W        W89486   0.806  32.541   0.847
28033W        W89487  14.794  12.762  13.535
28034W        W89488  39.556  19.039   2.283
28035W        W89489   1.819  27.114  10.976
28036W        W89490  10.805  30.515  10.908
28037W        W89491   6.694   4.228  14.313
28038W        W89492  39.551  36.966  11.502
28039W        W89493  20.063  17.662   4.648
28040W        W89494  36.350  11.177   1.775
28041W        W89495  15.218  20.239   5.123
28042W        W89496  41.005  13.137  11.515
28043W        W89497  32.406  43.809   3.731
28044W        W89498  24.678  35.879   3.814
28045W        W89499  34.546  37.054   2.823
28046W        W89500   8.897  13.305  14.398
28047W        W89501  26.475  11.220  14.486
28048W        W89502  12.311  17.280  11.554
28049W        W89503  10.203  39.907   3.723
28050W        W89504  36.928   4.811  13.507
28051W        W89505   7.404  43.272   3.276
28052W        W89506  10.780  22.606  10.889
28053W        W89507  18.568  23.577  12.945
28054W        W89508  37.912  14.592  14.328
28055W        W89509   6.914   1.863  14.481
28056W        W89510   7.883  28.554   4.152
28057W        W89511  21.200  29.003  11.383
28058W        W89512  36.483  20.209  12.517
28059W        W89513   4.924  40.418   4.728
28060W        W89514  16.736   2.450   3.856
28061W        W89515  18.144  22.217  13.833
28062W        W89516  40.354  31.541  14.834
28063W        W89517  16.614  25.590  10.570
28064W        W89518   0.791  21.580   2.370
28065W        W89519  42.863  14.718   0.347
28066W        W89520  23.600  23.533   2.330
28067W        W89521  29.021  19.548  14.851
28068W        W89522  14.254  36.045  12.396
28069W        W89523  37.946  36.906   1.438
28070W        W89524  33.110   9.773  14.370
28071W        W89525  41.351  31.043  11.594
28072W        W89526   8.784  11.713  11.932
28073W        W89527  17.647  27.949   3.778
28074W        W89528  35.481  35.380   2.200
28075W        W89529  41.840  20.136   0.340
28076W        W89530  10.757  42.818  12.503
28077W        W89531  35.877   1.385  14.917
28078W        W89532  22.636  20.756  12.437
28079W        W89533  23.984  42.780  10.586
28080W        W89534  17.250   0.448   0.381
28081W        W89535  18.750  25.676  12.505
28082W        W89536  15.706  38.921  10.926
28083W        W89537  10.339   1.408   0.761
28084W        W89538  39.510  29.544  12.519
28085W        W89539  23.223  30.946   2.790
28086W        W89540   3.388  16.241   1.729
28087W        W89541   1.910  15.807  10.117
28088W        W89542  28.066   0.985  12.367
28089W        W89543  20.151  20.685   0.769
28090W        W89544  40.436  41.030  11.418
28091W        W89545  40.860   6.742   4.774
28092W        W89546  10.267  23.105  13.538
28093W        W89547  16.089   8.693  10.157
28094W        W89548  18.570  11.772  13.377
28095W        W89549  39.536  44.386  12.371
28096W        W89550   6.403  14.629   0.446
28097W        W89551  15.159   3.414   5.137
28098W        W89552  21.532  41.804  11.034
28099W        W89553   0.754  11.334   0.281
28100W        W89554  38.436  41.985   5.253
28101W        W89555   9.724  20.540   4.649
28102W        W89556   0.326  28.679  11.609
28103W        W89557  14.714  11.165   1.242
28104W        W89558   4.867   9.788  12.437
28105W        W89559  10.732  22.213   3.798
28106W        W89560  16.782  15.100  14.410
28107W        W89561   7.195   0.308  13.347
28108W        W89562  23.008  10.680   1.249
28109W        W89563  34.483  15.675   4.352
28110W        W89564   6.706  44.390  11.432
28111W        W89565  42.970  19.173  11.922
28112W        W89566  40.940  38.854  12.397
28113W        W89567  13.175  42.302   3.265
28114W        W89568   6.757  32.486   5.303
28115W        W89569   4.853  19.633   0.787
28116W        W89570  40.349  11.747  11.423
28117W        W89571  20.172  32.459  12.825
28118W        W89572  32.628  44.763   3.870
28119W        W89573  39.400  14.797   2.390
28120W        W89574  27.070  41.001  13.971
28121W        W89575   1.482  42.891  14.831
28122W        W89576  36.526  17.674  10.457
28123W        W89577   6.801  19.149  11.865
28124W        W89578  20.181  31.575  14.786
28125W        W89579  39.951  27.111  12.932
28126W        W89580  33.604  19.135   5.258
28127W        W89581  15.225  19.074  14.314
28128W        W89582  17.210  39.870  12.875
28129W        W89583  27.150  24.154  11.404
28130W        W89584  41.963  22.609  13.489
28131W        W89585  24.550   5.932   1.805
28132W        W89586  25.025  23.581   1.760
28133W        W89587  40.451  32.087  10.590
28134W        W89588  38.332  13.209   2.363
28135W        W89589  31.639   0.321   2.327
28136W        W89590  21.644  38.946   4.739
28137W        W89591  44.364   2.316   3.670
28138W        W89592  36.854  34.584   0.453
28139W        W89593   9.238   8.314  13.061
28140W        W89594  12.133  13.274  10.980
28141W        W89595  19.691  13.665  11.415
28142W        W89596  21.522  27.941   2.857
28143W        W89597  36.944   9.252  11.948
28144W        W89598  38.953   5.877   0.906
28145W        W89599  33.465  21.112  11.594
28146W        W89600   6.295  40.991   1.307
28147W        W89601  19.279  13.632   3.381
28148W        W89602  13.631   7.333  13.977
28149W        W89603  18.629   9.322  13.401
28150W        W89604  43.402  27.026  10.635
28151W        W89605  19.694  19.634  14.950
28152W        W89606  11.161  23.986   2.822
28153W        W89607  15.682   4.263  12.371
28154W        W89608   1.287   0.334   0.280
28155W        W89609  10.327  20.213   0.260
28156W        W89610  21.648   8.718  14.875
28157W        W89611   8.160  25.001  12.913
28158W        W89612  13.648  25.592  11.018
28159W        W89613  33.943  27.690  13.506
28160W        W89614   5.736  21.241  14.961
28161W        W89615  28.492   5.236  11.475
28162W        W89616   1.950  44.911   0.907
28163W        W89617  16.227  38.336  13.465
28164W        W89618  11.264  15.697  13.412
28165W        W89619  40.523  26.474   3.786
28166W        W89620   2.858  18.217  12.483
28167W        W89621  34.980  16.260  14.492
28168W        W89622  22.102  36.949  10.550
28169W        W89623  15.177  42.972  10.554
28170W        W89624  30.617  34.116   2.753
28171W        W89625  32.031  31.901   1.396
28172W        W89626  10.761  24.538  11.100
28173W        W89627  32.599   3.285  10.541
28174W        W89628  26.556  26.525   2.875
28175W        W89629   4.248  13.127  10.620
28176W        W89630   6.400  21.558   1.399
28177W        W89631  23.606  32.086   0.449
28178W        W89632  39.418   6.728  13.843
28179W        W89633   6.240   7.847  13.996
28180W        W89634  29.053  21.636  12.516
28181W        W89635  30.160   4.777  14.764
28182W        W89636  44.845  37.989  13.533
28183W        W89637  19.747  14.115   0.374
28184W        W89638  36.024  23.685   2.806
28185W        W89639  24.115   8.656   2.232
28186W        W89640  38.396  43.003   1.346
28187W        W89641  41.528  14.328   3.672
28188W        W89642  44.792   3.287  14.307
28189W        W89643  18.060  36.994  13.839
28190W        W89644  14.654   1.301   4.118
28191W        W89645  35.464  35.085  14.762
28192W        W89646  31.595   8.700  11.042
28193W        W89647  37.897  26.064  11.982
28194W        W89648  13.249  18.098   3.677
28195W        W89649   6.886  10.307   2.343
28196W        W89650  24.513   3.819  10.985
28197W        W89651  41.817  31.044   0.934
28198W        W89652  41.510   2.820  12.892
28199W        W89653  29.122  18.649  14.822
28200W        W89654   9.657  31.059   3.842
28201W        W89655  23.155  33.391  13.487
28202W        W89656  40.956  34.077  10.938
28203W        W89657  41.330   4.943   2.313
28204W        W89658  35.088  40.930  10.941
28205W        W89659  27.621  22.746   2.222
28206W        W89660  25.515   6.695  13.537
28207W        W89661  21.551  29.523   2.739
28208W        W89662   4.311  17.282   2.773
28209W        W89663  13.149  14.749  13.370
28210W        W89664  39.049  34.940  13.433
28211W        W89665  19.129  23.989  10.591
28212W        W89666  42.947  22.121   3.672
28213W        W89667  39.923  28.522   4.355
28214W        W89668  34.969   1.852  11.089
28215W        W89669  32.034  32.585  12.019
28216W        W89670  13.829  43.876   1.350
28217W        W89671  19.087   0.339  14.960
28218W        W89672  27.053  38.873  11.876
28219W        W89673  40.304  31.029   4.141
28220W        W89674  26.472  12.344  13.834
28221W        W89675   3.279  23.232  12.579
28222W        W89676  43.963  17.611  11.527
28223W        W89677  24.112  30.927   1.817
28224W        W89678  15.245   5.804  12.062
28225W        W89679  33.505  20.698   1.872
28226W        W89680   9.393   2.914  12.557
28227W        W89681  36.865  18.549   4.293
28228W        W89682  24.502  15.289  12.006
28229W        W89683  29.087  24.982   2.322
28230W        W89684  42.792  44.486   4.117
28231W        W89685  37.568  27.170   2.398
28232W        W89686   5.310   8.189  12.457
28233W        W89687  43.873  17.069   3.258
28234W        W89688  15.609  30.953   0.384
28235W        W89689   4.844   9.377  13.895
28236W        W89690  16.100  21.262   0.858
28237W        W89691  27.978   2.257  13.525
28238W        W89692   9.877  21.595  10.608
28239W        W89693   7.202   0.842  12.435
28240W        W89694  18.289  36.539  13.019
28241W        W89695  40.819  20.628   1.790
28242W        W89696  33.390  34.111   2.777
28243W        W89697  37.457  34.948   2.299
28244W        W89698   9.282  44.498   3.264
28245W        W89699   2.380  38.340   3.248
28246W        W89700  35.486  24.054   2.664
28247W        W89701  32.403  18.652   1.862
28248W        W89702  33.476   1.882   0.466
28249W        W89703   7.697  34.946  14.031
28250W        W89704   2.311  33.051   3.757
28251W        W89705  27.493   2.325   5.253
28252W        W89706  43.293   1.332   0.736
28253W        W89707   4.882   8.283  14.837
28254W        W89708  25.676  11.857   0.267
28255W        W89709   1.844  28.083  13.969
28256W        W89710  12.255  18.696   2.287
28257W        W89711  14.651  14.809  13.993
28258W        W89712  11.281  41.491   0.793
28259W        W89713  10.729  29.588  12.507
28260W        W89714  10.358   3.449  13.317
28261W        W89715  42.808  25.131  11.050
28262W        W89716  27.656   6.314  13.868
28263W        W89717   2.950   9.349  11.040
28264W        W89718   6.765  24.008   0.407
28265W        W89719   8.394  16.226   0.732
28266W        W89720  16.296  23.207   1.867
28267W        W89721  31.605   2.405   4.799
28268W        W89722  18.547  16.238  11.597
28269W        W89723  34.581  29.039  11.121
28270W        W89724   8.314   2.838   2.202
28271W        W89725   2.380  39.007   0.766
28272W        W89726  36.495  40.883   5.729
28273W        W89727  14.772  14.324  12.557
28274W        W89728   1.970  16.737   4.621
28275W        W89729   1.969  12.739  13.363
28276W        W89730   9.703  25.091   4.634
28277W        W89731   6.268  29.498   1.229
28278W        W89732  38.503  35.916  12.350
28279W        W89733   9.214  28.060   0.776
28280W        W89734  43.960  19.685  12.384
28281W        W89735  17.082   3.436  12.380
28282W        W89736  15.162  40.319   9.961
28283W        W89737  35.377  38.843   0.834
28284W        W89738   5.774  32.959  11.071
28285W        W89739   3.383  13.691   0.757
28286W        W89740  24.627   9.240  14.969
28287W        W89741  33.597  30.014  10.478
28288W        W89742  15.604  10.786   0.396
28289W        W89743  21.226  32.615  12.425
28290W        W89744   4.747  17.797  12.368
28291W        W89745  39.921  30.052   0.276
28292W        W89746  20.531   5.304   2.673
28293W        W89747  39.494  38.049  14.460
28294W        W89748   9.750  14.305  13.518
28295W        W89749   4.756  30.143  12.523
28296W        W89750   4.911  15.793   5.120
28297W        W89751  12.205  19.541   2.676
28298W        W89752  34.557  42.946   1.753
28299W        W89753  30.014   3.270   5.184
28300W        W89754  39.317  40.876   5.691
28301W        W89755   4.257  40.519  10.567
28302W        W89756  17.183  39.532  13.336
28303W        W89757  23.640  31.991   2.768
28304W        W89758  39.944  10.279  13.807
28305W        W89759  13.709  26.072   3.863
28306W        W89760  41.356  31.095   0.333
28307W        W89761   5.377  43.936   0.482
28308W        W89762   9.793   8.740  11.420
28309W        W89763  17.277   8.665   2.664
28310W        W89764  23.235  13.680   2.708
28311W        W89765  37.522   3.300   1.913
28312W        W89766   4.210  29.145   4.321
28313W        W89767  12.255  26.621  11.102
28314W        W89768  26.158  37.379   2.848
28315W        W89769  38.558  37.339   9.950
28316W        W89770  20.737  37.542  11.607
28317W        W89771  43.902  37.875   1.332
28318W        W89772  32.553  19.265  12.831
28319W        W89773  19.662  39.934   3.381
28320W        W89774  34.417  25.047  14.791
28321W        W89775  39.845  28.437  10.633
28322W        W89776  12.760  10.795  12.991
28323W        W89777  15.121  24.021   2.327
28324W        W89778  10.250  16.195  12.866
28325W        W89779   5.401  30.650  12.978
28326W        W89780  42.886   6.377  12.573
28327W        W89781  37.956  38.984  10.894
28328W        W89782  34.996   7.200   1.376
28329W        W89783  44.386  26.617  10.024
28330W        W89784  13.135  13.119   2.778
28331W        W89785  28.063   8.362   4.241
28332W        W89786  19.739  22.057  12.466
28333W        W89787  42.866  44.324  13.536
28334W        W89788  23.193  31.930  10.972
28335W        W89789  19.617  22.655  10.977
28336W        W89790  36.365  19.235  14.417
28337W        W89791  24.712   5.760   4.129
28338W        W89792  17.586  16.723  12.950
28339W        W89793  42.809  12.120   2.822
28340W        W89794  43.416  30.115   1.747
28341W        W89795  37.351  26.648  13.979
28342W        W89796   9.255  42.879  14.471
28343W        W89797  20.643   9.721   2.770
28344W        W89798  34.487  13.643   0.286
28345W        W89799  29.492  40.324  12.027
28346W        W89800  41.413  28.623  14.470
28347W        W89801  15.140  37.502   1.855
28348W        W89802  12.611  37.054  10.128
28349W        W89803  40.365  40.994  10.457
28350W        W89804   5.810  21.525   3.762
28351W        W89805  35.442  30.597   3.221
28352W        W89806   5.811  41.880  13.037
28353W        W89807  34.890  28.964  10.429
28354W        W89808  19.103  42.467   1.926
28355W        W89809   8.768   0.466   2.397
28356W        W89810   0.979  11.222   2.188
28357W        W89811  24.044  27.511  11.932
28358W        W89812   4.304  44.331   1.278
28359W        W89813   7.198  36.503   0.783
28360W        W89814  38.420   2.353   3.732
28361W        W89815  42.315  20.165  11.427
28362W        W89816  21.167  39.061   4.116
28363W        W89817   6.782  24.209  10.411
28364W        W89818  30.603   2.928   0.840
28365W        W89819  34.546  26.627  10.471
28366W        W89820  19.052  13.302  13.909
28367W        W89821  10.148   4.230   2.714
28368W        W89822  20.098   0.833  13.364
28369W        W89823   1.814  25.115  11.037
28370W        W89824  25.093   7.209  10.547
28371W        W89825  31.120  21.119   1.779
28372W        W89826  27.159  28.482   0.837
28373W        W89827   9.258   1.781   4.303
28374W        W89828   9.153  20.039  13.005
28375W        W89829   1.284   1.369   1.770
28376W        W89830  38.963  31.917   1.240
28377W        W89831  33.059  42.917   2.407
28378W        W89832  40.366  39.454   2.353
28379W        W89833   0.902  13.838  11.442
28380W        W89834  18.275  11.705   1.850
28381W        W89835   7.791  40.809  13.816
28382W        W89836  36.451  42.893  14.338
28383W        W89837  41.482  15.167  14.329
28384W        W89838  43.010  31.081   4.617
28385W        W89839   7.326   4.282   1.233
28386W        W89840   8.692  35.011   2.739
28387W        W89841  40.000  16.619   4.750
28388W        W89842  12.262   6.685  14.435
28389W        W89843  25.670  37.533   2.865
28390W        W89844  25.643  42.845   4.793
28391W        W89845   1.870  12.223   4.678
28392W        W89846   0.462  12.348   3.634
28393W        W89847  10.873  30.557  12.509
28394W        W89848  30.146   2.819  14.448
28395W        W89849  26.068   4.225  14.482
28396W        W89850  22.633  42.940  13.324
28397W        W89851   0.406  15.314  13.370
28398W        W89852   5.761  25.049   1.298
28399W        W89853  20.656  12.302   4.714
28400W        W89854  21.140  27.568   0.856
28401W        W89855   7.266  38.830   1.929
28402W        W89856  31.633  33.960  10.637
28403W        W89857  30.079  10.270  13.528
28404W        W89858  13.295  39.032  10.110
28405W        W89859  31.033  11.145  13.830
28406W        W89860   6.762   3.344  10.942
28407W        W89861  24.045   4.291  14.872
28408W        W89862  15.694   8.298   1.927
28409W        W89863  37.520  24.514  12.574
28410W        W89864   9.389  19.223  14.997
28411W        W89865   3.873  22.009  14.502
28412W        W89866  26.587  40.359   3.273
28413W        W89867  40.875  25.969   0.277
28414W        W89868  44.839  24.016   3.250
28415W        W89869  26.620  18.276   3.378
28416W        W89870  20.230  25.653  13.856
28417W        W89871  27.525  30.020  14.886
28418W        W89872   5.261   7.246  11.111
28419W        W89873   7.726  19.671  14.505
28420W        W89874  11.816   9.150  13.869
28421W        W89875  37.010   8.189   0.738
28422W        W89876  17.779  14.804  14.024
28423W        W89877   3.760  21.695  11.459
28424W        W89878  18.608  24.615   4.816
28425W        W89879  42.782   8.214  11.000
28426W        W89880  36.537  16.638   4.171
28427W        W89881  24.085   7.830   1.222
28428W        W89882  19.534  17.276   1.777
28429W        W89883   6.774  40.954   3.841
28430W        W89884  33.493  31.982  11.891
28431W        W89885  32.442   9.848   1.812
28432W        W89886  32.565  29.075  12.978
28433W        W89887  36.582  26.648  14.794
28434W        W89888  31.899  10.840  14.915
28435W        W89889   4.387  28.649   4.136
28436W        W89890  39.906   6.343  10.534
28437W        W89891  44.392  12.256  14.801
28438W        W89892  33.916  38.076  12.416
28439W        W89893  44.997  29.073   0.786
28440W        W89894  30.056  19.666   2.899
28441W        W89895   3.914  25.996   1.392
28442W        W89896  18.625  30.922   2.781
28443W        W89897  22.641  13.247   3.168
28444W        W89898  33.576  34.453  10.958
28445W        W89899   8.796  43.798  11.961
28446W        W89900  39.006  43.928   0.406
28447W        W89901   5.389  29.973  10.564
28448W        W89902  39.006  44.843   1.289
28449W        W89903  10.151  11.150   1.426
28450W        W89904   1.387  24.614  13.814
28451W        W89905  43.932  32.968   2.693
28452W        W89906  23.609  24.131   3.235
28453W        W89907  14.264  36.590   5.309
28454W        W89908  43.949  25.986   2.202
28455W        W89909  19.687  43.287  12.855
28456W        W89910   9.344   9.308   0.813
28457W        W89911  27.093  38.862   3.313
28458W        W89912  38.065   0.270   1.902
28459W        W89913   9.757   6.234  11.486
28460W        W89914  37.911   1.909  14.803
28461W        W89915   9.663  22.565  12.381
28462W        W89916   0.953  30.602  14.501
28463W        W89917  15.255   9.289   3.319
28464W        W89918  44.314  44.836   1.272
28465W        W89919  42.897  16.111  14.387
28466W        W89920  18.571  40.013   3.227
28467W        W89921  27.561  11.341   9.968
28468W        W89922   1.731  13.684  14.977
28469W        W89923   1.380  32.500  12.568
28470W        W89924  43.336  12.302   1.315
28471W        W89925  13.251  23.175   4.259
28472W        W89926  36.876  28.611   4.143
28473W        W89927  44.282  30.129   2.263
28474W        W89928  29.043  11.224   3.356
28475W        W89929  25.050   9.348   5.285
28476W        W89930  24.566  42.507   1.306
28477W        W89931  41.412  13.327   0.908
28478W        W89932  41.025   2.361   4.690
28479W        W89933  28.573  32.447  14.875
28480W        W89934  42.340  37.949   1.327
28481W        W89935  43.931  27.948  13.817
28482W        W89936  13.152  24.227   0.256
28483W        W89937  38.336  41.028   4.284
28484W        W89938  16.220  26.550  14.875
28485W        W89939  26.513  11.640  11.467
28486W        W89940  28.064  17.082  14.292
28487W        W89941  12.198  15.096   2.768
28488W        W89942  24.177  22.702  14.778
28489W        W89943   6.742  30.952   0.833
28490W        W89944  21.244   6.896   1.902
28491W        W89945  38.414  12.700  11.924
28492W        W89946  12.259   6.703  12.923
28493W        W89947  34.085  23.062   4.291
28494W        W89948  32.513  16.584  14.409
28495W        W89949  20.717  40.919   3.272
28496W        W89950  41.333  19.165   4.790
28497W        W89951  25.690  36.353  12.058
28498W        W89952   5.370  29.590  14.946
28499W        W89953   1.933  21.222  13.036
28500W        W89954  41.425   0.420  10.988
28501W        W89955  10.281  20.155  13.432
28502W        W89956  23.700   8.744  10.629
28503W        W89957  44.847  43.361   4.173
28504W        W89958  38.017  34.085   1.278
28505W        W89959  28.071   6.322   4.231
28506W        W89960  44.316  31.123   0.431
28507W        W89961  21.691   1.252   1.929
28508W        W89962  30.141  21.706   1.783
28509W        W89963   2.723  18.746   3.320
28510W        W89964  41.365  15.254   0.327
28511W        W89965  40.449  14.332   5.184
28512W        W89966  28.465  28.479  13.458
28513W        W89967  33.039   3.437   4.619
28514W        W89968   8.383  25.067   0.305
28515W        W89969   0.771  42.338   4.722
28516W        W89970   5.425  32.016  12.562
28517W        W89971   1.755  25.698  12.831
28518W        W89972  38.410  36.582   0.859
28519W        W89973   5.395  28.547   1.812
28520W        W89974  41.892  26.489  10.565
28521W        W89975  32.438  17.719  11.864
28522W        W89976  38.413  26.129   4.224
28523W        W89977   2.303  42.453   3.287
28524W        W89978  43.361  20.628   4.248
28525W        W89979  24.065   3.921  12.065
28526W        W89980  19.704   6.428  11.956
28527W        W89981  31.059   8.726   0.483
28528W        W89982  34.409  10.665   1.782
28529W        W89983  40.887  37.060   3.709
28530W        W89984   9.727   6.289   1.221
28531W        W89985  31.029  34.385   4.695
28532W        W89986   4.215  37.990  11.015
28533W        W89987  12.662   8.700   3.645
28534W        W89988   5.856   0.971  14.488
28535W        W89989  26.973  15.187  10.485
28536W        W89990  11.835  42.429   4.202
28537W        W89991  16.607  10.174   0.310
28538W        W89992  14.103  33.898  10.427
28539W        W89993  10.803   3.282  10.466
28540W        W89994  43.285   0.848  13.965
28541W        W89995  32.503  20.681  12.997
28542W        W89996  10.253  26.143   4.777
28543W        W89997  26.000   6.740  10.047
28544W        W89998  17.796  32.629   1.360
28545W        W89999  29.549  39.507   3.381
28546W        W90000  30.912   0.348   4.210
28547W        W90001  18.068  32.553   0.897
28548W        W90002  15.781   3.411   4.295
28549W        W90003   5.324  28.159   2.320
28550W        W90004  20.647  23.513  14.509
28551W        W90005  20.743  12.803  12.995
28552W        W90006   6.699   7.876   4.838
28553W        W90007  24.122  20.209  11.893
28554W        W90008  39.375  39.057  14.905
28555W        W90009  27.507  35.881  11.373
28556W        W90010  44.329  40.844   2.414
28557W        W90011  40.033  24.643   0.431
28558W        W90012  17.600  35.074   3.631
28559W        W90013  14.213  26.069  14.982
28560W        W90014  34.540  32.049   1.794
28561W        W90015  33.020  33.444  10.421
28562W        W90016  19.659  29.496   3.211
28563W        W90017  11.728  21.550   4.833
28564W        W90018  12.211  40.013   3.166
28565W        W90019  31.562  43.356  12.466
28566W        W90020  27.967  18.220  14.391
28567W        W90021   6.372  36.004  10.517
28568W        W90022  10.830  30.929  14.994
28569W        W90023  42.794  35.414   3.181
28570W        W90024   4.804  31.538  14.778
28571W        W90025   7.823  40.804   0.310
28572W        W90026  35.971  40.941   0.916
28573W        W90027  28.656  10.824  11.111
28574W        W90028  12.640  25.503   3.175
28575W        W90029  36.424  18.661  11.913
28576W        W90030  26.698  14.758   3.351
28577W        W90031  18.252   8.216   3.180
28578W        W90032  30.115  36.018  14.443
28579W        W90033  15.092  37.846  14.018
28580W        W90034  26.127   8.819   4.247
28581W        W90035  38.009  43.289   2.283
28582W        W90036  19.683  30.935   2.765
28583W        W90037  43.324  19.711  12.348
28584W        W90038  39.331  23.123  11.013
28585W        W90039   6.417  44.955   4.177
28586W        W90040   8.799  26.119  12.005
28587W        W90041   5.812  41.855  14.913
28588W        W90042  19.733  16.766  14.333
28589W        W90043   4.753  13.633  14.287
28590W        W90044  35.506  23.712   1.856
28591W        W90045   4.862   1.971   3.326
28592W        W90046   2.742  10.848   3.275
28593W        W90047  15.695  30.045   3.773
28594W        W90048  12.842  24.647  14.377
28595W        W90049  39.880  27.068   4.700
28596W        W90050  22.182  15.184   2.241
28597W        W90051  32.445  40.327  11.977
28598W        W90052   6.345   3.747   3.373
28599W        W90053  26.688  16.176   2.837
28600W        W90054  38.968   2.318  12.522
28601W        W90055  33.584   4.349  14.468
28602W        W90056   6.422   6.807   0.265
28603W        W90057   7.720  43.905  12.976
28604W        W90058  27.019  18.715   4.786
28605W        W90059  25.107  44.786  10.588
28606W        W90060  13.611  23.615  14.983
28607W        W90061   1.786  28.050  13.535
28608W        W90062  44.944  40.480  12.095
28609W        W90063  27.954  23.610   1.838
28610W        W90064  35.369   5.824   0.921
28611W        W90065  33.124  31.619  14.833
28612W        W90066  32.949  40.453   1.702
28613W        W90067  37.376  18.737   3.165
28614W        W90068  21.062   1.760   2.867
28615W        W90069  19.704  11.712  14.863
28616W        W90070  14.623  40.524   1.241
28617W        W90071  37.967  31.918  12.895
28618W        W90072  22.234  14.680  13.047
28619W        W90073  17.656  17.296   3.372
28620W        W90074  38.569  35.007  10.547
28621W        W90075   1.947  19.052  12.419
28622W        W90076  38.432  39.952   0.275
28623W        W90077  32.026  43.434  11.523
28624W        W90078   0.813   4.229  11.910
28625W        W90079  12.361  33.616  13.820
28626W        W90080  30.058   2.341  13.000
28627W        W90081  19.049   1.732  10.931
28628W        W90082  42.311  10.338  13.018
28629W        W90083  30.936  36.007   2.811
28630W        W90084   1.243   8.187  13.828
28631W        W90085  42.476  27.617   3.730
28632W        W90086   9.883  41.803   3.189
28633W        W90087  21.717  40.311   0.846
28634W        W90088   7.287  14.250   4.337
28635W        W90089  42.859   3.293   2.405
28636W        W90090  42.517  34.549  10.643
28637W        W90091  28.147   6.886  10.947
28638W        W90092  28.979  18.139  10.511
28639W        W90093  26.563  38.836  11.037
28640W        W90094  25.559  17.717  11.541
28641W        W90095  37.389  44.340  10.595
28642W        W90096  30.532  19.195  11.588
28643W        W90097  23.210  44.898   4.262
28644W        W90098  42.868  23.562  11.051
28645W        W90099   3.434  37.345  11.421
28646W        W90100  34.438  35.887  14.852
28647W        W90101  15.614  39.353   4.777
28648W        W90102  17.651  18.135   0.837
28649W        W90103  29.627  43.412  14.405
28650W        W90104  11.139  38.412  12.030
28651W        W90105  24.976  26.990  12.415
28652W        W90106  12.158  14.687   4.776
28653W        W90107  35.562   2.230  11.512
28654W        W90108  41.932  28.043   1.226
28655W        W90109  20.574  38.356   2.678
28656W        W90110  16.087  12.827   1.866
28657W        W90111  42.475  44.469   0.890
28658W        W90112  42.459   7.844   0.911
28659W        W90113   6.770   1.363  14.998
28660W        W90114  23.190  34.583  12.885
28661W        W90115  18.744  17.166  10.520
28662W        W90116  39.974   5.343   3.782
28663W        W90117  12.252  38.402   4.708
28664W        W90118  32.497  27.646  12.447
28665W        W90119  27.132  17.683   0.852
28666W        W90120  43.513  35.466   0.318
28667W        W90121  22.090  26.675   3.858
28668W        W90122  25.623  43.393  11.576
28669W        W90123  10.765  19.279  11.937
28670W        W90124  33.538  23.097   0.919
28671W        W90125  39.522   9.677  10.946
28672W        W90126  31.065  34.955  11.112
28673W        W90127  40.392  29.027  10.008
28674W        W90128  12.644  40.453  13.007
28675W        W90129  37.458  21.674  14.329
28676W        W90130  33.891  10.156  12.078
28677W        W90131  36.478  44.440   2.378
28678W        W90132  22.186   5.861   5.254
28679W        W90133  44.005  14.827   2.202
28680W        W90134   1.947  27.069   0.806
28681W        W90135  20.215  35.542   3.869
28682W        W90136   1.743  26.480   5.306
28683W        W90137  12.272  20.738   0.420
28684W        W90138  16.701  19.591  10.903
28685W        W90139  26.669   2.266  11.607
28686W        W90140  19.700  10.702   0.438
28687W        W90141  17.797  44.972  13.909
28688W        W90142  37.068  16.598   0.860
28689W        W90143  26.959  40.330   3.239
28690W        W90144  10.665  43.482   3.317
28691W        W90145  22.197  13.287  12.440
28692W        W90146  11.173  23.104   1.275
28693W        W90147  43.987   9.873   3.757
28694W        W90148   4.292  23.672   1.390
28695W        W90149  24.029  24.668   2.260
28696W        W90150  22.074  42.886   3.233
28697W        W90151  10.639   2.414   0.957
28698W        W90152  17.165  40.841  13.532
28699W        W90153  33.614  22.501   3.694
28700W        W90154   2.962   9.787   3.770
28701W        W90155  20.546  24.134  13.318
28702W        W90156  27.647   0.777   2.671
28703W        W90157  14.613   9.854  11.374
28704W        W90158  26.136  25.052   1.731
28705W        W90159  16.722  28.532   1.313
28706W        W90160  41.441  33.129  14.938
28707W        W90161   9.750   2.370   1.932
28708W        W90162   4.353  20.699  10.531
28709W        W90163  41.877  34.521   2.684
28710W        W90164  44.957  20.708   1.243
28711W        W90165   2.944  38.838   0.822
28712W        W90166  37.477  11.717   3.377
28713W        W90167   8.833  29.967  10.593
28714W        W90168  36.561  10.759  12.871
28715W        W90169  12.656  38.888  12.504
28716W        W90170  24.175  11.728  13.396
28717W        W90171  39.048  25.121   2.257
28718W        W90172  38.873  34.516  14.975
28719W        W90173   4.243  42.394   4.199
28720W        W90174  37.475   7.893  12.541
28721W        W90175   7.371  43.797  11.465
28722W        W90176  42.344   0.800   4.164
28723W        W90177  21.191  17.098   2.759
28724W        W90178  23.564   5.931   2.376
28725W        W90179  13.734  28.117   1.778
28726W        W90180  34.091   9.378   2.842
28727W        W90181  26.107  27.512   3.260
28728W        W90182  20.658  11.286   3.386
28729W        W90183  39.471  40.834  11.904
28730W        W90184  16.625  10.699   0.254
28731W        W90185  35.396  23.616  12.457
28732W        W90186  20.049  10.729  11.980
28733W        W90187   7.313  26.509  12.910
28734W        W90188   9.797  23.599   0.901
28735W        W90189  38.377  26.172  12.835
28736W        W90190  33.907  21.535  13.312
28737W        W90191   1.966  20.534   4.674
28738W        W90192   0.289  10.743   0.781
28739W        W90193  22.048  31.411   2.888
28740W        W90194  42.522  23.092   2.783
28741W        W90195  19.727   1.927   4.268
28742W        W90196   2.354  19.541  14.348
28743W        W90197   2.911  44.867   0.359
28744W        W90198   3.406  12.311   0.790
28745W        W90199  38.997  11.745   5.145
28746W        W90200  10.173  35.985   2.852
28747W        W90201  14.602   9.830   3.864
28748W        W90202  13.661  44.404   4.180
28749W        W90203  11.202   2.233  11.863
28750W        W90204  23.077  27.097  11.917
28751W        W90205   3.268   7.717   3.813
28752W        W90206  26.034   7.371   0.959
28753W        W90207  33.406  19.557  13.025
28754W        W90208  39.812  44.302  10.437
28755W        W90209  26.507  39.969  11.496
28756W        W90210  13.336  36.461  11.118
28757W        W90211  10.173  12.309   3.314
28758W        W90212  12.126   4.387   2.289
28759W        W90213  31.019  35.366   2.845
28760W        W90214  10.863  30.501   4.642
28761W        W90215  17.663   1.380  14.515
28762W        W90216  44.309  23.035  11.878
28763W        W90217  35.929   4.727  13.340
28764W        W90218  15.709  44.005   0.917
28765W        W90219  15.749  21.168   1.876
28766W        W90220   0.796  42.815   3.644
28767W        W90221  11.226  23.671   4.704
28768W        W90222  25.136   8.661  13.826
28769W        W90223  39.934  27.515  13.532
28770W        W90224  21.729  35.971   4.655
28771W        W90225  40.498  14.616   3.244
28772W        W90226   6.370   4.802  14.975
28773W        W90227  31.602  40.972  12.357
28774W        W90228  25.125  41.961  14.784
28775W        W90229  15.647  38.505   1.424
28776W        W90230  20.567  25.174  14.925
28777W        W90231  15.226  21.712  10.542
28778W        W90232  19.777  41.815  11.069
28779W        W90233  36.449  17.147  12.853
28780W        W90234   7.708  12.762  12.911
28781W        W90235  10.785  35.007   1.325
28782W        W90236  24.651  31.608  14.849
28783W        W90237  20.254  13.629   1.321
28784W        W90238  36.394  44.416   3.228
28785W        W90239   0.450  20.707   0.340
28786W        W90240  20.078  21.748   0.912
28787W        W90241   0.935  26.982   3.745
28788W        W90242   0.435  14.199  11.909
28789W        W90243   2.248  23.523  14.329
28790W        W90244  28.569  44.861  14.458
28791W        W90245  21.749   2.276   3.688
28792W        W90246  19.668  32.935   2.703
28793W        W90247  33.904   6.808   1.793
28794W        W90248  23.991  19.627  10.503
28795W        W90249  29.612  28.018   0.914
28796W        W90250  23.155  15.240  10.434
28797W        W90251  22.744  16.090  13.791
28798W        W90252  32.505  34.406  13.027
28799W        W90253   1.431  19.145  14.854
28800W        W90254  23.053  29.118  12.501
28801W        W90255  28.498  31.527  11.982
28802W        W90256   1.253  29.926   3.342
28803W        W90257  31.477  30.522  14.511
28804W        W90258  40.446   9.305  12.542
28805W        W90259  33.092   4.309   0.939
28806W        W90260  10.765  34.868   2.195
28807W        W90261  23.207   0.920  14.830
28808W        W90262  32.076  44.501  11.042
28809W        W90263  20.204  44.261  10.601
28810W        W90264  20.595  36.016  12.955
28811W        W90265  15.313   3.362  10.458
28812W        W90266  38.407  23.217  14.791
28813W        W90267  13.634   7.375   3.213
28814W        W90268  39.439  33.481   1.318
28815W        W90269  10.261  30.523  11.610
28816W        W90270  37.476  30.964  10.453
28817W        W90271  40.344  21.027  10.577
28818W        W90272  43.806  38.987  11.859
28819W        W90273  32.984   9.342  11.525
28820W        W90274   6.186  44.817   3.719
28821W        W90275  31.439  32.500   3.760
28822W        W90276  27.664   1.750  11.014
28823W        W90277   2.789   1.358  11.539
28824W        W90278   0.855   2.878   1.384
28825W        W90279  29.449  29.568  14.296
28826W        W90280   8.195  43.297   1.742
28827W        W90281   8.681  20.648   4.690
28828W        W90282   4.730  39.908  10.887
28829W        W90283   6.203  17.778  10.940
28830W        W90284  24.003  24.563   1.430
28831W        W90285   4.310   7.248  12.399
28832W        W90286  38.838  41.939   3.663
28833W        W90287  34.577  16.777   3.183
28834W        W90288   9.287   8.322   2.308
28835W        W90289   2.433  18.558   0.823
28836W        W90290  14.831  19.611   2.227
28837W        W90291  27.146  38.876  11.457
28838W        W90292  33.989  37.394  14.936
28839W        W90293   2.402  42.394   0.295
28840W        W90294   2.429  35.093  12.386
28841W        W90295  14.314  21.618  14.861
28842W        W90296  25.137  11.623   4.709
28843W        W90297  28.612  11.273  10.474
28844W        W90298  31.020   3.830   3.724
28845W        W90299  15.627  20.662   4.120
28846W        W90300  22.151  16.307   1.706
28847W        W90301  20.736  31.494  13.966
28848W        W90302  42.861  20.701  13.931
28849W        W90303  31.455   5.855   0.869
28850W        W90304  14.196   7.686  14.828
28851W        W90305  24.640  33.514   4.779
28852W        W90306  37.914   3.828   1.321
28853W        W90307  15.777  22.175  13.479
28854W        W90308  17.185  30.972   0.297
28855W        W90309  32.995  39.515  13.379
28856W        W90310  34.038   9.242   3.631
28857W        W90311   3.894  24.986   1.229
28858W        W90312  44.928   7.390  10.899
28859W        W90313  30.591  42.348   1.382
28860W        W90314  12.633  20.746   2.700
28861W        W90315  18.090   3.844   3.147
28862W        W90316  25.080  15.741  12.042
28863W        W90317  35.986  13.653   1.888
28864W        W90318  27.080  17.168  11.985
28865W        W90319  30.922  16.625   4.700
28866W        W90320  27.510  41.980   3.786
28867W        W90321  23.542  24.666  11.014
28868W        W90322  19.764  34.430  13.451
28869W        W90323  34.080  25.028  13.915
28870W        W90324  16.627   6.908  12.904
28871W        W90325  21.590  16.111  13.006
28872W        W90326  43.433  17.253  12.576
28873W        W90327   8.161   2.816  13.039
28874W        W90328  14.725  17.641  12.442
28875W        W90329   8.181  36.070   0.771
28876W        W90330   9.777  28.463  14.831
28877W        W90331  27.505  40.857  14.403
28878W        W90332  25.682  44.415   3.737
28879W        W90333  31.561  18.622   2.795
28880W        W90334  40.968  33.986   1.773
28881W        W90335   5.801  27.993  12.995
28882W        W90336  36.017  22.131   0.257
28883W        W90337  31.526  23.194   1.715
28884W        W90338  24.639  37.909   1.758
28885W        W90339  15.191  12.664  12.028
28886W        W90340  41.395  31.548   1.701
28887W        W90341  44.908   8.740  11.068
28888W        W90342   0.377  15.623   4.267
28889W        W90343  30.067  18.151   3.812
28890W        W90344  21.674  35.039  14.869
28891W        W90345  10.139  32.502  11.452
28892W        W90346   3.375  19.232  12.017
28893W        W90347  13.655  16.318  12.992
28894W        W90348  39.361   4.304  14.301
28895W        W90349  11.865   1.783   2.359
28896W        W90350  12.841  37.524  13.310
28897W        W90351  14.123  42.377   9.649
28898W        W90352  36.078  28.124  14.760
28899W        W90353   7.744  21.579  12.377
28900W        W90354  26.151  13.320   0.943
28901W        W90355  17.705  44.875  10.617
28902W        W90356  41.938  41.900   4.122
28903W        W90357   1.746   5.893  12.887
28904W        W90358   7.863   3.305  12.470
28905W        W90359   9.191  18.643  13.947
28906W        W90360  32.941   7.695   3.364
28907W        W90361  26.581  37.903  12.407
28908W        W90362   3.778   3.342   2.354
28909W        W90363  39.881  11.204  14.514
28910W        W90364  19.718   5.924  14.435
28911W        W90365   9.770  27.580  13.820
28912W        W90366  18.235  44.265  14.790
28913W        W90367   7.903  25.643  13.054
28914W        W90368  24.165   5.933  12.998
28915W        W90369  40.506   1.313  12.525
28916W        W90370  20.691   0.440  12.353
28917W        W90371  35.901  25.005  12.086
28918W        W90372  18.116  37.350   0.480
28919W        W90373  27.996  29.637   3.189
28920W        W90374  29.458  41.954  11.498
28921W        W90375  18.749  26.542   5.261
28922W        W90376   1.927  28.550  12.486
28923W        W90377  31.081  18.682   0.301
28924W        W90378  42.332  33.058   4.768
28925W        W90379   4.840  12.715   2.234
28926W        W90380  33.914  25.170  11.539
28927W        W90381   3.391  13.209   3.311
28928W        W90382  29.168  25.479   4.347
28929W        W90383  43.342   3.218  12.856
28930W        W90384  37.031  10.857   4.655
28931W        W90385  40.511   2.777  14.801
28932W        W90386  37.547  39.354   3.710
28933W        W90387  10.304   9.705  11.578
28934W        W90388  16.584  27.557  11.111
28935W        W90389  30.923   6.727   1.828
28936W        W90390  38.546  10.325   2.835
28937W        W90391   9.335  24.075   0.303
28938W        W90392   9.194  31.602  11.938
28939W        W90393  29.562  25.000   1.392
28940W        W90394   7.253   1.332  13.982
28941W        W90395  39.333  22.558   4.258
28942W        W90396  37.461  18.153   2.397
28943W        W90397  31.125   7.390  11.030
28944W        W90398  37.477  44.818  11.527
28945W        W90399  27.622  30.036  14.423
28946W        W90400  16.127   2.738   3.780
28947W        W90401   5.720  42.400   4.258
28948W        W90402  23.117  30.559   2.375
28949W        W90403  43.809  30.428  11.457
28950W        W90404   9.158  19.726  13.396
28951W        W90405  26.557  13.305  12.862
28952W        W90406   6.696  23.676   1.862
28953W        W90407  27.517  44.861   1.898
28954W        W90408  36.067  24.677   4.684
28955W        W90409  43.448  25.592  12.553
28956W        W90410  36.427  35.401   3.310
28957W        W90411   7.718  17.132  12.499
28958W        W90412   0.930  24.102  14.907
28959W        W90413  37.084  37.387  11.432
28960W        W90414   0.937  42.992  12.067
28961W        W90415   0.340  23.998  11.114
28962W        W90416  22.201   0.901   4.228
28963W        W90417  33.097  44.369   4.702
28964W        W90418   9.786  24.185   3.355
28965W        W90419  30.109  13.757   4.283
28966W        W90420  16.266  40.889  11.935
28967W        W90421  27.627  27.012  12.878
28968W        W90422  44.928  30.657   1.752
28969W        W90423  37.935  20.032  13.926
28970W        W90424  19.632  33.066   1.326
28971W        W90425  17.180  11.650  11.398
28972W        W90426  32.056  39.363   4.203
28973W        W90427   4.215  29.934   2.190
28974W        W90428  30.064  39.363   1.232
28975W        W90429  16.120  15.215  11.520
28976W        W90430  42.346  30.157  12.479
28977W        W90431  39.387  42.505   3.257
28978W        W90432  34.531  16.300   0.862
28979W        W90433   3.921  19.626   5.120
28980W        W90434  15.092   2.261  14.882
28981W        W90435  35.871  34.081  11.469
28982W        W90436  16.642   1.384   4.743
28983W        W90437  28.178  17.268  13.915
28984W        W90438   5.215  30.540   1.416
28985W        W90439   3.814  43.998   3.742
28986W        W90440  40.355  12.761   3.362
28987W        W90441  23.038   2.917  13.040
28988W        W90442   0.369   6.350  13.307
28989W        W90443  27.615  39.340  11.545
28990W        W90444  29.669  28.676  10.990
28991W        W90445  15.753  44.284   3.849
28992W        W90446  20.047   4.416   3.854
28993W        W90447   7.705  18.093   1.880
28994W        W90448  40.995   8.665  14.995
28995W        W90449  39.984  29.083  11.990
28996W        W90450  44.883   8.886  14.439
28997W        W90451  43.420   7.183  12.906
28998W        W90452  33.898   5.881   4.232
28999W        W90453  39.391  26.528  12.947
29000W        W90454  43.803  39.356  14.025
29001W        W90455  36.048  13.299  12.095
29002W        W90456  13.300  30.413  10.060
29003W        W90457  14.250  33.970  13.833
29004W        W90458  42.389  10.721   2.258
29005W        W90459   4.863  32.050   0.375
29006W        W90460   4.856  35.947  10.994
29007W        W90461   9.882  22.723  14.353
29008W        W90462  12.332  32.011   2.792
29009W        W90463  35.935  43.003  10.593
29010W        W90464  26.489  42.497   0.873
29011W        W90465  38.502  29.007   4.336
29012W        W90466  31.558  20.752  13.479
29013W        W90467   0.858  30.603   5.315
29014W        W90468  10.268   0.938  12.551
29015W        W90469  18.562  35.071  10.580
29016W        W90470  13.164  38.881  12.538
29017W        W90471  18.545  17.164   3.669
29018W        W90472  14.645  28.614  13.814
29019W        W90473  20.051   2.280  14.424
29020W        W90474  21.643   9.159  14.934
29021W        W90475   6.388  38.458   4.604
29022W        W90476  31.572  26.986  11.888
29023W        W90477  12.762  20.224   4.762
29024W        W90478  40.836  27.629  13.405
29025W        W90479  20.271  31.405  12.343
29026W        W90480  40.315  20.766   1.212
29027W        W90481  27.465  44.890  14.460
29028W        W90482  21.104   9.817   3.724
29029W        W90483  31.545  29.516   0.337
29030W        W90484  22.008  43.463   3.681
29031W        W90485  38.429  35.898   0.457
29032W        W90486  23.626  26.174  11.071
29033W        W90487  44.802  20.525  13.418
29034W        W90488   6.793   7.208   4.168
29035W        W90489  23.620  11.210   3.871
29036W        W90490   8.796  16.207   1.812
29037W        W90491  34.440   5.355   3.164
29038W        W90492  21.037  40.425  12.433
29039W        W90493  35.589  43.830  11.905
29040W        W90494  15.675  11.190   1.792
29041W        W90495  13.176   9.793   2.215
29042W        W90496   5.782  43.968   2.823
29043W        W90497   8.687   0.449   4.729
29044W        W90498  30.079  30.416  14.892
29045W        W90499  29.070  24.163  12.345
29046W        W90500  15.149  19.578  10.918
29047W        W90501   3.735  29.133   0.473
29048W        W90502   0.257  10.858   2.862
29049W        W90503   2.877  37.393  11.604
29050W        W90504  39.390  34.573   3.704
29051W        W90505  31.444  37.018   1.400
29052W        W90506  44.819  10.221  10.106
29053W        W90507  27.995  18.160  10.071
29054W        W90508  35.867  22.084   3.840
29055W        W90509  22.047  26.457   2.883
29056W        W90510  33.442   8.689  13.516
29057W        W90511  29.556  19.645  12.948
29058W        W90512  31.007  17.243  10.581
29059W        W90513  12.724   7.398  10.972
29060W        W90514  27.678  38.912  11.501
29061W        W90515  10.195   8.355  13.435
29062W        W90516  32.035  30.570  10.413
29063W        W90517   0.330   1.732   2.403
29064W        W90518  41.310  32.090  10.481
29065W        W90519  10.825  31.637  13.806
29066W        W90520   9.295   5.431   0.254
29067W        W90521  16.596   5.344  10.972
29068W        W90522   1.788  40.412  13.973
29069W        W90523  19.111  32.927   2.383
29070W        W90524  33.551  37.898  11.044
29071W        W90525  33.099  26.531  13.514
29072W        W90526  16.098   8.176  11.530
29073W        W90527  28.087  42.846   2.403
29074W        W90528   2.935  27.195  14.956
29075W        W90529   7.693  15.824   4.785
29076W        W90530  38.354  16.789  13.395
29077W        W90531  15.631  15.818   3.246
29078W        W90532  42.784  22.603  11.420
29079W        W90533   3.824  37.396  11.968
29080W        W90534  13.720  18.679   3.146
29081W        W90535  12.694   5.197  14.437
29082W        W90536  27.510  20.575  14.813
29083W        W90537  33.965  17.170   1.729
29084W        W90538  44.812  38.401  11.076
29085W        W90539   4.841  11.256   1.753
29086W        W90540  33.502  38.384   2.303
29087W        W90541   2.869  15.616  13.493
29088W        W90542  44.978  32.941  10.565
29089W        W90543  40.395  32.584   1.259
29090W        W90544  42.868  13.266   4.331
29091W        W90545  40.802  12.305  10.443
29092W        W90546   9.177  25.063  14.413
29093W        W90547  26.026  15.807   4.146
29094W        W90548  42.470  19.739   4.825
29095W        W90549  20.684  10.230   1.396
29096W        W90550  16.696  37.047  13.845
29097W        W90551  14.228  37.407  13.340
29098W        W90552  20.069   6.321  11.890
29099W        W90553  10.833  38.545   1.426
29100W        W90554   1.417  10.209  11.950
29101W        W90555  16.788  15.127   4.714
29102W        W90556  31.474   9.852   9.958
29103W        W90557   8.197  10.358   2.861
29104W        W90558  23.693  19.171  14.282
29105W        W90559  21.716   1.752  10.953
29106W        W90560  27.473  13.801  13.519
29107W        W90561  21.637  16.621  11.908
29108W        W90562   2.278  44.476  10.105
29109W        W90563  12.727  22.598   3.334
29110W        W90564  11.841  13.323  12.020
29111W        W90565  16.619   6.265  11.412
29112W        W90566  12.827  40.401   1.294
29113W        W90567  29.563  15.640   4.258
29114W        W90568  33.902  39.903  13.356
29115W        W90569  37.949   4.396  12.997
29116W        W90570   5.885  28.584   3.869
29117W        W90571  28.634  17.783  14.298
29118W        W90572   4.421   9.658   4.277
29119W        W90573  30.589  31.527   2.900
29120W        W90574  35.359  24.097   1.793
29121W        W90575  26.988  30.992  12.867
29122W        W90576  11.770  21.198  12.496
29123W        W90577   6.777  41.950   0.321
29124W        W90578  39.472  33.924  13.388
29125W        W90579  17.286  37.395   5.310
29126W        W90580  35.914  33.889  14.315
29127W        W90581  30.925   8.834  12.841
29128W        W90582   3.927  30.656  14.867
29129W        W90583   9.279  42.447   0.264
29130W        W90584  43.453  34.082   3.186
29131W        W90585  17.236   1.380   2.861
29132W        W90586  22.028  19.077   4.148
29133W        W90587  24.149  24.003   1.781
29134W        W90588   7.729  27.133  11.050
29135W        W90589  13.812  37.053  14.363
29136W        W90590   3.234  39.865  14.997
29137W        W90591  31.069   1.425   2.876
29138W        W90592  37.538   3.931  12.527
29139W        W90593  28.589  28.114  11.899
29140W        W90594  35.929  19.216   3.663
29141W        W90595  36.591   9.280   3.242
29142W        W90596  26.526  28.494  13.399
29143W        W90597  33.511   4.448   0.857
29144W        W90598  33.573  13.715   2.401
29145W        W90599  27.132  27.996  10.143
29146W        W90600   7.320  22.057  14.882
29147W        W90601  43.407  33.489   3.266
29148W        W90602  12.345  35.900   2.261
29149W        W90603  14.334   7.212   3.646
29150W        W90604   2.245  35.077   4.285
29151W        W90605  35.855  44.487   3.794
29152W        W90606  34.544  25.074  12.341
29153W        W90607  20.093  43.297  12.513
29154W        W90608  14.155  20.646  12.884
29155W        W90609  26.093   4.825   2.803
29156W        W90610  30.629  28.620   1.356
29157W        W90611  27.081  14.733   2.309
29158W        W90612   1.754  28.550  14.279
29159W        W90613   2.774   7.801   1.257
29160W        W90614   4.286   4.396  12.371
29161W        W90615  30.435   6.385  13.842
29162W        W90616  19.223  22.527   0.866
29163W        W90617  35.952  36.024   4.804
29164W        W90618  36.056  42.488   1.911
29165W        W90619  43.799   4.852  11.901
29166W        W90620  14.153   3.861  11.869
29167W        W90621  18.697  14.728  14.393
29168W        W90622  20.706  37.447   2.283
29169W        W90623  35.853  28.972  12.879
29170W        W90624  14.614   4.227   1.804
29171W        W90625  21.034  16.649   2.383
29172W        W90626  17.759  12.623  11.539
29173W        W90627  39.482   7.880  12.900
29174W        W90628   3.920   6.355  13.978
29175W        W90629   4.272  14.665  13.307
29176W        W90630  21.566  26.125  12.908
29177W        W90631  16.769   9.288  10.992
29178W        W90632   5.289  34.463   1.236
29179W        W90633  16.612  16.788   1.305
29180W        W90634  43.962  20.072   0.964
29181W        W90635  29.156  36.963  13.833
29182W        W90636  43.881   6.389   2.840
29183W        W90637  14.262  39.542   2.419
29184W        W90638  25.016  34.417   3.287
29185W        W90639   2.299  32.920  11.396
29186W        W90640  42.817  24.703  10.597
29187W        W90641  41.429   3.807  13.461
29188W        W90642   4.313  19.074   0.382
29189W        W90643  25.527  26.568   3.149
29190W        W90644   0.912   6.845  11.114
29191W        W90645  21.689  16.811  11.398
29192W        W90646  25.150  21.727  14.821
29193W        W90647  35.049  27.194  11.042
29194W        W90648  11.337  26.527   0.860
29195W        W90649   6.806  26.141  11.408
29196W        W90650  42.291   2.441   2.742
29197W        W90651  13.327  39.053   2.260
29198W        W90652  12.300  37.504  11.904
29199W        W90653  28.452  41.313  12.061
29200W        W90654  29.624  26.535  10.115
29201W        W90655  22.624  20.747  13.436
29202W        W90656  31.526  38.832   0.362
29203W        W90657  21.587  31.532  11.554
29204W        W90658  21.633  20.184   3.830
29205W        W90659   6.902   0.423  11.434
29206W        W90660   2.362  11.806  12.552
29207W        W90661  15.245  33.502  11.489
29208W        W90662  26.050  10.810   3.863
29209W        W90663  18.143  13.313  11.024
29210W        W90664  20.671  44.901   4.288
29211W        W90665  15.175  44.262  14.850
29212W        W90666  12.809  32.969  12.413
29213W        W90667   6.225  16.294  12.569
29214W        W90668  18.555  10.323  11.569
29215W        W90669  11.364   8.272  10.934
29216W        W90670   2.444  42.884   3.753
29217W        W90671  24.595  38.348  14.767
29218W        W90672  26.474   7.907   5.240
29219W        W90673  40.492   1.822  13.050
29220W        W90674  23.042  35.955   4.157
29221W        W90675  24.054  29.967  10.641
29222W        W90676   6.424  12.246   3.683
29223W        W90677  33.883  24.144   3.349
29224W        W90678  10.817   5.349   3.841
29225W        W90679  39.021  16.652   4.758
29226W        W90680  40.506   6.325  11.887
29227W        W90681  32.594  42.028   2.691
29228W        W90682  13.836  41.793  12.518
29229W        W90683   3.865  42.789  14.935
29230W        W90684  28.444  16.759  11.899
29231W        W90685  40.383  42.394  13.004
29232W        W90686   1.916  26.180   4.708
29233W        W90687  41.895  37.061  11.128
29234W        W90688  35.090  26.959   3.809
29235W        W90689   3.719  29.616   0.836
29236W        W90690   3.397  15.799  14.454
29237W        W90691  33.981   7.290  14.761
29238W        W90692  28.674  36.574  10.610
29239W        W90693  30.130  23.639  12.057
29240W        W90694  33.955  26.192   0.316
29241W        W90695  17.741   7.860  10.933
29242W        W90696   7.201  38.356   2.730
29243W        W90697  30.957  33.931  14.285
29244W        W90698   4.730   3.225   5.167
29245W        W90699  42.338  35.469   2.866
29246W        W90700  30.025  35.997   4.773
29247W        W90701  37.429  11.362  12.057
29248W        W90702  19.068  12.179  14.984
29249W        W90703  19.103  39.422   0.381
29250W        W90704  28.621  29.014   2.702
29251W        W90705  33.038  18.050   0.844
29252W        W90706  28.478  27.125   4.225
29253W        W90707  39.400  41.825   0.732
29254W        W90708  28.676   9.779  14.925
29255W        W90709  40.307   8.337   4.277
29256W        W90710  41.867  34.401  14.305
29257W        W90711  42.446   3.885   1.702
29258W        W90712  41.301  36.965  10.598
29259W        W90713   6.737  26.148  13.008
29260W        W90714  40.479  44.315   2.804
29261W        W90715  22.089  11.713  13.952
29262W        W90716  36.061  22.528   2.788
29263W        W90717   4.703  10.870   2.803
29264W        W90718  29.642  35.429  13.466
29265W        W90719  20.757   7.792   2.253
29266W        W90720  38.480  36.931  13.953
29267W        W90721  43.803   4.702   0.388
29268W        W90722  38.530  37.054   4.279
29269W        W90723  32.056  40.490  14.354
29270W        W90724   3.813  32.996  14.482
29271W        W90725  41.023   6.241  12.000
29272W        W90726  10.816  36.519   3.667
29273W        W90727  18.075  12.284   3.737
29274W        W90728  35.413  12.355  10.946
29275W        W90729  32.075   1.294   1.411
29276W        W90730   5.299  23.072   1.912
29277W        W90731  21.159  21.700   2.400
29278W        W90732  33.546  15.781   0.414
29279W        W90733  24.519  11.803  12.364
29280W        W90734  23.210  35.016   2.317
29281W        W90735  12.317  34.988  14.907
29282W        W90736  20.535   4.717   2.673
29283W        W90737  27.544  27.598  10.968
29284W        W90738  43.461  43.440   0.278
29285W        W90739  13.734  22.053  11.603
29286W        W90740  15.154  26.680  11.602
29287W        W90741  42.775  26.469   3.831
29288W        W90742  17.801  42.801  12.891
29289W        W90743  26.031  40.407  14.784
29290W        W90744  32.594  30.555   2.351
29291W        W90745  13.726  21.711  11.015
29292W        W90746  16.727  17.663   2.700
29293W        W90747   3.734  24.591  10.992
29294W        W90748   0.835  26.992   1.432
29295W        W90749  16.153  21.539  11.586
29296W        W90750  20.548  44.386   2.283
29297W        W90751   0.927   7.778   2.708
29298W        W90752  23.690  13.700  10.513
29299W        W90753  42.931   7.231  13.900
29300W        W90754  43.435   1.302   3.709
29301W        W90755  12.671  41.528   4.156
29302W        W90756  41.955  13.144  14.838
29303W        W90757   9.250  31.410   2.710
29304W        W90758  18.269  20.147   2.366
29305W        W90759   1.806  35.503   3.788
29306W        W90760  33.483  18.271  12.356
29307W        W90761  25.592  20.136  14.844
29308W        W90762   6.723  26.566  11.927
29309W        W90763  24.104  17.681  14.297
29310W        W90764  38.398  15.627   3.333
29311W        W90765  30.642  34.900  11.995
29312W        W90766  30.098  26.576   4.251
29313W        W90767   8.792  30.107   3.836
29314W        W90768  22.518  26.057  11.958
29315W        W90769   6.856  17.068  11.512
29316W        W90770  42.332   5.298  10.544
29317W        W90771   1.975   0.795  12.090
29318W        W90772  43.308  38.850   1.393
29319W        W90773  35.890  32.407   1.263
29320W        W90774  18.728  40.413  14.791
29321W        W90775  27.138  14.749  14.488
29322W        W90776  35.430  22.234  13.350
29323W        W90777  32.565   8.272  11.859
29324W        W90778   9.644  24.516  13.498
29325W        W90779   9.217  12.320   1.734
29326W        W90780  27.073   2.837   3.158
29327W        W90781  44.480  31.990  13.803
29328W        W90782  27.655  28.010  14.353
29329W        W90783  23.669  37.944  10.434
29330W        W90784  26.687  41.913   0.310
29331W        W90785  11.690  35.438  13.062
29332W        W90786   8.662  15.792   3.784
29333W        W90787  35.541  23.217   2.796
29334W        W90788  35.433  14.751   4.791
29335W        W90789  16.316  11.800   2.663
29336W        W90790  30.026  35.078  10.548
29337W        W90791  31.608  35.060  11.008
29338W        W90792   9.865   5.689   2.219
29339W        W90793  44.935  15.091  10.460
29340W        W90794  38.907  16.798  12.557
29341W        W90795  41.853  42.852  12.065
29342W        W90796  26.458  22.667   4.269
29343W        W90797   0.863  10.821   3.302
29344W        W90798  24.153   5.370  13.362
29345W        W90799  12.753   7.859   4.742
29346W        W90800  23.617  43.487   3.653
29347W        W90801  28.970  34.524   2.296
29348W        W90802  24.538  38.020  10.541
29349W        W90803  23.025  28.444   2.784
29350W        W90804  27.978  38.338   0.327
29351W        W90805  37.020  15.664   4.652
29352W        W90806  21.676  31.932   2.220
29353W        W90807  20.598   1.392  14.322
29354W        W90808  32.139   9.697   0.916
29355W        W90809  35.089  32.537  13.343
29356W        W90810   5.266  14.323  11.935
29357W        W90811  20.082  38.938   3.698
29358W        W90812  28.141  40.322  13.447
29359W        W90813   0.913  43.005  12.352
29360W        W90814  39.514  42.457   2.748
29361W        W90815  22.506  18.142  14.472
29362W        W90816  21.066  36.967   0.258
29363W        W90817  27.997  10.257   2.198
29364W        W90818  26.022  17.785   0.436
29365W        W90819  13.642  21.092  11.377
29366W        W90820  35.061  35.875   0.458
29367W        W90821   3.377  33.419  12.047
29368W        W90822   9.212   4.244   2.834
29369W        W90823  40.346  11.236  13.372
29370W        W90824  32.596   1.783   1.269
29371W        W90825  23.168  14.745   2.805
29372W        W90826  34.951  24.083   3.179
29373W        W90827  26.137   1.898   3.870
29374W        W90828   7.306  18.735  13.976
29375W        W90829  41.518  18.593  13.046
29376W        W90830  33.063  29.499   1.355
29377W        W90831  43.380   8.364   1.275
29378W        W90832  21.163  25.072   3.340
29379W        W90833  38.022   1.382  12.380
29380W        W90834  25.205  10.647  13.894
29381W        W90835  29.517  37.565  11.040
29382W        W90836  26.570   7.670  13.361
29383W        W90837  40.949   7.827  13.306
29384W        W90838  14.257  42.326   5.252
29385W        W90839   7.207   6.240  11.071
29386W        W90840  42.023  23.681   2.691
29387W        W90841  22.208   6.686  14.830
29388W        W90842  28.600   7.291  12.882
29389W        W90843  21.026  25.569   4.718
29390W        W90844   0.308  20.089   2.383
29391W        W90845  17.248   9.379   2.688
29392W        W90846   7.262  23.034  12.419
29393W        W90847  42.831  43.969  14.314
29394W        W90848  39.926  31.535  11.976
29395W        W90849  32.057  34.416  14.398
29396W        W90850   2.911  32.052  13.332
29397W        W90851   1.879   0.451   0.887
29398W        W90852  36.357   8.261  11.566
29399W        W90853  39.871  19.243  11.062
29400W        W90854  14.117  31.570   1.852
29401W        W90855   9.828  34.544   0.938
29402W        W90856   5.196  43.406  12.087
29403W        W90857  28.495   1.903  10.449
29404W        W90858  33.593  26.967  13.932
29405W        W90859  37.974   7.392  11.108
29406W        W90860   8.867  33.045   9.493
29407W        W90861  40.980  22.998   1.413
29408W        W90862  31.582  34.484   4.181
29409W        W90863  44.328   8.665  13.350
29410W        W90864  18.055  16.592  12.908
29411W        W90865  26.577   5.773  12.531
29412W        W90866  19.773  27.506   3.713
29413W        W90867   7.823   4.918   2.379
29414W        W90868  11.794  10.827  11.509
29415W        W90869  44.819   0.752  13.502
29416W        W90870  15.760  11.174  14.363
29417W        W90871  30.479  35.972  13.869
29418W        W90872  31.453  32.500  12.463
29419W        W90873  10.352  31.033  14.410
29420W        W90874   9.158  10.276  14.796
29421W        W90875  11.330   6.369  10.985
29422W        W90876  14.768  24.120  11.006
29423W        W90877  28.164  32.597   4.167
29424W        W90878  22.183  28.638   4.287
29425W        W90879   3.948  19.690  12.921
29426W        W90880  16.585  21.054   1.392
29427W        W90881  24.132  18.674  14.307
29428W        W90882  17.668  20.092  12.396
29429W        W90883  24.677  28.466  14.493
29430W        W90884   8.276  42.776   3.269
29431W        W90885  43.280  39.555  10.426
29432W        W90886  30.956  22.647   1.363
29433W        W90887  39.060  44.860   1.771
29434W        W90888  13.777  18.677  10.939
29435W        W90889  18.553  34.032  12.368
29436W        W90890  33.911  12.324   1.279
29437W        W90891   9.861  29.983   2.367
29438W        W90892   3.882  15.105   0.790
29439W        W90893  19.548  44.761   3.716
29440W        W90894   0.890  42.838   1.809
29441W        W90895  25.139  19.623   1.754
29442W        W90896  20.214   1.811   3.215
29443W        W90897  28.161  37.944  11.980
29444W        W90898  39.847  37.498   3.640
29445W        W90899  41.963   3.235  14.480
29446W        W90900   4.849  23.593   2.834
29447W        W90901  21.262  12.226  12.890
29448W        W90902  41.041   9.303   2.304
29449W        W90903  29.643  14.630   0.955
29450W        W90904  23.577   9.340   0.385
29451W        W90905  15.682  34.461   3.697
29452W        W90906  12.211  34.037   0.269
29453W        W90907  37.838   9.704  13.413
29454W        W90908  40.035  37.932  11.391
29455W        W90909   6.362  23.601  10.599
29456W        W90910  16.770   3.835  10.562
29457W        W90911  32.628  32.473   1.917
29458W        W90912  37.929  23.059   4.212
29459W        W90913  14.332   5.348   3.387
29460W        W90914   3.256  28.146   4.668
29461W        W90915  35.962  38.854  11.485
29462W        W90916  38.982   8.263   3.676
29463W        W90917  39.828   2.292  14.308
29464W        W90918  32.913  32.927  10.948
29465W        W90919  30.503  29.556   4.815
29466W        W90920  42.974  17.645  12.832
29467W        W90921  12.693  15.710   0.421
29468W        W90922  43.966  11.657   1.306
29469W        W90923   1.966  13.289   4.298
29470W        W90924   3.898  38.442  13.961
29471W        W90925  37.484  36.933  10.134
29472W        W90926  17.712  14.102   3.381
29473W        W90927  22.033  26.563   3.321
29474W        W90928  27.481  24.617  13.026
29475W        W90929  35.477  41.525   1.881
29476W        W90930   4.702  29.964  14.009
29477W        W90931  42.011   3.848   2.339
29478W        W90932  24.997  35.464  12.357
29479W        W90933  27.661  24.153   3.322
29480W        W90934  36.877  15.647   1.211
29481W        W90935  13.660   3.231  12.488
29482W        W90936  19.617  28.946  11.568
29483W        W90937  25.490  36.056   2.367
29484W        W90938  18.620  43.476   2.780
29485W        W90939  14.708  19.728   3.862
29486W        W90940  25.572  33.517  12.867
29487W        W90941  21.070   3.946  12.453
29488W        W90942  25.509  22.723  11.909
29489W        W90943  28.977  30.917  10.542
29490W        W90944  41.346   7.887  12.877
29491W        W90945   6.399  44.291   3.189
29492W        W90946  35.989  18.712  11.521
29493W        W90947  36.571  42.917  10.404
29494W        W90948  34.609  12.162   4.233
29495W        W90949  43.453  16.307  10.620
29496W        W90950  25.629   6.218  14.433
29497W        W90951  13.299  14.335   3.304
29498W        W90952  22.214  38.888   1.915
29499W        W90953   7.245  15.693  14.855
29500W        W90954  25.503  23.224  14.923
29501W        W90955   3.723  21.205   2.208
29502W        W90956  21.137  12.324   0.895
29503W        W90957  17.172   9.226   1.432
29504W        W90958   0.277  44.459   3.774
29505W        W90959  28.114  33.008   3.729
29506W        W90960  44.373  16.200  12.841
29507W        W90961  32.562  31.003   2.788
29508W        W90962   2.368   5.399  10.406
29509W        W90963  36.866  39.045  13.355
29510W        W90964  44.376  23.657   3.276
29511W        W90965  36.355   9.327  14.805
29512W        W90966  39.354  36.974  10.433
29513W        W90967  18.787  13.296  14.835
29514W        W90968  15.768  21.610  13.479
29515W        W90969  26.596  28.557   3.635
29516W        W90970   4.855   9.355  11.900
29517W        W90971  18.561  11.269  11.482
29518W        W90972  10.741  26.160  14.303
29519W        W90973  15.101   5.746  14.785
29520W        W90974  10.162  10.295   2.283
29521W        W90975  23.169  28.501  14.485
29522W        W90976  24.187   9.741  10.508
29523W        W90977   3.460  14.765  13.412
29524W        W90978  28.138   7.406  13.309
29525W        W90979  24.656  27.009  12.374
29526W        W90980  12.648  37.884   5.192
29527W        W90981   5.297  29.139   1.770
29528W        W90982  23.171  28.978   1.290
29529W        W90983  43.350  19.730  11.478
29530W        W90984   4.769  32.065   2.784
29531W        W90985   8.777  11.246   3.308
29532W        W90986   7.397  15.316   2.788
29533W        W90987   9.393  36.911   3.320
29534W        W90988  44.924  23.039   0.352
29535W        W90989  28.975  11.237  12.518
29536W        W90990  15.222  17.725   1.808
29537W        W90991   4.819  27.494  13.329
29538W        W90992  41.994  17.589   3.719
29539W        W90993  38.467  13.632  12.064
29540W        W90994  18.730  17.631  14.941
29541W        W90995  30.988  31.088  11.585
29542W        W90996   0.487  22.739   4.670
29543W        W90997   9.808  11.697   2.197
29544W        W90998  24.177  37.014   0.344
29545W        W90999   5.858   4.856   3.668
29546W        W91000   7.185  12.748   0.937
29547W        W91001  27.613  17.064  10.963
29548W        W91002  33.881  35.492  13.805
29549W        W91003  44.343   1.733  10.919
29550W        W91004  24.121  17.691   3.640
29551W        W91005  42.442  12.854  12.412
29552W        W91006  41.916  13.300   2.722
29553W        W91007  31.454  10.353  10.054
29554W        W91008  27.035  40.982   4.165
29555W        W91009  29.482  26.621   0.374
29556W        W91010  42.827  25.041  10.536
29557W        W91011  34.381  44.443   4.246
29558W        W91012  15.233  29.503   4.164
29559W        W91013  42.345  25.543  11.384
29560W        W91014  10.790  11.243   4.690
29561W        W91015  24.177  25.666  13.967
29562W        W91016  34.099  36.866  10.980
29563W        W91017  21.186   5.260  12.066
29564W        W91018  10.255  42.370  11.028
29565W        W91019  24.664  26.640  10.428
29566W        W91020  34.381  18.158   2.791
29567W        W91021  41.932  29.129  10.446
29568W        W91022  26.538   0.827   2.354
29569W        W91023  19.558  21.199   1.347
29570W        W91024  16.609   7.404  10.580
29571W        W91025  35.577  34.904   0.839
29572W        W91026   1.895  41.891  10.981
29573W        W91027  25.145  38.919   5.261
29574W        W91028  39.439  36.852   1.250
29575W        W91029  22.173  22.162  14.431
29576W        W91030  29.647  40.841   3.258
29577W        W91031   8.757   0.248   2.818
29578W        W91032  30.070  14.221  13.869
29579W        W91033  41.836  32.121   1.837
29580W        W91034   6.725  15.669  11.117
29581W        W91035  18.648  32.116   0.279
29582W        W91036   9.673   8.361   2.839
29583W        W91037  39.327  16.656   4.202
29584W        W91038   7.761  25.647  14.787
29585W        W91039  24.137  25.044  14.795
29586W        W91040  30.474  33.619   0.923
29587W        W91041  19.701  38.509  14.901
29588W        W91042  17.706  12.222   1.356
29589W        W91043   6.390  38.329  14.977
29590W        W91044   7.792  25.668  12.552
29591W        W91045  32.470  35.545   2.366
29592W        W91046  32.090  19.110   1.369
29593W        W91047  41.466  41.411   3.658
29594W        W91048  24.701   0.456  10.433
29595W        W91049   6.382  11.833  12.399
29596W        W91050  30.426  43.912   2.295
29597W        W91051  44.294  23.539  11.888
29598W        W91052  13.796  41.862  12.005
29599W        W91053  28.005  42.398  11.081
29600W        W91054   3.777  16.686   4.293
29601W        W91055  40.937  44.820   4.597
29602W        W91056  21.243  24.013   4.616
29603W        W91057  15.249  10.253   5.296
29604W        W91058  40.898  41.366  13.995
29605W        W91059  26.173  15.095  11.026
29606W        W91060   8.674  18.781   0.809
29607W        W91061  25.526  17.269  12.490
29608W        W91062   6.366  38.439   1.368
29609W        W91063  39.811  15.759  12.421
29610W        W91064  23.084  40.482  12.521
29611W        W91065   9.658   9.869   1.418
29612W        W91066  14.112  25.585   3.173
29613W        W91067  17.796  17.759  13.859
29614W        W91068  42.504   4.310  10.639
29615W        W91069  29.501  34.393   0.329
29616W        W91070  23.583  34.061   2.751
29617W        W91071  36.553  30.597  11.533
29618W        W91072  11.853  34.379   2.285
29619W        W91073  41.025  25.622   1.450
29620W        W91074  29.550  17.108  12.089
29621W        W91075   3.727   9.752  11.869
29622W        W91076   3.358   4.835   5.198
29623W        W91077  32.035  39.337   2.180
29624W        W91078  17.101  18.173   4.747
29625W        W91079  28.020  34.018   2.736
29626W        W91080  18.135  13.302   3.373
29627W        W91081  28.462   2.831   1.864
29628W        W91082  39.382  18.198  13.352
29629W        W91083   9.220  42.324   1.279
29630W        W91084  43.383  30.053   2.720
29631W        W91085   1.263  37.959  13.344
29632W        W91086  25.103  29.660  14.810
29633W        W91087  40.322  29.621   2.315
29634W        W91088   1.822  20.585  13.353
29635W        W91089  12.793  35.067   4.601
29636W        W91090  17.676  34.379  13.412
29637W        W91091  39.361  38.993  13.360
29638W        W91092  34.081  22.027  13.469
29639W        W91093   6.337   3.326  11.899
29640W        W91094  18.673  14.671   3.193
29641W        W91095  37.399  33.945  12.442
29642W        W91096  26.691  41.473   5.171
29643W        W91097  21.209  27.010   3.188
29644W        W91098  41.972  15.221   0.335
29645W        W91099   3.407  30.631   3.632
29646W        W91100  44.381  34.433   2.416
29647W        W91101   7.821  19.111   4.297
29648W        W91102  36.558  35.466   0.394
29649W        W91103  29.918  44.792  10.474
29650W        W91104   7.323  15.585  11.555
29651W        W91105  35.009  26.491   2.793
29652W        W91106  40.549  31.442   3.386
29653W        W91107  34.958   8.800   0.473
29654W        W91108  24.179   1.759   1.213
29655W        W91109  23.703  32.529   4.708
29656W        W91110   1.396  19.225  11.480
29657W        W91111  20.228  39.419   4.164
29658W        W91112  35.548  26.476  14.833
29659W        W91113  26.992  14.692  12.951
29660W        W91114   9.281  14.278  11.571
29661W        W91115   5.283   9.343  10.634
29662W        W91116  44.829  33.519   4.291
29663W        W91117   7.296  13.147   2.208
29664W        W91118  10.359   0.440   3.183
29665W        W91119  35.454  26.100  12.546
29666W        W91120  41.299  21.226   1.285
29667W        W91121  44.458  35.544  14.974
29668W        W91122   5.699  13.607  12.878
29669W        W91123  19.118  18.579  11.930
29670W        W91124  44.914  13.693  11.951
29671W        W91125  30.457  24.584   1.749
29672W        W91126  36.977  19.106  11.877
29673W        W91127  44.489   6.777   0.799
29674W        W91128  17.775   1.280   2.188
29675W        W91129  16.729   2.420  11.101
29676W        W91130  17.574   7.888  12.488
29677W        W91131  14.257  27.674  11.443
29678W        W91132  13.644   2.292  14.780
29679W        W91133  36.859   7.882   0.273
29680W        W91134  19.215  38.328   4.822
29681W        W91135   7.389   1.442  11.452
29682W        W91136   2.449  16.694   2.715
29683W        W91137  43.411  15.159  10.405
29684W        W91138  34.866   4.301   1.746
29685W        W91139   3.789  14.144   4.113
29686W        W91140  17.739   6.921  11.041
29687W        W91141  16.144  29.494   0.958
29688W        W91142  17.111  43.951  13.926
29689W        W91143  43.983  39.391   3.380
29690W        W91144  23.517  29.115   2.895
29691W        W91145  12.269   3.366  12.832
29692W        W91146  44.359  41.426  12.370
29693W        W91147  42.518   6.292   1.854
29694W        W91148  36.011  26.054  11.122
29695W        W91149  23.523  34.542  13.534
29696W        W91150  12.788   3.818  13.868
29697W        W91151  33.455   8.364   3.252
29698W        W91152   1.323  20.545   2.872
29699W        W91153   3.261  16.134   0.855
29700W        W91154  18.728   3.914  14.476
29701W        W91155  34.081  41.293  10.482
29702W        W91156  15.718  37.338   1.713
29703W        W91157  31.104  42.397   0.423
29704W        W91158  42.411  13.184   3.331
29705W        W91159  34.915  17.579  11.049
29706W        W91160  18.573  13.197   4.692
29707W        W91161  18.773  44.446   3.745
29708W        W91162   3.217  30.937  12.361
29709W        W91163  21.039   8.287  11.992
29710W        W91164   2.378  32.096  10.587
29711W        W91165  18.730   5.729  10.424
29712W        W91166  41.341   4.842   3.182
29713W        W91167   6.828  33.409   2.225
29714W        W91168  34.994   1.452   0.451
29715W        W91169   9.731  43.474   3.681
29716W        W91170  25.509  28.445  14.436
29717W        W91171  23.018  28.184  12.535
29718W        W91172  31.594   6.736  13.508
29719W        W91173  17.288  23.997   1.888
29720W        W91174  39.996   3.432  10.472
29721W        W91175  21.591  42.848   3.771
29722W        W91176  37.381  12.757  13.047
29723W        W91177  27.516  25.478  10.445
29724W        W91178  26.125  13.800   4.797
29725W        W91179   8.361  42.781   2.792
29726W        W91180  35.363  17.191   3.850
29727W        W91181  43.963   7.244   0.380
29728W        W91182  23.545  12.183  12.460
29729W        W91183  34.093   2.934  11.898
29730W        W91184  33.497  15.279   1.703
29731W        W91185   4.745  34.069   1.844
29732W        W91186  26.989  29.450   1.834
29733W        W91187  35.897   8.286  12.505
29734W        W91188   3.833  40.052  12.567
29735W        W91189  16.260  25.058  13.467
29736W        W91190  33.001  34.931   0.745
29737W        W91191  38.499  43.946   0.395
29738W        W91192  39.978  14.151  13.546
29739W        W91193  14.670  23.042  11.412
29740W        W91194  30.578   0.421   2.357
29741W        W91195   6.894   5.363   0.952
29742W        W91196   8.669   9.746   3.352
29743W        W91197  20.061   0.982   4.117
29744W        W91198   3.807  12.348  12.445
29745W        W91199   2.414  22.698  13.972
29746W        W91200  13.137  41.329   4.831
29747W        W91201  41.513  24.490  10.503
29748W        W91202  15.212  33.882   3.743
29749W        W91203  16.248  29.930  11.090
29750W        W91204  27.954  32.472   0.904
29751W        W91205   8.322  31.146  13.814
29752W        W91206  33.531  17.741  12.075
29753W        W91207  33.933  17.117  13.418
29754W        W91208  15.608  29.556   0.965
29755W        W91209   5.218  36.381   3.678
29756W        W91210   3.394  11.737  12.355
29757W        W91211   3.354  22.158   0.843
29758W        W91212   4.268  39.499   0.293
29759W        W91213  22.183   1.278   4.343
29760W        W91214  38.975  14.301  12.502
29761W        W91215  14.154  25.644   3.648
29762W        W91216  19.771  22.186  13.841
29763W        W91217  16.314   7.900  13.315
29764W        W91218  22.684  27.145   4.732
29765W        W91219  44.260   5.422   4.692
29766W        W91220  25.648  14.682   1.726
29767W        W91221  18.063  31.116   3.662
29768W        W91222  26.071   7.696   3.762
29769W        W91223  43.989   1.408  13.834
29770W        W91224  18.271  44.388  13.384
29771W        W91225   5.323  10.379   9.990
29772W        W91226   9.712  12.202  14.302
29773W        W91227  38.033  17.767   2.390
29774W        W91228  24.166  31.480  14.447
29775W        W91229  37.352  21.060   2.738
29776W        W91230  35.516  41.491  12.950
29777W        W91231   4.900  27.195  11.060
29778W        W91232  37.933  38.565   5.194
29779W        W91233  40.516  27.005  14.776
29780W        W91234  16.686   3.396   1.336
29781W        W91235  33.546  35.477  11.874
29782W        W91236   8.741  43.952  12.856
29783W        W91237   5.333  25.214  11.886
29784W        W91238  35.586  40.877   2.681
29785W        W91239  30.651   2.824   5.261
29786W        W91240  41.373  38.942   3.156
29787W        W91241  22.095  16.685  13.898
29788W        W91242  37.930   6.292   4.311
29789W        W91243  39.500  23.733  10.924
29790W        W91244  28.181  11.768  14.474
29791W        W91245  42.983  10.244   1.893
29792W        W91246  42.965   1.803  11.528
29793W        W91247   7.715  21.727  11.002
29794W        W91248  31.993   1.817  10.615
29795W        W91249  23.045  16.293   0.920
29796W        W91250  30.097   4.729   0.851
29797W        W91251  36.078  26.982  14.407
29798W        W91252   5.828  38.326   4.756
29799W        W91253  28.109   8.715   5.177
29800W        W91254  42.332  44.986   3.192
29801W        W91255  19.680  40.511   1.773
29802W        W91256  42.451  15.099   3.234
29803W        W91257  36.417  43.935  14.450
29804W        W91258  11.734   0.306   1.929
29805W        W91259  28.108  31.488  12.982
29806W        W91260  30.977  40.332  13.501
29807W        W91261  32.554  26.138  14.867
29808W        W91262  44.962  44.276  14.453
29809W        W91263   6.922   7.177  11.074
29810W        W91264  37.981  41.420  10.425
29811W        W91265   6.890  11.727  12.572
29812W        W91266  19.153  16.681  14.404
29813W        W91267   4.397  42.469   1.879
29814W        W91268  25.673  23.600  11.119
29815W        W91269   7.896  13.345  12.509
29816W        W91270  44.481   9.692  12.096
29817W        W91271  36.014  40.026   9.502
29818W        W91272  21.532  17.165   0.758
29819W        W91273  19.538  14.195  10.640
29820W        W91274   1.823  24.701  11.966
29821W        W91275  29.072  18.665   4.229
29822W        W91276  18.747  26.587  13.357
29823W        W91277  28.046  20.572  12.840
29824W        W91278   6.697  36.968   3.741
29825W        W91279  15.722  26.186   4.248
29826W        W91280   7.233  33.543  10.918
29827W        W91281  21.646  43.385  12.435
29828W        W91282  37.024  37.471  12.827
29829W        W91283   1.960   0.412   4.217
29830W        W91284  40.028  13.806  12.826
29831W        W91285   2.901  23.062   0.871
29832W        W91286  20.552   2.239  10.487
29833W        W91287  17.199   8.663  12.943
29834W        W91288  20.065  34.530  12.075
29835W        W91289  17.125  20.734   2.322
29836W        W91290   6.757  16.134  12.411
29837W        W91291  18.144  20.171   4.633
29838W        W91292   2.834  23.591  11.911
29839W        W91293  27.056  10.294  13.926
29840W        W91294  10.775   3.838  12.401
29841W        W91295  43.370   3.752  11.898
29842W        W91296  23.146  26.468   0.772
29843W        W91297  41.965  12.339  12.020
29844W        W91298   7.894  23.022  11.480
29845W        W91299  37.425  16.603  11.598
29846W        W91300  38.057  28.611   1.913
29847W        W91301  16.738  19.680  12.848
29848W        W91302  18.253   8.333  12.902
29849W        W91303  23.513  28.557  10.908
29850W        W91304   3.251  25.690   0.899
29851W        W91305  18.069  35.378   1.741
29852W        W91306   4.924  11.764  12.344
29853W        W91307  24.660  10.684  11.037
29854W        W91308   6.305  21.563   1.804
29855W        W91309  22.701  44.919   0.727
29856W        W91310  33.874  19.186  12.437
29857W        W91311  25.555  43.799   1.299
29858W        W91312  36.561  40.847  13.433
29859W        W91313  22.094  14.178   3.752
29860W        W91314   3.321   5.272   2.839
29861W        W91315   7.807   6.281   2.689
29862W        W91316  21.703  21.618  14.499
29863W        W91317   2.365  19.184  12.846
29864W        W91318  16.302  41.306   2.769
29865W        W91319  31.643   3.834  10.430
29866W        W91320  14.322  35.603   2.805
29867W        W91321  41.468   1.319  14.299
29868W        W91322   1.478  17.656  10.447
29869W        W91323  25.015   9.647  11.000
29870W        W91324  19.682  17.574   0.961
29871W        W91325  30.064   1.352  13.967
29872W        W91326  13.771  14.132   3.677
29873W        W91327  32.008  30.134   4.628
29874W        W91328  19.745  23.521   4.339
29875W        W91329   9.707  13.659   4.287
29876W        W91330  33.392  18.199  10.409
29877W        W91331  41.476   1.850   2.671
29878W        W91332  22.555   5.300  13.868
29879W        W91333   7.847  20.708  10.614
29880W        W91334  10.245   3.265   4.648
29881W        W91335  41.840  33.940   0.294
29882W        W91336  42.912  35.025  10.527
29883W        W91337  12.161  27.043   4.748
29884W        W91338  33.407  11.291  14.854
29885W        W91339  10.716  44.883   3.244
29886W        W91340  42.876   4.296  11.581
29887W        W91341  44.450  30.636   3.739
29888W        W91342   3.294   8.283   4.615
29889W        W91343  38.855  26.500   1.921
29890W        W91344  10.250  17.072  14.004
29891W        W91345  43.500   8.674   0.289
29892W        W91346  25.973  27.040  12.969
29893W        W91347  43.470   4.799  10.409
29894W        W91348  33.009  14.632   2.306
29895W        W91349  40.385  41.932   2.233
29896W        W91350  33.421  41.965  10.447
29897W        W91351  15.223  37.344  10.081
29898W        W91352  20.667  11.187  13.878
29899W        W91353   1.841  43.448  11.477
29900W        W91354  29.471   8.177  11.987
29901W        W91355  30.468  31.529  10.123
29902W        W91356  31.961   2.248   1.320
29903W        W91357  22.681  17.724  14.962
29904W        W91358  39.025  13.635   2.346
29905W        W91359  25.024   3.427   5.299
29906W        W91360  41.014   9.159  13.481
29907W        W91361   5.436  33.395  12.012
29908W        W91362  12.226  20.625   4.615
29909W        W91363  14.322  12.287  12.549
29910W        W91364   7.843   3.942   4.159
29911W        W91365   1.329  41.416  10.441
29912W        W91366  24.647  13.185  14.976
29913W        W91367  10.262  12.203   4.203
29914W        W91368  19.660   9.360  13.834
29915W        W91369   8.760  39.922  12.485
29916W        W91370  42.411  34.876  10.600
29917W        W91371  17.611   1.795   3.739
29918W        W91372  26.614  16.714  13.351
29919W        W91373   7.179  26.034  13.883
29920W        W91374   7.810  13.706  12.902
29921W        W91375  22.652  40.797  12.900
29922W        W91376  14.763  42.934  11.469
29923W        W91377  26.497  38.432   4.301
29924W        W91378  18.108  26.106  10.890
29925W        W91379  17.617  35.468   2.208
29926W        W91380   4.225  13.616   2.815
29927W        W91381  32.440  37.877  14.290
29928W        W91382  21.583  10.190   2.772
29929W        W91383  16.173  30.478  14.785
29930W        W91384  24.050  37.471   4.163
29931W        W91385  31.053  12.798   2.219
29932W        W91386  43.422  26.006  11.499
29933W        W91387  38.359  13.642  12.530
29934W        W91388  44.460  38.488  12.835
29935W        W91389  14.730  41.510   2.843
29936W        W91390  11.641  21.217   2.297
29937W        W91391  44.423  24.647  13.795
29938W        W91392  17.090  10.228   1.801
29939W        W91393  23.648  13.714   1.759
29940W        W91394   7.779  13.344   4.228
29941W        W91395  27.543  44.330   0.774
29942W        W91396  24.046  24.561   4.245
29943W        W91397   6.801   6.417  13.531
29944W        W91398  21.629   6.312   3.758
29945W        W91399   4.330   3.832  10.409
29946W        W91400  18.229   6.185  11.855
29947W        W91401  33.078   6.362  13.336
29948W        W91402  37.891  11.720   1.892
29949W        W91403  34.525  36.010  11.460
29950W        W91404  29.975   6.273  13.824
29951W        W91405   3.319  12.700  10.638
29952W        W91406  42.527   7.352   4.266
29953W        W91407  11.748  12.846   2.726
29954W        W91408  24.039  24.673   0.286
29955W        W91409  32.058   7.250  10.506
29956W        W91410  28.620  20.681   4.143
29957W        W91411  23.705  31.035   1.273
29958W        W91412   9.876  22.570  10.592
29959W        W91413  15.798  29.557  12.445
29960W        W91414  23.219  39.047  12.922
29961W        W91415  11.186   8.183   1.424
29962W        W91416  25.059  37.905  12.347
29963W        W91417  20.107  40.354   3.782
29964W        W91418  36.892  24.678  11.382
29965W        W91419  26.609  33.025  13.917
29966W        W91420   2.867  26.020  14.802
29967W        W91421   8.160   2.932  10.477
29968W        W91422  33.522  18.569   3.709
29969W        W91423  41.028  19.744   1.744
29970W        W91424  29.066   0.950   2.313
29971W        W91425  18.763  40.365  13.534
29972W        W91426  42.020  38.339  13.899
29973W        W91427   2.421  38.504  12.913
29974W        W91428  29.982   4.700   2.799
29975W        W91429   6.305  39.901  13.886
29976W        W91430  11.208  16.588   5.672
29977W        W91431  43.908  15.318  11.897
29978W        W91432  22.105   8.868  13.051
29979W        W91433  41.921  11.824  12.510
29980W        W91434  24.020   8.656  14.991
29981W        W91435  32.114  23.647  11.879
29982W        W91436  41.040  29.012   4.323
29983W        W91437  16.578  33.881   0.321
29984W        W91438  15.234  32.988   3.365
29985W        W91439  39.344  17.089   3.763
29986W        W91440  16.127  32.411  14.809
29987W        W91441   4.874   6.733   2.413
29988W        W91442  35.991  35.589  10.531
29989W        W91443  10.859  38.909   0.800
29990W        W91444  21.048   8.692  14.361
29991W        W91445   9.291  21.094  10.443
29992W        W91446  12.331  14.702   2.887
29993W        W91447   9.232  22.205  11.612
29994W        W91448  24.201  32.040   1.264
29995W        W91449  32.442  44.967  10.576
29996W        W91450   3.277   9.851  13.359
29997W        W91451  29.526  11.354  12.906
29998W        W91452  28.673  13.823  14.476
29999W        W91453  33.970  12.281   3.235
30000W        W91454  36.532  13.632   3.290
30001W        W91455  21.546  30.055  11.068
30002W        W91456  39.820   2.314   3.377
30003W        W91457  36.956  14.646   4.150
30004W        W91458  32.586  18.620  12.009
30005W        W91459  24.631  43.364  14.487
30006W        W91460  38.477  39.006   5.223
30007W        W91461  32.476  25.016   0.733
30008W        W91462  11.648   2.382   0.930
30009W        W91463  42.416  10.211   3.786
30010W        W91464  27.029  26.671  12.062
30011W        W91465  43.981  44.811   1.395
30012W        W91466  23.652  32.954   2.784
30013W        W91467  38.512  19.774   2.228
30014W        W91468  21.254   7.869  13.483
30015W        W91469  33.478   1.846  11.855
30016W        W91470  11.242  21.228  14.760
30017W        W91471   4.239   0.276   3.747
30018W        W91472  15.733  31.958  11.033
30019W        W91473  25.985  10.692   0.864
30020W        W91474  17.171  23.177   1.831
30021W        W91475  16.641  25.620  12.491
30022W        W91476  28.577  15.279   1.695
30023W        W91477  22.043  15.084  14.884
30024W        W91478  24.497  23.699   1.699
30025W        W91479  11.278  21.063   1.389
30026W        W91480   9.693  41.347  12.420
30027W        W91481  41.305  22.184   3.150
30028W        W91482  15.763  14.758  14.790
30029W        W91483  41.454   7.270  13.033
30030W        W91484  11.250  16.117  11.444
30031W        W91485   3.721  27.500  12.559
30032W        W91486  26.164   0.431  14.329
30033W        W91487  20.587  42.800  10.913
30034W        W91488  36.061  31.408  11.575
30035W        W91489  23.119  39.497  10.989
30036W        W91490  17.078   9.774   4.165
30037W        W91491  26.062  39.406  14.798
30038W        W91492  35.544  19.642  13.384
30039W        W91493  11.678  24.180   4.349
30040W        W91494  34.010  38.425   2.415
30041W        W91495  28.959   2.254   1.827
30042W        W91496   2.327  15.590  13.367
30043W        W91497  22.198   7.765  10.462
30044W        W91498  13.665  34.484   4.661
30045W        W91499  27.116  32.124  14.012
30046W        W91500   8.877  16.610   0.279
30047W        W91501  14.652  18.261  12.077
30048W        W91502   3.934  32.621   1.828
30049W        W91503   8.801  38.570   3.699
30050W        W91504  14.792  12.122  14.022
30051W        W91505   4.340  34.978   3.647
30052W        W91506  25.127   5.262   2.247
30053W        W91507  38.354   3.342   0.480
30054W        W91508  44.391  43.395   4.352
30055W        W91509  16.743   9.317   2.849
30056W        W91510   0.985  33.444   0.814
30057W        W91511  27.468  38.975   1.903
30058W        W91512  14.723  18.237   0.844
30059W        W91513  31.012   1.892   1.267
30060W        W91514  12.296  42.286   1.884
30061W        W91515   9.689  29.036   2.365
30062W        W91516  22.625   5.927   2.788
30063W        W91517  28.594  24.037   4.121
30064W        W91518  21.619  32.887  11.454
30065W        W91519  19.269   0.840  13.016
30066W        W91520  39.463  29.534   3.318
30067W        W91521  29.945  17.673  11.395
30068W        W91522  35.889  32.434  14.480
30069W        W91523  32.396  35.875   5.123
30070W        W91524  27.058  24.013   2.722
30071W        W91525  33.381  37.347   5.323
30072W        W91526  23.100  14.704  13.451
30073W        W91527   1.737   6.678  11.100
30074W        W91528  25.517  38.001  11.980
30075W        W91529  11.303  37.366  13.514
30076W        W91530  19.544   8.791   9.627
30077W        W91531   1.881   5.816  14.841
30078W        W91532  42.889  26.693  11.916
30079W        W91533  20.210  27.596  12.541
30080W        W91534  32.611   5.404  14.395
30081W        W91535  25.690   2.917   5.236
30082W        W91536   3.410  16.746   2.296
30083W        W91537  10.823  37.019   0.784
30084W        W91538   4.380   2.412   0.291
30085W        W91539  11.373  24.642   3.233
30086W        W91540  32.448  34.036   0.352
30087W        W91541  16.188  11.699   3.867
30088W        W91542   5.716  13.802   0.472
30089W        W91543  17.722  10.329   0.777
30090W        W91544  20.049  24.547   0.802
30091W        W91545  41.797   7.370  10.104
30092W        W91546   5.908  18.290   2.673
30093W        W91547  37.560  33.113  14.467
30094W        W91548   7.854  15.200  13.374
30095W        W91549  41.430  34.959  10.464
30096W        W91550  42.485   4.940   1.305
30097W        W91551  32.103  10.355  10.970
30098W        W91552  33.095  16.647  12.525
30099W        W91553  19.057  12.645   3.664
30100W        W91554   3.900  44.793   4.728
30101W        W91555   3.429  17.611   0.795
30102W        W91556  13.352  14.599  14.295
30103W        W91557   8.725  35.550   1.812
30104W        W91558   2.384   7.373  11.956
30105W        W91559  32.002   2.308   3.725
30106W        W91560   5.783  34.055  12.975
30107W        W91561   0.347  17.090   0.803
30108W        W91562  32.985   7.201   3.350
30109W        W91563  22.540  14.755   2.822
30110W        W91564  19.698   2.239  13.987
30111W        W91565  20.131  15.232  13.366
30112W        W91566  23.094  43.446   2.797
30113W        W91567  21.254  34.505   1.884
30114W        W91568  40.947  15.712   2.874
30115W        W91569   0.971  42.783  11.501
30116W        W91570  40.037  41.971   2.879
30117W        W91571  42.432  37.924   3.201
30118W        W91572  26.968  21.119   3.365
30119W        W91573  32.936  13.641  11.540
30120W        W91574  29.566  20.055  11.862
30121W        W91575   8.671  10.154   2.389
30122W        W91576  15.618  15.649   3.757
30123W        W91577  42.415  19.567   2.349
30124W        W91578  21.019   6.231  14.809
30125W        W91579  19.265  23.166   4.735
30126W        W91580  43.938  37.969  13.807
30127W        W91581  30.537   4.819   5.198
30128W        W91582  30.493  18.591   0.919
30129W        W91583  38.846  24.154   3.801
30130W        W91584   0.783  14.125  11.432
30131W        W91585  10.301  40.911  13.339
30132W        W91586  29.457  19.555   2.706
30133W        W91587  20.205  10.199  14.815
30134W        W91588  26.594   4.868  14.382
30135W        W91589  39.390  11.855  12.049
30136W        W91590  31.525  16.257  14.290
30137W        W91591  16.152  34.009   3.746
30138W        W91592  15.624   5.262   4.168
30139W        W91593  41.009  20.047  14.305
30140W        W91594  15.631  20.220   1.823
30141W        W91595   5.747  40.501   2.808
30142W        W91596  29.578  44.465  14.881
30143W        W91597  44.267  43.898  14.505
30144W        W91598  25.487  24.583   4.751
30145W        W91599  41.877  30.438   4.828
30146W        W91600  15.156  30.079   3.640
30147W        W91601  22.515  37.527   1.216
30148W        W91602  27.092  23.139  14.329
30149W        W91603   7.695  40.376  11.971
30150W        W91604  31.629  42.493  11.612
30151W        W91605  39.874  20.094   3.673
30152W        W91606  20.706   1.352   3.682
30153W        W91607   1.391  19.277  13.377
30154W        W91608  38.043  28.019  12.862
30155W        W91609  22.144  26.988   2.762
30156W        W91610  41.484  12.804  14.763
30157W        W91611   4.740  24.140   1.890
30158W        W91612  12.618  35.522   0.355
30159W        W91613  19.139  18.077  14.496
30160W        W91614  18.721  12.631  13.435
30161W        W91615  37.418   4.764   1.341
30162W        W91616  29.563  43.925  11.460
30163W        W91617  23.663  38.879   3.194
30164W        W91618  26.975  29.567  13.426
30165W        W91619   0.282  26.107   3.766
30166W        W91620  22.012  40.842   4.311
30167W        W91621  43.843   7.818  11.053
30168W        W91622   2.851   5.390  10.425
30169W        W91623   2.318  17.158  12.075
30170W        W91624  28.031  22.229  14.845
30171W        W91625  20.153  22.077   1.876
30172W        W91626   4.439   6.755  14.331
30173W        W91627  38.921  26.055   3.245
30174W        W91628  28.463  24.485   0.346
30175W        W91629  13.716  38.977  12.535
30176W        W91630  39.494  43.978  12.452
30177W        W91631  14.210   1.434   2.375
30178W        W91632  27.506  31.437   3.351
30179W        W91633  33.607  11.237  13.532
30180W        W91634   6.880  11.313   1.446
30181W        W91635  17.114  36.061   0.915
30182W        W91636  12.710  27.668   3.253
30183W        W91637  19.565  19.161  11.075
30184W        W91638  14.785  33.509  12.047
30185W        W91639  11.728  43.313  12.038
30186W        W91640   7.392  42.333  11.599
30187W        W91641  31.934  38.391   2.244
30188W        W91642  44.411   7.758  13.531
30189W        W91643  20.213  11.722  14.274
30190W        W91644   8.258  11.828  11.481
30191W        W91645  12.624  17.790   5.152
30192W        W91646  20.631  32.510  12.419
30193W        W91647  40.466   8.696  12.967
30194W        W91648   1.937  17.230   3.735
30195W        W91649  12.683   2.761  14.390
30196W        W91650  28.495  43.298  11.127
30197W        W91651   9.739  31.960   2.281
30198W        W91652   9.276  30.451  11.929
30199W        W91653   6.820  18.124  12.036
30200W        W91654  32.003  12.616  12.044
30201W        W91655  40.802  22.159   0.271
30202W        W91656  10.362  24.538   3.688
30203W        W91657  25.541  25.075   0.896
30204W        W91658  33.436  21.055  14.899
30205W        W91659   9.221  44.970   3.687
30206W        W91660   8.838  23.080   4.156
30207W        W91661   7.754  16.183  11.040
30208W        W91662  13.805  43.844  13.440
30209W        W91663  39.507  25.036   4.114
30210W        W91664  42.848  19.673   0.400
30211W        W91665  23.687  39.556   2.827
30212W        W91666  16.245  44.903  12.913
30213W        W91667  26.692  32.999  13.059
30214W        W91668  26.182  10.704  14.010
30215W        W91669  36.465   7.402  12.563
30216W        W91670  23.140  38.490   4.329
30217W        W91671   2.283   6.799  13.865
30218W        W91672  44.332  44.466  10.988
30219W        W91673  44.896  23.567  13.876
30220W        W91674  32.467  11.197  11.412
30221W        W91675   7.333  10.821  14.856
30222W        W91676  14.144  22.611  10.959
30223W        W91677  39.546  18.636   0.797
30224W        W91678  26.156   2.333   1.793
30225W        W91679  20.576  40.916   2.281
30226W        W91680  33.107  16.668  13.970
30227W        W91681  24.596   1.276   1.927
30228W        W91682  24.120  31.498  13.848
30229W        W91683  10.868  20.032   0.943
30230W        W91684  17.700  19.677   3.335
30231W        W91685  12.242  13.246  10.495
30232W        W91686  17.799  43.402   0.872
30233W        W91687  30.554   8.843   0.760
30234W        W91688  13.612  40.801   4.807
30235W        W91689   1.946  39.922  11.610
30236W        W91690  40.521  30.064  10.983
30237W        W91691   3.276  32.457   3.363
30238W        W91692  24.052   9.327   5.171
30239W        W91693  19.106   5.294  11.927
30240W        W91694  39.816  32.997   4.663
30241W        W91695   6.208  18.280   3.815
30242W        W91696  20.036   1.960   1.276
30243W        W91697  18.751   0.307  14.306
30244W        W91698  19.704  24.634   4.642
30245W        W91699  26.636  23.222   0.354
30246W        W91700   6.732   3.942   2.890
30247W        W91701  41.524  23.032  14.443
30248W        W91702  34.972  43.385  12.557
30249W        W91703  20.673  43.445  10.919
30250W        W91704   3.338  44.421  11.882
30251W        W91705  30.566  30.156   2.183
30252W        W91706  30.956   0.380  13.411
30253W        W91707  39.882  41.039  13.330
30254W        W91708  25.486  15.110  14.367
30255W        W91709  33.614  28.132   4.180
30256W        W91710  33.978  39.418  14.390
30257W        W91711  28.633  21.180   1.389
30258W        W91712  18.146  25.049   2.367
30259W        W91713  14.710  34.071   2.278
30260W        W91714   6.386   0.377  12.952
30261W        W91715   7.700  14.626  11.533
30262W        W91716  30.071  19.177  11.482
30263W        W91717  22.522  17.637   1.436
30264W        W91718  37.431  25.592  14.449
30265W        W91719  24.535  14.664   0.359
30266W        W91720  24.165  41.928   0.795
30267W        W91721   8.308  14.136  11.107
30268W        W91722   6.820  43.341   3.156
30269W        W91723  34.988  18.151  12.990
30270W        W91724  18.779  12.357  14.298
30271W        W91725  35.399  40.806   0.272
30272W        W91726  32.606  40.011  14.936
30273W        W91727  14.209  22.014   1.876
30274W        W91728  31.538  43.396  13.994
30275W        W91729  40.927  27.963   4.157
30276W        W91730   5.830  10.211   2.695
30277W        W91731  33.936  23.125   1.766
30278W        W91732  26.640   7.262   4.820
30279W        W91733  43.508  34.075  13.352
30280W        W91734  22.154   9.701   5.668
30281W        W91735  20.116  16.617  14.959
30282W        W91736   1.732  27.114   4.135
30283W        W91737  19.104   1.942  14.768
30284W        W91738  11.131  25.506  14.815
30285W        W91739   1.779  32.013  11.087
30286W        W91740  44.001  24.158  11.907
30287W        W91741   8.406  17.604   4.213
30288W        W91742  10.726  29.621   1.332
30289W        W91743  35.015  21.117   2.359
30290W        W91744  20.228  23.568   1.729
30291W        W91745  19.652   7.906   4.694
30292W        W91746  38.886  43.364   1.837
30293W        W91747   0.403  35.024   2.708
30294W        W91748   4.788  28.107   2.328
30295W        W91749  35.074   8.740  13.450
30296W        W91750  44.831  37.853   4.703
30297W        W91751  43.381   8.177  11.454
30298W        W91752  28.136  20.608  11.563
30299W        W91753  36.048  27.167  12.516
30300W        W91754   2.744   9.875   0.851
30301W        W91755  14.173  32.456  13.855
30302W        W91756  17.119  36.989   3.340
30303W        W91757   2.737   2.417   3.813
30304W        W91758  17.169  40.864   4.603
30305W        W91759  41.892  26.969  12.947
30306W        W91760  43.831  17.723  10.507
30307W        W91761  21.075  15.710   9.962
30308W        W91762  13.286   0.890   2.759
30309W        W91763  25.011  20.226   3.194
30310W        W91764  26.977  26.565   1.871
30311W        W91765  17.761  35.022  13.482
30312W        W91766  34.373   7.240   2.321
30313W        W91767  35.093  41.845  13.883
30314W        W91768  10.338  36.523   4.335
30315W        W91769  33.482   4.729   5.241
30316W        W91770  38.048  16.687  10.920
30317W        W91771   8.329  32.098   3.269
30318W        W91772   7.405  35.916  14.895
30319W        W91773   4.746  10.817   4.223
30320W        W91774  28.574  16.311   1.408
30321W        W91775  44.920  10.325   2.347
30322W        W91776  18.782  42.871   3.772
30323W        W91777   5.749  32.985   2.184
30324W        W91778  18.715   3.789  10.592
30325W        W91779  27.466  32.549  12.909
30326W        W91780  42.962  27.584  12.958
30327W        W91781  10.672  13.705   4.701
30328W        W91782  10.366  33.524   3.801
30329W        W91783  10.672  21.541  13.342
30330W        W91784  38.903  14.796   4.160
30331W        W91785   1.873   0.291   4.759
30332W        W91786  27.614  44.479   2.404
30333W        W91787  28.467  15.583  12.531
30334W        W91788  26.618  37.402  11.409
30335W        W91789  23.702   7.738   1.878
30336W        W91790  33.892  18.191   3.383
30337W        W91791  25.582  41.309   5.119
30338W        W91792  15.219  17.206   3.778
30339W        W91793  25.019   6.739   0.268
30340W        W91794   3.785   9.261   1.915
30341W        W91795  44.292   2.764  11.121
30342W        W91796  15.680   7.895  13.980
30343W        W91797  18.759  13.611  12.866
30344W        W91798  19.138  21.091   3.271
30345W        W91799  20.698  36.388   0.257
30346W        W91800  37.920  37.949  14.959
30347W        W91801  24.502  13.762   0.856
30348W        W91802  34.066  31.434  10.600
30349W        W91803  15.647  23.528   0.836
30350W        W91804  29.513  18.640   0.343
30351W        W91805  10.695  33.548   0.247
30352W        W91806  41.534   5.876  13.806
30353W        W91807  24.682  44.377  13.499
30354W        W91808  34.031  35.549   3.233
30355W        W91809  40.953  19.125   0.461
30356W        W91810  34.371   7.838   4.161
30357W        W91811  41.455  10.740  11.086
30358W        W91812  27.017   8.728   0.478
30359W        W91813  34.483   8.745   0.749
30360W        W91814  12.672  15.798   4.778
30361W        W91815  38.548   7.374   3.868
30362W        W91816   5.895   1.809  12.536
30363W        W91817  23.074  31.591   0.848
30364W        W91818   5.840  20.600   0.481
30365W        W91819  32.115  14.682  11.015
30366W        W91820  37.877  36.086   3.754
30367W        W91821  39.449  25.548  13.357
30368W        W91822  35.603  42.986   1.851
30369W        W91823  40.326   5.724  14.788
30370W        W91824  42.829  25.559   3.718
30371W        W91825  38.474  32.465   0.366
30372W        W91826  14.179   0.341   1.435
30373W        W91827  28.621  26.136  11.087
30374W        W91828  22.187  18.169  12.488
30375W        W91829  10.364  40.981  12.976
30376W        W91830  21.722  16.243   4.837
30377W        W91831  10.683  42.840   2.388
30378W        W91832  43.328  33.939   2.262
30379W        W91833   0.818  38.515   0.318
30380W        W91834  12.724  32.137   0.254
30381W        W91835   7.323  10.812   3.784
30382W        W91836  34.947  20.545  13.953
30383W        W91837  26.173  23.154   3.180
30384W        W91838  37.424  29.499  14.353
30385W        W91839  24.010  12.235  11.388
30386W        W91840  28.933   5.826  14.313
30387W        W91841   4.222  37.965  12.576
30388W        W91842  26.523  31.416   1.401
30389W        W91843   0.878  29.554   2.872
30390W        W91844  40.963  15.663  11.124
30391W        W91845  44.980  27.478  10.471
30392W        W91846  19.666  17.261  12.088
30393W        W91847  10.191  19.637  14.349
30394W        W91848   4.801  38.398   2.401
30395W        W91849  28.179   4.256  10.956
30396W        W91850  17.160  40.927  14.793
30397W        W91851   2.436   2.818  12.937
30398W        W91852  42.318  20.167  13.541
30399W        W91853  42.426  32.137  11.970
30400W        W91854  27.112  40.002  13.970
30401W        W91855  29.047  16.742   1.361
30402W        W91856  44.999  20.072  14.397
30403W        W91857  39.379   9.791  13.023
30404W        W91858  38.514  40.986  10.407
30405W        W91859   0.446  29.623   0.323
30406W        W91860  22.100  29.534  12.476
30407W        W91861  23.111   6.291   1.777
30408W        W91862  40.488  19.557  12.061
30409W        W91863  37.416  42.933   2.738
30410W        W91864  27.571   7.288  10.946
30411W        W91865  25.663  36.533  14.408
30412W        W91866   5.760  17.703   3.340
30413W        W91867  22.673  42.906   1.785
30414W        W91868   5.930  13.196   0.254
30415W        W91869  28.559  36.014  10.127
30416W        W91870  40.890  15.774   0.769
30417W        W91871  12.771  16.184   1.363
30418W        W91872  28.974  14.225  10.610
30419W        W91873  25.992  11.142  11.404
30420W        W91874  27.018  26.973  13.039
30421W        W91875  16.586  12.128  11.869
30422W        W91876  11.133  39.472  13.841
30423W        W91877   4.276  23.498   1.806
30424W        W91878  19.626   2.899  14.483
30425W        W91879  25.537  36.452  11.529
30426W        W91880  43.880  16.180  14.815
30427W        W91881  19.101  27.161  14.933
30428W        W91882  36.499   6.258  11.043
30429W        W91883   1.857   0.262  13.974
30430W        W91884  32.973   9.752  14.949
30431W        W91885  42.984  22.032  12.472
30432W        W91886  38.861  28.993   0.456
30433W        W91887  13.224  17.137  13.451
30434W        W91888  42.384  25.087  12.488
30435W        W91889  15.799  28.562  14.471
30436W        W91890  16.297  19.560  14.973
30437W        W91891  35.431   6.831   0.476
30438W        W91892   1.378  34.539  13.047
30439W        W91893   2.373  27.015  10.422
30440W        W91894  22.058  42.903  10.943
30441W        W91895  36.532  13.117   2.206
30442W        W91896   8.670  15.121  13.003
30443W        W91897  32.013   1.794  14.501
30444W        W91898  18.292  41.010  12.564
30445W        W91899  35.107   2.421   3.235
30446W        W91900   6.314  30.956   2.319
30447W        W91901  25.506  36.957  13.480
30448W        W91902   6.884  17.721   0.832
30449W        W91903  31.003  27.187  11.054
30450W        W91904  21.224   2.927   0.933
30451W        W91905  43.432  28.583   1.397
30452W        W91906  19.627  22.069  10.612
30453W        W91907   1.764   0.855   0.728
30454W        W91908  27.165   0.327   2.372
30455W        W91909  24.035   6.820   1.223
30456W        W91910  30.534  14.268   1.218
30457W        W91911  22.038   5.237  14.453
30458W        W91912   4.371   1.934  11.092
30459W        W91913  13.224  27.190   0.870
30460W        W91914   2.744  16.759  11.855
30461W        W91915  23.570  12.297  14.840
30462W        W91916  13.628  18.612   2.335
30463W        W91917  24.575  43.814  12.520
30464W        W91918  16.574  26.479   3.813
30465W        W91919  35.869  37.482  10.618
30466W        W91920  42.516  39.457  13.908
30467W        W91921  22.083   5.430   0.263
30468W        W91922  11.836   1.424  10.476
30469W        W91923  11.799  27.473   0.926
30470W        W91924  41.865   0.753   3.686
30471W        W91925   3.727  32.982  13.392
30472W        W91926  19.199  28.595   2.392
30473W        W91927  38.562   0.384   4.341
30474W        W91928  14.607  20.535   2.767
30475W        W91929   9.872  17.732   0.747
30476W        W91930  23.199   3.233  14.909
30477W        W91931   3.227  31.115  14.314
30478W        W91932  13.336   5.395  10.453
30479W        W91933  33.391   0.352  10.615
30480W        W91934  37.521  26.179  11.554
30481W        W91935  31.054  27.079  12.375
30482W        W91936  21.200  29.590   2.299
30483W        W91937   6.872  39.556   2.754
30484W        W91938  14.110  20.150   5.297
30485W        W91939  22.667   6.796   0.319
30486W        W91940  42.446  19.657  13.365
30487W        W91941  32.894  33.915  12.497
30488W        W91942   7.823  11.729   0.954
30489W        W91943  34.591  31.095  10.417
30490W        W91944  25.991  26.170   1.426
30491W        W91945  42.316   9.836   0.393
30492W        W91946  20.653  21.202  12.502
30493W        W91947   7.217  30.935  13.357
30494W        W91948  18.573   2.869   4.248
30495W        W91949  20.100   8.837   5.723
30496W        W91950  27.511  41.824  11.567
30497W        W91951   9.165  17.168  10.626
30498W        W91952   0.270  32.030  12.015
30499W        W91953  19.753  19.188   2.238
30500W        W91954  26.674   0.430  12.534
30501W        W91955  11.365   6.799  13.500
30502W        W91956  19.692  43.823   2.263
30503W        W91957  37.995   4.390   1.696
30504W        W91958  24.672  34.884   5.288
30505W        W91959  40.359  41.319  13.953
30506W        W91960  24.110  11.652  14.937
30507W        W91961  41.878  13.645  11.054
30508W        W91962  28.072  33.513   0.813
30509W        W91963  20.723   8.296   0.846
30510W        W91964   8.741  38.527  14.900
30511W        W91965  38.460  41.437   2.864
30512W        W91966   0.297  17.258   3.308
30513W        W91967  35.367   0.348  14.991
30514W        W91968  22.192  26.094   2.315
30515W        W91969  27.011  27.195  14.984
30516W        W91970   8.749  33.453  10.527
30517W        W91971  19.067  28.117   4.687
30518W        W91972  32.025  12.303   1.805
30519W        W91973  43.383  43.505   4.300
30520W        W91974  17.143  32.060  14.438
30521W        W91975  36.575  13.719  13.841
30522W        W91976   4.816  24.017   2.724
30523W        W91977  32.578  40.909   4.608
30524W        W91978  42.006  43.964  11.544
30525W        W91979  20.081  38.457  13.498
30526W        W91980   6.281  43.962  12.366
30527W        W91981   0.918   4.304   1.305
30528W        W91982  35.923   3.903   0.943
30529W        W91983   8.865  14.813   1.324
30530W        W91984  44.004  12.706  10.419
30531W        W91985  21.174  32.127  10.023
30532W        W91986  31.529  43.001   2.728
30533W        W91987   2.363  27.082   3.302
30534W        W91988  44.279  17.695   3.320
30535W        W91989  32.139  12.705  12.967
30536W        W91990  42.017  38.443  11.047
30537W        W91991  18.690  27.605   4.758
30538W        W91992  13.287  22.106   1.346
30539W        W91993  29.647   4.266  11.462
30540W        W91994  22.658  20.118  12.507
30541W        W91995  28.579  31.113   1.222
30542W        W91996  39.334  42.380   5.614
30543W        W91997  39.399  43.948  10.003
30544W        W91998  37.485   0.450   3.209
30545W        W91999  24.668  22.555   3.870
30546W        W92000  38.876   4.908   9.981
30547W        W92001  13.270  42.877  13.485
30548W        W92002  39.464  36.038   0.818
30549W        W92003   4.385   4.915  14.459
30550W        W92004   7.327  34.114  12.001
30551W        W92005  20.184  12.305   1.247
30552W        W92006  30.578  21.688   2.808
30553W        W92007  20.229  19.588  14.499
30554W        W92008   5.340  26.170  13.924
30555W        W92009   3.743  19.225  13.416
30556W        W92010  17.781  23.091  14.782
30557W        W92011  22.646   8.875  13.853
30558W        W92012  28.584  31.614   0.399
30559W        W92013  13.199  36.083   9.983
30560W        W92014  28.477  26.996   0.893
30561W        W92015   0.969  41.460   2.677
30562W        W92016  21.517  30.096   4.343
30563W        W92017  29.016   3.888   2.288
30564W        W92018  22.137  34.043   1.382
30565W        W92019  35.403  22.133  14.826
30566W        W92020  24.167  27.143  10.540
30567W        W92021  10.354  39.876  10.590
30568W        W92022  34.011  24.493  13.475
30569W        W92023   4.851  24.228  13.542
30570W        W92024  37.905  34.096   2.898
30571W        W92025  28.142   9.287   2.868
30572W        W92026  19.733  39.884   2.345
30573W        W92027  44.940  35.042   3.867
30574W        W92028  37.876  31.431  11.569
30575W        W92029  23.595  18.266   1.707
30576W        W92030  15.706  26.486  10.421
30577W        W92031  37.998  12.143  12.523
30578W        W92032  34.082   3.893  13.895
30579W        W92033  24.049  36.907   4.666
30580W        W92034  15.799  19.102   1.218
30581W        W92035  12.146   1.954  14.841
30582W        W92036  38.464  21.228  12.499
30583W        W92037  29.993  27.073  13.959
30584W        W92038  28.547  27.146  14.278
30585W        W92039  36.503  40.827  13.808
30586W        W92040  21.120  40.446   0.443
30587W        W92041  36.869  40.449   2.823
30588W        W92042  24.978  15.211  14.392
30589W        W92043   8.223  28.556   0.962
30590W        W92044   1.933  29.119  10.624
30591W        W92045  28.052  28.518   2.367
30592W        W92046   3.947  19.217  10.481
30593W        W92047   3.232   2.964  12.987
30594W        W92048  25.203  37.451   2.889
30595W        W92049  24.526  43.863  14.023
30596W        W92050  38.024   8.858   2.337
30597W        W92051  14.652   6.776  13.806
30598W        W92052  44.265  43.779  10.475
30599W        W92053  25.068  25.073  10.094
30600W        W92054  24.639   3.938   2.336
30601W        W92055  40.489  32.564  14.316
30602W        W92056  20.633  24.076   1.352
30603W        W92057  44.915  37.013  13.460
30604W        W92058  14.323  25.696  10.911
30605W        W92059   2.387  12.800   0.391
30606W        W92060  22.572   4.820  12.980
30607W        W92061  27.142  11.201   0.898
30608W        W92062  12.357  11.633   1.761
30609W        W92063   9.216  26.594  10.463
30610W        W92064   8.405  33.462  14.418
30611W        W92065  34.425  21.075   5.109
30612W        W92066  36.468  40.414   1.909
30613W        W92067  25.574  33.625  11.438
30614W        W92068  19.538  20.043  11.392
30615W        W92069   4.760  18.564   4.702
30616W        W92070  19.722   2.906   3.368
30617W        W92071   4.239  18.207   1.761
30618W        W92072  31.919  41.931   2.720
30619W        W92073  24.164  19.646  13.329
30620W        W92074   3.384  27.604   1.428
30621W        W92075  14.124  38.362   4.165
30622W        W92076  42.439   7.325  12.537
30623W        W92077  14.800  33.044   4.347
30624W        W92078  35.105  25.539   3.650
30625W        W92079   2.389   0.836   4.784
30626W        W92080   6.326   3.297   4.762
30627W        W92081  35.513  15.103   2.686
30628W        W92082  29.042  10.345  12.880
30629W        W92083  30.459  28.056  11.945
30630W        W92084  13.728  25.065  12.347
30631W        W92085  27.069  32.071   4.122
30632W        W92086  11.367  18.208   0.342
30633W        W92087   6.243   1.807  12.057
30634W        W92088  36.551   2.963   4.828
30635W        W92089   7.216  24.030   4.824
30636W        W92090  27.961  36.456   1.431
30637W        W92091  39.552  34.895   4.342
30638W        W92092  24.019  40.831   4.341
30639W        W92093  34.579   0.422   4.609
30640W        W92094   9.719  34.093  13.485
30641W        W92095  13.126  18.617  13.414
30642W        W92096  22.508  20.177   4.750
30643W        W92097  42.283  28.132  12.482
30644W        W92098   0.929  31.926   0.731
30645W        W92099   2.262   7.723  12.430
30646W        W92100  14.304  24.989  12.380
30647W        W92101  42.889  19.685  14.785
30648W        W92102   4.911  21.236   1.923
30649W        W92103   4.765   9.376   2.819
30650W        W92104  16.134   5.388   4.787
30651W        W92105  17.778  32.107   4.137
30652W        W92106  16.646   2.414  13.924
30653W        W92107   9.334  33.440   2.370
30654W        W92108  42.953  34.964   4.130
30655W        W92109   1.760  25.545  11.910
30656W        W92110  23.517  37.055   1.220
30657W        W92111  22.629  14.280   2.412
30658W        W92112   0.900   3.419  12.914
30659W        W92113   9.844  17.589  11.532
30660W        W92114  44.290   4.856  11.453
30661W        W92115  31.502  44.952   3.349
30662W        W92116   8.696  15.772  13.887
30663W        W92117  33.545  28.080   2.397
30664W        W92118  23.987  11.198  13.486
30665W        W92119  26.193  14.613  12.046
30666W        W92120  23.054   8.347   2.664
30667W        W92121  44.347   4.764  10.130
30668W        W92122  10.224  41.508   2.396
30669W        W92123  30.950   4.416   3.648
30670W        W92124  34.865  28.138   9.986
30671W        W92125  10.222  28.130   1.371
30672W        W92126  31.438  43.378   2.744
30673W        W92127  22.097   0.780  11.855
30674W        W92128   1.360   9.344  10.603
30675W        W92129   5.815  43.453   0.950
30676W        W92130  20.533  18.220   1.423
30677W        W92131  17.665  32.953  11.060
30678W        W92132  23.003   1.422  12.876
30679W        W92133  27.688  41.498  13.897
30680W        W92134  42.882  39.921  12.090
30681W        W92135   4.359   4.773  14.891
30682W        W92136  41.417  44.881  14.378
30683W        W92137  27.644   3.443   0.792
30684W        W92138  24.224  30.161   1.274
30685W        W92139   7.671  13.162   2.352
30686W        W92140  18.766  44.402   4.181
30687W        W92141  10.292  27.116   3.363
30688W        W92142  22.178  11.674   4.639
30689W        W92143  23.181  26.509   3.165
30690W        W92144  29.151  25.053   4.798
30691W        W92145  24.141  30.563  11.108
30692W        W92146  21.623  29.629   3.745
30693W        W92147  23.100  27.608  13.890
30694W        W92148  13.243  26.029   2.889
30695W        W92149  31.503  33.422   3.208
30696W        W92150   7.258   9.261  13.930
30697W        W92151  37.056  31.912  12.349
30698W        W92152  44.942   7.736  12.509
30699W        W92153   4.362  25.171   1.821
30700W        W92154  30.475  10.350  11.589
30701W        W92155  24.688  33.551  10.465
30702W        W92156  25.975  19.693   3.729
30703W        W92157  42.838  44.001   4.254
30704W        W92158  10.146  33.111   5.585
30705W        W92159  37.377  34.949  11.580
30706W        W92160  36.950  25.674  13.813
30707W        W92161  30.106  26.495   0.323
30708W        W92162  34.047  41.418  14.788
30709W        W92163   7.861   7.800  12.868
30710W        W92164  30.997  32.495   4.816
30711W        W92165  36.584  29.166   0.902
30712W        W92166   0.334  11.265  13.797
30713W        W92167  37.912   8.744  14.479
30714W        W92168   7.216  20.196   3.660
30715W        W92169  18.706   5.352  12.084
30716W        W92170  44.933   6.230   4.170
30717W        W92171  44.844  22.669   3.372
30718W        W92172  38.961  31.149  12.505
30719W        W92173  21.173  16.648  12.347
30720W        W92174  28.475   0.830  11.857
30721W        W92175  27.128   9.845   2.779
30722W        W92176   9.861  27.615   4.834
30723W        W92177  19.143   8.749   2.837
30724W        W92178  43.506   3.817  10.568
30725W        W92179  16.263  26.154   0.464
30726W        W92180  44.839  17.771   0.346
30727W        W92181   5.700  42.963  11.901
30728W        W92182  10.355  11.249   0.756
30729W        W92183  24.060   2.781  10.594
30730W        W92184  22.219  36.521   3.806
30731W        W92185   4.898  15.739  11.055
30732W        W92186  17.656  22.109   2.685
30733W        W92187  31.050  36.090  12.961
30734W        W92188  23.038  31.066   1.345
30735W        W92189  28.579  24.692   3.669
30736W        W92190  41.330  25.589   0.887
30737W        W92191  15.813  37.360   0.461
30738W        W92192   1.965  29.942  11.933
30739W        W92193  28.632  39.357   1.425
30740W        W92194  30.604  34.519   2.199
30741W        W92195   5.706  39.878  12.988
30742W        W92196  14.253  29.173   4.137
30743W        W92197  27.661  35.494   2.293
30744W        W92198   2.323  43.515  14.977
30745W        W92199  27.985  11.244   2.271
30746W        W92200  24.700  11.628  11.492
30747W        W92201   9.665  20.539  11.922
30748W        W92202  39.396  42.316  10.044
30749W        W92203  16.250  23.062   1.311
30750W        W92204  16.248  21.577  14.968
30751W        W92205  18.181  10.820   0.287
30752W        W92206  30.161  17.753  12.454
30753W        W92207  15.318  17.747   9.926
30754W        W92208  14.642   5.372   3.745
30755W        W92209   4.401  40.464   1.405
30756W        W92210  24.995  27.120  14.432
30757W        W92211  20.534   2.401  11.057
30758W        W92212  11.245  26.465   1.778
30759W        W92213   4.852  42.316  12.949
30760W        W92214  18.719  30.979  13.803
30761W        W92215  21.026  36.935   3.716
30762W        W92216   7.329  24.000   3.330
30763W        W92217  12.855   8.835  12.392
30764W        W92218  16.142  32.503   1.842
30765W        W92219  16.653  21.085  11.513
30766W        W92220   1.311  28.442   4.281
30767W        W92221   2.363   0.488  11.408
30768W        W92222   1.249   4.214   0.957
30769W        W92223  38.927  23.674   9.964
30770W        W92224  32.560   2.392  11.383
30771W        W92225  41.917  15.128   1.846
30772W        W92226   0.794  40.387   3.808
30773W        W92227  31.621  38.004  12.921
30774W        W92228   9.237  23.157   3.662
30775W        W92229  17.275  21.071  13.510
30776W        W92230  40.356  44.825  13.926
30777W        W92231   1.305  11.211   4.637
30778W        W92232  34.577  31.960  13.447
30779W        W92233  35.542  19.630  10.495
30780W        W92234  44.472   9.388  12.886
30781W        W92235  21.168  25.002   0.292
30782W        W92236  32.398   8.729  10.468
30783W        W92237  39.999   4.225  12.930
30784W        W92238  14.224   7.254  12.090
30785W        W92239  41.969  32.605   2.864
30786W        W92240  18.255  44.796  10.461
30787W        W92241   3.934  22.223   3.852
30788W        W92242  11.789  38.413   2.281
30789W        W92243  12.687  21.146   3.216
30790W        W92244  18.732  35.541  13.346
30791W        W92245  13.709  27.089   0.399
30792W        W92246  16.776   7.777  11.857
30793W        W92247  31.987   2.940  11.032
30794W        W92248   3.289  32.952   3.150
30795W        W92249  19.279   6.808  13.981
30796W        W92250  23.209  17.110  13.836
30797W        W92251  42.478   5.268  11.375
30798W        W92252  33.576  31.537  14.834
30799W        W92253  32.525  18.144  11.969
30800W        W92254  27.600  35.985  14.430
30801W        W92255  42.820  20.066  10.563
30802W        W92256  34.450  39.992   3.697
30803W        W92257  17.781  33.896   3.344
30804W        W92258  10.801  19.204  14.994
30805W        W92259  27.101   7.301  11.510
30806W        W92260  17.133  16.114  14.032
30807W        W92261  26.465  25.517   2.897
30808W        W92262  26.975  12.335   3.775
30809W        W92263  18.615  17.617   2.274
30810W        W92264  35.579  21.034   2.746
30811W        W92265   5.909  39.382  13.481
30812W        W92266  25.550  13.140  11.544
30813W        W92267  29.621  26.135  11.373
30814W        W92268  10.244   5.317  13.993
30815W        W92269  44.294  31.953   2.260
30816W        W92270  24.182   0.419  13.929
30817W        W92271  44.930   0.979   2.761
30818W        W92272  11.286   1.376   0.797
30819W        W92273  23.988  34.990  13.449
30820W        W92274  39.527  25.685  11.874
30821W        W92275  43.865  26.636   1.842
30822W        W92276  17.762  22.526   1.818
30823W        W92277  18.226  28.482  12.082
30824W        W92278   7.302   8.345  12.985
30825W        W92279  43.457  37.971   0.762
30826W        W92280  41.873  19.232   2.199
30827W        W92281  44.324  32.916  12.572
30828W        W92282  14.640  34.493  11.086
30829W        W92283  41.434   1.396  13.794
30830W        W92284   4.754   4.728  12.966
30831W        W92285  40.422  36.028  12.973
30832W        W92286  32.501   0.786  10.616
30833W        W92287  31.019  18.162  14.927
30834W        W92288  30.930  37.482  12.374
30835W        W92289  44.345  40.016  11.017
30836W        W92290   5.388  17.775  12.074
30837W        W92291  40.940  43.780   4.790
30838W        W92292  32.430   2.801  11.066
30839W        W92293  39.360  31.637  14.449
30840W        W92294   5.870  24.630  12.032
30841W        W92295  15.185  10.815   0.279
30842W        W92296  25.022   0.386   1.776
30843W        W92297  17.218  27.977  11.885
30844W        W92298  14.283  32.607   1.727
30845W        W92299   9.315  29.957  13.932
30846W        W92300  32.017  31.542   3.637
30847W        W92301  16.652   2.467   0.429
30848W        W92302  10.338  28.441  14.495
30849W        W92303  26.005  37.404   5.313
30850W        W92304   9.263  27.194  11.546
30851W        W92305   8.858  35.411  14.385
30852W        W92306  12.338  36.473  13.870
30853W        W92307  16.172  24.704   2.731
30854W        W92308  27.591  22.744   3.213
30855W        W92309  35.044  19.706  12.834
30856W        W92310  11.716  16.115   4.754
30857W        W92311  13.182  26.610   3.738
30858W        W92312  41.043  39.407  10.537
30859W        W92313  28.634  37.077  10.032
30860W        W92314  17.121   3.371  10.642
30861W        W92315   5.789   4.358  13.527
30862W        W92316  23.548  33.437  11.388
30863W        W92317  34.960  43.442  13.402
30864W        W92318  12.184  39.867  13.957
30865W        W92319  33.060  36.376   2.279
30866W        W92320   6.342  18.558  12.830
30867W        W92321  27.067  41.406  13.846
30868W        W92322  35.358   3.275   1.824
30869W        W92323   5.256  15.592  11.873
30870W        W92324  20.738  11.209   0.827
30871W        W92325  27.157  42.437   3.202
30872W        W92326   4.403  25.572   2.771
30873W        W92327  40.011  19.564   0.458
30874W        W92328   7.232   0.365  10.590
30875W        W92329   2.815  23.146   0.388
30876W        W92330  14.759  19.248   0.790
30877W        W92331  32.589  32.010   2.713
30878W        W92332  21.630  13.149   0.798
30879W        W92333  36.533  32.013  10.521
30880W        W92334  19.607  27.998  13.434
30881W        W92335  21.120   3.434  10.973
30882W        W92336  33.938  38.843   1.406
30883W        W92337  41.020  25.198  14.318
30884W        W92338  36.969  19.076   0.744
30885W        W92339  15.723   6.318  13.310
30886W        W92340  34.385  23.670   0.267
30887W        W92341  23.081  41.877  14.477
30888W        W92342  34.942   0.293   3.223
30889W        W92343  37.054  27.525   4.677
30890W        W92344  42.901  11.211   4.153
30891W        W92345   0.941  22.070   4.279
30892W        W92346  36.484  11.670   3.334
30893W        W92347  42.872  21.126   2.364
30894W        W92348  25.210  37.876  14.299
30895W        W92349  10.302  44.986  12.571
30896W        W92350  34.065  27.668   4.701
30897W        W92351  35.889  32.927   1.911
30898W        W92352  13.139  40.376   1.372
30899W        W92353   0.389  37.337   0.818
30900W        W92354  12.638  44.352  11.503
30901W        W92355  31.427  31.124  14.416
30902W        W92356  33.004   8.861   1.781
30903W        W92357  21.036  39.865  12.481
30904W        W92358  29.535  36.885  13.061
30905W        W92359  38.969  26.180  12.543
30906W        W92360  14.796   5.845  10.934
30907W        W92361  33.095  44.817   0.915
30908W        W92362   8.816  33.474   5.166
30909W        W92363  42.975  14.672  11.856
30910W        W92364  41.949  28.034  12.886
30911W        W92365  16.244  38.073  11.988
30912W        W92366  35.891  19.175   4.325
30913W        W92367  32.895  24.106  14.857
30914W        W92368  31.603  28.441  14.347
30915W        W92369   2.879  24.187  14.484
30916W        W92370  36.003  11.772   4.809
30917W        W92371  42.986   2.374   3.636
30918W        W92372  34.990  11.175  11.606
30919W        W92373   0.947   9.871   1.226
30920W        W92374   8.793  41.482   1.357
30921W        W92375  22.572  18.558  14.946
30922W        W92376  32.118  20.033  11.054
30923W        W92377  37.884  22.194  13.465
30924W        W92378  12.651  15.301  13.812
30925W        W92379  24.552  11.817   4.196
30926W        W92380  27.672  17.087  12.997
30927W        W92381  16.747   5.203   1.708
30928W        W92382  23.188  35.515  11.566
30929W        W92383  32.089  11.782   1.425
30930W        W92384  31.545  41.894   2.329
30931W        W92385   4.363  22.692   2.836
30932W        W92386  21.743  15.674   4.124
30933W        W92387  21.100  42.788   2.349
30934W        W92388  13.633   6.721  10.932
30935W        W92389  41.371  40.971   4.757
30936W        W92390   6.808  24.702  10.988
30937W        W92391  39.849   1.864  10.620
30938W        W92392  33.958  39.003  14.985
30939W        W92393   4.220   4.264   3.793
30940W        W92394  43.457  23.697   1.333
30941W        W92395   6.714   9.226  14.857
30942W        W92396   9.316  35.550   3.777
30943W        W92397  37.853   0.754  11.940
30944W        W92398   5.796  32.562  14.965
30945W        W92399  19.212  32.887  11.432
30946W        W92400   8.871   0.811  11.888
30947W        W92401   0.925  21.529   3.225
30948W        W92402  34.046  23.544   0.254
30949W        W92403  17.646  12.807  12.579
30950W        W92404  27.583  16.264   1.745
30951W        W92405  18.784  21.216  12.382
30952W        W92406   2.265   2.233  12.445
30953W        W92407  22.083  32.518   2.724
30954W        W92408  15.679  34.535   1.726
30955W        W92409  36.859  27.977   3.666
30956W        W92410  38.833  24.076  14.760
30957W        W92411  18.215   2.957  14.802
30958W        W92412  37.956   5.263  13.885
30959W        W92413  26.552  41.518   2.838
30960W        W92414  12.265   0.904  12.358
30961W        W92415  44.758  19.054   3.198
30962W        W92416  19.692   8.767   4.661
30963W        W92417  25.487   3.444  12.492
30964W        W92418  20.099  19.595   4.821
30965W        W92419   0.313  35.569  12.057
30966W        W92420   5.780  42.506   1.451
30967W        W92421  20.581  36.084  12.364
30968W        W92422  36.083  38.499   2.880
30969W        W92423  19.101   5.364   4.795
30970W        W92424  25.131  14.785   4.606
30971W        W92425  14.717  23.001   4.246
30972W        W92426  14.816  19.094   4.784
30973W        W92427  13.634   1.264   0.925
30974W        W92428  24.487  39.502   1.348
30975W        W92429   3.942   1.450   1.335
30976W        W92430  40.913   8.704  12.452
30977W        W92431  21.705  18.783   0.349
30978W        W92432  14.600  31.031   1.213
30979W        W92433  38.864  30.554   3.282
30980W        W92434  41.308  20.733  11.428
30981W        W92435   1.744  12.301   2.252
30982W        W92436  38.998  12.853  14.796
30983W        W92437  18.655  19.700  14.811
30984W        W92438  44.315  33.432   3.690
30985W        W92439   9.794  27.014  11.106
30986W        W92440   4.882  21.702   4.120
30987W        W92441  33.127   1.349  10.625
30988W        W92442   7.214  29.454  10.964
30989W        W92443   5.242  17.697   1.277
30990W        W92444   5.428  27.058   2.313
30991W        W92445  20.256  19.556  13.865
30992W        W92446  22.205  29.046  12.551
30993W        W92447  15.251   4.420   1.724
30994W        W92448  23.513  29.569  12.466
30995W        W92449   1.773  22.593   2.671
30996W        W92450  10.870  14.749  11.083
30997W        W92451   0.868  36.545   3.252
30998W        W92452  29.490  42.352   4.691
30999W        W92453   6.406   3.835  11.012
31000W        W92454  30.510   7.278  11.441
31001W        W92455  20.164  21.579   3.848
31002W        W92456  21.546  14.653   4.648
31003W        W92457   8.766  44.487   3.835
31004W        W92458  25.496  21.096   3.157
31005W        W92459  19.230  12.133  12.422
31006W        W92460  14.738  35.476  13.362
31007W        W92461  35.077  32.932  14.886
31008W        W92462  26.024  43.295   4.229
31009W        W92463   5.726   7.675  14.501
31010W        W92464   5.335  44.925   1.760
31011W        W92465  44.268  26.459  14.027
31012W        W92466  33.983  29.609  12.933
31013W        W92467  27.529  40.908   2.308
31014W        W92468  15.782  42.981   1.385
31015W        W92469  10.296  29.981   3.176
31016W        W92470  42.481  20.161   3.229
31017W        W92471  19.172  12.344   3.796
31018W        W92472  11.194  22.643  12.355
31019W        W92473  11.177  43.388   2.419
31020W        W92474  42.330  38.882  12.568
31021W        W92475  43.394   8.858  13.314
31022W        W92476  13.639  13.217  12.884
31023W        W92477  42.383  16.785  13.400
31024W        W92478  39.891  35.009  14.345
31025W        W92479  37.971  19.742   1.441
31026W        W92480  30.417   8.674   1.258
31027W        W92481  13.616   7.696  11.065
31028W        W92482  44.858   8.210  11.384
31029W        W92483  13.160  24.671  14.291
31030W        W92484  26.573   3.855   3.319
31031W        W92485  42.485  31.569   0.902
31032W        W92486  11.259  27.619  12.524
31033W        W92487  23.688  12.328  11.592
31034W        W92488  32.998  11.653  13.814
31035W        W92489   2.879  13.776  13.522
31036W        W92490  36.083  44.390   0.420
31037W        W92491  10.294   2.331   4.270
31038W        W92492  40.965  25.646   2.416
31039W        W92493  30.445   1.465  12.029
31040W        W92494  41.463  27.632  13.530
31041W        W92495   2.463  18.281   2.813
31042W        W92496   7.289   2.235  11.479
31043W        W92497   7.683  18.228  12.485
31044W        W92498  34.539   1.885  14.510
31045W        W92499  11.330  42.490  10.065
31046W        W92500  23.013  38.057  14.854
31047W        W92501  37.963  19.651   4.713
31048W        W92502  35.858  36.386   3.796
31049W        W92503  35.453  30.950  12.071
31050W        W92504  25.638  36.869   0.379
31051W        W92505   0.416   1.287  11.042
31052W        W92506  28.985   9.357  11.573
31053W        W92507  38.972  30.566  10.506
31054W        W92508   0.369  15.579   0.955
31055W        W92509  37.370  31.993  12.830
31056W        W92510   6.389  34.071   1.795
31057W        W92511  32.494  42.341   2.310
31058W        W92512  12.712  11.264  11.905
31059W        W92513  33.887  26.144   4.159
31060W        W92514   0.456  34.034   3.348
31061W        W92515  38.566  12.736   0.742
31062W        W92516   1.907  13.717  13.488
31063W        W92517   8.232  35.991   0.361
31064W        W92518  21.677  32.060   3.339
31065W        W92519  17.679  26.036  12.993
31066W        W92520  35.391  17.688   4.722
31067W        W92521  24.983  26.138   4.171
31068W        W92522  39.064   5.281  14.395
31069W        W92523  29.041  32.600  11.962
31070W        W92524  27.449  12.647  11.993
31071W        W92525  23.505  28.115  10.433
31072W        W92526  37.938  17.190  10.022
31073W        W92527  32.936  38.904   2.262
31074W        W92528  34.901  44.503  12.427
31075W        W92529  18.569  26.974   3.719
31076W        W92530  25.569   0.306  14.383
31077W        W92531  41.942   8.742   3.284
31078W        W92532  36.464  28.975  11.001
31079W        W92533   2.853  12.740  12.549
31080W        W92534  44.874  35.023   2.419
31081W        W92535  12.233  17.783  12.553
31082W        W92536  35.854  44.852  14.310
31083W        W92537  31.479  24.117   4.354
31084W        W92538  18.144  44.956   0.766
31085W        W92539  42.496  39.053   0.483
31086W        W92540  25.497   4.370   3.684
31087W        W92541  38.013  13.797   3.682
31088W        W92542  11.796  10.784   0.446
31089W        W92543   6.402  34.953  12.888
31090W        W92544  30.922  36.914   1.879
31091W        W92545  23.133  27.010  10.457
31092W        W92546   3.406  28.500  10.997
31093W        W92547   8.277  17.708   0.428
31094W        W92548  29.653  38.049  14.897
31095W        W92549  43.016   3.908   1.268
31096W        W92550  36.592  13.288  10.588
31097W        W92551  38.450   9.866   1.280
31098W        W92552  34.048   3.949  12.401
31099W        W92553  25.981   0.759  13.854
31100W        W92554  31.144  10.301   4.663
31101W        W92555   8.333  25.623   2.748
31102W        W92556  16.293  36.417   0.317
31103W        W92557   1.281  11.788   3.156
31104W        W92558  35.363  24.515  12.388
31105W        W92559  16.625  34.077  13.474
31106W        W92560  27.451  35.880   2.807
31107W        W92561  23.110  17.126  11.984
31108W        W92562  37.401  20.143  11.018
31109W        W92563   6.368  18.682   3.156
31110W        W92564  39.833   1.833  11.917
31111W        W92565  42.800  29.992  13.930
31112W        W92566   3.942  43.771   2.710
31113W        W92567  23.988  13.337  13.837
31114W        W92568  32.940   7.251  13.999
31115W        W92569  39.483  35.054  14.373
31116W        W92570  43.885  35.506  14.841
31117W        W92571   6.412  36.842   0.338
31118W        W92572  29.633  40.051   3.315
31119W        W92573  27.642  15.724   0.749
31120W        W92574   4.326  33.617   1.287
31121W        W92575  28.006  25.557   4.280
31122W        W92576  24.124  20.597   2.215
31123W        W92577  14.725  30.070   2.330
31124W        W92578  31.534   2.723   4.288
31125W        W92579  13.191  20.721   2.220
31126W        W92580   3.424  42.433   3.251
31127W        W92581  41.483  26.200   0.891
31128W        W92582  21.592  26.663  12.398
31129W        W92583   9.875  22.010   2.377
31130W        W92584   9.832  35.380  10.492
31131W        W92585  35.066  34.024   4.188
31132W        W92586  13.649  29.001  12.575
31133W        W92587  24.658  12.265   4.765
31134W        W92588  13.820  16.680   5.751
31135W        W92589   3.286   7.769   1.765
31136W        W92590  31.917  15.220  11.984
31137W        W92591  29.529  40.863   2.874
31138W        W92592   7.205   9.347   2.404
31139W        W92593   1.269   7.340   3.799
31140W        W92594  28.660  14.134   1.862
31141W        W92595  38.000   7.255  14.334
31142W        W92596  43.404   3.855   0.833
31143W        W92597  18.223  32.629  14.788
31144W        W92598  10.850  30.540  12.870
31145W        W92599  22.744  29.981   1.343
31146W        W92600  43.952  15.149  13.352
31147W        W92601  33.899  21.648   1.333
31148W        W92602   1.909  40.852  10.546
31149W        W92603  35.398  30.592  13.816
31150W        W92604  35.912   1.325  11.440
31151W        W92605   3.847   7.905  14.913
31152W        W92606  29.129  20.680  14.995
31153W        W92607   3.736   7.351  13.416
31154W        W92608  31.412  37.912   0.827
31155W        W92609   4.848  31.521  13.913
31156W        W92610  24.017  11.844   2.419
31157W        W92611  27.486   8.284   0.747
31158W        W92612   1.812  41.511   4.341
31159W        W92613  28.166  18.753   1.217
31160W        W92614  13.843  12.777  13.447
31161W        W92615  34.083  16.791  13.829
31162W        W92616  32.631  11.185  13.000
31163W        W92617  15.804  14.222   1.222
31164W        W92618  35.469   7.828  10.477
31165W        W92619  20.677  29.046   4.767
31166W        W92620  24.100  35.450   3.835
31167W        W92621  43.776  20.059  10.643
31168W        W92622  31.446  34.085   0.824
31169W        W92623  43.000   6.906  14.809
31170W        W92624  23.599  38.521   1.306
31171W        W92625  41.893  41.881  10.961
31172W        W92626  38.897   0.353  13.500
31173W        W92627   0.953  44.911   1.415
31174W        W92628   0.927  30.488  12.572
31175W        W92629  35.944  26.056  12.054
31176W        W92630  29.657  38.076  14.412
31177W        W92631   1.778  15.107   4.598
31178W        W92632  21.672  44.768   1.899
31179W        W92633   4.353  41.986  14.491
31180W        W92634  33.525  22.620   4.612
31181W        W92635  20.168  32.139   0.870
31182W        W92636  41.299  38.365   1.214
31183W        W92637   4.342  12.840   2.347
31184W        W92638  35.426   2.782  13.388
31185W        W92639  15.170  37.582   0.361
31186W        W92640  14.136  18.295   0.730
31187W        W92641  44.905  11.165   0.921
31188W        W92642  26.080  25.709   2.678
31189W        W92643  17.140  29.567  13.997
31190W        W92644   1.887  39.343  13.005
31191W        W92645  38.331  41.529   5.203
31192W        W92646  42.832  16.757  13.479
31193W        W92647  20.532  10.778   1.708
31194W        W92648  25.643  30.060   1.224
31195W        W92649  41.432  17.064  14.908
31196W        W92650  13.314  33.963  14.364
31197W        W92651  29.586   9.295   1.390
31198W        W92652  35.954   6.716  14.297
31199W        W92653  23.234   5.786  13.024
31200W        W92654   1.796  35.426   1.295
31201W        W92655   8.186  37.448  10.050
31202W        W92656  14.831  34.373   2.416
31203W        W92657  37.384  27.042  12.068
31204W        W92658   5.883  44.471  13.322
31205W        W92659  35.587  19.688   0.372
31206W        W92660  22.542  31.631  11.602
31207W        W92661  38.467  43.445  11.582
31208W        W92662  20.045   6.859  10.897
31209W        W92663   4.884  41.526  10.542
31210W        W92664  34.930  42.862  12.378
31211W        W92665  27.690  15.640  11.009
31212W        W92666  29.947   9.648   4.309
31213W        W92667  29.941  36.483  12.354
31214W        W92668   9.780  29.548   4.716
31215W        W92669  35.521   8.681  12.927
31216W        W92670  20.633  39.812   1.445
31217W        W92671  29.593  12.680   2.278
31218W        W92672   2.860  39.843  12.046
31219W        W92673  21.680  17.120   1.808
31220W        W92674   7.685  30.941   1.911
31221W        W92675  39.021  29.145  11.037
31222W        W92676  32.964  35.387   1.270
31223W        W92677   3.361  13.347   2.827
31224W        W92678  24.216   4.383  11.977
31225W        W92679  22.193  11.286  14.834
31226W        W92680  37.954  22.523   3.317
31227W        W92681  31.521   7.174   0.370
31228W        W92682   7.760  13.321   2.756
31229W        W92683  11.717  22.239   3.226
31230W        W92684  33.550  32.922   9.924
31231W        W92685  33.093  40.308   4.265
31232W        W92686  21.263  38.384  13.529
31233W        W92687   2.928   8.309   0.931
31234W        W92688  25.507  12.263   0.265
31235W        W92689  16.768  34.501   3.250
31236W        W92690  27.488   0.335  14.431
31237W        W92691  42.808  15.233   0.777
31238W        W92692  17.174  15.662  11.609
31239W        W92693  37.368  40.469   3.793
31240W        W92694   1.973  11.676  14.308
31241W        W92695  43.338   8.763  13.796
31242W        W92696   3.297  23.685  12.522
31243W        W92697  40.401  21.055  13.876
31244W        W92698  13.319  34.894  13.807
31245W        W92699  14.693  36.059  12.034
31246W        W92700  11.256  26.038  14.813
31247W        W92701  11.822  10.259   4.324
31248W        W92702  10.265   9.246  13.985
31249W        W92703  31.142  43.021   2.748
31250W        W92704   2.422   5.804   0.301
31251W        W92705   5.876  16.740  11.470
31252W        W92706  42.292  14.253  11.523
31253W        W92707  31.033   1.876  12.449
31254W        W92708  42.848  43.378   0.306
31255W        W92709  22.560  15.620  11.118
31256W        W92710  27.591  24.084  12.528
31257W        W92711  40.918   5.315   3.759
31258W        W92712  29.132  18.680   1.277
31259W        W92713  34.890  30.157   2.752
31260W        W92714   4.837   8.770  11.599
31261W        W92715   3.257  16.677  13.347
31262W        W92716  43.775  39.498  12.032
31263W        W92717  30.536  43.831  11.014
31264W        W92718   4.922  18.139   0.804
31265W        W92719  17.249  18.122  12.996
31266W        W92720  36.458  34.024  12.559
31267W        W92721  17.098  24.556  13.905
31268W        W92722  43.344  39.908  14.346
31269W        W92723  20.571  10.748  12.408
31270W        W92724  25.630  16.651  13.528
31271W        W92725  29.432  33.978  12.903
31272W        W92726  34.549  21.076   0.360
31273W        W92727   9.750   6.363  13.525
31274W        W92728  25.562   1.252  10.896
31275W        W92729  33.453  17.618   4.714
31276W        W92730  12.615  32.611   2.387
31277W        W92731  27.471  28.956   4.729
31278W        W92732  32.451  16.176  12.857
31279W        W92733  44.995  43.500   1.251
31280W        W92734  18.719   9.183  11.403
31281W        W92735  15.578  43.318   2.857
31282W        W92736  25.637   1.389   0.957
31283W        W92737  33.586  37.946  11.991
31284W        W92738  21.064  44.949  12.005
31285W        W92739  21.030  22.095   3.787
31286W        W92740  20.585  29.496  14.882
31287W        W92741  17.198  31.097   4.173
31288W        W92742  35.912   8.794   1.711
31289W        W92743  41.909   1.958   4.804
31290W        W92744  41.485  26.961  13.498
31291W        W92745  33.554  13.216   4.656
31292W        W92746  36.062  13.133  12.341
31293W        W92747  43.427  17.766  12.031
31294W        W92748   3.328  44.835   1.333
31295W        W92749  15.811  40.446  13.465
31296W        W92750  25.031  16.281  11.023
31297W        W92751  41.420  18.598  10.569
31298W        W92752  43.937  18.138   0.347
31299W        W92753  13.734  22.744  14.489
31300W        W92754  43.358  16.149  13.921
31301W        W92755   3.750  19.723   2.386
31302W        W92756  30.028  10.319   2.353
31303W        W92757  35.408  36.593   1.287
31304W        W92758  31.457   9.345   0.757
31305W        W92759  34.068  34.992  14.010
31306W        W92760  19.715  26.183  14.372
31307W        W92761  24.143  41.340  11.590
31308W        W92762   7.811  28.186   3.259
31309W        W92763  12.313   1.300  13.006
31310W        W92764  40.051   9.258  13.521
31311W        W92765  30.495  40.899  11.609
31312W        W92766  36.964  18.666   1.781
31313W        W92767   6.397   8.169  10.919
31314W        W92768  37.390  13.830  14.515
31315W        W92769  40.051   2.326   4.229
31316W        W92770  38.901  35.038  12.493
31317W        W92771  30.929  10.759  13.529
31318W        W92772  10.281  23.722  12.028
31319W        W92773  14.610  29.158   3.811
31320W        W92774  22.202  16.724  12.067
31321W        W92775  42.487  19.203   3.848
31322W        W92776  15.742  24.121  12.522
31323W        W92777  13.292   1.469   4.833
31324W        W92778   0.815   3.453   4.354
31325W        W92779  37.953  40.029   3.823
31326W        W92780  29.968  40.331   4.207
31327W        W92781  38.327  31.903   4.601
31328W        W92782  30.114  19.711  14.472
31329W        W92783   0.493  25.145   0.735
31330W        W92784  27.130  36.371   4.802
31331W        W92785  34.968  31.969  11.504
31332W        W92786   0.898  29.483   0.418
31333W        W92787  26.062  40.850   4.833
31334W        W92788   2.808  16.072  10.592
31335W        W92789  27.592  27.971   0.378
31336W        W92790  29.165   1.262  12.497
31337W        W92791  28.071   8.787  14.880
31338W        W92792  30.483  38.887   1.912
31339W        W92793  13.719  13.644  12.006
31340W        W92794  39.901  10.311   1.713
31341W        W92795  28.664   7.333   3.706
31342W        W92796   3.851  40.536  12.468
31343W        W92797  42.384  14.156   1.875
31344W        W92798  26.965  41.861   3.696
31345W        W92799  20.041  28.579   4.798
31346W        W92800  13.749  42.833  11.570
31347W        W92801  20.754  44.883   2.714
31348W        W92802   2.829  33.408  12.457
31349W        W92803  28.505  22.037  11.127
31350W        W92804  28.101  19.640  12.041
31351W        W92805  34.594  17.630   0.308
31352W        W92806  19.615  23.129  12.881
31353W        W92807  41.975  18.107   4.169
31354W        W92808  43.436  12.720   4.605
31355W        W92809  39.457   5.806   4.313
31356W        W92810  39.400  11.760   2.683
31357W        W92811  19.563  43.909   1.761
31358W        W92812  24.052  12.263   4.275
31359W        W92813   3.229  36.075  11.593
31360W        W92814   1.276  38.946  12.489
31361W        W92815  34.030  28.630  10.420
31362W        W92816  34.989  24.685  13.853
31363W        W92817  21.073  13.332   4.289
31364W        W92818   3.394  14.629   1.716
31365W        W92819  43.806  15.638  14.803
31366W        W92820  23.010  23.684  11.055
31367W        W92821   0.285  21.560   0.255
31368W        W92822  42.464   7.890  14.939
31369W        W92823  40.010  20.538  12.909
31370W        W92824   2.455  41.022  10.420
31371W        W92825  19.617  23.167   0.735
31372W        W92826  43.329  41.900   2.370
31373W        W92827  23.027  24.982   3.146
31374W        W92828  35.870  35.952  11.552
31375W        W92829  23.709  44.991   3.756
31376W        W92830   8.673   7.186   4.729
31377W        W92831  20.711  10.201  11.865
31378W        W92832  41.909  34.088   2.325
31379W        W92833  23.184  12.793  13.055
31380W        W92834  17.612  16.255  14.275
31381W        W92835   5.270   1.329   0.886
31382W        W92836  30.513   5.316   2.800
31383W        W92837  11.757  44.827  11.468
31384W        W92838  40.399  36.025   0.732
31385W        W92839  32.002  24.635   1.740
31386W        W92840  39.912  21.077   4.185
31387W        W92841  35.498  33.099  13.002
31388W        W92842  24.203  13.130   5.312
31389W        W92843  12.261   4.834   1.271
31390W        W92844   3.919   1.479   0.325
31391W        W92845  25.984  14.621   4.296
31392W        W92846  33.535  36.552   1.721
31393W        W92847  29.548  31.506  14.869
31394W        W92848  38.950  13.827  14.765
31395W        W92849  17.617  15.724  12.900
31396W        W92850   3.423  10.852  11.089
31397W        W92851  37.975  38.020  10.000
31398W        W92852  32.026  44.831   2.884
31399W        W92853  43.505   8.763  14.451
31400W        W92854  11.668  44.915  14.430
31401W        W92855   6.700   0.307  10.448
31402W        W92856  18.654  15.602  14.891
31403W        W92857  27.963   1.764   5.573
31404W        W92858  36.475   0.406  12.554
31405W        W92859  22.028  34.507   0.893
31406W        W92860  36.992  10.849   2.718
31407W        W92861  13.303   4.935   5.285
31408W        W92862  39.063  16.240  14.515
31409W        W92863  27.620   2.240   0.424
31410W        W92864  25.676  33.582   0.268
31411W        W92865   1.246  44.352   4.217
31412W        W92866  17.572  18.270  14.392
31413W        W92867  41.331  42.796   0.867
31414W        W92868  35.397   8.885  14.298
31415W        W92869  28.139  27.471   0.370
31416W        W92870   6.250   8.861   1.377
31417W        W92871  24.709  28.671   3.849
31418W        W92872   4.802  32.448  12.825
31419W        W92873  43.787  20.229  13.531
31420W        W92874   9.305  11.849  13.936
31421W        W92875  21.577   2.412   3.370
31422W        W92876  33.084  16.218  11.575
31423W        W92877  15.294  39.914  13.921
31424W        W92878  28.186  40.799  10.585
31425W        W92879  39.489  43.873  11.460
31426W        W92880  34.425   9.209  14.771
31427W        W92881  29.095   7.388   0.383
31428W        W92882  29.526   7.724  13.429
31429W        W92883   5.263  32.114  13.906
31430W        W92884   3.766  30.147  11.101
31431W        W92885  10.144   5.883   4.123
31432W        W92886   5.399  20.530  12.452
31433W        W92887  33.519  40.485   1.293
31434W        W92888   1.778  33.531  11.468
31435W        W92889  37.028  23.005   1.850
31436W        W92890  41.970  19.183   4.176
31437W        W92891  15.253  31.443  14.949
31438W        W92892   0.879   8.225  10.956
31439W        W92893   3.430  42.779   3.300
31440W        W92894  42.028  37.905  13.385
31441W        W92895  32.434  12.296   4.327
31442W        W92896  19.759  19.584   1.761
31443W        W92897  37.481  15.309   3.807
31444W        W92898  35.966   2.272  12.347
31445W        W92899  14.755  24.489  10.493
31446W        W92900  43.436  27.113   4.309
31447W        W92901   7.697  22.148  10.440
31448W        W92902  32.453  44.261   4.289
31449W        W92903  28.006  30.515  11.914
31450W        W92904  43.408  37.993   0.305
31451W        W92905  41.849  27.016   2.205
31452W        W92906  13.156   2.316  13.984
31453W        W92907   0.275  16.185  11.856
31454W        W92908  20.041  29.079   1.724
31455W        W92909  15.168  14.175   1.732
31456W        W92910   4.908  41.314  13.324
31457W        W92911  32.551  37.363   2.863
31458W        W92912  22.110  35.897   1.338
31459W        W92913  23.656  31.153  11.961
31460W        W92914   1.841  44.373  11.400
31461W        W92915   8.856  20.039  11.102
31462W        W92916  26.051  41.460   2.246
31463W        W92917  13.824  43.786   2.891
31464W        W92918  22.996  10.352  14.404
31465W        W92919   6.812  38.065   4.240
31466W        W92920  43.325   2.816   2.304
31467W        W92921   5.691  29.605   3.738
31468W        W92922  37.565  26.063  13.804
31469W        W92923  44.467  33.938  10.078
31470W        W92924  43.765  15.742   3.794
31471W        W92925  29.034  23.089   0.875
31472W        W92926  26.646  15.328   4.821
31473W        W92927  25.970  42.439  11.911
31474W        W92928  24.215  39.881   0.832
31475W        W92929  20.029  21.216  11.938
31476W        W92930   4.368   6.717  11.896
31477W        W92931  16.744  31.633  10.998
31478W        W92932  25.620   6.919  14.446
31479W        W92933   0.251  39.054  14.769
31480W        W92934  44.791  42.347   1.882
31481W        W92935   3.412  13.671   3.336
31482W        W92936  22.652  28.103   2.897
31483W        W92937  14.228  28.550   0.290
31484W        W92938  44.944   2.317  13.795
31485W        W92939  35.470   0.949  11.096
31486W        W92940  33.081   8.839   2.729
31487W        W92941  32.611   9.669   1.307
31488W        W92942  26.120  11.799   2.241
31489W        W92943  43.904  35.571   2.407
31490W        W92944  19.264  35.954  13.467
31491W        W92945  22.017  44.493   3.669
31492W        W92946  32.474  28.510   3.737
31493W        W92947  26.504  22.506   1.366
31494W        W92948  42.821  23.643  12.365
31495W        W92949   8.335  37.577   1.242
31496W        W92950  24.192  32.547   4.334
31497W        W92951   9.280  14.113   3.369
31498W        W92952  22.635   2.832   1.845
31499W        W92953  23.562  17.176   0.252
31500W        W92954   6.736   1.821   4.796
31501W        W92955  32.916  19.709   2.900
31502W        W92956  16.616  40.894  13.337
31503W        W92957  39.348  15.204  11.482
31504W        W92958  17.130   1.282   0.366
31505W        W92959   1.795  18.181   3.711
31506W        W92960  15.614  34.933   0.862
31507W        W92961   2.426   6.233   0.398
31508W        W92962  25.610  22.026  11.014
31509W        W92963  36.486  25.667  11.939
31510W        W92964  36.589  20.132  11.382
31511W        W92965  15.683   6.894   0.748
31512W        W92966  20.740  17.087   3.158
31513W        W92967  44.427  10.226   4.304
31514W        W92968   2.361  19.211   2.751
31515W        W92969  40.522  25.575   1.432
31516W        W92970  26.075   0.826  14.994
31517W        W92971  11.299  13.305   0.381
31518W        W92972  13.204  10.150  12.947
31519W        W92973   1.893  15.139  14.399
31520W        W92974  14.634   0.791   4.718
31521W        W92975  38.975   7.358   9.979
31522W        W92976  35.428  11.810  13.369
31523W        W92977  10.695   8.288   2.216
31524W        W92978  42.802   3.931  14.386
31525W        W92979  12.200   3.735  13.470
31526W        W92980   5.878  10.218   0.394
31527W        W92981  32.944   3.843  12.449
31528W        W92982  44.334  37.915  10.432
31529W        W92983  25.613  25.529  11.875
31530W        W92984  10.772  22.636  12.086
31531W        W92985  18.142   2.916  13.804
31532W        W92986   9.315  22.675  13.492
31533W        W92987  28.598  17.083   3.783
31534W        W92988  42.961  21.696  10.985
31535W        W92989   6.235  27.008  11.922
31536W        W92990  42.487  32.930   1.844
31537W        W92991  16.210  41.790   2.370
31538W        W92992   4.431  15.658  12.930
31539W        W92993  41.411  44.369   4.639
31540W        W92994  17.196  29.961  13.395
31541W        W92995   6.192  11.327  11.079
31542W        W92996   3.354  33.563   4.134
31543W        W92997  14.737  39.455  12.935
31544W        W92998   5.416  18.232   3.232
31545W        W92999  12.289  41.521  10.918
31546W        W93000  29.658  33.986  12.075
31547W        W93001  12.758   2.741  13.946
31548W        W93002  38.398  44.808   4.776
31549W        W93003  34.953  38.490  14.488
31550W        W93004   1.382   1.938  10.969
31551W        W93005  19.083  37.406   0.327
31552W        W93006  19.135  26.580   3.240
31553W        W93007   8.357  16.658   0.839
31554W        W93008  19.162  13.322   2.303
31555W        W93009   7.267  20.717  12.032
31556W        W93010  10.148   6.816  13.064
31557W        W93011  33.450  41.376  13.967
31558W        W93012   2.910   7.379   4.249
31559W        W93013   5.328  32.500  14.823
31560W        W93014   7.401   0.430   3.630
31561W        W93015  11.357   7.802  13.479
31562W        W93016  21.220  11.304   3.192
31563W        W93017  23.014  24.651   1.368
31564W        W93018   4.238  26.569  11.020
31565W        W93019  36.093  22.192  10.595
31566W        W93020  38.069  44.774   1.740
31567W        W93021   4.710  35.425   1.892
31568W        W93022  31.015  33.528   1.802
31569W        W93023  42.299   3.447  13.543
31570W        W93024  29.953   2.965   2.213
31571W        W93025  12.186  36.006  10.532
31572W        W93026  23.226  23.032   0.822
31573W        W93027  27.044  23.658  13.329
31574W        W93028  31.079  17.283  13.454
31575W        W93029  44.985  44.473  13.921
31576W        W93030   4.794  41.365   1.376
31577W        W93031  44.995  36.442  13.523
31578W        W93032  32.426  14.630  10.900
31579W        W93033  29.523  20.522  11.590
31580W        W93034   9.161   5.929   0.912
31581W        W93035   1.453  34.416   3.630
31582W        W93036  36.886  18.564   4.603
31583W        W93037   4.832  23.094   0.944
31584W        W93038   6.761  16.164   2.281
31585W        W93039   5.823   0.300   0.729
31586W        W93040  35.981  36.896  14.841
31587W        W93041   6.761   2.829   3.324
31588W        W93042   8.192  39.960  11.489
31589W        W93043  29.600  43.841  11.009
31590W        W93044  43.284  23.604  10.457
31591W        W93045  21.755  37.548   0.382
31592W        W93046  24.149  39.915  11.391
31593W        W93047  43.905   7.364   1.750
31594W        W93048  14.243  38.898  14.944
31595W        W93049  26.976  35.034   2.246
31596W        W93050   6.350  33.601   3.261
31597W        W93051  19.564   0.343   4.154
31598W        W93052  40.472  12.850  11.009
31599W        W93053  43.909  34.381  13.804
31600W        W93054  41.292  43.896  10.447
31601W        W93055  26.176  22.021  12.460
31602W        W93056  14.588   9.827  14.278
31603W        W93057  35.380   7.723   4.285
31604W        W93058  32.095  44.421  12.076
31605W        W93059  18.634  43.906  11.421
31606W        W93060  25.693  35.448  14.801
31607W        W93061  31.036  12.310   0.840
31608W        W93062  34.381  44.492   3.220
31609W        W93063   7.262  31.023  10.510
31610W        W93064  16.801   2.729  11.545
31611W        W93065  38.936  19.571  12.559
31612W        W93066   3.386  19.569  10.451
31613W        W93067  25.570  41.456   0.418
31614W        W93068  24.644  19.666   2.388
31615W        W93069  15.591  31.516   0.739
31616W        W93070   5.315   8.716   4.713
31617W        W93071  21.542  43.333   3.232
31618W        W93072  14.116  28.454  12.489
31619W        W93073  22.694  30.038  14.351
31620W        W93074   0.301  39.554  14.847
31621W        W93075   6.733   8.704   4.707
31622W        W93076   3.863   6.894   0.399
31623W        W93077  17.621  29.992  11.552
31624W        W93078  28.172  21.736   2.815
31625W        W93079   5.692  33.422   5.285
31626W        W93080  31.124  31.924  11.023
31627W        W93081  32.021   8.689  13.442
31628W        W93082  21.654  36.381   0.337
31629W        W93083  30.653  44.471   1.249
31630W        W93084   8.248  35.378  14.830
31631W        W93085   6.283  12.842  14.871
31632W        W93086  27.500  31.007   0.941
31633W        W93087  23.704  35.439  12.896
31634W        W93088  16.792  19.552   2.354
31635W        W93089  15.647  24.537  11.062
31636W        W93090  29.162   0.970   3.746
31637W        W93091   5.431  30.476   1.861
31638W        W93092  19.201   6.784   2.361
31639W        W93093   0.308  12.751   3.203
31640W        W93094  34.894  10.295  12.044
31641W        W93095  11.241  16.700  11.904
31642W        W93096  26.134   8.685  11.063
31643W        W93097  32.465   1.336  12.083
31644W        W93098   4.698  37.577  13.060
31645W        W93099  18.101  21.155   4.730
31646W        W93100  41.475   5.826  12.024
31647W        W93101  30.089  24.626   0.436
31648W        W93102  20.043  27.119   2.720
31649W        W93103   8.363  11.718   3.716
31650W        W93104  11.195  33.005  12.340
31651W        W93105   1.378  37.488   1.334
31652W        W93106  15.633  27.539  12.901
31653W        W93107  18.266  36.592  14.352
31654W        W93108  20.644  29.425  11.054
31655W        W93109  15.255  25.147   1.424
31656W        W93110   1.435   0.455   0.731
31657W        W93111  39.313  33.383   4.129
31658W        W93112   0.487   4.393  10.898
31659W        W93113  23.725   9.388  10.413
31660W        W93114  40.001  28.966   1.780
31661W        W93115  15.781  38.343   2.890
31662W        W93116  43.418  44.414   0.316
31663W        W93117  23.001  18.291  13.350
31664W        W93118  19.726  41.478   2.784
31665W        W93119  43.351  39.029  11.093
31666W        W93120  18.734  30.443   3.192
31667W        W93121  24.131  31.593  13.402
31668W        W93122   9.844  12.827   4.656
31669W        W93123  15.803  28.137   4.656
31670W        W93124  34.952  24.228  10.915
31671W        W93125  16.584  34.469  13.858
31672W        W93126  30.591  31.460   9.467
31673W        W93127  24.995  26.053   2.243
31674W        W93128  34.012  18.235  13.014
31675W        W93129   3.795  10.330   0.963
31676W        W93130  22.041  44.834   4.697
31677W        W93131  30.911  21.664  11.002
31678W        W93132  37.937  43.953   2.822
31679W        W93133   5.898  39.425  14.454
31680W        W93134  28.458  30.527   5.191
31681W        W93135  32.017  20.719   0.916
31682W        W93136  29.464  14.654   1.326
31683W        W93137  35.912  31.496   3.799
31684W        W93138  43.954   3.242  14.466
31685W        W93139  33.035  41.804  14.854
31686W        W93140  14.320   7.787   2.884
31687W        W93141   2.753  34.463   2.805
31688W        W93142  33.406  35.952   2.735
31689W        W93143   7.330   3.246   2.832
31690W        W93144  42.332   6.892  12.533
31691W        W93145  10.705  40.015   4.125
31692W        W93146  23.056   3.894   1.441
31693W        W93147  20.718   5.866  11.434
31694W        W93148  13.152  30.457   1.916
31695W        W93149   0.338   9.225  13.864
31696W        W93150  29.991  13.642   1.865
31697W        W93151  39.314  16.728   3.825
31698W        W93152  34.454  17.648   4.344
31699W        W93153   9.724  43.938   2.709
31700W        W93154  32.090   0.984   0.888
31701W        W93155  30.521  27.507   4.772
31702W        W93156   1.473  27.554  14.856
31703W        W93157  10.766  22.648  12.927
31704W        W93158   4.297  44.363   0.923
31705W        W93159  19.699  38.341   2.312
31706W        W93160  34.571  21.148   4.812
31707W        W93161  42.824  38.326   2.863
31708W        W93162  17.600  37.020  14.437
31709W        W93163   6.810  26.657  14.466
31710W        W93164  26.006  19.232   4.828
31711W        W93165  39.066  36.400   1.405
31712W        W93166  15.756  19.734   1.319
31713W        W93167  29.158   3.403  14.024
31714W        W93168   3.313   0.876  12.996
31715W        W93169  29.443  26.497   3.274
31716W        W93170  32.892  19.165   0.371
31717W        W93171   3.390  43.938  12.572
31718W        W93172   6.188  15.590  13.364
31719W        W93173   2.397  41.527   1.304
31720W        W93174  12.646  19.616   3.657
31721W        W93175   6.870  42.929   4.117
31722W        W93176  15.768  19.216  13.505
31723W        W93177  42.800  30.493   0.914
31724W        W93178  26.175  21.131   4.774
31725W        W93179  37.358   7.337   0.933
31726W        W93180  43.391  17.173  14.928
31727W        W93181  36.885  19.200   4.250
31728W        W93182  15.134   1.373  14.997
31729W        W93183  29.625   8.174   4.764
31730W        W93184  24.626  20.129  10.917
31731W        W93185   5.377  36.538   1.871
31732W        W93186  10.842  29.667   1.819
31733W        W93187  17.681  29.004   0.921
31734W        W93188  44.407  23.705  13.799
31735W        W93189  30.641  23.171  12.864
31736W        W93190  22.136  38.838  13.826
31737W        W93191  18.711  28.452   0.305
31738W        W93192  44.950  17.118  13.453
31739W        W93193  18.639  22.682  14.963
31740W        W93194  37.575   0.966   0.937
31741W        W93195  36.576   3.788   1.856
31742W        W93196   5.781  30.965   4.803
31743W        W93197   7.360   1.297   1.429
31744W        W93198  29.018  10.710   4.730
31745W        W93199  39.977   5.734   4.154
31746W        W93200   2.471  34.072  12.493
31747W        W93201   4.303  13.107  13.015
31748W        W93202  29.080   3.783  12.348
31749W        W93203  30.499  44.425   2.387
31750W        W93204  26.624  19.596   4.188
31751W        W93205  27.665  16.706   4.158
31752W        W93206  27.158   5.749  13.056
31753W        W93207  20.580  42.486   1.890
31754W        W93208   6.228  11.370   1.289
31755W        W93209  32.075  22.524  13.928
31756W        W93210  24.560  18.744  14.367
31757W        W93211  10.237   7.370   1.420
31758W        W93212  10.692  32.397   0.426
31759W        W93213   5.372  19.711  10.637
31760W        W93214  27.561  26.960   1.409
31761W        W93215   4.377  22.199   4.281
31762W        W93216  18.149  21.744   1.410
31763W        W93217   0.964   4.226   1.716
31764W        W93218  19.244  38.045  12.527
31765W        W93219   0.969  40.825   4.769
31766W        W93220  39.995  25.567  10.494
31767W        W93221  24.636  21.031   2.371
31768W        W93222  30.477   6.705  14.405
31769W        W93223  20.752  37.045  13.042
31770W        W93224   3.847  13.732  11.035
31771W        W93225  41.436   7.834  13.897
31772W        W93226  43.479  28.942   2.322
31773W        W93227   6.899  13.297   3.352
31774W        W93228  35.981   2.289   1.825
31775W        W93229  19.548  26.551  13.317
31776W        W93230  11.726  26.027   0.914
31777W        W93231   9.798  33.563   1.446
31778W        W93232  30.998  34.032  11.914
31779W        W93233  18.576  35.004   0.866
31780W        W93234  28.937   6.784  11.593
31781W        W93235  37.894  31.416  12.079
31782W        W93236  16.167   1.471  12.842
31783W        W93237  40.506  16.073   0.748
31784W        W93238  19.215   9.781  14.011
31785W        W93239  18.268   8.166   2.291
31786W        W93240  12.329  16.264  13.986
31787W        W93241  28.529  28.956  14.804
31788W        W93242  41.845  29.477   2.743
31789W        W93243  17.653  15.761  12.404
31790W        W93244  30.494   1.818   9.934
31791W        W93245   8.196  13.690  13.543
31792W        W93246  27.579  19.076   2.708
31793W        W93247  14.163   5.761   3.833
31794W        W93248  23.619  25.111   0.269
31795W        W93249  22.154  41.396   4.313
31796W        W93250  37.453  37.440  12.561
31797W        W93251   8.401  37.013  13.354
31798W        W93252   0.441  23.113  14.384
31799W        W93253   5.208  17.613  12.343
31800W        W93254   3.730   0.949   1.840
31801W        W93255  12.218  32.627  13.850
31802W        W93256   1.815  32.492   1.746
31803W        W93257  20.562  14.270  10.405
31804W        W93258   7.837   3.280  14.303
31805W        W93259  38.933   7.679  11.595
31806W        W93260  20.061  18.292   2.819
31807W        W93261  16.088  37.996   2.185
31808W        W93262   6.347   7.767   0.901
31809W        W93263  16.649   4.742   3.244
31810W        W93264   7.731  34.464   2.735
31811W        W93265  12.259   4.735  10.907
31812W        W93266  35.963  27.158   2.322
31813W        W93267  38.569  25.975   4.608
31814W        W93268  32.577  19.768  14.939
31815W        W93269  25.555  39.925   0.838
31816W        W93270  18.209   6.351   3.819
31817W        W93271  35.997  33.571  12.946
31818W        W93272  24.184  11.158  12.983
31819W        W93273  30.551   4.752  10.514
31820W        W93274  44.907  40.865   3.791
31821W        W93275  30.457  10.294  14.943
31822W        W93276  11.645   8.899   5.269
31823W        W93277  23.202   6.328  13.047
31824W        W93278   5.241  40.353   2.818
31825W        W93279   6.380  20.206   2.257
31826W        W93280  24.091  10.716   4.602
31827W        W93281  25.061  37.918  13.904
31828W        W93282  34.013  22.624   3.370
31829W        W93283  36.980  20.152   2.302
31830W        W93284  33.052  13.723   1.365
31831W        W93285   6.202  25.475   2.385
31832W        W93286  44.265  32.569  14.455
31833W        W93287   3.228  37.998  12.912
31834W        W93288  36.001  29.487  11.037
31835W        W93289  38.524  12.789   1.328
31836W        W93290  37.921  28.484   2.704
31837W        W93291  21.109   1.334  10.943
31838W        W93292  43.977   5.808  12.910
31839W        W93293  44.266   7.360   2.855
31840W        W93294  33.958  39.544  12.356
31841W        W93295   8.283   3.260  14.935
31842W        W93296  24.186   7.310  13.497
31843W        W93297  41.363  39.391   3.333
31844W        W93298  42.452   9.856   2.224
31845W        W93299  17.779  32.515  12.392
31846W        W93300   2.879  26.569  10.126
31847W        W93301  36.881  32.975   4.623
31848W        W93302  38.560  42.466   1.921
31849W        W93303  29.434  24.144   1.916
31850W        W93304  39.326   3.794   3.685
31851W        W93305  36.041  18.217  13.853
31852W        W93306  31.907  30.943   3.660
31853W        W93307  41.807  30.164  11.878
31854W        W93308  15.705  37.447  11.997
31855W        W93309  40.513  10.868  14.320
31856W        W93310  39.946  22.669   0.304
31857W        W93311  30.128  22.535  13.307
31858W        W93312   8.779  32.026   4.301
31859W        W93313  34.586  11.866   0.415
31860W        W93314  13.727  12.823   3.293
31861W        W93315   5.234  40.874   1.330
31862W        W93316   8.298  34.538   2.303
31863W        W93317   5.235  19.119   4.833
31864W        W93318  27.465   4.771  12.082
31865W        W93319   1.420  24.576  12.350
31866W        W93320  37.400  16.751   0.332
31867W        W93321   7.856  33.539   4.611
31868W        W93322  22.234  30.435  10.451
31869W        W93323   0.834  25.530   1.338
31870W        W93324  44.755  41.395   2.880
31871W        W93325  26.997  40.042  14.509
31872W        W93326   4.364   5.718   4.204
31873W        W93327   2.422  28.128   3.758
31874W        W93328   0.298  39.972   3.788
31875W        W93329  13.618  29.503  12.972
31876W        W93330  37.931  32.137  11.605
31877W        W93331  10.275  21.612  14.841
31878W        W93332   0.749  30.028  14.812
31879W        W93333  41.501  44.948   3.193
31880W        W93334  16.687  39.560   1.709
31881W        W93335  36.020  23.627  14.762
31882W        W93336  11.745  20.573  11.970
31883W        W93337   6.857  24.578   3.221
31884W        W93338  36.509   0.858  12.498
31885W        W93339   2.909   6.795   2.281
31886W        W93340  20.030  18.157   1.356
31887W        W93341   5.300   2.226   0.267
31888W        W93342  44.896  16.171   4.611
31889W        W93343  35.531  23.124  14.977
31890W        W93344  42.946  29.057  14.454
31891W        W93345  37.968  23.066  12.829
31892W        W93346  30.550  10.267   3.232
31893W        W93347  16.153  38.403   3.749
31894W        W93348  36.538  36.399  13.049
31895W        W93349   2.323  20.590   0.924
31896W        W93350  17.235   3.857   2.859
31897W        W93351  23.117   2.813  11.557
31898W        W93352  42.892  25.541  14.858
31899W        W93353  12.755  44.408   4.271
31900W        W93354  42.932  17.711  13.904
31901W        W93355  37.482   9.310  10.575
31902W        W93356  18.587  27.092  12.830
31903W        W93357  42.383  36.856  14.322
31904W        W93358  43.795  25.074  10.482
31905W        W93359  25.490  10.261   2.852
31906W        W93360  22.064  40.350  11.109
31907W        W93361   6.850   7.335   0.774
31908W        W93362  37.952   3.734   4.114
31909W        W93363  29.118  26.598   2.243
31910W        W93364  41.836   1.387   1.827
31911W        W93365  40.917  34.114   2.740
31912W        W93366  39.826  39.449   9.938
31913W        W93367   0.874  31.499   2.858
31914W        W93368  30.914  20.266   4.706
31915W        W93369  20.547  42.813   3.659
31916W        W93370  31.603   9.744  13.915
31917W        W93371  10.647  21.651   2.250
31918W        W93372  21.199  19.278   0.324
31919W        W93373  17.151  17.799   1.379
31920W        W93374  13.285  38.544  14.951
31921W        W93375  19.090  22.666   1.216
31922W        W93376   0.442  44.392  11.535
31923W        W93377  39.973  22.519  12.027
31924W        W93378  19.666  27.020   1.933
31925W        W93379  21.618  20.267  11.115
31926W        W93380  41.504  29.623   3.258
31927W        W93381  35.535  44.781  10.448
31928W        W93382  23.104   6.774   0.734
31929W        W93383  25.982  30.060   2.729
31930W        W93384  34.010  31.021   4.232
31931W        W93385  13.800  24.696   4.752
31932W        W93386  14.269  11.692  13.372
31933W        W93387  22.592  34.610   5.098
31934W        W93388   2.248   4.353   4.288
31935W        W93389  22.236  38.562  11.006
31936W        W93390   6.340  27.971   3.754
31937W        W93391  25.006  21.576   0.864
31938W        W93392  39.319   1.450  13.421
31939W        W93393  38.051   3.232   2.838
31940W        W93394   6.277  21.642  10.489
31941W        W93395  23.156  39.437  13.321
31942W        W93396  43.018  21.129   5.288
31943W        W93397  41.997   3.318  13.881
31944W        W93398   6.883  44.808  12.969
31945W        W93399  34.984   1.320  13.438
31946W        W93400  44.441  10.359   1.904
31947W        W93401  36.009  27.506  10.541
31948W        W93402  15.205   8.199  11.944
31949W        W93403  15.679  33.622  13.999
31950W        W93404   3.753  36.024   2.197
31951W        W93405  44.961   8.250  13.374
31952W        W93406   9.284  13.813  12.980
31953W        W93407   6.224  12.664   3.813
31954W        W93408  33.034  18.114  10.914
31955W        W93409  34.538  11.336  13.975
31956W        W93410  17.740  39.400  11.548
31957W        W93411  20.109  29.586   2.241
31958W        W93412   4.751  13.771  10.480
31959W        W93413  20.656  44.967   1.911
31960W        W93414  33.919  15.693  13.473
31961W        W93415  12.740  15.647  12.032
31962W        W93416  16.080  17.576   2.327
31963W        W93417  31.134  43.391   3.764
31964W        W93418  44.857   8.722   4.831
31965W        W93419  26.667  17.560  13.013
31966W        W93420  39.012  10.720   4.628
31967W        W93421  41.863  21.114  11.017
31968W        W93422   3.446  18.295  12.444
31969W        W93423  26.183  12.209  11.950
31970W        W93424  38.909   9.830  13.828
31971W        W93425  36.434   2.934   2.743
31972W        W93426   7.708  43.464  12.413
31973W        W93427  27.942  11.345  11.584
31974W        W93428   3.235  11.131  14.892
31975W        W93429  34.409   1.911  10.907
31976W        W93430  16.277  35.433  12.033
31977W        W93431  38.017  26.007  13.492
31978W        W93432  13.278  36.522   0.825
31979W        W93433  31.034   5.890  14.345
31980W        W93434  33.551  33.453   0.374
31981W        W93435  19.118  20.587  13.422
31982W        W93436  13.738  27.458  10.615
31983W        W93437  14.818   3.220   2.303
31984W        W93438  38.465  35.057   3.384
31985W        W93439  10.865   2.351  11.391
31986W        W93440  34.388  26.980   1.851
31987W        W93441  17.250   6.201   2.727
31988W        W93442  13.746  40.031  11.424
31989W        W93443  29.054  33.509  14.839
31990W        W93444  31.035  17.300  12.906
31991W        W93445   1.868  44.348  11.039
31992W        W93446  14.122   6.369   1.239
31993W        W93447   7.688  43.803   1.414
31994W        W93448  15.640  27.949   0.259
31995W        W93449  44.388  17.164   3.288
31996W        W93450  16.629  39.841  14.338
31997W        W93451  12.227  32.919  11.868
31998W        W93452   4.702  38.513  13.853
31999W        W93453  21.694  27.482   4.190
32000W        W93454  11.196  41.800  14.826
32001W        W93455  35.969   2.870  11.985
32002W        W93456  30.535   9.799   3.299
32003W        W93457  15.824  32.886  11.890
32004W        W93458  13.697   9.790   3.328
32005W        W93459  40.453  15.097   2.198
32006W        W93460   5.838  34.415   1.811
32007W        W93461  36.980  31.564  13.370
32008W        W93462  18.190  31.956   3.248
32009W        W93463  31.439  13.832  14.277
32010W        W93464   2.347  35.403  13.548
32011W        W93465  24.140  25.591  14.430
32012W        W93466  36.967  24.026   3.855
32013W        W93467  30.001  11.710  13.795
32014W        W93468   3.888  16.730   3.172
32015W        W93469  18.642  28.437  13.018
32016W        W93470  36.007  44.938  14.888
32017W        W93471  44.891   9.884   1.237
32018W        W93472  43.929  36.914   0.451
32019W        W93473   1.248   7.189  13.380
32020W        W93474   1.814  26.958   2.681
32021W        W93475  44.894   7.776   1.423
32022W        W93476  14.680   9.293   1.251
32023W        W93477  44.269  38.491   1.376
32024W        W93478  10.216   3.862   3.281
32025W        W93479  20.637  29.535   0.346
32026W        W93480  22.553  32.937   1.287
32027W        W93481   9.679  23.019   3.297
32028W        W93482  19.679  10.157   2.182
32029W        W93483   6.243   6.200  14.964
32030W        W93484  27.049  33.516  13.053
32031W        W93485  39.521  35.452  13.023
32032W        W93486  43.309   3.732  13.842
32033W        W93487  24.556  30.958   0.297
32034W        W93488  17.105   7.415   1.919
32035W        W93489  24.999  15.685   1.352
32036W        W93490  41.880  11.368   1.737
32037W        W93491  14.167  34.378  12.883
32038W        W93492  44.885  25.963   0.386
32039W        W93493   2.391   4.863  13.004
32040W        W93494   6.311  15.147   1.296
32041W        W93495   6.909  40.329  13.876
32042W        W93496  10.175  25.494  10.494
32043W        W93497   0.398   9.263   1.793
32044W        W93498  42.490  33.929  14.483
32045W        W93499  20.253  32.602  11.996
32046W        W93500   5.823  40.365   4.605
32047W        W93501  20.579  38.048   0.443
32048W        W93502  36.050  34.470   0.413
32049W        W93503   0.806  25.014   1.375
32050W        W93504  19.283   4.906  14.503
32051W        W93505  36.574  21.609  13.433
32052W        W93506  28.662  36.507  12.972
32053W        W93507  27.608   0.322  13.863
32054W        W93508   4.711  16.089  11.463
32055W        W93509  22.075  38.520   4.237
32056W        W93510  40.333  43.838  12.014
32057W        W93511  27.956  17.585   1.781
32058W        W93512  31.961  22.043   4.300
32059W        W93513  25.115  36.862  12.858
32060W        W93514   6.710  44.826  13.966
32061W        W93515  16.102   4.862   3.365
32062W        W93516  18.206  17.288  14.511
32063W        W93517  28.643  37.528   1.388
32064W        W93518  30.571  31.968   0.730
32065W        W93519  28.524   9.159   3.322
32066W        W93520   6.365  22.207   1.408
32067W        W93521  27.034   9.320   1.443
32068W        W93522  28.070   5.413  13.444
32069W        W93523  38.001  37.893  10.887
32070W        W93524   0.347  25.577  13.936
32071W        W93525  15.328   8.811  13.361
32072W        W93526  10.178  30.976  13.963
32073W        W93527   6.411   6.237   1.410
32074W        W93528   2.949  17.572   2.699
32075W        W93529   0.406  17.267   2.713
32076W        W93530  34.369   0.918   1.814
32077W        W93531   2.399   2.429   1.412
32078W        W93532   1.771   1.463   1.698
32079W        W93533   3.838   8.868   3.705
32080W        W93534  27.652  10.315  14.825
32081W        W93535  24.077  10.347  12.491
32082W        W93536   7.182   4.230   2.795
32083W        W93537   1.915  44.873   4.322
32084W        W93538  44.326  21.602  12.988
32085W        W93539  26.616   3.354   3.316
32086W        W93540  44.345  15.795  10.967
32087W        W93541  37.399  25.710   2.265
32088W        W93542  27.544  27.504   5.640
32089W        W93543  27.528  34.405   5.214
32090W        W93544  34.387  20.235   4.312
32091W        W93545  38.528  38.838  10.621
32092W        W93546   1.876  16.747  12.433
32093W        W93547  15.641  37.874   4.313
32094W        W93548  13.219  18.759  14.306
32095W        W93549  24.123  30.439   3.767
32096W        W93550  12.796  34.086   0.804
32097W        W93551   5.873   0.924   4.149
32098W        W93552  43.488  40.314  11.000
32099W        W93553  39.463  19.752   2.383
32100W        W93554  11.265   4.238   1.735
32101W        W93555  35.076  26.100  11.462
32102W        W93556  18.617   9.256  14.964
32103W        W93557   6.282  32.547  11.581
32104W        W93558   7.896   2.965   2.854
32105W        W93559   0.880   9.732  11.559
32106W        W93560  39.555  41.873   2.296
32107W        W93561   9.300  35.898  14.016
32108W        W93562  44.802  13.210  13.411
32109W        W93563   6.186   6.841   0.876
32110W        W93564  32.034  37.023  11.981
32111W        W93565  39.370  21.685   1.369
32112W        W93566  27.529   6.202   0.321
32113W        W93567  17.199  22.999  10.563
32114W        W93568  13.621  28.055   0.886
32115W        W93569  24.485  41.440  11.516
32116W        W93570  44.868  27.093  12.974
32117W        W93571  26.478  21.742   4.601
32118W        W93572  40.516  25.013   0.453
32119W        W93573  24.083  19.566  10.946
32120W        W93574  39.426  41.420   1.755
32121W        W93575  44.968   5.428  12.447
32122W        W93576  44.504  15.211   1.808
32123W        W93577  38.037  13.182  14.973
32124W        W93578   9.203  19.200   1.762
32125W        W93579  35.364   4.761  11.961
32126W        W93580   0.876  37.984   3.203
32127W        W93581  39.548   4.246   4.626
32128W        W93582  37.510  34.908   5.111
32129W        W93583  16.175  35.468   0.851
32130W        W93584  28.138  22.233   3.199
32131W        W93585  26.566   6.309  12.838
32132W        W93586  28.021   5.871   2.218
32133W        W93587  36.471  15.156  12.452
32134W        W93588  17.801  25.675   4.353
32135W        W93589   4.240  23.040   3.638
32136W        W93590  18.063  28.152  10.934
32137W        W93591   4.931  11.651  14.470
32138W        W93592  24.151  31.119  14.988
32139W        W93593   7.761  23.069  12.086
32140W        W93594   6.267   9.845   1.868
32141W        W93595   1.943  23.190  14.346
32142W        W93596  22.054  27.605   2.277
32143W        W93597   1.929   7.703  10.996
32144W        W93598  37.532  35.471   0.417
32145W        W93599   5.241   2.862  10.490
32146W        W93600  28.005  41.507  13.514
32147W        W93601  34.864  14.193  11.548
32148W        W93602   7.850  10.296   1.711
32149W        W93603  37.009  35.544   0.897
32150W        W93604   2.759  31.117  11.410
32151W        W93605  29.429  24.595   5.124
32152W        W93606  40.979   2.902   0.346
32153W        W93607  44.861  17.103   1.834
32154W        W93608  40.880  34.873  14.900
32155W        W93609   2.776  30.124  13.475
32156W        W93610  28.511  27.181   4.762
32157W        W93611   2.964  43.391  14.901
32158W        W93612  31.019  44.926  13.965
32159W        W93613  33.967  30.440  14.898
32160W        W93614  29.027  30.490  14.342
32161W        W93615  27.951  21.035  11.475
32162W        W93616  40.516   7.250  12.464
32163W        W93617  18.657  18.218  11.913
32164W        W93618   3.312   6.197   2.858
32165W        W93619  16.598  43.489  11.389
32166W        W93620  33.098  44.944   0.342
32167W        W93621  37.998  24.680   0.859
32168W        W93622   5.307  19.140   2.292
32169W        W93623  23.050   3.377   3.704
32170W        W93624  30.003  42.364  14.781
32171W        W93625  28.444  18.286  11.603
32172W        W93626  17.292  22.026  11.464
32173W        W93627  24.595  13.653  11.998
32174W        W93628  37.492  22.063   0.870
32175W        W93629  17.177  28.524  11.558
32176W        W93630   5.931  19.184   0.815
32177W        W93631  39.353   8.758  11.093
32178W        W93632  29.138  30.441   0.799
32179W        W93633  34.002  42.334   2.374
32180W        W93634  35.009  39.036  14.377
32181W        W93635  28.495  22.134  14.961
32182W        W93636  10.356   4.849  12.415
32183W        W93637  15.764  28.583   1.355
32184W        W93638  12.362  28.515   2.810
32185W        W93639   4.249  12.235  11.897
32186W        W93640  22.044   5.775  13.973
32187W        W93641  34.494   9.290  10.974
32188W        W93642   7.196  29.128   3.677
32189W        W93643  31.056  25.692   3.680
32190W        W93644  21.589  44.788  13.340
32191W        W93645  24.544  28.971  10.945
32192W        W93646  39.049  44.309  13.383
32193W        W93647  21.144   5.344   9.929
32194W        W93648  19.206  15.688   3.188
32195W        W93649  23.661  44.947  11.567
32196W        W93650  17.797   2.858   3.228
32197W        W93651  13.172   6.819  11.127
32198W        W93652   7.198  39.972  11.458
32199W        W93653  28.139   3.323   1.379
32200W        W93654  13.641  33.122  10.461
32201W        W93655  32.889  12.822   0.268
32202W        W93656  43.489   4.875   2.864
32203W        W93657  14.207   5.749  12.019
32204W        W93658  12.252   2.297  13.429
32205W        W93659  26.990  28.595  10.411
32206W        W93660  33.065  24.706  12.464
32207W        W93661  38.877   9.814   4.625
32208W        W93662  13.175  11.219  11.891
32209W        W93663  40.052  26.635  12.866
32210W        W93664   2.731  22.649  14.958
32211W        W93665  43.485  34.888   0.390
32212W        W93666  18.093  32.395   4.744
32213W        W93667   7.180  39.360   3.248
32214W        W93668  26.161  28.546  13.355
32215W        W93669  42.957  24.127  10.502
32216W        W93670  28.096  25.665   3.274
32217W        W93671   6.838  25.510   1.812
32218W        W93672   8.891  34.902   9.983
32219W        W93673  12.616   8.289   3.347
32220W        W93674  39.911  20.560   4.259
32221W        W93675  42.002  19.044  13.986
32222W        W93676  29.556  38.933  10.141
32223W        W93677  25.690  41.968  11.603
32224W        W93678  12.681  26.999   4.660
32225W        W93679  39.820  12.635  10.496
32226W        W93680   2.325   2.289  14.462
32227W        W93681  24.688  20.608   3.805
32228W        W93682  18.788  25.625   4.634
32229W        W93683  27.974  32.083  11.416
32230W        W93684  32.135  42.519  13.830
32231W        W93685   7.399  20.170  14.473
32232W        W93686  18.713  15.758  12.069
32233W        W93687  27.053  33.606   0.817
32234W        W93688  13.276  43.476  14.488
32235W        W93689  14.179  13.151  10.927
32236W        W93690  26.546  14.274   3.723
32237W        W93691  44.832  20.563  14.999
32238W        W93692  41.019  38.825   1.845
32239W        W93693  16.647   2.808  11.029
32240W        W93694  42.448  32.514  11.031
32241W        W93695  35.402  13.630  11.464
32242W        W93696  38.951  37.974  10.966
32243W        W93697   4.862  19.184   0.457
32244W        W93698  15.173  17.172   2.195
32245W        W93699  30.520   2.245   4.728
32246W        W93700  44.383   9.154   1.886
32247W        W93701  40.361   6.375  12.958
32248W        W93702  41.362  11.140  11.972
32249W        W93703  34.910  18.679  14.835
32250W        W93704  14.239  39.438  14.027
32251W        W93705  40.954  16.741   2.775
32252W        W93706   8.274  35.502   5.155
32253W        W93707  16.309  14.283  11.962
32254W        W93708  29.013  34.515  13.964
32255W        W93709  15.813   4.872   2.729
32256W        W93710   3.892  34.036   3.292
32257W        W93711  10.791  38.478   2.720
32258W        W93712  22.246  12.718  11.576
32259W        W93713  23.636  32.964   3.359
32260W        W93714   1.327  44.488   3.351
32261W        W93715  36.918  12.766  12.437
32262W        W93716  21.592  25.215   5.215
32263W        W93717   8.195  10.746   4.298
32264W        W93718  13.208  43.512   0.458
32265W        W93719  22.007  18.272   2.873
32266W        W93720  10.667  38.932   0.254
32267W        W93721  33.049  36.932   2.265
32268W        W93722   2.233   1.966  10.043
32269W        W93723   4.768  34.409   4.779
32270W        W93724  29.506  14.718  11.875
32271W        W93725  38.829   2.837  10.600
32272W        W93726  19.172  29.667  10.896
32273W        W93727  34.900  30.518  13.797
32274W        W93728   8.308   2.472  11.969
32275W        W93729  43.449  20.257  13.931
32276W        W93730  25.668  44.984   4.724
32277W        W93731  39.988  19.645  10.499
32278W        W93732  15.586  39.046  11.549
32279W        W93733  35.893   4.908  11.466
32280W        W93734   9.268  18.750   9.952
32281W        W93735  17.208  31.524  10.445
32282W        W93736  11.703  11.242  11.467
32283W        W93737  13.640  19.166  12.912
32284W        W93738  37.916  44.428  14.279
32285W        W93739  38.445  42.512  11.073
32286W        W93740  43.964  21.738   3.795
32287W        W93741   9.745  21.549   1.912
32288W        W93742  34.874  22.514   3.654
32289W        W93743   2.850  18.712  14.979
32290W        W93744  20.571  43.343   2.682
32291W        W93745  35.943  11.794   2.212
32292W        W93746  42.342  35.401  13.991
32293W        W93747  23.612   9.181   4.665
32294W        W93748  40.505  17.220   2.192
32295W        W93749  36.474  23.528   1.304
32296W        W93750  18.182   8.701   4.187
32297W        W93751  38.334  36.957  11.437
32298W        W93752  20.739  27.997   4.820
32299W        W93753   8.400   2.333  13.461
32300W        W93754   6.350  34.465   9.972
32301W        W93755  38.440  14.619  12.925
32302W        W93756  19.250  13.656  10.514
32303W        W93757  32.501  13.243   4.810
32304W        W93758  28.988  22.072  12.863
32305W        W93759  21.629  44.920   3.196
32306W        W93760  29.926   2.869  13.800
32307W        W93761  13.657  12.855  14.814
32308W        W93762  21.096  25.679   1.857
32309W        W93763  42.900  22.670  14.294
32310W        W93764  41.379  34.453  10.530
32311W        W93765  44.412   0.307  11.917
32312W        W93766  40.988  15.297   1.920
32313W        W93767  37.502   9.310   0.312
32314W        W93768  22.190  34.556   4.245
32315W        W93769   9.845  22.048  11.008
32316W        W93770  28.480  31.576   2.257
32317W        W93771  12.660  42.924   1.775
32318W        W93772   9.872  44.918  10.972
32319W        W93773   5.259  11.768   1.785
32320W        W93774  11.638  10.728  14.986
32321W        W93775  25.554  14.620  14.906
32322W        W93776  29.620  33.414   1.750
32323W        W93777  35.941  13.262  10.983
32324W        W93778  25.699  27.618  11.925
32325W        W93779  43.963  37.035  11.486
32326W        W93780  21.027  37.439   1.733
32327W        W93781  28.964  24.097  13.525
32328W        W93782  38.021  31.075  11.405
32329W        W93783  43.932  39.428   0.470
32330W        W93784  13.227   5.257  12.046
32331W        W93785  31.990  10.875   3.384
32332W        W93786  33.625   7.283  11.972
32333W        W93787  24.081   7.348   0.839
32334W        W93788  17.610  42.796   3.369
32335W        W93789  44.303  14.107   3.286
32336W        W93790   0.948  14.198   2.410
32337W        W93791  35.890  19.242  10.571
32338W        W93792   3.954  38.518  14.910
32339W        W93793   7.340  10.267   4.204
32340W        W93794  43.469  32.583  12.929
32341W        W93795  41.894  33.060  14.347
32342W        W93796  13.614  11.847   1.231
32343W        W93797  26.630  39.352  12.968
32344W        W93798  39.425  20.722  12.956
32345W        W93799  34.966  35.420   3.378
32346W        W93800   3.425  37.839  10.547
32347W        W93801   1.326  33.985  10.897
32348W        W93802  42.325  30.950  13.375
32349W        W93803   1.454  30.519  10.916
32350W        W93804  41.937  22.702  12.013
32351W        W93805   8.896   3.858   5.240
32352W        W93806  28.573  20.693  12.355
32353W        W93807  39.545  10.250   1.900
32354W        W93808  29.001  43.867   0.303
32355W        W93809  12.714   9.778  14.367
32356W        W93810  21.245   9.154   2.683
32357W        W93811  21.531  34.120   1.861
32358W        W93812  13.119  19.662  12.886
32359W        W93813  35.540  17.067  11.527
32360W        W93814  18.661  30.657   9.978
32361W        W93815   9.395  14.143  10.640
32362W        W93816  27.629   4.715  10.425
32363W        W93817  42.907  44.312   4.697
32364W        W93818  27.446  36.517  13.923
32365W        W93819   2.790  40.809   1.313
32366W        W93820  36.352  34.498  13.808
32367W        W93821  34.900   1.784  12.868
32368W        W93822   9.273  37.342   2.679
32369W        W93823  26.078  21.735  11.863
32370W        W93824  14.295  20.251  13.338
32371W        W93825  44.768   0.935  14.908
32372W        W93826  32.491  25.535   3.369
32373W        W93827  34.446  28.127   2.866
32374W        W93828  33.618  13.790   0.428
32375W        W93829  28.443  30.581   0.350
32376W        W93830  15.672  26.536  13.805
32377W        W93831  41.521  20.577   1.732
32378W        W93832  42.402  15.298  12.011
32379W        W93833  20.039  43.816   2.409
32380W        W93834  35.526  13.810  12.077
32381W        W93835  17.240  44.401  11.025
32382W        W93836  38.551  10.808   0.960
32383W        W93837   5.417  31.582   2.835
32384W        W93838  12.189  10.860  11.594
32385W        W93839   5.350  40.437  11.490
32386W        W93840   6.758  23.055   1.329
32387W        W93841   0.402  39.366  12.876
32388W        W93842  19.101  10.379   3.182
32389W        W93843  26.972  35.412   0.305
32390W        W93844  43.816  18.632  11.902
32391W        W93845  21.242   0.280  11.932
32392W        W93846  15.119  42.296  13.883
32393W        W93847  18.734   6.399  11.576
32394W        W93848  17.240  17.275   1.926
32395W        W93849  15.301  34.383  14.954
32396W        W93850  27.631  10.246   2.771
32397W        W93851  35.016  21.118   4.782
32398W        W93852  29.053  12.181   1.883
32399W        W93853   7.870  11.785  12.357
32400W        W93854  21.061  17.217   0.830
32401W        W93855  10.656  10.142   0.954
32402W        W93856  19.231  36.487   3.870
32403W        W93857  38.544  40.378  11.873
32404W        W93858  44.970  10.316   2.690
32405W        W93859  20.081  37.087   1.904
32406W        W93860  18.766  33.417  12.894
32407W        W93861  41.030   2.279  14.398
32408W        W93862  38.437   3.750  11.002
32409W        W93863  23.517  37.506  14.304
32410W        W93864  30.542   7.774   1.879
32411W        W93865   8.288  29.519   2.814
32412W        W93866  15.272   6.292   3.247
32413W        W93867  40.546  43.771   3.769
32414W        W93868  21.142  44.266  12.089
32415W        W93869  38.851   5.386   2.681
32416W        W93870  30.999   3.302  12.929
32417W        W93871  16.113   0.778   4.718
32418W        W93872   5.693  14.745  13.054
32419W        W93873   9.882  24.650  14.323
32420W        W93874  44.467  38.462  10.903
32421W        W93875   9.331  19.145  12.859
32422W        W93876  40.914   0.829  11.006
32423W        W93877  12.245  23.013  13.052
32424W        W93878  33.439  36.923   4.715
32425W        W93879  23.111  23.193   2.676
32426W        W93880  17.784   5.801  12.854
32427W        W93881  24.153  29.165  13.461
32428W        W93882  11.641  41.449  11.095
32429W        W93883  37.380   9.694  10.576
32430W        W93884  14.825  42.482   4.260
32431W        W93885  31.541   9.285   1.412
32432W        W93886  19.751  30.014   0.822
32433W        W93887  35.380  30.050  13.920
32434W        W93888  32.396  32.428   0.289
32435W        W93889  24.087  35.942  10.524
32436W        W93890  17.693  12.244   2.802
32437W        W93891  35.542   7.394   0.777
32438W        W93892  17.592  35.372  14.358
32439W        W93893  37.965  12.793  11.107
32440W        W93894  42.305  36.467   1.229
32441W        W93895  28.997  32.635   2.765
32442W        W93896  21.603  43.977   1.873
32443W        W93897   7.696  27.572   2.316
32444W        W93898  22.037  30.016  13.397
32445W        W93899  16.075  20.720  14.456
32446W        W93900  31.111  22.167  10.414
32447W        W93901  11.183   1.404  13.481
32448W        W93902  42.816  38.365   1.878
32449W        W93903  42.516   7.863  11.044
32450W        W93904  20.532  15.158  14.397
32451W        W93905  16.717  29.508  12.846
32452W        W93906  27.596  37.389   1.766
32453W        W93907  27.590  10.242   1.306
32454W        W93908   6.232   9.849  14.832
32455W        W93909  22.626  37.832   2.353
32456W        W93910  13.336   4.830   0.451
32457W        W93911  16.313  19.244   0.944
32458W        W93912  11.790  30.067  13.859
32459W        W93913   9.881  15.666  12.983
32460W        W93914  31.114  41.914   4.126
32461W        W93915  13.349   0.446   4.630
32462W        W93916   8.338   0.399  10.915
32463W        W93917  33.489  31.958   4.236
32464W        W93918  10.202  37.969   0.845
32465W        W93919   1.261   7.727   1.234
32466W        W93920  29.572  21.622  12.363
32467W        W93921  39.028  17.178  14.456
32468W        W93922  10.780  20.541   2.276
32469W        W93923  33.588   2.964  11.910
32470W        W93924   7.754  41.813   4.717
32471W        W93925  23.183  33.421  14.511
32472W        W93926  13.614  41.508   3.670
32473W        W93927  24.704  15.788  12.562
32474W        W93928   3.924  35.511   2.819
32475W        W93929  34.374  17.252   4.116
32476W        W93930  37.068  12.287  12.975
32477W        W93931   0.948  36.905   2.308
32478W        W93932  20.727  40.938  10.577
32479W        W93933  19.135  20.578  12.932
32480W        W93934  13.706  13.759  11.545
32481W        W93935  12.175  30.503  14.317
32482W        W93936   6.416  10.796  10.569
32483W        W93937   0.812  39.049  12.066
32484W        W93938  40.930   7.314   4.208
32485W        W93939  33.028  10.264  11.092
32486W        W93940  27.570  20.670   5.224
32487W        W93941   2.444  22.715  13.062
32488W        W93942  11.265   2.326   3.737
32489W        W93943   7.869  35.000  12.576
32490W        W93944  38.450   2.382   1.395
32491W        W93945   0.306  16.220   2.212
32492W        W93946  23.546  43.997  13.533
32493W        W93947  17.604   9.299   1.289
32494W        W93948  16.212  14.254  10.524
32495W        W93949   9.282   8.762   0.360
32496W        W93950   5.886  26.045   0.355
32497W        W93951  22.574  34.105   2.740
32498W        W93952  31.522  27.113   2.204
32499W        W93953  26.964   6.795  14.425
32500W        W93954  15.094  44.781  11.074
32501W        W93955  33.013  19.123   2.727
32502W        W93956  18.253   7.311  11.472
32503W        W93957  15.768  37.576  13.405
32504W        W93958  21.698  24.122  11.418
32505W        W93959  33.432  38.067   2.794
32506W        W93960   0.402  20.672  14.474
32507W        W93961  22.732  36.382  14.278
32508W        W93962   3.290  23.699  10.904
32509W        W93963  35.009   4.873   0.259
32510W        W93964  17.573  11.300  12.859
32511W        W93965  19.174   9.885  14.983
32512W        W93966  26.190  30.949  11.129
32513W        W93967  20.618  23.581   2.889
32514W        W93968  29.561  28.010  11.423
32515W        W93969  40.506  33.613  14.762
32516W        W93970  31.106   7.308  11.455
32517W        W93971  25.520  44.479   4.305
32518W        W93972  14.748  19.067  13.892
32519W        W93973  11.806   3.902  11.091
32520W        W93974  24.574   6.838   1.721
32521W        W93975  13.824  34.508   3.683
32522W        W93976  24.525  17.768  12.054
32523W        W93977  12.713  22.104   3.347
32524W        W93978  42.388   2.939  13.540
32525W        W93979  10.853   8.209  14.467
32526W        W93980  15.815  12.641  12.935
32527W        W93981  44.786  31.537   0.940
32528W        W93982  15.749  21.708   3.832
32529W        W93983  25.485  38.071   3.844
32530W        W93984  40.361  33.421   0.800
32531W        W93985  13.343  33.126   0.780
32532W        W93986  21.076  15.685   0.899
32533W        W93987  43.844  33.478  12.925
32534W        W93988  29.064  40.368   4.682
32535W        W93989  21.659   2.345  13.873
32536W        W93990  38.836  21.541   1.727
32537W        W93991  19.575  40.342  13.513
32538W        W93992   9.376  29.960  11.083
32539W        W93993  31.505  41.530  14.972
32540W        W93994  40.911   7.841   0.420
32541W        W93995  26.961  19.563   1.821
32542W        W93996   7.798  38.388  14.472
32543W        W93997  35.387  16.756   4.269
32544W        W93998  29.925   5.412   1.367
32545W        W93999  24.998  37.490  13.795
32546W        W94000  13.722  42.805   2.670
32547W        W94001   6.272  43.918  13.802
32548W        W94002  36.405   0.476   2.719
32549W        W94003  19.117   7.287   1.797
32550W        W94004  38.906   5.847  10.036
32551W        W94005   0.822  32.117  14.296
32552W        W94006  26.166  36.849   1.355
32553W        W94007  37.078  40.980   4.322
32554W        W94008  43.898  37.834   0.474
32555W        W94009   2.813  26.555  13.312
32556W        W94010  24.020  12.672   3.319
32557W        W94011  25.068  11.774  12.541
32558W        W94012   6.249  23.544   0.282
32559W        W94013  29.969  19.195   2.333
32560W        W94014  21.709   4.750  13.412
32561W        W94015  20.726  35.433  14.885
32562W        W94016   5.280  35.534   1.345
32563W        W94017  10.876   8.815   0.810
32564W        W94018  35.581  26.115  11.380
32565W        W94019  34.435  13.621  10.935
32566W        W94020  19.570   9.874   2.870
32567W        W94021   7.800  33.593   0.345
32568W        W94022  30.658  24.137   2.859
32569W        W94023  27.501  11.839   2.671
32570W        W94024   4.342  13.832   3.682
32571W        W94025   5.372   0.746  10.033
32572W        W94026  34.371  25.211  11.005
32573W        W94027  19.065   8.229   3.853
32574W        W94028   1.732   6.274  10.582
32575W        W94029  25.651   9.760  12.019
32576W        W94030  38.833  27.036  12.451
32577W        W94031  37.849   5.818  13.540
32578W        W94032   5.308  18.678   0.872
32579W        W94033   0.820  40.953  11.389
32580W        W94034   6.799  10.870   3.737
32581W        W94035   9.837   3.854  12.341
32582W        W94036  42.432  13.824  14.790
32583W        W94037   3.846   4.770   4.609
32584W        W94038   0.485  28.161   1.224
32585W        W94039  15.301  31.421   2.250
32586W        W94040  33.018   1.373   3.318
32587W        W94041  40.897  27.091   1.406
32588W        W94042  16.581   0.325  10.570
32589W        W94043   0.312  31.495   0.431
32590W        W94044  23.499  17.666   2.675
32591W        W94045  14.209  35.095   0.387
32592W        W94046   3.373   8.826  10.414
32593W        W94047  19.655  20.136  14.428
32594W        W94048  43.400  16.716   0.831
32595W        W94049  17.268  24.714  12.012
32596W        W94050   5.331   2.387  12.865
32597W        W94051  32.967  28.029  14.355
32598W        W94052   1.943  22.697   0.865
32599W        W94053  25.599   0.320   2.842
32600W        W94054  18.618  31.616  10.614
32601W        W94055  23.697  32.138  11.387
32602W        W94056  15.798  16.669  14.430
32603W        W94057  19.140  44.779   0.445
32604W        W94058  31.479  42.788  11.508
32605W        W94059   8.171   4.395   1.870
32606W        W94060   2.233  32.496   4.610
32607W        W94061   0.439  19.573  12.942
32608W        W94062  39.447  17.115  12.401
32609W        W94063   6.713  14.260   1.213
32610W        W94064  29.052  29.013  12.486
32611W        W94065  40.546  23.538  13.531
32612W        W94066  36.476  26.587   2.408
32613W        W94067  37.482  40.878   5.152
32614W        W94068  17.124   4.752   1.316
32615W        W94069   5.262  23.176   3.632
32616W        W94070  20.229  11.275  10.035
32617W        W94071  37.961  29.538  12.465
32618W        W94072  44.343  39.049  10.471
32619W        W94073  42.333  33.497   4.302
32620W        W94074  26.481  36.352   1.304
32621W        W94075   5.258  38.888  12.929
32622W        W94076  13.662  32.920  14.328
32623W        W94077   9.871  28.484  10.896
32624W        W94078  32.407  36.088  12.545
32625W        W94079  22.093   2.439   4.126
32626W        W94080   8.217  33.577  14.794
32627W        W94081  26.609  35.413   2.302
32628W        W94082  25.202  34.547  10.078
32629W        W94083   8.846  25.518  13.805
32630W        W94084  37.488   1.316  10.891
32631W        W94085  23.718  14.175   0.822
32632W        W94086  14.739   5.772  12.952
32633W        W94087  39.522  29.949   3.175
32634W        W94088  17.173  24.084  12.983
32635W        W94089  30.941   2.281   0.757
32636W        W94090  42.361  28.552   1.856
32637W        W94091  38.355  27.951   1.828
32638W        W94092   6.919   1.742  11.925
32639W        W94093   7.363  11.288  12.531
32640W        W94094  20.574  30.031   3.688
32641W        W94095   6.898  28.136  11.380
32642W        W94096  35.971  29.078  12.342
32643W        W94097  16.806  42.286   2.775
32644W        W94098  38.066  37.963   4.115
32645W        W94099   6.797  14.816  12.528
32646W        W94100  42.939  43.491   4.315
32647W        W94101  10.634  28.174  10.146
32648W        W94102  20.273  12.727  14.802
32649W        W94103  44.798   0.436  10.404
32650W        W94104   8.239  38.941  12.483
32651W        W94105  18.205  35.416  12.976
32652W        W94106  40.830  35.961   1.854
32653W        W94107   2.744   9.649  11.118
32654W        W94108  15.187  22.170   2.692
32655W        W94109   8.271   3.388   4.691
32656W        W94110  14.301  39.933   2.278
32657W        W94111  16.614  40.407   3.639
32658W        W94112  20.622  34.541  14.393
32659W        W94113  27.470  24.562  14.991
32660W        W94114  15.303  30.911  12.052
32661W        W94115   1.428   8.341   2.191
32662W        W94116  20.611   8.699   9.934
32663W        W94117  19.195  29.441   4.171
32664W        W94118  29.644  43.848  14.973
32665W        W94119  27.465  18.286  14.878
32666W        W94120   1.457  27.108  11.497
32667W        W94121  33.121   0.388  13.994
32668W        W94122   2.322   3.338  14.994
32669W        W94123  39.341  30.594   2.823
32670W        W94124  36.025   6.859  11.405
32671W        W94125  21.202  29.163   3.286
32672W        W94126  21.038  27.572  13.355
32673W        W94127   3.245  38.967   2.855
32674W        W94128   7.780  25.092  12.484
32675W        W94129  39.903   6.345   1.373
32676W        W94130  34.596  32.908   4.665
32677W        W94131  44.006  18.595   4.805
32678W        W94132  42.296  17.256  14.882
32679W        W94133  37.865  36.380   2.305
32680W        W94134  34.095  26.033   2.726
32681W        W94135  16.114  14.264  13.325
32682W        W94136  22.007  16.603  11.407
32683W        W94137  11.760  25.671  12.016
32684W        W94138  40.840  21.086   4.622
32685W        W94139  14.176  41.490  14.005
32686W        W94140   2.911  22.533  14.503
32687W        W94141  44.495  12.854   2.902
32688W        W94142  32.920  29.049   4.339
32689W        W94143  30.626   0.932   1.821
32690W        W94144   1.354   9.291  12.392
32691W        W94145  17.208  28.944   2.701
32692W        W94146  29.517  36.843  13.502
32693W        W94147  39.481  22.668  14.828
32694W        W94148  19.598   5.846  12.952
32695W        W94149  11.331  36.533  14.424
32696W        W94150  29.079   9.345   1.750
32697W        W94151  36.567  19.039   4.801
32698W        W94152  20.090  13.606  12.958
32699W        W94153  42.373  10.734   3.165
32700W        W94154  10.307  15.126   3.311
32701W        W94155  35.854  25.035   2.283
32702W        W94156  34.451   8.279   0.328
32703W        W94157  10.783  16.628  10.566
32704W        W94158   0.789  22.179  12.837
32705W        W94159  31.438  40.959   2.339
32706W        W94160  18.731  22.661  13.440
32707W        W94161  33.031  13.234  14.959
32708W        W94162  42.791  28.176  13.416
32709W        W94163  40.800   2.341  14.890
32710W        W94164  27.070  44.316   4.244
32711W        W94165  39.886  38.928  13.506
32712W        W94166   7.878  22.042   1.438
32713W        W94167  21.626  11.803   4.793
32714W        W94168  30.069  17.236   0.882
32715W        W94169   0.315  39.531  12.539
32716W        W94170   7.228  26.537   5.300
32717W        W94171   2.252  29.451   4.128
32718W        W94172  16.282  17.573  13.061
32719W        W94173   9.327  25.217   0.456
32720W        W94174  41.028   7.844   2.368
32721W        W94175   2.414  11.296   1.319
32722W        W94176  32.122  23.539   4.757
32723W        W94177  38.908   2.274   2.400
32724W        W94178  27.486  25.079  12.439
32725W        W94179  30.024  20.759  14.846
32726W        W94180  28.030  38.398  10.951
32727W        W94181  16.300  19.126   2.413
32728W        W94182  12.684  23.083   0.836
32729W        W94183  39.991  36.858   0.409
32730W        W94184  42.993  34.409   2.717
32731W        W94185   7.189  10.165  13.850
32732W        W94186  14.768   6.755   1.917
32733W        W94187  42.353  10.318   2.811
32734W        W94188   3.363   7.271   3.371
32735W        W94189  15.108  12.629  13.986
32736W        W94190  32.988  13.152   4.246
32737W        W94191  43.882   0.354   3.679
32738W        W94192   9.185   0.249  11.375
32739W        W94193  11.205  29.656  10.495
32740W        W94194   9.725  36.898   0.416
32741W        W94195  23.086   7.753   3.182
32742W        W94196   8.754  14.252   1.935
32743W        W94197  19.562  41.317  12.536
32744W        W94198   7.295  23.052  11.561
32745W        W94199  38.547  36.381   1.279
32746W        W94200  34.911   5.697   1.790
32747W        W94201   0.391  27.015  14.456
32748W        W94202  16.702   6.259   3.153
32749W        W94203  15.581  40.998   4.644
32750W        W94204   8.306   4.793   2.389
32751W        W94205  18.272   2.349   4.782
32752W        W94206  29.434   3.369  11.882
32753W        W94207  31.026  21.107   4.655
32754W        W94208  19.579  24.686   1.739
32755W        W94209  22.141  19.103  14.414
32756W        W94210  18.110  15.613  10.482
32757W        W94211  20.172  24.550   2.840
32758W        W94212   1.478  38.846  10.588
32759W        W94213  35.441  34.542  13.875
32760W        W94214  28.487  31.509  13.889
32761W        W94215   4.837  26.064  14.405
32762W        W94216  16.260  44.989  10.941
32763W        W94217  13.605  21.067  13.453
32764W        W94218  27.494  40.315  14.396
32765W        W94219  38.068  28.634  14.003
32766W        W94220   9.349  13.149  14.498
32767W        W94221  29.077  41.990  12.855
32768W        W94222  40.317  43.291  12.050
32769W        W94223  12.284  35.056   2.815
32770W        W94224  17.688  16.113   0.432
32771W        W94225  18.675  36.581   3.646
32772W        W94226  35.937  37.456  10.128
32773W        W94227   1.900  12.340  11.454
32774W        W94228  39.921  33.550  14.357
32775W        W94229  19.547  28.044  12.991
32776W        W94230  35.985  22.519   3.631
32777W        W94231  19.259  10.655  14.329
32778W        W94232  20.740  29.449   1.930
32779W        W94233  26.486  18.062   4.149
32780W        W94234   0.751  42.021   3.673
32781W        W94235   6.355  44.428  10.982
32782W        W94236  24.487  14.146   0.918
32783W        W94237  21.119  27.623   9.972
32784W        W94238  22.025  17.717   2.674
32785W        W94239  36.910  34.407  12.059
32786W        W94240  16.092   9.734   4.697
32787W        W94241   2.467  16.659   0.822
32788W        W94242  27.681  17.167   1.210
32789W        W94243  20.655   8.722   0.941
32790W        W94244  42.870  39.525   0.323
32791W        W94245  44.852  24.222   3.813
32792W        W94246  16.243  23.078   2.792
32793W        W94247  21.740   8.177   1.264
32794W        W94248  31.086  28.983  12.441
32795W        W94249   1.336  44.296   2.693
32796W        W94250  20.765  40.020  11.857
32797W        W94251   9.341  12.321   4.182
32798W        W94252  41.423  29.097  13.964
32799W        W94253  15.775  14.803  12.381
32800W        W94254   3.955  17.207   3.324
32801W        W94255   4.852  36.900   3.808
32802W        W94256  13.198  26.466   0.378
32803W        W94257  38.879  33.887   4.636
32804W        W94258  36.574  19.062   4.192
32805W        W94259   6.189  36.493   2.837
32806W        W94260  21.024  24.125   2.710
32807W        W94261  30.150  32.608  12.021
32808W        W94262   4.346  43.355  11.415
32809W        W94263  43.019  39.472   3.700
32810W        W94264   8.705  14.164  11.088
32811W        W94265  42.793  14.297  13.945
32812W        W94266  32.100  17.653  12.890
32813W        W94267  27.490  44.963   0.345
32814W        W94268   0.769  32.973   2.793
32815W        W94269  14.652  18.188   2.672
32816W        W94270  30.943  21.600   4.787
32817W        W94271   7.837  27.453   3.720
32818W        W94272   2.919  32.010   1.345
32819W        W94273   6.334  40.315   1.774
32820W        W94274  16.668   7.264  14.300
32821W        W94275  37.017   9.813   1.933
32822W        W94276  41.885  11.167   3.282
32823W        W94277  41.796   5.257  11.963
32824W        W94278  30.542  20.650  12.376
32825W        W94279  36.069  14.207  11.025
32826W        W94280  22.605  39.040   3.253
32827W        W94281   4.448  35.938   1.371
32828W        W94282  40.504  19.752   4.625
32829W        W94283  38.492  29.654  14.872
32830W        W94284  12.636  11.137   0.366
32831W        W94285  10.262  27.093  11.011
32832W        W94286  22.219  11.713   1.429
32833W        W94287   2.463  18.288  14.977
32834W        W94288  41.351  32.115  12.913
32835W        W94289  13.154  17.100   2.888
32836W        W94290  20.751   0.486  11.071
32837W        W94291  24.134  12.280   3.269
32838W        W94292  28.483  12.743  13.957
32839W        W94293  13.300   6.297   0.482
32840W        W94294   0.310  36.498  14.865
32841W        W94295  14.606  19.625   3.320
32842W        W94296   1.454  26.093   0.874
32843W        W94297  19.267  21.252   2.871
32844W        W94298   7.374  28.078  12.493
32845W        W94299  31.601  43.473   0.258
32846W        W94300  14.311  36.501  12.537
32847W        W94301  44.937  32.043   2.827
32848W        W94302  19.186   7.675  12.456
32849W        W94303  25.138  39.479  13.931
32850W        W94304   9.353  42.836  14.878
32851W        W94305  19.223  32.943   4.158
32852W        W94306  11.332  21.200  14.463
32853W        W94307   5.850  36.361   4.158
32854W        W94308  14.284  18.660  13.893
32855W        W94309  32.529  44.963  14.815
32856W        W94310  24.672  25.570  11.525
32857W        W94311  25.964  32.020   4.144
32858W        W94312  33.423   6.704  11.896
32859W        W94313  24.986   6.907   9.999
32860W        W94314  35.034  13.793   3.818
32861W        W94315   9.765  38.859   2.736
32862W        W94316  44.906  38.056   3.334
32863W        W94317  23.997   8.334   2.670
32864W        W94318  40.858  33.522  14.460
32865W        W94319  31.450  43.312  14.806
32866W        W94320  34.979   3.437   4.605
32867W        W94321  12.158  41.832  13.356
32868W        W94322  36.016   6.853   0.317
32869W        W94323  12.699  25.119   0.889
32870W        W94324   3.377  29.467   3.261
32871W        W94325   5.314  31.091   3.297
32872W        W94326  19.740  14.667  13.354
32873W        W94327  31.547  39.836  14.507
32874W        W94328   8.774  25.621   2.357
32875W        W94329  43.318  12.326  11.991
32876W        W94330  33.561  40.012  10.989
32877W        W94331  22.574  19.592   3.829
32878W        W94332  14.171   2.942  13.364
32879W        W94333  18.058  13.306  13.431
32880W        W94334  17.628  13.170   0.417
32881W        W94335  44.784  17.069   1.299
32882W        W94336  22.540  32.624   0.882
32883W        W94337  40.911   0.290  12.945
32884W        W94338   8.336  34.907   4.213
32885W        W94339   1.461   4.858   3.319
32886W        W94340  21.751  36.094   1.283
32887W        W94341  34.565  17.243  10.628
32888W        W94342   0.917  12.135   4.749
32889W        W94343   9.177  22.720   1.350
32890W        W94344  20.226  16.207   4.675
32891W        W94345   2.852  31.459  11.910
32892W        W94346   5.738   3.461  14.486
32893W        W94347   3.354  32.024  10.444
32894W        W94348   1.865   7.414  11.973
32895W        W94349   3.798  43.878   1.823
32896W        W94350  28.570  39.512  12.039
32897W        W94351   5.321   9.782   1.232
32898W        W94352  25.498  36.022  11.609
32899W        W94353  42.419  42.419   1.268
32900W        W94354  26.169  14.126  10.586
32901W        W94355  29.467  26.093  12.976
32902W        W94356   3.810  15.089  14.342
32903W        W94357  24.535  24.495  13.042
32904W        W94358   7.355  33.071  11.977
32905W        W94359   1.871  44.910  12.475
32906W        W94360  30.970   0.857  10.993
32907W        W94361  43.018  26.600  14.502
32908W        W94362  15.643  39.476   9.508
32909W        W94363   9.767  24.543  12.082
32910W        W94364   3.951  11.282   4.770
32911W        W94365  18.745  11.728   4.774
32912W        W94366  28.574   1.328  12.433
32913W        W94367  27.482   7.750   0.756
32914W        W94368  43.823  29.641  12.085
32915W        W94369   2.466   8.199   1.766
32916W        W94370  40.485  41.504   4.836
32917W        W94371  24.575  10.820   3.162
32918W        W94372  44.265  17.237  13.358
32919W        W94373  17.185  35.363   4.610
32920W        W94374  13.843  21.060   0.830
32921W        W94375  25.113  44.344  10.570
32922W        W94376  13.824  37.035   3.856
32923W        W94377  22.543  19.719   0.457
32924W        W94378   2.957   2.738   3.346
32925W        W94379  24.170  21.204   4.633
32926W        W94380   7.416  43.918  14.777
32927W        W94381  27.041  31.902  13.475
32928W        W94382  44.755   8.766  12.999
32929W        W94383  36.906  35.530   0.244
32930W        W94384  37.041  24.678  12.994
32931W        W94385  11.359  31.457  13.495
32932W        W94386  27.122  25.644   2.753
32933W        W94387  33.605  14.752   0.752
32934W        W94388  23.549   3.426  13.024
32935W        W94389  12.830  44.838   2.767
32936W        W94390  11.278  44.359   3.826
32937W        W94391   7.256   8.183   0.734
32938W        W94392  25.602  11.292  11.907
32939W        W94393  15.607  28.976   2.742
32940W        W94394  23.664  44.447  10.515
32941W        W94395  20.695   1.912   2.415
32942W        W94396  18.783  10.212  14.394
32943W        W94397  36.559  10.827   3.831
32944W        W94398  32.460   8.374  14.938
32945W        W94399  25.018  17.249   1.329
32946W        W94400   9.724  21.119  10.988
32947W        W94401  18.250  14.728   0.377
32948W        W94402   7.382  42.313   4.350
32949W        W94403  39.337   9.676  11.499
32950W        W94404  38.367   2.794  10.636
32951W        W94405  36.423  36.355   2.770
32952W        W94406  17.657   2.335  13.941
32953W        W94407  34.381  43.351   3.727
32954W        W94408   4.731   3.445  14.430
32955W        W94409  40.845  14.222  13.885
32956W        W94410  24.085   8.781   4.646
32957W        W94411  19.571  13.155   4.231
32958W        W94412  31.980   5.829   3.211
32959W        W94413  35.890  42.969  11.593
32960W        W94414   2.358   9.304  14.302
32961W        W94415  13.224  13.744   3.765
32962W        W94416   9.206  22.623  11.453
32963W        W94417  22.734  20.632   0.738
32964W        W94418  39.488  39.858  14.319
32965W        W94419  25.962   5.306  14.017
32966W        W94420  35.898  35.095   4.698
32967W        W94421  21.234  37.878   0.450
32968W        W94422  14.610  40.330  12.399
32969W        W94423  24.655  32.043   0.947
32970W        W94424  32.397  21.596   1.924
32971W        W94425   2.829  14.678   2.889
32972W        W94426   2.887  25.511  12.863
32973W        W94427  31.625  42.377   2.353
32974W        W94428   2.457  39.454   1.434
32975W        W94429  20.196  22.567   0.873
32976W        W94430  34.398  25.217  10.465
32977W        W94431  18.088  28.945   2.318
32978W        W94432  42.495  36.921   2.274
32979W        W94433  35.457  20.094   1.930
32980W        W94434  35.897  18.253   0.882
32981W        W94435   7.685  37.513  14.768
32982W        W94436  36.451  32.581  12.830
32983W        W94437  24.096   7.852   9.646
32984W        W94438  10.291  26.986   1.741
32985W        W94439  35.561  39.516   0.786
32986W        W94440  33.464  28.594   0.926
32987W        W94441  15.705  26.513   3.331
32988W        W94442   3.264   9.151   0.837
32989W        W94443   5.277  14.157   1.762
32990W        W94444  23.156  28.564  11.394
32991W        W94445  14.100  19.087   0.337
32992W        W94446  11.643  17.607  11.424
32993W        W94447   3.294   1.417  14.963
32994W        W94448  10.294  42.386   1.236
32995W        W94449   7.233  41.336   1.835
32996W        W94450  35.932  15.315  14.395
32997W        W94451  33.494  41.304  10.575
32998W        W94452  11.651  38.008   0.833
32999W        W94453  33.595  25.533   4.738
33000W        W94454  38.983  34.437   0.421
33001W        W94455  41.861  23.151   4.315
33002W        W94456   6.692  34.077   3.328
33003W        W94457  43.838  33.889   0.315
33004W        W94458  44.464  11.643   4.783
33005W        W94459   1.261  28.051   0.402
33006W        W94460  18.203  36.584   4.272
33007W        W94461  12.673  10.865   1.383
33008W        W94462  27.633  17.750  11.607
33009W        W94463  43.396  17.241  10.102
33010W        W94464   5.875  44.417  11.611
33011W        W94465   6.239  14.319   4.771
33012W        W94466  26.682   1.937  13.842
33013W        W94467   4.256  34.096   4.746
33014W        W94468   5.419  23.508  13.420
33015W        W94469  37.420  30.975  12.837
33016W        W94470  23.677  44.434  14.410
33017W        W94471  16.127  31.521   3.155
33018W        W94472  38.335  11.751  11.921
33019W        W94473  36.546  31.511   2.235
33020W        W94474  26.007   1.785  14.804
33021W        W94475   2.899  17.613   0.274
33022W        W94476  17.082  34.440  13.030
33023W        W94477   8.248  41.503  13.538
33024W        W94478  26.047  33.916   1.235
33025W        W94479  28.017  43.405  12.855
33026W        W94480   0.379  30.992   3.188
33027W        W94481  35.066  21.603   0.897
33028W        W94482   0.475  22.233   0.386
33029W        W94483  33.561  27.590   3.178
33030W        W94484  27.968  32.949  13.432
33031W        W94485  17.203  15.622  12.493
33032W        W94486  39.489  26.515  14.863
33033W        W94487  37.567  42.405  14.319
33034W        W94488   8.204  30.119  10.112
33035W        W94489  31.037  41.889  11.517
33036W        W94490   6.726  40.860   1.419
33037W        W94491  37.007  19.543  11.562
33038W        W94492  19.145   7.301   2.338
33039W        W94493  32.409  28.171  13.478
33040W        W94494   3.901  13.609   4.250
33041W        W94495   0.865  16.654   3.674
33042W        W94496  23.110  13.796  10.591
33043W        W94497  38.382  21.077  11.096
33044W        W94498  42.408  39.065  10.599
33045W        W94499  15.807  16.670   1.831
33046W        W94500  43.280  13.348   3.384
33047W        W94501  29.995  11.273   2.672
33048W        W94502  39.058  13.346   2.333
33049W        W94503  22.225  31.644  10.417
33050W        W94504  25.679  27.187  13.041
33051W        W94505  13.332   7.363   2.778
33052W        W94506  17.637   9.679  13.323
33053W        W94507  18.607  20.625  10.414
33054W        W94508   3.336  15.691  13.038
33055W        W94509  12.183  21.638   2.287
33056W        W94510  40.386   6.809   3.642
33057W        W94511  16.727  23.137   1.255
33058W        W94512  12.666  39.476   2.192
33059W        W94513  15.717  37.382  14.312
33060W        W94514  16.727  22.133  10.407
33061W        W94515  29.512  12.251  10.499
33062W        W94516  13.285   0.308   0.354
33063W        W94517   9.344   0.958   0.838
33064W        W94518  20.127  16.167   2.741
33065W        W94519  38.022   7.889  12.489
33066W        W94520  22.183  30.465   2.304
33067W        W94521  20.725  24.660   2.848
33068W        W94522  11.717  42.929  12.874
33069W        W94523  22.210  35.585   3.687
33070W        W94524  44.904  38.515   3.793
33071W        W94525  44.768  36.041  12.010
33072W        W94526  14.714  35.039   2.813
33073W        W94527  27.514  30.447  11.439
33074W        W94528  28.510   3.392  11.905
33075W        W94529  29.075  23.030  14.302
33076W        W94530  21.199  35.938  14.369
33077W        W94531  16.091  31.048   2.836
33078W        W94532  42.817  24.217  14.822
33079W        W94533  17.117   8.396  14.924
33080W        W94534   5.192   6.815   3.662
33081W        W94535  27.040  29.508  10.050
33082W        W94536   4.211   0.250  12.849
33083W        W94537  12.727  28.947   3.281
33084W        W94538   2.774   7.242   2.901
33085W        W94539  38.836   4.726  14.978
33086W        W94540  26.084  20.090  11.517
33087W        W94541   3.847  17.122  10.991
33088W        W94542   2.299  39.423  10.966
33089W        W94543  19.158   5.901  14.856
33090W        W94544  41.326  24.662   1.727
33091W        W94545   1.812  42.964   3.364
33092W        W94546  16.659  41.857   3.275
33093W        W94547   3.397  36.027  10.124
33094W        W94548  19.598   7.341   5.246
33095W        W94549  33.426  27.557  12.473
33096W        W94550   5.331  12.294  12.048
33097W        W94551  26.683  31.915  13.806
33098W        W94552  29.632  43.898   2.768
33099W        W94553  35.893   1.894   4.151
33100W        W94554  43.973  26.111  14.496
33101W        W94555  44.984  34.609  13.339
33102W        W94556   4.846  16.635   1.847
33103W        W94557  28.569   8.348  10.588
33104W        W94558   6.820   7.408  13.823
33105W        W94559  40.896  18.278  10.537
33106W        W94560   5.898  24.671  14.344
33107W        W94561  13.838  17.106   3.730
33108W        W94562  42.811  14.751  14.357
33109W        W94563  27.090  44.826  14.510
33110W        W94564  41.408  32.108   1.379
33111W        W94565   1.972  13.287  12.055
33112W        W94566  21.195  40.354   0.942
33113W        W94567  39.927   4.736  10.080
33114W        W94568  11.192  39.378   9.640
33115W        W94569   1.775  10.333  10.477
33116W        W94570  29.454  37.980   4.719
33117W        W94571  39.349   6.291  13.856
33118W        W94572  24.532  14.817   4.648
33119W        W94573  44.337  36.449  10.442
33120W        W94574  22.577  21.187   0.377
33121W        W94575  24.107  34.556  13.435
33122W        W94576  36.890  34.954  11.866
33123W        W94577  20.653  26.999   1.809
33124W        W94578  37.454  37.404   4.289
33125W        W94579   7.868  13.687  10.581
33126W        W94580  28.475  14.285  11.407
33127W        W94581   3.326   6.682   4.342
33128W        W94582  32.401  33.437   4.750
33129W        W94583  28.679   5.333  11.863
33130W        W94584  32.606  24.579   1.880
33131W        W94585   5.204  26.532  12.511
33132W        W94586  32.568  23.198   3.747
33133W        W94587  25.184  38.468  14.943
33134W        W94588   9.743   1.808  11.036
33135W        W94589  38.564  39.009  11.924
33136W        W94590   7.825  24.208   0.304
33137W        W94591  16.243  16.273  14.462
33138W        W94592  41.844  39.366  13.514
33139W        W94593  34.550  26.594  11.418
33140W        W94594  35.088   6.215  10.491
33141W        W94595  11.199   7.260  14.313
33142W        W94596  21.105  26.100  13.801
33143W        W94597  41.812   0.269   0.833
33144W        W94598  44.002  21.124  14.406
33145W        W94599   0.779   6.352  13.053
33146W        W94600  37.381  37.503  11.460
33147W        W94601  18.556  39.333  14.770
33148W        W94602   1.249   1.871   0.475
33149W        W94603   8.730   5.923   3.379
33150W        W94604  33.098  25.539  11.559
33151W        W94605  39.429   5.878   2.393
33152W        W94606  42.449  41.983  14.895
33153W        W94607  11.309  23.209  13.400
33154W        W94608  38.355  15.298  13.391
33155W        W94609  28.634  21.578  13.484
33156W        W94610  38.380  30.109   0.399
33157W        W94611  22.173   8.895   1.404
33158W        W94612  25.974  42.844  14.789
33159W        W94613  43.410  38.465   0.892
33160W        W94614   3.400  26.087   1.805
33161W        W94615  15.209  21.047  12.046
33162W        W94616  25.633   0.343   1.245
33163W        W94617  38.563  18.212   1.918
33164W        W94618   4.701  19.146   1.842
33165W        W94619  41.432  27.572   0.926
33166W        W94620   0.920  35.877  12.885
33167W        W94621  14.620  32.116   1.730
33168W        W94622  25.087  21.225  12.411
33169W        W94623  12.674  33.525  11.457
33170W        W94624  27.033  10.321  14.832
33171W        W94625  18.708  44.929   2.724
33172W        W94626  24.213   9.177   2.720
33173W        W94627   3.345  40.475   0.825
33174W        W94628  33.888  22.164   1.829
33175W        W94629  35.478  35.533   4.167
33176W        W94630   1.739  43.324  13.981
33177W        W94631  32.028  19.758  12.367
33178W        W94632  27.598   5.858   1.825
33179W        W94633   6.853  23.014   0.443
33180W        W94634  40.897  12.723  12.038
33181W        W94635  36.857  39.537   4.708
33182W        W94636   9.650  24.188  14.872
33183W        W94637  29.025  14.720  12.045
33184W        W94638  15.708  14.128   1.931
33185W        W94639  30.110   4.222   4.760
33186W        W94640  43.928  27.030   0.271
33187W        W94641  11.283   0.965  13.455
33188W        W94642  25.470  42.353   2.332
33189W        W94643  22.207  39.834   1.875
33190W        W94644  36.466  39.973   9.992
33191W        W94645  16.152   2.738  14.824
33192W        W94646  36.983  36.467  13.913
33193W        W94647  42.826  37.337   1.229
33194W        W94648  30.572  26.679   3.281
33195W        W94649  37.041   1.462  14.435
33196W        W94650   9.855  37.065  11.923
33197W        W94651  26.673  35.524   2.819
33198W        W94652   2.438   1.792  14.307
33199W        W94653  32.116  23.239   0.765
33200W        W94654  11.185  13.267  12.564
33201W        W94655   0.988  43.916   2.742
33202W        W94656  15.600  44.846  10.426
33203W        W94657  18.622  42.993   0.877
33204W        W94658  14.188   0.905  10.461
33205W        W94659   8.300  17.725   0.814
33206W        W94660  39.061  28.554   4.265
33207W        W94661   2.389   9.727  14.432
33208W        W94662   0.331  44.454   0.342
33209W        W94663  33.464  18.615  10.471
33210W        W94664  28.509  18.662   0.799
33211W        W94665  23.062  25.019   0.319
33212W        W94666  37.461  10.681  12.470
33213W        W94667  31.411   9.246  10.924
33214W        W94668  29.562  19.690  11.386
33215W        W94669  10.710  41.812  13.035
33216W        W94670  38.449  31.433  13.328
33217W        W94671   7.832   2.883   0.934
33218W        W94672  19.163   9.386  10.972
33219W        W94673  19.599   3.276  13.471
33220W        W94674  34.381  43.884   2.411
33221W        W94675  27.667   1.860   1.750
33222W        W94676  17.636  35.870   0.847
33223W        W94677  25.695  36.886  10.928
33224W        W94678  14.771  13.794   4.224
33225W        W94679  21.736  10.701  11.064
33226W        W94680  29.065   4.405   1.731
33227W        W94681  34.034  26.998  11.109
33228W        W94682  25.080  43.340  10.550
33229W        W94683  40.961  10.149  13.897
33230W        W94684   9.167   9.170  11.486
33231W        W94685   1.970   8.876   3.631
33232W        W94686  32.576  11.248  13.433
33233W        W94687   8.694  44.496   1.696
33234W        W94688  25.055  44.912   4.607
33235W        W94689   3.766  27.996   0.254
33236W        W94690  29.561  16.574  11.410
33237W        W94691  34.927  40.906   4.145
33238W        W94692  33.053  16.585   4.274
33239W        W94693  12.285  17.228  13.061
33240W        W94694   3.767  39.558  11.901
33241W        W94695  29.647  15.795   3.329
33242W        W94696  23.698  35.869   1.384
33243W        W94697   7.701  10.737   0.305
33244W        W94698  12.137  25.548  10.433
33245W        W94699  35.879   4.292   1.441
33246W        W94700  28.593  25.983   2.410
33247W        W94701  30.080  36.588   3.361
33248W        W94702  43.404  29.477   0.862
33249W        W94703  31.425  22.131  14.424
33250W        W94704   6.391  12.671  12.431
33251W        W94705  30.984  15.718   4.671
33252W        W94706  27.033  33.085  13.995
33253W        W94707  18.161  36.055  13.894
33254W        W94708  20.559   1.383  13.993
33255W        W94709  31.143  11.695  11.426
33256W        W94710  21.131  40.436  11.400
33257W        W94711  18.162  42.489  10.893
33258W        W94712  42.966  20.579  10.905
33259W        W94713   1.456   8.337   2.699
33260W        W94714  24.622  24.017   3.322
33261W        W94715  39.974   7.410   2.851
33262W        W94716   2.460  30.937   1.294
33263W        W94717  39.408  36.941  13.335
33264W        W94718  42.461   2.824   3.295
33265W        W94719  19.205   1.808  13.875
33266W        W94720  20.578  41.968   0.907
33267W        W94721  29.108  22.691   2.361
33268W        W94722  31.987  29.086   2.404
33269W        W94723  24.077  18.624   2.233
33270W        W94724   3.759  34.497   3.356
33271W        W94725  44.957  16.270  11.604
33272W        W94726  11.709   2.915  10.428
33273W        W94727  20.745   0.422   2.185
33274W        W94728  14.779  29.948  13.916
33275W        W94729  27.136   0.290   0.754
33276W        W94730  16.181  41.807   2.859
33277W        W94731  28.496   8.346  13.839
33278W        W94732  15.822  42.928  13.514
33279W        W94733  44.881  34.879  12.391
33280W        W94734  40.836  38.860   3.822
33281W        W94735  11.689  23.212  12.055
33282W        W94736  13.696  43.500  10.442
33283W        W94737  26.677  43.347  12.053
33284W        W94738  11.189  25.542   2.196
33285W        W94739  38.900  12.343  11.897
33286W        W94740  39.852  12.807   1.428
33287W        W94741  37.377   7.709   5.227
33288W        W94742  38.451  11.667   3.262
33289W        W94743  11.820  31.493   3.699
33290W        W94744  18.695   5.887   4.750
33291W        W94745  19.758   5.425  11.430
33292W        W94746   6.298  41.036  10.975
33293W        W94747  29.094  29.476  10.623
33294W        W94748  35.546   6.843   4.693
33295W        W94749  16.167  42.453   1.265
33296W        W94750  11.163  16.167   5.295
33297W        W94751  33.515  18.081   3.372
33298W        W94752  21.065  27.023   2.731
33299W        W94753  34.927  30.989   0.914
33300W        W94754  39.471  11.689   0.734
33301W        W94755   8.194  35.590   0.358
33302W        W94756  42.981  15.613   2.401
33303W        W94757  41.995   4.282  13.805
33304W        W94758  31.498  25.635   3.850
33305W        W94759   0.416  32.905  12.515
33306W        W94760  34.488  35.383   2.225
33307W        W94761  19.723  18.657   3.185
33308W        W94762   0.841  12.678  13.890
33309W        W94763  35.916  18.678  13.432
33310W        W94764  13.715  15.718  13.946
33311W        W94765  29.566  22.062  10.493
33312W        W94766  19.254  15.634   3.708
33313W        W94767  27.137  28.048   2.231
33314W        W94768  32.937   0.373   4.689
33315W        W94769  33.599  22.134   3.221
33316W        W94770   7.691   4.811   2.779
33317W        W94771  18.761  34.544   1.744
33318W        W94772   1.373   5.412  14.343
33319W        W94773  37.852  16.673   1.281
33320W        W94774   2.398   7.818   4.239
33321W        W94775  41.494  32.587   3.741
33322W        W94776   9.801  16.149  11.919
33323W        W94777  27.952  29.446   1.883
33324W        W94778  38.991   9.270  13.348
33325W        W94779  23.091   9.321  12.490
33326W        W94780  26.980  10.380   2.283
33327W        W94781  25.045  34.563   2.847
33328W        W94782  22.149  27.454   3.202
33329W        W94783  35.441  18.581  12.923
33330W        W94784  16.605  11.318  14.381
33331W        W94785  31.559  34.034   0.440
33332W        W94786  39.557  32.483   2.776
33333W        W94787  44.312  15.653  10.415
33334W        W94788   0.375  28.963  11.968
33335W        W94789  15.263  42.936  12.523
33336W        W94790  26.694  18.739  11.989
33337W        W94791  40.860  36.442  14.801
33338W        W94792  11.734  24.541   4.210
33339W        W94793  15.297  28.047   4.626
33340W        W94794   8.283  30.453   2.735
33341W        W94795   4.316  44.495   3.283
33342W        W94796  10.258  29.093   3.288
33343W        W94797  37.364  11.364  12.542
33344W        W94798  33.006  42.332   2.754
33345W        W94799   8.866   2.953  13.012
33346W        W94800  21.573  19.253   0.414
33347W        W94801  14.298  30.982  10.438
33348W        W94802  37.341  43.468  11.059
33349W        W94803   8.730  25.024  11.470
33350W        W94804   7.688  26.107   0.432
33351W        W94805  18.282  12.222  11.022
33352W        W94806  27.686  32.525   0.955
33353W        W94807   2.835  30.055   2.390
33354W        W94808  25.124  33.472  12.850
33355W        W94809   8.292  26.513   0.960
33356W        W94810  28.598  10.714  12.538
33357W        W94811  38.044  34.941   1.835
33358W        W94812  11.294  25.192  12.870
33359W        W94813  14.126  37.370   3.701
33360W        W94814  22.717  34.100   1.310
33361W        W94815   4.703  43.456  14.811
33362W        W94816  19.780  16.166   1.800
33363W        W94817  17.619  38.031   3.226
33364W        W94818   2.342  26.620   2.289
33365W        W94819  11.301   5.372   2.785
33366W        W94820  29.457   1.241  10.523
33367W        W94821  23.681  43.508   1.358
33368W        W94822  12.732  17.781   0.891
33369W        W94823  11.816  28.170  10.544
33370W        W94824   8.224  34.000   2.828
33371W        W94825   2.246   6.361  13.334
33372W        W94826   3.851   6.257   4.675
33373W        W94827  41.027  23.235   0.431
33374W        W94828  25.571  36.364   4.632
33375W        W94829  11.335  13.700  13.323
33376W        W94830  24.218  32.473   2.756
33377W        W94831  38.004  42.920  14.842
33378W        W94832  15.674  23.632  13.376
33379W        W94833  17.175  34.550  13.410
33380W        W94834  27.615  18.230  12.033
33381W        W94835   1.241  20.540   2.308
33382W        W94836  11.800  42.390   3.212
33383W        W94837  22.152  14.141   1.393
33384W        W94838  16.175   4.249   2.360
33385W        W94839  29.049  15.701  13.972
33386W        W94840  32.528  23.712   4.293
33387W        W94841  22.634  41.864   0.726
33388W        W94842  21.140  35.038   2.846
33389W        W94843  43.002  44.802   3.148
33390W        W94844  26.676  36.011  11.375
33391W        W94845  22.181  35.978  14.295
33392W        W94846  30.542   6.360   5.112
33393W        W94847  23.237  43.996  13.839
33394W        W94848  30.054  27.685   3.229
33395W        W94849  10.204  15.094   5.115
33396W        W94850   3.803  35.923   5.162
33397W        W94851  35.097   2.773  10.957
33398W        W94852  34.551   4.259  11.580
33399W        W94853  26.613  23.494   2.252
33400W        W94854  40.334  29.503  13.328
33401W        W94855  23.547  16.568   4.335
33402W        W94856  34.041  25.087  10.499
33403W        W94857  38.980  19.683   2.303
33404W        W94858  10.715  17.210  11.962
33405W        W94859  22.028   3.749   2.303
33406W        W94860  19.768  14.220  13.980
33407W        W94861  44.413   5.348   0.468
33408W        W94862   7.889  11.761  14.969
33409W        W94863  31.627  26.700   3.234
33410W        W94864  31.633   4.284   4.646
33411W        W94865  43.291  33.055  11.410
33412W        W94866   9.220   5.316   1.217
33413W        W94867  34.905  16.798   2.240
33414W        W94868   6.690  31.129  13.021
33415W        W94869  24.612  42.410   0.777
33416W        W94870  39.006  31.619   0.373
33417W        W94871  30.509  27.616   0.341
33418W        W94872  27.947  15.584   2.783
33419W        W94873   8.161  43.885   2.323
33420W        W94874  26.067  33.123   2.735
33421W        W94875   7.856  36.438   1.383
33422W        W94876  26.480  24.999   2.703
33423W        W94877  37.491  36.015   3.815
33424W        W94878  39.822  25.515  14.768
33425W        W94879  13.653  42.317  10.554
33426W        W94880  33.435  43.797   4.730
33427W        W94881  21.674   8.170   2.304
33428W        W94882  26.145  40.849  13.460
33429W        W94883  27.063  40.468   2.188
33430W        W94884  11.652  19.639  11.592
33431W        W94885  22.522  25.633   2.255
33432W        W94886  32.073  25.200   1.295
33433W        W94887   5.876   0.313   2.384
33434W        W94888  39.854   4.356  12.080
33435W        W94889  21.733   3.950  10.958
33436W        W94890  18.564  12.611  12.033
33437W        W94891   8.376  22.650   4.122
33438W        W94892  33.445  28.461  12.954
33439W        W94893  43.344  24.106   0.445
33440W        W94894  11.663  15.653   1.790
33441W        W94895   7.749  28.047   4.190
33442W        W94896   7.325  20.111  13.791
33443W        W94897  38.825  26.079   4.661
33444W        W94898  33.395  41.482  11.092
33445W        W94899  12.680  22.681  10.013
33446W        W94900  33.583  21.554  10.978
33447W        W94901   9.790  28.675  11.439
33448W        W94902   2.758  44.498  13.368
33449W        W94903  14.722  32.496  11.491
33450W        W94904  39.435  10.195   1.270
33451W        W94905  24.197  41.881  12.088
33452W        W94906  36.991   1.267  12.364
33453W        W94907   6.883  30.437  14.811
33454W        W94908  26.983  15.163   4.273
33455W        W94909  42.437  25.523   3.825
33456W        W94910   9.728  24.005   1.722
33457W        W94911   3.793  32.574  11.507
33458W        W94912  27.675  25.978  14.963
33459W        W94913   0.286  31.541  13.400
33460W        W94914  14.659  40.812  11.528
33461W        W94915   5.755  33.412   2.812
33462W        W94916  18.740   1.975   0.904
33463W        W94917  39.341  16.627   4.755
33464W        W94918  32.977  43.354   3.161
33465W        W94919  39.869  19.196  14.818
33466W        W94920  21.652  22.194  11.057
33467W        W94921  30.630   9.317  13.972
33468W        W94922  31.046  31.632   9.488
33469W        W94923  13.322   8.259  11.857
33470W        W94924  12.330  24.055  14.454
33471W        W94925  31.554  28.181   0.730
33472W        W94926   4.226   7.393  12.970
33473W        W94927  11.721  30.527  10.149
33474W        W94928   5.421   0.968   4.790
33475W        W94929   0.293   1.847   2.752
33476W        W94930   3.424  39.907   4.730
33477W        W94931   6.755   6.361   1.841
33478W        W94932   6.418  36.977  12.898
33479W        W94933   0.856  44.843  13.803
33480W        W94934   5.287  40.481  13.538
33481W        W94935  17.289  41.928  10.464
33482W        W94936   1.424  42.414   0.877
33483W        W94937  15.764  32.004  14.327
33484W        W94938  29.037  17.561   3.734
33485W        W94939  13.795  24.548  14.452
33486W        W94940  43.424  27.648   4.709
33487W        W94941  21.517  20.257  14.875
33488W        W94942  42.824  40.844   4.635
33489W        W94943   1.922   3.237   2.410
33490W        W94944  14.810   7.741  11.462
33491W        W94945  18.292  38.891  10.558
33492W        W94946  38.347  24.201  14.957
33493W        W94947  37.368  40.531   1.267
33494W        W94948  23.133   1.454   4.219
33495W        W94949  13.758  33.581  11.490
33496W        W94950  30.040  39.543  11.069
33497W        W94951   6.872  19.647  14.822
33498W        W94952  40.480  14.200   1.897
33499W        W94953   9.723  35.369  13.309
33500W        W94954  29.599  16.172   2.695
33501W        W94955   8.383  30.047   5.795
33502W        W94956  20.061  18.101   3.180
33503W        W94957  11.129  41.888   3.806
33504W        W94958   6.226  40.496  12.398
33505W        W94959  19.123  19.755   0.914
33506W        W94960  33.581  32.406   4.163
33507W        W94961  18.070   7.263   4.239
33508W        W94962  25.536  41.431  14.355
33509W        W94963  23.735  21.558  10.474
33510W        W94964  11.648  23.118   0.893
33511W        W94965  30.523   5.750  14.976
33512W        W94966  33.405  31.071  12.530
33513W        W94967  11.863  38.514  14.506
33514W        W94968  33.923   2.732   0.737
33515W        W94969  35.938  37.347  12.997
33516W        W94970  30.044  41.975   2.724
33517W        W94971  19.695  27.587   4.771
33518W        W94972  36.083  27.596  14.830
33519W        W94973  13.235  32.899   0.373
33520W        W94974   4.378  31.083  14.493
33521W        W94975  29.143  42.783  11.594
33522W        W94976  34.469   5.802   3.753
33523W        W94977  43.785  13.776   3.854
33524W        W94978  10.156   1.270   1.393
33525W        W94979  41.997  16.665   3.821
33526W        W94980  43.389   2.770   4.318
33527W        W94981  38.047  33.975   3.746
33528W        W94982  38.900   6.369  13.800
33529W        W94983  10.340  21.017  13.940
33530W        W94984  23.016  25.695  11.964
33531W        W94985  21.661   9.303   3.257
33532W        W94986   9.777  13.193  12.490
33533W        W94987  11.324  24.695   4.298
33534W        W94988   3.444  43.421  10.981
33535W        W94989  36.438  25.488   2.216
33536W        W94990  38.367  37.843   2.366
33537W        W94991  34.062  15.717   0.740
33538W        W94992  31.126   5.321   2.672
33539W        W94993  14.212  34.882   1.286
33540W        W94994  33.124   1.253  14.785
33541W        W94995  10.298  39.939  12.493
33542W        W94996  26.616  37.438   0.772
33543W        W94997   0.446  23.192  10.459
33544W        W94998  17.161  24.227   3.694
33545W        W94999  29.118  38.996  14.787
33546W        W95000  30.599  36.505   4.644
33547W        W95001  37.953  41.352  14.846
33548W        W95002  28.963  17.616   1.229
33549W        W95003  18.776  38.489  12.890
33550W        W95004  39.003  38.056   0.254
33551W        W95005  35.853  12.259  14.339
33552W        W95006  20.718  41.373  13.371
33553W        W95007  19.545  44.276  13.809
33554W        W95008  30.994  19.691   4.257
33555W        W95009  16.286  32.480   1.242
33556W        W95010   6.374  43.284  12.364
33557W        W95011  43.766  43.875  10.439
33558W        W95012  11.218  17.151   2.263
33559W        W95013  16.772  27.190   4.211
33560W        W95014  10.660  43.923  14.766
33561W        W95015  24.684  22.998   4.159
33562W        W95016  10.243  34.983   0.881
33563W        W95017  26.542  18.084  14.964
33564W        W95018   7.702   8.744  11.031
33565W        W95019   9.743  14.167  14.336
33566W        W95020  30.475   2.733   3.334
33567W        W95021  35.496  20.083  11.566
33568W        W95022  21.746  14.297   4.181
33569W        W95023  33.492   3.312   5.133
33570W        W95024  20.112  28.578  12.919
33571W        W95025   6.759  43.980  12.912
33572W        W95026  31.463   2.757  12.352
33573W        W95027   0.834   9.246   4.777
33574W        W95028  39.464   9.710   3.174
33575W        W95029  16.146   2.944  13.833
33576W        W95030   2.416  10.188  10.471
33577W        W95031   3.894  33.080  14.859
33578W        W95032  44.950  23.208   3.653
33579W        W95033  13.132  35.537  13.528
33580W        W95034  25.145  19.540   0.751
33581W        W95035  23.704  20.590   4.626
33582W        W95036  38.503  39.487   4.220
33583W        W95037  25.550  33.532   0.854
33584W        W95038   2.785  21.135  13.922
33585W        W95039  35.464  11.800  11.406
33586W        W95040  16.708   6.824  11.014
33587W        W95041  16.079  39.981  10.077
33588W        W95042   3.912  22.230  14.952
33589W        W95043  18.697  35.870   5.153
33590W        W95044  42.427   9.388   1.320
33591W        W95045  44.259  30.959  12.077
33592W        W95046  39.990  37.925   1.881
33593W        W95047  18.779   1.977   1.245
33594W        W95048  39.333  22.050   0.423
33595W        W95049  37.037  39.058   1.795
33596W        W95050  29.114  14.151   2.200
33597W        W95051   8.780  25.056  12.908
33598W        W95052  29.984  23.987   5.709
33599W        W95053   6.388  10.206  13.525
33600W        W95054   8.379  40.875   2.269
33601W        W95055  29.518  21.022   9.929
33602W        W95056  27.530  33.528  12.544
33603W        W95057  42.285   5.417  11.893
33604W        W95058  31.039  22.628  14.869
33605W        W95059  40.399  37.946  14.981
33606W        W95060  14.663  12.717   9.600
33607W        W95061  23.627  11.352  11.608
33608W        W95062  21.665  22.712  12.551
33609W        W95063   4.767  12.127  10.418
33610W        W95064  15.174  31.145  12.355
33611W        W95065   2.300  27.063   4.810
33612W        W95066  18.261  39.004   2.693
33613W        W95067  21.755  24.602  11.420
33614W        W95068  25.128  37.874   3.730
33615W        W95069  37.982   8.898  13.406
33616W        W95070   2.749  21.719   0.794
33617W        W95071  26.155  28.670   3.689
33618W        W95072  41.297  41.413  14.398
33619W        W95073   6.240  43.923  13.314
33620W        W95074  33.605  40.800   4.638
33621W        W95075  43.880  38.480   1.755
33622W        W95076  20.044  29.577  14.902
33623W        W95077   4.391   7.730  13.426
33624W        W95078   4.403  35.396  10.925
33625W        W95079  37.526  14.298  14.015
33626W        W95080  36.502  43.861   1.231
33627W        W95081   1.266  41.427  11.049
33628W        W95082  27.116  19.555  10.914
33629W        W95083   4.833   1.239   2.676
33630W        W95084  17.624  33.091   2.802
33631W        W95085  35.071  25.980   2.194
33632W        W95086   2.317  31.125   0.340
33633W        W95087  42.802  42.425  11.041
33634W        W95088  11.307   2.911  14.393
33635W        W95089  33.054  15.324  12.036
33636W        W95090   5.366  38.382  12.824
33637W        W95091  27.153  16.617   4.244
33638W        W95092  40.366  20.119  13.876
33639W        W95093  33.083  32.903  14.775
33640W        W95094  29.145  21.043   2.689
33641W        W95095  40.395   5.316   0.449
33642W        W95096  19.226  14.813   9.648
33643W        W95097  36.098  10.325  11.537
33644W        W95098  15.660  26.059   1.904
33645W        W95099   9.394  25.130   5.181
33646W        W95100  11.667  14.166   1.831
33647W        W95101  33.410  41.533   3.857
33648W        W95102  10.211   0.408   3.772
33649W        W95103  25.004  13.680  13.355
33650W        W95104  23.685  18.771   4.696
33651W        W95105   3.717   7.222   0.756
33652W        W95106  16.728   9.702  13.023
33653W        W95107  30.138  44.420  14.310
33654W        W95108  40.472  35.055   5.202
33655W        W95109  11.744   6.204   1.713
33656W        W95110  25.672  38.987   4.811
33657W        W95111  26.078   5.360   0.805
33658W        W95112  43.363  31.601  11.941
33659W        W95113  26.669  28.034   0.479
33660W        W95114  39.355  35.940   3.688
33661W        W95115  19.582  14.696   1.930
33662W        W95116  21.061   4.718   2.777
33663W        W95117  41.041  18.669  13.947
33664W        W95118  31.923  18.600   4.645
33665W        W95119  31.979  24.199   5.233
33666W        W95120  33.616  26.135   4.313
33667W        W95121  18.580   9.195   1.370
33668W        W95122  35.494  40.884   3.636
33669W        W95123  39.320  42.382   3.700
33670W        W95124   0.414  37.832   3.189
33671W        W95125  29.054  39.337  14.874
33672W        W95126   2.312  36.557  13.438
33673W        W95127   2.936  25.636   3.299
33674W        W95128   8.687  29.122  14.849
33675W        W95129   1.386  31.643  14.003
33676W        W95130   7.344  14.308   2.341
33677W        W95131   7.781  36.931   4.716
33678W        W95132  21.042  24.703  13.852
33679W        W95133  16.682   7.909  10.585
33680W        W95134  30.991  11.833  13.833
33681W        W95135  12.782   2.899   0.393
33682W        W95136  21.588  14.629   3.844
33683W        W95137  15.303  38.051   0.369
33684W        W95138   8.677  21.132  12.019
33685W        W95139  13.833  28.576   1.419
33686W        W95140  22.672  37.405  10.047
33687W        W95141  26.528  26.972   4.310
33688W        W95142  27.595  28.072   3.238
33689W        W95143  13.730  20.060  12.937
33690W        W95144  14.701  28.029   4.190
33691W        W95145  20.578  29.948   3.316
33692W        W95146  22.111  15.119   3.370
33693W        W95147  27.460   5.759   3.861
33694W        W95148   5.811  16.593   0.741
33695W        W95149   8.673  28.173   3.344
33696W        W95150   7.865  31.428   2.897
33697W        W95151  24.207  14.657  14.380
33698W        W95152  15.628   6.198   2.772
33699W        W95153   4.312   4.880   4.195
33700W        W95154  18.742  31.097  12.430
33701W        W95155  31.039  28.060   2.812
33702W        W95156  24.095  38.856   0.302
33703W        W95157  23.621  28.662   4.811
33704W        W95158  31.910  37.344  10.447
33705W        W95159   9.171  15.723   1.834
33706W        W95160  34.582  38.532  11.983
33707W        W95161   5.352  33.011   2.193
33708W        W95162   3.392  31.578   3.734
33709W        W95163   4.392   9.323  12.890
33710W        W95164  35.900  42.338   4.703
33711W        W95165  17.602  23.041   0.845
33712W        W95166   0.441   1.741   3.300
33713W        W95167  36.096  44.882   4.795
33714W        W95168  13.197  16.294   0.288
33715W        W95169  39.372  13.178   4.674
33716W        W95170  39.849  29.063   3.702
33717W        W95171  36.982   9.742  13.847
33718W        W95172   0.751   4.808   4.150
33719W        W95173  24.988   3.893   5.778
33720W        W95174  36.990  16.721   4.632
33721W        W95175  10.735   7.911  10.528
33722W        W95176   0.927  14.712   1.212
33723W        W95177  43.303  33.466  14.965
33724W        W95178  42.514  14.146  10.417
33725W        W95179  28.462   5.217   2.378
33726W        W95180  12.707   3.446  14.837
33727W        W95181  30.613  39.521   2.689
33728W        W95182   5.829  38.499  14.925
33729W        W95183   5.926   6.366   3.211
33730W        W95184   3.807   3.929  13.034
33731W        W95185  19.603  17.765  10.943
33732W        W95186   4.321  40.808  12.913
33733W        W95187   1.834  28.569  12.987
33734W        W95188  41.320  18.050   4.740
33735W        W95189  42.504   6.908   4.226
33736W        W95190  17.635   4.907  10.406
33737W        W95191  21.147  30.496   3.366
33738W        W95192   4.352  20.720   2.838
33739W        W95193  38.038  41.322  13.333
33740W        W95194  44.763  16.593   0.416
33741W        W95195  29.453  12.624  12.482
33742W        W95196  23.133   9.674  13.942
33743W        W95197   2.783  15.115   1.367
33744W        W95198  37.955  38.505  12.969
33745W        W95199  12.636  21.604  14.454
33746W        W95200  43.378  25.046   4.131
33747W        W95201  43.293  40.538  12.028
33748W        W95202  27.558  35.547   3.167
33749W        W95203  18.623   4.709   4.656
33750W        W95204  22.606  17.161  10.578
33751W        W95205  44.426  44.827  12.391
33752W        W95206  25.479  15.154  14.840
33753W        W95207  43.939  42.928   4.276
33754W        W95208  18.193  34.900   2.787
33755W        W95209  13.319  33.424  14.800
33756W        W95210  29.993   3.401  10.470
33757W        W95211  17.199  32.466   0.944
33758W        W95212  11.198  20.047  13.326
33759W        W95213  22.043   3.834  10.474
33760W        W95214  20.755  36.929   0.829
33761W        W95215  44.804  17.795  11.455
33762W        W95216  29.485  28.937  11.029
33763W        W95217  32.491  12.202  12.871
33764W        W95218   4.344  44.825  14.764
33765W        W95219  20.674   3.395   1.428
33766W        W95220  40.932  42.896   1.872
33767W        W95221  35.983   1.385   2.852
33768W        W95222  38.513  43.422  10.937
33769W        W95223   4.911  40.398   2.330
33770W        W95224  31.904   9.234  11.437
33771W        W95225   0.828  38.999   5.289
33772W        W95226   7.247  19.759   1.830
33773W        W95227   3.445  38.017  11.601
33774W        W95228  44.381   8.732   4.245
33775W        W95229   4.918  30.608   4.761
33776W        W95230  13.682  27.043  14.319
33777W        W95231  15.228  22.094   3.225
33778W        W95232  27.512   6.856   2.728
33779W        W95233  41.322  40.030   2.769
33780W        W95234  37.858  16.585  11.967
33781W        W95235  19.249  42.874   4.676
33782W        W95236   6.829  19.628  10.437
33783W        W95237  43.790  43.018   0.251
33784W        W95238  22.679  32.589  11.067
33785W        W95239   0.318  17.565   0.798
33786W        W95240  35.358  12.164   0.344
33787W        W95241   2.783  14.682   0.420
33788W        W95242   7.260   6.211   4.137
33789W        W95243  27.588  31.580  14.822
33790W        W95244  11.727  23.650  13.448
33791W        W95245   3.756   7.704   3.239
33792W        W95246  38.054  24.722  14.985
33793W        W95247  33.540   3.879  13.819
33794W        W95248  23.043   7.417  13.958
33795W        W95249  11.725  22.672  13.901
33796W        W95250  10.832   3.917  12.961
33797W        W95251  26.579  28.958   3.252
33798W        W95252  30.923  29.512  11.539
33799W        W95253  39.481  10.170   4.321
33800W        W95254  39.441  15.088  12.399
33801W        W95255  10.845  37.525  11.936
33802W        W95256  24.147  30.910   4.239
33803W        W95257   7.273   1.373  11.056
33804W        W95258  20.755   5.694   2.733
33805W        W95259  18.242  41.877   2.248
33806W        W95260  14.687  43.318   5.301
33807W        W95261   9.775  26.469   1.306
33808W        W95262   3.340  44.868  11.507
33809W        W95263   3.279  16.804   4.180
33810W        W95264   0.865  11.175  11.382
33811W        W95265   9.223  11.355  12.021
33812W        W95266  10.832  15.149  13.331
33813W        W95267  28.170  25.616  11.380
33814W        W95268   2.423  34.539   3.772
33815W        W95269   5.330  18.153  14.493
33816W        W95270   7.329  44.819   2.680
33817W        W95271  24.712  28.542   0.364
33818W        W95272  12.788  31.457   1.877
33819W        W95273  44.781  39.317  12.876
33820W        W95274   9.674  27.080   4.712
33821W        W95275  43.858   7.300  13.981
33822W        W95276  11.346  35.090   3.234
33823W        W95277   1.393  18.773  14.819
33824W        W95278  25.477  23.671   2.757
33825W        W95279  37.361  21.243  11.873
33826W        W95280   2.441  10.234   4.814
33827W        W95281  18.644  40.455  12.050
33828W        W95282  32.588  12.810   4.784
33829W        W95283  32.906  37.033   1.378
33830W        W95284  36.565   3.865  12.029
33831W        W95285  35.458  24.555   1.725
33832W        W95286  22.626  37.848  14.019
33833W        W95287   1.453   2.950   3.829
33834W        W95288   1.349  18.063  12.913
33835W        W95289  18.556  10.281   0.879
33836W        W95290  38.565  38.554  13.415
33837W        W95291   8.721  11.743   1.318
33838W        W95292  37.019  14.285   3.773
33839W        W95293  33.103  28.555  10.531
33840W        W95294  26.959  36.949   3.648
33841W        W95295  24.628  14.233  14.453
33842W        W95296  19.665  24.486   3.732
33843W        W95297  38.532  37.984   4.300
33844W        W95298  35.452  13.819  10.562
33845W        W95299  15.282   3.802  11.871
33846W        W95300  16.211   1.290   0.731
33847W        W95301  35.392  19.684  12.022
33848W        W95302  20.269  21.577  13.034
33849W        W95303   5.905  42.798   0.837
33850W        W95304  24.672   4.789   4.237
33851W        W95305  43.365  42.809   0.762
33852W        W95306  17.198   0.252   4.603
33853W        W95307  31.508  14.238  11.108
33854W        W95308  39.876  30.029  10.512
33855W        W95309   9.277  36.970  12.072
33856W        W95310   3.270  28.026   0.899
33857W        W95311  32.636  36.464  12.047
33858W        W95312  30.583  18.100   1.308
33859W        W95313  10.284  38.999   0.336
33860W        W95314  12.331  35.047  13.975
33861W        W95315  12.812  17.565   4.755
33862W        W95316  34.488  37.462  12.084
33863W        W95317   0.925   1.343  12.428
33864W        W95318  17.742  39.468   1.749
33865W        W95319  10.855  16.593  13.050
33866W        W95320  35.515  41.407  11.910
33867W        W95321  23.543  17.617   3.371
33868W        W95322  13.163  43.463   9.980
33869W        W95323  22.047   0.923  10.888
33870W        W95324   4.826  14.636  12.899
33871W        W95325  10.139  11.642   0.907
33872W        W95326  26.050   5.770  11.937
33873W        W95327  16.240  14.669   2.813
33874W        W95328  26.536  14.673  13.462
33875W        W95329  44.489   5.750   2.721
33876W        W95330  39.812   3.895   4.127
33877W        W95331  15.202   6.198   3.850
33878W        W95332  24.704  12.125   2.813
33879W        W95333  37.846  40.011   1.715
33880W        W95334  13.327  19.581  14.988
33881W        W95335  23.593  17.621  13.804
33882W        W95336  30.065   1.968   2.801
33883W        W95337  41.807  43.271   3.266
33884W        W95338  42.926  20.155  11.580
33885W        W95339  36.054  42.440   2.288
33886W        W95340  37.338  21.545  13.451
33887W        W95341  22.636  32.957   3.741
33888W        W95342   0.324  16.792   0.808
33889W        W95343  24.122  37.040  10.406
33890W        W95344  44.501  18.614   5.320
33891W        W95345   7.203  38.986  14.931
33892W        W95346   4.445  11.678  14.361
33893W        W95347  36.362  17.275   0.810
33894W        W95348  28.542  16.105   3.666
33895W        W95349  12.717  20.737  12.889
33896W        W95350  27.642  19.154  12.905
33897W        W95351  10.736   6.921  11.072
33898W        W95352  43.458  40.534  14.854
33899W        W95353  29.981  24.698   2.785
33900W        W95354  18.760   3.771   4.633
33901W        W95355  35.421   4.715   1.225
33902W        W95356   2.767  20.652  11.978
33903W        W95357   7.355  29.601  12.464
33904W        W95358  30.589  25.602  13.343
33905W        W95359   9.757   4.436  10.541
33906W        W95360  28.999  40.896   1.813
33907W        W95361  34.541  15.130  10.895
33908W        W95362  15.244  21.580   0.381
33909W        W95363  44.828  39.429   4.167
33910W        W95364  30.599  20.082  11.391
33911W        W95365   2.805  28.010  14.914
33912W        W95366  12.189  13.346   3.218
33913W        W95367  35.565  22.228  12.575
33914W        W95368  39.828  22.636  10.925
33915W        W95369  18.680  18.296  12.431
33916W        W95370  16.683  24.096   2.215
33917W        W95371   9.881  34.119  14.406
33918W        W95372  12.691   4.395  14.309
33919W        W95373   0.251  28.627  12.572
33920W        W95374  41.035   6.816  11.433
33921W        W95375  40.008  39.840  14.872
33922W        W95376  33.922  35.539  13.401
33923W        W95377  10.190   0.405  10.589
33924W        W95378  41.384  27.946   2.696
33925W        W95379  14.189   2.311  14.374
33926W        W95380  22.143  42.851   4.350
33927W        W95381   4.379  14.286  10.438
33928W        W95382  18.570  23.187  12.462
33929W        W95383  19.747  17.651  13.415
33930W        W95384  39.446  34.600   4.642
33931W        W95385  16.110  24.116   0.430
33932W        W95386  14.308  25.146   4.826
33933W        W95387  25.651  20.676  11.948
33934W        W95388   6.289  25.697   4.204
33935W        W95389  42.976  36.500   4.639
33936W        W95390   4.730  10.378   2.834
33937W        W95391  13.162  27.551  14.031
33938W        W95392  12.329   9.724   3.181
33939W        W95393  28.996  13.334  13.934
33940W        W95394   7.388   5.357  12.368
33941W        W95395  39.397  24.671  13.997
33942W        W95396  28.104   9.217   4.799
33943W        W95397  40.052  24.635   2.315
33944W        W95398  23.724   1.270  13.376
33945W        W95399  44.306  11.284   0.442
33946W        W95400  35.074   1.933  13.377
33947W        W95401  40.410  38.951   0.952
33948W        W95402  29.932   6.239  12.456
33949W        W95403  25.631   9.671   1.931
33950W        W95404  40.003   2.932  13.512
33951W        W95405  14.738  38.982   2.400
33952W        W95406   5.922  14.719   3.732
33953W        W95407  31.015  23.158   2.219
33954W        W95408   9.247   0.384   0.401
33955W        W95409   7.233  42.986  13.366
33956W        W95410   9.825   8.211   3.278
33957W        W95411   4.259  39.838  11.078
33958W        W95412  41.983  39.529   2.711
33959W        W95413  20.581  21.737  13.984
33960W        W95414  29.641   4.213   5.227
33961W        W95415   3.919  16.288  11.861
33962W        W95416   1.965  30.957  14.996
33963W        W95417  38.901  30.129   3.829
33964W        W95418  24.487  41.898   4.132
33965W        W95419  25.111   2.791   3.274
33966W        W95420  17.100  39.324   0.829
33967W        W95421  18.680  24.149  13.503
33968W        W95422  15.664  28.182   1.716
33969W        W95423  42.968  18.283   3.157
33970W        W95424  37.921   3.218  13.480
33971W        W95425   8.233  17.719  13.061
33972W        W95426  39.558  16.639   1.299
33973W        W95427  17.063  36.006  14.803
33974W        W95428  42.894   2.242  10.507
33975W        W95429  16.126   8.762   2.417
33976W        W95430   3.334  17.634  14.019
33977W        W95431  23.695  10.301  13.819
33978W        W95432  20.067   6.788   1.370
33979W        W95433  38.075  24.225   3.676
33980W        W95434  25.625  29.589   1.328
33981W        W95435   1.917  37.890  10.408
33982W        W95436  10.746  42.479   0.750
33983W        W95437  20.581  15.695   2.270
33984W        W95438  35.388  37.480   0.479
33985W        W95439   9.750  42.473   4.239
33986W        W95440  11.741   0.288   4.225
33987W        W95441  41.456  39.923  13.808
33988W        W95442   7.744  27.650   2.880
33989W        W95443   3.357  30.657  11.493
33990W        W95444  14.136  23.516  13.880
33991W        W95445  28.046  19.610   3.631
33992W        W95446  38.973   3.955   0.255
33993W        W95447  30.963   5.249   9.495
33994W        W95448   2.783  36.893   0.358
33995W        W95449   5.433   2.799   2.313
33996W        W95450   2.947  41.312   3.690
33997W        W95451   5.197  11.678   1.267
33998W        W95452  32.891   2.813   2.372
33999W        W95453  38.384  15.134   3.796
34000W        W95454   5.255  14.738  12.018
34001W        W95455  36.892  24.577  11.898
34002W        W95456  37.001  39.830  11.396
34003W        W95457  26.646  14.229  10.146
34004W        W95458  14.750  23.563   1.726
34005W        W95459  41.788  33.021   2.253
34006W        W95460  31.439  40.445  11.440
34007W        W95461   4.299   5.705  11.018
34008W        W95462  10.274  34.024  10.974
34009W        W95463  24.589   6.240  14.497
34010W        W95464  20.668  28.533  14.845
34011W        W95465   7.250  10.311  14.767
34012W        W95466  36.401  38.533   4.706
34013W        W95467  34.414  41.361  12.361
34014W        W95468  14.105  32.453  12.913
34015W        W95469  26.567  34.408   0.939
34016W        W95470  15.163  36.090   3.783
34017W        W95471   2.728  19.674  11.380
34018W        W95472   0.800  40.891  12.468
34019W        W95473  25.986  29.069   1.801
34020W        W95474  24.146  11.189   0.923
34021W        W95475   0.374  18.753   2.812
34022W        W95476  44.434  37.973  11.601
34023W        W95477  21.098  20.232   0.436
34024W        W95478  34.112  16.701  12.930
34025W        W95479   4.751  38.851  12.419
34026W        W95480  25.586  29.490  11.613
34027W        W95481  25.045  25.547  12.398
34028W        W95482  19.087  15.089  12.945
34029W        W95483  17.177  34.108  10.613
34030W        W95484  16.231   0.915   0.797
34031W        W95485  44.474  18.738   1.306
34032W        W95486   6.220  21.148  12.444
34033W        W95487   0.759  31.588  14.894
34034W        W95488  15.203  16.272  13.350
34035W        W95489   3.913  41.473   2.292
34036W        W95490  28.671   4.263  13.805
34037W        W95491  31.063  42.971   0.767
34038W        W95492  28.605   1.936   3.178
34039W        W95493  36.919  18.197   0.291
34040W        W95494  13.306  35.946  13.511
34041W        W95495  17.662  33.604   2.304
34042W        W95496  13.346  23.129  13.917
34043W        W95497  16.311  18.062  13.804
34044W        W95498  35.514  13.172   1.418
34045W        W95499  15.577  13.781   4.701
34046W        W95500  22.252  44.447   4.217
34047W        W95501  20.628  19.754   0.737
34048W        W95502  19.644  35.454  14.887
34049W        W95503  40.387  31.441   2.763
34050W        W95504  16.293  23.161  11.545
34051W        W95505   3.309  31.129  13.884
34052W        W95506  42.934  36.925   1.239
34053W        W95507  41.895  33.608   3.670
34054W        W95508   5.856  10.170  13.967
34055W        W95509   5.721  43.331   3.858
34056W        W95510  10.328  37.376   0.453
34057W        W95511  29.972  16.636  13.328
34058W        W95512  26.972  36.560  13.427
34059W        W95513  25.189   6.330  11.426
34060W        W95514  39.933  25.523  12.402
34061W        W95515  15.773  39.370  12.519
34062W        W95516  16.140  15.792  11.988
34063W        W95517  36.377  39.983  14.938
34064W        W95518  11.290  42.967  14.498
34065W        W95519   8.336  17.095  13.878
34066W        W95520  13.148   2.845  11.571
34067W        W95521  33.124  11.764  12.960
34068W        W95522  16.784  21.045   2.204
34069W        W95523  11.843  44.460  11.376
34070W        W95524   1.276  44.396   1.895
34071W        W95525   3.296  17.212  11.881
34072W        W95526   0.382   7.393  13.013
34073W        W95527   6.811  28.657   0.261
34074W        W95528  42.017  21.537  14.983
34075W        W95529  37.513   4.729  11.997
34076W        W95530   7.411  36.934  13.998
34077W        W95531  16.107  16.738   4.129
34078W        W95532  31.915  11.358   3.276
34079W        W95533  23.020   5.278   0.389
34080W        W95534  39.540  44.824   2.356
34081W        W95535  38.043  19.165  14.806
34082W        W95536  19.667  40.923   0.253
34083W        W95537   8.167  12.689   3.197
34084W        W95538  43.460   5.785  13.477
34085W        W95539  34.512  27.601  10.528
34086W        W95540  42.459   6.381  13.986
34087W        W95541  26.479  34.492  12.531
34088W        W95542   6.336   2.960   1.330
34089W        W95543  20.029   6.758   4.823
34090W        W95544  42.487  17.597   2.362
34091W        W95545   2.347  37.513   3.756
34092W        W95546   0.850   5.377   1.725
34093W        W95547  15.602  20.263   3.152
34094W        W95548   2.858  14.301  13.831
34095W        W95549  11.199  38.834  11.081
34096W        W95550  10.233  43.833  12.465
34097W        W95551   7.843  24.018  10.919
34098W        W95552  42.806   6.712   1.832
34099W        W95553  22.734   7.284   1.863
34100W        W95554  15.247   3.262   1.845
34101W        W95555  37.028  35.873   2.310
34102W        W95556  39.949  35.095   4.601
34103W        W95557  20.625  12.779  13.462
34104W        W95558  42.383  42.469  12.908
34105W        W95559   6.223  10.702  11.054
34106W        W95560  35.012   3.390   0.876
34107W        W95561  39.896  10.679  12.346
34108W        W95562  42.893  25.635  11.126
34109W        W95563  12.210  33.619  13.447
34110W        W95564   4.873  30.628   1.830
34111W        W95565  43.786  25.062   2.903
34112W        W95566  38.350  27.613   1.302
34113W        W95567  42.783   8.303  11.930
34114W        W95568  19.635  11.371   4.330
34115W        W95569  41.863  20.643   3.834
34116W        W95570  27.671   9.339  11.612
34117W        W95571  32.527   1.395  12.902
34118W        W95572  34.609  25.603   3.226
34119W        W95573   1.257  20.640  11.421
34120W        W95574  40.477  36.430   1.712
34121W        W95575  17.659  25.642   1.919
34122W        W95576  35.859   3.241  11.413
34123W        W95577  28.116  42.927  14.944
34124W        W95578   3.717  39.825  11.873
34125W        W95579   3.314  15.191  13.954
34126W        W95580  15.257   9.887  10.896
34127W        W95581  32.914  12.697   3.235
34128W        W95582  22.582   4.343   2.721
34129W        W95583  18.639  29.932   4.293
34130W        W95584  42.865  12.257  10.937
34131W        W95585  12.702  10.794   0.855
34132W        W95586  18.693  38.500  14.812
34133W        W95587   5.409  34.067   1.856
34134W        W95588  26.466  34.610  11.915
34135W        W95589   7.839  29.599   2.900
34136W        W95590  43.878  29.527   1.385
34137W        W95591  14.808  17.731  11.901
34138W        W95592   9.687  43.886  14.028
34139W        W95593   3.794  15.693  11.987
34140W        W95594  17.656  15.278  13.508
34141W        W95595  34.909  21.076  11.054
34142W        W95596  10.189  28.667  14.916
34143W        W95597  18.737   5.266   3.685
34144W        W95598  36.350  13.727  14.873
34145W        W95599  15.733  23.663  11.921
34146W        W95600   8.842   3.760   4.793
34147W        W95601  43.008  43.773   0.792
34148W        W95602  18.208   8.788  10.505
34149W        W95603  36.917  42.978  12.973
34150W        W95604  12.356   3.788  11.563
34151W        W95605  35.010  38.536  13.456
34152W        W95606  14.765  44.394  12.393
34153W        W95607  38.031  18.628  14.801
34154W        W95608  13.134  43.400   0.808
34155W        W95609  27.998  31.071   0.738
34156W        W95610  37.375   8.686  11.375
34157W        W95611  38.849  30.999  10.604
34158W        W95612  24.611  26.966   0.904
34159W        W95613  38.350  23.604  13.357
34160W        W95614  39.812  42.817  10.551
34161W        W95615  15.083  17.125   1.319
34162W        W95616  42.497   0.864   1.367
34163W        W95617  19.208   6.303  10.466
34164W        W95618   2.386   3.242  11.609
34165W        W95619  25.219  16.171  14.867
34166W        W95620  21.048  40.846  11.983
34167W        W95621  17.716  24.647   4.130
34168W        W95622   6.822   0.986  13.035
34169W        W95623  30.632  27.687   1.747
34170W        W95624  19.087  10.766   2.899
34171W        W95625  38.865  24.663   0.439
34172W        W95626  43.918  33.110  14.282
34173W        W95627  22.152  12.643   1.355
34174W        W95628  37.928  29.448  14.483
34175W        W95629  36.862  20.130  14.474
34176W        W95630  28.034  33.514   3.200
34177W        W95631  24.524  22.218   2.350
34178W        W95632   0.335  35.980  12.550
34179W        W95633  13.833  29.579  13.910
34180W        W95634  15.153   4.426  12.349
34181W        W95635  42.411  31.633   2.776
34182W        W95636  21.205  15.592   1.423
34183W        W95637   7.871  40.483   3.154
34184W        W95638  33.564   1.850  13.031
34185W        W95639  44.327  14.679  13.427
34186W        W95640  35.992   2.345   1.333
34187W        W95641  11.684  31.603  14.426
34188W        W95642  34.390  27.118  12.980
34189W        W95643   0.942  12.618  10.916
34190W        W95644  35.595  14.297   0.866
34191W        W95645  11.781  37.419   1.694
34192W        W95646  15.793  12.289  14.946
34193W        W95647  38.353   1.736  11.542
34194W        W95648  12.324  29.491  13.845
34195W        W95649  17.182  28.647   4.170
34196W        W95650   6.261   3.943  14.818
34197W        W95651  39.987  40.340   3.186
34198W        W95652   3.826  22.192   0.903
34199W        W95653  31.012  25.088   3.384
34200W        W95654  39.901  23.069  11.044
34201W        W95655  29.454  27.009   3.806
34202W        W95656  38.363  41.897  14.426
34203W        W95657  24.506  23.162   0.802
34204W        W95658  42.418  29.993  11.918
34205W        W95659  35.423  29.502  12.388
34206W        W95660  26.476  29.614   2.794
34207W        W95661  29.166   5.308   0.309
34208W        W95662  40.365  26.557  14.514
34209W        W95663   2.878   5.802   1.318
34210W        W95664  31.055   4.407   9.565
34211W        W95665  17.089  28.493   4.626
34212W        W95666  20.544  12.699   2.249
34213W        W95667   0.808   0.834  10.935
34214W        W95668  39.966  10.727   3.343
34215W        W95669   7.285  33.563   4.837
34216W        W95670   2.332   9.804   4.601
34217W        W95671  43.912  34.038   3.279
34218W        W95672  29.973   7.416  13.546
34219W        W95673  36.059  23.542   2.338
34220W        W95674  33.596   9.679   4.616
34221W        W95675   7.774   9.713   1.313
34222W        W95676  43.837  30.012   3.849
34223W        W95677  25.583  18.638   1.900
34224W        W95678  27.636  44.866  11.958
34225W        W95679  20.241  10.708  12.353
34226W        W95680  40.897  13.246   3.180
34227W        W95681  41.019  10.677  12.576
34228W        W95682  44.778  20.543   4.327
34229W        W95683  27.080  34.866   4.319
34230W        W95684   1.370  35.933   2.364
34231W        W95685  33.614  25.214   4.191
34232W        W95686   7.203  39.873   2.801
34233W        W95687  26.205  35.086   4.624
34234W        W95688  13.167  32.634   2.786
34235W        W95689  44.368  42.324  13.439
34236W        W95690   6.344  21.554  14.398
34237W        W95691   2.266   0.925   1.886
34238W        W95692  36.477  30.573   2.373
34239W        W95693  10.750  24.008   4.828
34240W        W95694  39.365  44.999  14.764
34241W        W95695  41.802  15.137  12.444
34242W        W95696  21.128   0.355   3.351
34243W        W95697  42.524  18.194   2.392
34244W        W95698   6.351  23.631  10.930
34245W        W95699   4.275  43.297   2.693
34246W        W95700  13.689  44.325  14.819
34247W        W95701  26.507  35.532  14.828
34248W        W95702  18.083  15.137  11.904
34249W        W95703  26.701  20.624   1.727
34250W        W95704  40.827  13.294  12.446
34251W        W95705  44.848  26.520  14.889
34252W        W95706  12.751   2.802  12.474
34253W        W95707   2.311  21.192  11.371
34254W        W95708  34.455  14.808  10.968
34255W        W95709  29.967  20.156   4.162
34256W        W95710  11.723  22.626   3.365
34257W        W95711  16.292  11.299  13.836
34258W        W95712   0.301  28.017  10.516
34259W        W95713  20.524  26.530  10.909
34260W        W95714  17.197   1.938   5.273
34261W        W95715   3.423  42.412  12.958
34262W        W95716  33.098  27.607  11.062
34263W        W95717  25.577  26.516  14.978
34264W        W95718   1.254  10.227   3.719
34265W        W95719  21.105  20.221  14.976
34266W        W95720  22.236  26.960  12.065
34267W        W95721   1.760   1.842  12.456
34268W        W95722   2.743  37.036  12.067
34269W        W95723  36.458  35.593   2.417
34270W        W95724  38.958  31.468  13.466
34271W        W95725  35.460  34.411  13.524
34272W        W95726  26.473  42.453  10.997
34273W        W95727   8.224   9.704   4.684
34274W        W95728  42.929  34.933   0.267
34275W        W95729  13.335  26.628  12.356
34276W        W95730  41.991  16.173   1.725
34277W        W95731  41.041  10.648   3.637
34278W        W95732  20.701  10.685   3.838
34279W        W95733  12.623  42.363   1.698
34280W        W95734  38.994  11.641   3.337
34281W        W95735   0.405  27.534   2.770
34282W        W95736   6.713   1.371  11.003
34283W        W95737   9.686   0.768   4.293
34284W        W95738  12.124  12.745   0.927
34285W        W95739  44.968   8.720   0.423
34286W        W95740   4.346  30.986  14.767
34287W        W95741  31.947  37.012   4.269
34288W        W95742  11.234  12.231   3.359
34289W        W95743   9.753  33.922   3.251
34290W        W95744   0.924  34.540   2.394
34291W        W95745  15.087   9.206  10.444
34292W        W95746  13.238  10.749   3.822
34293W        W95747  38.938  11.665  11.861
34294W        W95748  23.147  13.172   1.425
34295W        W95749  20.101  41.429   1.299
34296W        W95750  36.474  25.697  10.511
34297W        W95751  36.042  34.013   0.727
34298W        W95752   3.270  22.167  12.393
34299W        W95753  16.257  21.609  14.495
34300W        W95754   0.831  43.007   0.924
34301W        W95755  34.589  34.601   4.181
34302W        W95756  24.028   5.730  11.613
34303W        W95757  26.626   6.237  12.548
34304W        W95758  38.024  43.019  12.827
34305W        W95759   0.747  19.623  11.519
34306W        W95760  10.781  11.280  13.918
34307W        W95761   2.303  18.071   2.348
34308W        W95762   6.415  37.448   2.883
34309W        W95763  35.585   3.447   0.379
34310W        W95764  28.056  13.292  14.886
34311W        W95765  14.713   9.726  10.626
34312W        W95766  11.804  33.008  12.031
34313W        W95767  41.993  35.085   1.237
34314W        W95768  20.067  21.518   1.763
34315W        W95769   1.881   3.281   3.153
34316W        W95770  13.845  21.152   1.321
34317W        W95771  17.780   5.905  11.080
34318W        W95772  14.778  27.125  14.831
34319W        W95773  41.314  33.602  12.394
34320W        W95774  42.508  30.638  12.828
34321W        W95775  34.575  36.944   3.347
34322W        W95776  15.240  34.925  13.811
34323W        W95777  17.635  36.465   0.461
34324W        W95778  39.364   3.350  12.357
34325W        W95779  15.222  14.631  11.968
34326W        W95780  36.935  43.303   1.834
34327W        W95781  31.103  41.379  14.315
34328W        W95782   1.393   5.807  13.357
34329W        W95783   4.816  44.861   0.262
34330W        W95784  43.979  34.992   2.274
34331W        W95785  13.148  39.534  13.047
34332W        W95786  43.816   1.418   1.891
34333W        W95787  15.696  34.120   1.277
34334W        W95788  38.894   4.743   3.326
34335W        W95789  15.300   4.739   3.762
34336W        W95790  10.659  25.526   3.780
34337W        W95791   7.728  18.231  13.860
34338W        W95792   3.878  32.070   2.188
34339W        W95793   5.195  10.179   4.139
34340W        W95794  42.358  25.135  11.907
34341W        W95795  22.070  21.624  12.415
34342W        W95796  35.481  19.152  14.417
34343W        W95797  13.664   2.802   2.236
34344W        W95798  31.074   5.252  14.290
34345W        W95799  28.468  31.088   0.939
34346W        W95800   6.229  38.428  13.808
34347W        W95801  13.166  21.072   2.826
34348W        W95802   4.303  22.679   4.801
34349W        W95803  36.035  34.078  14.765
34350W        W95804  37.443  37.541  14.831
34351W        W95805  44.818  14.795  11.998
34352W        W95806   0.897   3.915  13.438
34353W        W95807  12.250  39.410   3.682
34354W        W95808  16.599   5.268   0.477
34355W        W95809  29.511  39.917  13.473
34356W        W95810  35.588  43.373   4.249
34357W        W95811  34.995   5.429   1.931
34358W        W95812  26.591  14.789  11.477
34359W        W95813   6.798  40.478  13.420
34360W        W95814  29.518  27.450  13.819
34361W        W95815  18.771  21.550  10.448
34362W        W95816   0.254  44.002   1.828
34363W        W95817  32.112  41.534  12.385
34364W        W95818  25.183  18.053   2.811
34365W        W95819  38.841  34.477   4.719
34366W        W95820  16.293  28.953  14.472
34367W        W95821  39.969  13.708   1.439
34368W        W95822  41.343  44.349  10.491
34369W        W95823  16.597  24.570  11.428
34370W        W95824  33.396  43.807  10.511
34371W        W95825  34.945  22.035   0.348
34372W        W95826  39.390  37.967  12.343
34373W        W95827  40.334  21.239   2.213
34374W        W95828  34.374  40.504  10.543
34375W        W95829  44.846  34.963  10.495
34376W        W95830  38.546  43.424  13.876
34377W        W95831   4.242  11.651  12.021
34378W        W95832  28.136  37.341  10.574
34379W        W95833  37.418  43.450  11.453
34380W        W95834  37.956  44.335   1.785
34381W        W95835  13.114  12.136  13.385
34382W        W95836   7.813   2.314   1.366
34383W        W95837  20.581  33.009   3.374
34384W        W95838  32.545  23.610  13.798
34385W        W95839   0.847   5.336   2.186
34386W        W95840  14.191  44.355   1.441
34387W        W95841  31.526  28.931   1.713
34388W        W95842   7.188  22.644  12.578
34389W        W95843  12.829   5.708   1.301
34390W        W95844  30.004  13.151   2.839
34391W        W95845  32.897  29.459   1.834
34392W        W95846  26.978  41.478  12.041
34393W        W95847  12.267   8.870  11.966
34394W        W95848  22.560  27.491   4.196
34395W        W95849  37.401  33.908  11.441
34396W        W95850   1.313  36.520   2.377
34397W        W95851   8.837  32.991   3.869
34398W        W95852  42.398  42.522   1.811
34399W        W95853  13.814  25.510   2.235
34400W        W95854   1.910  25.623  13.455
34401W        W95855  22.064   4.698   0.776
34402W        W95856  26.694   6.705  11.939
34403W        W95857  26.530  29.998   1.224
34404W        W95858  34.053  21.712  12.483
34405W        W95859  24.119  44.891  13.056
34406W        W95860  38.873  23.991  12.372
34407W        W95861  26.490  25.076  12.968
34408W        W95862  37.846  16.137   4.817
34409W        W95863  18.232  21.586  14.870
34410W        W95864  24.675  15.187   0.852
34411W        W95865  26.508  29.962   2.368
34412W        W95866  23.118   9.232   2.697
34413W        W95867   6.354  25.593  10.900
34414W        W95868  23.112  42.474  13.917
34415W        W95869  30.972  43.475  12.909
34416W        W95870  17.150  38.448  11.518
34417W        W95871  30.642  25.077  11.526
34418W        W95872  18.693  18.111   2.260
34419W        W95873   1.942  18.591  13.333
34420W        W95874  31.915  41.319  13.808
34421W        W95875   2.860  37.872   2.200
34422W        W95876  20.688  18.188   0.849
34423W        W95877   0.931  17.241   1.431
34424W        W95878   9.253  11.642  12.470
34425W        W95879  13.176  29.569  10.639
34426W        W95880  14.632  37.876  14.873
34427W        W95881  11.848   7.876   3.661
34428W        W95882  41.533  23.109   1.716
34429W        W95883   3.766   6.764  11.084
34430W        W95884  21.666  28.115  11.094
34431W        W95885  10.717  12.788   3.212
34432W        W95886  19.243  17.209  11.965
34433W        W95887  40.474  19.621   5.191
34434W        W95888  33.484  27.979   2.665
34435W        W95889  27.496  36.367   2.699
34436W        W95890   4.860   2.387   0.912
34437W        W95891  42.892  18.206  10.573
34438W        W95892  11.141   3.321   1.335
34439W        W95893  14.616  41.399   3.851
34440W        W95894  22.214   3.897  10.936
34441W        W95895  33.043  24.594   2.809
34442W        W95896   9.191  32.537  12.559
34443W        W95897  12.300  27.674  12.365
34444W        W95898  35.410  33.073  11.375
34445W        W95899   6.212  17.306   5.289
34446W        W95900   5.332  40.430  10.912
34447W        W95901  33.579  40.353  13.404
34448W        W95902  21.207   3.405   1.726
34449W        W95903  29.076   6.401   3.773
34450W        W95904  19.197  28.638  10.972
34451W        W95905  30.147   0.268   1.831
34452W        W95906  24.041   4.714  14.939
34453W        W95907  27.020  27.621  12.885
34454W        W95908  32.895  32.096  14.372
34455W        W95909  20.735  24.666  10.527
34456W        W95910  29.607  27.575  12.003
34457W        W95911   5.734  23.182   4.205
34458W        W95912  37.019   0.332  13.349
34459W        W95913  40.956  40.828   4.830
34460W        W95914   4.935  15.264  13.797
34461W        W95915  31.537  16.280   3.366
34462W        W95916   7.299   4.387   2.194
34463W        W95917  24.518  44.844  10.633
34464W        W95918  10.313   0.301  13.491
34465W        W95919  30.079  23.536   2.847
34466W        W95920   8.700  16.690  13.433
34467W        W95921  12.288  38.943   2.824
34468W        W95922  18.237  12.198   1.758
34469W        W95923  32.555   9.286  12.894
34470W        W95924  22.050   8.804   5.629
34471W        W95925   2.900  23.073  12.063
34472W        W95926  40.308   2.946  12.448
34473W        W95927  42.402   5.325  12.397
34474W        W95928  21.231  31.153  11.431
34475W        W95929  10.266   9.266  14.938
34476W        W95930  36.535  33.934  14.910
34477W        W95931  23.990  44.469  12.021
34478W        W95932   5.694  33.991   1.260
34479W        W95933  42.922   8.387   1.358
34480W        W95934  25.677   1.466   0.465
34481W        W95935   5.401  15.780   2.256
34482W        W95936   3.452  12.287  11.440
34483W        W95937   5.274  30.925   2.407
34484W        W95938  14.212  37.441  10.467
34485W        W95939  39.990  27.689   4.817
34486W        W95940  24.132  19.722   2.823
34487W        W95941  44.781  36.490   3.324
34488W        W95942   7.808  12.692   3.291
34489W        W95943   1.313  18.061  13.793
34490W        W95944  38.481  36.515   2.213
34491W        W95945  24.687   9.380   1.319
34492W        W95946  26.605   1.429  11.869
34493W        W95947  29.601  43.943  11.943
34494W        W95948  32.505   5.276  12.403
34495W        W95949  12.838  25.075   2.810
34496W        W95950  21.145  43.837   0.907
34497W        W95951  27.992  29.427   2.302
34498W        W95952  21.646  21.020   3.355
34499W        W95953  10.258   7.899   0.381
34500W        W95954  44.804   4.932  12.380
34501W        W95955  10.346  34.544   0.310
34502W        W95956   1.370  39.961  10.506
34503W        W95957   7.325  31.638   3.177
34504W        W95958  16.773   1.832   1.372
34505W        W95959  36.395  28.939  13.399
34506W        W95960  43.444   5.760   4.193
34507W        W95961  33.903  13.303  11.106
34508W        W95962  12.804  22.506   2.200
34509W        W95963  27.072  19.155  13.447
34510W        W95964  12.674  32.905   3.207
34511W        W95965  15.273   5.915  14.496
34512W        W95966  11.727  27.532  13.546
34513W        W95967  14.639  21.241  11.119
34514W        W95968   4.769  22.556  13.472
34515W        W95969  44.769   1.965   3.754
34516W        W95970  21.716   2.403   4.242
34517W        W95971  11.785   5.389   2.872
34518W        W95972   0.987  30.144   2.362
34519W        W95973  16.591  36.066   3.644
34520W        W95974  39.429  38.505   2.735
34521W        W95975  39.449  31.112   4.655
34522W        W95976  28.591  25.993   3.257
34523W        W95977  28.639   2.865   2.345
34524W        W95978  40.311  39.810  13.501
34525W        W95979  26.195  20.137   4.211
34526W        W95980  16.576  23.685  11.608
34527W        W95981  41.829  18.714   2.247
34528W        W95982  15.634  37.383  11.515
34529W        W95983  35.518  17.777  10.927
34530W        W95984   8.298   6.880  12.525
34531W        W95985  25.144  14.806  11.505
34532W        W95986  41.790  35.887  11.938
34533W        W95987  13.187   9.225   1.349
34534W        W95988  26.158   2.770   1.737
34535W        W95989  17.178   4.808   2.782
34536W        W95990  24.493   2.952   1.899
34537W        W95991  21.658   9.378   5.310
34538W        W95992   5.257  38.495  10.578
34539W        W95993  22.137  25.036  12.531
34540W        W95994   8.830   3.871  12.352
34541W        W95995  33.475  22.534  14.767
34542W        W95996  25.053  28.167   4.289
34543W        W95997   5.418  43.855   1.825
34544W        W95998  31.144  42.948  13.334
34545W        W95999  10.328  21.241  12.066
34546W        W96000  18.751  21.754   2.791
34547W        W96001   8.771  24.058  12.835
34548W        W96002  29.471   5.879   0.249
34549W        W96003  17.716  12.252  14.936
34550W        W96004  14.201  23.018   3.815
34551W        W96005  44.774   5.271  12.891
34552W        W96006  29.572  43.006  14.444
34553W        W96007  38.969  44.882   4.310
34554W        W96008  22.615  37.051   0.297
34555W        W96009  44.787  32.089   3.814
34556W        W96010  25.498  14.312   0.837
34557W        W96011  31.942   2.790  12.526
34558W        W96012  16.310  40.520   3.667
34559W        W96013   0.919   0.976  14.507
34560W        W96014  17.721   1.334   0.320
34561W        W96015  34.488  25.060   3.360
34562W        W96016  37.841   8.200  11.899
34563W        W96017  36.400   8.694  13.802
34564W        W96018  24.059  23.193   1.910
34565W        W96019  19.271   2.331  12.973
34566W        W96020  38.520   8.375  10.887
34567W        W96021   3.405   8.339   2.418
34568W        W96022  25.644  33.112  12.576
34569W        W96023  11.634  22.612  11.061
34570W        W96024  25.965  44.933   0.900
34571W        W96025  31.035  24.566   5.228
34572W        W96026  27.965  16.268   2.185
34573W        W96027  30.620   4.450   0.331
34574W        W96028  29.928  39.058  12.839
34575W        W96029   5.243  36.531  10.488
34576W        W96030   4.206   4.312   2.190
34577W        W96031  13.613  26.115   1.274
34578W        W96032  39.537  21.684  14.984
34579W        W96033   3.858  12.290  12.093
34580W        W96034   2.323  12.325  14.905
34581W        W96035   5.251   3.950  10.577
34582W        W96036  13.303  27.131  10.567
34583W        W96037  35.997   1.758   4.628
34584W        W96038   0.872  25.041  14.926
34585W        W96039   4.843  37.466   3.806
34586W        W96040  32.433  36.029   2.268
34587W        W96041  13.835  30.063   1.419
34588W        W96042  13.821  10.802   2.277
34589W        W96043  33.611   0.348   0.243
34590W        W96044  44.786  30.416  14.363
34591W        W96045  43.501  17.067   0.851
34592W        W96046  36.524  17.222  14.850
34593W        W96047  37.500  33.569  12.513
34594W        W96048  43.820  29.134   3.682
34595W        W96049  35.004  16.589  12.492
34596W        W96050   7.414  31.969   1.929
34597W        W96051  28.449  35.002   2.247
34598W        W96052  25.559  15.738   2.190
34599W        W96053  10.750  38.915  14.963
34600W        W96054  33.588   8.394   0.387
34601W        W96055  25.049  29.647   1.312
34602W        W96056   8.292   4.400  13.318
34603W        W96057  29.093  42.880   4.710
34604W        W96058   4.917  33.948  14.432
34605W        W96059   8.873   9.203  14.011
34606W        W96060   3.883  20.744  10.630
34607W        W96061  39.396  21.228  13.517
34608W        W96062  12.612  35.511  11.981
34609W        W96063   9.383   4.743   4.147
34610W        W96064  21.246  13.824   4.229
34611W        W96065   3.819  43.009  10.128
34612W        W96066  22.503  27.690   0.396
34613W        W96067   4.926  12.695  12.886
34614W        W96068  42.810  38.856   1.210
34615W        W96069  22.129  35.902  11.037
34616W        W96070  18.247  15.158  12.341
34617W        W96071  33.939  12.336  14.468
34618W        W96072  20.272  24.630   2.362
34619W        W96073  15.173  12.624  12.427
34620W        W96074  34.109  15.625   4.769
34621W        W96075  15.309  39.820   2.376
34622W        W96076  20.069  22.209  12.370
34623W        W96077  36.569  30.522  10.479
34624W        W96078   7.241  32.477  12.047
34625W        W96079  37.044  35.907  11.993
34626W        W96080  28.514   4.341   1.828
34627W        W96081  16.134  38.037  14.309
34628W        W96082   8.823   0.327  11.120
34629W        W96083  24.556  31.488   4.262
34630W        W96084  39.916  16.259  13.961
34631W        W96085  12.262   2.467   3.861
34632W        W96086  38.856  22.544  14.824
34633W        W96087   4.783  30.017  10.977
34634W        W96088  21.025  28.077  11.598
34635W        W96089  19.766  32.066  14.437
34636W        W96090  18.758  23.156  12.835
34637W        W96091  42.312  20.176   3.708
34638W        W96092  13.664  35.999   0.841
34639W        W96093  22.204   3.827   1.420
34640W        W96094  32.397   3.360  12.894
34641W        W96095  37.987  42.330   4.738
34642W        W96096   6.723  10.799   1.773
34643W        W96097  35.495  38.989   2.379
34644W        W96098  31.070   2.338   3.747
34645W        W96099   6.806  10.344  13.442
34646W        W96100  10.784   6.259   1.734
34647W        W96101  10.361  26.005   2.798
34648W        W96102  10.248   7.272  13.966
34649W        W96103  40.875  24.141   0.410
34650W        W96104   8.785   3.730   2.384
34651W        W96105  21.227  32.105  12.356
34652W        W96106  15.219   0.976   2.826
34653W        W96107  34.043  38.450   3.848
34654W        W96108  22.573  28.954   2.245
34655W        W96109   9.332  17.648   2.206
34656W        W96110  29.144  33.123  11.551
34657W        W96111  18.651  30.129  12.892
34658W        W96112  25.167   1.270   4.149
34659W        W96113  18.742  27.074   1.407
34660W        W96114  27.191  23.522  12.999
34661W        W96115   0.480  33.579  12.006
34662W        W96116  10.645  21.616  13.015
34663W        W96117  41.988  24.723   2.375
34664W        W96118  21.160  37.056  12.984
34665W        W96119  23.497  43.943  12.846
34666W        W96120  30.096   1.849   0.830
34667W        W96121  13.109  43.412  10.513
34668W        W96122  27.689  25.204   0.399
34669W        W96123   6.333   3.850   1.760
34670W        W96124  27.617  37.459  12.392
34671W        W96125   6.235  27.599  13.518
34672W        W96126  19.727  24.115  14.453
34673W        W96127  32.965  25.180  11.919
34674W        W96128   0.414  11.192   3.815
34675W        W96129  41.920  16.176  13.046
34676W        W96130  13.682  22.249  14.948
34677W        W96131   3.956  17.703   0.967
34678W        W96132  34.489  20.092  14.471
34679W        W96133  18.561  34.082   0.806
34680W        W96134  21.129  25.193  11.963
34681W        W96135  35.944  35.912  10.902
34682W        W96136  21.646  19.047   0.898
34683W        W96137  17.294   9.720   1.234
34684W        W96138   7.683   8.268   1.746
34685W        W96139  24.176  16.181  10.507
34686W        W96140  29.465  23.616   1.909
34687W        W96141  22.532  34.865   3.829
34688W        W96142   8.802  28.520   2.235
34689W        W96143  38.547  41.447   2.395
34690W        W96144  16.696  42.999   0.420
34691W        W96145  18.055   2.228   2.751
34692W        W96146  30.544  31.940   4.221
34693W        W96147   8.672  19.070   4.811
34694W        W96148  36.975   4.939  12.995
34695W        W96149  29.023  18.198   3.163
34696W        W96150   8.179  17.095   2.351
34697W        W96151   7.879  37.997   1.867
34698W        W96152  40.421  36.865   4.308
34699W        W96153   4.930  33.023   3.256
34700W        W96154  42.842  28.512  10.448
34701W        W96155   1.286  13.678   1.283
34702W        W96156  40.462  15.667  13.489
34703W        W96157  16.645  23.002   2.677
34704W        W96158  42.908   3.454   1.223
34705W        W96159   0.987  30.534  13.992
34706W        W96160  18.587   7.863  13.372
34707W        W96161  29.969  43.375   1.322
34708W        W96162  37.949  16.699  14.977
34709W        W96163  25.086  29.550   0.347
34710W        W96164  38.888  37.430   4.248
34711W        W96165  30.631  30.644  14.876
34712W        W96166   5.692  24.114  13.435
34713W        W96167   9.181  15.821  12.967
34714W        W96168  44.340  44.405  13.319
34715W        W96169  44.295  43.503  12.478
34716W        W96170   1.789  25.548  12.506
34717W        W96171  25.673  38.825   4.128
34718W        W96172  41.482   6.761  13.007
34719W        W96173  11.280  31.505  14.514
34720W        W96174  26.146   1.773  12.987
34721W        W96175  32.551  31.108  14.890
34722W        W96176  32.518  43.916   3.172
34723W        W96177  24.548  44.387  10.559
34724W        W96178  26.194  28.071  13.992
34725W        W96179   3.887  19.105   1.437
34726W        W96180  11.632  39.398   2.672
34727W        W96181  22.574  26.955   4.162
34728W        W96182  31.516  18.245  10.512
34729W        W96183  15.139   1.419  10.641
34730W        W96184  43.392   5.897  11.598
34731W        W96185   2.814  23.706   0.786
34732W        W96186  17.275  37.547   0.244
34733W        W96187   1.294  35.543  14.827
34734W        W96188  23.060  41.497  12.930
34735W        W96189   2.399  33.116  12.999
34736W        W96190  42.292   5.734   1.797
34737W        W96191   9.813  39.007   2.208
34738W        W96192  41.537  34.524  14.428
34739W        W96193  38.932  10.740   2.297
34740W        W96194  22.580  37.443  12.544
34741W        W96195  12.633   3.339   1.219
34742W        W96196  20.669  31.033   1.373
34743W        W96197  27.159  31.535   1.758
34744W        W96198  23.585  28.667  13.366
34745W        W96199   2.434  17.085   4.691
34746W        W96200  24.974  13.825  10.925
34747W        W96201  33.905   2.259  13.401
34748W        W96202   8.879  19.103   3.838
34749W        W96203  42.460  14.170  13.043
34750W        W96204   1.929  16.258  13.901
34751W        W96205  14.155  33.900   0.813
34752W        W96206  17.169  33.910   2.392
34753W        W96207  19.764  36.015   4.236
34754W        W96208  32.913  15.619   3.244
34755W        W96209  37.575  40.837   0.421
34756W        W96210  24.171   3.336  13.394
34757W        W96211  13.329   7.204   0.470
34758W        W96212  12.846  20.251  11.451
34759W        W96213  32.527  35.024  13.488
34760W        W96214  12.121  41.489   1.925
34761W        W96215  40.993  31.417  12.855
34762W        W96216   6.690   9.707  13.929
34763W        W96217  42.524  43.448  14.405
34764W        W96218  23.667  27.147   2.273
34765W        W96219   9.274   6.315  10.020
34766W        W96220  39.508   4.437  12.095
34767W        W96221  17.082  21.093   0.359
34768W        W96222  17.111  27.654   2.253
34769W        W96223  42.007  36.465   5.209
34770W        W96224  29.471  19.197   2.870
34771W        W96225  24.685  21.590  11.881
34772W        W96226  32.920  37.412  11.873
34773W        W96227  31.451  19.612   1.316
34774W        W96228  29.579  24.532  12.906
34775W        W96229  21.199  39.452   4.243
34776W        W96230  10.174  32.945  12.418
34777W        W96231  43.825   4.218  14.779
34778W        W96232   4.382  15.647  10.595
34779W        W96233  44.973  35.527  11.917
34780W        W96234   6.712  33.475  14.968
34781W        W96235  31.416  43.782   4.269
34782W        W96236  30.102  36.583   0.463
34783W        W96237  25.579  23.651  10.140
34784W        W96238  16.105  15.696  13.450
34785W        W96239  34.434  28.528   4.327
34786W        W96240  31.618   2.889   0.773
34787W        W96241  29.951   5.262   3.834
34788W        W96242   3.461  22.164   3.681
34789W        W96243  26.049   5.416   3.817
34790W        W96244  14.131  39.034  11.538
34791W        W96245   1.437  28.047   1.305
34792W        W96246   9.652  13.275   2.289
34793W        W96247  12.811  29.037   4.192
34794W        W96248  28.486  37.547   1.910
34795W        W96249   6.750  43.462  13.877
34796W        W96250  33.536  42.982   1.793
34797W        W96251   3.735  31.559   3.764
34798W        W96252  21.056   3.926  13.860
34799W        W96253   4.219  42.858  14.926
34800W        W96254  33.985  35.470   1.713
34801W        W96255   0.787  42.015   1.700
34802W        W96256  28.074  14.106  14.327
34803W        W96257  32.570   3.228  11.477
34804W        W96258  25.685  27.095  14.303
34805W        W96259  33.118  28.162   1.348
34806W        W96260  27.500   4.378  13.957
34807W        W96261  24.100  29.599  10.961
34808W        W96262   5.324   8.899  12.021
34809W        W96263  37.377   7.807  14.458
34810W        W96264   9.150   6.689  14.471
34811W        W96265  19.249  33.025  13.987
34812W        W96266  10.233  19.280  11.410
34813W        W96267  21.756  35.978   2.301
34814W        W96268  24.980  32.462   2.318
34815W        W96269  34.883  37.347   0.481
34816W        W96270  16.075   1.815   2.383
34817W        W96271  25.047  32.593  12.563
34818W        W96272  28.547   0.804   2.873
34819W        W96273  23.081  43.312  11.411
34820W        W96274  42.784  13.191   5.083
34821W        W96275  21.710   8.189  13.996
34822W        W96276  32.118   1.882   2.758
34823W        W96277  17.138   1.454   3.725
34824W        W96278  44.409  23.492  13.377
34825W        W96279   6.893  33.043  12.447
34826W        W96280  33.984  42.344  14.303
34827W        W96281  28.552   0.791   3.751
34828W        W96282  28.040   0.253   4.312
34829W        W96283  33.485   5.338  11.930
34830W        W96284  37.438  15.083   2.323
34831W        W96285  33.533  22.186   1.713
34832W        W96286   1.766  24.989  14.888
34833W        W96287  37.512   4.887   2.298
34834W        W96288  19.041  40.339   4.291
34835W        W96289  22.235   0.458   3.791
34836W        W96290  40.852  26.154   0.890
34837W        W96291  14.254   6.406   3.724
34838W        W96292  12.340  44.938  14.425
34839W        W96293   1.906  42.403  14.886
34840W        W96294  17.691  14.220   2.267
34841W        W96295  34.536  21.553   3.169
34842W        W96296  23.620  15.716  12.501
34843W        W96297  21.554  16.106   3.674
34844W        W96298   8.357  13.800   0.840
34845W        W96299  31.430  13.634  12.386
34846W        W96300  20.077  38.516   4.255
34847W        W96301  25.021  11.864  12.919
34848W        W96302   3.244  18.107   2.761
34849W        W96303  24.674  26.649  11.390
34850W        W96304  18.563   1.352   4.706
34851W        W96305   0.934  36.423   3.789
34852W        W96306  42.523  37.386  10.584
34853W        W96307  34.065  18.581  12.936
34854W        W96308  26.146  40.947   0.418
34855W        W96309  13.331  42.350   1.760
34856W        W96310  38.518  14.194  11.021
34857W        W96311   4.863  20.633   2.386
34858W        W96312  38.510   6.242   3.830
34859W        W96313  38.860   1.830   0.406
34860W        W96314  42.454  24.151   1.231
34861W        W96315  15.256  16.107  10.426
34862W        W96316  31.634  34.486  11.044
34863W        W96317  12.323  37.551   3.752
34864W        W96318   8.796  34.504  12.541
34865W        W96319  20.652  14.286   3.718
34866W        W96320  20.558  12.248  11.990
34867W        W96321  34.923  13.347   3.829
34868W        W96322  10.380  18.154   2.725
34869W        W96323  23.159  35.567  14.358
34870W        W96324  20.626  23.990   4.279
34871W        W96325   3.914  33.888   0.764
34872W        W96326   4.803  13.220  14.406
34873W        W96327  42.419  38.022   4.607
34874W        W96328  32.491  40.369  10.111
34875W        W96329  38.376  13.280   2.668
34876W        W96330  17.146   6.846  13.338
34877W        W96331  10.639  23.588   3.347
34878W        W96332  25.713  10.861  14.308
34879W        W96333  12.170   7.201   4.131
34880W        W96334  26.206  26.616  13.996
34881W        W96335  41.900  17.272   1.336
34882W        W96336   3.384   4.330  14.352
34883W        W96337  33.884   3.427   4.660
34884W        W96338  22.213  20.164   0.826
34885W        W96339  42.829  24.593  14.354
34886W        W96340  24.117  12.699  13.820
34887W        W96341  36.866  12.155   3.698
34888W        W96342   0.840   8.391  13.515
34889W        W96343  34.590  21.153   1.401
34890W        W96344   0.465   6.399  13.820
34891W        W96345  39.016  29.106  10.006
34892W        W96346  37.935  23.050  13.460
34893W        W96347  39.411  37.024  13.048
34894W        W96348  25.486  36.574   0.891
34895W        W96349  32.906  39.017   1.779
34896W        W96350  40.813   1.899  12.848
34897W        W96351   4.876  15.102  14.323
34898W        W96352  36.949  21.089   3.795
34899W        W96353  12.829   1.401  11.501
34900W        W96354   8.385  39.404  12.889
34901W        W96355  27.111  30.050  13.471
34902W        W96356  44.889  18.147   1.866
34903W        W96357   1.966  43.840  12.400
34904W        W96358  26.562  25.485  13.426
34905W        W96359  26.615   2.244  13.798
34906W        W96360  21.713  23.995   0.282
34907W        W96361  32.404  32.894  14.840
34908W        W96362  42.863  31.607  10.635
34909W        W96363  40.847   9.745   0.848
34910W        W96364  29.598  16.132   4.170
34911W        W96365  11.301  29.046  10.413
34912W        W96366   6.261   6.815  10.512
34913W        W96367   6.775  14.650  10.907
34914W        W96368  21.062  29.089  10.644
34915W        W96369  34.932  11.165  13.053
34916W        W96370  34.088  22.721  13.478
34917W        W96371   6.282  11.694   2.755
34918W        W96372  39.445   6.318  12.040
34919W        W96373   4.760  23.132  11.575
34920W        W96374   6.398  42.911  10.017
34921W        W96375  14.699   5.779   4.752
34922W        W96376  13.748  14.157   1.835
34923W        W96377  22.540   9.747   3.176
34924W        W96378  37.991  32.544   3.864
34925W        W96379   1.459  32.509   0.774
34926W        W96380  13.206  18.274   0.368
34927W        W96381  36.890  18.758   0.753
34928W        W96382  36.951  31.421  14.292
34929W        W96383  15.812  18.293   4.746
34930W        W96384   6.831  15.270   0.838
34931W        W96385  43.856  15.807   1.840
34932W        W96386  35.086  19.559   2.817
34933W        W96387   3.349   5.321   1.845
34934W        W96388  19.203   8.658   0.379
34935W        W96389  17.235  41.414   3.359
34936W        W96390  25.048  18.565  14.907
34937W        W96391  42.969  31.501  12.061
34938W        W96392   2.782  39.961   4.152
34939W        W96393   3.271   0.818   2.342
34940W        W96394  20.242  38.381  12.363
34941W        W96395   3.216  28.497  11.946
34942W        W96396  12.148  33.535  10.577
34943W        W96397  18.128   5.912   0.268
34944W        W96398  13.728  41.997   0.771
34945W        W96399  22.159  44.328  13.359
34946W        W96400  44.809  23.131   4.198
34947W        W96401  18.646  12.280   4.668
34948W        W96402  32.058  29.137   3.232
34949W        W96403   4.275  15.129   1.797
34950W        W96404  13.126  27.646   4.814
34951W        W96405  20.043   7.348   4.173
34952W        W96406  30.543  21.232  13.879
34953W        W96407  34.396  17.630  13.428
34954W        W96408  30.577   8.720   1.770
34955W        W96409  35.864  38.939   3.821
34956W        W96410  40.304   4.824   4.700
34957W        W96411  26.128  33.571  13.939
34958W        W96412   2.383  22.183   0.746
34959W        W96413   4.841   9.279   0.873
34960W        W96414  14.235  20.257  11.005
34961W        W96415  17.212  37.967   4.699
34962W        W96416  32.568   4.780  10.046
34963W        W96417  24.031  25.490   0.772
34964W        W96418  22.566   8.258   2.898
34965W        W96419  10.694  10.319  12.563
34966W        W96420   3.382  36.429  13.387
34967W        W96421  30.980   4.327   2.688
34968W        W96422  40.859  19.217   3.673
34969W        W96423  38.069   6.357   1.311
34970W        W96424  14.690   3.917   2.839
34971W        W96425  15.306   0.344  14.281
34972W        W96426   8.323  18.741  10.954
34973W        W96427  35.548  44.761   1.400
34974W        W96428  26.457  16.586  12.056
34975W        W96429   4.281  37.441  11.960
34976W        W96430   2.306   3.842  14.366
34977W        W96431  24.659   2.298   2.773
34978W        W96432  40.848  21.526  10.608
34979W        W96433   2.960   7.252  10.597
34980W        W96434  33.443  18.074   0.962
34981W        W96435  27.136   7.769   4.822
34982W        W96436  36.528  22.531   0.945
34983W        W96437  30.152  28.089  11.031
34984W        W96438  32.949  15.164   0.246
34985W        W96439   0.311  12.190   4.299
34986W        W96440   6.866  38.460   1.252
34987W        W96441  31.421  16.636   2.336
34988W        W96442  12.827  20.658  12.091
34989W        W96443  43.773  13.260   1.391
34990W        W96444  14.746  18.099  14.957
34991W        W96445  42.794  29.109   2.410
34992W        W96446  22.215   0.845  14.977
34993W        W96447  28.501  20.038   2.322
34994W        W96448  26.046   9.337   3.730
34995W        W96449   4.226  28.070   2.895
34996W        W96450  31.498  32.515   0.441
34997W        W96451   6.886   6.418  10.561
34998W        W96452   2.943  29.659  10.506
34999W        W96453  30.064   2.412  14.798
35000W        W96454  13.286  27.117   0.402
35001W        W96455  25.576  24.686  12.432
35002W        W96456   5.696  36.499  13.845
35003W        W96457  19.581  29.065   4.793
35004W        W96458  30.021  13.268  11.544
35005W        W96459   6.401  32.591  10.614
35006W        W96460  29.096  21.040  14.407
35007W        W96461  32.043  44.397  13.367
35008W        W96462  25.631   2.270  11.121
35009W        W96463  33.105   2.770  13.917
35010W        W96464   0.750  36.994   4.823
35011W        W96465  28.073  17.706  12.445
35012W        W96466  15.795  31.921  10.517
35013W        W96467  32.130  16.573   4.351
35014W        W96468  10.215  10.232   1.343
35015W        W96469  15.315   3.286   4.129
35016W        W96470  25.476  21.255   2.278
35017W        W96471   9.744   9.232  13.904
35018W        W96472  31.978  28.669   0.346
35019W        W96473  25.108  40.340  12.569
35020W        W96474  13.107  11.162   3.852
35021W        W96475   1.771  12.236  14.992
35022W        W96476  33.440   7.750  14.821
35023W        W96477  33.474   5.209  14.337
35024W        W96478  36.424  43.958   2.705
35025W        W96479   9.858  42.889  13.469
35026W        W96480  39.442  42.456  14.305
35027W        W96481  18.550   9.643   2.849
35028W        W96482  28.969   8.266   1.814
35029W        W96483   6.815  17.226  13.462
35030W        W96484   9.810  34.588   3.229
35031W        W96485  21.580  12.203   0.833
35032W        W96486  23.653   2.817   1.411
35033W        W96487  18.698  37.560   2.742
35034W        W96488   5.282  16.155  14.773
35035W        W96489   4.278   8.208  11.975
35036W        W96490  37.933  39.370  14.894
35037W        W96491  41.413  38.058  14.855
35038W        W96492   0.252   1.264  14.366
35039W        W96493   2.452  18.572   1.385
35040W        W96494   8.659  13.823   4.328
35041W        W96495  33.096  40.325  14.885
35042W        W96496  24.593   5.922  14.313
35043W        W96497  40.480  25.682   0.287
35044W        W96498  42.299  10.377  14.802
35045W        W96499   3.725  38.367  12.486
35046W        W96500  33.946   4.319   2.400
35047W        W96501  13.215   4.218  14.479
35048W        W96502  39.021  25.137  11.863
35049W        W96503   1.958  15.711  10.411
35050W        W96504  33.122  19.184  10.566
35051W        W96505  24.666   8.278   3.155
35052W        W96506  26.985   2.455   4.621
35053W        W96507  16.789  43.823  14.813
35054W        W96508  10.380  24.688   1.829
35055W        W96509   0.394  27.983  13.480
35056W        W96510  11.726  21.094   0.955
35057W        W96511  39.911   1.828   0.345
35058W        W96512  22.087  28.059   4.832
35059W        W96513   2.333   6.922  13.512
35060W        W96514  44.935  42.818   0.926
35061W        W96515  34.078   1.339  11.952
35062W        W96516  37.378   4.777   4.330
35063W        W96517  12.210  39.015   9.483
35064W        W96518  35.874  32.395  12.067
35065W        W96519  22.651  10.855  11.513
35066W        W96520  10.376   0.869   3.280
35067W        W96521  44.445   5.270   1.278
35068W        W96522  44.403  44.389  14.502
35069W        W96523   2.724   5.209  12.931
35070W        W96524  33.896  37.958  13.313
35071W        W96525  29.459   1.385   2.710
35072W        W96526  10.179  22.638   1.926
35073W        W96527   4.732  34.866  13.827
35074W        W96528  20.113  36.518   4.613
35075W        W96529  24.184   8.255   3.734
35076W        W96530  31.415  12.729   0.755
35077W        W96531   8.366   8.748   3.277
35078W        W96532  16.590  21.073   4.307
35079W        W96533  11.866  11.813  11.609
35080W        W96534  38.903  34.408  10.037
35081W        W96535  38.325  13.310   0.831
35082W        W96536  42.388  32.391   3.169
35083W        W96537  19.627  29.574  12.993
35084W        W96538  38.836  44.780   2.875
35085W        W96539   0.806  10.300  13.482
35086W        W96540  26.457  18.175  11.572
35087W        W96541   6.811   7.363  12.894
35088W        W96542   8.888  23.537   3.780
35089W        W96543   3.244  39.879  11.465
35090W        W96544   1.429  44.940  14.874
35091W        W96545  38.020   5.244   4.175
35092W        W96546  29.118  31.470  10.450
35093W        W96547  21.116  12.774  10.465
35094W        W96548  32.104  15.612  11.440
35095W        W96549  42.003  38.830   5.136
35096W        W96550  36.501  23.071  12.044
35097W        W96551  35.860   2.398   5.123
35098W        W96552  37.002  33.084  14.900
35099W        W96553  36.396  39.355  13.468
35100W        W96554  28.088  26.643   0.795
35101W        W96555   0.965  26.114   1.341
35102W        W96556  19.225  25.545  11.945
35103W        W96557  23.726  33.523   1.784
35104W        W96558  33.013  26.156  11.939
35105W        W96559  27.592  35.014   3.383
35106W        W96560  12.784  38.056  12.423
35107W        W96561   8.235  16.255  10.966
35108W        W96562  14.796  15.213   3.341
35109W        W96563   3.306  35.988   2.830
35110W        W96564  28.658  13.686  11.030
35111W        W96565  25.154   9.177   2.279
35112W        W96566  42.397   4.304   1.429
35113W        W96567   2.889  27.047   2.409
35114W        W96568  24.541  16.144   2.804
35115W        W96569  32.581  16.262   1.879
35116W        W96570   9.307  37.481  13.994
35117W        W96571   6.859  42.295   3.651
35118W        W96572  23.014   2.822  13.397
35119W        W96573  29.971   4.264   5.743
35120W        W96574  26.651  38.331  10.050
35121W        W96575  37.848   9.172  13.529
35122W        W96576   3.909  26.134  13.510
35123W        W96577  30.575  33.893  10.531
35124W        W96578  15.624  32.918   4.604
35125W        W96579  11.308  26.691  14.352
35126W        W96580  17.583  35.889   1.386
35127W        W96581   5.741   9.296  14.294
35128W        W96582  20.148  15.823  13.444
35129W        W96583   7.283   8.191  10.622
35130W        W96584  44.303  22.045   2.374
35131W        W96585  40.453   8.876  11.033
35132W        W96586   6.891  13.349   3.860
35133W        W96587  23.177  24.706  11.870
35134W        W96588  29.557   6.258  10.524
35135W        W96589  36.952  16.233  12.555
35136W        W96590  38.907  13.331  14.764
35137W        W96591  35.983  26.967   3.182
35138W        W96592  42.939  22.239  13.902
35139W        W96593  23.058  37.535   1.725
35140W        W96594  18.098   9.809   0.464
35141W        W96595   9.867  42.781  10.477
35142W        W96596   1.277  39.547   1.394
35143W        W96597  23.612   4.848   3.736
35144W        W96598  17.623  20.127   4.628
35145W        W96599  21.530   7.332  13.402
35146W        W96600  42.515  19.176   0.404
35147W        W96601  42.384   0.957  12.984
35148W        W96602   4.381  32.055  12.435
35149W        W96603  39.557  27.179  11.036
35150W        W96604   1.377  42.783   4.636
35151W        W96605  39.971  36.470  14.855
35152W        W96606  28.580  42.966   0.933
35153W        W96607  21.200  20.179   2.687
35154W        W96608  16.783  14.601   9.990
35155W        W96609  18.237  37.043   4.202
35156W        W96610  22.680  37.863  12.050
35157W        W96611  21.681   7.892  13.803
35158W        W96612  20.059  38.834  10.409
35159W        W96613  22.640  40.916   0.371
35160W        W96614  31.999   9.875  14.392
35161W        W96615  39.336  20.100  12.920
35162W        W96616  26.486   7.334  14.472
35163W        W96617  12.754  29.454   3.180
35164W        W96618  16.755  39.560   4.200
35165W        W96619  37.577  17.629  10.629
35166W        W96620  12.154   9.259  12.082
35167W        W96621   1.867  30.534   0.292
35168W        W96622   4.916  40.536  12.972
35169W        W96623   2.363  38.363  11.904
35170W        W96624  10.152   2.926   0.860
35171W        W96625  29.168  15.314   0.921
35172W        W96626  43.385  37.471  11.569
35173W        W96627  17.233  26.069  13.945
35174W        W96628  27.654  39.899  12.366
35175W        W96629  40.797   8.245  14.382
35176W        W96630  44.452  33.594  14.507
35177W        W96631   0.334  39.031  11.506
35178W        W96632  21.048  33.913   0.451
35179W        W96633  36.515  36.001   5.210
35180W        W96634  41.040  31.496   1.323
35181W        W96635  23.636  43.814   3.755
35182W        W96636  31.424  24.504   0.924
35183W        W96637  25.079  22.136   3.812
35184W        W96638  22.029   9.859  13.030
35185W        W96639  18.647  25.973   0.419
35186W        W96640  18.621   2.828   1.783
35187W        W96641  11.697   4.224  14.385
35188W        W96642  38.486  18.182  13.536
35189W        W96643  40.837   6.231   4.754
35190W        W96644   7.870  25.699   2.323
35191W        W96645  31.969  15.641   2.339
35192W        W96646  35.040  14.666  14.911
35193W        W96647  37.832  15.111  12.860
35194W        W96648  23.661  27.449  14.963
35195W        W96649   1.277  15.651   3.323
35196W        W96650  24.980   4.347   0.284
35197W        W96651  12.284  30.422   1.284
35198W        W96652  32.922  33.495   4.274
35199W        W96653  12.789  43.332  10.985
35200W        W96654   2.353   7.706   2.179
35201W        W96655  41.349  10.292   4.666
35202W        W96656  24.120  14.231   0.875
35203W        W96657   5.318  20.660   0.336
35204W        W96658   5.743  34.878   0.360
35205W        W96659  24.041   5.304   2.856
35206W        W96660  24.722  15.287   0.400
35207W        W96661   2.397  41.432   3.647
35208W        W96662  16.623  32.438   3.742
35209W        W96663  44.364  18.771   2.323
35210W        W96664  33.450  43.293   2.866
35211W        W96665  32.442  10.816  11.127
35212W        W96666  42.374   6.367   2.892
35213W        W96667  35.424  24.024  14.297
35214W        W96668  11.748   5.365   4.756
35215W        W96669  44.909  12.301   0.248
35216W        W96670  42.486  41.924   3.298
35217W        W96671  42.965  31.492   2.729
35218W        W96672  16.229  25.016   3.731
35219W        W96673  21.694  44.891   1.371
35220W        W96674  39.888  37.051   3.385
35221W        W96675  21.137  18.726  10.463
35222W        W96676   8.213  10.208   0.815
35223W        W96677   2.780  24.028  14.874
35224W        W96678  28.167  17.224  11.952
35225W        W96679  39.039  34.863   3.851
35226W        W96680  24.628  21.637   3.377
35227W        W96681  36.973  20.171   4.310
35228W        W96682  26.689  22.671  14.849
35229W        W96683  31.964  25.153  12.893
35230W        W96684  12.174  29.064   3.269
35231W        W96685  35.569   2.309  14.030
35232W        W96686  33.584   7.718  12.076
35233W        W96687  39.908   0.325  14.337
35234W        W96688  21.681  43.913   4.347
35235W        W96689  30.470  30.563   0.749
35236W        W96690  20.753   5.879  12.963
35237W        W96691  41.867  24.995   3.639
35238W        W96692  30.050   3.866   4.333
35239W        W96693   7.876  34.930  10.924
35240W        W96694  22.524  29.068  11.553
35241W        W96695  26.031  39.840  11.571
35242W        W96696  34.444  26.977  11.093
35243W        W96697  24.619  13.288  12.041
35244W        W96698   5.225  44.301   0.277
35245W        W96699  41.840  42.807  12.940
35246W        W96700  38.360  13.662   4.129
35247W        W96701  39.903  11.163   3.387
35248W        W96702  33.432  29.636  12.479
35249W        W96703  16.307  30.635   2.755
35250W        W96704  39.497  35.063   4.693
35251W        W96705  30.652   0.281   2.787
35252W        W96706   3.228  43.335  14.841
35253W        W96707  42.841  14.636  14.970
35254W        W96708   7.752  31.973  12.513
35255W        W96709  35.074  21.131  13.005
35256W        W96710  25.019  17.576   0.254
35257W        W96711  42.830  27.057  11.928
35258W        W96712   6.691  44.790   1.351
35259W        W96713   2.824  23.180  10.452
35260W        W96714  13.690   7.397   3.717
35261W        W96715  29.633  29.667   5.246
35262W        W96716  36.051  24.227  13.884
35263W        W96717  16.137  27.505   4.654
35264W        W96718   1.315  37.043  11.118
35265W        W96719  24.533  36.392  12.068
35266W        W96720  10.709   2.407   4.196
35267W        W96721  25.035  22.195   4.702
35268W        W96722   3.225  15.673   3.769
35269W        W96723  17.727  15.737   1.911
35270W        W96724  31.091  23.495   1.786
35271W        W96725   6.341  39.047  10.939
35272W        W96726  39.550  26.458  10.511
35273W        W96727  16.728  25.111  10.533
35274W        W96728  34.402  24.556  14.493
35275W        W96729  10.742  15.676  13.380
35276W        W96730   9.722  10.784  14.892
35277W        W96731  32.071   6.362   3.810
35278W        W96732  17.673   5.275  14.336
35279W        W96733  27.131   3.321   2.877
35280W        W96734  44.323  33.473  10.486
35281W        W96735  25.477   4.275  12.865
35282W        W96736   9.722   9.165  14.318
35283W        W96737  27.130  21.655   2.315
35284W        W96738  19.039  26.675  14.312
35285W        W96739  21.679  36.018   0.837
35286W        W96740  19.228   1.832   2.373
35287W        W96741  38.876  41.538   1.899
35288W        W96742  20.064  43.918   1.703
35289W        W96743  35.425  12.844   2.820
35290W        W96744  17.138  38.918  10.931
35291W        W96745  27.150  14.747  11.467
35292W        W96746  23.069  37.528  10.949
35293W        W96747  10.863  40.534  13.058
35294W        W96748  30.422  12.626  14.494
35295W        W96749  26.574  10.837  11.452
35296W        W96750   3.324   7.380  14.919
35297W        W96751   1.285   5.342  10.902
35298W        W96752  32.007   7.172  12.391
35299W        W96753  11.686   0.872  13.496
35300W        W96754  39.881  16.655  12.862
35301W        W96755   3.313  44.960   0.273
35302W        W96756   7.789  18.084   2.349
35303W        W96757  29.032  41.496  11.405
35304W        W96758  33.085  39.555   0.382
35305W        W96759  20.566   2.938   0.812
35306W        W96760  16.615  28.441  13.903
35307W        W96761  42.814   1.390   2.740
35308W        W96762  27.090  40.805  14.280
35309W        W96763  13.823  34.999  14.820
35310W        W96764  38.927   3.847  11.956
35311W        W96765   5.375   9.251   3.256
35312W        W96766  11.695  43.856  14.854
35313W        W96767  14.207  32.932   4.201
35314W        W96768  21.641  42.504   1.384
35315W        W96769  42.882   5.260   2.766
35316W        W96770   0.813  30.101  11.524
35317W        W96771  39.500  24.227  10.462
35318W        W96772   1.772  39.932   2.356
35319W        W96773   7.809   0.746   1.713
35320W        W96774  24.026  24.120   0.399
35321W        W96775  14.198   8.864  14.302
35322W        W96776  22.233  40.470  14.882
35323W        W96777   1.466   0.891   0.280
35324W        W96778  35.600  12.315  10.418
35325W        W96779  27.034   0.347  13.022
35326W        W96780  24.570   5.366   0.760
35327W        W96781   2.269  25.697  12.438
35328W        W96782  34.514   6.241  13.310
35329W        W96783   4.423   5.811  11.414
35330W        W96784  37.399  35.989  13.395
35331W        W96785  15.121  18.240   0.967
35332W        W96786  14.689  41.004  14.274
35333W        W96787   4.262  11.348  12.368
35334W        W96788   0.904   6.418  11.957
35335W        W96789  35.943  42.881  14.987
35336W        W96790  25.541   9.210   0.368
35337W        W96791  22.078  21.687  13.414
35338W        W96792   5.858  39.508   3.798
35339W        W96793   1.807   0.397  12.011
35340W        W96794  19.159   5.294   0.262
35341W        W96795  20.230  43.380   4.630
35342W        W96796   1.956   3.865  11.599
35343W        W96797  35.540  19.704  14.293
35344W        W96798   3.319  36.573  10.582
35345W        W96799   5.775   6.762   4.607
35346W        W96800  19.686  28.445  10.418
35347W        W96801  25.063  34.487   2.230
35348W        W96802  32.591  28.523  11.951
35349W        W96803  34.980   0.908   4.198
35350W        W96804   9.716  17.115  13.421
35351W        W96805  35.370   2.351   2.262
35352W        W96806  21.128  24.558  14.825
35353W        W96807   6.191  24.022  13.998
35354W        W96808  11.673  17.159  13.931
35355W        W96809  30.425   4.418   9.594
35356W        W96810  36.881  10.314   3.755
35357W        W96811  27.478  22.140   4.246
35358W        W96812   7.261   4.844  14.881
35359W        W96813  27.518  32.581   1.339
35360W        W96814  15.594  27.582   4.219
35361W        W96815  34.068  42.805  11.433
35362W        W96816   7.311   3.832   2.315
35363W        W96817   9.724  18.079  14.440
35364W        W96818  19.547   7.395  11.887
35365W        W96819   7.196   8.790   3.659
35366W        W96820   9.783  33.950   4.145
35367W        W96821  44.363  26.959   4.193
35368W        W96822  31.131  31.475   0.472
35369W        W96823  37.064  24.681  10.580
35370W        W96824   9.759  31.123   2.297
35371W        W96825  19.080  13.692  11.898
35372W        W96826  41.403  26.161   2.688
35373W        W96827  41.443  34.082  10.430
35374W        W96828  36.577  40.470  14.996
35375W        W96829  32.982  16.726  11.017
35376W        W96830   9.361  39.420  11.463
35377W        W96831   6.258  27.496   0.466
35378W        W96832  26.082  30.504   1.301
35379W        W96833  17.276  42.426   1.273
35380W        W96834  28.994   1.738   2.271
35381W        W96835  26.611  37.361  12.364
35382W        W96836  39.836  39.349   3.845
35383W        W96837  29.431  22.593   0.358
35384W        W96838  31.055  27.485   0.736
35385W        W96839  42.875  27.059   0.370
35386W        W96840  34.375  19.229  14.316
35387W        W96841  11.750  23.648   2.837
35388W        W96842   4.711  23.232   1.699
35389W        W96843  32.501  18.068   5.262
35390W        W96844  36.051  19.053   0.390
35391W        W96845  22.232   9.663  13.536
35392W        W96846  35.498  42.407  14.491
35393W        W96847  22.570  41.353  12.518
35394W        W96848  12.248  35.087   0.390
35395W        W96849   1.775  10.842   3.189
35396W        W96850  28.095  25.625   3.824
35397W        W96851  30.084  25.162   1.767
35398W        W96852   2.735  28.639  11.938
35399W        W96853  23.528  43.461  13.468
35400W        W96854   4.410  11.193  10.599
35401W        W96855   7.670   0.254  10.973
35402W        W96856  42.403  32.594  12.531
35403W        W96857  35.361   6.370  14.471
35404W        W96858  43.464   3.460   0.945
35405W        W96859  33.481   4.328   2.778
35406W        W96860  39.968  37.974  12.904
35407W        W96861   5.283  42.031   3.645
35408W        W96862  39.859  17.085  13.329
35409W        W96863  12.798  38.519  14.823
35410W        W96864  13.212  35.853  14.890
35411W        W96865  43.409  31.443  10.545
35412W        W96866   3.799  33.954   4.753
35413W        W96867  16.318  27.954   0.303
35414W        W96868  27.573  35.382   1.437
35415W        W96869  22.586  35.109   4.635
35416W        W96870   4.346  11.356  14.290
35417W        W96871  29.977  12.178  14.511
35418W        W96872   5.256  14.696  13.035
35419W        W96873   8.288  14.181  11.872
35420W        W96874  29.948   9.211   2.664
35421W        W96875  29.558   1.389   1.885
35422W        W96876   0.776  36.980  10.615
35423W        W96877  12.815   1.255   3.384
35424W        W96878  36.050  27.026  11.485
35425W        W96879  22.140   1.416  12.963
35426W        W96880  19.284   7.718  10.502
35427W        W96881  38.889  19.740  14.511
35428W        W96882  40.813  28.634  11.062
35429W        W96883  14.339  26.527  11.028
35430W        W96884  40.402  35.588   3.344
35431W        W96885   8.343  37.361  13.419
35432W        W96886  22.091   0.324  12.444
35433W        W96887  12.689  23.687  11.526
35434W        W96888  13.694   2.899   0.335
35435W        W96889  15.312   8.275   3.278
35436W        W96890  37.489   1.293  12.946
35437W        W96891  28.458   6.395   3.223
35438W        W96892  22.092  33.565   1.758
35439W        W96893  14.150  10.813   3.681
35440W        W96894   6.412  12.664  13.951
35441W        W96895   2.258   5.708   3.255
35442W        W96896  33.615   5.719  14.005
35443W        W96897  41.513   6.855  12.548
35444W        W96898   1.902  18.675  12.916
35445W        W96899  44.007  36.374  10.575
35446W        W96900  38.920  28.566  13.846
35447W        W96901   6.834  33.419  10.640
35448W        W96902  28.946  37.557  13.984
35449W        W96903  26.153   6.882   4.323
35450W        W96904   1.937  35.404  13.314
35451W        W96905  41.034  14.624   2.705
35452W        W96906  17.122  10.268  14.292
35453W        W96907  43.488  43.849   0.865
35454W        W96908  27.076  21.705   4.751
35455W        W96909  17.687   2.815  12.442
35456W        W96910  34.942  30.072  12.436
35457W        W96911  36.996  33.419   4.244
35458W        W96912  44.803  41.897   1.269
35459W        W96913  36.437  22.104   3.667
35460W        W96914  43.798  11.304  12.044
35461W        W96915  19.696   5.243   3.308
35462W        W96916  39.359  19.671   0.470
35463W        W96917  18.658  18.747  13.542
35464W        W96918  12.325   9.313  13.054
35465W        W96919  36.069   3.805  11.115
35466W        W96920  14.293  35.881   0.824
35467W        W96921   4.316  30.079  12.852
35468W        W96922   5.711  13.344   4.125
35469W        W96923  17.623  39.352  10.628
35470W        W96924  20.078  11.364   3.710
35471W        W96925   5.853  28.094  13.444
35472W        W96926   6.751  15.157   1.805
35473W        W96927   3.737  32.427  11.007
35474W        W96928  16.660  32.920   0.336
35475W        W96929  37.035  31.456   0.432
35476W        W96930  13.702   3.840   3.372
35477W        W96931  27.505  38.907   2.675
35478W        W96932  32.886  35.077  13.944
35479W        W96933  44.427  25.071   5.115
35480W        W96934  14.819  34.410  13.329
35481W        W96935  36.348  22.706   2.212
35482W        W96936   7.275  15.327  11.040
35483W        W96937  21.703  12.830  13.392
35484W        W96938  31.064  20.147   2.341
35485W        W96939  15.164  34.428   4.715
35486W        W96940  22.211  15.791  13.439
35487W        W96941  19.272  22.532   2.273
35488W        W96942  35.996  18.609  12.396
35489W        W96943  29.481   1.872   3.798
35490W        W96944  19.071  22.111   3.272
35491W        W96945  23.648   6.209   0.947
35492W        W96946  14.632  23.102  11.022
35493W        W96947  24.536  27.525  11.430
35494W        W96948  39.437  18.156   1.795
35495W        W96949  16.782  20.116   1.883
35496W        W96950   8.824  34.089   2.898
35497W        W96951  15.706   9.844  10.605
35498W        W96952   1.967   6.321  11.922
35499W        W96953  32.504  12.775  11.460
35500W        W96954  37.557  26.465  10.570
35501W        W96955  10.365  13.815  12.533
35502W        W96956  33.131  17.067   4.785
35503W        W96957   4.397  28.611  13.490
35504W        W96958   5.330  21.737  11.491
35505W        W96959   9.366  40.873   4.734
35506W        W96960  28.466  10.161   3.696
35507W        W96961  43.390  11.238  13.467
35508W        W96962  28.595  20.086   0.360
35509W        W96963  44.420   3.363   0.304
35510W        W96964  31.594  16.299  14.942
35511W        W96965  37.941  19.695   2.841
35512W        W96966  33.922  40.049  13.057
35513W        W96967  12.721  31.494   3.302
35514W        W96968  36.013  18.551   1.933
35515W        W96969  39.453  30.158   4.298
35516W        W96970   4.774   5.856  14.476
35517W        W96971  26.044  43.948   2.836
35518W        W96972   0.407  27.123   3.265
35519W        W96973  20.762   6.813  12.500
35520W        W96974   8.316  28.013  14.453
35521W        W96975  20.271  27.947   1.229
35522W        W96976   3.434  18.121  12.924
35523W        W96977  41.001  11.863  11.449
35524W        W96978  36.366  24.172   1.255
35525W        W96979   7.762   2.360  12.843
35526W        W96980  25.179   4.826  12.429
35527W        W96981  25.531  17.645  12.399
35528W        W96982  44.780  16.259  13.979
35529W        W96983  16.133   7.865   3.327
35530W        W96984   1.338   8.735  12.832
35531W        W96985  29.107  12.679   2.839
35532W        W96986  33.400  21.101   2.247
35533W        W96987  18.783  31.422   4.719
35534W        W96988  20.624  38.988   4.661
35535W        W96989  33.002  29.956   2.744
35536W        W96990  12.146  14.155   4.714
35537W        W96991  13.625   2.931  12.525
35538W        W96992   6.368   9.329   1.859
35539W        W96993  38.438  34.383  11.564
35540W        W96994  29.032   4.250   3.171
35541W        W96995  20.618  19.770   3.847
35542W        W96996   4.792   7.862  10.437
35543W        W96997   8.282  22.069   4.292
35544W        W96998   8.800   0.256   3.780
35545W        W96999   2.315  33.522   2.418
35546W        W97000  30.127  36.418  12.921
35547W        W97001   8.862  22.548   0.960
35548W        W97002  15.088  10.803   4.785
35549W        W97003  44.942   5.857  10.928
35550W        W97004  14.718   6.218  12.970
35551W        W97005   3.921   6.824   4.804
35552W        W97006  14.727  28.562   4.133
35553W        W97007  26.550   7.900   2.333
35554W        W97008  34.479  37.926  11.403
35555W        W97009   9.386  24.723  10.489
35556W        W97010  31.532  38.854   2.277
35557W        W97011   3.291  42.359   1.717
35558W        W97012  35.088   5.847   2.270
35559W        W97013  40.000  36.984  14.370
35560W        W97014  41.844  33.524  10.919
35561W        W97015  34.077  13.145  13.811
35562W        W97016  41.319  20.137   4.212
35563W        W97017  19.267  35.021  14.330
35564W        W97018  42.993  43.852  12.497
35565W        W97019  30.039  40.024   4.802
35566W        W97020  11.701  36.969  11.013
35567W        W97021  32.611  38.429   1.927
35568W        W97022  27.519  23.209  13.952
35569W        W97023   4.720  24.998   1.781
35570W        W97024   9.804  18.667  14.958
35571W        W97025  41.041  40.044   1.227
35572W        W97026   8.726  15.275  14.330
35573W        W97027   0.381  25.206   0.452
35574W        W97028  17.199  43.274  14.985
35575W        W97029  19.058   6.717   9.974
35576W        W97030  40.840  35.977   4.726
35577W        W97031  23.729  40.923  14.822
35578W        W97032  17.795  20.177  13.841
35579W        W97033  42.406  35.983  12.026
35580W        W97034   2.382   9.888  10.636
35581W        W97035  19.132  34.436   3.688
35582W        W97036  41.828   1.254   2.708
35583W        W97037  19.605   9.367  11.474
35584W        W97038  28.619   6.793  13.039
35585W        W97039  30.528  27.633   2.717
35586W        W97040  17.669   9.808   2.401
35587W        W97041  33.422  32.061  13.058
35588W        W97042  11.673   9.666   4.190
35589W        W97043   9.856  43.305   2.897
35590W        W97044  20.206  32.984  12.570
35591W        W97045  14.276  24.635  11.114
35592W        W97046  17.136   3.248  13.451
35593W        W97047  36.899  22.694  13.308
35594W        W97048  31.010  31.913  11.591
35595W        W97049  22.626  11.725   3.852
35596W        W97050  15.743  27.189   1.441
35597W        W97051  35.899  40.988   3.195
35598W        W97052  28.587  12.342   4.113
35599W        W97053   6.870  21.577   1.283
35600W        W97054  43.798  33.438   0.411
35601W        W97055  39.990  36.391   3.656
35602W        W97056  39.938  25.115   0.851
35603W        W97057  24.581  34.963  12.577
35604W        W97058  20.680  12.362  11.444
35605W        W97059   7.715  36.397   3.212
35606W        W97060  39.368  31.999   4.785
35607W        W97061  11.838  33.885   3.300
35608W        W97062  34.542  42.911   3.336
35609W        W97063  32.899  43.957   0.847
35610W        W97064  26.027   2.831  14.806
35611W        W97065  31.123  37.901   3.728
35612W        W97066   9.289   3.765  13.920
35613W        W97067  42.806  40.856  11.038
35614W        W97068  38.000  24.018   0.242
35615W        W97069  32.074  22.092   0.447
35616W        W97070  34.031   6.381   1.899
35617W        W97071  30.927  25.019  14.942
35618W        W97072   3.722  36.958   4.704
35619W        W97073   1.338  27.476   4.133
35620W        W97074  17.708  25.629  11.383
35621W        W97075  40.492  30.524  11.504
35622W        W97076   9.834  36.490  13.377
35623W        W97077  11.156  14.622   2.206
35624W        W97078  41.415   6.331   4.258
35625W        W97079  14.682   9.644  13.893
35626W        W97080  34.120  28.935  10.525
35627W        W97081  15.578  21.601   1.824
35628W        W97082  16.304  14.296  13.865
35629W        W97083  43.463  31.425   4.226
35630W        W97084   4.235  30.576   4.228
35631W        W97085  19.587  39.937  14.457
35632W        W97086   5.359  24.202  10.550
35633W        W97087  39.940  14.163  13.038
35634W        W97088  40.008  23.235  14.331
35635W        W97089   8.271  14.761  11.930
35636W        W97090  39.340  12.710   2.779
35637W        W97091  15.665   8.206   0.852
35638W        W97092  22.094  18.724  13.521
35639W        W97093  21.263   2.281  10.411
35640W        W97094  18.135  16.284   0.898
35641W        W97095  12.729  33.922  14.924
35642W        W97096  34.905  14.676   3.205
35643W        W97097  39.936   5.837  10.972
35644W        W97098  14.589  29.987  12.091
35645W        W97099  33.464  16.160  14.349
35646W        W97100  37.512  20.644   2.326
35647W        W97101  44.453  10.701  11.552
35648W        W97102  21.574   5.810   3.253
35649W        W97103  26.645   9.195   2.224
35650W        W97104  14.819   1.950  14.971
35651W        W97105  40.009  43.888   3.166
35652W        W97106  30.021  35.365   4.192
35653W        W97107  31.601  42.003  13.835
35654W        W97108  29.481  28.593  13.523
35655W        W97109  37.493   7.193  13.897
35656W        W97110  31.904  30.413  12.412
35657W        W97111  13.301  42.319   0.760
35658W        W97112  38.997  25.591  10.005
35659W        W97113   4.349   3.242   1.357
35660W        W97114  31.471   8.295   3.252
35661W        W97115  18.676  38.479   3.823
35662W        W97116  20.060  17.093   1.707
35663W        W97117  16.579   8.860   0.878
35664W        W97118  14.112   0.447  14.765
35665W        W97119   4.923  20.244  13.064
35666W        W97120  38.971   9.324   3.252
35667W        W97121  26.487  27.155   2.833
35668W        W97122   9.361  35.971   5.147
35669W        W97123   7.727  27.017   0.399
35670W        W97124  21.574  18.245   0.265
35671W        W97125  43.468  38.471  14.459
35672W        W97126   0.310  38.552  10.469
35673W        W97127  34.376  35.924  14.315
35674W        W97128  21.133  22.093   1.314
35675W        W97129   7.840  33.992  11.058
35676W        W97130  31.557  27.022  14.963
35677W        W97131  40.304  31.575  13.886
35678W        W97132  33.437  30.456  10.560
35679W        W97133  30.499  10.750   2.272
35680W        W97134  44.878  26.189  12.006
35681W        W97135  20.081  36.371   4.194
35682W        W97136  22.073  40.040  14.854
35683W        W97137  23.660  34.494  14.310
35684W        W97138  43.896  44.929  12.514
35685W        W97139  39.551  28.095  14.886
35686W        W97140  18.273  23.672  10.890
35687W        W97141   9.675  19.199  12.924
35688W        W97142  28.680  16.606   3.266
35689W        W97143  27.465   6.323   0.881
35690W        W97144  31.091  33.426  10.119
35691W        W97145  30.950  39.855   1.908
35692W        W97146  19.207  33.437   3.297
35693W        W97147  12.794   2.913   2.359
35694W        W97148  30.560  15.628  12.062
35695W        W97149  11.773  34.419   0.322
35696W        W97150  34.435  18.573  12.467
35697W        W97151  34.047  18.704   9.970
35698W        W97152  25.553  12.773   0.745
35699W        W97153   7.721  14.643   1.356
35700W        W97154  30.942   9.702  13.965
35701W        W97155  41.875  12.311   2.238
35702W        W97156   7.888   4.898   1.252
35703W        W97157  29.948  29.933   0.955
35704W        W97158  17.697   4.448  14.951
35705W        W97159  43.843  37.905  11.546
35706W        W97160  35.085  17.269   5.287
35707W        W97161   6.283  33.577   0.848
35708W        W97162  35.516   1.845  11.891
35709W        W97163  41.946   3.908   3.380
35710W        W97164  21.104  13.316  12.089
35711W        W97165  18.073  24.639   4.164
35712W        W97166  10.703  10.869  12.552
35713W        W97167   9.804  35.578   1.364
35714W        W97168  41.426  24.995   2.717
35715W        W97169   1.955  44.270   2.805
35716W        W97170  23.185  12.331   1.310
35717W        W97171  33.038  19.629   4.116
35718W        W97172  23.112  14.606   3.148
35719W        W97173   6.701   7.852   2.699
35720W        W97174  22.228  20.268   3.789
35721W        W97175   6.867  27.672  12.916
35722W        W97176  26.169  44.276  12.958
35723W        W97177  36.428   5.229  11.876
35724W        W97178  43.394  39.472   1.706
35725W        W97179  13.673   8.792  13.462
35726W        W97180  43.339  29.173   0.939
35727W        W97181  32.065  28.118   5.274
35728W        W97182  25.590  44.262   0.849
35729W        W97183  10.168  30.513   4.640
35730W        W97184  22.639   6.305  13.830
35731W        W97185  13.259  10.844  10.575
35732W        W97186  16.731  23.631   4.608
35733W        W97187  35.463  15.183  14.949
35734W        W97188  16.774  15.782  12.865
35735W        W97189  37.935  34.525  11.996
35736W        W97190  18.578  30.438   0.883
35737W        W97191  23.106  31.038   2.199
35738W        W97192  19.662  43.495   1.416
35739W        W97193   2.419  31.627  11.980
35740W        W97194  13.711   1.371   3.773
35741W        W97195  27.604  44.847   3.226
35742W        W97196  21.243   4.257  10.926
35743W        W97197  25.177  16.682  10.484
35744W        W97198  33.619   5.439   1.428
35745W        W97199  26.587  24.636  13.462
35746W        W97200  18.144   9.646   2.357
35747W        W97201   6.253   9.678   4.142
35748W        W97202  35.067  18.717   4.353
35749W        W97203  27.117  15.209   0.733
35750W        W97204   4.777   8.901  12.059
35751W        W97205  19.543  18.765   1.750
35752W        W97206   7.881   4.821  11.576
35753W        W97207  27.639  13.190  13.830
35754W        W97208  30.531  39.464   3.714
35755W        W97209  31.948  36.559  14.360
35756W        W97210  39.316  43.368   1.813
35757W        W97211  22.144   1.948  12.449
35758W        W97212   9.263  44.429   4.201
35759W        W97213  12.670  15.262   3.652
35760W        W97214  13.115  34.509   4.151
35761W        W97215  31.998  27.511   0.949
35762W        W97216   3.358  41.930   3.643
35763W        W97217  44.361  17.635  10.598
35764W        W97218  32.603  28.132  11.602
35765W        W97219  23.205  22.100   1.311
35766W        W97220  16.267  17.064  11.603
35767W        W97221  24.125  37.855   4.811
35768W        W97222  12.757  15.111   0.935
35769W        W97223  38.857   2.825  11.058
35770W        W97224   7.259   2.880  10.609
35771W        W97225  11.660  38.051   3.272
35772W        W97226  28.632  37.060  12.576
35773W        W97227   5.786  12.784   2.677
35774W        W97228  38.938  37.364   1.307
35775W        W97229  26.110  25.011  10.928
35776W        W97230   2.345  15.597  10.086
35777W        W97231  37.017   1.420  10.890
35778W        W97232  38.488  10.274   2.248
35779W        W97233  31.635  26.172  10.979
35780W        W97234  44.964  29.631  12.864
35781W        W97235  36.915  21.149  10.912
35782W        W97236  30.096  28.963   3.196
35783W        W97237  43.460   0.348   2.202
35784W        W97238   3.339  12.303  13.407
35785W        W97239  14.683   4.233   4.808
35786W        W97240  39.356  31.647  14.951
35787W        W97241   8.761  39.448  11.463
35788W        W97242  33.124  29.044   1.863
35789W        W97243  21.236   9.822   1.872
35790W        W97244   8.370  24.704   3.211
35791W        W97245   7.872  21.645   3.869
35792W        W97246  14.752  21.551   3.161
35793W        W97247  39.505   7.865   1.405
35794W        W97248  43.978   0.306  11.956
35795W        W97249   1.463   0.761  13.388
35796W        W97250   7.388  20.624  15.000
35797W        W97251  11.638  29.060   0.276
35798W        W97252  26.595  14.095  12.088
35799W        W97253  14.802  39.339   2.394
35800W        W97254   1.923  24.684   0.341
35801W        W97255   9.204  10.295   5.237
35802W        W97256  42.846  41.341   0.912
35803W        W97257  42.408  40.321  13.432
35804W        W97258  28.975  15.783  12.063
35805W        W97259  35.863  44.796  12.532
35806W        W97260  38.515  23.580   4.685
35807W        W97261   9.382  13.702   0.386
35808W        W97262  26.607   2.733   2.786
35809W        W97263   0.399  22.609  10.947
35810W        W97264  24.166  14.637  13.509
35811W        W97265  21.243  17.650  13.482
35812W        W97266  41.484  43.853   0.262
35813W        W97267  12.285  11.810  11.475
35814W        W97268  13.831   0.315  11.074
35815W        W97269  12.739  16.779  11.404
35816W        W97270  15.578   2.269   3.636
35817W        W97271  16.122  38.902  14.377
35818W        W97272  21.723   7.706   1.718
35819W        W97273  15.111  37.386  10.933
35820W        W97274  43.863  23.220  14.028
35821W        W97275  38.512  34.015  11.027
35822W        W97276  27.656  21.112  10.928
35823W        W97277  33.502  43.858  13.005
35824W        W97278  24.170  14.640  11.056
35825W        W97279  30.992  21.699   4.225
35826W        W97280  12.212  32.619   0.420
35827W        W97281  39.018  14.192   3.357
35828W        W97282  30.056   1.907   3.722
35829W        W97283  33.913  44.481  13.055
35830W        W97284  14.743  16.236   0.888
35831W        W97285  37.029  39.332   5.251
35832W        W97286  21.084  40.949  11.022
35833W        W97287   8.250  21.218   2.712
35834W        W97288   5.390   3.716  11.911
35835W        W97289   4.755  22.081  13.539
35836W        W97290  34.022  16.736  14.482
35837W        W97291  42.413  30.059   2.872
35838W        W97292  11.802  12.169  11.107
35839W        W97293   9.768  37.409  11.602
35840W        W97294  37.472  16.263   1.880
35841W        W97295  10.688  21.658   0.399
35842W        W97296  23.148   7.219   0.292
35843W        W97297   9.848  19.175   4.299
35844W        W97298  36.948   6.847   1.701
35845W        W97299  31.532   4.236   2.703
35846W        W97300  13.266  15.773  10.423
35847W        W97301  37.437  30.485   0.321
35848W        W97302  13.602  27.660  11.050
35849W        W97303  28.110  23.014   1.443
35850W        W97304   5.313   7.911  14.014
35851W        W97305  42.321  19.556  13.917
35852W        W97306  22.113  15.806  10.093
35853W        W97307  14.188  29.024  12.530
35854W        W97308   6.298   2.955   0.244
35855W        W97309   0.858   7.781   4.217
35856W        W97310  25.203  28.021   2.803
35857W        W97311  12.207  30.538  14.032
35858W        W97312  41.365   5.254   1.399
35859W        W97313  11.827  35.018  14.386
35860W        W97314  39.866   1.878   2.236
35861W        W97315  17.213  28.968   3.156
35862W        W97316   7.743  37.833   0.256
35863W        W97317  44.483   2.266  14.968
35864W        W97318  15.119  24.024   4.258
35865W        W97319  42.522  15.271   2.843
35866W        W97320  32.504  33.923   1.424
35867W        W97321  10.320  44.947  14.451
35868W        W97322  19.280  35.947  13.946
35869W        W97323   3.400   7.812   2.810
35870W        W97324  23.164  22.250   0.797
35871W        W97325  18.110  41.826  13.839
35872W        W97326  23.572   7.305   3.705
35873W        W97327  10.791  33.449   0.910
35874W        W97328  21.724  10.301  13.352
35875W        W97329  17.739  43.273  12.516
35876W        W97330   1.367   9.149  11.579
35877W        W97331  37.846  35.928   1.259
35878W        W97332  16.720  38.845   2.313
35879W        W97333  16.586  29.000   0.873
35880W        W97334  29.649  17.594  13.402
35881W        W97335  39.484   9.848   0.912
35882W        W97336   2.271  12.688  11.064
35883W        W97337  22.178   2.894  11.993
35884W        W97338   1.408   0.810   2.674
35885W        W97339   9.310  18.544   3.221
35886W        W97340  22.532  12.144  12.419
35887W        W97341  33.885  22.042   2.396
35888W        W97342  44.976  38.858  10.922
35889W        W97343  13.619  33.412  11.052
35890W        W97344  14.098  34.554  13.935
35891W        W97345  15.773  18.216   1.928
35892W        W97346  35.963  13.213   0.926
35893W        W97347   5.879  44.386  10.635
35894W        W97348  20.099  18.631   4.685
35895W        W97349  28.570  44.773  13.502
35896W        W97350  37.531  42.509  11.114
35897W        W97351  32.124  25.111   3.154
35898W        W97352  38.949  40.523  13.870
35899W        W97353  32.036  23.131   4.657
35900W        W97354  32.950  18.562   3.826
35901W        W97355  25.576  14.664  11.036
35902W        W97356  18.759  31.949  12.564
35903W        W97357  37.343  37.405   3.800
35904W        W97358   1.239  31.037  11.537
35905W        W97359  23.501   5.748  14.513
35906W        W97360  25.973  12.708  11.606
35907W        W97361  32.893  13.142   1.783
35908W        W97362  36.988  30.637   2.206
35909W        W97363  35.571  15.627  11.547
35910W        W97364  39.964  41.944   4.235
35911W        W97365  18.230  17.653   2.865
35912W        W97366  33.410   1.476   0.870
35913W        W97367  33.453   1.438   4.243
35914W        W97368  20.236  42.460   4.178
35915W        W97369  26.149  44.470   0.753
35916W        W97370  18.751  23.240   4.684
35917W        W97371   6.218  26.995  13.416
35918W        W97372  32.065  12.779   5.237
35919W        W97373  38.016  44.305   4.765
35920W        W97374   6.873   6.305   4.663
35921W        W97375  39.382  36.982  12.429
35922W        W97376  37.581   4.759  11.413
35923W        W97377  29.135  29.009   4.278
35924W        W97378  32.013   2.395   2.243
35925W        W97379  31.457  30.559   2.744
35926W        W97380  41.852  34.888  14.420
35927W        W97381  22.198  24.975  14.985
35928W        W97382  24.981  15.190  13.057
35929W        W97383  28.452  17.242  13.920
35930W        W97384  16.101  20.735   0.881
35931W        W97385   6.349  18.626  12.349
35932W        W97386   9.853  35.602  13.795
35933W        W97387  33.027   5.705  12.438
35934W        W97388  14.699   5.730  12.062
35935W        W97389  25.200  25.483   2.352
35936W        W97390  43.020  16.241   4.201
35937W        W97391  30.974  44.958   4.652
35938W        W97392  39.942  21.133   2.886
35939W        W97393  37.058  32.462   0.375
35940W        W97394   1.926  18.228   2.792
35941W        W97395   4.706  44.366   2.873
35942W        W97396   7.368   6.212   0.959
35943W        W97397  24.540   6.364   0.393
35944W        W97398  34.581   0.918   3.704
35945W        W97399  44.360  34.059   4.815
35946W        W97400  10.874  17.585   4.344
35947W        W97401  24.709   2.843   3.668
35948W        W97402  37.537   8.738   3.198
35949W        W97403  30.449  36.952  10.413
35950W        W97404  20.219  24.490  13.064
35951W        W97405  22.188  43.928  12.885
35952W        W97406  28.540   1.799  11.092
35953W        W97407   8.263  29.130  12.827
35954W        W97408  38.927  12.852   1.832
35955W        W97409  25.549  26.087   2.704
35956W        W97410  38.017  34.459  13.960
35957W        W97411   9.305  40.547  13.869
35958W        W97412  34.925  33.582  14.354
35959W        W97413   0.962  33.432   4.720
35960W        W97414   6.779  37.995   2.313
35961W        W97415  35.098  13.245  11.547
35962W        W97416  21.080  12.174   2.355
35963W        W97417  14.632  24.226   1.432
35964W        W97418   5.758  23.660   3.681
35965W        W97419  22.715  14.230  12.059
35966W        W97420  13.765   0.835   1.244
35967W        W97421  25.709  38.060  11.395
35968W        W97422  11.347  36.413   0.763
35969W        W97423  40.503   0.977   5.176
35970W        W97424  35.049   6.384   2.755
35971W        W97425   6.726   7.345  10.527
35972W        W97426  28.436  40.517  10.491
35973W        W97427  33.019  32.449  14.283
35974W        W97428   3.922  40.996   4.178
35975W        W97429  19.604   6.295  12.435
35976W        W97430  41.902  24.577   4.787
35977W        W97431  31.544  33.559  13.411
35978W        W97432  42.393  33.626   1.293
35979W        W97433  23.491  18.609  13.026
35980W        W97434  17.108  25.649   0.252
35981W        W97435  37.882  18.750  10.969
35982W        W97436  19.706  21.217   0.963
35983W        W97437  25.519  26.207   3.268
35984W        W97438   9.688  25.582  11.008
35985W        W97439  32.936  30.480  10.564
35986W        W97440  34.890   3.236  14.857
35987W        W97441  31.977  17.717   4.805
35988W        W97442   3.339   2.814  12.569
35989W        W97443   2.336   4.812   9.957
35990W        W97444  44.794  32.137   4.297
35991W        W97445   5.361  36.568   4.207
35992W        W97446   6.216   8.216   1.241
35993W        W97447  34.437   9.214   1.279
35994W        W97448  38.878  11.826  12.402
35995W        W97449  13.287  20.712  12.097
35996W        W97450  16.099  34.109  14.932
35997W        W97451  31.015  26.468   4.723
35998W        W97452  32.071  35.397   2.750
35999W        W97453  14.681  26.174   3.844
36000W        W97454  24.652  28.083   1.281
36001W        W97455   6.715  14.291   1.846
36002W        W97456  41.428  17.240   5.260
36003W        W97457  32.557  40.830   2.728
36004W        W97458  15.238  33.526  10.448
36005W        W97459  38.039  16.807   3.790
36006W        W97460  13.125  20.624   5.213
36007W        W97461   6.704  15.278  14.275
36008W        W97462   6.341  29.472  12.837
36009W        W97463  43.846  11.174  10.415
36010W        W97464  12.284  29.487  11.407
36011W        W97465  32.412  20.570   2.352
36012W        W97466  20.183  41.305  14.375
36013W        W97467   9.658  24.008   0.308
36014W        W97468  22.627  26.563  12.434
36015W        W97469  16.666  32.429  12.962
36016W        W97470  11.732   4.403  13.857
36017W        W97471  44.362  40.857   0.822
36018W        W97472   7.666  29.567   0.253
36019W        W97473  12.259  24.074   4.799
36020W        W97474  11.161  30.947  14.474
36021W        W97475  37.841  19.244   4.833
36022W        W97476  10.297  14.824   2.813
36023W        W97477  37.383  12.734  14.455
36024W        W97478  36.537   1.755  14.980
36025W        W97479   5.431   1.824   1.888
36026W        W97480   9.272  32.096  13.371
36027W        W97481  21.718  30.435  12.972
36028W        W97482  28.137  28.588  12.556
36029W        W97483   7.753  42.483   2.359
36030W        W97484   4.905  18.648  13.383
36031W        W97485  12.165  26.580   4.293
36032W        W97486  38.333  31.546   0.729
36033W        W97487   8.330  17.585  10.428
36034W        W97488  20.606  39.859   2.267
36035W        W97489  30.588   5.382  10.439
36036W        W97490  28.503  16.654  11.023
36037W        W97491   3.298  31.643  13.378
36038W        W97492  29.523  31.402   0.777
36039W        W97493  18.639   4.835  12.506
36040W        W97494  15.729  22.515   1.754
36041W        W97495  33.457  17.586   0.797
36042W        W97496   4.735   5.692   2.761
36043W        W97497   9.776  26.020   4.702
36044W        W97498  43.379  39.858  11.124
36045W        W97499  21.653  42.812   2.754
36046W        W97500   6.326  29.050  13.512
36047W        W97501  12.745  19.689   2.369
36048W        W97502   8.269  35.571   2.411
36049W        W97503  12.264  10.192  13.977
36050W        W97504  36.976  21.689   4.161
36051W        W97505  35.973  32.073  12.413
36052W        W97506   1.812  13.751  12.369
36053W        W97507  26.566  34.538   1.406
36054W        W97508  12.257   3.781  12.886
36055W        W97509  29.512  40.378   4.783
36056W        W97510   9.737  42.370  14.991
36057W        W97511  15.313  38.374  11.459
36058W        W97512   8.702  10.860  10.542
36059W        W97513   8.396   0.756   4.204
36060W        W97514  44.844   7.666   2.327
36061W        W97515  25.065  30.063  12.553
36062W        W97516   6.721   3.920   3.233
36063W        W97517   6.367  15.754  14.030
36064W        W97518  35.585   3.783  13.817
36065W        W97519   8.291  16.653   3.848
36066W        W97520  33.452  39.359   0.775
36067W        W97521   6.279  33.521   2.885
36068W        W97522  22.555   4.940  12.360
36069W        W97523  28.652   6.725  13.469
36070W        W97524  37.946  23.647   0.335
36071W        W97525  27.492  44.392   2.751
36072W        W97526   4.334  18.786  10.605
36073W        W97527  13.109  15.141  11.016
36074W        W97528  15.744   8.891  14.952
36075W        W97529  12.315  43.947  10.573
36076W        W97530  30.054   7.845  10.937
36077W        W97531  28.449  16.151  13.046
36078W        W97532  29.535  18.167   0.350
36079W        W97533  27.104  23.569   3.741
36080W        W97534  22.079  39.519  12.024
36081W        W97535  28.606  24.102   4.669
36082W        W97536   6.333  30.049  12.892
36083W        W97537  30.990  31.620  14.854
36084W        W97538  31.067  24.551   0.778
36085W        W97539  20.096  26.474   0.311
36086W        W97540  44.885  39.980   3.352
36087W        W97541  40.510  32.451   3.843
36088W        W97542   8.336   9.767   2.314
36089W        W97543  28.130   3.299  12.932
36090W        W97544  22.559   3.340   3.759
36091W        W97545  11.153   0.489  11.539
36092W        W97546  30.951   7.904   3.270
36093W        W97547  20.118  10.214   0.327
36094W        W97548  14.180  11.139  12.860
36095W        W97549  26.666  21.535   1.815
36096W        W97550  21.185  39.840  12.052
36097W        W97551  18.153  33.616   1.883
36098W        W97552  40.396  19.155  11.406
36099W        W97553   7.770  40.991  13.511
36100W        W97554   2.811  37.400   1.242
36101W        W97555  26.032  21.704   9.993
36102W        W97556   4.710  13.826   4.147
36103W        W97557  24.977  23.628   0.354
36104W        W97558  20.076  13.810  13.468
36105W        W97559   9.268  34.077   4.679
36106W        W97560   5.823  11.756   2.314
36107W        W97561  35.511  37.040   1.891
36108W        W97562  38.544  37.891   3.848
36109W        W97563  11.684  22.123  13.512
36110W        W97564  22.067  15.652  12.993
36111W        W97565  30.586  41.365   2.178
36112W        W97566  43.401  42.925  12.858
36113W        W97567   0.469  38.850  10.924
36114W        W97568   7.755  32.986   0.738
36115W        W97569   2.754  23.621   4.302
36116W        W97570  27.026  31.425   0.829
36117W        W97571  11.781  23.520  11.573
36118W        W97572   1.296  25.096   1.765
36119W        W97573  41.532  21.530   4.837
36120W        W97574   5.774  13.715   2.224
36121W        W97575  15.611  42.921   4.175
36122W        W97576   4.898  10.193  11.095
36123W        W97577  26.479  17.067  11.920
36124W        W97578  20.227  28.177  12.851
36125W        W97579  14.772  38.890   2.867
36126W        W97580  14.241  21.206   2.322
36127W        W97581   0.944  22.520  14.477
36128W        W97582  27.449  44.827  12.870
36129W        W97583  28.040  18.112   0.333
36130W        W97584   4.899  11.290   5.284
36131W        W97585   7.776  29.930  13.411
36132W        W97586  14.696   4.873   5.209
36133W        W97587  28.477  26.139   0.800
36134W        W97588  13.717  38.325  13.475
36135W        W97589  23.064  35.562   2.771
36136W        W97590   4.811  37.835  14.471
36137W        W97591  43.320  12.275   4.170
36138W        W97592  31.948  25.097  13.967
36139W        W97593  12.670  22.194   0.839
36140W        W97594  21.051  41.955  11.107
36141W        W97595   5.431  11.209   2.852
36142W        W97596  41.978  23.675  11.027
36143W        W97597  20.044  16.712   2.185
36144W        W97598   7.841  15.648  13.512
36145W        W97599  19.154  34.069  12.847
36146W        W97600  41.931  20.733  14.455
36147W        W97601  39.911  18.223  10.967
36148W        W97602  38.475  34.104   0.931
36149W        W97603  33.624   0.912  13.447
36150W        W97604  26.703  31.417   3.652
36151W        W97605   6.727  23.986  14.475
36152W        W97606  36.053  26.121  10.517
36153W        W97607  13.813   2.764   0.742
36154W        W97608  33.433  28.050   3.181
36155W        W97609  14.295  16.620  11.552
36156W        W97610  24.052  21.697  11.858
36157W        W97611  32.945  15.147  13.874
36158W        W97612  34.436  15.663  11.915
36159W        W97613  42.971  38.541  14.843
36160W        W97614  35.545  12.710  11.437
36161W        W97615  23.699  37.373  10.452
36162W        W97616  27.563   6.827   0.351
36163W        W97617  38.487  32.136  11.870
36164W        W97618  39.029  37.910   0.938
36165W        W97619  38.040   4.305   4.293
36166W        W97620  13.615  26.563  12.356
36167W        W97621  43.914  24.199   0.309
36168W        W97622  31.089   8.283   2.384
36169W        W97623  43.883  33.460  11.560
36170W        W97624  11.305  42.968   3.838
36171W        W97625  41.845  35.959   2.725
36172W        W97626  33.613  12.617  13.520
36173W        W97627   2.375  38.948  12.399
36174W        W97628  42.959   4.297   2.821
36175W        W97629  16.642  41.385  10.011
36176W        W97630  30.576  34.608  14.404
36177W        W97631  31.147  14.249  13.927
36178W        W97632  27.543   3.215   5.083
36179W        W97633  20.259  19.122   3.272
36180W        W97634  21.179  34.105  13.439
36181W        W97635  30.468   6.764  13.034
36182W        W97636  37.881  17.208  12.009
36183W        W97637  34.482  43.837  10.545
36184W        W97638  32.940  42.987   4.770
36185W        W97639  40.481  22.243  13.054
36186W        W97640  31.483   7.886   3.659
36187W        W97641  18.773  13.783   0.890
36188W        W97642  19.630  20.649   4.712
36189W        W97643  18.264  41.910   3.727
36190W        W97644  29.987  11.254  14.011
36191W        W97645  33.879  29.957  10.463
36192W        W97646  33.433  43.982   0.821
36193W        W97647  18.725  16.212   2.377
36194W        W97648  26.485  21.720  11.551
36195W        W97649  29.441   7.182   1.339
36196W        W97650  37.517   5.776  14.370
36197W        W97651   6.830  38.074   3.250
36198W        W97652  11.157   8.307  14.278
36199W        W97653  29.073  35.871  10.455
36200W        W97654  23.230  23.214  11.606
36201W        W97655  21.209  43.878  12.559
36202W        W97656  12.651  32.576  11.028
36203W        W97657  15.709  27.100  13.543
36204W        W97658  32.993  37.377  14.002
36205W        W97659  29.570  40.036  14.943
36206W        W97660  24.043  26.105  13.420
36207W        W97661  41.865  32.140   2.890
36208W        W97662  18.247   0.799   3.224
36209W        W97663  16.738  22.055  14.479
36210W        W97664  44.290  37.443  10.420
36211W        W97665  42.338   8.857  10.426
36212W        W97666  35.494  31.029  10.585
36213W        W97667  21.208   3.774   0.748
36214W        W97668  10.325  16.140   0.304
36215W        W97669  33.598  31.525   1.786
36216W        W97670  19.677  25.488   3.770
36217W        W97671  21.084  11.304  13.537
36218W        W97672  31.021  10.707   3.160
36219W        W97673  29.660  10.867   5.150
36220W        W97674  36.931  32.096  11.105
36221W        W97675  28.563  35.388  10.150
36222W        W97676   4.410  11.841  10.451
36223W        W97677  41.412  24.586  14.313
36224W        W97678   3.354  31.023   5.261
36225W        W97679  20.043  22.651   1.887
36226W        W97680  20.565  14.139   0.245
36227W        W97681  26.124  29.009  13.427
36228W        W97682   2.848  25.131  14.853
36229W        W97683  40.363  42.890  12.502
36230W        W97684  43.905  15.180  11.058
36231W        W97685   0.275  32.976  12.946
36232W        W97686  39.857  26.967  13.358
36233W        W97687  26.123   2.803  11.372
36234W        W97688  13.191  27.503   0.417
36235W        W97689  21.070  25.047   1.763
36236W        W97690  32.895  22.010   1.242
36237W        W97691  44.974  14.609  11.042
36238W        W97692  27.559  38.493   0.274
36239W        W97693  41.432  11.182  10.552
36240W        W97694   1.453  21.141  11.053
36241W        W97695  17.083  36.858  14.854
36242W        W97696  37.397  38.067   3.733
36243W        W97697   6.228   8.396   2.761
36244W        W97698   7.361   7.320  13.881
36245W        W97699  41.901  26.180   2.744
36246W        W97700  21.059  16.116  11.080
36247W        W97701  25.060  34.938   9.504
36248W        W97702  39.556  18.095  14.358
36249W        W97703  15.696  30.988  12.040
36250W        W97704  39.836  27.968  13.346
36251W        W97705  14.207  23.056   4.203
36252W        W97706   6.386  21.240   1.775
36253W        W97707  18.621  34.016  11.508
36254W        W97708   8.397  13.777  10.952
36255W        W97709  19.620  12.164  11.541
36256W        W97710   8.856  27.110   3.667
36257W        W97711   0.817  33.429  12.828
36258W        W97712  12.683  25.666  12.340
36259W        W97713  22.148  36.857  12.555
36260W        W97714  25.059  20.640  12.418
36261W        W97715  16.096  11.622   4.123
36262W        W97716  40.498  36.055   4.280
36263W        W97717  35.038  30.510   4.321
36264W        W97718  37.398  10.859   0.290
36265W        W97719   8.195  20.133   0.354
36266W        W97720  27.583  42.462  14.991
36267W        W97721  41.011  39.478   9.601
36268W        W97722   0.386  18.249   2.755
36269W        W97723  39.972  13.679   2.284
36270W        W97724  40.386  19.691   0.255
36271W        W97725  25.114  12.720  14.948
36272W        W97726  13.826  22.056  10.437
36273W        W97727   9.787  22.538   2.898
36274W        W97728   9.884  29.037   3.367
36275W        W97729   4.935   8.180   2.218
36276W        W97730  24.997  35.426   1.259
36277W        W97731  38.922  22.246   1.336
36278W        W97732  32.974  35.565   3.685
36279W        W97733   6.230   8.737  10.460
36280W        W97734  14.335  11.716   3.783
36281W        W97735  19.094  21.248   9.933
36282W        W97736  38.904  41.301  11.095
36283W        W97737  23.630  39.542   0.422
36284W        W97738  15.822  39.046  12.555
36285W        W97739   1.255  23.049  12.068
36286W        W97740  33.468  28.569  10.446
36287W        W97741  24.507  20.590  13.005
36288W        W97742  17.201  33.028  11.407
36289W        W97743  21.152   8.387  12.578
36290W        W97744   6.699  38.883   4.298
36291W        W97745  26.523  44.276   3.297
36292W        W97746  24.502  11.152  11.023
36293W        W97747  40.537  28.104  13.392
36294W        W97748  15.274  18.062   3.846
36295W        W97749  30.538  14.209   2.328
36296W        W97750  24.660   1.463   0.864
36297W        W97751  26.579   3.419  14.843
36298W        W97752  14.117  29.572   3.146
36299W        W97753   1.446   5.913  10.535
36300W        W97754  26.523   0.390  10.015
36301W        W97755  43.324  11.645  10.907
36302W        W97756  18.547  28.510  13.494
36303W        W97757  40.339  23.225  14.885
36304W        W97758  30.927   0.453  11.439
36305W        W97759   7.209  35.509  11.596
36306W        W97760  34.498   0.976  14.880
36307W        W97761  42.867  16.296   2.898
36308W        W97762  24.532  32.119  14.950
36309W        W97763  28.095  18.647  10.515
36310W        W97764  39.321  40.840   0.279
36311W        W97765  19.769  28.650   2.722
36312W        W97766  36.880   4.908  14.840
36313W        W97767   2.245  25.615   4.701
36314W        W97768  14.162  42.304  10.151
36315W        W97769  15.131  20.670   0.763
36316W        W97770  37.869  11.772  14.499
36317W        W97771  18.678  11.228   0.310
36318W        W97772  33.066  22.043  11.964
36319W        W97773  21.115  23.151  13.050
36320W        W97774  34.563   5.329   0.867
36321W        W97775  10.752  17.655  13.341
36322W        W97776  14.273   4.772   2.895
36323W        W97777   7.337  16.805  11.099
36324W        W97778  42.394  28.042   9.992
36325W        W97779  30.033  28.447   2.348
36326W        W97780  17.178  32.099  10.534
36327W        W97781  26.516   1.423  14.896
36328W        W97782  22.214   6.688   4.624
36329W        W97783  38.825  35.945   1.268
36330W        W97784  18.264  18.119   2.729
36331W        W97785  17.647   2.793   4.793
36332W        W97786  42.411   7.784   4.263
36333W        W97787  33.570  12.228   3.871
36334W        W97788   0.432   8.231   1.278
36335W        W97789  10.346  35.509  11.116
36336W        W97790  36.863   1.267   1.215
36337W        W97791   1.917  31.404   3.741
36338W        W97792  11.821  43.956   0.342
36339W        W97793  29.123  22.692   4.802
36340W        W97794  36.863  41.503  14.961
36341W        W97795  22.190  24.129  12.084
36342W        W97796   3.445  13.271  14.866
36343W        W97797  38.069  13.620  14.968
36344W        W97798  35.935  43.898   3.699
36345W        W97799  32.980  26.191  11.594
36346W        W97800  34.916   7.386  12.841
36347W        W97801  32.015  31.027  12.932
36348W        W97802  42.856  18.715   3.644
36349W        W97803  27.545  27.050   0.389
36350W        W97804   8.243  28.557   3.746
36351W        W97805   2.882  22.520   1.244
36352W        W97806  16.746  13.803  14.312
36353W        W97807  15.263  14.748   4.150
36354W        W97808  31.049  34.970   5.218
36355W        W97809  14.205  23.714  10.499
36356W        W97810  32.039   5.776   2.276
36357W        W97811  25.602  10.232  14.854
36358W        W97812  14.705  43.471   4.333
36359W        W97813  37.999   8.367   1.714
36360W        W97814  25.071  42.311   4.258
36361W        W97815  29.598  37.403  14.988
36362W        W97816   0.890  41.469   3.818
36363W        W97817  14.213  33.617   2.217
36364W        W97818  38.846  31.131   1.282
36365W        W97819   3.747  41.534  13.004
36366W        W97820  27.196  42.382   4.788
36367W        W97821  33.561  23.241  13.500
36368W        W97822   1.345  35.391   3.366
36369W        W97823   8.273  41.455  11.540
36370W        W97824  14.705   8.353   4.834
36371W        W97825  19.695  21.558  14.383
36372W        W97826   5.246  39.466  11.005
36373W        W97827   3.420  39.815   0.346
36374W        W97828   9.808  11.368   0.330
36375W        W97829  24.125  44.316  14.827
36376W        W97830  34.110  28.079  13.016
36377W        W97831  19.748   6.782  11.858
36378W        W97832  31.117  17.145   0.905
36379W        W97833  17.765   3.905  14.331
36380W        W97834  25.477  40.527   4.800
36381W        W97835  26.992  25.211  14.290
36382W        W97836  43.432  14.630   4.788
36383W        W97837  20.637   5.262  14.453
36384W        W97838   8.236  32.924  13.990
36385W        W97839   4.926   3.382   3.173
36386W        W97840  22.622  14.631   0.927
36387W        W97841  33.424  18.658  13.456
36388W        W97842  31.471  43.454   2.228
36389W        W97843  22.089  42.487  13.815
36390W        W97844  44.883  20.143   0.283
36391W        W97845  33.090   0.895   1.423
36392W        W97846  33.962   6.813  12.572
36393W        W97847  15.718  35.445   2.316
36394W        W97848  28.461  16.731  14.852
36395W        W97849   7.819  23.163  12.407
36396W        W97850  26.616  13.295   0.469
36397W        W97851   4.421  22.184  13.466
36398W        W97852  34.021  14.212  13.420
36399W        W97853  28.584  38.885   1.269
36400W        W97854   7.328   9.224   3.363
36401W        W97855  25.569  21.575   1.419
36402W        W97856  26.187  18.142  12.464
36403W        W97857   5.314  21.094   3.670
36404W        W97858   3.953  14.240   2.693
36405W        W97859  34.868   1.250   4.805
36406W        W97860   4.834  21.687  10.129
36407W        W97861  26.176  12.753  11.967
36408W        W97862  15.802   0.866   4.597
36409W        W97863  29.129  18.699  13.879
36410W        W97864  29.997   5.906   3.641
36411W        W97865  27.485  42.993   0.871
36412W        W97866  31.600   2.897  13.967
36413W        W97867  16.746   6.867   4.250
36414W        W97868  23.568  26.093  14.324
36415W        W97869  11.364  31.059   2.261
36416W        W97870  22.638   4.806  11.529
36417W        W97871  19.277   0.431  13.854
36418W        W97872   2.426  35.009   2.300
36419W        W97873  43.398  23.187  13.951
36420W        W97874   2.342  42.031   0.848
36421W        W97875   2.386  13.161   2.275
36422W        W97876  17.120  40.830   3.321
36423W        W97877  23.087  36.852   3.715
36424W        W97878  42.496  17.145   0.857
36425W        W97879   0.776  30.951  12.562
36426W        W97880  12.680  35.868   2.880
36427W        W97881   7.249  10.694  14.509
36428W        W97882  42.811  35.380   0.895
36429W        W97883  25.138  19.545   2.839
36430W        W97884  27.564  24.117   2.328
36431W        W97885  41.501  14.120  11.980
36432W        W97886  17.238  43.473   1.412
36433W        W97887  38.454  16.190   1.380
36434W        W97888  20.565   2.322   4.281
36435W        W97889   1.429  21.158   3.236
36436W        W97890  31.552  28.125   4.286
36437W        W97891  41.921   7.773   0.464
36438W        W97892   1.881  35.390  14.860
36439W        W97893  38.062  17.214   4.727
36440W        W97894  42.873  20.757  10.583
36441W        W97895  37.581   5.376   0.360
36442W        W97896  44.777  23.086   0.760
36443W        W97897  21.152  31.516  14.443
36444W        W97898  44.785  32.483  12.446
36445W        W97899  38.477   7.207  10.909
36446W        W97900  15.274  38.849   1.219
36447W        W97901  39.343  15.693   4.209
36448W        W97902  40.393  14.658   2.277
36449W        W97903  11.303  16.673   0.471
36450W        W97904  40.972  32.487  14.892
36451W        W97905  11.307  39.432   0.461
36452W        W97906  34.987  32.010   3.689
36453W        W97907  36.932  13.178   4.695
36454W        W97908  15.290  15.163   4.141
36455W        W97909  15.762  16.191   3.370
36456W        W97910   1.945  29.980   1.407
36457W        W97911  18.768  16.617  10.441
36458W        W97912  43.310   4.410   0.372
36459W        W97913  17.260   9.863   0.872
36460W        W97914   3.267  11.795   1.893
36461W        W97915  29.499  36.445  10.924
36462W        W97916  11.747  28.512  13.379
36463W        W97917  36.406  23.157  13.547
36464W        W97918  12.775  36.937  13.526
36465W        W97919  26.175  14.650   2.812
36466W        W97920  35.871  41.932   2.742
36467W        W97921   6.253  37.986  13.009
36468W        W97922   5.847  37.369   3.791
36469W        W97923  24.532  26.026   1.319
36470W        W97924   3.773  37.507  10.012
36471W        W97925  12.120  11.233  10.907
36472W        W97926  14.592   1.813  14.435
36473W        W97927  13.620  13.788  13.044
36474W        W97928  11.691  38.840   4.208
36475W        W97929   1.327  10.828  11.505
36476W        W97930  25.493   0.375   4.209
36477W        W97931  12.301  26.569  14.956
36478W        W97932   5.692  10.238  14.973
36479W        W97933   5.855  43.296   3.233
36480W        W97934   0.294   4.315   1.925
36481W        W97935  27.573  15.584  11.542
36482W        W97936  17.253  30.565   0.833
36483W        W97937  30.587  16.711  14.932
36484W        W97938   3.758  38.908   1.422
36485W        W97939   9.220   6.861  12.975
36486W        W97940  17.717   6.274  14.388
36487W        W97941  14.102  41.024  13.328
36488W        W97942  37.988  44.856  11.860
36489W        W97943  35.395  42.802   4.831
36490W        W97944  14.117  13.315   0.322
36491W        W97945  20.618   3.823  12.011
36492W        W97946  10.249   9.656   0.920
36493W        W97947  21.648  36.040  14.920
36494W        W97948  42.997  43.275  14.283
36495W        W97949  37.066  13.796   4.181
36496W        W97950  42.886  30.641   1.306
36497W        W97951  32.507  44.368  14.391
36498W        W97952  24.533  11.355  12.444
36499W        W97953  13.243  15.285   1.344
36500W        W97954  35.107  35.586  14.437
36501W        W97955  35.869   6.741  10.922
36502W        W97956  41.461  27.668   4.609
36503W        W97957  23.548  20.579  11.498
36504W        W97958   6.884   1.941   2.815
36505W        W97959  33.555  40.981  14.863
36506W        W97960   0.937  31.070  11.407
36507W        W97961  29.967  11.765   2.703
36508W        W97962  26.672  16.129   1.319
36509W        W97963  26.043  38.927   1.921
36510W        W97964  15.772   0.448   4.645
36511W        W97965  30.980  39.360   1.712
36512W        W97966  39.383  29.657  13.469
36513W        W97967   4.944  24.000  13.961
36514W        W97968  40.044  37.038  13.390
36515W        W97969  18.264  41.044   4.665
36516W        W97970  36.427  38.396   5.281
36517W        W97971   4.852  36.450   3.841
36518W        W97972  29.567   8.314   1.921
36519W        W97973   2.420  40.545  11.373
36520W        W97974  25.484  26.954  11.925
36521W        W97975  40.315  29.528   0.889
36522W        W97976  12.662  28.513   1.436
36523W        W97977  15.285   5.884  13.534
36524W        W97978  12.813  20.228  14.903
36525W        W97979  21.710  10.827  11.397
36526W        W97980  18.600  42.440   2.702
36527W        W97981  40.440  44.395  14.959
36528W        W97982  25.082  35.481  12.932
36529W        W97983  32.506  37.841  13.371
36530W        W97984  35.084  12.816  14.470
36531W        W97985   1.265  38.844  13.916
36532W        W97986  44.275  34.522   4.194
36533W        W97987  13.212   1.297   0.879
36534W        W97988  20.255  37.423   2.761
36535W        W97989   5.303  36.007   2.294
36536W        W97990  10.373  31.602   3.633
36537W        W97991  26.028  24.034  10.154
36538W        W97992  36.918   3.446   4.810
36539W        W97993  14.197  36.037   3.796
36540W        W97994  12.636  25.000   1.896
36541W        W97995   1.301  23.028   1.794
36542W        W97996  25.639  34.437   3.280
36543W        W97997   7.298  16.208   1.247
36544W        W97998   9.870   6.299   3.251
36545W        W97999   1.739  39.515   2.314
36546W        W98000  33.988  34.499  12.524
36547W        W98001  13.626  33.109   4.725
36548W        W98002  19.598   3.247   0.849
36549W        W98003   0.881   2.789   2.339
36550W        W98004  24.570  17.582   2.414
36551W        W98005  39.443   2.427   3.822
36552W        W98006  34.088  34.901   1.273
36553W        W98007  18.198   3.729   0.369
36554W        W98008  23.620  27.610   0.312
36555W        W98009  24.536  25.048   2.753
36556W        W98010  37.948  38.493   1.292
36557W        W98011  21.560  32.134  13.475
36558W        W98012   7.306  38.906  13.428
36559W        W98013  12.612   2.851   1.762
36560W        W98014  19.576   5.195   0.895
36561W        W98015  31.110   4.443   3.353
36562W        W98016   6.882  22.069  12.996
36563W        W98017   4.357  32.889   0.737
36564W        W98018  13.607  12.650   4.114
36565W        W98019  10.269  24.018   4.327
36566W        W98020  31.549  34.956  14.025
36567W        W98021   3.939  27.018   1.393
36568W        W98022  13.345  29.923   2.862
36569W        W98023  44.371  41.894  14.360
36570W        W98024  21.630  16.168  14.918
36571W        W98025  15.674   5.728   2.298
36572W        W98026   0.249  24.570   4.792
36573W        W98027  10.692  11.660  13.547
36574W        W98028  41.353  16.778   0.904
36575W        W98029   7.345  11.686   2.857
36576W        W98030  19.071  44.295   4.119
36577W        W98031  21.126  13.691  10.972
36578W        W98032  34.988  19.075   2.268
36579W        W98033  12.257  43.402   3.654
36580W        W98034  16.215  24.002   2.322
36581W        W98035  11.723  16.312  14.279
36582W        W98036  31.126  32.101   3.298
36583W        W98037  39.041  41.450  12.475
36584W        W98038   5.751  37.552  10.432
36585W        W98039  41.410  44.880  12.515
36586W        W98040  39.857  16.758   0.381
36587W        W98041  32.443   0.372   2.874
36588W        W98042   9.370  38.494  12.015
36589W        W98043  35.035  35.028  11.506
36590W        W98044  24.603  28.069   4.785
36591W        W98045  18.157  24.507  12.859
36592W        W98046  30.527  40.466   1.846
36593W        W98047   2.397  29.669  12.356
36594W        W98048  15.091  39.006  13.012
36595W        W98049  43.848  37.512  14.358
36596W        W98050  42.477   8.789   3.742
36597W        W98051  22.710  30.604   1.311
36598W        W98052   7.399   0.852  11.441
36599W        W98053  25.074  24.225  13.010
36600W        W98054  15.584  23.085  13.050
36601W        W98055  10.642  40.864   3.707
36602W        W98056  44.313  39.928  11.417
36603W        W98057  26.558  28.052   3.180
36604W        W98058   6.216  27.993   4.787
36605W        W98059  43.903  31.628  14.900
36606W        W98060  41.333  11.358   4.701
36607W        W98061  33.095   8.227   2.178
36608W        W98062  41.804   9.856   1.306
36609W        W98063  28.046  42.029   2.723
36610W        W98064   4.254   3.727  12.344
36611W        W98065  17.677  27.092  12.057
36612W        W98066  12.356  40.968  14.362
36613W        W98067  16.201   1.868   3.268
36614W        W98068  27.655  18.124   0.796
36615W        W98069  31.152  18.741  12.902
36616W        W98070  13.739  43.386  12.031
36617W        W98071  18.166  26.617   0.402
36618W        W98072  38.505  35.979  12.005
36619W        W98073  21.628  18.114   1.910
36620W        W98074  19.170  21.183  14.358
36621W        W98075  21.638   5.355  13.974
36622W        W98076   2.450  16.292  12.398
36623W        W98077   4.826  14.694  14.339
36624W        W98078  13.120   9.203  12.891
36625W        W98079  14.335  36.998   3.730
36626W        W98080  36.370   1.449  10.506
36627W        W98081  31.597  24.063  14.471
36628W        W98082  24.131  38.373   2.352
36629W        W98083  13.253  29.174  13.931
36630W        W98084  12.252  42.427  13.905
36631W        W98085  11.672   8.726   0.386
36632W        W98086   6.906  32.483  14.904
36633W        W98087  19.043  38.859   4.650
36634W        W98088  35.526  33.443  14.359
36635W        W98089  16.268  16.652   4.822
36636W        W98090  28.936  31.902  10.928
36637W        W98091   6.833  28.106  10.564
36638W        W98092  29.940  43.354  12.960
36639W        W98093  12.790  40.936   3.841
36640W        W98094  23.590  37.960   0.464
36641W        W98095  28.173  30.144   9.973
36642W        W98096  24.026  17.129  12.438
36643W        W98097  11.355  41.853   0.477
36644W        W98098   7.817  31.154  12.020
36645W        W98099  24.712  40.309  14.343
36646W        W98100  40.967  10.193   1.923
36647W        W98101  21.602  34.378  13.406
36648W        W98102  10.379  20.175  10.561
36649W        W98103  43.435   1.893  12.448
36650W        W98104  20.185  39.848   1.919
36651W        W98105  15.817  11.349   5.593
36652W        W98106  23.002  31.516  14.475
36653W        W98107  35.361  21.064   2.229
36654W        W98108  20.140  39.437  10.987
36655W        W98109  32.572  14.193  11.428
36656W        W98110  13.340   8.727  14.942
36657W        W98111  13.643  21.613   3.741
36658W        W98112  11.691  14.676  12.980
36659W        W98113  17.221   2.358  10.550
36660W        W98114   0.949  40.995   3.169
36661W        W98115  24.202   5.910   5.243
36662W        W98116   9.241   5.921  12.550
36663W        W98117  44.376   8.346  10.485
36664W        W98118   0.334   7.175   3.198
36665W        W98119   3.859  35.507  10.988
36666W        W98120   3.265  24.621  13.843
36667W        W98121  10.304   2.249  11.030
36668W        W98122  33.992  41.395  11.100
36669W        W98123   3.412  39.895   2.873
36670W        W98124  20.074  13.189  11.506
36671W        W98125  30.029   7.182  12.881
36672W        W98126  31.560  29.137  11.461
36673W        W98127  23.584   2.453   1.856
36674W        W98128  18.283  11.368   2.317
36675W        W98129  12.250  40.042   2.790
36676W        W98130   6.334  26.604  13.924
36677W        W98131  19.574  32.505  10.507
36678W        W98132   8.897  27.077   0.926
36679W        W98133  18.195  19.566  11.014
36680W        W98134   4.311  38.517   0.851
36681W        W98135  10.867   6.370   3.259
36682W        W98136  32.106  15.775  12.387
36683W        W98137   3.387   2.864   0.304
36684W        W98138   3.806  16.100   2.666
36685W        W98139  29.050   1.280  13.411
36686W        W98140  31.462  44.949  10.475
36687W        W98141   4.789  20.536  11.901
36688W        W98142  20.106  37.982   2.751
36689W        W98143   5.829  33.575  14.485
36690W        W98144  32.099  40.435   4.713
36691W        W98145  22.721  31.555   4.697
36692W        W98146  33.016  38.348   0.798
36693W        W98147   9.329  22.522   2.263
36694W        W98148  12.257  37.915   2.668
36695W        W98149  24.523  44.825   3.697
36696W        W98150  25.964   7.820   3.330
36697W        W98151  36.900  15.275   4.190
36698W        W98152  13.714  15.242   4.678
36699W        W98153   6.248  19.272   0.471
36700W        W98154  39.493  25.640  14.926
36701W        W98155  15.664  15.638  12.351
36702W        W98156  39.340   6.767  12.932
36703W        W98157  29.463   8.260   0.268
36704W        W98158  27.183  19.166  11.979
36705W        W98159  33.525  42.819  10.988
36706W        W98160  16.293  14.611  11.508
36707W        W98161   2.783  31.481   3.749
36708W        W98162  44.818  36.051   2.415
36709W        W98163  41.339  40.825   4.249
36710W        W98164   9.782   8.383   3.726
36711W        W98165  13.816  40.495  10.510
36712W        W98166  25.481  36.582   4.240
36713W        W98167  17.729  16.788   1.417
36714W        W98168   3.340  19.253  14.859
36715W        W98169  32.013  10.262  14.277
36716W        W98170  25.639  22.629   0.376
36717W        W98171  42.919  36.947  12.539
36718W        W98172  18.066   8.884   0.841
36719W        W98173  15.328  42.941   5.213
36720W        W98174   9.229  15.623  13.426
36721W        W98175  29.028  11.327  13.063
36722W        W98176  11.361  37.439   3.308
36723W        W98177  15.795  32.903  12.991
36724W        W98178  44.443  19.646  13.398
36725W        W98179  19.587  24.016   0.911
36726W        W98180  29.526   2.383   0.828
36727W        W98181   9.162  30.498   4.261
36728W        W98182  10.361  27.613  14.410
36729W        W98183  39.553  34.913   9.923
36730W        W98184   7.173  18.730  13.523
36731W        W98185  37.517  33.963   2.891
36732W        W98186  33.098   1.332   1.719
36733W        W98187  27.178  22.547  10.003
36734W        W98188   3.821  42.871  12.573
36735W        W98189  12.224  22.212  13.882
36736W        W98190  15.242  29.549   1.254
36737W        W98191  28.099   0.277   1.297
36738W        W98192   6.370   2.325   3.800
36739W        W98193   9.215  29.098   1.800
36740W        W98194   4.394  40.002  14.462
36741W        W98195  19.572   3.899  14.940
36742W        W98196  29.450  11.691   2.824
36743W        W98197  22.725  39.522  12.388
36744W        W98198   8.360  10.703  12.838
36745W        W98199  10.641  14.725   0.351
36746W        W98200  10.751  36.047  13.525
36747W        W98201   8.821  13.139  11.035
36748W        W98202  19.242  13.816  14.914
36749W        W98203   4.840  28.615  14.779
36750W        W98204  25.057   0.940  13.480
36751W        W98205  15.104  22.742   3.320
36752W        W98206  44.383  28.537   4.828
36753W        W98207  18.204  26.168   3.772
36754W        W98208   2.418  22.176  12.944
36755W        W98209   8.326  27.045   4.243
36756W        W98210  14.599   0.365   0.814
36757W        W98211  28.962   3.346  14.976
36758W        W98212  25.173  28.139   1.805
36759W        W98213  32.096  29.022  10.947
36760W        W98214  43.011   5.910   4.764
36761W        W98215  11.146  39.833   1.846
36762W        W98216  20.565  21.662   3.231
36763W        W98217   3.379  29.982   0.816
36764W        W98218  14.821  44.978  12.374
36765W        W98219  28.134  41.982   3.257
36766W        W98220   0.248  24.525   2.338
36767W        W98221  24.090  40.951   2.872
36768W        W98222  35.429  19.541   3.745
36769W        W98223  13.688  20.629  14.838
36770W        W98224  18.752  43.765   0.741
36771W        W98225  34.888  42.778  11.027
36772W        W98226  19.214  33.483   2.721
36773W        W98227  29.554  27.615   1.910
36774W        W98228   1.774  44.491   1.699
36775W        W98229  30.909  25.500   3.300
36776W        W98230  35.592  22.101   3.243
36777W        W98231  12.353  21.119  13.486
36778W        W98232  37.078  10.679   2.338
36779W        W98233   9.324   9.676   1.403
36780W        W98234   8.347  43.990  13.039
36781W        W98235  28.178  24.180  12.864
36782W        W98236  42.823  21.169  11.548
36783W        W98237  43.840  40.497  11.090
36784W        W98238  24.171   2.928  13.921
36785W        W98239  12.794  14.749   0.786
36786W        W98240  24.991  17.576  12.916
36787W        W98241  15.663  34.576  12.854
36788W        W98242  35.977  10.648   1.696
36789W        W98243  12.285  33.093   0.398
36790W        W98244  42.974  30.476   3.641
36791W        W98245  26.585  24.994   2.359
36792W        W98246   3.403   6.277   0.780
36793W        W98247  20.738  40.801  14.777
36794W        W98248  33.563   6.381  14.009
36795W        W98249  24.686   1.852   4.254
36796W        W98250  15.689   2.232   4.651
36797W        W98251  35.949  25.656   1.263
36798W        W98252  36.025  11.804   3.787
36799W        W98253   6.766  21.198  13.348
36800W        W98254   6.846  18.105   1.798
36801W        W98255  25.987  16.304  12.396
36802W        W98256  10.856  44.847   0.777
36803W        W98257  19.565  35.427   1.764
36804W        W98258  38.953  28.945  14.985
36805W        W98259  15.251  16.208   4.691
36806W        W98260   9.151  33.098  14.877
36807W        W98261  31.639  15.586   0.477
36808W        W98262  16.655  21.179  10.600
36809W        W98263  17.659  10.727  11.488
36810W        W98264   9.150  25.470   4.129
36811W        W98265  28.064  38.503   2.224
36812W        W98266  27.043  34.022  12.418
36813W        W98267  31.607  23.008   2.374
36814W        W98268  16.657  32.986  11.479
36815W        W98269   7.713  19.090  13.377
36816W        W98270  12.196  38.055  14.927
36817W        W98271  44.996  26.025   3.197
36818W        W98272  20.735  41.371  13.063
36819W        W98273   9.293  35.394   3.266
36820W        W98274  11.357  30.467   4.319
36821W        W98275  36.097  42.303   9.515
36822W        W98276  28.115  34.420   1.404
36823W        W98277  17.251   2.870  13.861
36824W        W98278   8.340  36.009   2.382
36825W        W98279  22.633  42.908   1.225
36826W        W98280  31.494  17.692  10.539
36827W        W98281  26.112   7.277  12.832
36828W        W98282  20.133  30.593   4.625
36829W        W98283  24.618  29.568  13.393
36830W        W98284  37.440   6.676  10.638
36831W        W98285   5.233  23.002  12.346
36832W        W98286   0.784   3.397  11.884
36833W        W98287   6.888  41.413   0.436
36834W        W98288  31.995   2.248  14.452
36835W        W98289  26.663   2.923  12.051
36836W        W98290  11.361  38.534   2.802
36837W        W98291  35.036   5.396  12.901
36838W        W98292  44.503   3.720  11.058
36839W        W98293   8.665  38.421   0.808
36840W        W98294  16.154  20.096  12.881
36841W        W98295  13.201  35.870   0.876
36842W        W98296  31.539   4.296  10.619
36843W        W98297  35.399  40.459  13.383
36844W        W98298  17.294   8.856  13.479
36845W        W98299  31.545  25.046   0.894
36846W        W98300  41.841  28.537   4.223
36847W        W98301  30.025  16.649  10.915
36848W        W98302  35.369  31.512   3.259
36849W        W98303  31.460   8.249   2.384
36850W        W98304  12.271  32.494  14.448
36851W        W98305   9.341  14.157   2.325
36852W        W98306  39.526  43.512   0.791
36853W        W98307   7.389   7.253  10.483
36854W        W98308   5.889  35.016   2.773
36855W        W98309   3.934  44.411  12.082
36856W        W98310  40.852   1.367  13.538
36857W        W98311  19.737  24.175   1.711
36858W        W98312  37.930   1.321  12.941
36859W        W98313  25.708  39.368   2.335
36860W        W98314  35.063   2.390   2.265
36861W        W98315  39.878   1.946   4.617
36862W        W98316   2.842  41.913  14.494
36863W        W98317   8.784  38.934   4.304
36864W        W98318  17.307  15.589   3.707
36865W        W98319  35.990  39.883   5.692
36866W        W98320   1.388   2.291  14.398
36867W        W98321  42.351  25.597   1.354
36868W        W98322   1.898  42.407   1.844
36869W        W98323   3.763  28.134   5.255
36870W        W98324  25.713   3.450   5.619
36871W        W98325  40.509  20.117   0.302
36872W        W98326  20.647  25.155  14.414
36873W        W98327  42.844  38.940   4.682
36874W        W98328  13.792  38.444  13.830
36875W        W98329  41.011   0.849   4.308
36876W        W98330  35.453   2.871   1.698
36877W        W98331   3.740  10.379   1.871
36878W        W98332   9.660  42.445  14.029
36879W        W98333  27.184  28.663  13.539
36880W        W98334   4.744  43.835   1.425
36881W        W98335   3.817  38.335   1.914
36882W        W98336   2.423  12.689  14.364
36883W        W98337  41.479  10.176  12.460
36884W        W98338  44.881   8.686  13.826
36885W        W98339  39.446  44.367   1.347
36886W        W98340  34.076  16.232   2.851
36887W        W98341  17.235  30.413   1.875
36888W        W98342  20.219  33.114   4.597
36889W        W98343  19.164  40.002  12.985
36890W        W98344   1.769  11.346   0.839
36891W        W98345  36.939  40.906   0.760
36892W        W98346  28.628   7.356  13.895
36893W        W98347  38.473  38.924   3.735
36894W        W98348  25.139  12.707  11.398
36895W        W98349  42.375  25.532   2.217
36896W        W98350  31.403   0.864  14.386
36897W        W98351  29.985   8.171  12.460
36898W        W98352   1.887  20.030   4.184
36899W        W98353  34.005  19.254   1.294
36900W        W98354  16.622  24.179   3.636
36901W        W98355  20.212  31.069  13.811
36902W        W98356   6.677  34.037   4.196
36903W        W98357   6.383  33.116  14.858
36904W        W98358  39.334  17.254  10.930
36905W        W98359   4.781  26.968   2.261
36906W        W98360   5.844  31.567  10.907
36907W        W98361  36.451  14.795  12.040
36908W        W98362   3.903   3.267  12.032
36909W        W98363   3.817   4.344   2.788
36910W        W98364   4.324  41.313   1.733
36911W        W98365   7.774  26.643   1.417
36912W        W98366   1.304  13.187  13.867
36913W        W98367  22.248  41.860  11.458
36914W        W98368  19.171  13.134   0.957
36915W        W98369   0.432  34.529  13.477
36916W        W98370  14.308  10.320   0.738
36917W        W98371  37.885  15.682  11.394
36918W        W98372  32.490  15.137   2.207
36919W        W98373   4.324  42.002   2.379
36920W        W98374   8.688  27.154  12.552
36921W        W98375  17.078   4.786  12.979
36922W        W98376  26.055  44.422  10.589
36923W        W98377  44.480  35.881  10.945
36924W        W98378  15.611  12.635   2.388
36925W        W98379   5.363  23.570  11.128
36926W        W98380  38.886  44.493  12.427
36927W        W98381   5.366  15.113  11.513
36928W        W98382  40.334   4.445   3.335
36929W        W98383  37.911  33.559   0.273
36930W        W98384  15.743  12.184  10.571
36931W        W98385  33.901  12.305   4.237
36932W        W98386  34.541  25.678  11.419
36933W        W98387  41.356  24.601  12.891
36934W        W98388  26.124  41.341   0.883
36935W        W98389  30.907  44.457  13.935
36936W        W98390  16.083   0.304  10.554
36937W        W98391  31.024   7.905  14.407
36938W        W98392   0.875  25.967  14.434
36939W        W98393  15.753   9.320  12.944
36940W        W98394  43.449  31.943   0.354
36941W        W98395  18.668   7.806   4.335
36942W        W98396  38.857  21.212  10.504
36943W        W98397  27.020  31.085   0.312
36944W        W98398  14.202  30.550   1.436
36945W        W98399  38.401  40.376   1.279
36946W        W98400  21.635   5.426  10.108
36947W        W98401  14.794  11.134  10.137
36948W        W98402  40.887  13.192  14.997
36949W        W98403  27.584   4.380  10.430
36950W        W98404   6.264  32.008   3.255
36951W        W98405  17.298  12.841   5.123
36952W        W98406  35.088   6.779  12.549
36953W        W98407  19.711  43.331   0.835
36954W        W98408  22.589  35.407   1.271
36955W        W98409  42.526   8.268   4.763
36956W        W98410  21.126  27.673  11.004
36957W        W98411   8.271  24.108  11.916
36958W        W98412  22.249   3.273  14.277
36959W        W98413  32.039  21.750  14.980
36960W        W98414  28.059  21.089  14.324
36961W        W98415   2.935  26.081   4.181
36962W        W98416  10.362  19.044  12.430
36963W        W98417  12.793   9.369  13.025
36964W        W98418  41.300  33.893  14.416
36965W        W98419  19.596   3.461   4.144
36966W        W98420  11.235  17.171  12.022
36967W        W98421   6.231   2.743  11.511
36968W        W98422  34.868  11.715   4.339
36969W        W98423  11.854  15.585   5.205
36970W        W98424  29.170   6.760   3.648
36971W        W98425  34.060  17.209   4.822
36972W        W98426  15.277  23.692  12.429
36973W        W98427  31.581  17.240  11.978
36974W        W98428  25.092  37.559   1.871
36975W        W98429  39.836  10.244  10.500
36976W        W98430   4.767   8.742   0.263
36977W        W98431   2.790  31.014  14.310
36978W        W98432  30.440  17.707   2.322
36979W        W98433  20.203  37.580   3.257
36980W        W98434  39.411  28.467   2.416
36981W        W98435  14.273   1.374   0.471
36982W        W98436  35.573   3.312  11.065
36983W        W98437  20.702  13.217  14.930
36984W        W98438  11.707  30.632  13.311
36985W        W98439  16.209  30.427   5.149
36986W        W98440  20.111   7.263   5.305
36987W        W98441  44.921  23.493   1.326
36988W        W98442   0.825  34.449   4.176
36989W        W98443  43.384  34.094   0.786
36990W        W98444  26.622  11.854   3.174
36991W        W98445  25.004  27.530  10.532
36992W        W98446  31.082  14.764   4.200
36993W        W98447   7.191   2.298  14.824
36994W        W98448   0.269  22.741   3.833
36995W        W98449  14.279  37.886  12.929
36996W        W98450  19.722  15.728  13.545
36997W        W98451   3.885  25.126  10.105
36998W        W98452  31.618  30.569  11.903
36999W        W98453   8.173  36.003   1.275
37000W        W98454   2.740  40.508  14.967
37001W        W98455  40.339  21.547   2.679
37002W        W98456  15.106  39.461  13.811
37003W        W98457  22.094  36.896   2.259
37004W        W98458   8.328  41.332  13.964
37005W        W98459  23.521  27.048  10.485
37006W        W98460  16.628  19.703   3.820
37007W        W98461  35.074   0.906  14.995
37008W        W98462   5.877  14.753  14.995
37009W        W98463   2.318  10.760   2.721
37010W        W98464   0.964   0.804   0.921
37011W        W98465  34.456   7.173   3.231
37012W        W98466  33.912  19.739   0.461
37013W        W98467  41.459  37.861   4.623
37014W        W98468  14.167  32.438   2.891
37015W        W98469  42.891  30.502  13.955
37016W        W98470  38.457   2.792  13.871
37017W        W98471   2.255  30.951  11.027
37018W        W98472  19.156   9.747  11.859
37019W        W98473  11.784  14.710  11.449
37020W        W98474   6.701  31.129   0.414
37021W        W98475  25.176   8.697  14.313
37022W        W98476  37.991   5.698  11.526
37023W        W98477   4.941  38.513  11.907
37024W        W98478  41.923   4.754   1.447
37025W        W98479  24.025  20.632  11.413
37026W        W98480   1.409  12.337  11.403
37027W        W98481   2.720  37.987   4.196
37028W        W98482  38.066  43.957   1.905
37029W        W98483  35.452  40.488   5.177
37030W        W98484  38.330  29.087   3.782
37031W        W98485  24.027  38.565  14.973
37032W        W98486  16.180   6.395  12.506
37033W        W98487  16.235  31.628  12.401
37034W        W98488  31.547  31.936  12.917
37035W        W98489  28.455   9.761   4.242
37036W        W98490  19.587  31.599  14.958
37037W        W98491  17.771  24.679   0.249
37038W        W98492   0.967  38.451   1.438
37039W        W98493   6.288  13.172  14.305
37040W        W98494  20.028   6.713   5.236
37041W        W98495  23.218  29.502   3.786
37042W        W98496  17.110  23.123   3.703
37043W        W98497  33.389  27.455  14.492
37044W        W98498  15.223  39.902   9.438
37045W        W98499  19.057  39.031  13.829
37046W        W98500  27.627  43.851   1.347
37047W        W98501  16.775  17.073  12.853
37048W        W98502  20.528  29.570  10.634
37049W        W98503  31.981  35.108  10.921
37050W        W98504  34.958   6.406  13.357
37051W        W98505  41.032  22.119  13.317
37052W        W98506  32.934  41.989   2.216
37053W        W98507  23.085  35.986  10.433
37054W        W98508  40.471  38.555  11.452
37055W        W98509   1.471  19.636  13.839
37056W        W98510  22.729  10.371  10.917
37057W        W98511  22.053   1.912  10.510
37058W        W98512  21.743  36.585   2.899
37059W        W98513   7.700   3.336   0.781
37060W        W98514  19.165  29.531   1.303
37061W        W98515   1.457  40.998  14.939
37062W        W98516  10.821   6.210  12.538
37063W        W98517   1.827  41.515   0.746
37064W        W98518  24.600  13.119   3.863
37065W        W98519  14.640  21.606  13.435
37066W        W98520  19.139  16.112  14.892
37067W        W98521  10.235  11.197   2.800
37068W        W98522   6.793  35.581   1.360
37069W        W98523  35.435   4.374  14.015
37070W        W98524   3.222   4.251   2.226
37071W        W98525  18.583  32.892   0.375
37072W        W98526  42.881  30.142  11.599
37073W        W98527  31.023  23.041  14.787
37074W        W98528  24.216  42.319  11.020
37075W        W98529  35.516  34.900   1.724
37076W        W98530  18.695  11.831  11.496
37077W        W98531  29.996   6.199   4.792
37078W        W98532  12.713  13.723   3.341
37079W        W98533  16.738  16.251  14.342
37080W        W98534  32.635  24.149   3.314
37081W        W98535  11.712   8.765  13.911
37082W        W98536  43.007  25.559   4.193
37083W        W98537  26.060   0.827   0.402
37084W        W98538   4.758   5.769  13.935
37085W        W98539   4.373  15.695  14.892
37086W        W98540  34.932  25.066   4.247
37087W        W98541  32.396  16.261  13.848
37088W        W98542  44.919  20.548  14.394
37089W        W98543   3.744   3.327  11.050
37090W        W98544  23.549  14.336  12.007
37091W        W98545  14.592   1.397  14.016
37092W        W98546  39.853   7.713  13.993
37093W        W98547   6.278   3.254   2.790
37094W        W98548  26.068  42.859   3.191
37095W        W98549  31.926  16.164   4.308
37096W        W98550  31.622   6.351   3.800
37097W        W98551  27.621  12.626   1.404
37098W        W98552   7.312   3.260   4.350
37099W        W98553  18.732  32.040  13.866
37100W        W98554  11.772  22.609  13.057
37101W        W98555  18.094  41.892  13.307
37102W        W98556  32.045  40.997   0.405
37103W        W98557  19.615  29.128  12.474
37104W        W98558  13.823  27.692   3.207
37105W        W98559  11.669  12.289  14.783
37106W        W98560  11.741  14.199  13.479
37107W        W98561  26.166  30.983   4.295
37108W        W98562  39.854   9.773   1.718
37109W        W98563  44.901  28.960  12.411
37110W        W98564  44.855  23.054  14.946
37111W        W98565  38.931  12.153   3.716
37112W        W98566  22.036   3.257   1.880
37113W        W98567  16.640   6.702  13.492
37114W        W98568   6.325  17.180   2.698
37115W        W98569  41.926  24.229  11.383
37116W        W98570  11.673  34.081   0.446
37117W        W98571  37.904   7.820  12.033
37118W        W98572   5.278  32.926  14.475
37119W        W98573   0.970  10.747   2.769
37120W        W98574  24.657  38.510   2.720
37121W        W98575  37.926  33.626  11.482
37122W        W98576  31.405   3.810   0.463
37123W        W98577   5.693  43.869  10.970
37124W        W98578   9.809  44.825  12.371
37125W        W98579  23.083  39.420   4.770
37126W        W98580  23.151   8.289   1.706
37127W        W98581  15.722  30.613   4.256
37128W        W98582  36.086  44.801  11.433
37129W        W98583  39.917  41.805   1.885
37130W        W98584  35.916   0.328   3.255
37131W        W98585  29.111  38.435  12.393
37132W        W98586   9.370  42.834  14.018
37133W        W98587  12.157   6.250  10.406
37134W        W98588  11.776  34.613   2.773
37135W        W98589  44.967   1.410  12.534
37136W        W98590  24.162  37.491   5.219
37137W        W98591  27.689  29.663   1.898
37138W        W98592  10.771  33.054   3.845
37139W        W98593   7.671  35.857   4.826
37140W        W98594   2.944  32.891  14.819
37141W        W98595   6.227  42.393  11.942
37142W        W98596  35.369  16.268  14.018
37143W        W98597  38.468  20.535  14.493
37144W        W98598  19.127  17.634  13.475
37145W        W98599  16.154  21.592   4.798
37146W        W98600  20.690   3.413   0.880
37147W        W98601  19.266  31.539  14.823
37148W        W98602  18.640  18.287   4.789
37149W        W98603  31.481  15.287   4.636
37150W        W98604  34.863  10.867  12.546
37151W        W98605  26.099  15.678   2.771
37152W        W98606  32.952   5.865   0.877
37153W        W98607  43.874  26.501  13.990
37154W        W98608   6.266  11.669   3.369
37155W        W98609  35.391   1.739  12.374
37156W        W98610  41.501  36.084  11.857
37157W        W98611  23.580  28.611   1.739
37158W        W98612  26.184  18.723   3.757
37159W        W98613   7.697  24.537   2.385
37160W        W98614  27.450   3.439   3.745
37161W        W98615  30.530  28.071  10.639
37162W        W98616  43.823  40.938  11.546
37163W        W98617  18.154  32.992  12.384
37164W        W98618   8.379  17.142  11.015
37165W        W98619  20.102  21.245  10.440
37166W        W98620  34.550  12.746   2.374
37167W        W98621  42.886  40.831  11.447
37168W        W98622  31.422  16.747   3.703
37169W        W98623  44.876   9.788  12.866
37170W        W98624   1.773  30.422   3.679
37171W        W98625   7.743  44.877  12.524
37172W        W98626   0.961   0.932  11.429
37173W        W98627  40.828  21.143   3.182
37174W        W98628  11.231  33.123  13.310
37175W        W98629  23.211   7.332   3.704
37176W        W98630  44.891  32.474  14.363
37177W        W98631  38.489   7.876  14.834
37178W        W98632   0.438  26.463  14.954
37179W        W98633   8.180  19.198   0.824
37180W        W98634  22.709  18.228   4.345
37181W        W98635  26.953  21.697  11.474
37182W        W98636  39.544  10.676  14.399
37183W        W98637   1.894  25.036  14.435
37184W        W98638  23.059  19.624  12.836
37185W        W98639  20.597  36.375   2.254
37186W        W98640  11.834  15.314  11.945
37187W        W98641  34.051  36.015  14.946
37188W        W98642  35.542   9.160  14.945
37189W        W98643   9.374   1.882  11.860
37190W        W98644   4.406  32.930   2.828
37191W        W98645  14.152  25.096  14.849
37192W        W98646   1.438  21.724   1.798
37193W        W98647  12.256  34.571  11.971
37194W        W98648  27.455  34.976  10.039
37195W        W98649  41.029  38.997   4.184
37196W        W98650  37.918   2.760   0.271
37197W        W98651  40.958  40.330   2.896
37198W        W98652   1.459  23.591   2.291
37199W        W98653  27.062  16.810  12.435
37200W        W98654  44.462  18.628  13.476
37201W        W98655   5.725  17.089  10.488
37202W        W98656  31.013  29.070  10.892
37203W        W98657   3.790  13.742  11.446
37204W        W98658  25.611  22.051  11.413
37205W        W98659  12.621  33.914   2.192
37206W        W98660  17.623  35.446   0.252
37207W        W98661   2.858  39.448   0.400
37208W        W98662  43.274  38.954  13.541
37209W        W98663   9.676   7.722   2.409
37210W        W98664   0.331  40.028  12.552
37211W        W98665  25.688  41.831  12.410
37212W        W98666   7.776  13.617   3.821
37213W        W98667  12.830  43.850  11.888
37214W        W98668  16.573  25.200  11.910
37215W        W98669   5.723   1.396   3.857
37216W        W98670  14.594  44.423  14.813
37217W        W98671  10.204  44.970   2.704
37218W        W98672  38.502  27.471   4.694
37219W        W98673   9.299  14.146   1.756
37220W        W98674  19.763  26.960   3.799
37221W        W98675  26.050  37.387   1.441
37222W        W98676   8.689   1.742   3.243
37223W        W98677  37.519  19.547  14.868
37224W        W98678  24.101  33.572  12.396
37225W        W98679  28.145  29.946   3.216
37226W        W98680  38.392  23.719   3.289
37227W        W98681   4.445  42.020   0.833
37228W        W98682  39.535   0.365   4.281
37229W        W98683  34.408  25.207   1.877
37230W        W98684   7.680  11.134   0.859
37231W        W98685  17.259   7.679  11.939
37232W        W98686  40.525  15.172   2.846
37233W        W98687  28.970   9.823  10.495
37234W        W98688  39.535  34.550  11.563
37235W        W98689  12.287  27.518  14.406
37236W        W98690  20.694  21.128   2.871
37237W        W98691  23.513  12.816   3.721
37238W        W98692  43.283  37.048   0.843
37239W        W98693   8.321   4.940  11.427
37240W        W98694  22.203  29.468   4.260
37241W        W98695  30.457  35.466  11.018
37242W        W98696  43.822  28.513  11.460
37243W        W98697  22.599   5.408  11.048
37244W        W98698  38.491  14.133  11.416
37245W        W98699   2.740  18.608   0.820
37246W        W98700   6.411  16.133   0.312
37247W        W98701  29.508  43.488   3.383
37248W        W98702  16.693   1.371   1.783
37249W        W98703  33.519  14.263   2.853
37250W        W98704  34.383   8.309  14.785
37251W        W98705  27.084  21.582  10.980
37252W        W98706   3.731  24.024   4.740
37253W        W98707  33.598  36.863   3.229
37254W        W98708  18.680  43.010  12.934
37255W        W98709  17.631   8.657   1.839
37256W        W98710  18.137  42.841   0.394
37257W        W98711  26.020  22.741  12.452
37258W        W98712  34.039  42.993   3.180
37259W        W98713  23.084   5.296   3.382
37260W        W98714  23.125  32.489   3.659
37261W        W98715  44.868   8.369   4.251
37262W        W98716  37.015   5.230  10.590
37263W        W98717  34.561  34.937   2.379
37264W        W98718  14.203  23.215  12.483
37265W        W98719  18.568  44.843  12.008
37266W        W98720  35.948  23.020   4.772
37267W        W98721  37.398  22.665   1.261
37268W        W98722   1.370  17.147  12.380
37269W        W98723  24.032  44.347   4.728
37270W        W98724   2.965  38.568   0.377
37271W        W98725  31.969  43.851  13.918
37272W        W98726  28.657  20.554   5.124
37273W        W98727  42.842  42.942   1.779
37274W        W98728  44.404  28.615  12.881
37275W        W98729   9.817  20.581  13.892
37276W        W98730  25.003  12.274  14.464
37277W        W98731  32.610  39.937   0.268
37278W        W98732  10.724  29.556  11.398
37279W        W98733  27.560   7.734   4.625
37280W        W98734  19.616  12.330  13.939
37281W        W98735  12.855  10.730  14.334
37282W        W98736  28.504  39.488  13.389
37283W        W98737  14.642  21.550  14.296
37284W        W98738   0.963   1.465  13.381
37285W        W98739  36.090  20.095  11.458
37286W        W98740  12.268   8.216  12.938
37287W        W98741  14.142  39.444  12.095
37288W        W98742  21.599  41.334   2.372
37289W        W98743   8.697   2.844   4.161
37290W        W98744  14.190  14.782  12.415
37291W        W98745  41.492  20.707  14.803
37292W        W98746  12.225  16.801  13.319
37293W        W98747  42.003  13.266   2.353
37294W        W98748  24.025  20.091   2.262
37295W        W98749  24.600  22.182   4.726
37296W        W98750  24.032   1.314   1.740
37297W        W98751  14.661  15.267  10.644
37298W        W98752  37.884   5.325   0.386
37299W        W98753   0.764   7.693  11.438
37300W        W98754  24.529   1.265  11.522
37301W        W98755  17.106  29.162  13.327
37302W        W98756  27.986  43.351   2.251
37303W        W98757  40.502  39.361  13.393
37304W        W98758  41.393  25.209   4.641
37305W        W98759  34.120  18.067   0.841
37306W        W98760   0.416   7.356  11.074
37307W        W98761   9.336  41.439  14.512
37308W        W98762   6.241  22.664  10.890
37309W        W98763  26.557  30.477  12.414
37310W        W98764  19.573  27.036   0.759
37311W        W98765  23.671  29.004   0.425
37312W        W98766   9.809   6.905  11.400
37313W        W98767  21.144  37.461  14.308
37314W        W98768  44.806  14.612  14.293
37315W        W98769  19.245  13.646   0.475
37316W        W98770  33.476  28.941   3.212
37317W        W98771  34.097  32.039   1.296
37318W        W98772  41.387   4.926   5.251
37319W        W98773  31.428  44.974   4.276
37320W        W98774   1.455  31.605   3.364
37321W        W98775  11.710  17.611   4.627
37322W        W98776  36.396  42.825  12.447
37323W        W98777  18.248   9.886  11.503
37324W        W98778  18.715  18.661  13.057
37325W        W98779  20.098   7.216   9.577
37326W        W98780   4.892  38.936   2.211
37327W        W98781  29.435  20.242   1.804
37328W        W98782  25.216   6.787  11.601
37329W        W98783   6.372  20.057  12.999
37330W        W98784  38.567  43.457   3.309
37331W        W98785  35.573  41.356  12.516
37332W        W98786  33.426  44.469  13.961
37333W        W98787  37.006  12.150   0.744
37334W        W98788  15.764   3.839   3.150
37335W        W98789  35.358  14.204  13.400
37336W        W98790  18.635  19.099   1.880
37337W        W98791  14.099  13.777   3.796
37338W        W98792  37.452  36.082   0.294
37339W        W98793  24.530  26.090  12.073
37340W        W98794  25.016   3.387   4.194
37341W        W98795   6.872   1.932   2.374
37342W        W98796  14.763  28.057  12.967
37343W        W98797   1.775  22.596  14.385
37344W        W98798  35.015  22.562   2.387
37345W        W98799  22.717  25.993  13.968
37346W        W98800  38.889  22.693  11.545
37347W        W98801  39.486  15.594  10.634
37348W        W98802  17.305  12.190  14.023
37349W        W98803   6.256  28.057   5.175
37350W        W98804  42.865  41.941  12.565
37351W        W98805  35.360  14.226  11.955
37352W        W98806  29.604   8.683   2.201
37353W        W98807  10.672   4.357  11.915
37354W        W98808  39.376  28.472  12.992
37355W        W98809  32.981   8.788  14.370
37356W        W98810  16.688  10.673  12.457
37357W        W98811  40.531  37.002   1.298
37358W        W98812  32.012   2.391  10.589
37359W        W98813  22.534   2.953   0.921
37360W        W98814  36.864  12.283   2.265
37361W        W98815  14.322  38.951   1.264
37362W        W98816  23.621  40.401  11.420
37363W        W98817  34.515   1.424  14.810
37364W        W98818  20.765  41.438   1.393
37365W        W98819  14.178  43.421  12.393
37366W        W98820  21.724  41.021  11.121
37367W        W98821  26.122   9.877   2.869
37368W        W98822  41.465  19.573  11.059
37369W        W98823  37.958   2.307  13.458
37370W        W98824  12.326  15.603   3.161
37371W        W98825  27.547  27.995  12.531
37372W        W98826  21.237  11.634   0.300
37373W        W98827  32.428  22.155   0.408
37374W        W98828  13.704   6.371  14.372
37375W        W98829  20.044  18.140   4.725
37376W        W98830  14.611  24.059   0.829
37377W        W98831  21.027  44.806  10.963
37378W        W98832  40.978  44.784  14.350
37379W        W98833   4.749  39.400   1.837
37380W        W98834  14.182  23.043  10.619
37381W        W98835  36.414  37.424   1.386
37382W        W98836  44.500  12.158   1.801
37383W        W98837  22.619   5.868   4.343
37384W        W98838  17.719   4.903   3.807
37385W        W98839  41.353  21.684  14.895
37386W        W98840   0.948  20.258  14.358
37387W        W98841  31.955  37.865  12.975
37388W        W98842   1.386  19.217  12.391
37389W        W98843  19.684  27.465   4.310
37390W        W98844  26.034   0.391  12.070
37391W        W98845  30.616  24.523   4.353
37392W        W98846  12.352  25.559   4.701
37393W        W98847  22.698   8.248  10.615
37394W        W98848  30.429  17.180   3.186
37395W        W98849   4.867   7.384  13.414
37396W        W98850  21.540  43.309  11.938
37397W        W98851  22.113  15.265  12.939
37398W        W98852   1.784  29.959   1.830
37399W        W98853  38.534  25.038   1.825
37400W        W98854  29.101  27.640   9.610
37401W        W98855  29.533   9.211  10.516
37402W        W98856  27.954  12.272   9.949
37403W        W98857  36.850  13.145   1.886
37404W        W98858  38.894  29.564   2.896
37405W        W98859  19.735  26.029  10.512
37406W        W98860  23.105  34.418  11.418
37407W        W98861  42.976  36.860   4.296
37408W        W98862  15.605  34.379   2.825
37409W        W98863   4.736  35.505   4.660
37410W        W98864  27.004  40.418   1.872
37411W        W98865  44.470   1.463   4.774
37412W        W98866   7.381   9.801   4.682
37413W        W98867  23.017  38.337  13.880
37414W        W98868   8.722  40.522  13.919
37415W        W98869   4.205  38.054   0.862
37416W        W98870  27.524  12.747  10.118
37417W        W98871  39.948  17.103  12.532
37418W        W98872   6.904   1.372   1.308
37419W        W98873  40.437   8.894  12.512
37420W        W98874  14.823  37.497   0.774
37421W        W98875  14.731  19.656   4.178
37422W        W98876  20.264  21.090   0.250
37423W        W98877  18.071   3.295  13.793
37424W        W98878  11.771   8.370   3.859
37425W        W98879  14.214  29.934   3.174
37426W        W98880  38.568  32.621  13.501
37427W        W98881  34.909  37.345   2.358
37428W        W98882  15.736  10.173  10.509
37429W        W98883  39.050  19.534   4.704
37430W        W98884  34.425  28.085  11.035
37431W        W98885   2.922  37.857  11.524
37432W        W98886  32.967  23.522  12.031
37433W        W98887   3.368   8.389   0.871
37434W        W98888  40.437  32.056  12.939
37435W        W98889  38.480   2.242   1.730
37436W        W98890   2.239  39.397   0.854
37437W        W98891   7.339  33.931  14.854
37438W        W98892  39.483  15.102  12.042
37439W        W98893  20.670   4.732   4.237
37440W        W98894   3.731  35.475   0.370
37441W        W98895  28.024  43.915   2.186
37442W        W98896  15.751  13.235   4.626
37443W        W98897  24.496  33.501  11.529
37444W        W98898   4.819  44.940   2.873
37445W        W98899  38.566  24.087   4.182
37446W        W98900  38.941   3.897  12.500
37447W        W98901  15.696   8.701  13.937
37448W        W98902  37.546  32.922   2.196
37449W        W98903  32.565  18.557   3.741
37450W        W98904   1.825   8.693  14.506
37451W        W98905  12.150  19.562   3.299
37452W        W98906  22.506   3.950  10.034
37453W        W98907  28.549  20.036   3.324
37454W        W98908   7.310  19.184   3.647
37455W        W98909  16.073   9.736  10.968
37456W        W98910  29.037  24.089   2.704
37457W        W98911  15.270   5.367  11.532
37458W        W98912  13.696  44.424  12.549
37459W        W98913  19.190  16.778  13.359
37460W        W98914  30.621  26.207   4.304
37461W        W98915  28.075   9.741  10.081
37462W        W98916  41.425   9.796   2.230
37463W        W98917  39.809  44.383   1.405
37464W        W98918  33.528  43.325   4.165
37465W        W98919  39.534  19.278   3.769
37466W        W98920  44.333  40.034   2.678
37467W        W98921  13.601  15.101  12.573
37468W        W98922  34.991   7.860   0.292
37469W        W98923  40.547  43.496   3.377
37470W        W98924  12.293  30.598  10.127
37471W        W98925  22.639  44.953  14.309
37472W        W98926   6.837   5.255   0.382
37473W        W98927  13.601  21.743   1.696
37474W        W98928  27.538  21.019   4.834
37475W        W98929  21.707  37.512   2.851
37476W        W98930  10.643  11.307  12.881
37477W        W98931  36.364  40.453   1.273
37478W        W98932   7.334   2.449   3.237
37479W        W98933  20.139  15.279  11.054
37480W        W98934  23.561  42.300   4.227
37481W        W98935  13.730  27.689  13.822
37482W        W98936  19.167  14.266  12.510
37483W        W98937  24.224  12.240  13.356
37484W        W98938  29.004  28.993  11.873
37485W        W98939  41.916  24.648  12.544
37486W        W98940   2.956  36.574  12.859
37487W        W98941   2.755   3.807  14.401
37488W        W98942  44.437  37.967  14.490
37489W        W98943  36.385   2.871  12.579
37490W        W98944  28.045  21.078   2.801
37491W        W98945   1.797  41.361   4.677
37492W        W98946  17.582  29.164   3.260
37493W        W98947   8.350   7.295  10.423
37494W        W98948  23.584  33.436  11.074
37495W        W98949  16.577   2.760  13.850
37496W        W98950  20.185  27.045   4.620
37497W        W98951   2.803   2.406  13.795
37498W        W98952  25.554  22.093   4.346
37499W        W98953  35.494  14.212   2.719
37500W        W98954  16.654  34.080   2.764
37501W        W98955  19.210  17.085   3.294
37502W        W98956  24.702  24.590  14.821
37503W        W98957  35.373   7.906   4.783
37504W        W98958  26.101   5.248  14.892
37505W        W98959  14.637  31.412   2.847
37506W        W98960   4.838  16.255  13.420
37507W        W98961   8.366  44.758  12.410
37508W        W98962  14.762  30.653   3.385
37509W        W98963   1.418   0.326   3.823
37510W        W98964  29.033  28.465  12.987
37511W        W98965  36.869  36.368   3.277
37512W        W98966  33.398  13.207   4.321
37513W        W98967  30.107  18.269   0.851
37514W        W98968  33.065  20.591  10.524
37515W        W98969   7.205  32.140   0.752
37516W        W98970  44.814  37.870   1.242
37517W        W98971  30.074  36.954  12.005
37518W        W98972  31.961  25.640   1.390
37519W        W98973  10.371   5.913   3.739
37520W        W98974   8.317  16.099   1.769
37521W        W98975  16.809  10.647  12.865
37522W        W98976   4.874  38.849   3.718
37523W        W98977   3.730   3.241  11.536
37524W        W98978  23.590  15.673   3.156
37525W        W98979  20.127  16.097  14.032
37526W        W98980  26.963  12.831  11.914
37527W        W98981  42.941  28.003  14.400
37528W        W98982   6.364  35.027  13.903
37529W        W98983  16.805  29.922  14.911
37530W        W98984  35.867   4.937  12.509
37531W        W98985   6.424  20.634  10.489
37532W        W98986  37.963   9.844   3.764
37533W        W98987  40.049  33.507   2.236
37534W        W98988  21.147  22.038   4.695
37535W        W98989  20.736   0.331  13.993
37536W        W98990  32.502  18.262  12.467
37537W        W98991  10.836   2.774   2.260
37538W        W98992  34.875  19.570   0.866
37539W        W98993  31.507  18.285  10.893
37540W        W98994  24.027  43.779   4.658
37541W        W98995  35.480  23.552  13.525
37542W        W98996  13.130   2.900   1.444
37543W        W98997  13.820  38.341  11.107
37544W        W98998  38.470  20.669  14.947
37545W        W98999  19.162  30.498   0.916
37546W        W99000  12.127  25.211  13.362
37547W        W99001   7.336  23.651   1.284
37548W        W99002  44.944   8.211  10.492
37549W        W99003  20.673  35.059   3.711
37550W        W99004  12.235  43.011   0.448
37551W        W99005   4.927  30.657   2.749
37552W        W99006   7.860   1.949  14.995
37553W        W99007  44.467  29.046  13.863
37554W        W99008  43.348  15.804   3.162
37555W        W99009  22.996  10.641  10.916
37556W        W99010   7.212  17.245  12.425
37557W        W99011  20.264  41.929  14.381
37558W        W99012  28.160   6.808   1.907
37559W        W99013  12.167  36.362  12.390
37560W        W99014  40.897  37.981  10.466
37561W        W99015  12.118   4.320   4.128
37562W        W99016  10.200  29.007  12.972
37563W        W99017  42.448  37.474   1.934
37564W        W99018  30.479  17.685  13.043
37565W        W99019   6.909  39.368  13.946
37566W        W99020  11.256  43.012  12.353
37567W        W99021  24.003   6.869   2.676
37568W        W99022   4.403  26.158  11.101
37569W        W99023  14.154  11.734  12.024
37570W        W99024   4.419  11.129  13.375
37571W        W99025   4.382  34.580   1.806
37572W        W99026  31.920  24.530   1.359
37573W        W99027  28.931  28.006  14.025
37574W        W99028   8.779  32.985   4.193
37575W        W99029   6.285  36.538  12.074
37576W        W99030   4.372  43.348  10.936
37577W        W99031   8.257  28.126  13.948
37578W        W99032  24.574  22.540   0.434
37579W        W99033  37.575   3.893  11.930
37580W        W99034  36.565  15.741   3.251
37581W        W99035   0.375  13.276   1.747
37582W        W99036  29.521   7.765   0.913
37583W        W99037  14.713  37.503  13.058
37584W        W99038  34.965   9.237  11.545
37585W        W99039   5.349  25.590   2.341
37586W        W99040  40.968  42.508   5.120
37587W        W99041   2.338  22.641  11.973
37588W        W99042   0.458   4.713   3.821
37589W        W99043  29.480  25.610  14.824
37590W        W99044  13.271  23.165   5.671
37591W        W99045  42.391  13.336   0.930
37592W        W99046   3.386  26.622   0.940
37593W        W99047  43.853  23.037   3.699
37594W        W99048  11.362   2.293  12.412
37595W        W99049  43.274  34.899  11.448
37596W        W99050  12.330  42.807   2.768
37597W        W99051  23.166  30.005   3.163
37598W        W99052  28.552  15.248   2.845
37599W        W99053  23.170  43.281   4.141
37600W        W99054   8.240  36.410   3.381
37601W        W99055  15.814  42.808  11.486
37602W        W99056   4.897  22.037   1.257
37603W        W99057  19.657   7.777  13.533
37604W        W99058  14.230  42.873   4.292
37605W        W99059  42.527   9.308   4.597
37606W        W99060  40.511  30.508   0.885
37607W        W99061  30.565  39.928   0.769
37608W        W99062   0.342   5.836   3.643
37609W        W99063   1.279  20.697   0.825
37610W        W99064  19.694  14.170   1.755
37611W        W99065  38.885  33.419  14.374
37612W        W99066  36.958  23.054   0.868
37613W        W99067   4.719  42.339   3.186
37614W        W99068  10.637  12.669  10.480
37615W        W99069   3.420  41.345  12.358
37616W        W99070   6.754  17.174   3.191
37617W        W99071   9.151  40.047  14.852
37618W        W99072  15.765  32.612   1.220
37619W        W99073  30.141   6.245   2.662
37620W        W99074  28.497  12.696  11.512
37621W        W99075  31.127  43.501   1.765
37622W        W99076  24.175   3.428   1.876
37623W        W99077  15.742  20.160   2.194
37624W        W99078  41.822  30.981  10.542
37625W        W99079  20.092  13.269  10.493
37626W        W99080   7.848  36.507   4.346
37627W        W99081   4.794  12.671   4.743
37628W        W99082  40.421  36.879   2.733
37629W        W99083  27.472  39.858  11.404
37630W        W99084  44.919  26.469   3.291
37631W        W99085  19.085  27.949   1.696
37632W        W99086  29.036   2.237   3.650
37633W        W99087   9.668  23.995  12.395
37634W        W99088  24.227  12.229  10.904
37635W        W99089  29.095  44.759   4.315
37636W        W99090  18.184  28.005   4.214
37637W        W99091  11.797  36.548   1.917
37638W        W99092  42.009   3.898  13.353
37639W        W99093  15.107  27.942  12.418
37640W        W99094  23.190  16.701   4.113
37641W        W99095  34.022  11.260  13.007
37642W        W99096  29.660   4.398  13.314
37643W        W99097  44.868  39.542  14.794
37644W        W99098  28.095  20.563   2.760
37645W        W99099  30.578   3.788   3.845
37646W        W99100   7.272  40.823  11.453
37647W        W99101  43.309  17.284   1.889
37648W        W99102  14.183  35.357  14.507
37649W        W99103  43.852   9.770   4.137
37650W        W99104   6.739  43.397   2.808
37651W        W99105  28.482  17.681   3.805
37652W        W99106   1.237  15.688  13.467
37653W        W99107   6.759  41.364   1.324
37654W        W99108   5.353  26.479   2.289
37655W        W99109  24.672  19.604  14.334
37656W        W99110  41.914   6.346   2.371
37657W        W99111  31.986  35.968  10.099
37658W        W99112  41.460  36.061  10.534
37659W        W99113   5.761  31.561  14.905
37660W        W99114  43.933   4.259  12.865
37661W        W99115  24.724  40.305   0.316
37662W        W99116   5.383  27.568   2.317
37663W        W99117  12.650  37.464   3.307
37664W        W99118  27.671  40.048  11.899
37665W        W99119  37.930   7.714  10.507
37666W        W99120  36.866  12.328  14.019
37667W        W99121   1.477  29.114   2.291
37668W        W99122   8.323   8.714   2.240
37669W        W99123  23.721  44.981   1.252
37670W        W99124   2.930  44.888   3.206
37671W        W99125   1.762   5.857  13.428
37672W        W99126  28.550   7.340  10.468
37673W        W99127   1.874   5.894   2.240
37674W        W99128  20.162  27.649   3.223
37675W        W99129   3.870  16.313   0.887
37676W        W99130  32.902  31.954  12.089
37677W        W99131  21.714  23.997  10.562
37678W        W99132  23.241  35.469  12.471
37679W        W99133  36.527  17.558  14.388
37680W        W99134  18.078  18.202   2.404
37681W        W99135  34.499   0.437  12.904
37682W        W99136  17.723   6.862  14.825
37683W        W99137  10.777  17.235   3.802
37684W        W99138  39.882  43.814  10.496
37685W        W99139  15.680  27.989   2.770
37686W        W99140  28.563  15.764   2.342
37687W        W99141  26.694  34.564  14.445
37688W        W99142   5.351  28.506   1.277
37689W        W99143  23.197  40.899   3.279
37690W        W99144  11.688   0.371   2.353
37691W        W99145  15.807  42.441  10.951
37692W        W99146  30.527  21.618   4.827
37693W        W99147  38.413  17.742  14.350
37694W        W99148   9.709  38.432  12.930
37695W        W99149  44.953  28.620   4.632
37696W        W99150  37.992   7.306   3.827
37697W        W99151  42.866  13.217  11.905
37698W        W99152  15.212  36.979   4.837
37699W        W99153  15.285   9.295   4.783
37700W        W99154  11.277  43.870   4.319
37701W        W99155  19.586  34.471   0.967
37702W        W99156  17.170  26.616   2.384
37703W        W99157  19.042  18.244  12.979
37704W        W99158  41.843  11.820   5.128
37705W        W99159  33.592  18.786  12.349
37706W        W99160   5.811  23.662   0.371
37707W        W99161  10.672  16.146  12.077
37708W        W99162  10.855  34.887   2.729
37709W        W99163  15.211  30.992  11.584
37710W        W99164  18.634  24.225   0.841
37711W        W99165   3.824  41.514   2.888
37712W        W99166  22.154  11.234   1.724
37713W        W99167  21.527  16.761  10.626
37714W        W99168  25.671  16.619   0.354
37715W        W99169  34.027  29.651   1.890
37716W        W99170   6.891  20.040   1.211
37717W        W99171  35.921  34.562   4.212
37718W        W99172   8.323  23.530   2.881
37719W        W99173  32.005   5.245   2.257
37720W        W99174  24.491   3.838   0.409
37721W        W99175  32.568  21.538  12.477
37722W        W99176  32.611  17.570   2.360
37723W        W99177  26.163  38.478   1.874
37724W        W99178   3.748  14.144  12.932
37725W        W99179  36.404  44.826   4.287
37726W        W99180  24.496  37.371  10.111
37727W        W99181   7.357  25.150   1.282
37728W        W99182  23.063  16.572   2.719
37729W        W99183   1.898  40.415  13.422
37730W        W99184  21.541  20.586  12.919
37731W        W99185  33.935  31.047  14.013
37732W        W99186  12.730   2.395   4.122
37733W        W99187  19.242  13.338  13.409
37734W        W99188  25.514  37.432  14.492
37735W        W99189  22.049  37.904  10.947
37736W        W99190  20.033  20.761   1.359
37737W        W99191  20.041   1.336  11.949
37738W        W99192  34.604  21.679  12.579
37739W        W99193  11.265   6.189  10.436
37740W        W99194  38.994  38.834   9.574
37741W        W99195  35.508   1.849   3.834
37742W        W99196  23.027  43.441   3.254
37743W        W99197  21.152  25.154   0.928
37744W        W99198   9.757  39.389   5.241
37745W        W99199  20.056   5.704  14.418
37746W        W99200  25.528  28.058  12.512
37747W        W99201   4.723   1.895  13.911
37748W        W99202   4.292  27.635   4.187
37749W        W99203  33.906  37.970   0.431
37750W        W99204  28.437  11.638   0.730
37751W        W99205  25.678  15.318   0.359
37752W        W99206  44.312  18.124   3.239
37753W        W99207  28.103  39.978   1.698
37754W        W99208  21.666  27.978   0.847
37755W        W99209   9.675   4.760  13.949
37756W        W99210  24.675   1.836  12.540
37757W        W99211  33.414   0.938   0.943
37758W        W99212  21.223  10.180  10.962
37759W        W99213  43.450  22.595  14.878
37760W        W99214  28.062  32.072   1.933
37761W        W99215  33.127   1.732   2.822
37762W        W99216  13.117  44.481  13.058
37763W        W99217  32.443   9.644  14.360
37764W        W99218  27.013  29.486   3.710
37765W        W99219  40.906  20.261  12.534
37766W        W99220  42.318  43.957   0.483
37767W        W99221  44.394  19.286   4.336
37768W        W99222   1.953  39.040  13.936
37769W        W99223  15.693   6.905   3.652
37770W        W99224  40.421  42.376   1.781
37771W        W99225  10.802  39.830  11.024
37772W        W99226  15.604  14.790  10.543
37773W        W99227   9.225  30.593   3.737
37774W        W99228  18.195  27.017   0.291
37775W        W99229  42.350   1.448   3.333
37776W        W99230  25.114  44.303   4.800
37777W        W99231  26.632  24.125  13.429
37778W        W99232  19.266  34.544   2.752
37779W        W99233  41.321  20.533  11.860
37780W        W99234   0.778  27.949   2.811
37781W        W99235  35.372  23.710   4.164
37782W        W99236  43.331  24.111   2.761
37783W        W99237  29.124   2.949   3.193
37784W        W99238  19.268   9.247  12.992
37785W        W99239  17.096  10.281   4.810
37786W        W99240  24.513  22.229  11.554
37787W        W99241  26.100  39.313  14.352
37788W        W99242  14.336  35.105  14.892
37789W        W99243  23.188  30.489  11.017
37790W        W99244  15.139  36.987  11.960
37791W        W99245  26.166  40.532   2.840
37792W        W99246  10.274  21.235  11.044
37793W        W99247  29.157  11.842   0.832
37794W        W99248   1.285  36.592   2.815
37795W        W99249  13.263  40.423  12.342
37796W        W99250  39.382   6.771   0.421
37797W        W99251  43.003  36.933  12.018
37798W        W99252  30.912  25.039  11.979
37799W        W99253  43.270  30.972  14.938
37800W        W99254   9.887   0.282  12.024
37801W        W99255   0.249  11.156  13.309
37802W        W99256  24.106  26.616  12.020
37803W        W99257  32.950  31.061   4.723
37804W        W99258  37.337   3.737   1.374
37805W        W99259  34.480  29.964   0.869
37806W        W99260  41.442   6.919   1.819
37807W        W99261  37.380   2.428   3.180
37808W        W99262  23.092  38.380   4.817
37809W        W99263  29.618   0.433  13.390
37810W        W99264   5.815  39.332   3.171
37811W        W99265  21.606  32.885  10.414
37812W        W99266  15.155  24.071   3.761
37813W        W99267  12.758  28.021   3.210
37814W        W99268   6.399  30.981   4.242
37815W        W99269   6.705   3.332   3.736
37816W        W99270  24.191  19.539  12.424
37817W        W99271  31.490  12.688  12.567
37818W        W99272  37.896  10.638   1.826
37819W        W99273   2.760   9.394   4.304
37820W        W99274  20.581  35.408  13.507
37821W        W99275  41.891  22.073   1.781
37822W        W99276  26.457  43.368  14.766
37823W        W99277  30.651  28.098   2.216
37824W        W99278   9.389  37.351  12.569
37825W        W99279  36.076  10.145   3.802
37826W        W99280  19.127  30.481  13.985
37827W        W99281  20.662  24.584   4.321
37828W        W99282  14.247  22.202   2.385
37829W        W99283  35.053  30.644  13.428
37830W        W99284  32.972  32.135  12.407
37831W        W99285  30.935  28.182   1.913
37832W        W99286  31.932   7.846  13.795
37833W        W99287  24.183  21.517  14.466
37834W        W99288  36.561   0.293   4.690
37835W        W99289  38.935  21.655   4.821
37836W        W99290   3.821   8.844   1.451
37837W        W99291  23.028  10.264  12.839
37838W        W99292  31.065   5.894   1.395
37839W        W99293  38.045  28.980  12.911
37840W        W99294  30.022  18.759  12.938
37841W        W99295  28.594  14.824  14.512
37842W        W99296  28.159  37.882  11.096
37843W        W99297  10.156   0.273  11.899
37844W        W99298  27.025  41.451  12.527
37845W        W99299  23.591  32.905   0.938
37846W        W99300  37.438  31.946  10.616
37847W        W99301  37.577  38.011   1.257
37848W        W99302  17.664  11.246   2.410
37849W        W99303  30.429  21.066  12.567
37850W        W99304   3.318  38.840   5.200
37851W        W99305  24.027  41.043   4.628
37852W        W99306  19.672  31.115  13.409
37853W        W99307  30.025  14.124  14.803
37854W        W99308  29.927  42.824  13.855
37855W        W99309  20.768   8.859  12.473
37856W        W99310  16.128  26.581  11.516
37857W        W99311  43.900  34.045   2.847
37858W        W99312  17.144  19.714  10.619
37859W        W99313  43.377  20.178   4.665
37860W        W99314  28.146  39.857  12.571
37861W        W99315  23.123  23.711   2.300
37862W        W99316  24.489  29.089  13.358
37863W        W99317  40.926   2.370   3.783
37864W        W99318  22.150   4.907   0.451
37865W        W99319  31.600  43.368   3.306
37866W        W99320  15.600   4.858   0.383
37867W        W99321  44.501   3.344  14.332
37868W        W99322  12.278  20.177  10.616
37869W        W99323  23.063   9.240  14.889
37870W        W99324  16.701  16.129   2.208
37871W        W99325  18.171  28.557   1.307
37872W        W99326   6.801  36.969  14.299
37873W        W99327  29.955   4.842   4.256
37874W        W99328  40.031  44.993  14.854
37875W        W99329  28.996  20.190   4.125
37876W        W99330  12.175  22.119  11.086
37877W        W99331  26.129  32.473   4.150
37878W        W99332   1.870  23.550   3.355
37879W        W99333  43.851  42.323   1.879
37880W        W99334  16.073  39.350  11.900
37881W        W99335  40.507  13.621   3.258
37882W        W99336   9.799  40.412  12.546
37883W        W99337   3.392  43.963   1.234
37884W        W99338  43.393  27.058   2.348
37885W        W99339  30.470   5.817   3.304
37886W        W99340  15.767  30.456  13.347
37887W        W99341  14.616  16.202  12.937
37888W        W99342  21.101  12.654  14.345
37889W        W99343  42.298  27.679  10.616
37890W        W99344  38.460  37.371   0.825
37891W        W99345  23.579  12.775  13.536
37892W        W99346  34.043   8.821   0.327
37893W        W99347  39.834  17.756   0.326
37894W        W99348  39.913  39.471   3.180
37895W        W99349  42.999  16.238  14.914
37896W        W99350  30.154   5.418  14.830
37897W        W99351   8.277   0.250  14.857
37898W        W99352  14.315   1.872  12.510
37899W        W99353  20.156  27.687   0.376
37900W        W99354  20.606   3.457  10.567
37901W        W99355  24.187  25.641   0.404
37902W        W99356  43.940  43.510   3.371
37903W        W99357   6.747   1.952  13.495
37904W        W99358  38.371  42.463   4.722
37905W        W99359  41.348  24.989  14.360
37906W        W99360  35.420  42.875   2.350
37907W        W99361   3.738   6.734  13.522
37908W        W99362  25.684   6.281   4.788
37909W        W99363  27.638  40.037   1.295
37910W        W99364  23.184  13.788   1.778
37911W        W99365  17.179  41.521   2.868
37912W        W99366  22.702  42.284  11.548
37913W        W99367  23.086  16.566  12.849
37914W        W99368   8.169  17.236   0.851
37915W        W99369  14.128  23.601  14.893
37916W        W99370  17.277  22.650  12.390
37917W        W99371  24.154  15.101   1.861
37918W        W99372  38.823  22.225   3.667
37919W        W99373  29.633  13.768  13.318
37920W        W99374  39.431  44.282   3.765
37921W        W99375  25.094  36.924  14.853
37922W        W99376  12.164   3.325  11.875
37923W        W99377  14.824  22.015  14.777
37924W        W99378  20.562  28.480  12.843
37925W        W99379  23.553  10.845  13.984
37926W        W99380  24.188   0.919  10.987
37927W        W99381   2.827  36.979   0.802
37928W        W99382  34.509  11.184  10.983
37929W        W99383  13.821   8.670   2.418
37930W        W99384  23.607  20.041   1.910
37931W        W99385  28.456  40.441  13.997
37932W        W99386  43.797  12.805   4.140
37933W        W99387   2.823  19.756  14.363
37934W        W99388  39.516  41.349   1.360
37935W        W99389  23.085  37.997   4.188
37936W        W99390  27.974   6.806   2.403
37937W        W99391   4.727  11.355  12.567
37938W        W99392   0.906  26.553   4.812
37939W        W99393   5.826  37.016   4.311
37940W        W99394   9.338  28.042   2.710
37941W        W99395  12.274  43.352   2.326
37942W        W99396  21.170  34.401   9.969
37943W        W99397   3.418  35.940  14.914
37944W        W99398   9.222   3.336   1.839
37945W        W99399  13.322  38.353   3.787
37946W        W99400   0.363   0.974   3.337
37947W        W99401  18.137   5.403  11.013
37948W        W99402  37.885  40.445   0.895
37949W        W99403  35.966  12.834  11.089
37950W        W99404  14.169  38.475  12.395
37951W        W99405  35.045  23.998   2.865
37952W        W99406  21.614  29.112  12.983
37953W        W99407  12.677  40.889   0.272
37954W        W99408  44.896  12.613  14.961
37955W        W99409  38.470  13.145  13.850
37956W        W99410   4.427  33.884  10.512
37957W        W99411  10.647  10.858   0.756
37958W        W99412  11.207  43.827   0.447
37959W        W99413   3.416  38.988  13.966
37960W        W99414   9.245  13.170   4.807
37961W        W99415  38.336  34.504  14.454
37962W        W99416  44.883   9.786  14.383
37963W        W99417  20.757  44.788  13.375
37964W        W99418   4.436  19.717   0.459
37965W        W99419  15.704  15.250  13.908
37966W        W99420  33.394   5.321  10.568
37967W        W99421  15.639  30.153  12.564
37968W        W99422   4.219  33.938   1.885
37969W        W99423  30.534   5.434   3.634
37970W        W99424   0.430  27.536  12.459
37971W        W99425  28.559  12.614   2.419
37972W        W99426  43.446  27.536  14.946
37973W        W99427  41.351  20.549  12.469
37974W        W99428  27.163  11.783   0.736
37975W        W99429  40.053  27.094  11.049
37976W        W99430   3.367   1.739   3.842
37977W        W99431  35.514  25.101   1.424
37978W        W99432  31.497  37.866   3.745
37979W        W99433  19.728  28.057   1.744
37980W        W99434  15.139  16.677   1.347
37981W        W99435  12.201  20.540  11.988
37982W        W99436  32.441  12.678   2.726
37983W        W99437  35.067  21.619   2.802
37984W        W99438  15.293   5.398  14.771
37985W        W99439  34.089  34.922  11.921
37986W        W99440  27.121  22.017   3.652
37987W        W99441  37.947  41.538   0.866
37988W        W99442  33.501  27.597   1.296
37989W        W99443   8.354  11.145   2.394
37990W        W99444  36.892  11.336  10.415
37991W        W99445   9.198  10.309   1.694
37992W        W99446  34.583  25.518   2.676
37993W        W99447  29.999  44.419  13.395
37994W        W99448  22.026  39.930   4.269
37995W        W99449  33.086   8.183   0.847
37996W        W99450  33.483  11.867   1.896
37997W        W99451  17.172   4.749  12.547
37998W        W99452  32.918   2.829  11.108
37999W        W99453  11.296   4.943  11.529
38000W        W99454  28.655  31.602  11.543
38001W        W99455  14.758  34.018  13.041
38002W        W99456   4.715   0.442   4.680
38003W        W99457  13.642   1.736   1.720
38004W        W99458   4.901  29.660   0.381
38005W        W99459  40.365   8.778  10.569
38006W        W99460  24.072  14.835   4.750
38007W        W99461  43.980   6.353   3.786
38008W        W99462   5.362  39.339  13.850
38009W        W99463  12.716  44.806   4.319
38010W        W99464  12.793  18.097  14.464
38011W        W99465  12.327  15.600  10.110
38012W        W99466   3.315   6.337  12.966
38013W        W99467  19.627  37.394  14.430
38014W        W99468  41.805  43.900   2.700
38015W        W99469   7.358  26.114  12.906
38016W        W99470  10.662  25.499   4.816
38017W        W99471  39.315  26.994  14.806
38018W        W99472  23.525  28.067   4.239
38019W        W99473  31.058  11.681   0.246
38020W        W99474  41.871   4.898  13.936
38021W        W99475  38.959  19.067  13.027
38022W        W99476  36.406  36.850  13.795
38023W        W99477  24.513  19.246   1.303
38024W        W99478   2.868  28.554  13.481
38025W        W99479  26.174  22.534  14.771
38026W        W99480  27.663   4.881  10.892
38027W        W99481  26.493   1.279  11.020
38028W        W99482  37.563  27.584  13.849
38029W        W99483  18.611  18.782  14.924
38030W        W99484  12.741  24.582   2.415
38031W        W99485  25.147  31.553  11.083
38032W        W99486   2.794  11.658   1.846
38033W        W99487  29.636  21.100   4.343
38034W        W99488  20.689   7.833   1.840
38035W        W99489  23.138   4.382  10.464
38036W        W99490  33.882  39.956   1.219
38037W        W99491  44.306  36.519   0.362
38038W        W99492  38.379  37.847   1.419
38039W        W99493  41.843   0.286  12.436
38040W        W99494   9.202  30.954   3.204
38041W        W99495  16.588   9.247   0.434
38042W        W99496  25.492  25.614   3.249
38043W        W99497  22.163  35.486  13.821
38044W        W99498  38.453  27.510  10.599
38045W        W99499  40.800  32.600  13.510
38046W        W99500  30.534  10.745  13.396
38047W        W99501  15.244  20.038   0.322
38048W        W99502  12.226  27.605  10.417
38049W        W99503  38.484   7.334   0.388
38050W        W99504  29.447  29.531  11.513
38051W        W99505  15.114   6.784   1.432
38052W        W99506  38.824  35.062  14.374
38053W        W99507   5.746   6.713  11.942
38054W        W99508  23.648  19.772  14.388
38055W        W99509  19.724  20.541   3.670
38056W        W99510  23.170  36.037  13.470
38057W        W99511  11.165  10.784  10.939
38058W        W99512   8.709  23.028   1.447
38059W        W99513  11.791  12.823   5.126
38060W        W99514   0.423  25.148   1.822
38061W        W99515  12.308  33.071   2.891
38062W        W99516  44.877  37.881  13.791
38063W        W99517  32.442  24.141   1.286
38064W        W99518  32.059  15.773  14.395
38065W        W99519  30.125   3.359   1.260
38066W        W99520  36.020  12.746   3.186
38067W        W99521  41.394  16.624   4.727
38068W        W99522  16.113  12.275   1.765
38069W        W99523  23.214  29.436   0.258
38070W        W99524  27.457  19.116   2.400
38071W        W99525  13.230  12.195  13.013
38072W        W99526   0.475  29.061   2.770
38073W        W99527   0.286  28.103   3.856
38074W        W99528  38.369  31.487  12.088
38075W        W99529  36.592   5.700  12.961
38076W        W99530  30.991  21.030  10.598
38077W        W99531  25.126  18.229  12.561
38078W        W99532  30.466  11.824  11.565
38079W        W99533  39.488   2.809  14.400
38080W        W99534  26.544  16.084   1.870
38081W        W99535  11.840  13.121   4.606
38082W        W99536  37.916  29.443  13.533
38083W        W99537  10.818   0.471  14.932
38084W        W99538   5.819   4.344   0.924
38085W        W99539  33.587  12.151   0.826
38086W        W99540  42.808  37.496   0.341
38087W        W99541  31.533  36.873   2.754
38088W        W99542   0.466   7.875  11.412
38089W        W99543   8.226  26.958  10.535
38090W        W99544  32.592  15.804  14.868
38091W        W99545  24.697   1.461   3.690
38092W        W99546  42.476  42.433  11.549
38093W        W99547  22.188  39.360  14.957
38094W        W99548   1.362  29.949  12.906
38095W        W99549   6.697  11.135   2.206
38096W        W99550  34.870  15.732   2.258
38097W        W99551  40.314  28.960  10.593
38098W        W99552  22.712  35.926  11.596
38099W        W99553  25.135  33.429   4.643
38100W        W99554   5.284  36.087   4.236
38101W        W99555  41.409   4.292   4.752
38102W        W99556  18.749  29.457  12.474
38103W        W99557  14.695  39.896   2.817
38104W        W99558  39.476   1.772  13.395
38105W        W99559  29.452  15.327  12.842
38106W        W99560  38.856   2.252   1.328
38107W        W99561   0.326  31.903   3.180
38108W        W99562   7.264  27.123  12.859
38109W        W99563  43.428   2.770  10.428
38110W        W99564  41.415  18.701  13.501
38111W        W99565  17.619  23.694   4.138
38112W        W99566  30.455  22.204  14.421
38113W        W99567  15.278  37.076   2.902
38114W        W99568  37.425  15.780  14.490
38115W        W99569   1.830   2.396   0.409
38116W        W99570  13.668   0.763  10.999
38117W        W99571  32.416   3.817   4.297
38118W        W99572  15.724  35.989  12.022
38119W        W99573  17.214  37.004   0.812
38120W        W99574   6.281  43.911   1.694
38121W        W99575  31.016  44.914   0.806
38122W        W99576  23.214  35.512   4.178
38123W        W99577   8.712  31.045   2.221
38124W        W99578  24.192  16.220   3.797
38125W        W99579   6.244   6.305   0.908
38126W        W99580  10.242  35.919   4.665
38127W        W99581  40.307  33.966  13.545
38128W        W99582  25.117  29.437  11.992
38129W        W99583  29.584  12.359  11.110
38130W        W99584  36.891  38.517  14.412
38131W        W99585  28.119  10.215   5.285
38132W        W99586  24.614  30.951   2.681
38133W        W99587  37.933  13.232   1.784
38134W        W99588  18.747  20.671   0.757
38135W        W99589  28.603  26.139   2.731
38136W        W99590  35.445  15.647   4.674
38137W        W99591  15.738   4.306   1.923
38138W        W99592  37.564   7.689  11.493
38139W        W99593  30.921  19.152  13.379
38140W        W99594  35.573  29.460  14.912
38141W        W99595  10.260  33.114  11.982
38142W        W99596   3.376  15.225   3.843
38143W        W99597  21.228   4.875  13.819
38144W        W99598   3.794  32.574   0.316
38145W        W99599  41.386  37.979   4.282
38146W        W99600  11.816  20.529   0.839
38147W        W99601  29.603   0.822  12.497
38148W        W99602   3.331  12.747  13.838
38149W        W99603   7.718  38.480   2.237
38150W        W99604  33.962  20.561  13.411
38151W        W99605  28.025  37.347  11.463
38152W        W99606  14.148  13.284   3.230
38153W        W99607  29.924  40.956  14.406
38154W        W99608  41.501  13.711  10.985
38155W        W99609  41.376  31.625   3.699
38156W        W99610   2.806  10.213   1.821
38157W        W99611  35.569   9.374   3.631
38158W        W99612  44.893  21.159  13.987
38159W        W99613   7.694  34.416  13.955
38160W        W99614   5.707  10.183  10.024
38161W        W99615  17.113   9.325  12.853
38162W        W99616  38.468  26.653  12.468
38163W        W99617   3.939  38.933   3.233
38164W        W99618  12.621  19.165  10.925
38165W        W99619   8.677  20.234   4.634
38166W        W99620   0.841  25.979  10.897
38167W        W99621  43.821  34.388  11.396
38168W        W99622  22.127  26.179   0.880
38169W        W99623   3.328  33.526  10.924
38170W        W99624   6.869  17.730  14.922
38171W        W99625  25.615  26.027   9.516
38172W        W99626  35.088  16.290   3.792
38173W        W99627  19.185  44.957  12.499
38174W        W99628   9.215  16.635   4.293
38175W        W99629  15.807  30.538   0.755
38176W        W99630  28.573  32.593  13.475
38177W        W99631  21.178  21.155  12.830
38178W        W99632  11.703   2.728  13.939
38179W        W99633  16.768  12.616   3.336
38180W        W99634   2.891  21.704  14.857
38181W        W99635  13.174  38.834  11.118
38182W        W99636  43.348  27.596   2.842
38183W        W99637   3.327  25.667  12.512
38184W        W99638   4.927  12.118  11.863
38185W        W99639  44.902   3.270   3.821
38186W        W99640  20.572   7.404   3.754
38187W        W99641  36.436  20.674  10.927
38188W        W99642  38.937   9.238   2.771
38189W        W99643  37.367  21.028   4.646
38190W        W99644   9.798   4.764   1.707
38191W        W99645   0.448  42.505  12.073
38192W        W99646  30.417  25.116  13.314
38193W        W99647  38.545  13.658  10.532
38194W        W99648  36.019  40.813  14.782
38195W        W99649  13.696  11.184   0.252
38196W        W99650  13.318  28.139  13.421
38197W        W99651  10.154  26.201   4.319
38198W        W99652  22.051  22.578   2.749
38199W        W99653  12.690  17.139  14.963
38200W        W99654  39.858  41.334  11.553
38201W        W99655  21.570  35.368   1.806
38202W        W99656  41.538  42.327   1.262
38203W        W99657  32.619  26.192   1.327
38204W        W99658  38.522  26.960   0.457
38205W        W99659  29.950  29.950   1.258
38206W        W99660  16.259   6.375  11.866
38207W        W99661   4.871   9.287   3.150
38208W        W99662   2.932  40.439  14.440
38209W        W99663  16.123  19.069  10.921
38210W        W99664  14.718   0.755   1.300
38211W        W99665  30.105  12.732   4.665
38212W        W99666   4.892  32.103  12.371
38213W        W99667  41.472  35.090  12.370
38214W        W99668  20.575  42.876   1.860
38215W        W99669   1.467   8.317  11.488
38216W        W99670  31.000  16.639   0.887
38217W        W99671  43.419  44.869  10.892
38218W        W99672  29.958   4.405  14.358
38219W        W99673  36.090   0.955   2.728
38220W        W99674  40.409  21.512  13.968
38221W        W99675   7.383  37.934   4.677
38222W        W99676  10.364  11.694  10.475
38223W        W99677   7.861  19.203   1.775
38224W        W99678   0.371   2.871  13.867
38225W        W99679  36.874   5.302   2.197
38226W        W99680  39.318  37.370   4.661
38227W        W99681  18.207  12.688  14.508
38228W        W99682   5.382  41.921   2.399
38229W        W99683  19.596  16.121   0.343
38230W        W99684  30.642  17.272   0.934
38231W        W99685  31.462  36.906   3.741
38232W        W99686  25.057  36.498  12.019
38233W        W99687  43.904  30.586  12.419
38234W        W99688  29.456  29.967   1.254
38235W        W99689  20.137  40.840   4.120
38236W        W99690  17.091   0.809  14.499
38237W        W99691  40.037   8.371   1.264
38238W        W99692  29.443  38.901   2.214
38239W        W99693  10.838  18.074   2.741
38240W        W99694   1.324  36.941  11.485
38241W        W99695  11.848  25.672  14.769
38242W        W99696  15.210  18.163  13.910
38243W        W99697  27.994  35.996   2.206
38244W        W99698   8.385  30.633   1.352
38245W        W99699  32.100   1.250   3.809
38246W        W99700  24.068  21.073   3.815
38247W        W99701  30.024   3.845  12.864
38248W        W99702  38.827  40.456  13.014
38249W        W99703  40.538  11.759   3.746
38250W        W99704   4.930   8.358  12.826
38251W        W99705  41.343  37.932   1.359
38252W        W99706  14.151  19.779   2.248
38253W        W99707  19.192   2.758  12.054
38254W        W99708  16.567   8.787  13.532
38255W        W99709   2.307  26.607  13.795
38256W        W99710  28.086   8.159   1.828
38257W        W99711  28.527   6.374  10.641
38258W        W99712  13.148  16.115  13.454
38259W        W99713   6.289   0.765  11.400
38260W        W99714  40.449  39.964   1.323
38261W        W99715  42.999   4.339  14.497
38262W        W99716  33.128  37.891   1.752
38263W        W99717  42.838  41.010   0.882
38264W        W99718  14.678  35.029   3.321
38265W        W99719   6.330  14.203  13.494
38266W        W99720  35.101  38.415  14.787
38267W        W99721   6.186   7.818  11.910
38268W        W99722   7.316   3.226  12.528
38269W        W99723  10.265  12.792  11.021
38270W        W99724  34.458  10.827   5.759
38271W        W99725  34.566   6.393   4.634
38272W        W99726  24.021  36.526   3.810
38273W        W99727  25.984  19.583  13.964
38274W        W99728  10.811  21.203  10.920
38275W        W99729  21.125  22.543  10.644
38276W        W99730  34.614   8.211   2.862
38277W        W99731  24.039  18.081  10.492
38278W        W99732  29.172   8.675   4.784
38279W        W99733   2.776  33.997   0.873
38280W        W99734  32.053  38.872   2.309
38281W        W99735  33.396  44.010  10.908
38282W        W99736  10.696  27.448   4.786
38283W        W99737  19.194  14.312  10.024
38284W        W99738  11.292   0.439   0.876
38285W        W99739  19.179  17.645  14.792
38286W        W99740  39.478   7.824   0.481
38287W        W99741  35.376  40.458  14.477
38288W        W99742  37.959  30.539  14.468
38289W        W99743  39.995  22.199   1.796
38290W        W99744  44.926  21.165  13.522
38291W        W99745  38.004  12.333  11.968
38292W        W99746  11.828  25.615   2.399
38293W        W99747  44.260  17.685  12.842
38294W        W99748  41.329   5.934   2.260
38295W        W99749   6.320  29.475  10.978
38296W        W99750  11.357  30.024   0.340
38297W        W99751  29.644  20.116   3.684
38298W        W99752  29.060  15.763   4.315
38299W        W99753  43.801  34.562  12.409
38300W        W99754   4.339  35.365   4.175
38301W        W99755  29.579  30.489   1.340
38302W        W99756  29.440  14.247  14.451
38303W        W99757   5.401  18.207  10.474
38304W        W99758  30.986  13.698  11.496
38305W        W99759  40.507  40.356   9.581
38306W        W99760  35.604  34.523   0.763
38307W        W99761  27.065   6.358  12.544
38308W        W99762  31.123  14.689   1.400
38309W        W99763  32.522  33.440  14.281
38310W        W99764  31.475   4.392   0.276
38311W        W99765  15.204   0.457  12.390
38312W        W99766  33.083   7.414   1.731
38313W        W99767  41.380  35.969   2.864
38314W        W99768   7.316   8.745   2.806
38315W        W99769  41.496  37.409  13.548
38316W        W99770  26.620  11.701   2.755
38317W        W99771  35.011  29.941   4.818
38318W        W99772  40.348  25.529  13.531
38319W        W99773  19.043  27.186   1.743
38320W        W99774  44.501   3.277  11.999
38321W        W99775  15.127   8.231  14.926
38322W        W99776  14.144  24.649  10.476
38323W        W99777   4.813   7.790  12.014
38324W        W99778  24.606  35.534  12.025
38325W        W99779  16.797  22.562   3.847
38326W        W99780   7.805  44.880   4.191
38327W        W99781  37.371  32.461  10.933
38328W        W99782  39.475  41.459   2.373
38329W        W99783  40.024  10.708   4.213
38330W        W99784  24.019  34.009  12.999
38331W        W99785  41.295  38.475  11.010
38332W        W99786  16.647  40.524  11.585
38333W        W99787  43.769   9.760  13.518
38334W        W99788  44.472   9.355  11.912
38335W        W99789  29.166  13.236  14.800
38336W        W99790  43.440  38.533   0.353
38337W        W99791  40.894  20.180   1.698
38338W        W99792  15.789  29.077  11.935
38339W        W99793   6.825   4.828  13.434
38340W        W99794  21.252   7.868  12.081
38341W        W99795  37.912   2.827   2.739
38342W        W99796  42.337  26.149  10.562
38343W        W99797  15.147  15.657  10.993
38344W        W99798   1.451  11.797  10.463
38345W        W99799  21.179  12.702   0.830
38346W        W99800   2.262  43.788   4.308
38347W        W99801  10.864  43.510   1.437
38348W        W99802  33.441  27.054  14.401
38349W        W99803  15.606   0.884   2.902
38350W        W99804   5.302  20.181   1.386
38351W        W99805  42.295  30.135  13.988
38352W        W99806  38.950  37.536  12.365
38353W        W99807   4.363   4.909   3.299
38354W        W99808  37.493   7.372   3.235
38355W        W99809  29.171   1.266  11.060
38356W        W99810   8.676  28.636  12.967
38357W        W99811  38.989  41.849  12.383
38358W        W99812  41.362  39.824   3.259
38359W        W99813  41.397  21.643   0.454
38360W        W99814  16.101  37.052  13.355
38361W        W99815  29.649   3.348  13.470
38362W        W99816  42.297  13.845   3.713
38363W        W99817  25.101   6.795  14.856
38364W        W99818   9.711  40.010  13.428
38365W        W99819   3.295  10.260  12.843
38366W        W99820  32.411  43.368   1.368
38367W        W99821  18.070  42.442  10.461
38368W        W99822  44.377  43.788   0.769
38369W        W99823  18.173  42.964  11.949
38370W        W99824   8.755  29.549  12.489
38371W        W99825   2.380  16.640   4.722
38372W        W99826  30.106   6.685  13.063
38373W        W99827  10.255  42.496  14.995
38374W        W99828  21.696   3.908   0.446
38375W        W99829  40.972  24.557  11.954
38376W        W99830  40.535  17.188  14.321
38377W        W99831  39.872  34.008  12.065
38378W        W99832   0.843  31.151   1.696
38379W        W99833   8.317  36.461   2.727
38380W        W99834   7.276  19.679  12.478
38381W        W99835  12.627  35.931  11.027
38382W        W99836   1.835   7.750  11.584
38383W        W99837  30.007  13.227   1.230
38384W        W99838  44.293  24.606  12.536
38385W        W99839  43.878  37.502   3.778
38386W        W99840  31.128   8.705   3.802
38387W        W99841  32.059   4.796   0.868
38388W        W99842   4.261  28.579  14.335
38389W        W99843  26.075  29.619  13.410
38390W        W99844  19.560  42.515  10.928
38391W        W99845   8.378  31.045   1.713
38392W        W99846   4.373  26.993  14.295
38393W        W99847  30.471  20.034   1.392
38394W        W99848   3.453   7.860   4.800
38395W        W99849  38.896  32.536   0.440
38396W        W99850  34.401  32.610   4.343
38397W        W99851  24.051  41.812  12.570
38398W        W99852  28.633  39.965   0.304
38399W        W99853  19.178   3.820   1.808
38400W        W99854  25.088  29.100   2.410
38401W        W99855  38.355  27.482   0.364
38402W        W99856  16.602  21.660  13.062
38403W        W99857  10.138  33.435   2.320
38404W        W99858  44.912   2.757  14.871
38405W        W99859  33.941   1.796   4.823
38406W        W99860  20.559   3.767   0.437
38407W        W99861  19.284  20.655   2.755
38408W        W99862  16.107  31.469  11.048
38409W        W99863  44.346  41.971   0.268
38410W        W99864  25.003  26.476   3.163
38411W        W99865  25.708  10.317   0.477
38412W        W99866  25.038  33.395  14.873
38413W        W99867  20.648  19.572  12.505
38414W        W99868  44.375  22.681  12.839
38415W        W99869  21.602   1.928  14.796
38416W        W99870  29.476  22.058   3.765
38417W        W99871  27.166  29.015  14.483
38418W        W99872  44.927  15.751   0.328
38419W        W99873  43.943  18.193  11.421
38420W        W99874  30.042  43.338  13.811
38421W        W99875  44.392  35.577  10.993
38422W        W99876  34.102   6.847   3.212
38423W        W99877  35.051  12.162   2.350
38424W        W99878  41.953  11.363  11.091
38425W        W99879  24.227   0.851   0.406
38426W        W99880  17.265   7.875   3.382
38427W        W99881  28.524  25.587  10.564
38428W        W99882  28.064   7.767   5.166
38429W        W99883  36.554  36.448  12.084
38430W        W99884  19.657   9.874  12.056
38431W        W99885   7.227  11.368   0.399
38432W        W99886   1.368  38.870  14.913
38433W        W99887  29.603  43.461  13.335
38434W        W99888  29.499  19.700  10.955
38435W        W99889  40.003  10.842   2.330
38436W        W99890  35.083   9.741  10.586
38437W        W99891  20.527   9.707  13.011
38438W        W99892   3.771  10.655   2.402
38439W        W99893   5.842  23.601  13.429
38440W        W99894  22.117  13.773   2.208
38441W        W99895  10.748  14.784  13.420
38442W        W99896  11.767  41.356  12.064
38443W        W99897  16.780  19.681   2.742
38444W        W99898   4.794  14.776   5.149
38445W        W99899  16.245  10.348  13.978
38446W        W99900  38.569   0.427   0.858
38447W        W99901  44.483  37.473  10.121
38448W        W99902  24.517  21.202  14.767
38449W        W99903  11.272  34.907   3.786
38450W        W99904  37.572  13.189  13.868
38451W        W99905  31.477  13.183   5.254
38452W        W99906  18.744  35.979  10.598
38453W        W99907  24.654  16.682   2.677
38454W        W99908  28.153  20.524   0.421
38455W        W99909  33.568  31.047  14.419
38456W        W99910  35.435   8.401  11.962
38457W        W99911  18.699  16.579   0.903
38458W        W99912   8.374  41.990   1.722
38459W        W99913  43.944   0.395  13.321
38460W        W99914  21.037  34.921   3.272
38461W        W99915   7.675  16.111  14.432
38462W        W99916  29.022  33.879  12.376
38463W        W99917   3.390   7.783  12.460
38464W        W99918  18.578  32.122   9.958
38465W        W99919  17.200  29.603   1.934
38466W        W99920  27.077   6.826   1.732
38467W        W99921  40.884  32.096  12.846
38468W        W99922  12.176  33.898   9.641
38469W        W99923  39.440  19.061  13.431
38470W        W99924  42.940  30.144   3.781
38471W        W99925  38.876   1.850  10.466
38472W        W99926   3.315  17.636  11.954
38473W        W99927  14.319   9.654   1.758
38474W        W99928   1.907  32.104  11.883
38475W        W99929  38.567  35.538   2.339
38476W        W99930  40.531  35.498  11.450
38477W        W99931  41.356  14.622  14.453
38478W        W99932  40.898  29.934   1.847
38479W        W99933  17.156  31.118   2.292
38480W        W99934  14.782  19.204   0.433
38481W        W99935  14.239   7.302  14.778
38482W        W99936  33.066   6.368  11.908
38483W        W99937  14.713  37.965  13.318
38484W        W99938  24.153   5.336  13.946
38485W        W99939  20.682  36.377   4.174
38486W        W99940  24.075   2.237  11.508
38487W        W99941   6.780  39.323  11.566
38488W        W99942  24.651  28.029  12.544
38489W        W99943  28.964  37.027   3.297
38490W        W99944  40.025  40.366  13.854
38491W        W99945  29.518  26.014   0.917
38492W        W99946  42.979  12.715   2.868
38493W        W99947   1.778  38.388  10.460
38494W        W99948  10.640   6.256  10.495
38495W        W99949   8.193  22.642   3.349
38496W        W99950  17.120  17.704  10.442
38497W        W99951  17.097  41.843   1.383
38498W        W99952  21.239  12.852   4.670
38499W        W99953   0.893  24.635  12.515
38500W        W99954  13.166   8.380  13.819
38501W        W99955  37.040  26.627   2.775
38502W        W99956  10.697   7.712  13.521
38503W        W99957  31.612  28.095  14.293
38504W        W99958  44.380  37.897   0.941
38505W        W99959   6.317   3.878  11.448
38506W        W99960  30.644  26.206   4.742
38507W        W99961  10.262  25.213  13.540
38508W        W99962  22.142  41.905  13.502
38509W        W99963  43.915  30.113  11.079
38510W        W99964   0.976   7.371  12.053
38511W        W99965   8.655  28.063  11.457
38512W        W99966  21.126  32.112  14.305
38513W        W99967  22.694   9.686   2.231
38514W        W99968   5.279   5.907  12.920
38515W        W99969   7.800  41.467  10.963
38516W        W99970   0.278   4.396   2.311
38517W        W99971  40.928  40.345  14.848
38518W        W99972  36.962  34.499  14.803
38519W        W99973  33.128  41.465  14.419
38520W        W99974  22.634  41.341  13.357
38521W        W99975  22.704  10.678  10.414
38522W        W99976  25.993  37.890  14.469
38523W        W99977   7.256  32.591   2.365
38524W        W99978   6.425  28.595   2.870
38525W        W99979  29.627  36.370   4.154
38526W        W99980  37.408  22.585   4.618
38527W        W99981   3.870  14.201   0.878
38528W        W99982   7.196  34.941  12.495
38529W        W99983  33.891   1.761   2.179
38530W        W99984  14.273  27.992   0.732
38531W        W99985   1.808  13.351  10.917
38532W        W99986   2.282  12.772   0.744
38533W        W99987  16.138  26.954  12.031
38534W        W99988  32.637  26.139  11.069
38535W        W99989  20.526  10.787   2.865
38536W        W99990  23.123  18.627   4.235
38537W        W99991  31.032   9.288   0.322
38538W        W99992   3.268   8.694   1.742
38539W        W99993  30.637  30.965   4.183
38540W        W99994  44.929   5.703  14.427
38541W        W99995  43.845  21.068  11.082
38542W        W99996  30.016   7.732   1.826
38543W        W99997  38.327  27.136   4.288
38544W        W99998  36.912  33.122   3.722
38545W        W99999  24.542  28.546  14.820
38546W        W    0  16.689  40.356  12.898
38547W        W    1  28.442   7.274   0.904
38548W        W    2  35.472  36.561   4.189
38549W        W    3  42.962  31.504  12.371
38550W        W    4  12.813  30.495  12.945
38551W        W    5  38.392  35.858   2.889
38552W        W    6  18.556  26.971   3.291
38553W        W    7  32.981  16.652  10.579
38554W        W    8  37.920  29.595  10.994
38555W        W    9   6.395   0.831  14.376
38556W        W   10  20.268   2.298   0.789
38557W        W   11  13.818  33.494  10.555
38558W        W   12  13.287   6.788  11.478
38559W        W   13   9.772  15.713   9.993
38560W        W   14   0.482  38.429   0.294
38561W        W   15  13.136   1.445  13.944
38562W        W   16  28.996   5.369  14.417
38563W        W   17   4.252  29.032  10.414
38564W        W   18  19.540  41.918  14.028
38565W        W   19  16.619  38.880   2.664
38566W        W   20  25.632   6.840  11.422
38567W        W   21  40.964  35.890  12.542
38568W        W   22  24.671  10.170   0.836
38569W        W   23  30.989  29.607  11.884
38570W        W   24  22.011   9.794   1.846
38571W        W   25  19.266  36.909   2.739
38572W        W   26  15.751   1.818   4.195
38573W        W   27  31.642  28.538   2.872
38574W        W   28  26.090  32.427   5.193
38575W        W   29   3.309  10.694   1.356
38576W        W   30  17.666   2.462   4.126
38577W        W   31   3.438  28.491  12.348
38578W        W   32   3.736   0.371  13.853
38579W        W   33  31.941  38.503  13.489
38580W        W   34  42.387  22.114  14.836
38581W        W   35  41.931  36.506   3.380
38582W        W   36   0.474   3.752   4.682
38583W        W   37  26.612  37.963   0.329
38584W        W   38  16.247  12.284  11.928
38585W        W   39  15.651   3.229  14.773
38586W        W   40  39.533   0.893   4.788
38587W        W   41  17.197   2.911   1.808
38588W        W   42  10.829  40.493  11.949
38589W        W   43  28.136  11.336   5.096
38590W        W   44  12.171  32.516   2.206
38591W        W   45  30.634  39.025   4.316
38592W        W   46  10.148  37.010   4.801
38593W        W   47   2.908   3.263   4.281
38594W        W   48  28.157  10.233  12.827
38595W        W   49  11.864   1.441   2.695
38596W        W   50   1.836  34.408   3.200
38597W        W   51  28.080   9.715   1.813
38598W        W   52  32.599   3.437   1.771
38599W        W   53  21.662   6.807  14.309
38600W        W   54  32.966  13.624  11.869
38601W        W   55   1.253  20.094  13.429
38602W        W   56  44.478  35.055   2.686
38603W        W   57  27.448  14.728   3.352
38604W        W   58  23.538  40.531  11.077
38605W        W   59  15.106  32.059  10.914
38606W        W   60  39.892   3.780   3.765
38607W        W   61  33.469  15.810  11.610
38608W        W   62  14.220  18.751   1.869
38609W        W   63  23.148  33.566   3.870
38610W        W   64   9.663  18.634   1.824
38611W        W   65  42.950  35.879   2.356
38612W        W   66  24.227  29.141   1.367
38613W        W   67   4.392  25.176  11.126
38614W        W   68  29.968   9.691  10.156
38615W        W   69   6.840   4.246   3.365
38616W        W   70   6.726  24.194  10.965
38617W        W   71  32.060  10.671   3.855
38618W        W   72   7.250  16.753  10.464
38619W        W   73   1.843  42.427  13.510
38620W        W   74  27.476  42.002  12.872
38621W        W   75  26.609   3.823   1.395
38622W        W   76  23.578   8.195  12.554
38623W        W   77   4.345  29.949   3.812
38624W        W   78  18.725  20.719   1.395
38625W        W   79  44.492  39.029  12.973
38626W        W   80   0.957   9.363  11.385
38627W        W   81  30.015  38.355   2.340
38628W        W   82   7.327   6.772   3.344
38629W        W   83   1.931  44.758   3.275
38630W        W   84   0.893   0.902  14.958
38631W        W   85  10.292  31.475   3.189
38632W        W   86   4.882  28.656   4.658
38633W        W   87  16.667  14.184   4.698
38634W        W   88  31.140  18.087   4.148
38635W        W   89  11.664  44.780  13.956
38636W        W   90  20.175  13.776   3.185
38637W        W   91  40.379  38.855  10.935
38638W        W   92   5.908   4.879   1.389
38639W        W   93   1.780  26.514   4.610
38640W        W   94  31.984  11.357   2.363
38641W        W   95  42.452   2.450   1.444
38642W        W   96   5.404  17.195  12.848
38643W        W   97  36.059  33.002   4.186
38644W        W   98  27.137  16.756  13.398
38645W        W   99  20.734  17.282  13.445
38646W        W  100   3.930  35.105   0.865
38647W        W  101  20.739  11.820  13.525
38648W        W  102   7.849  13.691   2.790
38649W        W  103  20.130  34.969  13.476
38650W        W  104  19.598  13.815   1.364
38651W        W  105  31.994   4.300  13.509
38652W        W  106  31.933  23.108  11.879
38653W        W  107   8.895  21.712   3.294
38654W        W  108  36.917  28.989   3.860
38655W        W  109   8.384  42.350  12.508
38656W        W  110  31.961   9.831   0.351
38657W        W  111  32.440   9.256   0.785
38658W        W  112  20.237  38.014   3.366
38659W        W  113  13.623  16.231   2.766
38660W        W  114  32.906  35.497   0.440
38661W        W  115  40.465   9.688   3.361
38662W        W  116  23.612  15.203  11.027
38663W        W  117  35.572   4.790  13.894
38664W        W  118  22.028   5.282   3.632
38665W        W  119  18.279  34.455  12.391
38666W        W  120   5.828  29.557  12.413
38667W        W  121  16.135  22.723   0.766
38668W        W  122  28.135  34.530   2.698
38669W        W  123  41.871  30.021   0.433
38670W        W  124   2.411  24.209  12.549
38671W        W  125  40.919  13.690   1.924
38672W        W  126  25.547  13.646   0.454
38673W        W  127  27.665  30.138   0.328
38674W        W  128  34.469  36.453  14.788
38675W        W  129  12.314   3.231  11.407
38676W        W  130  36.041  36.392  11.569
38677W        W  131  29.081   2.882   4.143
38678W        W  132  10.684  30.016  11.579
38679W        W  133  28.118  36.995   1.845
38680W        W  134  13.180  37.062   3.223
38681W        W  135  11.150   3.748  11.901
38682W        W  136  15.653  29.094  11.552
38683W        W  137   8.369  34.101   4.642
38684W        W  138  21.017  29.962   0.831
38685W        W  139  36.479  12.748   2.332
38686W        W  140   2.872  19.671   1.922
38687W        W  141   3.857  11.231   4.264
38688W        W  142  23.646  37.563  11.995
38689W        W  143  28.495  44.909   3.667
38690W        W  144   6.898  26.500   3.839
38691W        W  145   6.709   9.652   2.309
38692W        W  146  33.582  24.611   4.670
38693W        W  147  40.996   1.782   4.192
38694W        W  148  38.935  21.245   4.332
38695W        W  149  15.312  27.115   0.932
38696W        W  150  16.628   2.424   2.846
38697W        W  151  33.549  11.822   3.843
38698W        W  152  42.986   7.353  10.029
38699W        W  153  34.579   6.409   0.375
38700W        W  154  14.186  21.575   4.247
38701W        W  155   1.745  40.329  14.312
38702W        W  156   5.811  37.373   0.878
38703W        W  157  31.566  35.977   3.323
38704W        W  158  12.737  27.171   2.416
38705W        W  159   8.841  29.600  11.892
38706W        W  160  12.305   9.185   0.287
38707W        W  161  25.583  24.095  14.947
38708W        W  162  15.677  34.401  11.034
38709W        W  163  31.450  25.101  10.588
38710W        W  164  11.660   8.729   2.413
38711W        W  165   7.401  14.714  13.797
38712W        W  166   2.248   9.353  14.772
38713W        W  167  35.979  29.429   0.246
38714W        W  168  21.710  27.626  12.908
38715W        W  169  18.076  33.556  11.449
38716W        W  170  35.486  16.072  13.482
38717W        W  171   4.701  25.678   3.692
38718W        W  172  41.922  18.125  12.988
38719W        W  173  14.234  16.688   3.235
38720W        W  174  41.913  25.213  10.926
38721W        W  175   8.776  32.592  12.380
38722W        W  176  38.348   8.398   3.660
38723W        W  177  38.553  28.609   2.236
38724W        W  178   2.786  24.036  12.477
38725W        W  179  34.932   4.205  14.005
38726W        W  180  32.945  24.022   1.694
38727W        W  181  23.152   5.830   4.777
38728W        W  182  34.932  23.068  14.327
38729W        W  183   9.825   7.882  11.473
38730W        W  184  34.510  11.777  11.038
38731W        W  185  44.881  17.241   2.826
38732W        W  186  26.656  43.935   0.460
38733W        W  187  37.017  34.887   0.450
38734W        W  188   0.921   8.887  12.057
38735W        W  189  35.514  27.114   2.690
38736W        W  190   3.314  34.381   2.275
38737W        W  191  15.661   3.443  14.493
38738W        W  192   5.300   9.713   0.355
38739W        W  193  10.732  40.977  11.406
38740W        W  194   5.755  37.043  10.421
38741W        W  195  21.697  34.889  12.408
38742W        W  196   4.397  44.422  13.442
38743W        W  197  13.262  28.659   1.236
38744W        W  198  15.642  40.527   4.148
38745W        W  199  15.239  19.760   3.195
38746W        W  200  33.382  36.396   2.367
38747W        W  201   7.780   4.863   4.606
38748W        W  202  26.486  34.507  10.959
38749W        W  203  25.072  23.146  10.985
38750W        W  204  31.087  41.493  13.516
38751W        W  205  35.901  26.048  11.560
38752W        W  206  44.260  36.877  11.609
38753W        W  207  37.051  43.817  11.608
38754W        W  208  43.765  19.624  13.872
38755W        W  209  12.299  17.105   3.331
38756W        W  210   8.387  36.006   3.375
38757W        W  211   5.876  33.887  11.105
38758W        W  212   1.432   3.241  12.496
38759W        W  213  25.544  29.025  11.454
38760W        W  214  44.484  28.016  14.887
38761W        W  215  36.860   6.848   3.338
38762W        W  216  40.457   8.721   1.728
38763W        W  217  27.625   1.965  10.418
38764W        W  218   1.882   1.882   1.884
38765W        W  219   7.340  12.779  13.374
38766W        W  220  21.583   7.278   1.364
38767W        W  221  36.397   2.291  13.364
38768W        W  222  28.929  14.723  14.780
38769W        W  223   3.772  23.005  12.896
38770W        W  224  28.181  21.519  14.468
38771W        W  225   4.879  20.663   0.826
38772W        W  226  19.571   7.275   4.834
38773W        W  227  23.986  26.177  11.513
38774W        W  228  16.122  13.645   1.764
38775W        W  229  16.148   8.256   1.413
38776W        W  230  41.401  19.223  11.108
38777W        W  231   0.333  42.840   0.894
38778W        W  232  12.640   0.919   4.683
38779W        W  233   0.859  43.353  12.546
38780W        W  234  41.487  39.315   1.321
38781W        W  235   7.761  27.125   1.809
38782W        W  236  38.891  18.291  11.604
38783W        W  237  26.141  23.996   9.602
38784W        W  238  28.668  40.046   4.224
38785W        W  239  22.565  32.563   2.203
38786W        W  240  12.276  43.013  13.955
38787W        W  241  13.290  15.735   0.383
38788W        W  242   9.820  12.796  12.092
38789W        W  243  15.729  13.785  14.804
38790W        W  244   0.889   4.445  14.809
38791W        W  245  20.746  30.616   2.246
38792W        W  246   6.339  22.564  12.543
38793W        W  247  38.957   3.352  13.515
38794W        W  248  28.586  40.445  14.891
38795W        W  249  21.115  24.578   3.792
38796W        W  250  13.797  39.859  10.055
38797W        W  251  12.626   2.294  12.569
38798W        W  252  37.403  31.957  12.088
38799W        W  253  22.086  31.965  13.427
38800W        W  254  22.207  39.892   3.289
38801W        W  255  13.735  15.257  11.514
38802W        W  256  35.420  18.111   0.955
38803W        W  257  35.999  43.001  13.324
38804W        W  258  32.970  24.205   4.227
38805W        W  259  29.488   1.891  10.411
38806W        W  260  15.667  15.821   4.121
38807W        W  261  26.535  17.155   1.350
38808W        W  262  18.291  18.294  10.473
38809W        W  263  21.609  40.411  11.104
38810W        W  264  35.995   9.818  14.966
38811W        W  265  27.095  14.326   0.403
38812W        W  266  14.319  16.133   3.294
38813W        W  267  13.795  41.483  14.775
38814W        W  268  22.181  31.642  14.014
38815W        W  269  23.200   6.740   2.671
38816W        W  270  18.149   4.239   2.342
38817W        W  271  37.840  24.043   0.889
38818W        W  272  17.258   5.280   4.220
38819W        W  273  26.534   7.777  10.615
38820W        W  274  19.583  16.118  14.439
38821W        W  275  43.943  24.981  14.397
38822W        W  276   2.453  44.823  11.978
38823W        W  277  22.135  35.485  13.018
38824W        W  278  39.039  43.978  10.893
38825W        W  279  25.129  11.161  11.078
38826W        W  280   2.466   9.698   4.150
38827W        W  281  16.742  16.077  11.393
38828W        W  282  23.576  38.566  11.939
38829W        W  283   0.810  24.075   3.386
38830W        W  284  37.432  26.954  14.287
38831W        W  285  33.991  25.632  12.375
38832W        W  286  31.461  25.962  14.366
38833W        W  287  34.090  12.621  14.349
38834W        W  288  14.302  14.170   1.828
38835W        W  289   2.351  17.765   0.769
38836W        W  290   5.702   4.760  13.394
38837W        W  291  24.570  38.026  11.069
38838W        W  292  31.143  30.143  12.430
38839W        W  293  44.382   2.840  13.988
38840W        W  294  28.168  15.771   2.259
38841W        W  295  30.913   6.699   4.161
38842W        W  296  21.694  28.186  11.923
38843W        W  297  21.752  24.681   4.808
38844W        W  298   1.790  29.444  10.424
38845W        W  299  11.275  31.951   9.589
38846W        W  300  11.841  19.644  13.052
38847W        W  301  33.472  37.539   0.914
38848W        W  302   2.748  37.006  13.058
38849W        W  303  34.914  30.078  12.887
38850W        W  304  12.281  22.050   4.194
38851W        W  305  10.349  35.961  14.011
38852W        W  306  43.495  30.960  10.996
38853W        W  307  44.005  14.739   0.798
38854W        W  308  22.058  23.581  14.318
38855W        W  309  43.944  19.242   3.653
38856W        W  310  26.969   0.371  10.436
38857W        W  311   8.370  36.518   1.292
38858W        W  312  43.273  44.798   4.118
38859W        W  313   3.248   2.758  13.955
38860W        W  314  26.000  30.473   4.247
38861W        W  315  11.813  32.001   0.466
38862W        W  316   5.251   7.211  10.532
38863W        W  317  13.138  42.872   1.824
38864W        W  318  42.321  26.186  11.985
38865W        W  319  15.694  25.132   3.223
38866W        W  320  11.790  38.036   1.759
38867W        W  321  21.209  36.054  12.436
38868W        W  322   3.940  15.760  11.607
38869W        W  323  34.933  23.572  12.002
38870W        W  324  12.340  13.845   2.235
38871W        W  325  23.727  21.117   3.279
38872W        W  326  21.658  43.974  14.298
38873W        W  327  35.050  11.168  12.361
38874W        W  328  44.469  12.737   4.815
38875W        W  329  44.923  25.680   2.691
38876W        W  330  18.712  31.579  10.929
38877W        W  331  24.610   1.955   0.359
38878W        W  332  12.730  44.349   0.441
38879W        W  333   4.921  16.601  12.997
38880W        W  334  29.960  39.419  10.548
38881W        W  335  30.958  19.730  10.041
38882W        W  336   1.334  11.208  10.889
38883W        W  337  32.424  15.761   2.301
38884W        W  338  40.366  28.105  10.009
38885W        W  339   7.679   9.288  10.480
38886W        W  340  27.161   3.240  14.343
38887W        W  341   3.836  32.958   2.237
38888W        W  342  22.652  29.435   5.146
38889W        W  343  21.526  10.869   2.207
38890W        W  344   8.366  43.781   4.769
38891W        W  345  41.882  39.485   3.869
38892W        W  346   3.838  22.551   0.311
38893W        W  347   4.768  14.105  11.886
38894W        W  348  13.685  44.891   3.222
38895W        W  349  29.078  16.585   2.204
38896W        W  350  22.657  31.480   4.116
38897W        W  351   8.243  35.049   3.663
38898W        W  352  11.220  14.627   0.297
38899W        W  353   5.919  27.178  14.364
38900W        W  354  40.004  24.176  12.551
38901W        W  355  20.562  14.677   3.259
38902W        W  356  35.021  35.063   0.930
38903W        W  357  28.620   6.196   2.213
38904W        W  358  19.285   0.357   1.843
38905W        W  359   1.318  25.135  13.438
38906W        W  360  15.161  35.948  14.504
38907W        W  361  16.630  40.819  14.974
38908W        W  362  34.991  16.186   4.291
38909W        W  363   1.323  15.795   2.226
38910W        W  364  25.014  44.440  13.031
38911W        W  365  17.663  27.025  10.417
38912W        W  366   0.810  22.168   3.310
38913W        W  367  12.191   3.942   2.386
38914W        W  368  21.736  38.910   3.764
38915W        W  369  29.621  26.146   2.860
38916W        W  370  21.145  31.611  13.848
38917W        W  371  21.526  11.185   2.791
38918W        W  372  37.080  26.483   1.717
38919W        W  373   6.423   0.805  10.573
38920W        W  374   4.737   9.812   2.671
38921W        W  375  43.812  33.052  14.946
38922W        W  376   0.441   8.876   3.210
38923W        W  377  39.921  42.526  12.078
38924W        W  378  35.505   1.419   3.363
38925W        W  379   4.931  40.006  13.042
38926W        W  380  33.010   5.870   2.677
38927W        W  381   4.388  11.254   1.703
38928W        W  382  30.025  43.947  10.475
38929W        W  383  23.147  33.537   1.245
38930W        W  384  19.140  26.674  14.784
38931W        W  385  31.632  39.558  14.820
38932W        W  386  34.905  19.751   3.732
38933W        W  387   3.816  44.366  10.154
38934W        W  388  17.083  33.055   0.247
38935W        W  389  42.465  39.492  11.102
38936W        W  390   0.750  26.542  14.416
38937W        W  391  38.899  39.026  13.800
38938W        W  392  22.065  20.650   1.444
38939W        W  393  15.268   3.933   0.305
38940W        W  394  13.261  31.641  14.802
38941W        W  395  36.440  37.411   0.300
38942W        W  396   1.922  39.050  14.767
38943W        W  397   6.323  33.037   1.222
38944W        W  398  41.854  36.499  12.571
38945W        W  399   9.222   0.756   1.261
38946W        W  400  22.592  15.187   4.776
38947W        W  401  21.629   0.842   2.874
38948W        W  402   5.688  26.126   4.611
38949W        W  403  25.098  25.665  10.972
38950W        W  404  41.007  13.763   4.726
38951W        W  405  16.156  39.980   2.792
38952W        W  406  14.283  24.057   2.232
38953W        W  407  23.138  11.744   4.745
38954W        W  408  25.063   7.286   4.614
38955W        W  409  15.684   1.932  13.342
38956W        W  410  29.494   0.870  11.026
38957W        W  411  43.439  12.313   2.818
38958W        W  412  34.052  43.922  12.913
38959W        W  413  13.721  20.268   9.937
38960W        W  414  13.322  24.622   0.360
38961W        W  415  14.151  24.651  12.905
38962W        W  416   5.388  39.316  13.437
38963W        W  417  33.075   2.228   4.200
38964W        W  418   0.927   2.373   3.774
38965W        W  419  39.426  26.480   0.250
38966W        W  420   8.237  16.660  14.351
38967W        W  421  20.541   2.315   3.786
38968W        W  422  11.859  17.666   1.872
38969W        W  423  42.827  33.130  10.928
38970W        W  424  38.861   4.733  13.410
38971W        W  425  13.838   6.354   1.388
38972W        W  426  37.393  12.248   3.654
38973W        W  427  13.790  36.492   3.154
38974W        W  428  12.779   1.264  12.371
38975W        W  429  12.849  13.154   0.750
38976W        W  430  13.708  17.176   0.821
38977W        W  431  24.168   3.370   3.854
38978W        W  432  23.551  28.450  13.965
38979W        W  433  32.629  43.447   0.465
38980W        W  434  21.609   7.373   1.770
38981W        W  435  23.647  15.169  10.414
38982W        W  436  39.964  14.272   3.852
38983W        W  437  37.075  35.997   3.156
38984W        W  438  20.573  12.159  12.949
38985W        W  439  35.481  39.889   4.688
38986W        W  440   4.427  35.362  11.984
38987W        W  441  31.932  32.985  10.969
38988W        W  442   6.744  40.504   0.350
38989W        W  443  23.994  13.762  14.430
38990W        W  444  29.018   0.422   0.389
38991W        W  445  39.933  28.640   1.261
38992W        W  446  40.363  18.278   0.447
38993W        W  447   7.817  43.846   0.445
38994W        W  448  24.562  20.128   3.786
38995W        W  449  21.123   8.272   3.174
38996W        W  450  34.369   5.357  12.048
38997W        W  451   4.396  27.054  13.859
38998W        W  452  33.624  31.029  12.932
38999W        W  453  10.252   7.674   2.680
39000W        W  454  31.077  35.024   3.835
39001W        W  455   7.829  35.557  10.558
39002W        W  456   1.446   2.285   4.117
39003W        W  457  34.525   1.273   1.726
39004W        W  458  28.030  14.808  14.781
39005W        W  459  24.225  42.467   0.405
39006W        W  460  36.578  18.744  14.358
39007W        W  461  27.604  43.940   2.209
39008W        W  462  22.082  28.588  14.511
39009W        W  463  20.165  26.513  13.051
39010W        W  464  43.355  38.382   1.840
39011W        W  465  24.706   6.359   2.662
39012W        W  466  26.694  42.027  10.503
39013W        W  467   0.423  36.865   2.674
39014W        W  468  38.004   9.653  10.979
39015W        W  469  39.342  38.072   3.834
39016W        W  470   7.690   1.340  12.876
39017W        W  471  34.993   9.736   4.833
39018W        W  472  13.793  25.688  11.566
39019W        W  473  13.665  38.331   2.367
39020W        W  474   6.847  12.328   2.787
39021W        W  475  33.047   7.908   2.690
39022W        W  476   0.884  10.856   3.644
39023W        W  477  11.309  35.381  14.873
39024W        W  478  12.816  28.186   2.753
39025W        W  479  19.045  15.791  14.768
39026W        W  480   1.458  36.003  13.809
39027W        W  481  26.996   6.417  13.411
39028W        W  482  34.006  12.224  10.944
39029W        W  483  20.656   0.863   3.300
39030W        W  484  27.018  17.626  11.074
39031W        W  485  43.427  42.518  14.981
39032W        W  486   8.303  14.779  10.983
39033W        W  487   7.366  28.671   0.797
39034W        W  488   0.914  13.142   2.281
39035W        W  489  32.921   2.731   0.766
39036W        W  490   6.810  41.944   1.877
39037W        W  491   9.321  40.829   0.832
39038W        W  492  23.494   3.266   2.687
39039W        W  493  12.333  30.637  12.568
39040W        W  494  39.041  12.202  13.014
39041W        W  495   0.897   1.423  10.417
39042W        W  496   8.230  15.236   0.425
39043W        W  497  24.502  21.720   0.270
39044W        W  498  40.847   2.809   4.329
39045W        W  499  33.056  30.617  14.324
39046W        W  500  20.720  36.433  13.050
39047W        W  501   7.817  27.677  12.082
39048W        W  502  17.713  20.204   3.209
39049W        W  503  41.857  40.310  13.462
39050W        W  504  24.068   6.363  12.933
39051W        W  505   4.317  20.146   3.700
39052W        W  506  29.658  43.279   1.431
39053W        W  507   3.279  30.653   2.178
39054W        W  508  37.519  29.481  11.888
39055W        W  509  25.488  20.650   4.184
39056W        W  510  37.026   2.914  10.985
39057W        W  511   2.778  39.883  13.962
39058W        W  512  14.330  15.103   2.712
39059W        W  513  11.684  38.005  10.574
39060W        W  514   2.900  23.111  14.512
39061W        W  515  35.886  16.733  12.979
39062W        W  516   5.855   6.728   4.248
39063W        W  517   5.741  42.976  10.404
39064W        W  518  20.063  19.103  11.447
39065W        W  519  34.950   5.922   0.425
39066W        W  520   6.922  23.019   3.303
39067W        W  521  39.918   7.372   0.388
39068W        W  522  43.790  38.504  12.077
39069W        W  523  30.494  38.993   1.302
39070W        W  524  39.545   2.937  11.516
39071W        W  525   3.404  22.509  12.364
39072W        W  526   8.261  13.347   4.229
39073W        W  527  19.246  13.635  12.855
39074W        W  528  27.181  12.736  14.405
39075W        W  529  26.509  17.117  12.448
39076W        W  530  27.481  36.456  12.401
39077W        W  531  27.943  37.084   4.628
39078W        W  532   6.727  36.999   2.836
39079W        W  533  31.444  40.965  10.459
39080W        W  534  33.053  39.957  11.996
39081W        W  535   0.880  43.457  13.952
39082W        W  536  25.017   2.452  13.540
39083W        W  537  15.327  42.429  11.916
39084W        W  538  24.043  16.661   3.282
39085W        W  539  29.062  28.041   4.153
39086W        W  540  23.145  13.125   0.262
39087W        W  541  10.781  20.080  11.442
39088W        W  542  38.012  35.987  11.499
39089W        W  543  27.185   8.251   0.889
39090W        W  544  30.514   5.279  12.849
39091W        W  545  14.785  31.132  13.033
39092W        W  546  43.302  14.196  13.861
39093W        W  547  34.077   0.789   0.961
39094W        W  548  20.233  37.864   0.337
39095W        W  549  34.553   5.336   0.313
39096W        W  550  20.531   1.349   3.374
39097W        W  551  21.147   9.205   1.809
39098W        W  552  35.451   0.913   0.775
39099W        W  553  36.425  10.220  12.450
39100W        W  554  30.567  42.998  13.876
39101W        W  555   7.753  10.234   3.861
39102W        W  556  41.495   5.907   1.754
39103W        W  557   3.893  35.535  14.779
39104W        W  558  36.432  38.891  10.645
39105W        W  559  32.417  36.939   2.341
39106W        W  560  20.628  35.964  11.419
39107W        W  561  38.863   7.194   4.198
39108W        W  562  34.106  23.094   4.648
39109W        W  563  38.924  41.453   4.176
39110W        W  564  33.610  39.318   4.147
39111W        W  565  22.676  10.660  13.026
39112W        W  566   1.377  20.064  10.596
39113W        W  567  13.635  27.122   4.638
39114W        W  568  36.375  18.162   2.217
39115W        W  569  28.612  28.579   1.860
39116W        W  570  13.167  10.151   5.171
39117W        W  571  37.980  34.087  11.086
39118W        W  572  23.160  16.101  12.566
39119W        W  573  10.379  36.381  13.933
39120W        W  574  30.103  34.547   4.793
39121W        W  575   6.357  18.696   1.876
39122W        W  576   3.751  34.052  12.339
39123W        W  577  42.290   2.239  11.875
39124W        W  578   3.349  12.131   0.312
39125W        W  579  26.200  43.385   3.359
39126W        W  580  40.963  16.106  11.510
39127W        W  581  14.705  40.379   2.382
39128W        W  582  14.593  14.329   0.843
39129W        W  583   5.263  20.227   0.883
39130W        W  584  11.360   5.921  13.818
39131W        W  585  40.862   7.769  14.495
39132W        W  586   1.372  36.039  14.939
39133W        W  587   9.881   7.702  13.014
39134W        W  588   4.711  19.270   3.355
39135W        W  589   3.920   0.768   0.339
39136W        W  590  28.002  26.007   3.229
39137W        W  591  28.989   4.400   5.797
39138W        W  592  40.510  34.982  12.086
39139W        W  593  37.010  17.067   1.367
39140W        W  594   0.357  34.552   0.926
39141W        W  595  21.647  32.523   4.127
39142W        W  596  38.934  30.975   0.387
39143W        W  597  15.639  27.965  11.430
39144W        W  598  15.735  41.360  14.832
39145W        W  599  27.469   4.445  12.403
39146W        W  600   6.828  20.205  13.794
39147W        W  601  16.725  23.604  10.482
39148W        W  602   2.883  22.071  14.458
39149W        W  603  25.055  32.018  11.951
39150W        W  604  31.129  41.001   0.328
39151W        W  605  36.378  28.451  11.035
39152W        W  606  21.538  20.162   4.799
39153W        W  607  41.345  33.107   3.765
39154W        W  608   5.355  29.983   4.788
39155W        W  609   7.912  23.556  12.899
39156W        W  610   0.322   1.776   0.767
39157W        W  611  38.944  26.551  10.084
39158W        W  612  42.381   0.421  11.457
39159W        W  613  21.072  44.767   2.718
39160W        W  614  42.515  16.101  13.322
39161W        W  615  37.420  27.964  14.436
39162W        W  616  39.442  34.053   3.152
39163W        W  617  25.633  13.808   1.844
39164W        W  618  29.950  37.009   1.897
39165W        W  619  13.248  44.391   0.341
39166W        W  620  14.311  24.149   3.646
39167W        W  621   5.231  38.979  10.924
39168W        W  622  35.446  32.068  13.875
39169W        W  623  31.554  40.412  12.921
39170W        W  624   2.258   1.481   0.399
39171W        W  625  41.862  14.218  10.934
39172W        W  626  40.439  21.204   1.238
39173W        W  627  25.513   6.804   3.651
39174W        W  628  44.879  38.009   4.276
39175W        W  629  28.443  43.807   4.698
39176W        W  630   0.943  29.502  14.762
39177W        W  631  32.931  30.161   1.446
39178W        W  632  13.693  23.656  12.030
39179W        W  633  25.157   6.891  12.915
39180W        W  634   7.286  20.678   3.654
39181W        W  635  32.013  14.253  14.770
39182W        W  636  12.295  40.532  14.899
39183W        W  637  22.142  18.788   0.745
39184W        W  638  10.687   2.227  13.946
39185W        W  639  11.754  38.061  14.902
39186W        W  640   1.403  37.486  13.317
39187W        W  641  29.435   6.724   4.798
39188W        W  642  10.377  19.125   3.284
39189W        W  643  28.664  40.313   2.781
39190W        W  644  42.894  23.236  14.318
39191W        W  645   8.672  36.887   0.413
39192W        W  646  38.507   2.948  12.537
39193W        W  647  15.213   6.743  13.517
39194W        W  648  44.771  26.025   0.741
39195W        W  649  29.099  37.950   1.893
39196W        W  650  29.958  21.568   0.427
39197W        W  651  26.200   4.217  11.419
39198W        W  652   1.363  18.655   1.728
39199W        W  653   4.830  16.152   1.238
39200W        W  654  33.912  18.114   4.639
39201W        W  655  30.017  42.526  11.038
39202W        W  656  27.019  10.827   1.277
39203W        W  657   4.213  34.086   0.761
39204W        W  658   5.840  34.406  12.954
39205W        W  659   3.765   2.889   0.303
39206W        W  660  27.977   9.820   2.817
39207W        W  661  20.041   9.859   2.349
39208W        W  662  44.310  10.347  13.819
39209W        W  663  14.742  18.070  13.518
39210W        W  664  32.954  36.074  14.395
39211W        W  665  18.193  10.856  12.547
39212W        W  666   4.301   8.693   1.251
39213W        W  667   6.323  28.523   4.196
39214W        W  668  32.901  32.078   2.257
39215W        W  669  23.618  27.091   4.125
39216W        W  670  16.106  22.572   3.232
39217W        W  671  29.618  29.139  11.895
39218W        W  672  18.243  32.994  14.347
39219W        W  673   2.797   5.756  10.948
39220W        W  674  33.926  39.369  10.629
39221W        W  675  36.521  27.674  14.951
39222W        W  676  25.191  13.201   1.855
39223W        W  677  12.717   9.368  14.950
39224W        W  678  31.908   6.922  12.916
39225W        W  679  22.669  42.445  13.811
39226W        W  680   2.446  29.460  12.055
39227W        W  681   0.854  36.413  14.772
39228W        W  682  41.956  34.413   2.315
39229W        W  683   1.819  20.656   1.815
39230W        W  684  12.181  44.281  14.847
39231W        W  685   4.355  28.585   2.381
39232W        W  686  14.817  33.409   1.281
39233W        W  687  18.207  40.495   3.702
39234W        W  688  36.003  31.499   2.205
39235W        W  689   2.947  10.242  11.544
39236W        W  690  27.650   5.295   0.432
39237W        W  691  40.330  29.475  10.418
39238W        W  692   3.401  19.716  11.944
39239W        W  693  29.126  10.216  11.083
39240W        W  694   9.260  39.057   4.269
39241W        W  695  44.303  37.435  11.444
39242W        W  696  21.157  27.471   2.731
39243W        W  697  13.740   5.296  10.459
39244W        W  698  35.051  25.979  12.036
39245W        W  699  38.895  41.421   5.134
39246W        W  700  41.311  32.625   1.443
39247W        W  701  31.042  32.436  10.507
39248W        W  702  38.562   7.850  11.482
39249W        W  703  10.755   3.326  14.023
39250W        W  704   1.926  30.532   2.797
39251W        W  705  30.127  41.966  14.443
39252W        W  706   0.323  41.312   2.209
39253W        W  707  18.674  24.715   0.736
39254W        W  708  35.091  42.325  11.434
39255W        W  709  13.608  19.700  11.401
39256W        W  710  28.989  10.303  11.999
39257W        W  711  23.077  26.639  13.015
39258W        W  712  10.188  34.982   2.298
39259W        W  713  20.251  26.535  13.510
39260W        W  714  22.586   3.887  12.003
39261W        W  715  37.919  43.010   1.914
39262W        W  716  39.416  27.620  12.541
39263W        W  717  41.980  13.121   0.881
39264W        W  718  31.617  21.694  14.360
39265W        W  719   2.272   8.858  12.998
39266W        W  720  22.152  43.801  11.923
39267W        W  721   3.431   6.355  12.571
39268W        W  722  15.817  16.636  13.052
39269W        W  723  16.773   7.717   2.788
39270W        W  724  16.214  37.491   3.269
39271W        W  725   1.975  40.383  12.403
39272W        W  726   1.798  42.488   3.726
39273W        W  727  35.930  17.085  14.362
39274W        W  728  21.073  12.147   3.346
39275W        W  729  42.408  33.589   2.714
39276W        W  730   8.356  16.635   1.353
39277W        W  731   5.803  41.330  10.586
39278W        W  732  19.203   5.241   3.385
39279W        W  733  41.530  39.030   1.443
39280W        W  734   3.276   9.177  14.938
39281W        W  735  39.969   9.367  13.907
39282W        W  736  11.724  29.945  14.503
39283W        W  737  30.921   5.876  11.416
39284W        W  738  16.133  24.152  13.526
39285W        W  739  44.873   5.782  12.855
39286W        W  740   0.421   1.431  13.895
39287W        W  741  37.984   5.847  10.965
39288W        W  742   2.444  18.054   3.634
39289W        W  743  37.476  22.022   2.410
39290W        W  744   0.960  36.487  13.380
39291W        W  745  36.981  16.278  14.475
39292W        W  746  10.806  20.541   0.759
39293W        W  747  28.931  29.502   4.317
39294W        W  748  39.946  14.664  13.441
39295W        W  749  33.509  40.308  11.477
39296W        W  750  19.085  38.896   3.249
39297W        W  751  36.534  28.673   2.187
39298W        W  752   4.913  39.879  10.471
39299W        W  753  14.228  31.049  11.112
39300W        W  754  42.367  29.136   0.275
39301W        W  755  18.629  34.392  11.106
39302W        W  756  39.542  29.644  12.962
39303W        W  757  23.222  21.041   0.247
39304W        W  758   2.396  15.780   0.965
39305W        W  759  16.714  41.852   3.767
39306W        W  760  22.736  35.898  13.015
39307W        W  761  29.152  42.467   2.881
39308W        W  762  25.500  26.085   4.269
39309W        W  763  36.377  43.935   4.607
39310W        W  764   2.337   5.335  11.961
39311W        W  765  15.681  20.768   3.350
39312W        W  766  33.623  21.740   3.674
39313W        W  767  36.579  16.160   3.720
39314W        W  768  19.218  26.557   1.708
39315W        W  769  15.106  36.483   3.640
39316W        W  770   5.371   3.753   4.623
39317W        W  771   8.248   8.230  12.892
39318W        W  772  36.508  19.590   2.375
39319W        W  773  15.105  28.070  13.817
39320W        W  774  19.620  39.853   3.832
39321W        W  775  21.636   4.923  12.462
39322W        W  776  16.316  38.423   0.407
39323W        W  777  30.129  14.109   2.352
39324W        W  778   9.255  42.822   0.312
39325W        W  779  31.461  26.634   1.874
39326W        W  780  17.633   9.676  11.515
39327W        W  781  14.157  17.777  14.456
39328W        W  782  36.078  26.502  12.912
39329W        W  783  20.692  42.281  14.807
39330W        W  784   6.728  32.545  11.427
39331W        W  785   0.935  43.357  12.974
39332W        W  786  34.941  16.222   2.296
39333W        W  787  28.487  10.832   2.776
39334W        W  788  32.628   1.284  14.007
39335W        W  789  37.358  24.554   1.885
39336W        W  790  33.449   1.928   3.347
39337W        W  791   4.330   0.486  14.768
39338W        W  792   8.398  10.790  11.499
39339W        W  793  12.327  25.567  14.859
39340W        W  794  26.069  28.519   1.237
39341W        W  795  23.216  13.120   3.147
39342W        W  796  28.630  33.427  12.352
39343W        W  797   0.880   9.381   1.862
39344W        W  798  10.291  39.342  11.401
39345W        W  799  18.105  26.105  12.994
39346W        W  800  32.503  25.028   3.639
39347W        W  801  42.881  34.977   4.622
39348W        W  802  16.673   3.240  11.871
39349W        W  803  19.180   4.362  13.316
39350W        W  804  32.476  36.072   4.279
39351W        W  805  26.492  35.063   2.808
39352W        W  806  40.387   0.488  12.896
39353W        W  807   4.804   9.267  14.921
39354W        W  808  15.261  10.704  12.089
39355W        W  809  18.069  37.899  11.088
39356W        W  810   6.858   8.666  13.443
39357W        W  811   4.765  39.548  12.453
39358W        W  812  35.910  15.806  12.861
39359W        W  813   7.676  12.282   0.289
39360W        W  814  43.955   1.397   3.652
39361W        W  815   9.210   4.876  13.986
39362W        W  816  19.739  29.944   4.285
39363W        W  817  35.568   5.203   3.805
39364W        W  818  13.661  19.074  11.393
39365W        W  819   1.928   7.889   1.233
39366W        W  820   0.470  25.968  13.454
39367W        W  821  19.580   9.804  12.876
39368W        W  822  15.615  25.082   2.808
39369W        W  823  31.602  42.429  14.468
39370W        W  824  31.100  18.585  13.962
39371W        W  825   1.393   3.238  10.900
39372W        W  826  15.173  14.182  13.002
39373W        W  827  44.423  12.133   2.900
39374W        W  828  42.383  33.589  13.895
39375W        W  829  33.083  27.161   1.762
39376W        W  830  23.537  38.402  12.984
39377W        W  831   3.912   5.260   1.738
39378W        W  832  28.641  16.575   0.961
39379W        W  833   0.427  35.090   1.728
39380W        W  834   0.962   4.747   2.222
39381W        W  835  26.590  26.598   1.856
39382W        W  836  41.004  19.541   3.849
39383W        W  837  35.857  33.961   2.374
39384W        W  838  27.173  30.930   0.920
39385W        W  839  26.065  37.831   0.400
39386W        W  840   3.803  40.938  13.046
39387W        W  841   4.294  34.477   0.870
39388W        W  842  27.472  35.975   0.280
39389W        W  843   6.304  13.240   3.228
39390W        W  844  22.598  22.134  14.507
39391W        W  845  33.968  25.711   0.425
39392W        W  846   2.456  40.940   1.231
39393W        W  847  35.881  28.057   4.332
39394W        W  848  11.810  11.777   0.790
39395W        W  849   0.325  13.804  11.870
39396W        W  850  31.564  37.843  14.788
39397W        W  851  26.495  38.498   2.821
39398W        W  852  34.078  19.587   5.167
39399W        W  853  28.617  21.653  10.110
39400W        W  854  12.152  37.937   1.414
39401W        W  855  31.521  40.496   3.306
39402W        W  856  33.019  32.623   0.747
39403W        W  857  26.519  32.082  11.105
39404W        W  858  26.084   1.843  13.934
39405W        W  859   2.233  17.725   1.844
39406W        W  860  44.904  17.184  13.972
39407W        W  861  20.264  26.513  13.840
39408W        W  862  20.120  27.021   0.857
39409W        W  863  35.962   4.237   0.359
39410W        W  864   0.483   0.487   2.792
39411W        W  865   7.669   8.346   3.757
39412W        W  866   0.926  15.672   2.865
39413W        W  867   0.799  42.963   3.182
39414W        W  868  27.478   5.733  13.358
39415W        W  869   0.954  14.105  10.978
39416W        W  870  20.618  39.458   3.685
39417W        W  871  24.583  26.481   1.758
39418W        W  872  34.556  35.866   0.734
39419W        W  873  36.496  18.109   4.253
39420W        W  874   4.435  37.351  10.594
39421W        W  875  33.418   1.920  11.379
39422W        W  876  34.487  31.905   0.423
39423W        W  877  25.520   1.258  13.527
39424W        W  878  32.981  10.831   2.213
39425W        W  879  11.209  37.566  10.432
39426W        W  880  35.098  14.339  13.962
39427W        W  881  28.560  30.938  10.452
39428W        W  882   9.240  22.207   3.809
39429W        W  883  14.695   0.385  10.507
39430W        W  884   8.681   7.243  12.958
39431W        W  885   3.794   7.805   1.333
39432W        W  886  23.193  10.643  12.022
39433W        W  887  12.795   5.301   4.263
39434W        W  888  24.620  32.110  13.394
39435W        W  889  15.222  18.726  10.016
39436W        W  890  11.145  15.781  14.390
39437W        W  891   7.748   4.930  10.486
39438W        W  892  28.537  33.406   0.403
39439W        W  893  27.031  36.414  10.626
39440W        W  894  33.611  27.110   0.867
39441W        W  895   0.301  25.180  13.958
39442W        W  896   1.961  43.437  11.053
39443W        W  897  25.589   2.375   3.277
39444W        W  898  10.237  28.001  14.287
39445W        W  899  19.048  27.998  14.409
39446W        W  900  42.830  16.583  12.375
39447W        W  901  40.854  10.700  14.414
39448W        W  902  34.118  40.979   1.228
39449W        W  903  34.004  26.007   0.870
39450W        W  904   7.770  38.934  14.884
39451W        W  905   9.889  39.341  10.977
39452W        W  906  30.150  40.003  11.893
39453W        W  907   0.963  11.692  11.032
39454W        W  908   3.395  37.497  14.416
39455W        W  909  17.735  23.079   2.321
39456W        W  910  12.760  43.981   1.696
39457W        W  911  15.638  13.284   2.670
39458W        W  912   1.791  20.233  11.462
39459W        W  913  25.977  34.116   0.337
39460W        W  914  21.239  40.824  14.810
39461W        W  915  22.172  15.616   1.756
39462W        W  916  32.038   4.788  14.339
39463W        W  917  23.561  35.362  13.479
39464W        W  918  26.195  22.016   4.219
39465W        W  919   6.684  19.266   1.767
39466W        W  920  11.263  12.703   2.363
39467W        W  921  34.386  22.160   4.269
39468W        W  922  33.527  44.497   5.171
39469W        W  923  16.678   6.399  13.850
39470W        W  924   9.219   5.274   3.192
39471W        W  925  43.371  19.263   0.895
39472W        W  926  26.692  21.717  13.897
39473W        W  927  19.239  25.708   3.320
39474W        W  928  39.899  24.608  12.908
39475W        W  929  39.921   9.805   0.331
39476W        W  930   4.205   8.277  14.923
39477W        W  931  28.021  16.737   1.814
39478W        W  932  32.029  25.627  10.582
39479W        W  933   2.887   7.269  11.572
39480W        W  934  28.662  42.510   3.263
39481W        W  935  35.047   6.757  13.823
39482W        W  936  43.340  21.184  13.052
39483W        W  937  21.153   7.251   3.207
39484W        W  938  40.045  37.869  14.361
39485W        W  939   6.397  41.523  10.120
39486W        W  940  14.258  16.568   4.255
39487W        W  941  21.041   1.896  11.569
39488W        W  942  24.159  38.467  13.371
39489W        W  943  23.563   1.427   4.716
39490W        W  944  14.288   5.813  12.839
39491W        W  945  36.992  20.604  14.947
39492W        W  946   7.809   7.353  12.577
39493W        W  947  11.800  36.522  11.387
39494W        W  948   1.935  10.848   1.907
39495W        W  949  24.701   7.866   5.804
39496W        W  950   5.708  33.102  11.872
39497W        W  951  14.323   7.278  11.590
39498W        W  952  13.656  23.010   2.238
39499W        W  953  37.972  37.485  10.530
39500W        W  954  38.017  21.047  11.480
39501W        W  955  40.976  28.603   0.785
39502W        W  956  15.692  12.203   3.638
39503W        W  957  16.780  36.074  10.544
39504W        W  958  40.333   9.305   3.348
39505W        W  959   9.807  35.925   0.397
39506W        W  960  12.850  39.515   0.383
39507W        W  961   1.861  33.477  13.483
39508W        W  962  42.343  39.921   4.811
39509W        W  963  37.376  39.013  13.827
39510W        W  964  34.011   2.399   3.673
39511W        W  965  15.665  40.496  12.035
39512W        W  966  14.326   5.761   1.446
39513W        W  967  41.495  24.987  11.464
39514W        W  968   9.388   3.282  13.993
39515W        W  969   6.373   7.706  12.885
39516W        W  970   2.796  16.745  12.473
39517W        W  971  33.573  16.276  14.819
39518W        W  972  11.649  12.306   3.238
39519W        W  973  41.313   6.358   0.900
39520W        W  974  41.016  42.970  12.485
39521W        W  975  28.678   7.709   4.815
39522W        W  976  11.150  44.296  14.425
39523W        W  977  25.142  32.994  14.487
39524W        W  978   2.902  27.073  12.837
39525W        W  979   4.206  11.203   2.827
39526W        W  980  19.758   3.756  11.544
39527W        W  981  19.649  39.812  10.497
39528W        W  982  28.041  13.149   2.297
39529W        W  983  40.306  37.422  10.447
39530W        W  984  39.028  30.093  11.592
39531W        W  985  24.167  11.244  13.931
39532W        W  986   8.268  23.561   0.297
39533W        W  987  20.529  25.963  11.605
39534W        W  988   3.276   8.734   0.967
39535W        W  989  13.255  23.610   3.356
39536W        W  990  19.255  29.511   3.850
39537W        W  991  21.675  25.570   3.639
39538W        W  992  36.075  20.580   3.215
39539W        W  993  17.107  13.213   1.733
39540W        W  994   6.694  27.173  11.880
39541W        W  995  13.232   4.356  10.910
39542W        W  996  43.970  30.917   0.918
39543W        W  997   8.186  32.577  11.559
39544W        W  998  26.101  42.320  13.517
39545W        W  999   9.160   0.954   4.709
39546W        W 1000  22.198  18.286  10.454
39547W        W 1001  33.496  17.228  11.372
39548W        W 1002  37.918  30.481   2.694
39549W        W 1003   7.309  13.314   4.790
39550W        W 1004  37.342  33.501   2.893
39551W        W 1005  23.217  24.011   4.822
39552W        W 1006  38.417   2.356  10.498
39553W        W 1007  33.098  19.102   1.895
39554W        W 1008  27.128   1.351   5.796
39555W        W 1009  27.642   0.478   1.277
39556W        W 1010  33.607  42.431  12.050
39557W        W 1011   1.812  20.128   4.771
39558W        W 1012  19.702  35.471  10.566
39559W        W 1013  29.517  32.033  13.803
39560W        W 1014  14.683  22.198  11.127
39561W        W 1015  18.249  15.235   4.718
39562W        W 1016  31.634  28.583  12.028
39563W        W 1017  23.712  19.073   1.370
39564W        W 1018  41.457   1.431  11.447
39565W        W 1019  27.043  30.980   9.927
39566W        W 1020  35.553   2.448  12.956
39567W        W 1021  17.146  15.810  13.823
39568W        W 1022  11.695  37.523  11.949
39569W        W 1023   0.277  25.511   1.726
39570W        W 1024  33.048  14.797   4.188
39571W        W 1025  17.578  23.064   1.796
39572W        W 1026  37.074  33.924  12.858
39573W        W 1027  32.459  32.949   1.280
39574W        W 1028   2.255  44.780   1.256
39575W        W 1029  16.085   1.877  13.058
39576W        W 1030  43.764  44.926   4.222
39577W        W 1031   0.431  11.310   2.665
39578W        W 1032   3.241  27.495  14.445
39579W        W 1033  38.552   5.196   0.416
39580W        W 1034   3.761  17.121  13.838
39581W        W 1035  31.916  13.783  13.869
39582W        W 1036  10.660  16.262   4.315
39583W        W 1037  26.559  39.815  13.517
39584W        W 1038   4.376  16.131   0.796
39585W        W 1039  44.477  19.645  11.049
39586W        W 1040  29.169   0.834  13.875
39587W        W 1041  13.222  26.176  13.502
39588W        W 1042   3.354  16.777  12.854
39589W        W 1043  10.177   8.799   0.275
39590W        W 1044  32.070  37.435   1.849
39591W        W 1045  11.258  35.019  11.030
39592W        W 1046  28.170  44.268  13.801
39593W        W 1047  18.785   4.304  13.945
39594W        W 1048  35.902  34.021   0.418
39595W        W 1049  17.265  21.610   0.282
39596W        W 1050  42.847  39.992  11.041
39597W        W 1051  10.683  41.004   5.226
39598W        W 1052  35.003   6.191  11.584
39599W        W 1053   2.934  36.067  14.299
39600W        W 1054  22.176  41.944   0.812
39601W        W 1055  12.831  14.592  14.023
39602W        W 1056  32.538  38.036   0.356
39603W        W 1057  36.951  38.996   0.483
39604W        W 1058  27.673  38.404  14.896
39605W        W 1059  34.442  24.000  14.513
39606W        W 1060  36.449  33.986   4.803
39607W        W 1061  14.257  36.931  13.948
39608W        W 1062  38.554  15.754   0.320
39609W        W 1063  34.892  14.607   0.964
39610W        W 1064   9.816  29.605   0.882
39611W        W 1065  17.077   6.810  11.996
39612W        W 1066  25.072  24.171  10.996
39613W        W 1067   0.350  27.466  10.986
39614W        W 1068   5.411   6.716   2.413
39615W        W 1069   0.780  16.672  13.990
39616W        W 1070  22.568  17.120  14.846
39617W        W 1071  27.067  16.769   0.771
39618W        W 1072  19.659  25.488  11.564
39619W        W 1073  34.445  20.237  14.769
39620W        W 1074   1.765  37.909  12.387
39621W        W 1075   0.469  21.018  11.023
39622W        W 1076  16.593  11.643  13.046
39623W        W 1077  26.508  15.674   1.367
39624W        W 1078  13.703   9.831   2.317
39625W        W 1079  18.257   3.215   4.256
39626W        W 1080  24.480  37.949   0.749
39627W        W 1081  31.438  19.732  14.499
39628W        W 1082  37.569   8.227   1.246
39629W        W 1083   7.380  19.739  14.855
39630W        W 1084  10.206  18.066   1.221
39631W        W 1085   8.194  30.556   5.572
39632W        W 1086  18.084   5.699  12.990
39633W        W 1087  22.688  13.166   0.325
39634W        W 1088  23.174  18.620  10.457
39635W        W 1089  10.657  35.502   3.267
39636W        W 1090   5.268  13.783  12.908
39637W        W 1091  10.230  29.090   3.803
39638W        W 1092  35.929  23.185   0.353
39639W        W 1093   5.726  27.133   4.720
39640W        W 1094  44.279   4.820   1.210
39641W        W 1095   9.687  43.499  11.014
39642W        W 1096   2.824   5.291   1.933
39643W        W 1097   1.371  19.255  10.964
39644W        W 1098   3.817  28.664  11.595
39645W        W 1099  21.026   4.755  14.332
39646W        W 1100   7.359   4.706  12.553
39647W        W 1101  12.316  34.421  14.013
39648W        W 1102   0.809   8.891  14.458
39649W        W 1103  17.664  17.264  11.118
39650W        W 1104  20.738   2.843   3.313
39651W        W 1105   6.729  28.958  10.999
39652W        W 1106   5.829  24.565   4.807
39653W        W 1107   4.871  11.252   4.664
39654W        W 1108   6.700  29.119   3.279
39655W        W 1109  24.527  12.232   0.882
39656W        W 1110  10.341  22.543   3.190
39657W        W 1111  25.531  38.846   2.744
39658W        W 1112   9.206  26.990  10.544
39659W        W 1113  13.258  20.224  14.477
39660W        W 1114   4.401   0.939   1.780
39661W        W 1115  29.666  37.847   2.339
39662W        W 1116  42.795  44.857  12.422
39663W        W 1117   0.858  21.620   2.664
39664W        W 1118  43.403  17.189   3.667
39665W        W 1119  37.558  27.664   3.779
39666W        W 1120  16.264  21.734  14.001
39667W        W 1121  13.672  32.463  12.539
39668W        W 1122   4.228  14.217   3.683
39669W        W 1123  31.942   6.387  11.042
39670W        W 1124  16.759  18.786   4.712
39671W        W 1125  41.898  16.728  10.608
39672W        W 1126   6.719   8.819  10.473
39673W        W 1127  13.658  18.051  14.439
39674W        W 1128  16.621  32.988  12.426
39675W        W 1129  11.682  10.273  11.948
39676W        W 1130  27.595  10.262   9.985
39677W        W 1131  12.296  15.661  11.510
39678W        W 1132  32.456  23.668   1.733
39679W        W 1133  32.936  34.435  11.458
39680W        W 1134  17.620   8.202   1.301
39681W        W 1135  36.377  27.673  10.596
39682W        W 1136   5.413  32.538   3.233
39683W        W 1137  20.762  10.368  10.903
39684W        W 1138  11.205  19.625  12.829
39685W        W 1139  22.689  25.044   2.856
39686W        W 1140  44.757   1.400  13.021
39687W        W 1141  44.915  23.637  14.336
39688W        W 1142   5.410  43.397   2.862
39689W        W 1143  14.596   5.927   2.234
39690W        W 1144  25.588  16.664   1.314
39691W        W 1145  29.513  35.504   4.237
39692W        W 1146   7.695  11.818   2.790
39693W        W 1147  44.838  32.114   1.387
39694W        W 1148  36.577  35.521   4.616
39695W        W 1149  27.979  32.392  14.373
39696W        W 1150   4.350  14.782  14.501
39697W        W 1151  26.167   4.836   4.260
39698W        W 1152  38.470   1.951  12.555
39699W        W 1153  27.466  43.332  11.979
39700W        W 1154  17.086  18.735   0.266
39701W        W 1155  30.934  43.821  12.999
39702W        W 1156  44.774  35.995   4.318
39703W        W 1157  32.429  31.527  10.938
39704W        W 1158  20.098  23.056  11.122
39705W        W 1159  19.186   3.366   4.663
39706W        W 1160  37.047  13.707   3.225
39707W        W 1161   1.787  10.262   4.692
39708W        W 1162   7.703   2.855  14.970
39709W        W 1163   8.345  30.084   2.740
39710W        W 1164  19.691  34.966   0.933
39711W        W 1165  39.852  33.595  13.879
39712W        W 1166  23.514  34.876  11.582
39713W        W 1167  28.556  41.925  10.612
39714W        W 1168   6.253  37.439  12.082
39715W        W 1169  23.222  22.221  10.893
39716W        W 1170  22.743  26.092   0.785
39717W        W 1171  12.330  14.788  12.485
39718W        W 1172   5.919   4.885  11.538
39719W        W 1173   4.362   7.364  14.277
39720W        W 1174  16.648   5.844  13.817
39721W        W 1175  43.996  38.927   1.850
39722W        W 1176  35.069  21.513  14.944
39723W        W 1177  41.894  12.734   3.207
39724W        W 1178   1.885  11.696  11.523
39725W        W 1179  44.813  27.595  13.523
39726W        W 1180  39.002  27.128  11.978
39727W        W 1181  30.652  37.969  12.510
39728W        W 1182  21.558  17.609  10.918
39729W        W 1183  42.424  14.705  14.470
39730W        W 1184  20.221  12.121   2.881
39731W        W 1185  26.551   0.275   2.772
39732W        W 1186   7.290  34.510   2.809
39733W        W 1187  43.373  11.210   3.783
39734W        W 1188   7.904  42.919   5.156
39735W        W 1189  27.682  32.946   1.368
39736W        W 1190  24.492   6.758   3.205
39737W        W 1191  21.752  44.451  13.421
39738W        W 1192  43.850  10.839  12.555
39739W        W 1193  20.659  14.196  14.414
39740W        W 1194  28.997  13.106   1.278
39741W        W 1195  30.472  26.492  11.897
39742W        W 1196  44.403  16.181  11.973
39743W        W 1197  18.589  14.698  11.599
39744W        W 1198  42.995  14.638  10.572
39745W        W 1199  16.129   0.852   2.277
39746W        W 1200  21.717  25.612  12.358
39747W        W 1201  33.038  33.085   4.212
39748W        W 1202  22.730  37.396   4.283
39749W        W 1203   7.294  34.582  11.415
39750W        W 1204  41.025  11.648  14.454
39751W        W 1205   3.342  38.048   0.906
39752W        W 1206  30.627  12.150   2.813
39753W        W 1207  27.056  28.518  12.029
39754W        W 1208  24.013  28.566  12.501
39755W        W 1209   6.681  42.829   0.397
39756W        W 1210  24.123  20.172   3.345
39757W        W 1211  36.549  19.644   0.799
39758W        W 1212  17.179   8.828  14.770
39759W        W 1213  29.124  12.715   0.788
39760W        W 1214   6.309  31.907   1.403
39761W        W 1215  24.160  43.306  11.468
39762W        W 1216  22.124  13.206   2.270
39763W        W 1217  11.320  12.243  10.949
39764W        W 1218  25.621  37.913  13.820
39765W        W 1219  11.302  20.139  13.002
39766W        W 1220   5.912  41.976   0.313
39767W        W 1221  13.269  22.176   4.206
39768W        W 1222  34.944  34.095  12.562
39769W        W 1223   4.242  15.178   0.324
39770W        W 1224  23.239  30.999   1.901
39771W        W 1225  19.695  27.053  11.975
39772W        W 1226  20.719  40.385  13.332
39773W        W 1227  37.947   2.776  13.329
39774W        W 1228   0.300  10.257   4.745
39775W        W 1229   6.202  29.168  10.900
39776W        W 1230  42.902  19.689  12.851
39777W        W 1231   6.788  16.281   3.735
39778W        W 1232  23.497   8.289   0.389
39779W        W 1233  11.305  33.543  10.519
39780W        W 1234  11.707  17.733   2.232
39781W        W 1235  16.699   4.766   2.874
39782W        W 1236  18.106  43.347   3.214
39783W        W 1237  31.119  12.254  14.027
39784W        W 1238  27.946  37.865  12.387
39785W        W 1239   3.818  16.081   0.273
39786W        W 1240  30.464  18.063   0.462
39787W        W 1241  37.579  21.639  11.129
39788W        W 1242  43.005  16.095  13.359
39789W        W 1243   9.324  18.054  11.578
39790W        W 1244   4.840  19.687   5.300
39791W        W 1245  27.597  42.823   1.274
39792W        W 1246   7.843  23.054   3.241
39793W        W 1247   8.716  16.163   1.327
39794W        W 1248  44.405  21.063  14.762
39795W        W 1249  34.060  31.904   3.665
39796W        W 1250  33.389   3.393  10.467
39797W        W 1251   4.216  29.477  10.542
39798W        W 1252  42.998  12.798  13.366
39799W        W 1253  12.819  37.536  14.964
39800W        W 1254   6.329  16.638  11.583
39801W        W 1255  36.467   5.923  10.510
39802W        W 1256  27.983  33.927  11.879
39803W        W 1257   5.251  35.086   1.212
39804W        W 1258  11.205  26.161  13.800
39805W        W 1259  27.528   2.783  12.054
39806W        W 1260  32.072  36.405   3.842
39807W        W 1261   4.276   5.199   3.673
39808W        W 1262   7.838  44.878   3.755
39809W        W 1263  18.708   6.901   2.207
39810W        W 1264   3.382   2.374   4.282
39811W        W 1265   9.264   0.302   1.345
39812W        W 1266   8.219  15.735   4.178
39813W        W 1267  14.260  26.161  10.606
39814W        W 1268  31.491  12.280  14.860
39815W        W 1269  10.801  41.825  12.424
39816W        W 1270  10.359  36.959  11.908
39817W        W 1271   2.354  27.499   1.831
39818W        W 1272  34.451   3.794   3.331
39819W        W 1273  20.048  38.907   9.968
39820W        W 1274  34.565  44.813   3.284
39821W        W 1275  36.375  29.538  10.629
39822W        W 1276  12.316  24.657   0.428
39823W        W 1277  16.728   1.787  12.558
39824W        W 1278  35.528  14.632  12.531
39825W        W 1279  36.467  37.464  11.040
39826W        W 1280  20.166   9.781   0.346
39827W        W 1281  33.876  18.630   0.264
39828W        W 1282  26.548  23.044   4.124
39829W        W 1283  19.133  34.451  10.497
39830W        W 1284   0.388   7.903  13.357
39831W        W 1285  11.232  34.534  10.115
39832W        W 1286  44.430  20.693  10.644
39833W        W 1287  26.163  30.570   0.331
39834W        W 1288  42.800   6.424  13.418
39835W        W 1289  31.612  12.844  14.344
39836W        W 1290  19.672  32.042  13.848
39837W        W 1291  38.347  26.063  14.976
39838W        W 1292   3.296  17.722  11.112
39839W        W 1293  23.492  36.472  11.423
39840W        W 1294  34.386  34.099  13.928
39841W        W 1295  44.964  34.417   2.407
39842W        W 1296  13.756  33.981  12.064
39843W        W 1297  41.419  33.601   4.318
39844W        W 1298  38.489  25.610   1.894
39845W        W 1299   2.844   0.385   4.686
39846W        W 1300  40.899  29.150  10.418
39847W        W 1301  17.793   1.902  12.909
39848W        W 1302  17.211  38.405   4.725
39849W        W 1303  27.544  14.109  12.507
39850W        W 1304  16.295  12.317  10.529
39851W        W 1305  30.968  27.033   4.325
39852W        W 1306  24.589  40.052   0.774
39853W        W 1307   5.713  42.291  11.105
39854W        W 1308  23.025  43.285  14.514
39855W        W 1309  31.409  27.961  14.774
39856W        W 1310   5.917  36.447   3.684
39857W        W 1311  35.884  43.411  14.909
39858W        W 1312  34.893  34.447  14.909
39859W        W 1313  43.783  31.153  14.918
39860W        W 1314  10.861  30.519  11.952
39861W        W 1315  32.614  37.980  10.487
39862W        W 1316  25.166  13.145  11.111
39863W        W 1317  44.949  24.666  14.934
39864W        W 1318   8.252  17.107  10.503
39865W        W 1319   3.425  32.912   4.823
39866W        W 1320  39.887  22.013  11.083
39867W        W 1321  43.840  35.524   4.694
39868W        W 1322  40.371  31.933  12.572
39869W        W 1323  18.605   2.797   0.953
39870W        W 1324   7.751  31.424   0.761
39871W        W 1325   9.665  25.076  14.882
39872W        W 1326  33.904  33.047   0.370
39873W        W 1327  13.813  17.137   3.164
39874W        W 1328   1.831   9.769  11.065
39875W        W 1329  18.214   1.372  14.842
39876W        W 1330   4.275  16.775   3.383
39877W        W 1331   3.831  23.196   2.334
39878W        W 1332  13.228  11.129  13.332
39879W        W 1333  19.162  21.037   4.701
39880W        W 1334  33.941  10.802   1.748
39881W        W 1335   1.790  18.217  14.029
39882W        W 1336   0.494  37.951   1.859
39883W        W 1337  44.307  26.524   4.809
39884W        W 1338  18.620   7.201   5.249
39885W        W 1339   9.267  42.955   4.276
39886W        W 1340  14.679   7.240  11.090
39887W        W 1341  12.695   0.262  12.035
39888W        W 1342  30.471   0.772  11.058
39889W        W 1343  32.075  20.727   0.291
39890W        W 1344  35.515   8.249   3.793
39891W        W 1345  14.197  33.416  14.358
39892W        W 1346   4.715  31.479   0.337
39893W        W 1347   3.284  18.676  11.452
39894W        W 1348  10.799   7.900   0.322
39895W        W 1349  16.116  27.602  12.482
39896W        W 1350   1.335  11.761  14.870
39897W        W 1351  36.049  17.647  12.344
39898W        W 1352  10.347  39.935  13.458
39899W        W 1353  39.420  26.069  13.464
39900W        W 1354   5.757  27.150  10.448
39901W        W 1355  41.849  43.928  11.937
39902W        W 1356  29.638  16.684   2.666
39903W        W 1357  21.687  41.476   3.849
39904W        W 1358   7.245  43.300   0.949
39905W        W 1359  22.034   6.305   4.798
39906W        W 1360  21.552  43.446  13.958
39907W        W 1361  31.970  38.894  11.017
39908W        W 1362  35.047  38.397  13.906
39909W        W 1363  29.666  26.065  11.933
39910W        W 1364  16.578  44.409  11.126
39911W        W 1365   4.250  19.612   2.722
39912W        W 1366  32.468   7.835  10.895
39913W        W 1367  34.565  27.131   0.735
39914W        W 1368  33.489  32.090  14.918
39915W        W 1369  23.723  16.792  11.891
39916W        W 1370  40.969  16.186  12.023
39917W        W 1371   3.718  39.038  13.448
39918W        W 1372  17.577  36.540   0.736
39919W        W 1373   6.326   0.792  14.833
39920W        W 1374   3.906  13.171   2.791
39921W        W 1375  17.131   2.940  14.761
39922W        W 1376  13.233   3.874  11.006
39923W        W 1377   4.224   8.204   4.606
39924W        W 1378  16.685  42.800   1.822
39925W        W 1379   2.382  27.133   3.725
39926W        W 1380   0.404   8.278  10.423
39927W        W 1381  10.651  21.141  13.823
39928W        W 1382  40.546  40.980   5.231
39929W        W 1383  17.199  43.016   1.262
39930W        W 1384  40.824  14.235   4.198
39931W        W 1385  11.145  10.324   2.801
39932W        W 1386  19.646  43.337   2.862
39933W        W 1387  40.018  42.875  14.410
39934W        W 1388  27.633  42.977   4.129
39935W        W 1389  22.175  21.566  14.996
39936W        W 1390  35.523  38.897   0.290
39937W        W 1391  29.625  30.992   4.650
39938W        W 1392  15.211  33.043  12.431
39939W        W 1393   0.369  36.936   4.252
39940W        W 1394  14.242  15.710  12.824
39941W        W 1395  36.097  25.986   2.787
39942W        W 1396  30.911  10.369   2.793
39943W        W 1397  24.145  40.320   4.783
39944W        W 1398  22.536  28.011   3.860
39945W        W 1399  39.512  14.662  10.645
39946W        W 1400   8.363  19.279  11.057
39947W        W 1401  27.077  22.747   1.427
39948W        W 1402   8.721  21.093  11.543
39949W        W 1403  19.185   2.930   0.816
39950W        W 1404  32.584  24.705   3.320
39951W        W 1405  42.018   5.810   3.789
39952W        W 1406  14.252  25.481   5.260
39953W        W 1407  40.444  18.683   3.357
39954W        W 1408  24.125  30.927   2.362
39955W        W 1409  22.673   3.230  11.970
39956W        W 1410  42.510   6.752   0.967
39957W        W 1411  31.961  25.049  14.362
39958W        W 1412  17.171  30.455  11.569
39959W        W 1413  17.584   1.257   1.777
39960W        W 1414   1.292  30.086  12.499
39961W        W 1415  12.172   8.830   0.350
39962W        W 1416  27.035  43.451   1.305
39963W        W 1417  38.541  21.634  12.063
39964W        W 1418  22.996  21.140  14.296
39965W        W 1419   3.449  40.924   1.851
39966W        W 1420   5.929  26.531  10.408
39967W        W 1421   7.840   6.893   3.771
39968W        W 1422  17.746   1.321  11.036
39969W        W 1423  27.992  21.093   0.398
39970W        W 1424  16.199  18.130   4.836
39971W        W 1425  43.509  29.100   1.890
39972W        W 1426  12.714  25.654   0.440
39973W        W 1427  27.517  34.465   3.862
39974W        W 1428  13.629  33.602   4.831
39975W        W 1429  43.870  20.705  14.836
39976W        W 1430  18.278  25.478  13.813
39977W        W 1431   0.877  44.364   4.710
39978W        W 1432  28.043  44.503  12.997
39979W        W 1433  17.182  13.752   1.374
39980W        W 1434  10.332  15.120  10.484
39981W        W 1435  25.152  19.577   0.327
39982W        W 1436  27.950   0.458  11.600
39983W        W 1437   6.684  29.555  14.441
39984W        W 1438   7.845  22.101   1.828
39985W        W 1439  17.243   9.644  12.469
39986W        W 1440  23.167  35.090   1.392
39987W        W 1441   1.869  23.637  10.615
39988W        W 1442   0.294  42.526   4.751
39989W        W 1443  13.837  40.436   1.245
39990W        W 1444  37.345  42.502   1.732
39991W        W 1445  27.093  28.483   2.711
39992W        W 1446  22.746  43.287  12.529
39993W        W 1447  28.479   6.884   0.741
39994W        W 1448  23.567  10.759  14.769
39995W        W 1449   6.764  12.283  14.464
39996W        W 1450  30.562  43.436  14.830
39997W        W 1451  29.496  39.028  12.888
39998W        W 1452  42.497  14.711  13.816
39999W        W 1453   7.191  17.081  10.556
40000W        W 1454  18.171  41.792   4.665
40001W        W 1455   6.691  17.270   0.753
40002W        W 1456  34.525  22.996  12.054
40003W        W 1457   1.321  23.203  13.859
40004W        W 1458   1.977  24.499  11.514
40005W        W 1459   3.442   6.704  11.043
40006W        W 1460   1.310   5.205  10.572
40007W        W 1461   7.340   1.818   3.731
40008W        W 1462  39.995  29.038  12.342
40009W        W 1463  27.613  37.858  12.905
40010W        W 1464   6.233   1.370  11.051
40011W        W 1465  43.348  35.490  14.888
40012W        W 1466  41.364  38.031  13.343
40013W        W 1467  35.582  32.455  13.350
40014W        W 1468   1.410  33.626  13.968
40015W        W 1469  32.000  21.728   3.854
40016W        W 1470  40.872  38.985  14.814
40017W        W 1471  29.919  20.037   2.239
40018W        W 1472   6.345  36.062  11.400
40019W        W 1473  28.522  42.029  11.569
40020W        W 1474  18.133   1.377  10.433
40021W        W 1475  34.614   1.396   2.418
40022W        W 1476   4.755   8.845   1.408
40023W        W 1477  44.476  12.652   0.742
40024W        W 1478  11.178  27.632   3.681
40025W        W 1479  16.248   9.851  14.808
40026W        W 1480  39.499   4.264   2.797
40027W        W 1481   3.945  30.472   5.210
40028W        W 1482  19.232  16.226   0.760
40029W        W 1483  23.006  44.755  12.958
40030W        W 1484  17.796   3.459   2.784
40031W        W 1485  18.138   9.169  12.485
40032W        W 1486  16.731  10.823   1.841
40033W        W 1487  41.449  37.072   3.768
40034W        W 1488  17.794  19.176  11.483
40035W        W 1489  12.626  27.489   2.242
40036W        W 1490  16.300  18.728   1.812
40037W        W 1491  18.710  36.851   3.855
40038W        W 1492  40.847   0.374  11.506
40039W        W 1493   2.258  27.647   2.701
40040W        W 1494   1.933  29.425   2.897
40041W        W 1495  42.307  33.563  13.523
40042W        W 1496   4.361  12.254   4.731
40043W        W 1497  12.141  43.832   2.189
40044W        W 1498  34.523   2.309   3.216
40045W        W 1499  43.919   1.785   4.300
40046W        W 1500  27.471  29.153   4.119
40047W        W 1501   3.896  26.046  12.370
40048W        W 1502   3.738  12.121  13.397
40049W        W 1503  27.949  20.076   1.333
40050W        W 1504  17.635  22.164   3.335
40051W        W 1505  42.854   6.703   0.790
40052W        W 1506   4.754  30.000   1.334
40053W        W 1507  31.024  31.943  12.958
40054W        W 1508  33.425  43.383   3.855
40055W        W 1509  40.869  39.022  11.392
40056W        W 1510   0.963  18.729   2.826
40057W        W 1511  33.453  35.475   0.327
40058W        W 1512   8.312  17.708   2.827
40059W        W 1513  15.290  20.653  13.813
40060W        W 1514  41.973  31.960  14.290
40061W        W 1515  32.091   0.395   4.614
40062W        W 1516  34.928   7.719  13.924
40063W        W 1517  17.235  22.616  13.362
40064W        W 1518  41.948   0.773  13.368
40065W        W 1519  31.972   2.279   5.240
40066W        W 1520  18.164  35.569   3.769
40067W        W 1521   1.806  31.444   1.710
40068W        W 1522  17.207  40.418   1.259
40069W        W 1523  16.618  28.675  14.472
40070W        W 1524  25.182  26.490   1.407
40071W        W 1525  40.370  28.056   1.373
40072W        W 1526   2.398  13.603  11.459
40073W        W 1527  14.633  39.370   3.820
40074W        W 1528  43.320  17.639   1.288
40075W        W 1529  36.869  24.978   1.307
40076W        W 1530  33.427  30.628  12.905
40077W        W 1531  35.590   6.737   0.787
40078W        W 1532  20.126   8.692   2.405
40079W        W 1533  38.560  18.659  12.566
40080W        W 1534  26.591  27.992  12.860
40081W        W 1535   3.407   6.247  13.921
40082W        W 1536   1.390   1.350  13.028
40083W        W 1537   6.905  37.545   5.114
40084W        W 1538  35.461  34.012   4.777
40085W        W 1539  22.631   8.223  13.031
40086W        W 1540  36.382  21.214   1.295
40087W        W 1541  12.840  37.975   4.170
40088W        W 1542  38.553  25.054   2.328
40089W        W 1543  43.489  32.542   4.233
40090W        W 1544  21.144  43.816   1.768
40091W        W 1545  19.243  23.653   2.667
40092W        W 1546  23.227  18.782   1.809
40093W        W 1547   7.317  39.546   2.842
40094W        W 1548  17.075  14.624   1.827
40095W        W 1549  21.211   4.327  10.140
40096W        W 1550  29.085  40.494  10.421
40097W        W 1551  12.619  18.127  14.986
40098W        W 1552   0.296   3.432   4.214
40099W        W 1553  41.401  41.343   4.157
40100W        W 1554  16.227  31.153   0.741
40101W        W 1555   7.209  24.493  11.415
40102W        W 1556  26.474   2.866  13.925
40103W        W 1557   9.746  30.532   3.192
40104W        W 1558   9.796   4.942  12.411
40105W        W 1559  36.347   9.324   4.259
40106W        W 1560  24.648  16.080   0.397
40107W        W 1561   6.385  33.414   0.383
40108W        W 1562  22.725   6.278  11.536
40109W        W 1563  44.958  43.788  11.990
40110W        W 1564  35.063  19.763  10.082
40111W        W 1565   5.400  17.245  14.913
40112W        W 1566  10.148  29.920   4.757
40113W        W 1567  36.984  24.147   2.870
40114W        W 1568  23.626  38.557   4.598
40115W        W 1569   8.383  28.580  14.446
40116W        W 1570  21.621  44.873  11.952
40117W        W 1571  30.587  28.586  12.083
40118W        W 1572  11.742  43.958   2.830
40119W        W 1573  20.548   8.351  11.052
40120W        W 1574  44.285  16.611   1.703
40121W        W 1575   0.310  29.567  12.939
40122W        W 1576  42.475   9.837  12.548
40123W        W 1577  38.907   4.826  11.073
40124W        W 1578  28.648   7.385  11.403
40125W        W 1579  14.634  28.990  13.467
40126W        W 1580  10.867  43.832  12.559
40127W        W 1581   7.786   0.761   1.357
40128W        W 1582   7.334  30.653   3.758
40129W        W 1583  17.687  38.964   3.674
40130W        W 1584  19.168  15.328  10.542
40131W        W 1585  12.636   6.760  14.899
40132W        W 1586  29.533  21.121   2.830
40133W        W 1587  40.958   7.238  14.964
40134W        W 1588  14.337   8.363   0.919
40135W        W 1589  41.416   8.221   4.152
40136W        W 1590  35.063  34.899  13.335
40137W        W 1591   7.355  15.698   4.678
40138W        W 1592  44.902  30.937  12.490
40139W        W 1593  16.226  17.255   2.405
40140W        W 1594  10.829  36.484   2.722
40141W        W 1595  25.480  41.472  13.796
40142W        W 1596  44.891   1.897   4.809
40143W        W 1597   9.774  20.034  11.059
40144W        W 1598   2.820  37.370   4.232
40145W        W 1599  30.457  30.603  14.348
40146W        W 1600  12.221   7.854   3.168
40147W        W 1601  33.424  10.227   1.446
40148W        W 1602   2.770  39.972  10.465
40149W        W 1603  41.806  32.535  11.875
40150W        W 1604  23.033  15.088  11.390
40151W        W 1605   5.861   5.703  10.937
40152W        W 1606  27.951  38.392  14.821
40153W        W 1607  24.982  20.073   3.799
40154W        W 1608  35.465  40.368   4.695
40155W        W 1609  22.162  23.650  12.956
40156W        W 1610  24.490  27.592  12.052
40157W        W 1611  37.834  25.031   4.694
40158W        W 1612  17.239   0.907  13.824
40159W        W 1613  38.379  16.809   1.268
40160W        W 1614  44.449  32.122   3.316
40161W        W 1615  27.137  27.162  13.972
40162W        W 1616  41.331  44.269  10.149
40163W        W 1617  39.012  19.602  13.340
40164W        W 1618  36.356   4.241  13.541
40165W        W 1619  31.152  27.635  13.016
40166W        W 1620   4.433  33.910  11.421
40167W        W 1621  34.446  36.929   1.832
40168W        W 1622  26.066  37.953   4.318
40169W        W 1623  29.508  21.061  13.432
40170W        W 1624   0.850   8.252  13.025
40171W        W 1625  25.710  17.597  14.377
40172W        W 1626  12.724  43.308   3.344
40173W        W 1627  10.656   7.801   4.750
40174W        W 1628  13.309   4.387   4.326
40175W        W 1629  32.028  23.166  10.576
40176W        W 1630  41.817  36.582   1.820
40177W        W 1631  21.748  23.546   3.259
40178W        W 1632   6.289  24.613  10.464
40179W        W 1633  28.041  25.158   2.849
40180W        W 1634  38.355  11.241  13.872
40181W        W 1635  13.196  29.523   3.256
40182W        W 1636   9.187   3.782   3.763
40183W        W 1637  17.279  14.283   0.963
40184W        W 1638  32.410  28.611  11.524
40185W        W 1639   7.753  41.500   5.204
40186W        W 1640  31.143  36.480  14.437
40187W        W 1641  39.353  42.406  12.845
40188W        W 1642   3.267  44.265  13.426
40189W        W 1643  41.334  42.822   0.368
40190W        W 1644  44.826  24.166   4.226
40191W        W 1645  11.250  37.943   3.783
40192W        W 1646   9.870  39.011   1.390
40193W        W 1647  14.188  12.116   2.901
40194W        W 1648  10.345  44.409   4.288
40195W        W 1649   7.282  10.333  14.431
40196W        W 1650  24.206  13.206  14.372
40197W        W 1651  15.743   2.290  13.055
40198W        W 1652  44.878  40.434  14.400
40199W        W 1653   3.346  22.067   2.779
40200W        W 1654  37.847  21.164  11.911
40201W        W 1655  24.135  31.623   0.351
40202W        W 1656  38.454   0.887   2.886
40203W        W 1657  18.115   2.909   0.356
40204W        W 1658  10.374   1.910  11.865
40205W        W 1659  30.585  30.113  10.913
40206W        W 1660  44.987  13.732  12.966
40207W        W 1661  41.389  18.244  13.343
40208W        W 1662  29.001  36.390  14.994
40209W        W 1663  29.929  44.318   0.737
40210W        W 1664  12.143  32.579  14.824
40211W        W 1665  29.965  36.502  13.339
40212W        W 1666  15.287   2.414  11.976
40213W        W 1667   9.223  44.848  13.471
40214W        W 1668   1.762   9.322   4.303
40215W        W 1669  42.841  23.705   2.684
40216W        W 1670  30.657  42.893  10.448
40217W        W 1671  42.476   2.850  10.975
40218W        W 1672  41.980   5.911  14.394
40219W        W 1673   5.240  18.616   3.649
40220W        W 1674  36.568  11.181  10.561
40221W        W 1675  33.418  36.934  14.375
40222W        W 1676  38.535   9.205  11.108
40223W        W 1677  40.838   5.733   1.700
40224W        W 1678  36.373   4.867  10.450
40225W        W 1679  43.353  18.591   0.273
40226W        W 1680  15.203   6.228  10.585
40227W        W 1681  35.051  40.861   1.827
40228W        W 1682  15.103  39.020  13.471
40229W        W 1683   0.252  27.645  12.955
40230W        W 1684   3.884  26.500   1.318
40231W        W 1685   8.201  44.806  13.902
40232W        W 1686  11.317  37.917   2.872
40233W        W 1687  18.107  36.097  11.384
40234W        W 1688  11.192  37.038   0.857
40235W        W 1689   7.323  34.120  13.798
40236W        W 1690   0.342  10.767  13.429
40237W        W 1691  41.877  10.204  10.150
40238W        W 1692  38.373  32.037   9.986
40239W        W 1693  31.445  11.278   1.886
40240W        W 1694   0.770  42.956  13.804
40241W        W 1695   1.332  42.019  12.457
40242W        W 1696  10.836  42.007   4.275
40243W        W 1697  23.006  33.408  14.928
40244W        W 1698   2.767   6.236   0.802
40245W        W 1699  27.155  15.239  10.913
40246W        W 1700  35.375  25.589   4.319
40247W        W 1701  34.471  22.237   3.824
40248W        W 1702   3.444  44.335   3.740
40249W        W 1703  13.267  20.132   0.926
40250W        W 1704  29.995  25.053  14.869
40251W        W 1705   1.376  13.256   0.484
40252W        W 1706  34.904  25.019  14.277
40253W        W 1707  23.151   7.815  12.351
40254W        W 1708  10.843  35.895  12.532
40255W        W 1709  25.128  35.384  13.971
40256W        W 1710  15.263   8.178   0.870
40257W        W 1711  30.645   8.832   4.697
40258W        W 1712   7.681  24.693   1.796
40259W        W 1713  29.524  18.729  10.427
40260W        W 1714  24.226  27.572   1.274
40261W        W 1715  24.168   3.721   0.437
40262W        W 1716   5.699  13.164  13.522
40263W        W 1717  37.422  40.852  13.501
40264W        W 1718  30.607   4.745  13.473
40265W        W 1719  25.197  24.213  11.520
40266W        W 1720  41.982  33.561  12.936
40267W        W 1721  38.903  43.422   4.166
40268W        W 1722  43.971  15.231  14.852
40269W        W 1723   5.853   9.194   4.118
40270W        W 1724  40.049  21.542   3.693
40271W        W 1725  38.499  20.687   2.313
40272W        W 1726  22.023   8.389  12.046
40273W        W 1727  42.846  28.621  13.032
40274W        W 1728  39.009  24.157   3.282
40275W        W 1729  13.246  30.576   4.340
40276W        W 1730  21.719   1.455  13.937
40277W        W 1731  37.568   4.412  11.074
40278W        W 1732   1.327   7.207  12.000
40279W        W 1733  42.889  33.101   4.686
40280W        W 1734  29.596  14.333   0.410
40281W        W 1735   0.917  43.485  13.466
40282W        W 1736  10.199   7.795   0.932
40283W        W 1737  32.103   0.907  10.429
40284W        W 1738  33.510  25.009   1.801
40285W        W 1739  22.698  26.599  11.862
40286W        W 1740  18.157   7.827  14.289
40287W        W 1741  12.348   2.327  12.028
40288W        W 1742  21.159  17.721   2.860
40289W        W 1743   8.685  35.593  13.522
40290W        W 1744   7.401  12.249   1.929
40291W        W 1745   9.394  19.605  13.934
40292W        W 1746  27.630  24.629   0.846
40293W        W 1747  11.820  27.985  10.070
40294W        W 1748  18.251  35.517  11.007
40295W        W 1749  30.081  32.100   1.915
40296W        W 1750  35.522   5.397   3.220
40297W        W 1751  30.656   3.822   4.624
40298W        W 1752  10.235   5.196  12.357
40299W        W 1753  11.808  44.876   2.692
40300W        W 1754  14.769  12.329   2.799
40301W        W 1755  44.862  39.498  14.490
40302W        W 1756   2.752  23.584   2.800
40303W        W 1757   9.756  29.110  10.943
40304W        W 1758  24.001  16.749   0.772
40305W        W 1759  12.721   8.285  14.934
40306W        W 1760  36.498  32.896   4.806
40307W        W 1761   4.331   8.665   5.150
40308W        W 1762  11.265  15.096   0.844
40309W        W 1763   3.809  22.155  13.836
40310W        W 1764  28.585  34.423  11.481
40311W        W 1765  14.112  13.306   0.849
40312W        W 1766  31.416  18.283  14.914
40313W        W 1767  33.945  39.042   0.350
40314W        W 1768  13.300  27.050   1.793
40315W        W 1769   9.362  30.559   5.308
40316W        W 1770  36.470  14.721   3.665
40317W        W 1771  34.008   1.954   1.252
40318W        W 1772  12.239  12.236  12.948
40319W        W 1773  26.162  42.282   4.178
40320W        W 1774  28.166  34.508  11.003
40321W        W 1775   6.855   0.481  11.000
40322W        W 1776   0.461  14.790   0.469
40323W        W 1777  44.824  21.067   2.209
40324W        W 1778  11.860  18.135   1.430
40325W        W 1779  23.650  13.176   3.317
40326W        W 1780  16.750  23.524   0.760
40327W        W 1781  31.548  41.922  10.503
40328W        W 1782  39.812   8.319   0.909
40329W        W 1783  38.880  43.021   3.154
40330W        W 1784  34.395   3.947  12.513
40331W        W 1785  38.915   3.871   4.690
40332W        W 1786  30.942  29.479   1.930
40333W        W 1787  44.408  30.520   1.777
40334W        W 1788  17.558  24.682  12.446
40335W        W 1789   8.896  40.977   3.298
40336W        W 1790  26.106  28.630  12.523
40337W        W 1791  26.654  28.155  11.042
40338W        W 1792  13.600  29.031  10.582
40339W        W 1793  31.977   1.837   1.898
40340W        W 1794  34.939  16.665  13.524
40341W        W 1795  33.395  20.682   0.941
40342W        W 1796  22.536   0.806   5.173
40343W        W 1797   4.357  30.151   1.371
40344W        W 1798  37.072  14.314   0.833
40345W        W 1799  27.072   5.907   0.849
40346W        W 1800  38.957  40.887   1.318
40347W        W 1801  11.256  12.297  10.449
40348W        W 1802  38.569  42.963  13.366
40349W        W 1803  28.629   9.696  12.551
40350W        W 1804  16.776  22.666   3.163
40351W        W 1805  20.711   3.392  12.943
40352W        W 1806  12.246  33.094   4.817
40353W        W 1807  29.605  41.904  12.003
40354W        W 1808  33.048  18.776  14.464
40355W        W 1809  44.844  35.481   1.890
40356W        W 1810  24.654  39.052  10.576
40357W        W 1811  43.490  17.672  14.513
40358W        W 1812  30.420  18.682  13.976
40359W        W 1813  20.768  32.965   0.356
40360W        W 1814  38.964   6.404   4.219
40361W        W 1815  17.580   0.270  12.083
40362W        W 1816  44.945   3.818   2.416
40363W        W 1817  27.560  17.281   3.713
40364W        W 1818  40.836  39.475   1.860
40365W        W 1819  41.866  38.893  11.946
40366W        W 1820  42.787   3.378  12.049
40367W        W 1821  31.020  21.720  12.547
40368W        W 1822   2.734  42.382  13.042
40369W        W 1823  14.781   8.660  11.950
40370W        W 1824  10.661  31.616  11.946
40371W        W 1825  19.547  26.057  12.038
40372W        W 1826  31.584  22.516   0.954
40373W        W 1827  18.677  18.137   3.192
40374W        W 1828  38.451  36.539  13.972
40375W        W 1829  33.575  34.098   0.843
40376W        W 1830  19.210  28.563   0.425
40377W        W 1831   2.836  34.118   4.719
40378W        W 1832  25.066  19.731   4.330
40379W        W 1833  20.607  14.242   1.697
40380W        W 1834  19.144  10.231   2.259
40381W        W 1835   6.872  20.045  14.897
40382W        W 1836  12.224  37.554  10.953
40383W        W 1837  36.919   8.195  10.515
40384W        W 1838   8.838  42.303  13.990
40385W        W 1839  38.916  17.713   0.448
40386W        W 1840  26.153   0.909   1.924
40387W        W 1841  38.874  16.172   0.345
40388W        W 1842  10.718   7.801  14.962
40389W        W 1843  24.214  41.317   4.617
40390W        W 1844  37.365  26.560   4.669
40391W        W 1845  16.584  10.281   4.655
40392W        W 1846   2.229  37.512   4.322
40393W        W 1847  16.210  38.870   9.459
40394W        W 1848  11.710   9.174   1.405
40395W        W 1849  43.793  28.490  12.504
40396W        W 1850  18.752  25.552   0.879
40397W        W 1851  22.079  11.714  12.494
40398W        W 1852   2.319  40.479   0.440
40399W        W 1853  13.694  38.556   9.635
40400W        W 1854   0.291  20.580  11.909
40401W        W 1855  24.038  24.218  14.915
40402W        W 1856  29.941  30.129   2.885
40403W        W 1857  30.945  38.502   1.345
40404W        W 1858  34.416  27.990  13.337
40405W        W 1859  27.656  17.773  12.484
40406W        W 1860  19.762   9.229   4.179
40407W        W 1861  36.893   8.865  12.440
40408W        W 1862  15.702  40.856  10.891
40409W        W 1863  13.350  14.113  12.037
40410W        W 1864  14.107  28.948   1.228
40411W        W 1865  40.307  13.642   0.320
40412W        W 1866  31.980  13.120   4.203
40413W        W 1867  18.289  19.651   0.966
40414W        W 1868  21.743   7.227  14.912
40415W        W 1869   4.754   2.779  14.369
40416W        W 1870   1.772  28.551   1.220
40417W        W 1871  36.571   4.747   9.984
40418W        W 1872  13.199   6.881   3.171
40419W        W 1873  22.062   3.238  14.956
40420W        W 1874   9.696  17.730  11.039
40421W        W 1875  29.572  10.222  12.406
40422W        W 1876  26.674  17.741   3.836
40423W        W 1877  34.610  21.111   2.756
40424W        W 1878  28.110  23.707   3.649
40425W        W 1879  30.461  10.142   5.699
40426W        W 1880   5.756  35.047   3.660
40427W        W 1881  30.593  30.532   1.933
40428W        W 1882  44.950   8.352  12.525
40429W        W 1883  35.494  39.918   1.728
40430W        W 1884  39.066  25.987  14.791
40431W        W 1885  12.358   0.311  11.518
40432W        W 1886  21.544  19.598   2.382
40433W        W 1887  19.685   0.846  13.908
40434W        W 1888  24.110  23.142  13.008
40435W        W 1889  28.578  13.834  11.865
40436W        W 1890  29.042  36.905  12.064
40437W        W 1891   5.817  11.681   4.689
40438W        W 1892  36.521  23.557   2.261
40439W        W 1893  27.501  32.527   0.398
40440W        W 1894  31.645  41.522   4.791
40441W        W 1895  30.930  24.532  11.879
40442W        W 1896  20.248  42.946  13.427
40443W        W 1897  29.489   5.319  10.919
40444W        W 1898  34.480  40.822   4.292
40445W        W 1899  23.102  15.671  11.553
40446W        W 1900  22.044  10.752   3.784
40447W        W 1901  43.879  26.120   0.731
40448W        W 1902  23.552   1.855  14.449
40449W        W 1903  23.199   5.727   0.906
40450W        W 1904  27.080  16.704   1.870
40451W        W 1905  25.546  28.515  13.813
40452W        W 1906  26.506   9.262   4.659
40453W        W 1907  27.613  19.701  14.478
40454W        W 1908  26.054  23.218   2.820
40455W        W 1909  32.077  35.075  11.876
40456W        W 1910  32.893  27.011  14.004
40457W        W 1911  26.062   6.853   1.815
40458W        W 1912  36.929  43.886   2.699
40459W        W 1913   8.828  37.447  14.791
40460W        W 1914  42.404   5.797  13.947
40461W        W 1915  13.229  34.580  12.921
40462W        W 1916   1.945  15.605  10.946
40463W        W 1917  11.313  19.656  13.935
40464W        W 1918   3.447  35.559  14.299
40465W        W 1919  33.024  28.680  13.368
40466W        W 1920  31.611   0.939  13.317
40467W        W 1921  35.108  36.909   3.343
40468W        W 1922  21.025  40.459  14.973
40469W        W 1923  44.449   7.176   0.259
40470W        W 1924   0.400  37.861   3.760
40471W        W 1925   6.193  24.154   0.823
40472W        W 1926  26.110  10.712   1.366
40473W        W 1927  12.218  15.127   3.805
40474W        W 1928  33.541  23.196   9.939
40475W        W 1929  29.433  35.584   1.859
40476W        W 1930  23.127  26.103  12.834
40477W        W 1931  18.178  16.287   0.322
40478W        W 1932  14.151   0.367  14.331
40479W        W 1933  11.254  14.681   1.722
40480W        W 1934  26.458  25.647   0.245
40481W        W 1935  29.956  29.641  10.426
40482W        W 1936  36.887  20.642   4.257
40483W        W 1937  28.447  38.505   2.844
40484W        W 1938  17.294  14.117  12.536
40485W        W 1939  16.211   4.884  14.984
40486W        W 1940  20.574  16.643  12.539
40487W        W 1941  40.371  44.877   2.779
40488W        W 1942  41.888  27.597  11.078
40489W        W 1943  24.197   3.791  12.490
40490W        W 1944  12.284   1.478  12.073
40491W        W 1945  29.524  18.576  13.545
40492W        W 1946  26.538  26.547  11.418
40493W        W 1947  44.479  23.579  14.904
40494W        W 1948   7.909  10.336  10.126
40495W        W 1949   9.211   6.717   3.662
40496W        W 1950   7.183  35.920  12.842
40497W        W 1951  38.861  43.485   3.381
40498W        W 1952  32.572  12.793  11.948
40499W        W 1953  42.015  18.163  12.510
40500W        W 1954  23.543  30.165   4.825
40501W        W 1955  25.560  22.090  12.995
40502W        W 1956  15.294  36.592  11.509
40503W        W 1957  25.566  12.847  13.864
40504W        W 1958  22.515  11.320  11.940
40505W        W 1959   9.375  19.667  14.851
40506W        W 1960   9.800  33.470   4.335
40507W        W 1961  22.151   4.835  14.993
40508W        W 1962  32.951  23.552   1.887
40509W        W 1963  41.391  37.529  11.908
40510W        W 1964  34.464  39.454   0.946
40511W        W 1965  36.940  15.249   1.265
40512W        W 1966  41.009  32.446  12.073
40513W        W 1967  15.156   9.761   3.275
40514W        W 1968  27.106  36.569   0.790
40515W        W 1969  41.336  28.567  13.036
40516W        W 1970  11.843  11.633   3.701
40517W        W 1971  38.513  22.156  12.064
40518W        W 1972   5.764  34.378   0.301
40519W        W 1973  42.783  23.124   1.895
40520W        W 1974   8.352   4.775   4.679
40521W        W 1975  28.034  23.671  12.534
40522W        W 1976  31.415  39.492   0.319
40523W        W 1977  15.185  43.836  13.502
40524W        W 1978  14.136  32.034   2.734
40525W        W 1979  30.654  19.076  12.005
40526W        W 1980  26.516   4.318  12.901
40527W        W 1981  10.870  14.199   1.836
40528W        W 1982  27.153  35.503   2.236
40529W        W 1983  34.938  17.195   2.886
40530W        W 1984  39.884  17.150   3.742
40531W        W 1985   4.395  29.044  11.595
40532W        W 1986  38.384   3.920   3.673
40533W        W 1987  27.004   3.780   1.390
40534W        W 1988   2.895  23.112   2.825
40535W        W 1989  40.895  15.167   0.420
40536W        W 1990  38.915  19.598  13.006
40537W        W 1991  35.896  32.041  10.547
40538W        W 1992  44.327   6.412  10.542
40539W        W 1993   1.458  35.381  12.410
40540W        W 1994  38.001   5.290   0.748
40541W        W 1995  43.944  42.032  10.611
40542W        W 1996  39.874  24.204  11.875
40543W        W 1997  18.207  38.518   0.320
40544W        W 1998  32.107   6.732  11.536
40545W        W 1999  25.051  43.482   0.892
40546W        W 2000  43.874  37.856  14.762
40547W        W 2001  22.142  43.945   0.777
40548W        W 2002   5.437  41.403   2.884
40549W        W 2003  14.153  34.587   1.259
40550W        W 2004  19.545  14.186   4.246
40551W        W 2005  33.443   7.808   1.333
40552W        W 2006   5.302   1.440  11.090
40553W        W 2007  18.254  12.277  12.522
40554W        W 2008  27.470  44.368  10.612
40555W        W 2009   9.253  27.492   1.335
40556W        W 2010  19.732   8.838   5.322
40557W        W 2011  43.391  24.652  11.612
40558W        W 2012  32.907   6.228   1.224
40559W        W 2013  16.182  44.503  12.963
40560W        W 2014  38.924  31.405   2.755
40561W        W 2015  42.828  15.261  12.554
40562W        W 2016  34.008  32.593   3.762
40563W        W 2017  39.937  29.078   4.655
40564W        W 2018   4.358   6.838   4.341
40565W        W 2019  17.307   5.911   4.780
40566W        W 2020  43.994  41.920  11.440
40567W        W 2021  26.532  20.048   2.698
40568W        W 2022  32.918  16.229   1.356
40569W        W 2023  18.601  19.775  13.320
40570W        W 2024  26.634   3.440  13.910
40571W        W 2025  38.524  30.100  10.907
40572W        W 2026  44.347  35.360   5.292
40573W        W 2027  15.779  16.152   4.831
40574W        W 2028  13.195  40.851   1.732
40575W        W 2029  27.020   9.342   3.756
40576W        W 2030  27.585  35.953  10.575
40577W        W 2031  39.341  32.543  11.988
40578W        W 2032  33.481  35.090  12.956
40579W        W 2033  23.151  11.137   2.688
40580W        W 2034   2.810  23.033  12.932
40581W        W 2035  43.872  32.092  11.101
40582W        W 2036  28.123  38.862  11.967
40583W        W 2037  14.169  31.522  12.023
40584W        W 2038  20.603   9.202   4.350
40585W        W 2039  18.206  18.714  11.876
40586W        W 2040  35.901   0.818   0.737
40587W        W 2041  12.664  11.685  12.056
40588W        W 2042  43.400  29.148  14.354
40589W        W 2043  26.960  17.582   4.786
40590W        W 2044  19.163  17.651   1.286
40591W        W 2045  19.186  31.975   2.273
40592W        W 2046  28.437  40.798  13.539
40593W        W 2047   4.410  33.613   3.766
40594W        W 2048  35.098   5.888  11.473
40595W        W 2049  19.616  41.865   0.437
40596W        W 2050   9.333  20.097   0.768
40597W        W 2051  16.573  10.660   4.176
40598W        W 2052  29.601   6.361  13.349
40599W        W 2053   3.290   8.853  10.940
40600W        W 2054   3.278   8.378  10.945
40601W        W 2055  16.745  44.339  13.429
40602W        W 2056  25.658   9.710   3.259
40603W        W 2057   3.900  14.259  14.364
40604W        W 2058  19.764  30.447  12.433
40605W        W 2059  41.821  12.845   2.670
40606W        W 2060  20.651   3.290  13.994
40607W        W 2061  32.547  20.587   4.129
40608W        W 2062  15.248  15.330   3.836
40609W        W 2063  30.659  14.147  12.521
40610W        W 2064  41.952   8.349   1.887
40611W        W 2065  14.800  44.339   0.927
40612W        W 2066  43.016   2.247   0.387
40613W        W 2067   7.336   9.162  11.094
40614W        W 2068  14.677   0.777   3.747
40615W        W 2069  35.877  40.886   1.270
40616W        W 2070  21.525  20.534   3.716
40617W        W 2071   9.189  39.330  14.002
40618W        W 2072  16.575  16.197   4.627
40619W        W 2073   9.253  32.518   1.293
40620W        W 2074  36.090  20.240   0.957
40621W        W 2075  43.502   0.327  12.412
40622W        W 2076   8.398  14.140  14.958
40623W        W 2077  38.919  42.287  10.067
40624W        W 2078  21.639  23.064  11.553
40625W        W 2079  31.035  32.601   2.777
40626W        W 2080   9.694   7.732  10.476
40627W        W 2081  26.186  22.055   4.645
40628W        W 2082  35.054  29.605  13.384
40629W        W 2083  23.042   3.812  10.614
40630W        W 2084  44.981  24.989  13.436
40631W        W 2085  38.392   9.707   1.924
40632W        W 2086  27.665  36.554  13.354
40633W        W 2087  10.810  42.489   1.329
40634W        W 2088  22.106  40.373  11.921
40635W        W 2089  37.913   9.181   0.283
40636W        W 2090  44.451  31.031   1.753
40637W        W 2091  18.716  32.886  13.800
40638W        W 2092   7.280  37.912  11.088
40639W        W 2093  32.592  39.884  12.980
40640W        W 2094  15.195  10.141   5.612
40641W        W 2095  17.122  13.129   0.305
40642W        W 2096   3.855  26.041  10.626
40643W        W 2097  34.475  28.085   1.215
40644W        W 2098   8.275  21.158   2.355
40645W        W 2099  22.157   6.790  13.430
40646W        W 2100   0.863   4.400  14.377
40647W        W 2101  25.007  12.291  13.888
40648W        W 2102  12.126  14.760  12.977
40649W        W 2103  43.358   2.257  10.995
40650W        W 2104  15.713  10.201   9.548
40651W        W 2105  40.468  20.720   1.856
40652W        W 2106  25.607  41.950  12.008
40653W        W 2107  30.053   4.279  13.499
40654W        W 2108  36.465  36.539   3.280
40655W        W 2109  31.490  31.950  11.428
40656W        W 2110  20.265  11.771   4.780
40657W        W 2111  16.773  28.006   2.214
40658W        W 2112  11.273   8.899   3.655
40659W        W 2113   0.938  16.219  14.980
40660W        W 2114  27.478  42.312  11.963
40661W        W 2115  10.330   8.197   1.345
40662W        W 2116  22.248  27.515  10.536
40663W        W 2117  17.288  27.127  12.927
40664W        W 2118  14.724  34.456   1.904
40665W        W 2119  15.610  11.347  11.421
40666W        W 2120  28.980  43.430   2.727
40667W        W 2121  38.352  29.549  10.636
40668W        W 2122  37.883  12.712   3.817
40669W        W 2123  24.002  23.047   3.843
40670W        W 2124  33.015  40.384   0.381
40671W        W 2125  25.129  34.533  14.992
40672W        W 2126  15.665  44.990   3.334
40673W        W 2127  16.626   0.433  12.358
40674W        W 2128   7.894  42.925  12.444
40675W        W 2129   2.265   5.721  11.561
40676W        W 2130  22.036   7.225   1.760
40677W        W 2131   6.410  38.903   2.231
40678W        W 2132  21.222  20.691   0.727
40679W        W 2133  14.779  11.714   1.930
40680W        W 2134  23.690  11.279  10.984
40681W        W 2135  21.715  38.869  11.982
40682W        W 2136  26.959   0.806   4.670
40683W        W 2137  26.166  37.369   3.298
40684W        W 2138   9.191  12.156  11.932
40685W        W 2139  31.544  21.754   3.349
40686W        W 2140  41.835  27.609  12.999
40687W        W 2141  34.914   2.865  12.395
40688W        W 2142  15.246   1.971   4.276
40689W        W 2143  29.955  34.885   1.217
40690W        W 2144  17.203  24.622   4.117
40691W        W 2145  35.418  27.176  14.329
40692W        W 2146  17.289  12.633  10.108
40693W        W 2147  28.441  42.456   2.209
40694W        W 2148  39.433  17.185  11.610
40695W        W 2149  27.988   2.768  14.016
40696W        W 2150  38.843  10.268  10.968
40697W        W 2151  44.785  30.998  10.987
40698W        W 2152  11.697  24.577  10.426
40699W        W 2153  27.024  44.981   2.720
40700W        W 2154   8.893  31.539   0.324
40701W        W 2155   2.466  13.137  13.535
40702W        W 2156  25.595  38.929  11.561
40703W        W 2157  11.675   2.812   1.439
40704W        W 2158  16.640  42.491   4.834
40705W        W 2159  16.186  44.770   4.623
40706W        W 2160   2.857   7.400   1.755
40707W        W 2161   3.247  37.069   0.962
40708W        W 2162  32.472  40.459  14.346
40709W        W 2163  26.147  21.223  13.839
40710W        W 2164  32.927   6.231  12.947
40711W        W 2165  20.675  28.143   2.814
40712W        W 2166  25.984  27.161  13.382
40713W        W 2167  29.989  41.298   2.256
40714W        W 2168  31.587  35.941  12.868
40715W        W 2169   5.895  13.300   1.436
40716W        W 2170  13.846  28.143  14.806
40717W        W 2171  36.592   5.868   3.228
40718W        W 2172  28.065  28.042  11.898
40719W        W 2173  43.873  29.933  12.916
40720W        W 2174  29.990   5.280  10.485
40721W        W 2175  32.617  13.266  13.062
40722W        W 2176  35.389  43.913  11.472
40723W        W 2177  36.430   0.754  12.037
40724W        W 2178   0.293  13.832  10.626
40725W        W 2179  14.670  36.554   4.812
40726W        W 2180  35.996  37.940  10.951
40727W        W 2181   9.658  27.141   1.887
40728W        W 2182  19.142  39.394  12.007
40729W        W 2183  15.601  37.484   0.760
40730W        W 2184  27.955   7.343  11.964
40731W        W 2185  44.344  22.746   1.343
40732W        W 2186  32.885   4.883   1.449
40733W        W 2187  13.178  33.900   2.321
40734W        W 2188  16.703   4.730  10.583
40735W        W 2189   3.250  36.071   1.773
40736W        W 2190   0.345  20.048   1.755
40737W        W 2191  21.060  13.836   0.441
40738W        W 2192  38.480  40.396   4.236
40739W        W 2193  15.606  27.099   4.198
40740W        W 2194   3.333  37.420  12.860
40741W        W 2195   6.889  31.647   1.870
40742W        W 2196  40.844  40.503   0.301
40743W        W 2197   4.390   9.164  12.409
40744W        W 2198  19.633  34.074  10.403
40745W        W 2199  26.555  10.837  12.934
40746W        W 2200   6.370  43.904  10.553
40747W        W 2201  24.483  17.715   3.750
40748W        W 2202   1.444  13.117   0.750
40749W        W 2203  28.064   1.353  12.519
40750W        W 2204  35.934  34.515  14.007
40751W        W 2205   7.199  42.472   2.843
40752W        W 2206  29.088  19.580   0.864
40753W        W 2207  38.966  44.931  11.874
40754W        W 2208  20.553  35.992   0.346
40755W        W 2209  22.620  37.455   3.322
40756W        W 2210  17.273  13.284   0.879
40757W        W 2211  21.708  37.919  10.537
40758W        W 2212  25.699  22.688  13.813
40759W        W 2213  34.473  38.000   0.412
40760W        W 2214  14.204   4.243   4.342
40761W        W 2215  19.158  33.471   1.329
40762W        W 2216  14.145   3.889   2.867
40763W        W 2217  38.392   5.865   1.836
40764W        W 2218  40.331   4.777  12.981
40765W        W 2219  18.663  26.128   1.728
40766W        W 2220  12.312   5.375   2.263
40767W        W 2221  22.156  39.849   2.255
40768W        W 2222   4.727   2.825  10.951
40769W        W 2223  23.575  23.666   0.284
40770W        W 2224  36.424  18.664   2.680
40771W        W 2225  35.014  33.461   1.705
40772W        W 2226  22.219  12.686   3.214
40773W        W 2227  31.409  20.660   4.276
40774W        W 2228  26.467   4.282   3.659
40775W        W 2229  34.905  26.500  10.045
40776W        W 2230  21.123  16.277  13.313
40777W        W 2231  16.145  14.755   1.848
40778W        W 2232  21.692  13.611   3.295
40779W        W 2233   4.848  12.254   2.315
40780W        W 2234  14.619  27.563  13.895
40781W        W 2235  13.732  36.010  14.799
40782W        W 2236  24.602  17.072   1.834
40783W        W 2237   2.327  25.144   2.812
40784W        W 2238  34.481  29.494  13.013
40785W        W 2239   3.926   8.694  11.062
40786W        W 2240   9.186   2.813  13.060
40787W        W 2241  41.317  11.863  13.388
40788W        W 2242  22.634  11.784  11.505
40789W        W 2243  43.342  26.981   3.173
40790W        W 2244  35.369  18.258   2.698
40791W        W 2245  41.388   9.776   1.241
40792W        W 2246  37.526  30.521   4.261
40793W        W 2247  12.161  30.941  13.809
40794W        W 2248  17.702  14.659  11.489
40795W        W 2249  29.007  43.833  10.996
40796W        W 2250  26.626  39.964   3.328
40797W        W 2251  16.598  29.037   1.331
40798W        W 2252  17.080  13.644   4.230
40799W        W 2253  38.924   0.280  11.478
40800W        W 2254  35.599  20.576  13.043
40801W        W 2255  44.377  28.444  14.435
40802W        W 2256  35.407  40.924   1.884
40803W        W 2257   1.938   3.443  13.801
40804W        W 2258  40.854  28.941   4.650
40805W        W 2259  42.296  43.828  14.003
40806W        W 2260  37.580  23.618   0.823
40807W        W 2261  33.946  16.637   3.201
40808W        W 2262  31.041  11.162   0.468
40809W        W 2263   7.863  10.830  10.998
40810W        W 2264  27.489  31.406   3.702
40811W        W 2265  39.913  15.122   4.810
40812W        W 2266   9.392  16.241   3.292
40813W        W 2267  39.385  10.370  13.418
40814W        W 2268   3.241   2.775  14.336
40815W        W 2269  14.652  33.487  14.930
40816W        W 2270  21.228   6.406   1.794
40817W        W 2271  28.950  16.716  12.897
40818W        W 2272   9.169  40.874  12.362
40819W        W 2273  28.032  11.304   1.230
40820W        W 2274  31.985  37.030  10.406
40821W        W 2275  43.436  37.375  12.071
40822W        W 2276  29.929   7.794   1.242
40823W        W 2277  23.704  21.193   1.848
40824W        W 2278  20.243  39.831   4.662
40825W        W 2279  20.621  43.009  14.950
40826W        W 2280  31.402  42.852   2.254
40827W        W 2281  22.156  38.372  13.413
40828W        W 2282  25.037   3.859   4.344
40829W        W 2283  15.217  30.022  14.978
40830W        W 2284  33.504  37.551  13.422
40831W        W 2285  21.146  42.869  10.544
40832W        W 2286  40.411  24.703  10.586
40833W        W 2287  26.098  11.704  11.518
40834W        W 2288   6.204  13.159   0.784
40835W        W 2289  42.951  33.410  14.006
40836W        W 2290   9.736  20.157   4.649
40837W        W 2291  23.007  18.696   0.323
40838W        W 2292   7.802  37.942   2.328
40839W        W 2293  35.887  40.473   2.194
40840W        W 2294  35.501  14.685   1.874
40841W        W 2295   1.808  10.155  11.480
40842W        W 2296  33.043   0.751  13.908
40843W        W 2297  33.113  37.446   2.756
40844W        W 2298  24.607  34.918  12.975
40845W        W 2299  37.030  12.677  13.434
40846W        W 2300   4.436  39.940  10.500
40847W        W 2301  35.910  17.273   4.274
40848W        W 2302  30.022   5.925  11.975
40849W        W 2303  35.092  31.140  14.968
40850W        W 2304  13.161  40.387  10.619
40851W        W 2305  26.960  16.674   2.187
40852W        W 2306  41.385  21.715   3.383
40853W        W 2307  30.506  36.587  11.450
40854W        W 2308  33.578  37.546   3.663
40855W        W 2309  43.496  44.325   1.223
40856W        W 2310  42.960  38.924   0.268
40857W        W 2311   5.710  21.212   1.309
40858W        W 2312  26.566  22.643  13.362
40859W        W 2313  44.262  32.553  11.410
40860W        W 2314  34.091  27.548   2.883
40861W        W 2315  35.572   6.725  13.934
40862W        W 2316   2.734  16.119   2.251
40863W        W 2317  24.059  44.353  10.608
40864W        W 2318  25.701  21.157  12.491
40865W        W 2319  29.545  31.580   1.313
40866W        W 2320   7.337  40.002   4.809
40867W        W 2321  35.052   8.750  10.513
40868W        W 2322  33.980  41.457  12.862
40869W        W 2323  27.654  15.603   1.928
40870W        W 2324  43.460   8.254  12.457
40871W        W 2325  38.568  43.808   2.395
40872W        W 2326  27.470  21.599   0.749
40873W        W 2327  31.566  31.936   1.716
40874W        W 2328  28.582   7.880  13.315
40875W        W 2329  35.031   5.307  13.314
40876W        W 2330   5.381  30.085   1.228
40877W        W 2331  40.367  40.913  13.978
40878W        W 2332  34.411  10.175  14.951
40879W        W 2333  22.649   3.245   1.830
40880W        W 2334  20.528  29.945   1.738
40881W        W 2335   4.930  22.700  12.065
40882W        W 2336  42.776  34.919  11.553
40883W        W 2337  11.199  28.064  12.956
40884W        W 2338  28.046  11.234   4.224
40885W        W 2339   6.720   9.191  11.033
40886W        W 2340  13.715   5.273  14.885
40887W        W 2341  32.452   4.791   1.805
40888W        W 2342  25.072  26.523  13.926
40889W        W 2343  13.252  15.318   4.600
40890W        W 2344  31.558  22.181   3.727
40891W        W 2345  12.821  33.626  14.010
40892W        W 2346  15.326  20.123   2.396
40893W        W 2347   0.753   6.702   2.323
40894W        W 2348  36.903  32.518   1.378
40895W        W 2349  35.991  17.734  10.933
40896W        W 2350  23.732   8.220   3.801
40897W        W 2351  30.535   4.723   3.800
40898W        W 2352  28.675   5.891  13.936
40899W        W 2353   0.987  27.485  11.419
40900W        W 2354   8.844  27.456   4.144
40901W        W 2355  44.860  13.228   1.219
40902W        W 2356  23.490  43.490   4.804
40903W        W 2357  11.255  22.736  14.358
40904W        W 2358  26.463   7.339   2.407
40905W        W 2359  21.572   6.193  13.857
40906W        W 2360  43.367   8.724   0.837
40907W        W 2361  30.611  33.005   0.279
40908W        W 2362  27.192  29.174   2.894
40909W        W 2363  30.130  15.305  10.990
40910W        W 2364   3.860  17.173   2.754
40911W        W 2365  23.048  22.633   3.175
40912W        W 2366  33.025   9.291  14.492
40913W        W 2367  35.964  27.609  13.955
40914W        W 2368   7.844  24.175  13.049
40915W        W 2369   6.796  28.618  14.954
40916W        W 2370   0.860  40.034   1.731
40917W        W 2371   9.309  32.978   4.225
40918W        W 2372  19.095  38.384   3.772
40919W        W 2373  28.066   7.667   9.484
40920W        W 2374   6.333  20.615   4.221
40921W        W 2375  38.326  10.212   3.369
40922W        W 2376  11.670  14.601   4.811
40923W        W 2377  15.186  27.635   0.282
40924W        W 2378  14.762  15.272  12.841
40925W        W 2379  40.349  15.767  11.056
40926W        W 2380  28.954  16.226  11.004
40927W        W 2381  14.178  17.728   0.454
40928W        W 2382  32.938  20.525   1.903
40929W        W 2383   5.302  28.456   3.786
40930W        W 2384  14.612  32.553  14.973
40931W        W 2385  30.594   4.233   5.173
40932W        W 2386  13.277  31.534  12.095
40933W        W 2387  20.086  40.006  11.460
40934W        W 2388  22.707  40.308  10.983
40935W        W 2389  37.850  17.216  12.349
40936W        W 2390  33.941  38.917  11.914
40937W        W 2391  24.496  30.936  11.857
40938W        W 2392  42.524   2.825   3.736
40939W        W 2393   1.442   3.456   3.817
40940W        W 2394   2.468  12.274  14.451
40941W        W 2395  13.656  42.443  10.052
40942W        W 2396   6.866  12.826   4.710
40943W        W 2397  20.043  43.934   3.166
40944W        W 2398   9.712  25.105   4.345
40945W        W 2399  19.132   4.816   4.234
40946W        W 2400  22.548  13.199   9.994
40947W        W 2401  37.551  39.955  11.970
40948W        W 2402  36.007   9.221   2.819
40949W        W 2403  22.732  29.069   3.763
40950W        W 2404  38.563  36.974   1.807
40951W        W 2405  14.322  31.565   3.681
40952W        W 2406  13.667   4.709  13.348
40953W        W 2407  43.361  27.520   3.854
40954W        W 2408  22.534   5.362  12.471
40955W        W 2409  43.513  44.927  11.541
40956W        W 2410  13.219  31.572  10.997
40957W        W 2411  28.451  41.333   0.831
40958W        W 2412   7.284  44.811  12.876
40959W        W 2413  40.404  44.875  14.891
40960W        W 2414   5.370   9.182  14.006
40961W        W 2415  15.605  37.867  14.321
40962W        W 2416  18.585  15.220   2.722
40963W        W 2417  41.367  34.995   4.247
40964W        W 2418  10.793  36.097   2.389
40965W        W 2419  12.639  24.675   1.916
40966W        W 2420  31.590   1.419   4.221
40967W        W 2421   2.965  36.077   3.366
40968W        W 2422  40.842  44.763  11.566
40969W        W 2423   1.865  34.457   1.882
40970W        W 2424  36.078  23.179   2.852
40971W        W 2425   5.237  19.557  11.551
40972W        W 2426  42.467   2.455   3.710
40973W        W 2427  44.453  37.362  12.010
40974W        W 2428  36.568  22.094  13.977
40975W        W 2429  34.577  42.887  14.766
40976W        W 2430   0.270   4.742   0.903
40977W        W 2431   2.936  40.994   3.386
40978W        W 2432  42.349  28.545  10.928
40979W        W 2433   8.774   6.294   4.123
40980W        W 2434  14.820  15.694   4.283
40981W        W 2435  20.257   7.834  13.333
40982W        W 2436   6.810  37.425  10.594
40983W        W 2437  23.208   9.726   0.377
40984W        W 2438  17.144  25.097   0.838
40985W        W 2439  27.476  32.412   9.566
40986W        W 2440  36.575  32.410  13.457
40987W        W 2441  33.539  12.827   4.195
40988W        W 2442  35.964  10.174  12.915
40989W        W 2443  33.942  34.019  13.930
40990W        W 2444  21.656  43.779  11.553
40991W        W 2445  33.890  10.360   9.498
40992W        W 2446   8.777   3.826   0.452
40993W        W 2447   4.855  10.731   3.657
40994W        W 2448  41.895  16.632  12.992
40995W        W 2449  43.377  42.808  11.944
40996W        W 2450  35.383  11.195  14.759
40997W        W 2451  40.891  23.166  11.465
40998W        W 2452  13.740   1.778  12.862
40999W        W 2453  43.386   2.868   0.393
41000W        W 2454  30.058  43.950   1.870
41001W        W 2455   9.667  14.263   0.316
41002W        W 2456   4.281  10.296   2.798
41003W        W 2457  40.421   1.368   4.630
41004W        W 2458   8.859   1.767   3.693
41005W        W 2459  20.636  18.707   2.779
41006W        W 2460  35.383  18.783  11.947
41007W        W 2461  24.006  22.577   1.287
41008W        W 2462  10.671  25.500  10.941
41009W        W 2463  29.084  43.988  12.855
41010W        W 2464  44.988  42.291  13.894
41011W        W 2465  15.805  34.044   2.893
41012W        W 2466  17.560  22.093  13.818
41013W        W 2467  35.081  38.898   5.125
41014W        W 2468   9.377   0.275  10.942
41015W        W 2469  41.991   9.184   0.792
41016W        W 2470  32.048  12.767   0.939
41017W        W 2471  27.655  42.899  12.918
41018W        W 2472  44.962  13.321   4.786
41019W        W 2473  41.889  44.777   1.859
41020W        W 2474  39.531  32.993  11.085
41021W        W 2475   0.795   4.756   0.945
41022W        W 2476  15.732  27.027  14.864
41023W        W 2477  34.090   9.654   4.824
41024W        W 2478  19.149  39.377  14.763
41025W        W 2479   2.314  41.526  10.524
41026W        W 2480  37.009  40.422   1.837
41027W        W 2481   1.841  32.486   3.327
41028W        W 2482  12.714  35.391  11.067
41029W        W 2483  30.492  21.652  14.301
41030W        W 2484  24.162  30.538  14.961
41031W        W 2485  39.369  18.284   0.745
41032W        W 2486   9.870   9.254  11.008
41033W        W 2487   8.172  30.049   4.252
41034W        W 2488   1.477   9.188  12.925
41035W        W 2489  26.105  15.819   3.166
41036W        W 2490   3.895   4.306  12.388
41037W        W 2491  10.384   9.324  10.532
41038W        W 2492  15.132  21.036  13.507
41039W        W 2493   4.448  28.120   1.748
41040W        W 2494   3.883  26.971  11.914
41041W        W 2495  24.586  43.417  13.530
41042W        W 2496  26.062  35.377   4.742
41043W        W 2497  34.052  18.165   3.708
41044W        W 2498  14.094  34.559   2.900
41045W        W 2499   9.297  39.373  10.904
41046W        W 2500  39.833   6.425  11.959
41047W        W 2501  39.482  33.512  12.886
41048W        W 2502   6.773   3.736  12.493
41049W        W 2503  13.697   0.929   3.717
41050W        W 2504  10.257  29.083   2.827
41051W        W 2505  43.804  36.935   1.850
41052W        W 2506  37.034  15.752  10.572
41053W        W 2507  27.672  10.814  12.464
41054W        W 2508  12.254   0.956   3.796
41055W        W 2509   0.895   0.763   1.445
41056W        W 2510  29.583  10.758  14.282
41057W        W 2511  38.399   5.230  10.478
41058W        W 2512  13.783  44.999  14.316
41059W        W 2513  16.660  27.657  13.027
41060W        W 2514  38.433  16.257   2.784
41061W        W 2515  11.669  38.877   4.838
41062W        W 2516  33.947  25.667   4.746
41063W        W 2517  11.778  22.595   2.858
41064W        W 2518   3.321  36.565   3.145
41065W        W 2519  14.748  24.212   3.687
41066W        W 2520  24.079  33.945   4.633
41067W        W 2521  27.487  22.011  13.854
41068W        W 2522  41.896  11.260   0.266
41069W        W 2523  17.134   1.292  13.475
41070W        W 2524  43.948   4.342  13.952
41071W        W 2525  32.923  32.538  14.880
41072W        W 2526  29.457  32.984   4.296
41073W        W 2527  14.273   0.341   2.818
41074W        W 2528  35.988  23.707   3.374
41075W        W 2529  32.104  36.574  11.919
41076W        W 2530  14.661  31.520  12.037
41077W        W 2531  22.078  14.626   0.947
41078W        W 2532   5.699  27.620  13.420
41079W        W 2533  18.739  40.483   2.686
41080W        W 2534  16.716   0.389  11.546
41081W        W 2535  11.736   0.350   1.226
41082W        W 2536  22.243  17.647  13.867
41083W        W 2537   3.760  10.330  13.518
41084W        W 2538  37.357  41.474   3.745
41085W        W 2539  34.538  31.438  11.526
41086W        W 2540  38.406  12.188  14.307
41087W        W 2541  11.171   0.402   2.827
41088W        W 2542  27.075  21.129   4.193
41089W        W 2543   9.804  11.717  13.919
41090W        W 2544   8.284  23.489  12.417
41091W        W 2545   2.868  31.567   2.854
41092W        W 2546  34.418   6.809   4.811
41093W        W 2547   1.437  42.828  10.898
41094W        W 2548  28.185   5.199   3.775
41095W        W 2549  11.350   7.873  10.446
41096W        W 2550  41.825   7.828   3.317
41097W        W 2551  22.111   0.425   4.250
41098W        W 2552  22.695  34.081  12.443
41099W        W 2553  22.655   5.783  13.527
41100W        W 2554  29.592  15.752  12.872
41101W        W 2555  10.800   8.385   2.751
41102W        W 2556   5.351   7.669   3.300
41103W        W 2557  23.161  42.422  11.075
41104W        W 2558  22.687  12.784   4.342
41105W        W 2559  41.828   4.437   2.879
41106W        W 2560   3.767  25.713  10.987
41107W        W 2561  23.596   6.733   1.866
41108W        W 2562  31.494  12.637  14.838
41109W        W 2563  40.914  26.566   3.856
41110W        W 2564  27.015   8.747   5.263
41111W        W 2565  32.923  33.460   2.677
41112W        W 2566  11.841   3.819   0.772
41113W        W 2567  40.464   0.958   4.243
41114W        W 2568   2.726  39.992   0.846
41115W        W 2569   6.725  29.519  12.413
41116W        W 2570   8.315  39.820  14.025
41117W        W 2571   2.839  22.093   4.753
41118W        W 2572  29.994  30.608   0.922
41119W        W 2573  12.169  44.412   3.342
41120W        W 2574  25.694  42.341  14.374
41121W        W 2575   1.855   6.388   1.236
41122W        W 2576  28.625  22.616  13.512
41123W        W 2577   3.453  18.183  11.129
41124W        W 2578  15.658   8.780   1.260
41125W        W 2579  19.594  10.373   4.331
41126W        W 2580  43.964  35.925  11.505
41127W        W 2581  13.744  12.710  14.307
41128W        W 2582  44.298   0.838  13.360
41129W        W 2583  24.031   9.707   1.816
41130W        W 2584  18.223  34.966  12.438
41131W        W 2585   3.942  15.790  10.472
41132W        W 2586  27.003  23.135   1.880
41133W        W 2587  37.857  16.739  13.492
41134W        W 2588  44.805  21.652   4.326
41135W        W 2589  35.956  20.701   1.429
41136W        W 2590  33.055  10.287  11.992
41137W        W 2591  13.249  39.349   2.729
41138W        W 2592  44.842  28.486  12.496
41139W        W 2593  39.896  26.681  11.090
41140W        W 2594  26.683   0.888   9.938
41141W        W 2595  22.012   5.404  14.876
41142W        W 2596   6.832  38.435  14.391
41143W        W 2597  13.631  41.521  14.024
41144W        W 2598  14.297  43.466  11.000
41145W        W 2599   7.263  26.476   4.245
41146W        W 2600  29.042  23.199   1.264
41147W        W 2601  41.956  26.053   1.895
41148W        W 2602  16.176  24.052   1.888
41149W        W 2603  37.833   0.485  14.487
41150W        W 2604   0.340  41.954   2.256
41151W        W 2605  41.040  13.657   3.171
41152W        W 2606  40.544   7.185   0.403
41153W        W 2607  15.703  19.732  12.909
41154W        W 2608   7.394  15.109   0.839
41155W        W 2609   7.330  24.486   0.857
41156W        W 2610  17.750   4.698  13.807
41157W        W 2611  41.464  13.269   1.797
41158W        W 2612  37.541  44.485  14.318
41159W        W 2613  40.004   9.285  12.498
41160W        W 2614  44.463  21.619   4.221
41161W        W 2615  15.162  40.813  12.067
41162W        W 2616  22.230  10.342   4.647
41163W        W 2617  13.160  34.441  13.826
41164W        W 2618  41.805  19.138  10.494
41165W        W 2619  12.661  23.692   0.871
41166W        W 2620  18.282  42.887   3.695
41167W        W 2621   1.391  21.552  11.864
41168W        W 2622   4.816  18.722  13.837
41169W        W 2623  30.956  11.787   9.930
41170W        W 2624  22.510  23.590   1.734
41171W        W 2625   0.765  37.339   3.699
41172W        W 2626  35.551  10.277   2.404
41173W        W 2627  29.466  22.124  12.538
41174W        W 2628   5.261   7.326  13.952
41175W        W 2629  28.138  33.077   2.184
41176W        W 2630  26.545  20.087   3.272
41177W        W 2631   4.291  27.020  10.643
41178W        W 2632  37.472  32.885  10.931
41179W        W 2633   4.391  28.062   3.223
41180W        W 2634   1.917  27.681  14.496
41181W        W 2635  10.677  30.975   2.870
41182W        W 2636   6.740  39.043  10.486
41183W        W 2637  32.089  13.692   3.816
41184W        W 2638  34.911  44.447   3.797
41185W        W 2639  22.604  28.545  12.550
41186W        W 2640  10.864  10.662   3.835
41187W        W 2641   7.844  38.989   1.254
41188W        W 2642   9.379  12.124   0.301
41189W        W 2643  34.049  28.597   2.766
41190W        W 2644  26.969   4.210  13.913
41191W        W 2645  18.630   4.888   2.336
41192W        W 2646  26.974  30.595   2.681
41193W        W 2647  39.557  33.045  13.391
41194W        W 2648  25.547   5.758  13.338
41195W        W 2649  11.746  25.530  14.389
41196W        W 2650  20.539  39.441   1.930
41197W        W 2651  30.469   4.312   4.229
41198W        W 2652  17.578   4.901  14.499
41199W        W 2653  23.616  29.952   2.379
41200W        W 2654  26.531  44.965   3.326
41201W        W 2655  13.739  26.519   2.229
41202W        W 2656   7.356  17.680   0.866
41203W        W 2657  22.612  24.994   9.981
41204W        W 2658  44.381  11.322   1.795
41205W        W 2659  21.682  42.876  13.909
41206W        W 2660  18.112  30.559   4.214
41207W        W 2661  21.728  28.584   0.405
41208W        W 2662  28.116  44.902  14.834
41209W        W 2663   6.727  19.735  14.496
41210W        W 2664  27.154  40.838   0.860
41211W        W 2665  40.975  41.924   1.367
41212W        W 2666  37.408  29.088  13.813
41213W        W 2667  19.628  31.489   3.263
41214W        W 2668  17.196  12.250  12.984
41215W        W 2669   9.869  29.617   1.919
41216W        W 2670  15.581  11.752   1.431
41217W        W 2671  30.975  24.006  11.927
41218W        W 2672  14.127  33.523  12.878
41219W        W 2673  27.964  17.224   1.214
41220W        W 2674  30.981  17.706  14.010
41221W        W 2675  21.666  39.955  14.379
41222W        W 2676  32.095  20.039   2.897
41223W        W 2677   1.782   4.871   1.358
41224W        W 2678  11.181  43.432  13.005
41225W        W 2679   5.701  21.745  12.552
41226W        W 2680  43.919  13.251  14.851
41227W        W 2681  38.565  36.937   3.739
41228W        W 2682   0.269  15.600   3.362
41229W        W 2683  20.062   6.311  12.339
41230W        W 2684  11.865  31.018   9.975
41231W        W 2685   7.707   4.723   1.709
41232W        W 2686   6.886  19.706  11.481
41233W        W 2687  30.444  12.831   2.335
41234W        W 2688  24.032  44.833   1.865
41235W        W 2689  14.309  35.498   4.165
41236W        W 2690  11.731  25.168   1.213
41237W        W 2691  40.370  16.666   4.613
41238W        W 2692  25.683  17.123   4.308
41239W        W 2693  19.137  28.615  12.971
41240W        W 2694  20.086   0.860  11.495
41241W        W 2695   1.784  14.107  12.938
41242W        W 2696   0.790   4.821   1.702
41243W        W 2697  17.773  32.999   0.364
41244W        W 2698  19.757  15.784   3.195
41245W        W 2699  17.249  12.745   0.744
41246W        W 2700  25.106  15.738  10.465
41247W        W 2701  37.446  34.877  14.386
41248W        W 2702  29.110  13.322   3.639
41249W        W 2703  21.753   7.171   2.691
41250W        W 2704  29.117  42.968   2.337
41251W        W 2705  11.338  36.544   4.748
41252W        W 2706   4.403  35.386  11.385
41253W        W 2707  13.308  44.754   0.782
41254W        W 2708  42.966  24.217   4.767
41255W        W 2709  11.260  15.086   0.325
41256W        W 2710  35.043  11.282  12.061
41257W        W 2711  15.771  26.699  11.428
41258W        W 2712  44.996  17.628  10.424
41259W        W 2713   2.341  44.269  14.971
41260W        W 2714  15.133  38.384   4.671
41261W        W 2715  21.098  35.428   1.273
41262W        W 2716  40.418   2.800   4.344
41263W        W 2717  35.930  36.525  13.890
41264W        W 2718  42.454  23.552   4.147
41265W        W 2719   7.294   4.891  11.977
41266W        W 2720  20.197   5.264   1.812
41267W        W 2721   8.756  14.160  11.929
41268W        W 2722  42.778  23.160  13.533
41269W        W 2723   8.763  12.361  13.024
41270W        W 2724  32.550  30.486  11.406
41271W        W 2725  10.679  33.921   0.869
41272W        W 2726  15.670  11.231   1.357
41273W        W 2727  21.623  36.591  13.868
41274W        W 2728  15.766   0.403   0.248
41275W        W 2729  14.811  25.127  10.980
41276W        W 2730  39.039  35.410   2.201
41277W        W 2731  18.719  20.606  13.903
41278W        W 2732  28.480   4.765  12.946
41279W        W 2733  27.129  44.464   3.299
41280W        W 2734  29.921  37.531  10.489
41281W        W 2735   0.976  43.880  10.578
41282W        W 2736   9.310  36.896  11.387
41283W        W 2737   6.835   0.785  13.432
41284W        W 2738  17.761  44.894   3.739
41285W        W 2739   9.228  38.535  10.895
41286W        W 2740  40.873   6.390   4.188
41287W        W 2741  23.169   6.876  14.403
41288W        W 2742  13.709  23.536   3.680
41289W        W 2743  25.023   6.262  11.056
41290W        W 2744  20.218   4.825   2.817
41291W        W 2745  44.764  38.050  11.095
41292W        W 2746  39.548  31.065  13.999
41293W        W 2747  31.479  19.669  12.542
41294W        W 2748  27.559  43.005  12.084
41295W        W 2749  25.701  11.250   0.326
41296W        W 2750  26.117   7.887  14.435
41297W        W 2751  18.732   4.318   2.847
41298W        W 2752  41.981  17.100   3.326
41299W        W 2753   4.873  37.461  13.414
41300W        W 2754  41.946   0.441  11.879
41301W        W 2755   6.896  32.521  10.000
41302W        W 2756  21.630  42.429  11.039
41303W        W 2757  42.465  34.995  11.563
41304W        W 2758  19.655   7.666  14.376
41305W        W 2759  28.560  11.670   4.602
41306W        W 2760   3.379  25.493   5.132
41307W        W 2761  18.075  24.489  13.842
41308W        W 2762   4.785   1.782  14.314
41309W        W 2763  30.065  39.000   3.230
41310W        W 2764  12.780  17.633  11.866
41311W        W 2765  34.593  24.659   1.870
41312W        W 2766  11.173  19.578  14.419
41313W        W 2767  18.150  12.322  11.503
41314W        W 2768  26.094  15.204   0.877
41315W        W 2769   4.427   5.227  13.874
41316W        W 2770  29.945   9.725  14.924
41317W        W 2771  38.381  21.031   3.312
41318W        W 2772  27.972  11.189   3.631
41319W        W 2773  34.382  21.530   3.688
41320W        W 2774  18.700  19.648   3.744
41321W        W 2775  12.347  27.554  11.984
41322W        W 2776  27.495  27.947  12.843
41323W        W 2777  26.056  15.747  13.816
41324W        W 2778   2.316  43.854   1.881
41325W        W 2779  28.528  30.623   3.212
41326W        W 2780   0.821  37.551   2.399
41327W        W 2781  11.734  38.343   0.440
41328W        W 2782  11.179   0.760  13.846
41329W        W 2783   2.366  23.159  13.440
41330W        W 2784  36.472   2.900  11.473
41331W        W 2785  23.041  20.162  14.774
41332W        W 2786  41.471  39.932   0.923
41333W        W 2787   6.837   4.786  12.064
41334W        W 2788   0.923  35.075   1.754
41335W        W 2789  25.550  15.615  13.507
41336W        W 2790  18.716  21.582  12.366
41337W        W 2791  44.930  11.170  14.370
41338W        W 2792  37.455  36.465   1.799
41339W        W 2793  43.001   6.869   0.444
41340W        W 2794   1.278   8.757   3.238
41341W        W 2795   4.217  37.498  10.944
41342W        W 2796  32.029  20.039   2.211
41343W        W 2797   7.885  22.707  10.930
41344W        W 2798  43.368   6.259   2.745
41345W        W 2799  40.953   7.845  12.345
41346W        W 2800  25.034  16.311   4.681
41347W        W 2801  43.351  10.351   0.291
41348W        W 2802  17.144   1.737  11.381
41349W        W 2803   0.927  38.450  13.905
41350W        W 2804  42.474  20.628   0.242
41351W        W 2805  29.603  35.589  12.941
41352W        W 2806  22.649   3.334  14.514
41353W        W 2807   5.852  42.449   3.828
41354W        W 2808  13.326  33.515   2.740
41355W        W 2809   1.446  21.186  10.410
41356W        W 2810  21.641   6.906   5.605
41357W        W 2811  39.329  12.308   3.205
41358W        W 2812  28.584  21.632   3.323
41359W        W 2813  22.118  26.155   3.268
41360W        W 2814  39.547  24.162   2.898
41361W        W 2815  27.957  27.686  14.761
41362W        W 2816  10.200  25.978  12.033
41363W        W 2817  17.664  26.165   0.325
41364W        W 2818   6.678  13.160   2.337
41365W        W 2819   2.332  32.460  12.368
41366W        W 2820   8.787  26.485   3.186
41367W        W 2821  22.195  37.834  14.479
41368W        W 2822   9.875  24.623  13.970
41369W        W 2823   1.434  22.576  14.495
41370W        W 2824  15.766  33.913  14.787
41371W        W 2825  42.370  41.030   3.238
41372W        W 2826   9.729  35.860  11.543
41373W        W 2827  39.925  19.266   1.272
41374W        W 2828   6.680  38.051   0.933
41375W        W 2829  24.484  16.770  14.924
41376W        W 2830  36.094  15.326  10.920
41377W        W 2831  20.046  40.325  11.999
41378W        W 2832  15.809  44.366   5.134
41379W        W 2833  26.628   6.789  14.328
41380W        W 2834   3.788   7.196   1.405
41381W        W 2835  19.090  11.285  13.971
41382W        W 2836  21.525  19.173  14.985
41383W        W 2837   2.876  35.449  12.433
41384W        W 2838  19.610  35.516  11.435
41385W        W 2839   6.241  22.089  14.982
41386W        W 2840  16.657  43.967  10.529
41387W        W 2841  23.242  25.666   0.245
41388W        W 2842   3.858   7.181  11.526
41389W        W 2843  12.630  31.477  11.535
41390W        W 2844  34.001   8.338  12.424
41391W        W 2845   4.398  37.498   4.181
41392W        W 2846  18.685   2.423   0.451
41393W        W 2847  41.478  38.460  10.414
41394W        W 2848  13.312  24.713  14.831
41395W        W 2849  27.683  24.584  13.479
41396W        W 2850  23.500  37.880   0.941
41397W        W 2851  35.539  39.992   3.683
41398W        W 2852  26.971   3.778  14.502
41399W        W 2853  42.959  20.201   4.658
41400W        W 2854  35.013  18.071  12.062
41401W        W 2855  12.703  38.973   3.297
41402W        W 2856   5.925   5.687  13.309
41403W        W 2857   0.748  29.436   1.367
41404W        W 2858  26.658  39.453  10.963
41405W        W 2859  16.145  35.514  10.984
41406W        W 2860  14.248   2.268  14.873
41407W        W 2861  32.995  12.148   0.762
41408W        W 2862  33.453   8.879   3.714
41409W        W 2863  26.557   0.487   0.834
41410W        W 2864  29.015  32.037  10.515
41411W        W 2865  31.959  43.438  14.866
41412W        W 2866   0.338  40.982   1.815
41413W        W 2867  29.997   8.368  10.933
41414W        W 2868  26.006  24.046  13.460
41415W        W 2869  37.980  15.701   2.778
41416W        W 2870  13.664  19.224   0.890
41417W        W 2871  30.558  25.972   0.732
41418W        W 2872  43.776  42.879  11.530
41419W        W 2873   6.877  41.851  14.871
41420W        W 2874  25.023  32.559  12.925
41421W        W 2875  36.003  30.101   2.182
41422W        W 2876  44.799  36.007   3.845
41423W        W 2877  17.647  42.817  11.979
41424W        W 2878  28.041  20.244  11.002
41425W        W 2879  34.026  21.119  14.310
41426W        W 2880  42.776  26.006   2.842
41427W        W 2881  36.420   4.713  14.005
41428W        W 2882  35.951  27.446   0.920
41429W        W 2883  12.293  32.482   1.440
41430W        W 2884  17.215   0.804  13.512
41431W        W 2885   6.841  14.778  11.398
41432W        W 2886   2.775  29.079   3.814
41433W        W 2887  39.866  34.433   1.803
41434W        W 2888  10.298  44.859  12.874
41435W        W 2889   9.807  16.180   2.774
41436W        W 2890  38.014  27.546   3.864
41437W        W 2891  20.033  12.265  13.035
41438W        W 2892  20.597  25.023  11.586
41439W        W 2893  24.014   4.831   3.798
41440W        W 2894  34.494  26.682   4.167
41441W        W 2895  17.783  14.226   0.743
41442W        W 2896  30.598  27.173  14.493
41443W        W 2897  24.559  32.552  13.817
41444W        W 2898  16.176  32.434  11.554
41445W        W 2899  39.948  34.581   2.228
41446W        W 2900  35.071  30.024  14.852
41447W        W 2901  31.147  31.920  10.619
41448W        W 2902  36.432  41.413  13.839
41449W        W 2903  32.072  19.541   0.818
41450W        W 2904  14.266  10.661   4.626
41451W        W 2905  16.575   3.379   1.735
41452W        W 2906  26.600   3.723   0.298
41453W        W 2907   3.386  16.088  13.544
41454W        W 2908  23.001   0.425   3.711
41455W        W 2909  29.453  16.143  11.503
41456W        W 2910  42.893  16.132  12.993
41457W        W 2911  40.045  30.915  14.385
41458W        W 2912   4.932  13.273   0.906
41459W        W 2913   8.340   3.457   1.870
41460W        W 2914  30.592  34.481   3.716
41461W        W 2915  28.500  32.004   1.852
41462W        W 2916   9.310  20.717  10.035
41463W        W 2917  10.649  31.548   2.317
41464W        W 2918  38.463  19.681  12.958
41465W        W 2919  23.626  26.697   0.935
41466W        W 2920  42.795  16.122  11.860
41467W        W 2921  32.043  22.147  14.411
41468W        W 2922   4.243  37.008   0.841
41469W        W 2923  44.433  31.002   3.710
41470W        W 2924   6.912  40.327   0.941
41471W        W 2925  38.365   3.248  12.055
41472W        W 2926   7.231  27.596  11.489
41473W        W 2927  20.181  34.589   0.306
41474W        W 2928  23.115  28.491  13.033
41475W        W 2929  43.506  33.071   3.321
41476W        W 2930  42.487  40.042   3.168
41477W        W 2931  39.864  43.376  14.479
41478W        W 2932   5.202  40.861   0.428
41479W        W 2933  33.550  27.084  11.002
41480W        W 2934  11.623  35.945  13.034
41481W        W 2935  12.624  21.738   2.217
41482W        W 2936  30.452  32.626   4.240
41483W        W 2937  12.697  10.188  11.899
41484W        W 2938  28.659   6.893  13.855
41485W        W 2939  24.115  28.648   2.669
41486W        W 2940  22.541  16.281  14.365
41487W        W 2941  20.675   9.245   5.322
41488W        W 2942  28.054  36.966  14.366
41489W        W 2943  12.693  23.495  11.040
41490W        W 2944  41.386  36.551  13.044
41491W        W 2945  44.948   1.394   4.194
41492W        W 2946   5.712   3.926  11.024
41493W        W 2947  20.614  29.092  12.403
41494W        W 2948  42.935  24.575   1.444
41495W        W 2949  42.808  42.873  10.914
41496W        W 2950  12.327  24.514   0.752
41497W        W 2951  36.009   2.457   2.740
41498W        W 2952  34.549  41.803   2.348
41499W        W 2953  41.295   3.947   3.358
41500W        W 2954  21.657  13.233   3.235
41501W        W 2955  21.603   5.281  11.072
41502W        W 2956  27.037   6.793   1.323
41503W        W 2957  39.004  16.648   2.314
41504W        W 2958  40.451  27.667   1.721
41505W        W 2959  24.586  10.352  13.014
41506W        W 2960  23.139  21.720   0.425
41507W        W 2961  16.232   4.843   1.767
41508W        W 2962  33.616  24.592  13.431
41509W        W 2963  31.966  16.318   2.361
41510W        W 2964  31.402  41.958  13.040
41511W        W 2965  32.003  35.565   1.405
41512W        W 2966  34.000  26.601  13.829
41513W        W 2967  28.543  26.579   4.239
41514W        W 2968   8.656  34.610   4.191
41515W        W 2969  35.070  12.689   0.291
41516W        W 2970  31.497  35.420  13.486
41517W        W 2971  40.546  17.137  14.815
41518W        W 2972  27.974  43.824  13.326
41519W        W 2973   0.967  25.107  12.032
41520W        W 2974  34.571  11.848   0.827
41521W        W 2975  35.103   4.883   4.798
41522W        W 2976  34.483   6.377   1.755
41523W        W 2977  12.836  39.341   1.735
41524W        W 2978  19.072   2.445   2.419
41525W        W 2979  14.754  44.457  10.032
41526W        W 2980  28.065   4.787  14.338
41527W        W 2981  40.966   9.195   0.394
41528W        W 2982  14.197  23.206   0.261
41529W        W 2983  12.625  27.522   4.126
41530W        W 2984   8.184  39.918   2.288
41531W        W 2985   0.345   8.854   1.773
41532W        W 2986   8.406  26.515   1.716
41533W        W 2987  33.058   0.815  13.046
41534W        W 2988  30.008  10.291  12.540
41535W        W 2989  17.218  21.149   2.376
41536W        W 2990   2.405  13.110  13.940
41537W        W 2991   2.283   2.350   3.353
41538W        W 2992  18.716  27.478  13.393
41539W        W 2993   3.358  18.192   4.802
41540W        W 2994  12.235  43.986   4.204
41541W        W 2995  34.072  27.528  14.823
41542W        W 2996  42.357  26.064  14.499
41543W        W 2997  30.428  13.193   3.805
41544W        W 2998  27.050  11.699  12.440
41545W        W 2999  29.601  35.070   2.345
41546W        W 3000   4.736   5.338   5.241
41547W        W 3001  37.845  32.630   0.249
41548W        W 3002  42.008  14.263  10.594
41549W        W 3003  27.041  17.705   1.415
41550W        W 3004  18.106  29.529  13.913
41551W        W 3005   6.708   8.203   2.374
41552W        W 3006   3.340  12.348   3.830
41553W        W 3007  35.478  28.986   3.680
41554W        W 3008  29.612  36.063   3.668
41555W        W 3009  27.549  41.898   4.235
41556W        W 3010   3.434  33.432  14.350
41557W        W 3011  24.506  38.839  12.863
41558W        W 3012   0.945   6.801   3.163
41559W        W 3013  44.971  31.986   3.326
41560W        W 3014   5.282   9.221  12.579
41561W        W 3015  44.359  22.147  13.033
41562W        W 3016   2.734  43.444  11.033
41563W        W 3017  38.948  28.463  11.374
41564W        W 3018  19.625  17.229  13.804
41565W        W 3019  34.073  42.442   0.948
41566W        W 3020  13.290  29.047  12.857
41567W        W 3021   0.750  41.013  10.601
41568W        W 3022  26.114  34.423  12.420
41569W        W 3023  12.141  42.855  12.420
41570W        W 3024  33.090  37.086  12.992
41571W        W 3025  38.444  36.505  11.913
41572W        W 3026   7.281  23.064  10.435
41573W        W 3027  36.071  36.525  13.467
41574W        W 3028   8.354  24.027  12.425
41575W        W 3029   8.846  16.627  14.412
41576W        W 3030  13.146   2.296   4.722
41577W        W 3031  35.096   6.286  12.429
41578W        W 3032  12.717  16.307  14.823
41579W        W 3033  17.154  44.843  11.036
41580W        W 3034   4.917  33.920   3.630
41581W        W 3035  22.213  22.059   3.754
41582W        W 3036   5.411  21.659  14.829
41583W        W 3037  27.041  32.135  10.938
41584W        W 3038  29.154   1.266   2.185
41585W        W 3039  25.655  17.680   0.874
41586W        W 3040  28.477  15.745   3.244
41587W        W 3041  41.901  24.112   2.381
41588W        W 3042  17.773  16.289   1.854
41589W        W 3043  39.058  12.816   2.883
41590W        W 3044  19.587   3.940   0.261
41591W        W 3045  31.468  11.130  11.558
41592W        W 3046  20.700   0.267   4.633
41593W        W 3047  28.479   0.401   0.921
41594W        W 3048  36.395   8.817   0.302
41595W        W 3049   7.726  40.820  14.865
41596W        W 3050  35.370  14.690  13.343
41597W        W 3051  30.510   5.815   0.780
41598W        W 3052  38.510  28.627  11.038
41599W        W 3053  28.146   0.417  13.483
41600W        W 3054  39.991  38.968  14.383
41601W        W 3055  43.365   7.715   1.726
41602W        W 3056   1.445  15.179  14.492
41603W        W 3057  11.751  12.783   4.313
41604W        W 3058  28.455   8.351   2.705
41605W        W 3059   6.677  39.536  13.348
41606W        W 3060  19.630  31.910   1.255
41607W        W 3061   1.824   9.822   0.869
41608W        W 3062  42.027  33.935  14.381
41609W        W 3063  12.274   6.748   2.364
41610W        W 3064  19.173   1.382  12.961
41611W        W 3065  27.458  27.153  11.524
41612W        W 3066   3.748  36.449   2.330
41613W        W 3067  17.168  36.402   0.816
41614W        W 3068  23.618  37.485   4.799
41615W        W 3069  34.403  19.097   1.830
41616W        W 3070  24.715   0.878   1.358
41617W        W 3071  24.000  19.159   1.221
41618W        W 3072  43.346  10.260   1.821
41619W        W 3073  39.378   0.840   0.857
41620W        W 3074  40.537  31.480   1.300
41621W        W 3075  31.473   5.264   0.475
41622W        W 3076  37.964   3.319   1.422
41623W        W 3077  19.133   5.415  13.322
41624W        W 3078   1.297  11.336  14.430
41625W        W 3079   5.215  18.137   1.279
41626W        W 3080   6.857  12.290  13.052
41627W        W 3081  41.422   6.306  13.820
41628W        W 3082   6.373  28.666  13.539
41629W        W 3083   3.833   3.825  12.540
41630W        W 3084  44.787  18.718  10.606
41631W        W 3085  33.948  21.097   2.882
41632W        W 3086  23.114  16.681   0.479
41633W        W 3087  38.882  32.990   2.789
41634W        W 3088  16.645   8.882  10.510
41635W        W 3089   2.308  29.545   1.303
41636W        W 3090   5.693  27.000  13.324
41637W        W 3091  14.773   3.932  14.782
41638W        W 3092  42.329  43.428   1.251
41639W        W 3093  27.548  13.311  10.027
41640W        W 3094  17.298  43.953   4.255
41641W        W 3095  10.248  17.203  10.996
41642W        W 3096  36.040  39.394   2.252
41643W        W 3097  14.798  16.615   1.754
41644W        W 3098  11.350  27.646  11.541
41645W        W 3099  19.254  34.402  12.989
41646W        W 3100  38.378   7.190   0.731
41647W        W 3101  33.492  41.955   2.872
41648W        W 3102   5.875   2.429  12.848
41649W        W 3103  29.643   0.758   5.255
41650W        W 3104  27.971  42.459  13.947
41651W        W 3105  41.012  25.669  13.027
41652W        W 3106  23.024  43.953  12.002
41653W        W 3107  39.009  41.526  12.086
41654W        W 3108  10.659  31.542  12.359
41655W        W 3109  19.119  11.238   2.226
41656W        W 3110  11.343  23.008  11.007
41657W        W 3111  26.656  17.126   2.811
41658W        W 3112  23.173   5.241  10.459
41659W        W 3113  33.910  23.661   3.752
41660W        W 3114  28.036   7.382  14.994
41661W        W 3115  19.221  17.592  12.026
41662W        W 3116  32.918  43.850  13.796
41663W        W 3117  32.530  43.355  10.572
41664W        W 3118   2.740  31.522  11.401
41665W        W 3119   3.439  42.874  12.494
41666W        W 3120   0.295  33.928   2.282
41667W        W 3121  43.978  15.090   0.795
41668W        W 3122  16.280  32.893  14.028
41669W        W 3123  15.801  29.120   3.671
41670W        W 3124   1.788  23.711   3.634
41671W        W 3125  26.984  24.985   4.796
41672W        W 3126   3.864  36.913   3.844
41673W        W 3127  14.103  20.718   1.777
41674W        W 3128  11.631   9.370   4.142
41675W        W 3129  36.510   9.731   0.426
41676W        W 3130   5.744  32.989  13.524
41677W        W 3131  14.636  14.627   1.890
41678W        W 3132  24.638  14.623  10.575
41679W        W 3133  20.069  35.535   4.731
41680W        W 3134   1.328  34.517  13.515
41681W        W 3135  36.471  18.100  13.841
41682W        W 3136  38.900  43.856   3.312
41683W        W 3137  39.431  41.924  10.040
41684W        W 3138  24.515  18.281   2.344
41685W        W 3139  33.594  41.016  10.420
41686W        W 3140  10.679   4.378   3.352
41687W        W 3141  32.506  18.608  10.887
41688W        W 3142  18.164   5.424   3.355
41689W        W 3143  44.768   3.347  11.877
41690W        W 3144  43.817  20.218   2.707
41691W        W 3145  29.542   8.321   3.683
41692W        W 3146  42.426   5.193  13.392
41693W        W 3147  22.676  19.685  13.430
41694W        W 3148  18.202   5.338  13.997
41695W        W 3149  35.894  39.940   0.748
41696W        W 3150  14.194  34.991  12.083
41697W        W 3151  10.765  35.087  13.357
41698W        W 3152  14.254  43.481   2.285
41699W        W 3153  19.623  13.812   3.174
41700W        W 3154  27.990  42.027  10.632
41701W        W 3155  42.799  39.972  10.036
41702W        W 3156  12.251  43.825  11.007
41703W        W 3157   2.852  28.450   0.800
41704W        W 3158  41.929  14.154  11.894
41705W        W 3159  36.364  13.235  12.486
41706W        W 3160   4.920  43.764   2.387
41707W        W 3161  18.156  29.101   1.240
41708W        W 3162  12.826   3.247  11.467
41709W        W 3163  10.713  14.819  10.633
41710W        W 3164  24.177  13.621  13.856
41711W        W 3165  13.298   2.736   4.615
41712W        W 3166  13.771  42.310   2.190
41713W        W 3167  43.997  29.015   4.127
41714W        W 3168  34.545  29.048   0.302
41715W        W 3169   9.262  39.856  14.011
41716W        W 3170  27.976  35.083  12.057
41717W        W 3171  33.029  29.973  11.551
41718W        W 3172  24.989  17.083   2.344
41719W        W 3173   4.711  32.585  11.106
41720W        W 3174   9.154   8.870  13.019
41721W        W 3175  12.826   2.852   4.679
41722W        W 3176  44.269   6.256   4.639
41723W        W 3177   4.423  23.137  12.985
41724W        W 3178  35.061  36.959   1.430
41725W        W 3179  31.516  16.598  13.822
41726W        W 3180   8.721  40.834   0.898
41727W        W 3181  33.425  14.225   4.768
41728W        W 3182  33.940  11.805  14.385
41729W        W 3183  40.450  24.975  12.564
41730W        W 3184  24.575  16.723   0.875
41731W        W 3185  20.722  39.512  13.845
41732W        W 3186  32.984  12.615   4.300
41733W        W 3187  41.466   6.786  13.492
41734W        W 3188  10.167  30.582  14.421
41735W        W 3189  27.517  39.410  13.974
41736W        W 3190  17.719  41.488   3.203
41737W        W 3191  33.997  16.119  11.408
41738W        W 3192   7.288  21.193  13.370
41739W        W 3193  18.735  43.945  12.537
41740W        W 3194  20.058  18.262   1.714
41741W        W 3195   8.897  26.703  10.941
41742W        W 3196  35.493  25.560  12.905
41743W        W 3197  29.021  40.384  11.542
41744W        W 3198  29.132  41.295  14.432
41745W        W 3199  29.995  17.254  14.875
41746W        W 3200  22.088  42.898   3.818
41747W        W 3201   8.812  20.049  13.990
41748W        W 3202  21.611  14.646   0.959
41749W        W 3203  21.538  27.464   4.617
41750W        W 3204  37.415  25.534   3.269
41751W        W 3205  40.485  31.111  10.460
41752W        W 3206  34.572  24.996   1.409
41753W        W 3207  42.490  27.182  10.640
41754W        W 3208  29.467  11.666   1.728
41755W        W 3209   0.902  42.791   2.264
41756W        W 3210  11.222  30.518   3.207
41757W        W 3211  42.325  22.591  10.466
41758W        W 3212   7.703  26.571   1.843
41759W        W 3213   7.824  18.735   2.744
41760W        W 3214  35.924  42.924   1.879
41761W        W 3215  27.446   1.798   2.211
41762W        W 3216  38.344  14.322   0.412
41763W        W 3217   5.916  12.339  14.926
41764W        W 3218  14.628  44.851  10.631
41765W        W 3219  38.542  43.468   3.643
41766W        W 3220  41.864   2.298   3.372
41767W        W 3221   0.467   9.667   1.803
41768W        W 3222  33.034   4.875  14.502
41769W        W 3223  30.536  23.653  13.341
41770W        W 3224   6.700   7.905  10.473
41771W        W 3225  38.866  24.072   0.769
41772W        W 3226   1.288  43.822   2.404
41773W        W 3227   8.852   2.444  12.959
41774W        W 3228  13.162  44.830  14.354
41775W        W 3229   1.287  23.134  14.342
41776W        W 3230  14.216  30.491   4.136
41777W        W 3231  26.071   1.336   4.174
41778W        W 3232  30.415  44.960  11.918
41779W        W 3233  43.998  30.908   4.154
41780W        W 3234   8.332  25.681   0.808
41781W        W 3235   2.745  43.286  12.887
41782W        W 3236   8.288  34.612  11.973
41783W        W 3237  16.290  42.977  13.361
41784W        W 3238  42.957  26.113   3.636
41785W        W 3239   6.811  38.918   4.730
41786W        W 3240  19.569  33.916   2.758
41787W        W 3241   5.789  17.714  11.006
41788W        W 3242   7.693  32.942  11.510
41789W        W 3243  33.128   3.341   0.782
41790W        W 3244  10.696   1.286  13.483
41791W        W 3245  33.489   9.845  10.131
41792W        W 3246   7.238  12.787   4.598
41793W        W 3247  18.601  33.621  10.476
41794W        W 3248   4.345   5.755   2.820
41795W        W 3249  35.412   5.212  11.056
41796W        W 3250  16.097   0.322   1.234
41797W        W 3251  43.986  29.535   2.769
41798W        W 3252  25.191   9.208   1.842
41799W        W 3253  37.928  29.945  12.467
41800W        W 3254  23.689  22.635  12.923
41801W        W 3255  39.559  13.797   4.205
41802W        W 3256  30.957   3.273   4.225
41803W        W 3257  35.951  21.631  13.478
41804W        W 3258   7.796  35.419  14.374
41805W        W 3259  14.743   1.403   4.740
41806W        W 3260  35.549  21.672   3.665
41807W        W 3261  36.914  27.147   1.382
41808W        W 3262  36.537  40.389   9.521
41809W        W 3263  20.274  38.064   4.215
41810W        W 3264  24.979  38.559   4.656
41811W        W 3265  22.690  26.654   1.731
41812W        W 3266  38.337   0.851  14.422
41813W        W 3267  35.545  14.686  10.970
41814W        W 3268  30.542  28.121  11.016
41815W        W 3269   2.264  23.640   5.132
41816W        W 3270  12.274  44.944  13.938
41817W        W 3271  32.061  40.496  12.512
41818W        W 3272   5.924  27.458   0.743
41819W        W 3273   2.893  18.568   2.384
41820W        W 3274  33.931   1.415  10.589
41821W        W 3275  38.973  39.960  14.445
41822W        W 3276  35.017  15.103   4.217
41823W        W 3277  39.347  19.052  11.953
41824W        W 3278  33.483   3.352  11.113
41825W        W 3279  38.343  43.868  14.805
41826W        W 3280  34.575  32.564   4.800
41827W        W 3281   1.456  31.126  12.953
41828W        W 3282  23.073  24.545   3.293
41829W        W 3283  19.126  36.457  13.541
41830W        W 3284  12.728  21.550   2.730
41831W        W 3285   9.277   0.379  13.845
41832W        W 3286  28.097  42.527  14.284
41833W        W 3287  25.111  22.111   3.381
41834W        W 3288  19.536  31.602   2.371
41835W        W 3289  25.667  24.020  14.491
41836W        W 3290  42.459   5.304   0.782
41837W        W 3291  30.151  18.213  10.527
41838W        W 3292   7.369   4.758  14.485
41839W        W 3293  36.369  44.442   9.983
41840W        W 3294  26.564  10.834  13.506
41841W        W 3295  26.531  36.460   1.838
41842W        W 3296   4.398  21.130  13.976
41843W        W 3297  33.568  36.376  12.979
41844W        W 3298  22.501  28.005  14.965
41845W        W 3299   8.716  43.314  11.050
41846W        W 3300  10.195   8.394   3.173
41847W        W 3301  23.498   7.744  11.470
41848W        W 3302  27.995  43.797   4.820
41849W        W 3303  21.116  28.128  14.828
41850W        W 3304   4.871  22.039   2.668
41851W        W 3305  29.097  15.177   4.613
41852W        W 3306   1.812  31.072  10.446
41853W        W 3307  20.185  26.089   3.181
41854W        W 3308   9.268  23.091  11.450
41855W        W 3309  37.888  33.589   1.696
41856W        W 3310  21.638  18.141   4.685
41857W        W 3311  24.211  44.396  13.469
41858W        W 3312   7.274   6.900  14.031
41859W        W 3313  25.691  34.095  12.455
41860W        W 3314  12.338  15.703   2.860
41861W        W 3315  16.276  43.324   1.353
41862W        W 3316  44.467  16.623  12.067
41863W        W 3317  36.847   6.369   2.691
41864W        W 3318  24.020   9.202   0.957
41865W        W 3319   9.183  10.323  11.866
41866W        W 3320  25.596  19.162   2.374
41867W        W 3321  34.109  44.881  10.590
41868W        W 3322  15.210  10.291   4.170
41869W        W 3323  31.047  19.702   0.856
41870W        W 3324   8.868   8.389  14.919
41871W        W 3325  38.962  30.573   4.182
41872W        W 3326  14.712  19.203  13.361
41873W        W 3327   8.865  26.206  12.442
41874W        W 3328  27.632  32.574  14.015
41875W        W 3329  33.947  31.416  12.360
41876W        W 3330  12.304  36.943  12.075
41877W        W 3331  27.078  42.319   3.668
41878W        W 3332  32.623  20.171  15.000
41879W        W 3333  37.039  11.858   4.684
41880W        W 3334  27.540  27.670  13.449
41881W        W 3335  16.705  15.632  10.003
41882W        W 3336  38.471  14.243  13.059
41883W        W 3337  42.912  33.494   0.311
41884W        W 3338   7.294  12.662   3.836
41885W        W 3339  26.601  40.875  12.387
41886W        W 3340  41.847  39.376  14.318
41887W        W 3341  41.001  29.554   3.153
41888W        W 3342  11.222  28.669  10.544
41889W        W 3343  44.465  22.524   4.631
41890W        W 3344  32.438  17.632   3.806
41891W        W 3345   2.402  21.157  14.970
41892W        W 3346  34.003  25.070  11.919
41893W        W 3347  27.548  24.193  13.399
41894W        W 3348  20.178  24.092   1.309
41895W        W 3349  27.456   2.259  12.448
41896W        W 3350  36.553  19.777   0.363
41897W        W 3351  32.481  25.044   4.774
41898W        W 3352  36.093  39.859  10.585
41899W        W 3353  36.382  38.509  14.325
41900W        W 3354  16.683   0.922  10.580
41901W        W 3355  29.112  37.987  10.633
41902W        W 3356  12.254  11.355   4.817
41903W        W 3357  17.189  18.566  13.935
41904W        W 3358  28.998  20.570  12.380
41905W        W 3359  24.719  39.427   3.797
41906W        W 3360  36.016  10.845   3.370
41907W        W 3361  19.120   9.824   4.601
41908W        W 3362  26.954  27.044   3.843
41909W        W 3363  29.628  24.553   1.713
41910W        W 3364  28.176   7.236  12.946
41911W        W 3365   7.667   4.297   4.793
41912W        W 3366  35.516   0.801  14.321
41913W        W 3367  17.764  17.073  14.908
41914W        W 3368  11.143  24.147   0.779
41915W        W 3369   9.650  22.097  11.890
41916W        W 3370  14.239  37.532   4.632
41917W        W 3371  29.588  15.690  13.486
41918W        W 3372   3.853  33.935   3.811
41919W        W 3373  22.040   7.377   0.857
41920W        W 3374  21.039  43.852  14.375
41921W        W 3375  28.988   8.313  14.384
41922W        W 3376  31.594  32.558   3.252
41923W        W 3377   2.430  34.472   0.840
41924W        W 3378  20.046  40.944  12.002
41925W        W 3379  17.781  33.440   4.256
41926W        W 3380  43.383   1.368  10.927
41927W        W 3381  27.176  21.512  11.988
41928W        W 3382  18.620   3.327   1.346
41929W        W 3383  44.432  27.022   0.768
41930W        W 3384  37.045  14.615   0.925
41931W        W 3385  25.712  29.161   5.153
41932W        W 3386   6.399  30.454  13.349
41933W        W 3387  15.164  25.652  13.982
41934W        W 3388  30.421   5.895  11.524
41935W        W 3389  38.925   3.808  10.493
41936W        W 3390  41.890  23.147  11.980
41937W        W 3391   0.292   0.432  10.567
41938W        W 3392  43.270  23.671  13.004
41939W        W 3393   0.953  23.049   1.876
41940W        W 3394  43.923   3.883   3.255
41941W        W 3395  18.673   4.333  10.427
41942W        W 3396   0.942  41.429  11.467
41943W        W 3397  39.956   7.819   3.635
41944W        W 3398  30.136   0.759   4.766
41945W        W 3399  37.408  15.642  13.984
41946W        W 3400  32.459  42.360  10.913
41947W        W 3401   3.272  19.746  14.383
41948W        W 3402  22.191  21.220  13.860
41949W        W 3403  23.656  34.000   2.415
41950W        W 3404  32.040  31.004   2.828
41951W        W 3405  42.490  23.155   4.608
41952W        W 3406  35.602  14.789  12.849
41953W        W 3407  14.196  12.355  14.344
41954W        W 3408  11.347   6.288   0.754
41955W        W 3409  20.597  12.622   1.935
41956W        W 3410  26.581  12.124  10.642
41957W        W 3411  33.945  39.047   3.729
41958W        W 3412   1.837  36.022   4.736
41959W        W 3413  30.033   9.665  10.497
41960W        W 3414  18.740  19.648   0.453
41961W        W 3415  12.800  21.637   0.328
41962W        W 3416  10.807   0.969   1.747
41963W        W 3417  40.303  35.897   3.819
41964W        W 3418  12.788  20.152   3.298
41965W        W 3419  24.527  21.661  13.859
41966W        W 3420   1.888  22.172  12.904
41967W        W 3421  10.858  10.225  14.479
41968W        W 3422  36.858  32.591   0.819
41969W        W 3423   8.222   1.469   3.158
41970W        W 3424   2.955  26.141  12.004
41971W        W 3425  19.226  17.607  13.855
41972W        W 3426  21.657  41.922  12.848
41973W        W 3427  23.140  23.120   2.200
41974W        W 3428  24.521  24.606  11.004
41975W        W 3429  22.129  11.721  10.985
41976W        W 3430  26.558  39.008  13.799
41977W        W 3431  40.929  15.600   4.210
41978W        W 3432   3.279  14.241  11.101
41979W        W 3433   5.768  25.028  14.888
41980W        W 3434  16.315  36.975   1.351
41981W        W 3435  23.135  21.747   2.231
41982W        W 3436  18.074   8.730   0.454
41983W        W 3437   6.822  32.604   0.930
41984W        W 3438  25.516  40.872  13.539
41985W        W 3439   3.839  28.066  10.599
41986W        W 3440  40.396   8.295  11.956
41987W        W 3441  39.442   4.899  10.894
41988W        W 3442  39.039  44.911   0.303
41989W        W 3443  37.845  33.479   0.894
41990W        W 3444  22.602  31.091  11.074
41991W        W 3445  11.843   9.372  13.361
41992W        W 3446  35.935   6.268  11.407
41993W        W 3447  17.130  36.918  11.046
41994W        W 3448  39.822  19.218   3.242
41995W        W 3449  15.151  38.539   0.420
41996W        W 3450   5.385  39.013   3.206
41997W        W 3451   8.836  22.168  13.482
41998W        W 3452   5.359   3.364  14.023
41999W        W 3453  18.624  17.070  13.476
42000W        W 3454   7.395   9.804  12.504
42001W        W 3455  29.021  42.477  13.508
42002W        W 3456  28.130   3.423  14.457
42003W        W 3457  22.614   2.256  12.360
42004W        W 3458   9.247  30.433  10.914
42005W        W 3459  38.878  12.123  14.910
42006W        W 3460  30.987  44.262  13.466
42007W        W 3461  12.629   7.781   0.464
42008W        W 3462  43.803  10.371  14.956
42009W        W 3463  27.621  21.082  11.963
42010W        W 3464  38.826  27.640  12.851
42011W        W 3465  15.665  42.963   2.249
42012W        W 3466  33.518  24.595   1.248
42013W        W 3467   0.395   8.695  11.606
42014W        W 3468  38.880  24.652   1.780
42015W        W 3469  43.972  27.591  10.478
42016W        W 3470  13.693  29.427   0.774
42017W        W 3471  16.274  10.867   2.869
42018W        W 3472  37.405  39.527   3.265
42019W        W 3473  18.240  16.232   3.161
42020W        W 3474   3.351  19.736   4.311
42021W        W 3475  24.187  36.416  10.635
42022W        W 3476  19.540   7.814  12.993
42023W        W 3477  11.783  14.313   4.737
42024W        W 3478   2.327  34.060   0.964
42025W        W 3479   6.849  29.505  12.872
42026W        W 3480  10.664  39.470   1.889
42027W        W 3481  11.164  36.528  13.382
42028W        W 3482  43.000   3.385  11.037
42029W        W 3483  12.169  39.319  14.805
42030W        W 3484   9.382  34.865  12.386
42031W        W 3485  29.002  39.849  14.363
42032W        W 3486  26.186  31.007  14.430
42033W        W 3487  29.466   8.682   1.447
42034W        W 3488   6.887  36.367   3.656
42035W        W 3489  14.649  21.687  12.500
42036W        W 3490   6.740  36.042   1.882
42037W        W 3491  33.977  42.018   0.803
42038W        W 3492   9.724   5.311  12.403
42039W        W 3493   6.389  37.001   4.703
42040W        W 3494  16.632  13.291   2.686
42041W        W 3495   4.727  33.045   4.127
42042W        W 3496  22.697  14.812   4.697
42043W        W 3497  25.572  15.659  13.826
42044W        W 3498   5.395  40.839  13.917
42045W        W 3499  14.798  18.651   3.796
42046W        W 3500  19.228   1.893  11.387
42047W        W 3501  33.983  41.293   3.240
42048W        W 3502  30.120  20.531  10.488
42049W        W 3503  22.141   3.450  12.838
42050W        W 3504  41.931  15.136  13.371
42051W        W 3505  32.965   5.759   1.266
42052W        W 3506  39.910  21.674   3.325
42053W        W 3507  31.067  33.552   0.743
42054W        W 3508  43.461   3.309   4.268
42055W        W 3509  19.727  20.099   1.332
42056W        W 3510  10.376  13.769   3.662
42057W        W 3511  25.580  41.373   1.807
42058W        W 3512   0.470   1.803   3.813
42059W        W 3513  33.125  14.315  11.430
42060W        W 3514   5.240  38.376   0.864
42061W        W 3515  38.887  38.453   4.803
42062W        W 3516  38.464  38.994  12.443
42063W        W 3517  43.938   4.764  12.967
42064W        W 3518  38.468   4.810   2.807
42065W        W 3519  35.422  21.229   3.732
42066W        W 3520  42.834   9.222   2.299
42067W        W 3521  37.845  36.024  13.040
42068W        W 3522  41.834  20.206   4.271
42069W        W 3523  36.563  43.002   5.269
42070W        W 3524  10.677   8.721   0.277
42071W        W 3525  40.540  40.489   3.788
42072W        W 3526  34.615   1.805  13.959
42073W        W 3527  35.043  10.861   2.729
42074W        W 3528  36.016  38.054  14.275
42075W        W 3529   9.186   6.696  11.013
42076W        W 3530   7.831  26.063  10.469
42077W        W 3531  17.781   6.402  12.913
42078W        W 3532  20.109  35.067   4.800
42079W        W 3533  42.448   8.829   5.322
42080W        W 3534  19.065  36.003  14.824
42081W        W 3535  28.954   2.375  10.918
42082W        W 3536  31.923  22.511  12.576
42083W        W 3537  22.213   8.673   0.341
42084W        W 3538  24.973   5.871   3.169
42085W        W 3539   9.267  21.235   4.644
42086W        W 3540   0.323  43.366  10.999
42087W        W 3541  11.298  13.116   0.895
42088W        W 3542  17.675   1.954  14.945
42089W        W 3543  14.613  42.302  13.975
42090W        W 3544  34.986  41.351   1.927
42091W        W 3545  13.604  32.584  14.815
42092W        W 3546  36.977  33.535  14.384
42093W        W 3547  15.813  23.103  13.371
42094W        W 3548   4.792  40.882  13.540
42095W        W 3549   6.709  22.042   1.298
42096W        W 3550  20.649   9.667   1.720
42097W        W 3551  10.686  17.624   2.185
42098W        W 3552  38.477   8.784  11.869
42099W        W 3553   6.314  44.992   2.230
42100W        W 3554  23.664  42.904  14.395
42101W        W 3555  40.984  14.601  12.860
42102W        W 3556  41.448  35.410   0.921
42103W        W 3557   1.321  30.593   0.445
42104W        W 3558  15.669   1.436  10.456
42105W        W 3559  29.071   3.875   2.808
42106W        W 3560  39.398  10.686   0.352
42107W        W 3561  20.706   6.363   1.267
42108W        W 3562  30.025  25.507  14.430
42109W        W 3563   9.840   6.824   4.648
42110W        W 3564  16.274   9.739  12.461
42111W        W 3565  15.205  41.837   3.825
42112W        W 3566  23.730   3.930  12.382
42113W        W 3567  38.342  16.702  11.431
42114W        W 3568   3.932  40.414   1.702
42115W        W 3569  38.348  29.580  11.114
42116W        W 3570  13.684   0.339  14.281
42117W        W 3571   0.308  26.163   2.692
42118W        W 3572  21.741  39.377  13.403
42119W        W 3573  42.791  44.877   2.202
42120W        W 3574  20.180  17.670  11.590
42121W        W 3575  28.647  19.566   0.359
42122W        W 3576  35.979  36.541  12.872
42123W        W 3577   8.853  10.797   0.268
42124W        W 3578  13.266   5.365  12.461
42125W        W 3579   7.779  38.975   5.098
42126W        W 3580  20.169  39.063  14.312
42127W        W 3581  44.376  30.443   9.940
42128W        W 3582  27.692   0.908   3.270
42129W        W 3583  11.664  10.179  14.817
42130W        W 3584  25.057  22.560  10.628
42131W        W 3585   8.358  33.088  13.020
42132W        W 3586  16.771  12.328   0.292
42133W        W 3587   3.732  41.538   0.300
42134W        W 3588  32.977  10.815  13.982
42135W        W 3589  35.489  39.377   4.635
42136W        W 3590   2.303  43.995  12.060
42137W        W 3591  33.126  15.115  14.870
42138W        W 3592  40.358  35.911  10.129
42139W        W 3593  13.342   3.432  12.346
42140W        W 3594  18.058  11.824   2.744
42141W        W 3595  39.359  26.120  14.865
42142W        W 3596  13.614  24.692  10.619
42143W        W 3597  33.924  27.947   3.657
42144W        W 3598  17.215   0.411  13.469
42145W        W 3599  40.847   2.312   1.304
42146W        W 3600  25.121  41.971  11.970
42147W        W 3601  26.597  41.478  13.041
42148W        W 3602  20.133   3.814   0.483
42149W        W 3603  10.188   8.406  11.920
42150W        W 3604  11.751  20.169   3.360
42151W        W 3605  19.726  24.003  11.556
42152W        W 3606  38.970  43.503   2.846
42153W        W 3607  19.137  19.245  11.090
42154W        W 3608   7.231  27.679   0.441
42155W        W 3609  27.171  26.592   3.651
42156W        W 3610  12.798  24.488  11.977
42157W        W 3611  27.480  34.023  13.419
42158W        W 3612  36.082  43.983  14.495
42159W        W 3613   0.765  20.173  11.925
42160W        W 3614  36.974  20.033  11.863
42161W        W 3615  24.639  31.022   1.358
42162W        W 3616  17.261  38.545   1.324
42163W        W 3617  44.864  23.055   3.326
42164W        W 3618   9.353  34.062   5.570
42165W        W 3619  31.901  32.491  14.466
42166W        W 3620   6.752  10.171  12.872
42167W        W 3621  29.466  28.601   3.776
42168W        W 3622  17.632  13.108   1.327
42169W        W 3623  40.825  43.485   1.720
42170W        W 3624  37.975  24.163  11.076
42171W        W 3625  35.000  23.500   4.302
42172W        W 3626  18.599  20.745  14.957
42173W        W 3627  28.999  34.383   2.807
42174W        W 3628  12.627  25.204   3.770
42175W        W 3629   2.244  35.569   1.420
42176W        W 3630  17.199  44.342   4.321
42177W        W 3631  41.940  10.304  10.605
42178W        W 3632  39.345   5.814   1.824
42179W        W 3633   4.243  10.803  14.326
42180W        W 3634  13.105  41.505  14.335
42181W        W 3635  16.225   4.407  10.515
42182W        W 3636  39.004  39.889  12.367
42183W        W 3637  37.521   4.409   4.335
42184W        W 3638   1.349  39.840   2.213
42185W        W 3639  20.676   1.446   4.834
42186W        W 3640   8.218  18.216  12.551
42187W        W 3641  21.166   0.267   9.923
42188W        W 3642  28.943  28.617  13.994
42189W        W 3643  19.194   7.347   5.243
42190W        W 3644   0.798  38.906   2.827
42191W        W 3645  28.991  23.137  12.063
42192W        W 3646  35.050  23.046  13.993
42193W        W 3647  13.817   1.760   2.393
42194W        W 3648  10.715  20.263   0.391
42195W        W 3649   6.265  36.402  14.786
42196W        W 3650   1.790  20.041  14.274
42197W        W 3651  35.095  11.731  11.863
42198W        W 3652  33.121  13.175   0.763
42199W        W 3653  26.666  27.557   0.746
42200W        W 3654  22.090  41.374   0.955
42201W        W 3655  11.194  41.915  10.485
42202W        W 3656  44.896  25.627   1.854
42203W        W 3657  22.553  33.525  14.973
42204W        W 3658   5.313   4.440  10.499
42205W        W 3659  28.084  14.606  12.037
42206W        W 3660  18.545  31.001   1.790
42207W        W 3661  37.914  16.141  13.381
42208W        W 3662  26.106  20.703   3.181
42209W        W 3663   1.317  25.056   3.844
42210W        W 3664  34.119   4.438   1.339
42211W        W 3665  30.024  17.297  11.043
42212W        W 3666  18.594  36.424   1.412
42213W        W 3667   3.893  19.770  13.909
42214W        W 3668  43.516   3.851  11.457
42215W        W 3669  32.598  10.721  10.092
42216W        W 3670  20.093  15.281   0.921
42217W        W 3671  32.026  28.668  10.469
42218W        W 3672  31.106  41.849  13.313
42219W        W 3673  24.587  21.044  12.863
42220W        W 3674   2.471  42.328  10.476
42221W        W 3675  37.502  17.238   1.774
42222W        W 3676  27.988  32.574   2.179
42223W        W 3677   9.190   4.788   2.737
42224W        W 3678   2.371   2.929   4.616
42225W        W 3679  28.472  22.044  10.615
42226W        W 3680  20.525  18.165  13.393
42227W        W 3681   4.853   8.871  12.877
42228W        W 3682  27.152   9.250   1.760
42229W        W 3683  18.173   4.759   2.788
42230W        W 3684  15.727  30.636   2.748
42231W        W 3685  30.036  23.024   9.666
42232W        W 3686  25.566  41.386  11.983
42233W        W 3687   8.379  36.974  13.043
42234W        W 3688   8.197  13.141   4.620
42235W        W 3689   1.806  26.102  11.117
42236W        W 3690  11.234  35.106   1.393
42237W        W 3691  16.790  23.644   2.844
42238W        W 3692   1.916  19.054   1.245
42239W        W 3693  37.039  20.718   3.672
42240W        W 3694   3.311  30.971  12.828
42241W        W 3695  10.385   0.745  13.471
42242W        W 3696  28.609  37.495   3.227
42243W        W 3697  14.697  14.180   3.666
42244W        W 3698  22.597  13.217  11.982
42245W        W 3699  20.608   6.303  12.038
42246W        W 3700  22.189  10.199  12.956
42247W        W 3701  32.515  40.317   3.235
42248W        W 3702  14.654  34.048   2.721
42249W        W 3703  13.727  35.552   1.731
42250W        W 3704   6.797  10.749  11.105
42251W        W 3705  13.651  27.643  12.954
42252W        W 3706   8.701   6.923   0.401
42253W        W 3707  40.509  31.585   4.179
42254W        W 3708  23.710  13.800  14.452
42255W        W 3709   1.782  18.088   0.351
42256W        W 3710  30.541   7.829  11.071
42257W        W 3711  16.736  42.292   2.329
42258W        W 3712   8.377  39.473  10.955
42259W        W 3713  14.204  12.283   2.243
42260W        W 3714  32.947   6.908   3.783
42261W        W 3715  40.885   2.417  12.052
42262W        W 3716  31.464  33.882   1.301
42263W        W 3717   4.284  36.534  14.955
42264W        W 3718   3.328  26.197  11.984
42265W        W 3719  18.179   8.178  13.463
42266W        W 3720   0.969   8.660   3.190
42267W        W 3721   7.226  42.988  11.107
42268W        W 3722  27.058  30.611   4.605
42269W        W 3723  13.212   4.306  13.940
42270W        W 3724  41.034  42.840  11.385
42271W        W 3725  33.892  43.009  13.046
42272W        W 3726   6.841  36.537   1.913
42273W        W 3727  17.619  30.635   4.719
42274W        W 3728  20.599   4.210  11.378
42275W        W 3729   5.692   7.243   2.691
42276W        W 3730  19.077  14.110  13.403
42277W        W 3731  40.303   5.693  12.374
42278W        W 3732  24.212  44.775   2.886
42279W        W 3733  38.367  30.130  10.552
42280W        W 3734  39.850   8.219  14.422
42281W        W 3735  35.933  41.383   3.867
42282W        W 3736   5.315  39.851   2.711
42283W        W 3737  42.298  30.998  12.875
42284W        W 3738   2.831  37.508  10.430
42285W        W 3739  35.395  25.594  11.451
42286W        W 3740  27.048  18.178  13.956
42287W        W 3741  12.730  30.586   3.247
42288W        W 3742  38.032  42.987   3.849
42289W        W 3743   8.773  33.561   9.967
42290W        W 3744  36.509  35.367   4.304
42291W        W 3745   4.403  13.671   1.432
42292W        W 3746  34.581  30.003   4.259
42293W        W 3747  18.072  42.837  10.975
42294W        W 3748  16.568  19.084  13.838
42295W        W 3749  28.629   8.343   0.477
42296W        W 3750  34.923  34.938   2.332
42297W        W 3751  13.713   3.362  10.963
42298W        W 3752   7.683   8.291   4.216
42299W        W 3753  10.782  33.482   5.284
42300W        W 3754   3.839   9.819  14.943
42301W        W 3755  17.753  39.521   3.699
42302W        W 3756   6.833  20.665   4.661
42303W        W 3757  40.925  39.429   4.779
42304W        W 3758  15.278  19.129   1.434
42305W        W 3759  21.208  20.610  12.006
42306W        W 3760  40.534  34.409   4.664
42307W        W 3761  13.253  27.097   3.187
42308W        W 3762  32.486   9.178   2.668
42309W        W 3763  14.685   1.316   3.768
42310W        W 3764  17.798  33.115  13.861
42311W        W 3765  11.322  44.953   0.304
42312W        W 3766  31.409  38.036  11.423
42313W        W 3767  27.523  11.797  14.902
42314W        W 3768  32.126  32.968  14.859
42315W        W 3769  37.553   2.878   1.805
42316W        W 3770  30.465  32.080   2.330
42317W        W 3771  20.093  24.479   1.375
42318W        W 3772  19.077  33.572  13.878
42319W        W 3773  14.671   4.208  14.470
42320W        W 3774  29.146  10.151   4.726
42321W        W 3775  13.797   7.809  12.928
42322W        W 3776   6.852  41.004   0.271
42323W        W 3777  10.840  13.740   0.868
42324W        W 3778  28.154  41.938  11.121
42325W        W 3779  21.518   5.297   4.690
42326W        W 3780  36.963  33.582   0.837
42327W        W 3781   4.343  17.184   4.679
42328W        W 3782   0.346   4.737   4.196
42329W        W 3783  12.207  18.238   2.882
42330W        W 3784  42.495  12.290  11.572
42331W        W 3785  10.704  38.400   3.306
42332W        W 3786  20.275  31.627   1.701
42333W        W 3787   3.764  16.090  12.371
42334W        W 3788   6.330  32.432  13.888
42335W        W 3789  38.819  28.494   2.707
42336W        W 3790   2.963  17.746   3.775
42337W        W 3791  10.674   5.700  14.303
42338W        W 3792  13.165   6.786  12.038
42339W        W 3793  44.442  41.353   3.861
42340W        W 3794  23.050   2.883   0.313
42341W        W 3795   4.218  43.506   0.956
42342W        W 3796  29.098   7.891  14.024
42343W        W 3797  22.746   9.789   5.751
42344W        W 3798  25.005   2.937  11.119
42345W        W 3799  15.104  11.272  14.767
42346W        W 3800   0.451  17.610  12.339
42347W        W 3801  35.037   6.910   2.272
42348W        W 3802  34.378   4.214   1.799
42349W        W 3803   6.342  34.444   4.652
42350W        W 3804  14.175  25.980  11.416
42351W        W 3805  39.495  34.962   1.314
42352W        W 3806  17.764  41.788   3.329
42353W        W 3807  20.035   9.314  14.934
42354W        W 3808  31.942  37.410  11.406
42355W        W 3809  25.598  41.910   0.818
42356W        W 3810   6.711   0.400  14.931
42357W        W 3811  42.924  14.635  11.493
42358W        W 3812  24.221  16.692  10.617
42359W        W 3813  25.496  19.240  13.380
42360W        W 3814  39.920  39.017   4.785
42361W        W 3815  14.769   8.696  12.950
42362W        W 3816  30.108  10.719  11.578
42363W        W 3817  22.250  18.115   0.778
42364W        W 3818  10.363   4.301  13.487
42365W        W 3819  28.463  43.281   0.399
42366W        W 3820  43.427   6.833   2.311
42367W        W 3821   0.760  12.183  10.407
42368W        W 3822  27.665  14.824   1.325
42369W        W 3823  14.206  17.236  11.533
42370W        W 3824  10.282   2.907   2.805
42371W        W 3825  29.498  20.739  10.981
42372W        W 3826  21.512  38.456   4.727
42373W        W 3827  17.786  17.656  12.079
42374W        W 3828  27.067  12.633   2.214
42375W        W 3829  17.788  29.037  12.083
42376W        W 3830  31.548  19.090  13.005
42377W        W 3831  36.514  31.898  14.847
42378W        W 3832  35.090   1.417   2.860
42379W        W 3833  24.204  13.249   4.632
42380W        W 3834  38.366  36.402  11.512
42381W        W 3835  36.380  14.202   4.153
42382W        W 3836  22.523   2.927   2.706
42383W        W 3837  43.787  13.316  10.584
42384W        W 3838  31.932   1.360   3.355
42385W        W 3839  32.048  44.494   0.470
42386W        W 3840  34.568   6.778  11.889
42387W        W 3841  27.679   2.412  11.100
42388W        W 3842  14.693  37.086  14.931
42389W        W 3843   0.750  26.683   2.855
42390W        W 3844  11.280   4.718   2.396
42391W        W 3845  23.510  20.079  14.410
42392W        W 3846  23.523   1.400   3.791
42393W        W 3847  42.474  14.198   5.091
42394W        W 3848  38.429   7.707  11.907
42395W        W 3849  18.763  16.748  10.095
42396W        W 3850  34.063  44.485   9.956
42397W        W 3851  37.449  28.185  10.633
42398W        W 3852   3.903  32.431   2.762
42399W        W 3853  26.974  20.220  10.606
42400W        W 3854  10.239  26.460   4.640
42401W        W 3855  27.573  41.851  13.834
42402W        W 3856   6.833  20.731   0.835
42403W        W 3857   1.453  22.706  13.441
42404W        W 3858   3.289  39.887  13.386
42405W        W 3859  11.303  16.217   1.240
42406W        W 3860  13.260  41.998   3.331
42407W        W 3861  16.085  38.360  10.466
42408W        W 3862   2.915  42.864   2.687
42409W        W 3863  17.730  41.800   4.345
42410W        W 3864  20.655   8.375   1.427
42411W        W 3865   9.667  31.064   1.286
42412W        W 3866  13.772  13.708   0.369
42413W        W 3867  12.627  35.017   0.946
42414W        W 3868  19.768  33.581   4.788
42415W        W 3869  43.292  14.128  14.385
42416W        W 3870   7.369   5.434   3.683
42417W        W 3871  33.460  13.200   3.640
42418W        W 3872  33.020  13.789  13.335
42419W        W 3873  40.928  22.151   3.226
42420W        W 3874  38.005   3.875   3.684
42421W        W 3875  11.194  42.005  12.859
42422W        W 3876  29.992   1.860  13.843
42423W        W 3877  36.472   1.453  14.350
42424W        W 3878  20.051  18.593   3.666
42425W        W 3879   1.442  43.425  13.537
42426W        W 3880  13.345   1.452  14.966
42427W        W 3881   9.885  38.465  12.363
42428W        W 3882   4.431  32.465   2.363
42429W        W 3883  39.438  43.999  13.858
42430W        W 3884   2.370  16.115  14.946
42431W        W 3885  30.123  11.222   2.346
42432W        W 3886  20.071  32.962   4.267
42433W        W 3887  16.667   4.808   0.448
42434W        W 3888  41.887  20.699   4.826
42435W        W 3889  28.065   2.238  14.481
42436W        W 3890  14.819   1.739  12.953
42437W        W 3891  39.531  15.751  13.825
42438W        W 3892   2.936  29.593  12.512
42439W        W 3893  44.897  14.765   3.834
42440W        W 3894  11.862  27.074  11.058
42441W        W 3895  35.504  18.691  12.565
42442W        W 3896   2.853  33.008   3.238
42443W        W 3897  11.633   7.678  13.500
42444W        W 3898   5.695  19.607  13.883
42445W        W 3899  14.795   1.465   1.443
42446W        W 3900   4.212  10.711   4.808
42447W        W 3901  36.359  23.098   4.205
42448W        W 3902   3.340  42.788  13.492
42449W        W 3903   9.394  41.396  13.824
42450W        W 3904   8.663   7.413  13.415
42451W        W 3905   0.348  22.698   1.932
42452W        W 3906   5.316  36.564   2.307
42453W        W 3907  16.793  29.536   3.806
42454W        W 3908   6.336  17.191  11.399
42455W        W 3909  39.543  22.662   3.372
42456W        W 3910  20.242  36.433   2.706
42457W        W 3911  17.582  25.151  14.917
42458W        W 3912  43.909   5.698  11.034
42459W        W 3913   5.784  31.548  13.358
42460W        W 3914  15.292   1.844  14.791
42461W        W 3915  39.870  31.134  13.890
42462W        W 3916   9.337  38.919   0.273
42463W        W 3917   5.358  42.286   0.376
42464W        W 3918   3.826   9.326   2.339
42465W        W 3919   9.180   0.418  13.493
42466W        W 3920  29.623   0.427   2.322
42467W        W 3921  18.563  19.122  12.987
42468W        W 3922  44.766  33.531  11.941
42469W        W 3923  29.605  41.345  13.810
42470W        W 3924   6.878  31.014   1.815
42471W        W 3925  40.900  36.476   3.835
42472W        W 3926  26.557  40.392   4.344
42473W        W 3927  39.407   0.319  13.047
42474W        W 3928  30.550  14.663  10.088
42475W        W 3929  27.031  44.823  13.427
42476W        W 3930   3.320   8.294  13.846
42477W        W 3931   9.817  20.737  13.539
42478W        W 3932  36.902  39.548   2.341
42479W        W 3933   6.819  24.533   0.747
42480W        W 3934  28.962  28.017   2.317
42481W        W 3935  37.559  32.516  10.415
42482W        W 3936  11.782   0.432  13.817
42483W        W 3937  23.129  31.113  11.422
42484W        W 3938  26.956  32.521   1.890
42485W        W 3939  41.856  40.475   3.189
42486W        W 3940  18.658  44.461   5.177
42487W        W 3941  39.322  42.785   4.291
42488W        W 3942  42.411   7.701  12.550
42489W        W 3943  25.051  42.479   0.733
42490W        W 3944  21.207  13.344   4.618
42491W        W 3945  24.993  25.052  10.410
42492W        W 3946  37.897  25.173  12.957
42493W        W 3947  39.438  31.484   0.334
42494W        W 3948   3.936  30.058   2.231
42495W        W 3949  17.202  27.068  12.537
42496W        W 3950  12.314  25.193  13.061
42497W        W 3951  11.751  42.844  14.410
42498W        W 3952   0.981   8.733   1.868
42499W        W 3953  25.153  41.404   2.763
42500W        W 3954  42.935  30.645   4.200
42501W        W 3955   5.221  38.556   3.713
42502W        W 3956   2.946   9.743   4.765
42503W        W 3957  35.098   6.309   2.253
42504W        W 3958  25.978  43.406  13.343
42505W        W 3959  33.408  11.202   0.843
42506W        W 3960   6.859  13.798   4.168
42507W        W 3961  16.275  27.119   0.356
42508W        W 3962   4.418  10.813  13.015
42509W        W 3963  43.775  35.030   1.801
42510W        W 3964  38.852  16.575   2.802
42511W        W 3965  26.117  29.010  10.619
42512W        W 3966  19.040   1.421  12.359
42513W        W 3967   5.388  33.592  10.592
42514W        W 3968  22.186  32.058   0.916
42515W        W 3969  14.677   2.388  11.944
42516W        W 3970   9.842  44.411  12.938
42517W        W 3971  41.886  44.823  13.400
42518W        W 3972  21.565  33.487   0.942
42519W        W 3973  13.136  41.006  13.046
42520W        W 3974   4.923  27.578   4.729
42521W        W 3975  14.660   9.669   0.359
42522W        W 3976  12.128  13.741   2.703
42523W        W 3977  27.067   2.310  10.593
42524W        W 3978  39.345  15.659   1.702
42525W        W 3979   2.397   1.810  14.955
42526W        W 3980  14.165   6.421   4.651
42527W        W 3981   7.247  17.070   0.354
42528W        W 3982  14.284  24.120   1.227
42529W        W 3983  26.593  14.148  13.008
42530W        W 3984  39.391  39.889  12.941
42531W        W 3985  25.507  18.077   1.766
42532W        W 3986  18.681  41.327  14.336
42533W        W 3987   4.944   4.389  10.424
42534W        W 3988  42.353  43.287  10.453
42535W        W 3989  37.043  27.662  13.390
42536W        W 3990  20.650  35.439  13.985
42537W        W 3991  26.614  42.790   3.696
42538W        W 3992  28.465   9.216   3.732
42539W        W 3993  36.062   3.296   2.186
42540W        W 3994  26.168   9.844   3.198
42541W        W 3995  12.284  37.566  14.982
42542W        W 3996  17.213  29.946  12.061
42543W        W 3997  34.613  25.066   0.886
42544W        W 3998   8.738   9.730  12.837
42545W        W 3999  31.105  20.071  13.460
42546W        W 4000  12.656  26.110   2.198
42547W        W 4001  40.999   6.285   3.327
42548W        W 4002  34.548   2.272   1.773
42549W        W 4003  11.203   1.314  11.933
42550W        W 4004  34.384  18.181   1.745
42551W        W 4005  27.098  16.173   4.241
42552W        W 4006  31.462  44.436   0.280
42553W        W 4007  41.975  26.165  12.526
42554W        W 4008  13.779  37.399   2.246
42555W        W 4009  38.441  18.102  11.575
42556W        W 4010  20.106   6.287   0.941
42557W        W 4011  12.131  32.992  10.589
42558W        W 4012  13.298   9.196   2.825
42559W        W 4013  24.229  13.184   3.691
42560W        W 4014   4.817  26.629  13.362
42561W        W 4015  12.703  12.323   0.276
42562W        W 4016  23.524  26.027  13.441
42563W        W 4017  29.434  17.614   4.811
42564W        W 4018  18.712   1.967   3.202
42565W        W 4019  15.211  36.467   1.310
42566W        W 4020   6.768  15.705   2.750
42567W        W 4021  29.175   3.710  13.351
42568W        W 4022  14.656  35.363  12.833
42569W        W 4023  21.582  13.183  13.054
42570W        W 4024   6.248   0.341   1.257
42571W        W 4025  29.106  36.353   3.689
42572W        W 4026   2.934  16.084   0.932
42573W        W 4027   9.331   3.822   3.146
42574W        W 4028   0.494  43.809  10.469
42575W        W 4029   3.898  30.154  14.009
42576W        W 4030  17.212  38.354  11.055
42577W        W 4031  21.156  11.842  11.567
42578W        W 4032  19.100   3.445  11.418
42579W        W 4033  27.971  36.046   0.354
42580W        W 4034   6.264   2.897  13.417
42581W        W 4035  44.402  23.233  14.804
42582W        W 4036  14.221   6.792  11.470
42583W        W 4037   1.770  40.912   1.739
42584W        W 4038  35.969  37.580   4.281
42585W        W 4039  21.146  30.570   2.722
42586W        W 4040  40.908  15.819   0.343
42587W        W 4041  33.921   1.975  10.417
42588W        W 4042  36.952  10.683  10.531
42589W        W 4043  43.764  19.191   2.401
42590W        W 4044   3.885  22.240   4.231
42591W        W 4045   2.369  36.852   3.359
42592W        W 4046  19.164  10.709  11.398
42593W        W 4047  35.019  30.126  13.869
42594W        W 4048   3.406   2.266   5.084
42595W        W 4049  39.064  29.646  12.844
42596W        W 4050  38.879  19.120   0.913
42597W        W 4051  40.814  16.587  11.036
42598W        W 4052  44.886  37.002  14.995
42599W        W 4053  30.092  14.801  13.448
42600W        W 4054  22.570  24.048   2.891
42601W        W 4055   9.198   2.963   2.364
42602W        W 4056  25.705   4.706   2.334
42603W        W 4057   0.332  11.800   4.223
42604W        W 4058  28.472  43.912  10.484
42605W        W 4059  17.172  16.184  14.955
42606W        W 4060   3.363   8.689  13.849
42607W        W 4061  10.658   8.827   2.890
42608W        W 4062   8.317  19.092  11.601
42609W        W 4063  29.002  32.047   3.837
42610W        W 4064  14.661  25.478  12.391
42611W        W 4065  24.637  35.596  12.927
42612W        W 4066  26.070  44.815  11.104
42613W        W 4067  39.325  43.950   1.855
42614W        W 4068  25.115  22.734  12.835
42615W        W 4069  10.214  29.983  11.982
42616W        W 4070  34.910   3.943   4.684
42617W        W 4071  28.074  20.637   4.838
42618W        W 4072   9.826  12.651   0.380
42619W        W 4073  34.522  37.861  13.844
42620W        W 4074  43.767  29.005  11.465
42621W        W 4075  36.352  40.493   5.248
42622W        W 4076  40.046   7.851  12.927
42623W        W 4077  41.855  28.955  12.431
42624W        W 4078  29.621  17.233  14.811
42625W        W 4079  27.507  37.854   4.608
42626W        W 4080  24.103  19.145  14.779
42627W        W 4081  29.595  33.012  14.003
42628W        W 4082  38.549  14.226   2.884
42629W        W 4083  32.423   2.409   3.639
42630W        W 4084  23.622  22.026   2.868
42631W        W 4085  27.960  25.590   2.690
42632W        W 4086  26.602   6.347   3.366
42633W        W 4087  42.439  38.949  13.061
42634W        W 4088  10.138  24.660   3.164
42635W        W 4089  38.973   9.173   2.366
42636W        W 4090  11.649   7.404  10.080
42637W        W 4091  17.091  38.863   1.400
42638W        W 4092  14.170  31.061  12.965
42639W        W 4093  26.579  27.089   3.836
42640W        W 4094  23.227  21.703   2.780
42641W        W 4095  36.026  32.962   2.836
42642W        W 4096  12.706  29.119  14.021
42643W        W 4097  29.172   4.784   0.396
42644W        W 4098  19.059   9.831   0.471
42645W        W 4099  14.237  11.260  14.021
42646W        W 4100  20.179  36.004   3.196
42647W        W 4101  21.545  38.021  12.475
42648W        W 4102   3.794  23.678  14.437
42649W        W 4103   7.814  16.745  12.573
42650W        W 4104  23.995  39.539   1.336
42651W        W 4105  11.834  40.912   4.693
42652W        W 4106  35.561   7.344   3.257
42653W        W 4107  42.969  25.634   2.218
42654W        W 4108  33.519   9.285  13.949
42655W        W 4109  16.212   5.206   0.269
42656W        W 4110  27.655  31.085   5.321
42657W        W 4111  35.500  36.475  13.934
42658W        W 4112  16.262  27.960  12.922
42659W        W 4113  20.701  15.209  12.470
42660W        W 4114   3.281  26.017   0.929
42661W        W 4115  15.747  30.426  11.392
42662W        W 4116  34.053  14.827  12.006
42663W        W 4117  35.079  21.574  13.033
42664W        W 4118   3.428  33.585   4.688
42665W        W 4119   0.858   7.901  13.806
42666W        W 4120  16.588  38.890  14.322
42667W        W 4121   6.352  17.071  14.371
42668W        W 4122  10.378  21.713   2.306
42669W        W 4123   1.824  29.007  10.938
42670W        W 4124   2.270  25.503  14.315
42671W        W 4125  32.050  42.784   3.251
42672W        W 4126  40.488   3.728   1.726
42673W        W 4127  19.146  15.218  11.873
42674W        W 4128  35.404  14.780   0.277
42675W        W 4129   1.831  39.543  14.772
42676W        W 4130  11.274  15.274   2.681
42677W        W 4131  28.569  12.619  13.543
42678W        W 4132  27.657   0.299  11.081
42679W        W 4133  15.156   5.375   4.252
42680W        W 4134  24.510  31.493  11.392
42681W        W 4135   7.340  11.663   3.758
42682W        W 4136  10.375  33.932  14.950
42683W        W 4137  24.719  25.144   3.316
42684W        W 4138   6.204  16.730  10.921
42685W        W 4139  42.470  27.070  11.042
42686W        W 4140  33.877  43.957  10.478
42687W        W 4141  13.176  10.294   3.317
42688W        W 4142   0.414   0.876  14.983
42689W        W 4143   0.313   2.827  14.923
42690W        W 4144  30.616   4.377   1.394
42691W        W 4145   3.865  41.451   5.283
42692W        W 4146  34.068  17.280  14.939
42693W        W 4147   4.925  39.513   4.263
42694W        W 4148   6.810  41.402  12.428
42695W        W 4149  16.694  24.082   2.853
42696W        W 4150   1.919  28.444   3.148
42697W        W 4151  33.399  22.586   0.770
42698W        W 4152  11.302  28.478   4.695
42699W        W 4153  20.080  17.120  13.962
42700W        W 4154  19.537  34.375   1.281
42701W        W 4155  27.095   5.216  12.537
42702W        W 4156  33.490  23.708   9.992
42703W        W 4157   7.312  12.668   3.359
42704W        W 4158   7.390  20.259   1.268
42705W        W 4159  22.129  19.678  11.129
42706W        W 4160  11.180  42.953  14.855
42707W        W 4161   5.327  26.536   0.254
42708W        W 4162   5.832  12.145  11.979
42709W        W 4163  16.256  20.539  14.968
42710W        W 4164  28.990  21.254  13.330
42711W        W 4165  38.052  22.605  13.003
42712W        W 4166   8.801  25.651  10.956
42713W        W 4167  33.126   2.818   0.464
42714W        W 4168  21.060  27.983   4.792
42715W        W 4169   3.937  23.696  14.821
42716W        W 4170   9.767  34.942   2.719
42717W        W 4171  18.057  39.414   4.129
42718W        W 4172  21.751  31.023  14.382
42719W        W 4173  42.900  36.480   4.154
42720W        W 4174  42.925  17.090   2.205
42721W        W 4175  33.402   2.802   1.786
42722W        W 4176  24.655   1.459  13.345
42723W        W 4177  37.839  24.538   1.899
42724W        W 4178   7.308  18.658  11.554
42725W        W 4179  11.868  43.837  12.888
42726W        W 4180  11.298  37.564   0.964
42727W        W 4181   8.660  44.283   2.836
42728W        W 4182  33.885  43.323  11.109
42729W        W 4183  16.085  38.374   2.332
42730W        W 4184  13.245   8.742   1.444
42731W        W 4185  19.724  26.521  12.456
42732W        W 4186  13.601   1.364   4.341
42733W        W 4187  32.480  15.147  13.424
42734W        W 4188  27.993  18.649  12.457
42735W        W 4189  34.104  41.487   3.752
42736W        W 4190  17.233  13.707   4.634
42737W        W 4191   5.271  24.492   4.826
42738W        W 4192  14.737  30.537   0.820
42739W        W 4193  33.030  16.278   3.234
42740W        W 4194   2.720   7.908  12.352
42741W        W 4195   4.849  31.439  12.048
42742W        W 4196  19.637  29.493   1.320
42743W        W 4197  33.131  31.520   2.800
42744W        W 4198  41.525  28.065  12.369
42745W        W 4199  16.216  43.872   3.210
42746W        W 4200   0.845  41.355  12.499
42747W        W 4201   2.828  14.282  14.774
42748W        W 4202  30.560  27.039   4.609
42749W        W 4203  26.143  33.544   2.684
42750W        W 4204  42.018  15.206   4.756
42751W        W 4205  18.742  27.123   1.879
42752W        W 4206  22.620  42.422  12.033
42753W        W 4207   1.857   0.756  11.026
42754W        W 4208   8.672  43.852   2.706
42755W        W 4209  41.896  44.441  14.913
42756W        W 4210  26.484   9.239  12.989
42757W        W 4211  28.563  37.565  14.913
42758W        W 4212  13.222  38.890  11.999
42759W        W 4213  23.622  37.960   1.290
42760W        W 4214  14.242  24.550   0.928
42761W        W 4215  14.190  15.184  11.014
42762W        W 4216  19.214  16.740  11.041
42763W        W 4217  42.920   7.793   1.411
42764W        W 4218  27.682  34.384   1.783
42765W        W 4219  33.554  19.182  12.931
42766W        W 4220  24.478  25.103  12.930
42767W        W 4221  32.086  20.063   4.293
42768W        W 4222  40.939  25.534  11.091
42769W        W 4223  26.559  27.961  10.454
42770W        W 4224  14.829  43.281   0.438
42771W        W 4225  32.055  10.228  13.506
42772W        W 4226  15.195  14.143   4.350
42773W        W 4227  11.795  27.533   3.636
42774W        W 4228  37.376  16.261   4.810
42775W        W 4229  14.280  36.515   3.342
42776W        W 4230  15.193   9.393   4.186
42777W        W 4231  31.906  39.888   4.736
42778W        W 4232  25.035  15.703  14.012
42779W        W 4233  30.924  18.056   5.154
42780W        W 4234  39.371  29.654   4.182
42781W        W 4235  17.641  38.350   2.270
42782W        W 4236  19.169   6.877   3.320
42783W        W 4237  34.576  27.997   4.821
42784W        W 4238   2.903  10.750   1.799
42785W        W 4239  11.814  19.762   1.327
42786W        W 4240  17.732  10.809   4.171
42787W        W 4241  16.795  23.700   3.814
42788W        W 4242  35.930  13.716  14.964
42789W        W 4243  34.493   0.842   0.916
42790W        W 4244   8.699   8.304  10.920
42791W        W 4245  17.689  42.523  14.758
42792W        W 4246  27.455   1.735  14.870
42793W        W 4247   3.945   0.423  11.897
42794W        W 4248   8.309  28.460  12.548
42795W        W 4249  11.308  11.213  12.839
42796W        W 4250   6.209   4.393  11.112
42797W        W 4251  18.580  15.175   0.780
42798W        W 4252   2.926  31.921   1.910
42799W        W 4253  29.570  41.418  13.541
42800W        W 4254  18.777  33.994   1.885
42801W        W 4255  25.202   2.756  12.046
42802W        W 4256  30.141  32.894   5.799
42803W        W 4257   5.701   2.896  12.460
42804W        W 4258  19.204  20.060  14.860
42805W        W 4259  20.123   1.348  14.024
42806W        W 4260  21.539  42.400   3.231
42807W        W 4261  30.909  39.510  11.073
42808W        W 4262  31.570  39.903   0.856
42809W        W 4263  23.201   6.685  14.974
42810W        W 4264  44.483   3.343   3.281
42811W        W 4265  37.538  16.200  13.361
42812W        W 4266  34.041  23.006   3.829
42813W        W 4267   2.351  25.199  12.512
42814W        W 4268  15.303  32.078  12.542
42815W        W 4269   2.307  35.400   4.774
42816W        W 4270  27.564  18.759  13.974
42817W        W 4271  32.137  41.354   0.885
42818W        W 4272  30.074  32.542  13.326
42819W        W 4273   8.180  24.974  12.561
42820W        W 4274  17.590   2.240   4.714
42821W        W 4275  14.672   9.657   1.417
42822W        W 4276  21.215   2.395   4.672
42823W        W 4277  29.092  16.236  12.976
42824W        W 4278   0.758  26.011   0.849
42825W        W 4279  23.031   4.710   1.237
42826W        W 4280  13.235  14.225  14.911
42827W        W 4281  17.127  33.498   4.332
42828W        W 4282  12.225  32.021   2.340
42829W        W 4283  39.461  40.523  10.046
42830W        W 4284  12.841  19.756  12.056
42831W        W 4285   1.321  13.317   4.245
42832W        W 4286  43.979  30.543   4.143
42833W        W 4287   6.782  14.223  14.423
42834W        W 4288  25.487  18.780  11.020
42835W        W 4289  11.660  26.198  14.768
42836W        W 4290  15.301  27.463  14.292
42837W        W 4291  14.115  44.295   3.370
42838W        W 4292  42.986  15.193   1.879
42839W        W 4293  33.621  13.730  10.597
42840W        W 4294  39.457  37.539  12.417
42841W        W 4295  12.698   0.773  14.416
42842W        W 4296   2.754  43.389   0.882
42843W        W 4297  13.192  19.739   3.730
42844W        W 4298   4.930  14.762  12.551
42845W        W 4299  44.767  19.272  14.790
42846W        W 4300   9.701  43.846   4.751
42847W        W 4301   4.767  34.040   3.381
42848W        W 4302  14.236  13.174   4.812
42849W        W 4303  24.159   2.427   4.158
42850W        W 4304  27.461  36.069   1.812
42851W        W 4305  11.641  21.131  11.028
42852W        W 4306  31.618  41.301  11.970
42853W        W 4307   7.286  10.329   4.689
42854W        W 4308  43.366  15.180   1.805
42855W        W 4309   1.414  35.911   0.376
42856W        W 4310  23.708  17.640   4.735
42857W        W 4311  25.530  44.814   0.878
42858W        W 4312  38.045   0.943  10.538
42859W        W 4313  41.895  41.378   0.328
42860W        W 4314  16.658   5.920   3.199
42861W        W 4315  24.990  21.635   3.216
42862W        W 4316   8.364  39.473  14.411
42863W        W 4317   2.460  31.522   3.691
42864W        W 4318  39.516  35.891   4.835
42865W        W 4319  29.587  10.166  14.420
42866W        W 4320  43.807   1.307  12.071
42867W        W 4321  28.053  36.939  14.781
42868W        W 4322   7.895  40.308  11.399
42869W        W 4323  13.778  41.928  13.511
42870W        W 4324   6.397  22.501  10.055
42871W        W 4325  29.655  29.062  13.934
42872W        W 4326  31.904  38.936   4.684
42873W        W 4327  36.913  20.714  13.489
42874W        W 4328  27.941  30.909  12.004
42875W        W 4329   1.425  17.178  12.090
42876W        W 4330   1.908   7.850  11.859
42877W        W 4331  44.403   5.910  14.836
42878W        W 4332  39.039  25.656  13.388
42879W        W 4333  23.005  29.070   3.802
42880W        W 4334  10.156  22.626  12.342
42881W        W 4335   1.474  23.993  14.867
42882W        W 4336   8.885  32.969  10.580
42883W        W 4337   4.383   9.672   0.871
42884W        W 4338   9.304  19.209  10.977
42885W        W 4339  31.132  37.546   4.337
42886W        W 4340  20.634  39.055  13.918
42887W        W 4341  37.865   6.791   3.255
42888W        W 4342  42.489   5.256   2.816
42889W        W 4343  26.097  25.144  11.986
42890W        W 4344  40.054  25.985  14.279
42891W        W 4345  44.804  16.259  14.416
42892W        W 4346  20.216   8.213   9.671
42893W        W 4347  12.314  16.618   3.291
42894W        W 4348  33.995  41.982   1.759
42895W        W 4349  41.327  25.148   1.794
42896W        W 4350  26.054  39.883  14.803
42897W        W 4351   9.700   6.690  14.500
42898W        W 4352  16.643  11.319   1.889
42899W        W 4353  44.859  11.799  12.037
42900W        W 4354  11.287  14.741   1.265
42901W        W 4355  32.944  37.944  12.523
42902W        W 4356  34.990  30.463   1.394
42903W        W 4357  40.026   0.922  10.637
42904W        W 4358   4.354   1.281  13.520
42905W        W 4359   3.792  32.963  11.478
42906W        W 4360  25.514  20.179   3.662
42907W        W 4361  15.716  20.167   4.645
42908W        W 4362  29.961   8.873   3.851
42909W        W 4363  10.690   0.862   2.237
42910W        W 4364  42.455   8.866   2.790
42911W        W 4365  34.037  36.019  10.507
42912W        W 4366  33.996   1.782  14.945
42913W        W 4367  33.539   2.422   4.347
42914W        W 4368  28.470  10.831  13.899
42915W        W 4369  35.923  14.666   4.640
42916W        W 4370  20.256  10.360   4.688
42917W        W 4371  24.725  29.050  12.907
42918W        W 4372  17.087   2.776  11.422
42919W        W 4373  21.562  36.507  12.935
42920W        W 4374   9.156  24.218   2.837
42921W        W 4375  21.660  31.048  10.996
42922W        W 4376  25.607  34.063  11.468
42923W        W 4377  31.548   4.413   4.281
42924W        W 4378  15.208   0.412  14.011
42925W        W 4379  18.178   1.278   4.288
42926W        W 4380  33.950   5.331  14.449
42927W        W 4381  41.024  25.145  13.831
42928W        W 4382  15.313  34.534  12.913
42929W        W 4383  38.842  17.606  13.474
42930W        W 4384   1.831  32.885   2.709
42931W        W 4385  13.772  11.157   0.768
42932W        W 4386  32.897   6.895   0.484
42933W        W 4387  31.902   0.462   0.342
42934W        W 4388  41.908  40.473  10.503
42935W        W 4389   7.231  12.224  11.059
42936W        W 4390  40.981   8.302  10.900
42937W        W 4391  21.145   2.238  14.407
42938W        W 4392  22.217  16.593   3.371
42939W        W 4393  16.118  37.562   4.179
42940W        W 4394  36.041   6.240   0.393
42941W        W 4395   0.915  43.351   3.644
42942W        W 4396  36.959  21.134  14.398
42943W        W 4397   9.390  13.223  12.402
42944W        W 4398  14.274  17.624  11.099
42945W        W 4399  35.580  14.289  14.498
42946W        W 4400  28.614  15.815   0.878
42947W        W 4401  42.857  10.156   2.669
42948W        W 4402  41.826  12.213   3.652
42949W        W 4403  33.895  40.890  13.526
42950W        W 4404  42.508  43.482  13.347
42951W        W 4405  20.130  31.036   0.337
42952W        W 4406  12.333  10.155   0.346
42953W        W 4407   3.308  10.246   0.372
42954W        W 4408  18.658  42.394  11.080
42955W        W 4409  20.221  16.139  12.393
42956W        W 4410  19.641  18.246  10.914
42957W        W 4411   4.832  30.481   3.745
42958W        W 4412  14.593  38.001   1.849
42959W        W 4413  31.942  41.380   3.290
42960W        W 4414  13.797  24.706   4.290
42961W        W 4415  42.806  18.129   0.467
42962W        W 4416  42.515  24.080   2.699
42963W        W 4417  27.093  33.957  12.950
42964W        W 4418  32.950  32.071  13.999
42965W        W 4419  19.672  14.614   2.387
42966W        W 4420   2.403  27.079   1.709
42967W        W 4421  10.321  26.533   2.214
42968W        W 4422  36.575  39.809   3.298
42969W        W 4423  41.796  23.651   2.310
42970W        W 4424  23.664  20.194  10.423
42971W        W 4425  13.189  12.270   2.229
42972W        W 4426   9.812  35.552  11.493
42973W        W 4427  41.445  22.197  14.802
42974W        W 4428  18.783  24.527  11.376
42975W        W 4429  31.153  36.888  11.484
42976W        W 4430  39.443  29.163   0.424
42977W        W 4431  29.067  30.565   3.719
42978W        W 4432  16.201  15.290   2.357
42979W        W 4433  43.505  10.262  13.953
42980W        W 4434  18.115  19.644  11.964
42981W        W 4435  38.415  26.176  14.317
42982W        W 4436  39.538  28.988   1.796
42983W        W 4437  31.479   7.743  13.374
42984W        W 4438  24.508   5.784  11.091
42985W        W 4439  21.078   6.323   3.639
42986W        W 4440   2.268  39.980  12.016
42987W        W 4441  43.455   7.746   1.218
42988W        W 4442   5.894  20.195   2.804
42989W        W 4443  26.992  43.771  12.071
42990W        W 4444  24.704   2.435   1.918
42991W        W 4445   3.939   9.188   0.790
42992W        W 4446  34.074  15.195  14.918
42993W        W 4447  17.675  20.250  10.563
42994W        W 4448  43.019  23.542   3.764
42995W        W 4449   9.761  23.006  14.924
42996W        W 4450  10.369  20.219  10.961
42997W        W 4451  16.282  41.024   2.692
42998W        W 4452  24.616  26.055   4.220
42999W        W 4453  25.033  40.509   2.403
43000W        W 4454   9.888  16.262   3.761
43001W        W 4455  13.206  41.961   1.751
43002W        W 4456   4.787   6.676   4.225
43003W        W 4457  33.989   1.947   4.248
43004W        W 4458  43.940  21.706  14.310
43005W        W 4459  41.499  31.416   4.348
43006W        W 4460  20.564  25.978   3.840
43007W        W 4461  11.174  28.009   1.238
43008W        W 4462  35.569  16.185   1.792
43009W        W 4463  11.636  23.056   3.287
43010W        W 4464   2.453  36.851   0.445
43011W        W 4465   8.325   3.798   1.251
43012W        W 4466  21.597   9.366  10.636
43013W        W 4467  43.858  33.488   4.153
43014W        W 4468  30.073  41.821   4.265
43015W        W 4469  32.556  11.166  14.772
43016W        W 4470  26.009  13.673  14.359
43017W        W 4471  13.606   2.902  10.593
43018W        W 4472   9.194  37.946  13.011
43019W        W 4473   1.953  36.377   4.328
43020W        W 4474  41.476  16.198   4.734
43021W        W 4475   4.859  27.020   1.929
43022W        W 4476  34.869  44.412   1.218
43023W        W 4477   1.256  32.079   0.787
43024W        W 4478  17.102   6.221  14.409
43025W        W 4479  42.491   0.870   3.649
43026W        W 4480  20.694  26.061   2.303
43027W        W 4481  16.211  44.299  14.451
43028W        W 4482  18.069   2.914   2.788
43029W        W 4483   6.294  11.190   3.770
43030W        W 4484  32.422  44.410   0.338
43031W        W 4485   0.274  42.859  13.393
43032W        W 4486  15.779  23.590   2.417
43033W        W 4487  21.701  40.382  13.940
43034W        W 4488  22.075  25.219   0.871
43035W        W 4489  30.081  17.126   4.171
43036W        W 4490  16.131  27.535   3.270
43037W        W 4491   6.894  24.489  14.954
43038W        W 4492  35.935  26.185  12.569
43039W        W 4493  41.322  27.124   3.856
43040W        W 4494  42.965   2.397   0.752
43041W        W 4495  41.347   1.378  11.862
43042W        W 4496  27.692   2.375   9.564
43043W        W 4497  13.638  42.408  13.996
43044W        W 4498  10.319  25.583   3.658
43045W        W 4499  18.602  36.042  14.308
43046W        W 4500  26.110  18.740  12.823
43047W        W 4501  19.070  37.556   4.690
43048W        W 4502   1.756  44.389  14.495
43049W        W 4503  41.890  15.307   4.313
43050W        W 4504  23.212  17.276   2.737
43051W        W 4505  30.122  19.632   2.401
43052W        W 4506  36.954   1.835   3.869
43053W        W 4507   1.298  41.426   4.830
43054W        W 4508  43.494  26.544  14.953
43055W        W 4509   8.227  27.051   0.425
43056W        W 4510   1.808   6.254  13.811
43057W        W 4511  29.133   2.419  12.086
43058W        W 4512  12.846  23.578  13.865
43059W        W 4513  42.020  44.300  10.024
43060W        W 4514  39.548  43.989   9.571
43061W        W 4515  33.565  18.156  11.968
43062W        W 4516  39.049  17.191   2.199
43063W        W 4517  14.209  13.271   3.815
43064W        W 4518  20.218  18.565  11.589
43065W        W 4519  27.619  30.569  13.379
43066W        W 4520  14.793   0.948  14.922
43067W        W 4521  30.080  24.721   1.373
43068W        W 4522  27.568  29.609  11.459
43069W        W 4523  24.717  41.994   4.597
43070W        W 4524   3.768  19.641  14.398
43071W        W 4525  23.587  16.248   0.818
43072W        W 4526  29.955   6.367   4.297
43073W        W 4527  33.049  15.113   1.786
43074W        W 4528  44.779  12.205  11.997
43075W        W 4529  17.752   7.395   4.785
43076W        W 4530  33.470  29.133  12.945
43077W        W 4531  12.670   3.406  12.993
43078W        W 4532  42.033  26.036   2.249
43079W        W 4533  10.717  19.591   3.752
43080W        W 4534  34.016  25.572   2.353
43081W        W 4535  34.099   6.820   3.737
43082W        W 4536  30.930  10.252  13.367
43083W        W 4537   2.395  15.649   1.413
43084W        W 4538  25.492  42.284   0.763
43085W        W 4539  41.788   6.374  12.466
43086W        W 4540  23.652   4.848   2.898
43087W        W 4541   4.282  36.381  12.904
43088W        W 4542  16.790   2.729   1.767
43089W        W 4543  44.396  19.628  12.441
43090W        W 4544   6.324  33.012  10.944
43091W        W 4545  43.487  14.699  12.344
43092W        W 4546  19.689  23.045  14.378
43093W        W 4547  29.979  10.341  10.050
43094W        W 4548  38.566  33.625   1.908
43095W        W 4549   0.969   2.400  10.572
43096W        W 4550  41.496  39.395  13.410
43097W        W 4551  32.456  32.059  13.540
43098W        W 4552  19.049  40.440   3.654
43099W        W 4553   6.835   9.252   1.416
43100W        W 4554   6.190  20.734  13.847
43101W        W 4555   8.815  20.207  12.409
43102W        W 4556  34.463   0.871   2.759
43103W        W 4557  27.106  24.623  12.095
43104W        W 4558  25.704  38.350   3.681
43105W        W 4559  37.434  35.891   9.959
43106W        W 4560  24.577  19.543   1.343
43107W        W 4561  22.237  31.134   1.726
43108W        W 4562  13.235  17.219   0.449
43109W        W 4563  38.444  13.187  11.938
43110W        W 4564   1.783  24.574  12.994
43111W        W 4565  39.016  25.695   4.218
43112W        W 4566  43.281  25.006  10.105
43113W        W 4567  14.282  38.494  14.334
43114W        W 4568  28.478  43.318  12.851
43115W        W 4569  16.301  42.293   1.717
43116W        W 4570  35.591  28.488   0.866
43117W        W 4571  19.098  41.513   4.709
43118W        W 4572  21.247  36.910   0.823
43119W        W 4573  26.611  26.010   1.918
43120W        W 4574  29.528   1.832   2.837
43121W        W 4575  10.358  32.412   1.780
43122W        W 4576  13.261  11.646   3.149
43123W        W 4577  17.095   9.889  11.100
43124W        W 4578   5.336   4.748   0.901
43125W        W 4579  40.528  39.970   1.723
43126W        W 4580  35.912  22.058  14.012
43127W        W 4581   2.236  38.052  14.278
43128W        W 4582  34.998  44.805  14.431
43129W        W 4583   9.732   5.218   2.214
43130W        W 4584  33.401  38.495   1.712
43131W        W 4585  24.178  13.256   2.841
43132W        W 4586  21.258  36.986  11.942
43133W        W 4587   6.729  40.368   1.435
43134W        W 4588  30.507  22.238   3.146
43135W        W 4589  21.693  41.032   3.377
43136W        W 4590  44.771  21.223   2.833
43137W        W 4591  18.119   7.697   0.454
43138W        W 4592  32.002  44.338  13.890
43139W        W 4593  34.867  44.885   2.399
43140W        W 4594  15.276  41.489   0.356
43141W        W 4595  16.616   7.306  11.504
43142W        W 4596  33.618  16.762   2.812
43143W        W 4597  18.098  40.532   1.308
43144W        W 4598   7.792   2.271   2.854
43145W        W 4599  39.961  21.033  14.896
43146W        W 4600  34.488  42.896   2.817
43147W        W 4601  38.359  29.018   2.854
43148W        W 4602  42.476  33.396   1.788
43149W        W 4603  29.466  29.053  11.441
43150W        W 4604  10.173  38.958  10.888
43151W        W 4605  33.925  20.094  14.818
43152W        W 4606  43.971  22.007   1.329
43153W        W 4607  33.399   5.835   2.309
43154W        W 4608  35.383  11.188  12.441
43155W        W 4609  10.318   5.268   2.781
43156W        W 4610  21.607  25.112   2.748
43157W        W 4611  10.194  37.518   3.716
43158W        W 4612  32.594  25.649  13.516
43159W        W 4613  36.097  18.081   3.230
43160W        W 4614  37.501  33.965  12.080
43161W        W 4615  41.447  37.366   0.859
43162W        W 4616   3.771  30.065  13.365
43163W        W 4617  25.673  36.025  11.045
43164W        W 4618  14.190  24.098  13.040
43165W        W 4619  43.273  43.383  11.966
43166W        W 4620  35.377   5.700   3.288
43167W        W 4621   2.286  19.588  10.925
43168W        W 4622  20.101  14.711   2.754
43169W        W 4623  42.830  40.347  11.376
43170W        W 4624  31.487  24.997   2.394
43171W        W 4625  12.120  10.149  13.488
43172W        W 4626  33.923  37.865   3.659
43173W        W 4627  33.090  43.433   2.891
43174W        W 4628  17.712  24.651  13.401
43175W        W 4629  12.798  10.251   4.612
43176W        W 4630  39.918  21.242   2.254
43177W        W 4631  17.708  43.013   0.247
43178W        W 4632  34.371   1.864  11.573
43179W        W 4633   0.878  20.120   3.670
43180W        W 4634  15.207   6.814   4.152
43181W        W 4635  34.429  35.054  12.542
43182W        W 4636  30.654  33.974  13.527
43183W        W 4637   0.799  31.464  12.540
43184W        W 4638  13.739  32.613  14.026
43185W        W 4639  41.905  38.966  12.927
43186W        W 4640  37.044  42.511  12.875
43187W        W 4641  16.608  15.135   1.296
43188W        W 4642  24.081  37.974  12.981
43189W        W 4643   3.841  27.504  13.940
43190W        W 4644  30.066  24.122  12.374
43191W        W 4645  21.033  15.193   4.239
43192W        W 4646  29.985  15.729   3.835
43193W        W 4647  32.088   0.809  12.492
43194W        W 4648  17.756   3.710   3.147
43195W        W 4649  35.582  31.087  12.568
43196W        W 4650   7.817  42.891   0.843
43197W        W 4651  12.237  20.635   3.335
43198W        W 4652  19.078   7.306   5.800
43199W        W 4653  40.511  13.807  14.977
43200W        W 4654  13.812  35.073  10.984
43201W        W 4655  17.593  20.564   1.437
43202W        W 4656  35.498   3.778   0.401
43203W        W 4657  40.334   1.781  13.527
43204W        W 4658  21.664  28.003  11.374
43205W        W 4659   9.176  14.207  10.031
43206W        W 4660   1.424   8.361  12.828
43207W        W 4661  16.119  26.002  12.571
43208W        W 4662  42.826   2.798  13.402
43209W        W 4663  25.207  38.944  14.448
43210W        W 4664   8.807  21.662   1.272
43211W        W 4665  21.253   6.792  14.905
43212W        W 4666  39.909  44.494   2.319
43213W        W 4667   9.718   2.856   3.218
43214W        W 4668   5.923  26.594  13.388
43215W        W 4669   8.263  26.098  14.386
43216W        W 4670  37.873   8.353  10.589
43217W        W 4671   7.285  33.963   0.294
43218W        W 4672  23.736   3.743   1.271
43219W        W 4673  34.929   2.878   3.815
43220W        W 4674  17.123   6.302   4.793
43221W        W 4675  15.270   6.371   1.897
43222W        W 4676  37.969  37.344  14.355
43223W        W 4677  34.386  29.492   0.297
43224W        W 4678  17.741  33.498  11.068
43225W        W 4679  14.189   2.440  12.390
43226W        W 4680  11.138   0.400  12.873
43227W        W 4681  32.979  39.931  12.355
43228W        W 4682  33.885  17.146   3.641
43229W        W 4683   8.879   0.848   2.250
43230W        W 4684   5.760  11.674  11.041
43231W        W 4685  41.315  34.960  13.947
43232W        W 4686  44.497  36.485   3.262
43233W        W 4687  30.019  27.172  11.091
43234W        W 4688  12.827  37.959   1.870
43235W        W 4689   4.425   3.445  12.417
43236W        W 4690   1.887  16.727  12.888
43237W        W 4691   3.819  14.268   1.899
43238W        W 4692  44.775   7.718  14.954
43239W        W 4693   9.818  29.507   4.155
43240W        W 4694  29.968  28.937  14.012
43241W        W 4695  40.815   2.745   1.788
43242W        W 4696  23.000  15.600  10.931
43243W        W 4697  21.674  27.000  14.761
43244W        W 4698  35.410  33.409  12.903
43245W        W 4699  12.623  28.111   1.269
43246W        W 4700  35.533  19.558  14.965
43247W        W 4701  41.921  17.766   0.368
43248W        W 4702  34.892  32.116  11.899
43249W        W 4703  41.003  29.641  12.552
43250W        W 4704  19.727   7.196  13.957
43251W        W 4705  29.559  31.510   4.118
43252W        W 4706   0.258   6.295   3.852
43253W        W 4707  26.083  19.284  11.427
43254W        W 4708  41.858  27.192   3.197
43255W        W 4709   3.455  28.616  14.799
43256W        W 4710   0.366  42.500  13.477
43257W        W 4711   3.731  14.333   0.445
43258W        W 4712  38.891  35.077  12.039
43259W        W 4713  19.250  16.114  12.967
43260W        W 4714   8.363  28.523   2.354
43261W        W 4715   1.870  23.696  14.004
43262W        W 4716  13.294  14.697  12.848
43263W        W 4717   8.821  26.961   2.289
43264W        W 4718  40.502  14.607  11.417
43265W        W 4719  24.105  35.022  10.996
43266W        W 4720  30.562  22.070   0.834
43267W        W 4721  36.924  24.638  11.003
43268W        W 4722  22.710  30.648  14.955
43269W        W 4723  19.055  35.042   3.846
43270W        W 4724  25.702  11.658   3.365
43271W        W 4725  44.913  12.837  13.412
43272W        W 4726  24.668  23.721   1.220
43273W        W 4727  43.429  42.359   3.218
43274W        W 4728   7.315  27.940  14.343
43275W        W 4729  39.930  38.068  10.583
43276W        W 4730   3.434  26.559   5.088
43277W        W 4731  40.025  42.449   2.211
43278W        W 4732   9.716  30.457  10.616
43279W        W 4733   1.836  39.348  13.845
43280W        W 4734  15.774  19.598  10.447
43281W        W 4735  42.326   7.849   2.342
43282W        W 4736   6.353  18.610   0.803
43283W        W 4737  42.872  22.068   0.730
43284W        W 4738  23.542  33.121   1.365
43285W        W 4739  25.641  41.809  13.017
43286W        W 4740  17.256   8.323   1.213
43287W        W 4741  16.292   0.774   0.364
43288W        W 4742  35.475   0.324  11.878
43289W        W 4743  36.531  21.730   3.179
43290W        W 4744  42.956  13.599  13.400
43291W        W 4745   2.382  40.845  11.862
43292W        W 4746  15.116  34.094   1.806
43293W        W 4747  39.919   8.201  10.460
43294W        W 4748  40.906  30.619  13.536
43295W        W 4749  15.584  38.334   3.240
43296W        W 4750  14.611  42.486   2.671
43297W        W 4751   6.243  29.970  13.495
43298W        W 4752  43.847  14.200   2.864
43299W        W 4753   1.753  11.245   2.282
43300W        W 4754  38.046   7.840  14.408
43301W        W 4755   2.750  33.107  12.534
43302W        W 4756   7.794  28.615  13.821
43303W        W 4757  42.794  20.134   0.370
43304W        W 4758   2.923  38.435   4.203
43305W        W 4759   7.701   5.764  11.547
43306W        W 4760  38.897  16.280  11.600
43307W        W 4761   6.355  12.143  11.449
43308W        W 4762   6.805   1.431   1.801
43309W        W 4763  12.137  11.863   3.819
43310W        W 4764  40.848   9.694  14.447
43311W        W 4765  26.088   1.327   4.775
43312W        W 4766  11.178  11.138   1.934
43313W        W 4767  13.792  20.263   4.762
43314W        W 4768  36.868  25.987  11.433
43315W        W 4769  18.145  13.700   3.844
43316W        W 4770  18.091  38.953   4.247
43317W        W 4771  17.742  28.515   2.271
43318W        W 4772  41.907  29.462  12.905
43319W        W 4773  27.163  14.107  11.503
43320W        W 4774   8.401  33.875  14.900
43321W        W 4775  15.690  24.636   1.310
43322W        W 4776  32.090  32.608   1.350
43323W        W 4777   2.839   4.271  14.403
43324W        W 4778  43.371   7.179   3.209
43325W        W 4779  31.532  42.882  10.907
43326W        W 4780  31.426  39.843   3.870
43327W        W 4781  37.425   9.770   1.423
43328W        W 4782  17.237  43.822  10.631
43329W        W 4783  18.617  20.206  13.916
43330W        W 4784  40.354  30.130  12.926
43331W        W 4785  30.624  32.988  12.855
43332W        W 4786  29.500   3.251  12.462
43333W        W 4787   7.179  17.614  11.089
43334W        W 4788  18.709  16.749   2.335
43335W        W 4789   6.275  13.250   4.210
43336W        W 4790  16.089  37.394   1.816
43337W        W 4791   4.845  27.553  13.972
43338W        W 4792  16.181  24.567  13.491
43339W        W 4793  29.586   0.299   4.278
43340W        W 4794  41.498  23.498  13.462
43341W        W 4795  14.760  35.425  11.097
43342W        W 4796  25.148  27.099   3.674
43343W        W 4797  34.896  24.021  12.031
43344W        W 4798  11.837   4.446   3.350
43345W        W 4799  32.118  18.748   2.662
43346W        W 4800  31.147  24.658   9.656
43347W        W 4801  42.514  25.135  13.967
43348W        W 4802  32.475  10.741  12.366
43349W        W 4803  40.968  35.420   0.378
43350W        W 4804  17.662  31.954  13.027
43351W        W 4805  36.421  42.456  12.472
43352W        W 4806  43.901  11.775  11.556
43353W        W 4807   4.939  29.602   4.332
43354W        W 4808  21.066  37.922   1.925
43355W        W 4809   1.939  31.151  12.552
43356W        W 4810  12.799   9.801  11.032
43357W        W 4811  10.871   5.330  10.615
43358W        W 4812  25.029  23.238  12.467
43359W        W 4813   9.669  21.612  14.370
43360W        W 4814  24.724  40.952   1.735
43361W        W 4815   4.787  32.114   0.811
43362W        W 4816  35.038  25.699   0.885
43363W        W 4817  30.030  15.803   1.830
43364W        W 4818  37.844   3.735  10.951
43365W        W 4819  36.571  27.005  10.509
43366W        W 4820  11.761  33.998  10.573
43367W        W 4821  43.816  20.617   0.907
43368W        W 4822  21.647  12.716   0.967
43369W        W 4823  11.775  14.598  14.898
43370W        W 4824  10.675  42.386   3.655
43371W        W 4825  29.079   0.247   4.733
43372W        W 4826  23.069  43.939   3.158
43373W        W 4827  19.598   3.358   0.405
43374W        W 4828  28.067  10.742  12.953
43375W        W 4829  18.217  33.894  10.613
43376W        W 4830  40.353   1.385   2.837
43377W        W 4831  38.454  36.415   3.285
43378W        W 4832  13.721  34.955  13.369
43379W        W 4833   0.493  40.434   0.335
43380W        W 4834  15.228  25.520   4.185
43381W        W 4835  14.652  36.068   2.667
43382W        W 4836  21.620   3.349  12.489
43383W        W 4837  33.490   0.846   2.313
43384W        W 4838  43.515   5.335   3.315
43385W        W 4839  16.131  29.161   4.706
43386W        W 4840  22.162  34.905   1.307
43387W        W 4841   2.926  13.171  13.399
43388W        W 4842   8.244  15.256  13.816
43389W        W 4843  20.685  21.225  11.430
43390W        W 4844  20.212   9.777   1.356
43391W        W 4845  23.227  31.112  10.909
43392W        W 4846  41.514   5.878   0.932
43393W        W 4847  13.826  36.048   0.437
43394W        W 4848  42.995  32.087  11.941
43395W        W 4849   1.889   0.829  10.493
43396W        W 4850  27.581  31.080  12.942
43397W        W 4851  17.647   0.349  14.976
43398W        W 4852   6.225  44.988  13.434
43399W        W 4853  30.149   1.758   2.207
43400W        W 4854   9.238   4.802   3.247
43401W        W 4855  17.105  24.005   0.304
43402W        W 4856  10.745  25.219   1.847
43403W        W 4857   4.782  20.737  13.333
43404W        W 4858  40.355  25.696  10.423
43405W        W 4859  35.444  36.357   3.753
43406W        W 4860  17.235  31.038  14.292
43407W        W 4861  21.083  12.263   4.334
43408W        W 4862   7.718   8.281   3.151
43409W        W 4863  32.973  33.490  12.094
43410W        W 4864  22.652  35.882   0.828
43411W        W 4865  41.949   5.740   4.618
43412W        W 4866  13.725  28.142   3.820
43413W        W 4867   9.198  22.234   4.780
43414W        W 4868  42.328   3.291   4.726
43415W        W 4869  40.448  11.131   9.949
43416W        W 4870  20.762  44.884   4.601
43417W        W 4871  30.523  24.065   3.224
43418W        W 4872  20.053  17.761   2.311
43419W        W 4873   5.374  31.100  10.942
43420W        W 4874  18.727  12.664   3.365
43421W        W 4875  36.060  37.922   0.463
43422W        W 4876  10.789  11.839   2.183
43423W        W 4877  27.095   9.739   2.417
43424W        W 4878  42.323  44.440   1.766
43425W        W 4879  26.559  43.316  13.311
43426W        W 4880  28.010  41.985  14.282
43427W        W 4881   2.266  40.397  14.417
43428W        W 4882  32.945  35.504   4.652
43429W        W 4883  25.027  44.772   1.761
43430W        W 4884  27.095   1.808   2.815
43431W        W 4885   0.793  30.123  11.952
43432W        W 4886   4.761  11.631   2.732
43433W        W 4887  18.227  14.122   0.395
43434W        W 4888  16.653  21.604   0.757
43435W        W 4889  24.507  41.466   3.794
43436W        W 4890   6.720  30.438   1.888
43437W        W 4891  14.620  34.915  11.439
43438W        W 4892  24.625  22.096  11.970
43439W        W 4893  26.650  12.206  14.441
43440W        W 4894  20.670  19.556   1.298
43441W        W 4895  24.499  42.952  14.808
43442W        W 4896  26.674  28.141   2.217
43443W        W 4897  10.785  17.572  11.594
43444W        W 4898   0.941  26.577   4.285
43445W        W 4899  22.107  39.356  12.572
43446W        W 4900  36.394  38.467  12.923
43447W        W 4901  20.653  22.102  12.882
43448W        W 4902  33.973  23.677   4.653
43449W        W 4903  13.769  25.079   4.304
43450W        W 4904   5.720  44.924  13.462
43451W        W 4905  25.155  21.250   1.795
43452W        W 4906  44.940  42.446   0.796
43453W        W 4907  17.609  17.070  12.969
43454W        W 4908  39.492  39.056  11.385
43455W        W 4909   7.799  40.970  12.943
43456W        W 4910  33.517  41.818   0.876
43457W        W 4911  31.122  27.980  14.344
43458W        W 4912   7.722  25.125   3.383
43459W        W 4913  26.656  15.223   4.116
43460W        W 4914   8.193   0.332   3.870
43461W        W 4915  39.888   8.701  12.018
43462W        W 4916   7.414  30.055   2.409
43463W        W 4917  12.777  27.623  13.507
43464W        W 4918  30.655  35.956   1.231
43465W        W 4919  10.227  40.525   2.306
43466W        W 4920  29.963  25.506  11.373
43467W        W 4921  43.442  37.969  13.031
43468W        W 4922  10.369  24.147   0.930
43469W        W 4923  27.595  22.064   5.267
43470W        W 4924  35.086  41.923   1.263
43471W        W 4925  20.238  44.915  12.954
43472W        W 4926  27.006  15.683  13.034
43473W        W 4927  30.107  29.559   3.705
43474W        W 4928   6.824  40.322   1.817
43475W        W 4929  23.026  44.475  12.900
43476W        W 4930  28.076  17.753  14.929
43477W        W 4931  26.185  31.579  12.428
43478W        W 4932  19.642  44.283  11.415
43479W        W 4933   0.405  30.513   2.202
43480W        W 4934  15.659  34.966   4.831
43481W        W 4935  12.182  31.456   3.322
43482W        W 4936  44.881  20.184  11.383
43483W        W 4937  31.909  12.127  12.981
43484W        W 4938  29.670  37.567  11.491
43485W        W 4939   1.974   3.899  14.382
43486W        W 4940  31.016  17.723   2.358
43487W        W 4941   0.774   8.763   5.290
43488W        W 4942  31.500  21.141   4.141
43489W        W 4943  15.092  20.707  14.407
43490W        W 4944   1.947   3.780  14.031
43491W        W 4945   4.302  32.633  11.548
43492W        W 4946   3.872   0.842  14.005
43493W        W 4947  34.380  19.628  14.503
43494W        W 4948  28.968  24.118  10.973
43495W        W 4949  28.660  26.562   0.415
43496W        W 4950  34.403  36.459   2.229
43497W        W 4951   6.813  17.779   2.854
43498W        W 4952   8.184  31.010  14.920
43499W        W 4953  26.638   4.436   0.962
43500W        W 4954  30.559  29.006   0.395
43501W        W 4955  26.953  35.903   3.787
43502W        W 4956   6.703   5.772  10.982
43503W        W 4957   6.773  36.382   1.438
43504W        W 4958   6.700  32.900  14.886
43505W        W 4959   6.772   9.283   2.807
43506W        W 4960  16.094  38.872   2.355
43507W        W 4961  17.238   1.960  14.789
43508W        W 4962  37.999   2.241  11.863
43509W        W 4963   4.448  16.694  12.559
43510W        W 4964  39.907  28.562  11.904
43511W        W 4965   4.838  28.082  14.292
43512W        W 4966  15.608  29.977  11.382
43513W        W 4967  16.254  19.141  12.004
43514W        W 4968  41.433  28.088  11.997
43515W        W 4969  24.538  11.676  11.879
43516W        W 4970   2.443  29.593  13.887
43517W        W 4971  25.107  19.149  11.976
43518W        W 4972  24.559  21.603  14.462
43519W        W 4973   3.253  26.557  14.785
43520W        W 4974  15.707  32.046   4.121
43521W        W 4975  14.729   7.204  14.847
43522W        W 4976   2.873   5.284  14.997
43523W        W 4977   6.426   4.450  12.413
43524W        W 4978   9.317  33.896   1.735
43525W        W 4979  39.325   2.409  11.070
43526W        W 4980  15.325  14.317  12.081
43527W        W 4981   4.846  42.422  10.537
43528W        W 4982  28.062  28.983   4.693
43529W        W 4983  26.045  12.809  10.613
43530W        W 4984  14.259  15.271   0.945
43531W        W 4985  27.002  12.157  11.376
43532W        W 4986  43.484  20.100   4.198
43533W        W 4987   8.762   7.809   4.240
43534W        W 4988  16.620  29.060  11.578
43535W        W 4989  43.469  18.595   3.704
43536W        W 4990  21.127  14.329  14.343
43537W        W 4991   5.339  40.486   3.656
43538W        W 4992   0.754   1.947   1.777
43539W        W 4993  33.118  38.433  10.921
43540W        W 4994  41.023  17.710   2.195
43541W        W 4995   1.956  41.326  11.053
43542W        W 4996  12.768  15.626   3.814
43543W        W 4997  28.586   0.902  13.528
43544W        W 4998  16.666  31.401   1.743
43545W        W 4999  31.545  26.031  11.592
43546W        W 5000  27.011   9.747  11.039
43547W        W 5001  44.963  40.940   0.446
43548W        W 5002  15.288  21.167   1.448
43549W        W 5003  27.616  42.470   1.785
43550W        W 5004  38.534  24.600   0.311
43551W        W 5005  39.835  31.461   0.752
43552W        W 5006  27.111  27.636   1.935
43553W        W 5007  30.615  44.856  13.886
43554W        W 5008  23.026  21.694   4.273
43555W        W 5009  23.045  35.027   4.187
43556W        W 5010  14.821  27.543   4.210
43557W        W 5011   7.668  36.576   4.752
43558W        W 5012  43.980   8.176  13.854
43559W        W 5013  44.444  33.032   4.604
43560W        W 5014   5.412  26.137   3.771
43561W        W 5015  12.176  42.949  10.523
43562W        W 5016  36.091  43.013   0.364
43563W        W 5017  39.829  20.607  12.450
43564W        W 5018  42.802   9.296   0.293
43565W        W 5019  14.742  10.219  12.939
43566W        W 5020   2.293  27.996   5.207
43567W        W 5021  17.781  32.041   1.306
43568W        W 5022  28.010  12.828   9.972
43569W        W 5023  39.033  32.973  14.320
43570W        W 5024   1.427   3.455  13.400
43571W        W 5025  38.908  13.187   1.387
43572W        W 5026  40.946   8.285   4.772
43573W        W 5027  18.732  17.116   1.911
43574W        W 5028  42.455  23.493   2.206
43575W        W 5029  37.561  42.010   2.665
43576W        W 5030  34.062  44.907   3.286
43577W        W 5031  17.789  12.261   3.356
43578W        W 5032  41.315   4.326  10.958
43579W        W 5033  30.597   3.222   0.354
43580W        W 5034  13.265  16.156  12.575
43581W        W 5035  32.108  41.936  12.945
43582W        W 5036   9.708   6.847  13.473
43583W        W 5037  20.757  41.021  13.529
43584W        W 5038  26.557  18.612  11.474
43585W        W 5039  17.622   8.680   0.334
43586W        W 5040  20.558  13.600   3.753
43587W        W 5041   5.410  19.663   4.820
43588W        W 5042  19.629   0.744  14.928
43589W        W 5043  23.227  34.102  14.497
43590W        W 5044  32.419  18.618   4.250
43591W        W 5045   9.321  40.428   3.868
43592W        W 5046  24.054  32.474   2.391
43593W        W 5047  31.935  43.974   3.803
43594W        W 5048  18.720  24.082   3.649
43595W        W 5049  18.641  23.622   4.734
43596W        W 5050  28.048  29.661   0.400
43597W        W 5051  39.053   2.228  14.835
43598W        W 5052  31.931  22.090  13.866
43599W        W 5053   3.819   1.897   4.253
43600W        W 5054  38.046  33.528   2.764
43601W        W 5055  36.945  40.393  12.944
43602W        W 5056  15.153  22.569   2.679
43603W        W 5057  39.550  16.072   3.186
43604W        W 5058  40.037  17.735  14.405
43605W        W 5059  11.173   6.916  11.510
43606W        W 5060  40.464  37.373  14.415
43607W        W 5061  26.068   8.828  14.867
43608W        W 5062  17.618   6.218  13.938
43609W        W 5063   9.740  10.781   4.752
43610W        W 5064  12.679  33.589   0.333
43611W        W 5065  24.699  23.126   3.235
43612W        W 5066  26.626  14.679  12.438
43613W        W 5067  28.499  42.469  13.475
43614W        W 5068  10.296  38.423  14.899
43615W        W 5069  25.089   3.318   5.604
43616W        W 5070  37.432  27.150   1.420
43617W        W 5071  39.418  13.283   3.808
43618W        W 5072   3.455  34.952   0.340
43619W        W 5073   1.376   8.689  11.599
43620W        W 5074   9.844  39.469   4.177
43621W        W 5075  19.200   1.323   1.797
43622W        W 5076  40.451  36.432  13.000
43623W        W 5077  10.202   1.474  14.867
43624W        W 5078   8.879  22.176  12.931
43625W        W 5079  24.645   2.852  11.965
43626W        W 5080  44.435   0.815  10.458
43627W        W 5081  16.287  37.527   0.245
43628W        W 5082  34.921  40.392  14.509
43629W        W 5083  34.393  14.223  12.561
43630W        W 5084  33.020   8.226  12.929
43631W        W 5085  34.574   8.270   1.266
43632W        W 5086  19.773  19.271  12.417
43633W        W 5087  33.619  41.407   2.230
43634W        W 5088  39.318   1.285   0.790
43635W        W 5089  42.472  29.142  12.350
43636W        W 5090  17.250  28.019  11.442
43637W        W 5091   7.910   7.305   3.640
43638W        W 5092  41.518  25.671  11.990
43639W        W 5093  26.530  29.624   2.397
43640W        W 5094  35.987  18.222   4.686
43641W        W 5095  29.569  20.589   0.270
43642W        W 5096  29.133  13.700  12.553
43643W        W 5097  42.451  33.509   4.647
43644W        W 5098  43.464  12.671   2.386
43645W        W 5099  38.824   5.717  12.928
43646W        W 5100  42.875   9.888   1.347
43647W        W 5101  34.532  16.799   4.751
43648W        W 5102  11.334  35.578   3.850
43649W        W 5103  12.717  43.283   4.808
43650W        W 5104  31.613  18.237   1.212
43651W        W 5105  44.862  21.573   3.802
43652W        W 5106  14.128   4.821   1.401
43653W        W 5107  19.179  14.826   3.344
43654W        W 5108  23.492  12.307   1.786
43655W        W 5109  29.953   8.861  12.027
43656W        W 5110  20.218  35.888  12.844
43657W        W 5111  18.114  14.673  13.010
43658W        W 5112   5.344  41.528   2.343
43659W        W 5113   4.925  27.983   4.629
43660W        W 5114  35.565  14.592   2.187
43661W        W 5115  27.054  26.505   0.304
43662W        W 5116  44.998  22.658  14.427
43663W        W 5117   7.799  39.546   4.297
43664W        W 5118   5.820   5.408  12.380
43665W        W 5119  36.013   9.836  12.415
43666W        W 5120   2.916  29.469  10.932
43667W        W 5121  43.489  30.637   3.207
43668W        W 5122  44.373  24.083  10.449
43669W        W 5123  27.481   1.835  11.391
43670W        W 5124  14.662  43.897   4.231
43671W        W 5125   7.846   5.326   4.251
43672W        W 5126  25.684  24.049   2.835
43673W        W 5127  20.758  13.804   3.210
43674W        W 5128  32.469  40.821   3.369
43675W        W 5129  14.298  26.519  11.473
43676W        W 5130  16.587  31.091   4.183
43677W        W 5131  27.643  33.929   3.158
43678W        W 5132   7.736  17.145   0.374
43679W        W 5133  28.018   4.220  10.568
43680W        W 5134   1.255  16.756   2.295
43681W        W 5135  42.318  35.543  10.491
43682W        W 5136  23.586  41.404  10.989
43683W        W 5137   8.685  37.574   0.944
43684W        W 5138  37.977   3.401   1.873
43685W        W 5139  43.927  23.714  11.532
43686W        W 5140   5.316  10.800  12.868
43687W        W 5141  42.290  22.505  11.580
43688W        W 5142  43.411  35.889   1.860
43689W        W 5143   9.346   9.688   0.436
43690W        W 5144  15.202  19.744   4.812
43691W        W 5145  27.057  32.560  11.490
43692W        W 5146   8.794  31.641  11.014
43693W        W 5147  23.599  31.992   1.310
43694W        W 5148   9.883  31.632  12.031
43695W        W 5149  35.085   9.704   1.744
43696W        W 5150  26.526  35.944  13.038
43697W        W 5151  11.847  42.281  13.861
43698W        W 5152  36.981  30.637   2.861
43699W        W 5153  43.850  30.054  11.560
43700W        W 5154  25.699  29.616   2.841
43701W        W 5155  31.955  21.058  11.570
43702W        W 5156   7.192   3.236   3.272
43703W        W 5157   0.915   5.756  10.936
43704W        W 5158  39.457  13.335   0.968
43705W        W 5159  41.992  27.171  12.095
43706W        W 5160   2.806  29.444  14.443
43707W        W 5161   3.428  19.058   1.357
43708W        W 5162   7.393   9.709   1.265
43709W        W 5163  34.609  39.362   0.374
43710W        W 5164  25.048   7.906   0.373
43711W        W 5165  19.279  39.401   3.667
43712W        W 5166   3.249  43.864  13.506
43713W        W 5167  15.090  29.147  13.997
43714W        W 5168  39.523  18.790   2.371
43715W        W 5169   0.350  12.334   2.283
43716W        W 5170  19.647  26.556  14.361
43717W        W 5171  39.869  23.106  12.005
43718W        W 5172   1.803  36.461   3.329
43719W        W 5173  32.618  15.761  12.971
43720W        W 5174  16.315  43.950  10.949
43721W        W 5175  15.304  17.216  12.541
43722W        W 5176   3.386  40.811  13.049
43723W        W 5177  31.933  16.134   0.332
43724W        W 5178  25.200  42.478   1.439
43725W        W 5179   4.314  26.996   4.732
43726W        W 5180  39.537  38.979   1.398
43727W        W 5181  17.578  11.162  12.340
43728W        W 5182   7.853  34.415   3.807
43729W        W 5183  25.622  11.366  10.441
43730W        W 5184  12.155   2.808   0.894
43731W        W 5185  11.846   2.284  14.773
43732W        W 5186  32.918   4.237  14.302
43733W        W 5187  22.233  12.786   3.787
43734W        W 5188   3.890  35.417  12.348
43735W        W 5189  13.765  34.052   4.736
43736W        W 5190  22.130  16.109  14.505
43737W        W 5191  30.971  28.510   3.194
43738W        W 5192  42.934  43.297  11.049
43739W        W 5193  42.342   3.351   2.748
43740W        W 5194  42.821  32.477   4.260
43741W        W 5195  32.006   7.755   3.193
43742W        W 5196  20.196   0.385   2.406
43743W        W 5197  14.810  33.382   3.258
43744W        W 5198  16.263  39.926   9.649
43745W        W 5199  43.438  21.530  14.914
43746W        W 5200  40.396  44.785  14.504
43747W        W 5201   6.883  43.499  13.356
43748W        W 5202  29.998  42.858   0.481
43749W        W 5203  23.648  16.141  10.983
43750W        W 5204  37.341   4.814  13.997
43751W        W 5205  19.236  17.293  10.921
43752W        W 5206  42.499  26.659   2.754
43753W        W 5207  34.096   5.693   2.739
43754W        W 5208  43.472  44.822  13.369
43755W        W 5209   4.863   3.844   0.950
43756W        W 5210  13.838  23.608   3.229
43757W        W 5211  13.652  38.850   4.264
43758W        W 5212   6.349  44.376   2.355
43759W        W 5213   4.888  40.048  14.876
43760W        W 5214   4.285   1.350   1.362
43761W        W 5215  18.698  14.289   4.801
43762W        W 5216  32.586   9.240   4.269
43763W        W 5217  11.736  40.977  12.024
43764W        W 5218  24.108  31.544  10.588
43765W        W 5219   7.865  44.951  13.538
43766W        W 5220  30.918   5.745   0.922
43767W        W 5221  34.003  13.604   9.495
43768W        W 5222  22.501  39.398  13.914
43769W        W 5223  15.294   2.743  14.499
43770W        W 5224  31.407   1.449  14.904
43771W        W 5225  33.396  12.669   3.709
43772W        W 5226  16.659  28.589   1.808
43773W        W 5227  23.522  30.949   3.663
43774W        W 5228  24.620   3.327   3.332
43775W        W 5229  34.997  20.668   3.320
43776W        W 5230   2.428  20.238   0.846
43777W        W 5231  26.456  12.322   1.213
43778W        W 5232  26.625  36.577   2.689
43779W        W 5233  39.511  33.960  13.894
43780W        W 5234  39.941  27.082   2.253
43781W        W 5235  17.728  15.725   2.818
43782W        W 5236  24.097  40.827  14.358
43783W        W 5237  37.506  29.061  12.844
43784W        W 5238  43.508   0.930  14.440
43785W        W 5239  14.183  39.406   3.795
43786W        W 5240   2.725  27.041  14.505
43787W        W 5241  12.201  12.857  12.457
43788W        W 5242   0.971  44.280  12.051
43789W        W 5243   4.945  26.604  10.488
43790W        W 5244  43.339  33.083   2.186
43791W        W 5245  29.000  42.504  14.318
43792W        W 5246  10.331  38.005   4.665
43793W        W 5247  43.838  33.515   4.695
43794W        W 5248  22.229  17.230  14.975
43795W        W 5249  39.361  22.235  14.977
43796W        W 5250  25.033   8.202  12.905
43797W        W 5251  44.877  42.311  10.926
43798W        W 5252  41.974  33.109  13.384
43799W        W 5253  11.169  14.181  11.434
43800W        W 5254  13.111   7.862  14.843
43801W        W 5255  11.359  24.108  13.842
43802W        W 5256   5.761  16.072   2.699
43803W        W 5257  29.593  26.063  12.519
43804W        W 5258  18.577  10.341   5.143
43805W        W 5259  24.125   5.227  14.504
43806W        W 5260  19.563   0.809   0.756
43807W        W 5261  12.696  31.402   4.645
43808W        W 5262  38.559  28.560  13.868
43809W        W 5263  23.570  37.448   0.260
43810W        W 5264  37.431  39.045   3.216
43811W        W 5265  33.575  38.360  14.390
43812W        W 5266   6.689  40.918   4.121
43813W        W 5267  18.262  44.957   1.783
43814W        W 5268  32.428  17.290   2.704
43815W        W 5269  40.810  26.127   4.816
43816W        W 5270  34.578  33.923   1.897
43817W        W 5271  43.507  12.684   1.775
43818W        W 5272  42.980  21.054   0.877
43819W        W 5273  22.090  13.714   2.710
43820W        W 5274  43.422  10.655   1.328
43821W        W 5275  24.548  36.554  12.423
43822W        W 5276  15.633  40.530   4.739
43823W        W 5277  12.837   3.898   4.338
43824W        W 5278  26.975  19.643   1.400
43825W        W 5279   7.711  16.250   1.309
43826W        W 5280   7.764  39.460   0.412
43827W        W 5281  37.516  37.397  10.116
43828W        W 5282  27.146  22.241  12.913
43829W        W 5283  28.501   8.366   4.277
43830W        W 5284  28.952  15.711   1.312
43831W        W 5285  18.287  21.137  11.951
43832W        W 5286   8.371  30.610   0.900
43833W        W 5287  27.671  21.663  13.960
43834W        W 5288   4.227   5.814   3.697
43835W        W 5289  13.833  33.414   0.387
43836W        W 5290  32.404  13.228  13.983
43837W        W 5291  17.787  40.893  12.518
43838W        W 5292  11.316  38.822  14.768
43839W        W 5293  13.776   0.333   0.856
43840W        W 5294  11.372  20.588  13.841
43841W        W 5295  25.615  12.265  13.975
43842W        W 5296  27.023  31.635   5.101
43843W        W 5297  13.610  41.029   0.735
43844W        W 5298   4.763  31.605  11.098
43845W        W 5299  19.162  29.980  11.526
43846W        W 5300   9.378   0.981   0.422
43847W        W 5301  43.993  12.210   2.714
43848W        W 5302  11.860  26.555  12.464
43849W        W 5303  31.442  11.627  11.971
43850W        W 5304  23.579  33.382  12.025
43851W        W 5305   6.769  27.958  13.879
43852W        W 5306  26.605  43.017  12.977
43853W        W 5307  41.389  21.539  10.427
43854W        W 5308  21.018  40.847  13.801
43855W        W 5309  38.338  41.811  11.115
43856W        W 5310   9.153  25.022  12.556
43857W        W 5311  20.635  24.162  14.975
43858W        W 5312  20.207   7.406   2.667
43859W        W 5313  40.831  44.833  11.060
43860W        W 5314   1.427  27.041   1.704
43861W        W 5315  42.939  32.497   3.812
43862W        W 5316   4.789  15.236   1.360
43863W        W 5317  21.116   1.835   1.830
43864W        W 5318  28.665  35.523  11.073
43865W        W 5319  11.246  29.069   2.296
43866W        W 5320  34.909  22.102  14.809
43867W        W 5321   3.231  24.079  14.795
43868W        W 5322  27.170  44.813   3.637
43869W        W 5323  11.774  28.136  11.538
43870W        W 5324   6.783  28.453  12.014
43871W        W 5325  24.988   8.214   3.787
43872W        W 5326  19.702   3.320  12.920
43873W        W 5327  43.358  20.545  14.943
43874W        W 5328  23.568  16.612   1.885
43875W        W 5329  40.953  10.321   0.842
43876W        W 5330  35.997   7.352   0.726
43877W        W 5331  36.567  32.973  11.076
43878W        W 5332   9.310  34.614   1.446
43879W        W 5333  33.624  40.510   5.172
43880W        W 5334  21.031  28.571   2.414
43881W        W 5335  18.723  38.880  13.343
43882W        W 5336  36.096   9.192  11.592
43883W        W 5337  16.288  35.869   2.337
43884W        W 5338  34.997  16.114  12.865
43885W        W 5339  26.527  16.136  10.929
43886W        W 5340  28.661   0.430   5.167
43887W        W 5341  37.848  36.883   9.933
43888W        W 5342  14.664   2.245  11.057
43889W        W 5343   5.310  36.919  13.373
43890W        W 5344  24.523  34.435   4.766
43891W        W 5345  44.893  43.307  14.503
43892W        W 5346  43.891  14.630   4.320
43893W        W 5347  20.264  35.872   3.698
43894W        W 5348   2.283  11.681  11.916
43895W        W 5349   0.390  37.976  11.456
43896W        W 5350  30.979  12.771   5.100
43897W        W 5351  15.231  42.996   0.900
43898W        W 5352  42.846  11.372  14.440
43899W        W 5353  40.398  15.803   1.785
43900W        W 5354   8.818  10.877  14.017
43901W        W 5355   3.923  27.050  13.819
43902W        W 5356  21.711   7.684   0.811
43903W        W 5357   9.377  41.321   3.647
43904W        W 5358  34.545  18.723   2.668
43905W        W 5359   3.724   5.428  14.848
43906W        W 5360  28.546  37.972  12.512
43907W        W 5361   6.381  42.282  14.333
43908W        W 5362  32.608  20.724   0.757
43909W        W 5363   2.357   7.844  13.528
43910W        W 5364  39.325   5.801   3.164
43911W        W 5365  39.850  18.253  13.802
43912W        W 5366  41.833  29.946   1.849
43913W        W 5367  22.106  27.981  10.577
43914W        W 5368  10.804  24.005   3.179
43915W        W 5369  32.916  21.556  11.416
43916W        W 5370   3.318  39.325   3.751
43917W        W 5371   2.744  40.869   1.862
43918W        W 5372  41.015  42.514  12.091
43919W        W 5373  10.230   5.696   5.244
43920W        W 5374  34.565   6.717  13.906
43921W        W 5375  38.968   1.851   1.710
43922W        W 5376  43.353   9.382  11.012
43923W        W 5377   2.338  23.651   4.663
43924W        W 5378  11.244  32.982   3.297
43925W        W 5379  34.913   3.812  10.591
43926W        W 5380  18.077  38.526  11.117
43927W        W 5381   1.765  38.415  11.993
43928W        W 5382  25.144   4.749   0.480
43929W        W 5383  33.427  14.175   3.358
43930W        W 5384  12.138  23.041   2.292
43931W        W 5385  42.843  10.833   1.733
43932W        W 5386  12.334  38.481   3.827
43933W        W 5387   8.895  34.450  13.913
43934W        W 5388  12.344  30.084   1.864
43935W        W 5389  10.225  43.937   1.349
43936W        W 5390  15.788  34.580   3.309
43937W        W 5391   1.944  17.271   1.751
43938W        W 5392  26.660  28.125  12.552
43939W        W 5393   1.253  42.006   4.267
43940W        W 5394  23.612  29.645  12.079
43941W        W 5395  39.934  39.891  11.499
43942W        W 5396   6.406  31.606  10.989
43943W        W 5397  32.901  29.051   3.175
43944W        W 5398   9.254  22.006   1.421
43945W        W 5399  31.460  15.141  14.474
43946W        W 5400  12.844   1.418  10.488
43947W        W 5401  41.312  13.218  12.960
43948W        W 5402  16.682  15.210   3.150
43949W        W 5403  38.856  10.805   4.178
43950W        W 5404  31.991  24.585  12.088
43951W        W 5405  12.259  41.367  11.593
43952W        W 5406   9.164  35.555   2.204
43953W        W 5407  13.783  13.207  10.568
43954W        W 5408  36.890  29.113   2.218
43955W        W 5409  14.138  11.182  12.460
43956W        W 5410  41.957   8.163   3.289
43957W        W 5411   1.827  37.021  10.928
43958W        W 5412  41.921  23.721  12.850
43959W        W 5413  17.601  35.045   0.463
43960W        W 5414  39.525   4.319  14.023
43961W        W 5415  10.754  40.364  14.970
43962W        W 5416  30.590  13.209   1.421
43963W        W 5417  18.140  30.162  13.367
43964W        W 5418  40.031   2.805   4.823
43965W        W 5419   9.769  16.591   0.893
43966W        W 5420  43.370  38.833  14.914
43967W        W 5421  38.353  18.603   0.461
43968W        W 5422  30.076   4.933   1.433
43969W        W 5423  41.503   0.480   3.678
43970W        W 5424  42.872  44.930  13.864
43971W        W 5425  13.751  18.603  14.936
43972W        W 5426  44.797  40.004  13.966
43973W        W 5427  24.719  25.991   0.827
43974W        W 5428  32.499  31.032  12.085
43975W        W 5429  22.579  14.153   4.226
43976W        W 5430  13.770  18.114   0.353
43977W        W 5431  24.668  32.012  10.914
43978W        W 5432  37.549  21.548  12.410
43979W        W 5433  18.588   5.759   1.701
43980W        W 5434  34.964  44.390   1.771
43981W        W 5435  10.823  37.980  13.048
43982W        W 5436  24.020   2.322   1.857
43983W        W 5437   9.867  16.594   1.248
43984W        W 5438  44.393  21.095   3.650
43985W        W 5439  25.129  18.130   1.858
43986W        W 5440   4.346   8.822   4.151
43987W        W 5441   2.915  10.804  11.935
43988W        W 5442   6.681  38.370   4.639
43989W        W 5443  31.437  27.592  12.463
43990W        W 5444   9.152  14.834   4.666
43991W        W 5445   3.908  37.852   0.405
43992W        W 5446  11.658  34.030  11.948
43993W        W 5447  20.741  34.028   2.256
43994W        W 5448   3.268   9.209  11.964
43995W        W 5449  26.206  16.772   4.666
43996W        W 5450  43.807  20.063   4.149
43997W        W 5451   6.375  25.647  14.942
43998W        W 5452  35.987  13.290   1.721
43999W        W 5453  29.027  43.508  11.036
44000W        W 5454   0.486   7.720   1.865
44001W        W 5455   9.239  16.759   0.757
44002W        W 5456   9.706  40.531   0.918
44003W        W 5457  36.471  18.768   2.415
44004W        W 5458  30.464   5.230  13.405
44005W        W 5459  30.106  24.192  11.374
44006W        W 5460  36.517  27.093  14.989
44007W        W 5461  15.640  25.674  11.440
44008W        W 5462  36.040  18.776  14.905
44009W        W 5463  22.629  28.974  14.026
44010W        W 5464  24.152   1.248  13.383
44011W        W 5465   4.744   7.214   1.375
44012W        W 5466  28.635  18.190   1.846
44013W        W 5467   7.331  29.929   3.689
44014W        W 5468  15.136  22.574  11.954
44015W        W 5469   1.757  39.483   3.799
44016W        W 5470  30.566  39.038  10.479
44017W        W 5471   8.199  28.498  12.951
44018W        W 5472  10.151  10.163  14.954
44019W        W 5473   4.753   4.425  13.871
44020W        W 5474  12.177   1.432   0.898
44021W        W 5475  36.387  23.226  11.547
44022W        W 5476  43.894  24.052  11.060
44023W        W 5477  21.593  22.734  13.817
44024W        W 5478   2.837  27.168  12.482
44025W        W 5479  16.224  41.376   0.818
44026W        W 5480  34.546  44.310   2.310
44027W        W 5481  37.950  25.146  14.493
44028W        W 5482  42.883   2.769  13.897
44029W        W 5483  29.504  35.448   0.454
44030W        W 5484   9.643  44.981   2.293
44031W        W 5485  38.890  41.958  10.447
44032W        W 5486  35.374  10.307   3.171
44033W        W 5487  15.763  10.789   1.706
44034W        W 5488  44.851  32.424   2.340
44035W        W 5489  10.262  27.484  11.896
44036W        W 5490  23.097  14.259  11.568
44037W        W 5491  11.755  42.800   0.902
44038W        W 5492  11.135   0.260   1.396
44039W        W 5493  40.965  22.109   4.703
44040W        W 5494  41.508  12.789   3.820
44041W        W 5495  36.997  15.228  10.621
44042W        W 5496  28.678  32.636   9.526
44043W        W 5497  17.771  35.593  12.543
44044W        W 5498   2.848   3.746   4.239
44045W        W 5499  16.281  32.555   0.280
44046W        W 5500   7.722  25.206   2.316
44047W        W 5501   4.809  11.219   0.255
44048W        W 5502   1.757   0.468   3.196
44049W        W 5503  40.935  10.351  11.863
44050W        W 5504  35.552  20.753   4.658
44051W        W 5505  20.042  20.552   3.738
44052W        W 5506   4.745  34.997   0.418
44053W        W 5507  24.604  12.254   1.282
44054W        W 5508  17.255  18.099  11.009
44055W        W 5509   1.740  15.313  11.520
44056W        W 5510   7.380  24.139  11.861
44057W        W 5511   0.896  21.034   0.423
44058W        W 5512   1.385  18.648   2.707
44059W        W 5513  30.605  18.252  12.349
44060W        W 5514  10.153   7.238   3.773
44061W        W 5515   0.872   1.943  13.512
44062W        W 5516  17.614  42.924  10.498
44063W        W 5517  18.572  11.816  12.498
44064W        W 5518  19.172  21.207   4.284
44065W        W 5519  14.094   4.914  11.472
44066W        W 5520   7.870  44.313   1.268
44067W        W 5521  20.529  32.608  10.933
44068W        W 5522  24.582  33.926   4.336
44069W        W 5523   0.405  42.786   4.216
44070W        W 5524   9.218  19.640   3.759
44071W        W 5525  38.968   7.851  11.016
44072W        W 5526  38.958  32.885   3.828
44073W        W 5527  22.640  39.871   0.451
44074W        W 5528   1.268   1.275  11.959
44075W        W 5529  44.878  27.633  11.105
44076W        W 5530  32.889  24.517  13.391
44077W        W 5531  32.999  43.353  14.298
44078W        W 5532   8.785  38.892   4.638
44079W        W 5533  39.538  25.056   0.299
44080W        W 5534  42.389  40.909   1.413
44081W        W 5535  21.047  22.010   0.914
44082W        W 5536  32.457  20.222  14.474
44083W        W 5537  36.575  11.359  11.513
44084W        W 5538  16.798  38.409  11.526
44085W        W 5539  18.283  14.098  14.863
44086W        W 5540   0.949  36.882   2.745
44087W        W 5541  21.079  30.553  11.500
44088W        W 5542  13.798  42.895  13.502
44089W        W 5543  22.037  14.775   4.236
44090W        W 5544  20.569  25.492  14.000
44091W        W 5545  32.409   9.860  11.516
44092W        W 5546  31.106   8.860   2.198
44093W        W 5547  40.480  39.387   4.179
44094W        W 5548  29.982  28.641  11.448
44095W        W 5549  15.738  39.531   3.352
44096W        W 5550  30.567  13.778  14.865
44097W        W 5551  37.917   9.187  14.977
44098W        W 5552  13.766  22.523  14.890
44099W        W 5553   1.249  12.853   3.848
44100W        W 5554  24.066  40.309  13.979
44101W        W 5555   4.708  19.158  13.022
44102W        W 5556  33.501  21.119   3.792
44103W        W 5557  21.655  12.272   4.315
44104W        W 5558  39.411  33.109   2.692
44105W        W 5559  31.934  15.099   0.838
44106W        W 5560  30.433  24.487   0.940
44107W        W 5561  20.054  39.020   2.710
44108W        W 5562  23.193  26.476  10.025
44109W        W 5563  18.780   0.282  13.489
44110W        W 5564   4.871   7.388   4.318
44111W        W 5565  42.424  13.839   4.217
44112W        W 5566  24.994  37.382   3.728
44113W        W 5567   1.795  18.628  11.996
44114W        W 5568   7.844  25.607  11.078
44115W        W 5569  15.593  30.933   0.764
44116W        W 5570  22.160  32.925  11.926
44117W        W 5571   8.233  13.114   2.709
44118W        W 5572  14.223  43.972  13.806
44119W        W 5573  20.067  44.264   1.830
44120W        W 5574   2.263  32.047   1.217
44121W        W 5575   2.278   7.395   2.816
44122W        W 5576   9.723   8.380  13.462
44123W        W 5577   5.700   0.433   3.807
44124W        W 5578  38.835  37.950  13.519
44125W        W 5579   6.412  24.148  11.075
44126W        W 5580   7.898  18.262   0.399
44127W        W 5581  40.038   5.366   2.349
44128W        W 5582  12.846  24.046   0.965
44129W        W 5583   0.261  31.153   4.714
44130W        W 5584   2.732  39.499   3.232
44131W        W 5585  16.087  43.386  14.000
44132W        W 5586   6.242  11.166  13.392
44133W        W 5587  33.094   9.286   2.202
44134W        W 5588   2.414  38.876   0.280
44135W        W 5589  21.165  38.446  10.062
44136W        W 5590  34.558  42.007  14.873
44137W        W 5591   5.356  30.564  14.286
44138W        W 5592  34.460  44.827   3.703
44139W        W 5593  21.092  10.764   3.178
44140W        W 5594   0.311  37.335   1.766
44141W        W 5595  13.704  26.073  14.994
44142W        W 5596  42.386   4.407   2.695
44143W        W 5597  16.737  41.850   1.302
44144W        W 5598  17.647   6.676   4.172
44145W        W 5599  20.234   5.846  13.807
44146W        W 5600  11.183  10.168   1.244
44147W        W 5601  35.547   7.794  11.923
44148W        W 5602  40.417  39.941  13.998
44149W        W 5603  29.922  21.606  12.061
44150W        W 5604  21.087  41.453   1.357
44151W        W 5605  18.711  44.825  14.416
44152W        W 5606  23.710  28.647   0.372
44153W        W 5607   3.801  23.238  14.969
44154W        W 5608  40.952  17.556   0.932
44155W        W 5609  27.673  14.824   3.704
44156W        W 5610   9.254  30.418  14.901
44157W        W 5611  24.517  29.972   3.255
44158W        W 5612  33.999  34.531   2.873
44159W        W 5613  24.050  24.555   2.832
44160W        W 5614  37.836  26.027   4.765
44161W        W 5615   7.183  23.518   3.718
44162W        W 5616  16.758  14.781  10.618
44163W        W 5617  23.506  44.419  11.476
44164W        W 5618  34.078  36.961   2.707
44165W        W 5619  10.665  42.938   0.754
44166W        W 5620   9.265  13.605   1.922
44167W        W 5621  13.618  17.610   2.837
44168W        W 5622  12.163  43.926   3.680
44169W        W 5623  23.019  36.438   1.345
44170W        W 5624  32.961  27.018  11.069
44171W        W 5625  43.872  35.368   3.159
44172W        W 5626  22.091  23.180   1.910
44173W        W 5627  30.117  20.173  13.810
44174W        W 5628   6.892  28.943   4.767
44175W        W 5629  44.945  10.756   1.249
44176W        W 5630  38.982  19.179  13.370
44177W        W 5631   3.393  32.142  10.990
44178W        W 5632   6.233  30.578   3.381
44179W        W 5633  37.368  38.833  14.430
44180W        W 5634  10.670  29.996   4.120
44181W        W 5635  21.713  40.020  13.458
44182W        W 5636   3.878  24.221  14.307
44183W        W 5637  23.056  14.232   2.766
44184W        W 5638   1.481  37.991   0.483
44185W        W 5639  38.366  39.974   9.981
44186W        W 5640  25.110  20.762  13.419
44187W        W 5641  29.658   2.345   0.454
44188W        W 5642  29.529  27.084   0.746
44189W        W 5643  35.074  30.047  11.017
44190W        W 5644  28.955   1.343  13.027
44191W        W 5645  35.987  31.904  14.758
44192W        W 5646  36.416  41.924  14.410
44193W        W 5647  11.356  33.522  11.005
44194W        W 5648   6.228  37.035   3.357
44195W        W 5649  22.154  32.409  13.013
44196W        W 5650  30.114  31.499   2.385
44197W        W 5651  41.886  31.638  13.383
44198W        W 5652  12.259  31.577  13.036
44199W        W 5653   8.290  35.547   1.892
44200W        W 5654  29.093   5.923  12.428
44201W        W 5655  17.690   9.702   1.719
44202W        W 5656  13.130  43.487   1.422
44203W        W 5657  20.540  40.817  14.493
44204W        W 5658  13.112  43.951  13.947
44205W        W 5659  12.767  35.986  11.547
44206W        W 5660   8.207   1.883   4.269
44207W        W 5661   5.746  44.818   4.190
44208W        W 5662  27.953  11.640  10.076
44209W        W 5663  10.234  31.596   2.253
44210W        W 5664  35.043  37.427   3.171
44211W        W 5665  12.222  43.434  13.425
44212W        W 5666  16.779  44.878   1.388
44213W        W 5667  15.723   1.427  11.031
44214W        W 5668  32.600  34.953   3.849
44215W        W 5669  40.370  25.130  13.520
44216W        W 5670  41.938   9.798  11.449
44217W        W 5671   5.240  25.547   1.803
44218W        W 5672  13.125  36.883   2.185
44219W        W 5673  28.965  14.327  12.889
44220W        W 5674  40.831  14.774  13.491
44221W        W 5675   5.275  32.048   4.682
44222W        W 5676  29.999  35.414  11.065
44223W        W 5677  25.671   4.373  14.861
44224W        W 5678   7.672   7.219   2.359
44225W        W 5679   8.278   5.298   0.954
44226W        W 5680  30.596   4.916   0.368
44227W        W 5681  13.112  29.458   1.329
44228W        W 5682  13.767  35.095   0.780
44229W        W 5683  29.115  22.197  13.410
44230W        W 5684  17.243  17.120  13.455
44231W        W 5685  30.592   9.192  14.880
44232W        W 5686  33.486  30.037   3.148
44233W        W 5687  41.372  42.481   1.748
44234W        W 5688  19.273  30.119  13.484
44235W        W 5689  36.942   1.976   4.645
44236W        W 5690  16.596  28.045   1.851
44237W        W 5691   6.815  11.763  13.417
44238W        W 5692  33.525  12.632  11.453
44239W        W 5693  18.640  28.017  10.509
44240W        W 5694  29.545  29.663   3.714
44241W        W 5695  19.089  33.390   3.815
44242W        W 5696  32.103  26.618   4.730
44243W        W 5697  43.992  27.997  12.356
44244W        W 5698  33.556  18.219  12.970
44245W        W 5699  24.548  21.610   2.331
44246W        W 5700  31.002  44.413   4.643
44247W        W 5701   4.276  42.847   0.959
44248W        W 5702  17.133  26.952  11.091
44249W        W 5703  14.201  22.039  10.917
44250W        W 5704  29.113   4.904   3.322
44251W        W 5705  12.686  13.136  14.979
44252W        W 5706  22.602  14.681  13.503
44253W        W 5707  10.825  20.589  12.932
44254W        W 5708  14.634  31.463  14.341
44255W        W 5709   3.403  38.864   3.146
44256W        W 5710   0.833  25.001   0.459
44257W        W 5711  27.509  29.921  11.467
44258W        W 5712  39.880  29.485   0.321
44259W        W 5713  12.704  28.488   3.780
44260W        W 5714  37.832  37.393   2.343
44261W        W 5715  24.036  40.438  14.321
44262W        W 5716  43.852  12.243   1.815
44263W        W 5717  23.668   1.438   3.235
44264W        W 5718  41.331  16.221   2.731
44265W        W 5719  40.003   5.375   1.419
44266W        W 5720  29.494  40.912   4.832
44267W        W 5721  29.170   7.770  10.475
44268W        W 5722  31.985  13.672  12.052
44269W        W 5723  43.485  19.075  12.368
44270W        W 5724  18.767   7.692  14.324
44271W        W 5725  20.222  39.859  10.423
44272W        W 5726  18.656  21.118   2.214
44273W        W 5727  19.631  24.487  12.436
44274W        W 5728  17.710   0.259  14.406
44275W        W 5729  14.148   4.285   1.695
44276W        W 5730   6.802  11.752   0.292
44277W        W 5731  11.188  44.880   3.210
44278W        W 5732   8.867  32.437   3.815
44279W        W 5733  15.580  32.058   0.312
44280W        W 5734  20.267  43.492   0.368
44281W        W 5735  26.644  37.405   1.303
44282W        W 5736  18.116  15.314   3.753
44283W        W 5737  24.126  41.810  14.813
44284W        W 5738   2.937  41.292   0.839
44285W        W 5739  26.078  43.415  14.970
44286W        W 5740  12.226  22.009   1.418
44287W        W 5741  12.714   1.253   1.296
44288W        W 5742  32.912   6.718   4.671
44289W        W 5743  44.459  40.527   1.296
44290W        W 5744  32.526   4.236  14.507
44291W        W 5745   4.844  34.536  11.094
44292W        W 5746  21.618  38.995  12.407
44293W        W 5747  13.154  43.486   3.661
44294W        W 5748  23.236  11.791   1.734
44295W        W 5749  36.866  41.879  11.519
44296W        W 5750  16.085   6.210   1.219
44297W        W 5751   8.852  21.599   4.745
44298W        W 5752   7.356   1.929  11.393
44299W        W 5753  41.025  32.142  13.386
44300W        W 5754  28.955  15.766  11.511
44301W        W 5755  27.587  12.317   2.735
44302W        W 5756  26.990   2.762  11.377
44303W        W 5757   1.459  25.478  12.079
44304W        W 5758  11.706  26.652   0.855
44305W        W 5759  32.504  32.130   1.292
44306W        W 5760  38.848  21.551   1.298
44307W        W 5761  18.074  17.162  14.839
44308W        W 5762  27.020  18.137   1.756
44309W        W 5763  39.445  33.490  13.908
44310W        W 5764  24.555   5.353  10.928
44311W        W 5765  11.132  32.533  14.873
44312W        W 5766  15.649   4.893   2.257
44313W        W 5767  15.787  13.135  11.993
44314W        W 5768   3.398   1.306   3.747
44315W        W 5769  30.640  29.624   1.786
44316W        W 5770   5.249  31.484   4.211
44317W        W 5771   7.882  38.436  10.951
44318W        W 5772  25.015  32.933   2.876
44319W        W 5773   7.381  13.261  14.422
44320W        W 5774  37.944  23.576   0.944
44321W        W 5775  20.029  44.995  12.486
44322W        W 5776  44.941   9.715  12.470
44323W        W 5777  32.586  20.645   4.732
44324W        W 5778   6.871  28.002  13.376
44325W        W 5779  28.481   6.745   2.308
44326W        W 5780  31.130  15.276   1.890
44327W        W 5781  17.079  28.003   0.466
44328W        W 5782  15.259  31.589   1.298
44329W        W 5783  19.687  10.214   4.693
44330W        W 5784  33.900  21.027   4.204
44331W        W 5785  10.634  34.454   1.724
44332W        W 5786  19.068   6.184   2.808
44333W        W 5787  26.657  12.129  12.569
44334W        W 5788  43.990  36.012   2.825
44335W        W 5789   7.322  10.659  12.824
44336W        W 5790  32.427   2.751   4.711
44337W        W 5791  41.296  18.605   1.915
44338W        W 5792  24.161   8.896  11.932
44339W        W 5793  44.351  37.998   2.266
44340W        W 5794  41.415  10.640   3.729
44341W        W 5795  30.069   8.679   0.459
44342W        W 5796  13.607  19.273  11.909
44343W        W 5797  10.204  32.504  13.409
44344W        W 5798  24.723  10.641  13.469
44345W        W 5799  17.196  13.312   2.749
44346W        W 5800  14.662  10.772   0.758
44347W        W 5801  25.693  19.691  10.075
44348W        W 5802  26.522  14.283  10.973
44349W        W 5803  17.101  27.578  13.341
44350W        W 5804  36.457   7.404   0.921
44351W        W 5805  38.937   7.185   5.189
44352W        W 5806   9.372  18.057  14.411
44353W        W 5807  25.171  30.560  10.542
44354W        W 5808   9.212  23.580   1.770
44355W        W 5809  33.572  37.391   4.749
44356W        W 5810  18.117  44.895   0.261
44357W        W 5811  39.429  38.851  11.961
44358W        W 5812  42.989   6.822   2.760
44359W        W 5813  18.703  15.693  10.458
44360W        W 5814  32.597  24.694  10.497
44361W        W 5815  19.658  15.312  13.861
44362W        W 5816  22.159  36.395  12.570
44363W        W 5817  27.585  14.136  12.890
44364W        W 5818   9.756  25.709   0.767
44365W        W 5819  34.599  35.475   0.800
44366W        W 5820  15.170  41.527  11.876
44367W        W 5821  19.139  15.817  13.948
44368W        W 5822  40.501  17.672  13.432
44369W        W 5823  29.580  17.175   0.935
44370W        W 5824  34.925  25.563  12.361
44371W        W 5825  37.864  33.548   3.740
44372W        W 5826  39.886  16.707   1.871
44373W        W 5827  18.229  36.030  10.415
44374W        W 5828   5.217  25.541   2.760
44375W        W 5829  39.317  37.976   2.309
44376W        W 5830  34.435  15.134  11.429
44377W        W 5831  23.701  35.874  10.427
44378W        W 5832  25.085  44.804  14.848
44379W        W 5833  22.556   9.807  10.957
44380W        W 5834  11.750  21.664   9.437
44381W        W 5835  12.343   7.793   4.139
44382W        W 5836  44.428  39.010  12.498
44383W        W 5837  33.409   7.232   5.141
44384W        W 5838   7.262  39.516  14.415
44385W        W 5839  19.205  26.191  11.464
44386W        W 5840  44.421  28.959  11.469
44387W        W 5841  42.856  22.175   4.230
44388W        W 5842   6.852  33.584  10.983
44389W        W 5843  24.661   6.294   1.290
44390W        W 5844  36.527  33.396   5.241
44391W        W 5845  30.078  24.690  14.989
44392W        W 5846  12.852  20.256   2.180
44393W        W 5847   2.755  36.970  13.470
44394W        W 5848  15.688  24.061   2.259
44395W        W 5849   4.747  13.317   3.345
44396W        W 5850  23.119  17.636   1.779
44397W        W 5851   2.259  11.853  10.498
44398W        W 5852   7.256  12.227   3.722
44399W        W 5853  12.691  43.325  10.447
44400W        W 5854  28.542  32.413  11.882
44401W        W 5855   1.971  29.155  12.946
44402W        W 5856  30.419  36.363  14.810
44403W        W 5857  21.545   8.668   0.815
44404W        W 5858   3.303  38.465  14.872
44405W        W 5859   2.240  15.772   5.296
44406W        W 5860  11.318  35.895   3.686
44407W        W 5861   4.713  31.019   4.609
44408W        W 5862  29.136  28.452   0.254
44409W        W 5863   1.777  44.392  12.846
44410W        W 5864   3.840  24.570  12.404
44411W        W 5865  23.518  35.874   1.864
44412W        W 5866  30.633  10.182   1.263
44413W        W 5867  18.603   5.304  10.500
44414W        W 5868  33.944   6.827  13.443
44415W        W 5869   6.726  39.395   0.294
44416W        W 5870  14.736   6.270  10.549
44417W        W 5871  27.676  26.646   0.369
44418W        W 5872  32.561  34.957  14.802
44419W        W 5873   1.381  20.186   1.712
44420W        W 5874  37.872  38.017   2.776
44421W        W 5875   9.807  40.868   3.786
44422W        W 5876  20.133   3.216   3.339
44423W        W 5877   1.790   6.850  13.356
44424W        W 5878  28.086  30.502   0.743
44425W        W 5879  20.107  26.116   2.358
44426W        W 5880   1.779  14.121  13.991
44427W        W 5881  11.328  32.398   1.301
44428W        W 5882  41.484  40.390   2.882
44429W        W 5883  19.125  10.776  14.922
44430W        W 5884  41.987  38.898   9.466
44431W        W 5885  44.847  29.558   2.383
44432W        W 5886  39.968  23.558  11.945
44433W        W 5887  41.520  12.632   2.289
44434W        W 5888  37.504  14.644  10.551
44435W        W 5889  17.722  32.925  12.899
44436W        W 5890  40.406   9.880  10.542
44437W        W 5891  25.175   9.304   4.761
44438W        W 5892  43.964   4.751  12.548
44439W        W 5893  14.305  21.028   3.640
44440W        W 5894  13.314   4.924  13.902
44441W        W 5895  36.841  35.853   2.785
44442W        W 5896  14.124  37.559  11.507
44443W        W 5897  43.872  20.607  13.345
44444W        W 5898   8.754  22.217  12.413
44445W        W 5899  33.394  26.067  12.078
44446W        W 5900   4.420  25.513  13.441
44447W        W 5901  28.071  13.702  11.404
44448W        W 5902  22.718  15.659  14.984
44449W        W 5903   7.247  37.845   0.343
44450W        W 5904  42.447   0.827   4.792
44451W        W 5905   8.199   8.829  11.613
44452W        W 5906  29.489   9.824   1.823
44453W        W 5907   0.392  18.733  13.846
44454W        W 5908  33.974  44.865  11.945
44455W        W 5909  26.539  18.759   3.308
44456W        W 5910   2.463  24.493  11.040
44457W        W 5911  43.978   9.856   0.912
44458W        W 5912  30.418   8.855   5.267
44459W        W 5913  21.657  37.459  13.817
44460W        W 5914  12.640   8.305  11.568
44461W        W 5915  13.814  39.015   1.844
44462W        W 5916  33.007   6.379   2.745
44463W        W 5917   6.248  28.019   2.225
44464W        W 5918  28.171  40.801  11.463
44465W        W 5919  42.881   1.918  11.873
44466W        W 5920  25.035  10.341  14.936
44467W        W 5921  37.551  14.144   2.392
44468W        W 5922   9.651   0.950   0.319
44469W        W 5923  31.968  25.179  13.389
44470W        W 5924  28.644  16.750   4.779
44471W        W 5925  15.150  34.544  11.375
44472W        W 5926  34.442  11.867  11.424
44473W        W 5927  18.280  40.894  12.983
44474W        W 5928  28.677  19.586   1.267
44475W        W 5929  15.311  35.564   1.768
44476W        W 5930  17.257  11.233   9.633
44477W        W 5931  44.315   9.193  10.966
44478W        W 5932  36.879  36.432  11.538
44479W        W 5933  43.281  24.589   4.622
44480W        W 5934   8.381  41.871  11.939
44481W        W 5935  15.299  10.819  11.551
44482W        W 5936  40.016  28.066   4.603
44483W        W 5937  22.504  33.122  10.510
44484W        W 5938  28.183  16.110   2.860
44485W        W 5939  43.989  26.067  14.944
44486W        W 5940  27.015   9.824   0.798
44487W        W 5941  16.718  34.486   0.256
44488W        W 5942  20.724   3.231   3.240
44489W        W 5943   5.787  25.500  14.835
44490W        W 5944  36.956  16.212   1.875
44491W        W 5945  18.229  32.610   1.398
44492W        W 5946   8.668  25.678   2.686
44493W        W 5947  12.763  11.359  13.462
44494W        W 5948   5.827  16.746   4.730
44495W        W 5949  23.132  24.221  13.866
44496W        W 5950  30.016  34.526  12.454
44497W        W 5951  25.546   4.318  12.550
44498W        W 5952  16.719  14.103   0.345
44499W        W 5953  10.313  44.298  11.505
44500W        W 5954   9.659  27.162  13.799
44501W        W 5955  15.720  13.221   1.759
44502W        W 5956  30.007  36.538  13.872
44503W        W 5957  41.455  43.926  11.919
44504W        W 5958  35.869  25.172  12.902
44505W        W 5959  15.674  43.869  10.906
44506W        W 5960   7.397  11.196  14.968
44507W        W 5961  37.085  13.232  14.396
44508W        W 5962  17.586   7.814  13.982
44509W        W 5963  23.080   4.336  10.954
44510W        W 5964   0.943  11.656  12.518
44511W        W 5965  43.931   0.761  11.995
44512W        W 5966  39.360  20.211  12.386
44513W        W 5967  32.920  15.707  12.019
44514W        W 5968  35.951  30.637   3.656
44515W        W 5969  37.409  29.514  12.855
44516W        W 5970  43.389  26.062   0.920
44517W        W 5971   3.729  35.090   0.483
44518W        W 5972  18.289   7.411   4.662
44519W        W 5973  17.152  14.195   0.467
44520W        W 5974  36.051   2.456  11.509
44521W        W 5975  41.789  32.612  13.853
44522W        W 5976   1.291  15.602  12.025
44523W        W 5977  34.868   6.912   3.778
44524W        W 5978  23.675  38.942  10.562
44525W        W 5979   2.425  27.971  10.012
44526W        W 5980  42.456  19.113  14.480
44527W        W 5981  10.776  17.704   0.952
44528W        W 5982  29.149  39.908  11.880
44529W        W 5983  42.978   9.320   1.875
44530W        W 5984  17.142  18.190   1.704
44531W        W 5985  32.115  34.054  10.956
44532W        W 5986   8.673  24.658   3.828
44533W        W 5987  28.996  11.289   2.778
44534W        W 5988  41.468  19.724   2.347
44535W        W 5989  37.506  20.643  11.480
44536W        W 5990  20.705  26.530   1.356
44537W        W 5991  25.580  24.567  14.442
44538W        W 5992  10.776   4.790   3.868
44539W        W 5993   1.940  36.447  11.001
44540W        W 5994  36.486  43.861  12.048
44541W        W 5995  41.035  16.231   3.229
44542W        W 5996  19.675  39.515   2.894
44543W        W 5997  25.492  12.625   1.699
44544W        W 5998   3.218  10.262  12.454
44545W        W 5999  19.113  35.013  10.485
44546W        W 6000   6.774  25.569   2.768
44547W        W 6001  35.039  14.806   3.785
44548W        W 6002  38.520  18.585  13.389
44549W        W 6003  13.828   6.848  10.504
44550W        W 6004  14.230  35.581  11.967
44551W        W 6005  21.610  13.809  14.420
44552W        W 6006  23.070  34.088  13.411
44553W        W 6007  27.011   0.864   9.942
44554W        W 6008  42.842  14.231   3.259
44555W        W 6009  12.837  15.802   0.769
44556W        W 6010  13.264  34.893  14.312
44557W        W 6011   9.810  23.014   4.743
44558W        W 6012  29.095  27.181  14.804
44559W        W 6013  39.454  37.570  10.553
44560W        W 6014   3.946  23.016   4.795
44561W        W 6015  28.485  36.522   0.805
44562W        W 6016  13.816  29.575   3.152
44563W        W 6017  33.878  32.452  10.404
44564W        W 6018  42.498  23.489  12.446
44565W        W 6019  19.712   3.893  14.307
44566W        W 6020   1.795  28.523   4.610
44567W        W 6021   6.202  43.790  14.514
44568W        W 6022  31.130  31.543   4.148
44569W        W 6023   3.441   0.401  14.798
44570W        W 6024  41.537  39.530   2.880
44571W        W 6025  26.108  21.522   2.896
44572W        W 6026  44.931  16.300  12.861
44573W        W 6027  14.159  42.946   1.312
44574W        W 6028  37.428  40.350  12.463
44575W        W 6029  14.121  27.064   4.180
44576W        W 6030   3.723  39.560   3.868
44577W        W 6031   0.271  43.794   3.688
44578W        W 6032   3.771  27.950   4.196
44579W        W 6033  16.239  25.577   2.318
44580W        W 6034  29.125  16.612   0.400
44581W        W 6035  19.735  14.137  11.499
44582W        W 6036  37.978   9.743   1.888
44583W        W 6037  28.146  18.208   4.128
44584W        W 6038   1.312  13.752   3.695
44585W        W 6039  41.919  26.196   3.797
44586W        W 6040   5.769   5.909  11.493
44587W        W 6041  27.105  44.816   1.217
44588W        W 6042  42.347  39.432   2.233
44589W        W 6043  20.065  42.461   0.931
44590W        W 6044  41.324   6.418   3.681
44591W        W 6045  18.772  28.153   2.272
44592W        W 6046  11.268  25.551  13.499
44593W        W 6047  37.571  26.593   4.314
44594W        W 6048   2.730   9.720  13.388
44595W        W 6049   9.867  35.490   2.852
44596W        W 6050  25.056   3.406  12.091
44597W        W 6051  27.177  20.135  14.418
44598W        W 6052  11.169  38.335  13.459
44599W        W 6053  24.152  19.741   4.779
44600W        W 6054  37.833  31.605   2.668
44601W        W 6055  40.483  32.599  13.881
44602W        W 6056  12.359  17.145  11.032
44603W        W 6057  44.792  42.944  13.013
44604W        W 6058  20.091  18.125  13.916
44605W        W 6059  22.548  43.823  12.058
44606W        W 6060   6.710   2.231  14.942
44607W        W 6061  43.515   4.343   3.267
44608W        W 6062  14.269   6.812   0.475
44609W        W 6063  32.493  42.976  13.313
44610W        W 6064   9.652  13.107   2.784
44611W        W 6065  15.786  15.243   4.140
44612W        W 6066  16.750  34.425  12.955
44613W        W 6067  21.029   3.751  10.903
44614W        W 6068  44.450  26.115   4.256
44615W        W 6069   6.837   1.432   0.438
44616W        W 6070  15.739  43.773  10.545
44617W        W 6071  19.540  15.086   1.227
44618W        W 6072  11.204  41.996  11.542
44619W        W 6073  31.142  35.060   1.895
44620W        W 6074  25.665   0.364  11.553
44621W        W 6075  41.907  15.282  11.576
44622W        W 6076  33.625  13.317  10.624
44623W        W 6077  19.268  13.274  11.560
44624W        W 6078  37.006  27.960   0.409
44625W        W 6079  21.211  38.461   4.282
44626W        W 6080  40.357  28.006   5.105
44627W        W 6081  35.374  26.565   1.446
44628W        W 6082  30.920   1.387   4.236
44629W        W 6083   1.285   3.370  11.434
44630W        W 6084   5.427  24.583  11.901
44631W        W 6085  39.515  26.094   0.263
44632W        W 6086   0.971  24.153  11.433
44633W        W 6087   5.886   4.919  14.426
44634W        W 6088  25.545  29.997  10.629
44635W        W 6089   2.313  12.352   2.835
44636W        W 6090  44.919  27.953  13.048
44637W        W 6091  17.111  14.213  13.984
44638W        W 6092  29.150  40.904  14.275
44639W        W 6093  37.561  32.911   0.388
44640W        W 6094  19.777  12.157  12.483
44641W        W 6095   3.943  37.367   3.242
44642W        W 6096  15.595  39.967   0.265
44643W        W 6097  43.928  30.999   4.734
44644W        W 6098  35.548  38.973   2.714
44645W        W 6099  19.575   7.780   9.650
44646W        W 6100  26.009  14.806  14.021
44647W        W 6101  27.483  25.606   2.308
44648W        W 6102  32.116  11.365  12.075
44649W        W 6103  28.147  33.064  14.288
44650W        W 6104  14.176   4.236   0.734
44651W        W 6105  24.703   5.250  13.831
44652W        W 6106   1.891  27.991  10.467
44653W        W 6107  38.481  35.866   2.338
44654W        W 6108  36.996   4.787  11.044
44655W        W 6109  26.628  24.723  12.359
44656W        W 6110  12.824  43.980   1.335
44657W        W 6111  26.470   7.270   0.828
44658W        W 6112  25.106  29.465  11.016
44659W        W 6113   1.836  23.641  12.482
44660W        W 6114   2.826  22.019  11.512
44661W        W 6115   6.422  10.710   4.198
44662W        W 6116  44.269  44.876   3.823
44663W        W 6117  16.736   5.885  10.606
44664W        W 6118   9.723  33.600   4.617
44665W        W 6119  30.505  19.280   0.798
44666W        W 6120   9.330  14.301   4.805
44667W        W 6121   7.303  39.888   0.898
44668W        W 6122  10.764  16.079   3.827
44669W        W 6123   1.926  44.995  11.419
44670W        W 6124  33.894  30.516   2.744
44671W        W 6125  20.658  20.267  10.916
44672W        W 6126  15.268  43.832   4.816
44673W        W 6127  29.470  20.698   1.239
44674W        W 6128  18.110   6.868  11.117
44675W        W 6129  10.783   8.223  12.957
44676W        W 6130  35.078   6.851   3.223
44677W        W 6131  43.516  31.986  14.883
44678W        W 6132   9.161  19.240   0.858
44679W        W 6133   4.204  20.690  12.018
44680W        W 6134  17.786   8.350   2.727
44681W        W 6135  44.357  44.391   4.210
44682W        W 6136  42.979  31.116   2.358
44683W        W 6137  25.088  31.951  10.083
44684W        W 6138  27.123  14.274  12.896
44685W        W 6139  12.743  32.580  14.798
44686W        W 6140  31.988  20.184  13.534
44687W        W 6141  28.964  18.231   4.139
44688W        W 6142  23.098   2.765  13.925
44689W        W 6143  36.533   1.316   4.298
44690W        W 6144  40.026  26.050   2.786
44691W        W 6145  41.966  14.795   3.857
44692W        W 6146   5.831  33.428  12.942
44693W        W 6147  27.991  43.906   9.993
44694W        W 6148  23.612  27.448   0.829
44695W        W 6149   2.883  43.893  14.428
44696W        W 6150   1.242   5.299  12.553
44697W        W 6151  21.665  39.987   3.790
44698W        W 6152  10.869   7.823   4.277
44699W        W 6153  11.347  10.142   3.693
44700W        W 6154   0.454  35.976   0.417
44701W        W 6155  28.640  42.878  11.572
44702W        W 6156   1.900  34.067  14.415
44703W        W 6157  23.557  12.309   2.896
44704W        W 6158   7.892   3.887  11.601
44705W        W 6159  33.979  42.911   2.284
44706W        W 6160  17.728  13.730   3.694
44707W        W 6161  32.627   2.242   2.407
44708W        W 6162  31.118  36.851  12.542
44709W        W 6163  12.162  28.021   3.372
44710W        W 6164  31.972  16.620  10.097
44711W        W 6165   3.317  12.758   2.391
44712W        W 6166  13.693  29.599   2.393
44713W        W 6167   4.851   1.810   1.849
44714W        W 6168  14.228  11.687   2.262
44715W        W 6169   7.248  21.250  10.583
44716W        W 6170  26.196  28.056   3.762
44717W        W 6171   6.377  43.279   1.786
44718W        W 6172  22.587  36.018  14.994
44719W        W 6173   0.806  17.126  14.826
44720W        W 6174  10.794  36.089  14.875
44721W        W 6175   2.288   2.819   2.286
44722W        W 6176  15.791  25.681   1.901
44723W        W 6177  37.022   1.243   4.144
44724W        W 6178  33.428  38.386  10.589
44725W        W 6179   8.680  20.036   2.789
44726W        W 6180  41.536  17.689  12.502
44727W        W 6181  27.456  28.510  14.364
44728W        W 6182   7.287  28.174   0.335
44729W        W 6183  21.145  29.956   5.155
44730W        W 6184   2.315  26.508  12.050
44731W        W 6185  31.061  32.935  14.879
44732W        W 6186  15.611  24.193  11.940
44733W        W 6187   9.887  10.343   3.196
44734W        W 6188   9.672  36.025   4.259
44735W        W 6189  44.788  27.550  14.414
44736W        W 6190  38.843  40.543  11.921
44737W        W 6191  25.011  22.050   1.756
44738W        W 6192  37.837   4.843   0.737
44739W        W 6193  13.142  39.357   0.448
44740W        W 6194  33.993  23.208  13.002
44741W        W 6195   0.366  31.448  11.996
44742W        W 6196  28.153  14.250   5.264
44743W        W 6197  30.581  30.136  12.052
44744W        W 6198  17.127  14.699  12.552
44745W        W 6199  41.022   9.671   1.250
44746W        W 6200  11.154  34.098  11.894
44747W        W 6201   5.230  42.423  13.964
44748W        W 6202  27.031   1.448   1.863
44749W        W 6203  39.430  31.943   2.735
44750W        W 6204   6.203   0.357   4.622
44751W        W 6205  26.987  26.015   1.863
44752W        W 6206  28.112  24.062   3.303
44753W        W 6207   3.419  30.471   0.274
44754W        W 6208  38.428  16.269   4.158
44755W        W 6209  44.953  42.508  14.922
44756W        W 6210  16.698  37.498   3.748
44757W        W 6211  42.839  41.311   0.354
44758W        W 6212  20.558  21.632   1.701
44759W        W 6213   9.262   2.274   3.195
44760W        W 6214  31.951  42.398   2.692
44761W        W 6215  36.932  43.335  10.424
44762W        W 6216  30.068  19.598   4.185
44763W        W 6217  13.631  31.987  11.408
44764W        W 6218   6.281  22.182  12.097
44765W        W 6219  24.517  24.599   2.384
44766W        W 6220   4.767  35.073  12.494
44767W        W 6221  26.594  17.145  12.963
44768W        W 6222  41.327  23.002  13.972
44769W        W 6223  38.830  19.646  11.401
44770W        W 6224  38.402  30.031  14.952
44771W        W 6225  13.263  16.281  13.802
44772W        W 6226  43.363   4.257  11.108
44773W        W 6227  12.620  37.498   1.721
44774W        W 6228  39.417   7.185  11.397
44775W        W 6229  27.659  17.774  14.330
44776W        W 6230  40.539  44.918  11.104
44777W        W 6231  15.760  25.516  12.907
44778W        W 6232  42.505  37.560  11.955
44779W        W 6233  12.672   6.352  10.584
44780W        W 6234   7.812  12.639  12.486
44781W        W 6235  27.485  40.920  11.502
44782W        W 6236  10.178  34.455  14.327
44783W        W 6237  33.534  33.466  12.008
44784W        W 6238  29.068  20.081   3.650
44785W        W 6239  12.122  31.138  14.376
44786W        W 6240  25.500   2.808   3.784
44787W        W 6241  24.525  41.337  10.965
44788W        W 6242   9.308  14.743  14.313
44789W        W 6243  21.649  18.566   4.290
44790W        W 6244  26.204  28.660   0.745
44791W        W 6245  40.864  19.536   2.386
44792W        W 6246   4.446  40.383   4.138
44793W        W 6247  35.509  33.041   4.268
44794W        W 6248  20.217  26.649  11.087
44795W        W 6249  32.449  20.098  11.942
44796W        W 6250  42.358  24.163  12.885
44797W        W 6251  25.584  21.717   3.869
44798W        W 6252  30.940  31.072   2.897
44799W        W 6253  42.517   4.354  12.908
44800W        W 6254  14.200   5.703   1.703
44801W        W 6255  12.296  24.230   2.248
44802W        W 6256  11.796  27.551  13.897
44803W        W 6257   1.787  28.168   0.383
44804W        W 6258   5.694   8.855  10.612
44805W        W 6259  36.354   3.892  13.863
44806W        W 6260  22.172  30.020  12.418
44807W        W 6261  39.473  23.550   4.639
44808W        W 6262  17.125  25.212   3.284
44809W        W 6263  18.192  21.238  11.497
44810W        W 6264  38.900  17.086  13.468
44811W        W 6265  36.091   5.306  12.019
44812W        W 6266   2.845  29.423   4.225
44813W        W 6267  26.172  10.212   1.806
44814W        W 6268  16.634  15.645  11.928
44815W        W 6269  20.596  40.406  11.429
44816W        W 6270  14.745  29.568  13.038
44817W        W 6271  19.113  20.164  14.441
44818W        W 6272  28.658   7.809  14.970
44819W        W 6273  42.796  12.296  11.545
44820W        W 6274   4.795   1.282  13.354
44821W        W 6275  36.576   1.437   1.234
44822W        W 6276  28.054  19.685  13.879
44823W        W 6277  27.579  10.672   4.650
44824W        W 6278  34.880   4.242  14.832
44825W        W 6279  31.147  21.233   1.306
44826W        W 6280  10.171  31.972  14.422
44827W        W 6281   4.380  39.009  13.007
44828W        W 6282  11.661  43.346   1.932
44829W        W 6283  43.451  14.703  14.970
44830W        W 6284  18.697  26.609  10.994
44831W        W 6285  42.434  19.541   2.740
44832W        W 6286  29.574  44.431  13.946
44833W        W 6287  18.596   3.940   3.696
44834W        W 6288   8.695  25.574   3.691
44835W        W 6289  41.789  11.175   4.722
44836W        W 6290  39.369  30.061  14.791
44837W        W 6291  18.104  23.645   4.729
44838W        W 6292   3.880   2.730   3.234
44839W        W 6293  36.556  37.990   0.307
44840W        W 6294   6.302   8.683  14.279
44841W        W 6295  16.138  35.503  12.340
44842W        W 6296  18.786  16.091  13.400
44843W        W 6297  36.936  10.772  13.992
44844W        W 6298  18.267  16.247  14.407
44845W        W 6299  40.971  36.904  11.571
44846W        W 6300  44.867   1.395   3.303
44847W        W 6301   0.948  30.023  13.987
44848W        W 6302  30.122  12.360   1.779
44849W        W 6303  40.461  15.252  12.498
44850W        W 6304  37.843  34.465   3.176
44851W        W 6305  15.204   6.321  12.067
44852W        W 6306  44.878   6.692   0.764
44853W        W 6307   6.692   3.854   0.857
44854W        W 6308   7.317  37.545   1.402
44855W        W 6309  41.833  26.670   9.972
44856W        W 6310  22.180   4.306  11.911
44857W        W 6311  41.988   4.306   0.376
44858W        W 6312  18.672  13.306  11.916
44859W        W 6313   9.844   8.790  14.908
44860W        W 6314  20.229  22.589   3.775
44861W        W 6315  32.589   0.769  13.831
44862W        W 6316  20.659  28.484   1.867
44863W        W 6317  43.883  39.954   4.268
44864W        W 6318  18.231  36.506  11.565
44865W        W 6319  16.228  20.567  10.437
44866W        W 6320   1.434  43.817  11.941
44867W        W 6321  32.400  20.220  12.341
44868W        W 6322   1.770  13.145  10.527
44869W        W 6323  34.108  36.066   3.759
44870W        W 6324  17.800   4.331   4.308
44871W        W 6325  25.476  35.358  11.535
44872W        W 6326   3.294  39.437   0.882
44873W        W 6327  44.310  38.435  12.368
44874W        W 6328  39.513  44.943   4.329
44875W        W 6329  39.322  23.711   3.831
44876W        W 6330  19.587  43.838   4.618
44877W        W 6331  30.106  32.481  14.365
44878W        W 6332  43.420  32.945   2.785
44879W        W 6333  15.731  40.000   3.229
44880W        W 6334  11.791  29.920   3.721
44881W        W 6335  37.555  27.116   0.364
44882W        W 6336  14.767  34.010   4.798
44883W        W 6337   7.667   9.845   1.717
44884W        W 6338  20.088  10.345   4.246
44885W        W 6339  41.959  21.536   1.352
44886W        W 6340  37.991  36.029   2.373
44887W        W 6341  10.867   7.691  13.861
44888W        W 6342  27.622   0.492   3.857
44889W        W 6343  31.053  37.832  13.337
44890W        W 6344  35.516  12.251  13.907
44891W        W 6345  15.698  38.371   1.831
44892W        W 6346  15.236  35.958   1.379
44893W        W 6347   1.323  12.279   1.852
44894W        W 6348  27.130  33.880   1.780
44895W        W 6349  30.020  44.958  11.592
44896W        W 6350  42.813  15.206   2.277
44897W        W 6351   0.840  24.173  13.394
44898W        W 6352  35.895  10.854   2.724
44899W        W 6353  10.353  26.612  11.900
44900W        W 6354  37.342   5.805  12.021
44901W        W 6355   6.367  17.731   1.856
44902W        W 6356  40.340  43.931  10.539
44903W        W 6357  26.607  44.842   5.296
44904W        W 6358   1.407   5.816   1.788
44905W        W 6359  29.467   3.873   3.228
44906W        W 6360   8.668  33.988  11.900
44907W        W 6361  29.557  15.179  13.398
44908W        W 6362  19.681  37.022   3.743
44909W        W 6363  33.430  29.568   4.327
44910W        W 6364  39.014  34.557   1.366
44911W        W 6365  26.613  19.148  11.595
44912W        W 6366   1.397  30.936  13.827
44913W        W 6367  40.837  37.830  14.944
44914W        W 6368   2.465  32.067   4.206
44915W        W 6369  43.002  30.971  14.896
44916W        W 6370  37.380  31.144  12.411
44917W        W 6371  37.065  23.506  12.550
44918W        W 6372   0.831  18.130   0.770
44919W        W 6373  34.449  20.256   2.716
44920W        W 6374  19.572  39.556  10.617
44921W        W 6375  29.174  43.938   3.287
44922W        W 6376  43.307  21.070   4.601
44923W        W 6377   8.680  22.031   4.118
44924W        W 6378  12.336  37.572   2.755
44925W        W 6379   7.687   3.384   3.722
44926W        W 6380   9.798  28.025   1.329
44927W        W 6381  26.474  41.404  11.495
44928W        W 6382  25.658  17.694   3.236
44929W        W 6383   7.805   0.368   0.915
44930W        W 6384  11.242  15.705  12.387
44931W        W 6385  12.245  28.010  12.995
44932W        W 6386   1.380  28.450  13.830
44933W        W 6387  43.021  36.890   0.875
44934W        W 6388  14.119  23.995  11.504
44935W        W 6389  44.919  22.184   3.328
44936W        W 6390  19.272  32.072  10.114
44937W        W 6391  26.700  37.843   2.823
44938W        W 6392  39.043  37.574  12.863
44939W        W 6393  21.191  36.387  13.859
44940W        W 6394   0.254  40.541   0.734
44941W        W 6395  43.353  33.035   1.382
44942W        W 6396   3.910  10.807  12.859
44943W        W 6397  22.733  19.178   1.252
44944W        W 6398  31.911  33.923  11.513
44945W        W 6399  43.426  20.717   0.960
44946W        W 6400  33.436  10.305  12.871
44947W        W 6401  23.185  28.031   9.995
44948W        W 6402  43.310  41.520  12.059
44949W        W 6403  13.248  38.010  13.059
44950W        W 6404   2.404  21.171  10.959
44951W        W 6405   2.746  43.320   2.300
44952W        W 6406  43.977  14.236  14.788
44953W        W 6407  10.263   3.792   3.812
44954W        W 6408  42.324   3.877  14.962
44955W        W 6409  31.411  19.215   0.923
44956W        W 6410  15.092  34.022  11.957
44957W        W 6411  27.669  41.815   4.713
44958W        W 6412  40.997   9.744  13.373
44959W        W 6413   5.271   7.288   3.282
44960W        W 6414  34.975  32.943   4.793
44961W        W 6415  22.520  14.178   3.685
44962W        W 6416  23.732   1.732   4.276
44963W        W 6417  17.566  14.693  13.024
44964W        W 6418  14.264  21.572   2.352
44965W        W 6419  15.143   1.760   3.685
44966W        W 6420   6.821  43.452   1.360
44967W        W 6421  23.144  27.172   1.746
44968W        W 6422  24.649   3.718  14.380
44969W        W 6423  23.021  21.117  11.495
44970W        W 6424  16.738  25.683  14.857
44971W        W 6425  23.507   9.338   1.402
44972W        W 6426  12.665  31.417   2.394
44973W        W 6427   5.804  19.758  14.977
44974W        W 6428  32.543  33.078   2.214
44975W        W 6429   9.272  33.045   5.104
44976W        W 6430  15.798  22.572  12.080
44977W        W 6431  40.813   6.293   2.333
44978W        W 6432  17.619   9.312  10.983
44979W        W 6433   3.310  13.664   2.290
44980W        W 6434  16.701  27.123   0.874
44981W        W 6435   1.918   5.348  10.642
44982W        W 6436  16.116  34.941   3.869
44983W        W 6437  35.102   4.368   3.814
44984W        W 6438   9.656  19.193  10.609
44985W        W 6439  15.683  35.108  13.009
44986W        W 6440   3.740  20.179   3.167
44987W        W 6441  39.538  34.118   3.739
44988W        W 6442  32.493  12.156  13.324
44989W        W 6443  19.548  28.595  14.320
44990W        W 6444  11.301  25.164   2.238
44991W        W 6445   5.910  29.081  11.947
44992W        W 6446   9.712  32.934   2.418
44993W        W 6447  30.639   9.816   9.607
44994W        W 6448  19.565   0.253  13.811
44995W        W 6449  11.655  26.952  12.010
44996W        W 6450   1.811  20.111   3.649
44997W        W 6451  10.673  40.862  12.973
44998W        W 6452  16.651  42.386   1.717
44999W        W 6453  33.519  32.480  10.611
45000W        W 6454   1.346  16.741   3.166
45001W        W 6455  14.655  37.405  11.960
45002W        W 6456   1.356  16.129   0.262
45003W        W 6457  14.099  10.357  14.911
45004W        W 6458  13.785  26.702  11.941
45005W        W 6459  19.123  19.550  11.503
45006W        W 6460  43.985  11.359   3.678
45007W        W 6461  14.799  37.419  13.448
45008W        W 6462  27.514  32.903   0.327
45009W        W 6463  21.545  16.597  13.364
45010W        W 6464  15.103  22.238   4.781
45011W        W 6465  27.474  27.086  13.350
45012W        W 6466  20.248  31.633   0.251
45013W        W 6467  25.962  22.677  12.064
45014W        W 6468   5.309  15.598  14.379
45015W        W 6469  21.197  11.180  12.464
45016W        W 6470  38.367  33.072   0.730
45017W        W 6471   7.342  43.366  12.339
45018W        W 6472   0.358  42.887   4.804
45019W        W 6473  31.078   7.700  11.489
45020W        W 6474  38.877  38.514  14.819
45021W        W 6475  18.626  11.755  14.345
45022W        W 6476  19.069  11.770   2.256
45023W        W 6477  21.178  15.652  12.917
45024W        W 6478   3.777  44.782  13.467
45025W        W 6479  10.663  21.599   1.426
45026W        W 6480  18.751  39.832  13.922
45027W        W 6481  16.594   4.430  14.464
45028W        W 6482  27.502  32.515   2.757
45029W        W 6483  25.528  32.978   1.292
45030W        W 6484   6.260  40.997  13.810
45031W        W 6485  22.218  41.530   1.753
45032W        W 6486  35.980  35.533   1.267
45033W        W 6487  26.971  21.253  14.315
45034W        W 6488  25.998  26.065  13.886
45035W        W 6489  10.145   6.388   0.730
45036W        W 6490   1.749   7.727  13.326
45037W        W 6491  19.102  25.196   3.793
45038W        W 6492   8.254   2.306  11.405
45039W        W 6493   7.410  31.481  10.148
45040W        W 6494  10.202  22.094   4.178
45041W        W 6495  35.933  28.525   4.812
45042W        W 6496  42.026  43.876   4.821
45043W        W 6497  44.385  25.646  14.471
45044W        W 6498  19.243   4.393   2.765
45045W        W 6499  16.289  33.905  13.510
45046W        W 6500  44.471   1.867   4.350
45047W        W 6501  18.718  29.063   4.168
45048W        W 6502  43.452  42.284  11.067
45049W        W 6503  16.637   6.776  13.831
45050W        W 6504  24.643  33.611  12.829
45051W        W 6505  10.859  42.794  11.937
45052W        W 6506  31.055  18.630   1.261
45053W        W 6507  30.501  33.588   1.706
45054W        W 6508  15.592  26.543   0.391
45055W        W 6509  44.274  41.794   4.118
45056W        W 6510   4.902   6.707   1.762
45057W        W 6511   5.281  25.198  14.907
45058W        W 6512  13.811   6.856   3.171
45059W        W 6513  44.344  42.481  12.415
45060W        W 6514  21.047  17.625  11.873
45061W        W 6515  19.130  31.019   0.409
45062W        W 6516  40.335  14.209  13.370
45063W        W 6517  28.186  17.091  12.552
45064W        W 6518  29.628  19.750  13.840
45065W        W 6519  20.560  11.631   3.687
45066W        W 6520  33.391   0.317  13.538
45067W        W 6521  35.101  11.166   4.636
45068W        W 6522  16.119   1.807  13.859
45069W        W 6523   0.384   2.736   1.305
45070W        W 6524  42.815   1.914  14.979
45071W        W 6525   7.391  27.118  11.095
45072W        W 6526  39.449  32.441   3.632
45073W        W 6527  42.402  31.504  14.293
45074W        W 6528  16.711  41.532   4.703
45075W        W 6529   5.900  36.959  12.050
45076W        W 6530  39.890   6.890  13.819
45077W        W 6531  29.464  23.001   2.232
45078W        W 6532   3.794  31.003   2.827
45079W        W 6533  25.704  23.159   9.936
45080W        W 6534  21.019  36.883  12.360
45081W        W 6535  16.786  21.045  14.507
45082W        W 6536  14.657  12.640   5.693
45083W        W 6537  20.085  16.715  10.598
45084W        W 6538   1.739  28.629  13.447
45085W        W 6539  33.419  32.060   0.856
45086W        W 6540  30.612  43.326  13.370
45087W        W 6541  32.403  43.825   1.820
45088W        W 6542   3.421   9.824   3.267
45089W        W 6543   9.177  26.105   0.323
45090W        W 6544  15.719   1.306  13.461
45091W        W 6545  25.555   7.718  12.993
45092W        W 6546  34.482  26.496   3.804
45093W        W 6547  33.552  41.387   3.322
45094W        W 6548  34.458  20.139   2.255
45095W        W 6549  20.539  37.424  12.978
45096W        W 6550  28.537  41.993   3.764
45097W        W 6551  11.689  14.682  11.004
45098W        W 6552   2.917  21.081  11.055
45099W        W 6553  29.586   7.375   3.657
45100W        W 6554  22.134  36.548  10.994
45101W        W 6555  25.044  35.080  14.898
45102W        W 6556  41.942  31.470  13.849
45103W        W 6557  16.739  31.112   1.911
45104W        W 6558  32.891   5.703   4.674
45105W        W 6559  11.817  28.051  11.917
45106W        W 6560  22.147  35.015  13.516
45107W        W 6561  27.985  11.860  13.433
45108W        W 6562  44.259  27.974   2.903
45109W        W 6563  13.676  32.135  13.436
45110W        W 6564  16.610  20.585  12.501
45111W        W 6565  31.989   9.195   0.356
45112W        W 6566  31.493  15.812  13.799
45113W        W 6567  37.436  13.659   4.246
45114W        W 6568  28.029  19.173  14.455
45115W        W 6569   4.742   7.710   4.209
45116W        W 6570  35.864   9.188  10.465
45117W        W 6571   7.704   8.243   0.247
45118W        W 6572   4.836  14.746  11.932
45119W        W 6573  17.201   3.924  12.934
45120W        W 6574  36.968  12.281  12.404
45121W        W 6575   5.876   9.714   1.288
45122W        W 6576  27.578  28.970  13.885
45123W        W 6577   1.343  13.331  14.868
45124W        W 6578  17.185  40.031   0.880
45125W        W 6579  30.500  43.464  12.056
45126W        W 6580  20.598  44.977  13.061
45127W        W 6581  11.853   1.483   0.253
45128W        W 6582  30.547  15.709   2.399
45129W        W 6583  42.318  38.403  10.463
45130W        W 6584  27.156  24.198  14.907
45131W        W 6585  39.981  36.556  13.801
45132W        W 6586  43.784   7.737  10.409
45133W        W 6587  30.426  43.918   0.484
45134W        W 6588   7.813  31.053  13.316
45135W        W 6589  37.380  14.822  11.504
45136W        W 6590  21.225  35.458   3.151
45137W        W 6591  19.161  35.526  13.414
45138W        W 6592  29.953   9.221   9.964
45139W        W 6593  35.966  18.789  14.291
45140W        W 6594  26.457   7.323   4.283
45141W        W 6595  43.316  23.516  12.379
45142W        W 6596   6.889  16.805  13.348
45143W        W 6597  40.395   7.226  13.444
45144W        W 6598  43.393  25.685   2.735
45145W        W 6599  44.461   6.804   1.295
45146W        W 6600  11.785   3.857  11.580
45147W        W 6601  26.016  30.061  11.576
45148W        W 6602  31.065  28.465   3.826
45149W        W 6603  19.232   9.178  14.465
45150W        W 6604  39.010  38.537   1.276
45151W        W 6605  25.525  13.109  12.879
45152W        W 6606  44.769  11.761   3.736
45153W        W 6607  33.106  22.073   4.291
45154W        W 6608  17.610  32.931  11.558
45155W        W 6609  40.803  16.610   2.313
45156W        W 6610  42.960  12.296   4.710
45157W        W 6611  29.000   8.338   0.737
45158W        W 6612  17.798  25.545   2.191
45159W        W 6613  21.020  29.937   3.260
45160W        W 6614  14.211  30.066  12.846
45161W        W 6615  42.520  33.393  12.494
45162W        W 6616   5.406  24.151  13.042
45163W        W 6617  24.511   6.907   4.702
45164W        W 6618  18.579  17.635   3.329
45165W        W 6619  39.909  38.972   2.696
45166W        W 6620  12.289  18.230   4.779
45167W        W 6621  12.666  35.979   1.827
45168W        W 6622  24.181  33.131   3.368
45169W        W 6623   7.196  20.668  13.802
45170W        W 6624  39.464  29.018  10.486
45171W        W 6625   4.321   0.279   0.828
45172W        W 6626  39.929  15.760  10.161
45173W        W 6627  21.639  44.957   4.217
45174W        W 6628  33.062  16.620  14.884
45175W        W 6629  35.600  11.179   0.379
45176W        W 6630  30.046  28.486   4.825
45177W        W 6631   9.333  36.497  11.599
45178W        W 6632  10.141  22.511  11.055
45179W        W 6633  17.781  34.564  12.086
45180W        W 6634  34.021  20.743   3.235
45181W        W 6635   7.298  10.180  11.514
45182W        W 6636  29.598  28.526  12.351
45183W        W 6637  12.698   1.795   3.300
45184W        W 6638  14.237  32.590   3.636
45185W        W 6639  34.531  33.123  11.560
45186W        W 6640  23.647   3.783  10.992
45187W        W 6641   8.259  12.116   1.399
45188W        W 6642   1.845   3.907  13.029
45189W        W 6643  36.091  18.185  11.869
45190W        W 6644  28.611  40.902   0.399
45191W        W 6645  16.214   7.404   4.246
45192W        W 6646   3.293  24.035   4.133
45193W        W 6647  28.100   6.818   3.165
45194W        W 6648  14.306  41.352   3.203
45195W        W 6649  26.143  26.515  12.377
45196W        W 6650  13.184   5.758   0.386
45197W        W 6651   6.223  28.120  10.462
45198W        W 6652   9.295  35.487   2.782
45199W        W 6653  23.015   3.717   0.900
45200W        W 6654  36.550   4.861   3.217
45201W        W 6655  11.309  15.799  10.604
45202W        W 6656  31.437   3.872  12.552
45203W        W 6657  39.438  40.823   2.814
45204W        W 6658  39.381  24.170   3.306
45205W        W 6659  26.605   7.695  12.954
45206W        W 6660  17.127  30.927  11.578
45207W        W 6661  29.067  29.656  11.961
45208W        W 6662  20.261   0.831  13.940
45209W        W 6663  36.444  42.395   1.908
45210W        W 6664  36.869  20.173  12.574
45211W        W 6665  37.921  19.695   1.786
45212W        W 6666   4.852  39.849  12.419
45213W        W 6667  34.571   7.183   4.293
45214W        W 6668  20.243   2.907   3.747
45215W        W 6669  18.068  24.228   1.296
45216W        W 6670  21.570  19.549   0.829
45217W        W 6671  43.809  32.543   1.339
45218W        W 6672  12.713  22.052  11.874
45219W        W 6673  27.000  15.719   4.159
45220W        W 6674  32.060  23.637  14.426
45221W        W 6675  43.315  30.455   1.867
45222W        W 6676  30.013  36.026  10.898
45223W        W 6677  34.948  23.661   0.895
45224W        W 6678   1.444  37.883  11.063
45225W        W 6679   7.263  43.335   2.213
45226W        W 6680  22.587  41.501  10.478
45227W        W 6681  13.289  12.725  11.116
45228W        W 6682   3.216  15.761  11.874
45229W        W 6683  40.857  13.124  13.495
45230W        W 6684  33.379   6.257   3.218
45231W        W 6685   0.276  40.473  10.996
45232W        W 6686   9.253  43.868  13.030
45233W        W 6687   7.697  37.041  11.583
45234W        W 6688  13.732  41.515  14.514
45235W        W 6689  27.068  30.416  10.471
45236W        W 6690  15.705  38.546   0.274
45237W        W 6691  17.786  44.471  13.518
45238W        W 6692  10.171   9.391  10.958
45239W        W 6693  42.438  41.292  14.908
45240W        W 6694  13.641  11.860   4.738
45241W        W 6695  22.034  16.736  12.946
45242W        W 6696  14.732  39.417   0.401
45243W        W 6697   8.401  17.078  13.517
45244W        W 6698  41.929  13.712   4.313
45245W        W 6699  17.074  30.572   0.452
45246W        W 6700  22.582  40.509   3.205
45247W        W 6701  16.678   4.436  12.440
45248W        W 6702  36.966  43.850   0.761
45249W        W 6703  20.067  42.993   2.201
45250W        W 6704  26.086  26.580   3.232
45251W        W 6705  37.542  28.958   2.355
45252W        W 6706   3.316  32.008   4.227
45253W        W 6707   5.809  35.553  13.475
45254W        W 6708   8.698  14.100  13.486
45255W        W 6709  11.323  39.061  13.826
45256W        W 6710  18.634   7.332   3.859
45257W        W 6711  26.503   8.272   3.727
45258W        W 6712   8.209  25.629   4.728
45259W        W 6713  37.003  24.228  14.858
45260W        W 6714  29.547  14.763   4.321
45261W        W 6715   8.371  32.561   2.678
45262W        W 6716  29.002  35.864  11.101
45263W        W 6717  44.870  28.183  13.546
45264W        W 6718  21.116  26.186  13.511
45265W        W 6719  10.299  37.393   2.271
45266W        W 6720   7.320  39.901  14.387
45267W        W 6721   3.234  17.191   3.768
45268W        W 6722  19.093   2.262   4.337
45269W        W 6723  25.025  39.424  14.385
45270W        W 6724   0.893  21.622  14.896
45271W        W 6725  13.830  23.156  14.487
45272W        W 6726  26.114  40.405  12.365
45273W        W 6727  41.305   2.837   1.386
45274W        W 6728  18.764   8.306   3.223
45275W        W 6729  14.783   2.299   3.735
45276W        W 6730  15.222  22.061   3.680
45277W        W 6731  26.538  42.905   2.859
45278W        W 6732   5.333  28.520   2.180
45279W        W 6733  20.088  40.947   2.254
45280W        W 6734  17.684   1.809  13.998
45281W        W 6735  29.040  43.789  11.408
45282W        W 6736  43.903  19.606   0.248
45283W        W 6737   4.427  29.121  12.493
45284W        W 6738  30.435  19.263  13.860
45285W        W 6739  11.634  33.934  13.980
45286W        W 6740   1.333  28.134  12.021
45287W        W 6741  38.416  16.110   2.297
45288W        W 6742   1.733  31.912   2.767
45289W        W 6743   0.897  15.313  13.061
45290W        W 6744  29.165   4.221   2.365
45291W        W 6745   1.398  34.062   4.789
45292W        W 6746  41.846   2.944  12.842
45293W        W 6747  11.215  11.785   0.832
45294W        W 6748  12.170   3.938   3.272
45295W        W 6749   7.378  15.822  12.996
45296W        W 6750  31.132  30.920   0.291
45297W        W 6751  24.617  40.811   0.941
45298W        W 6752  17.589   8.293   0.372
45299W        W 6753  29.563  42.910  11.440
45300W        W 6754  19.066  34.931  12.029
45301W        W 6755  20.605   9.207   0.253
45302W        W 6756  36.393  26.525  13.403
45303W        W 6757   9.394  26.197   0.774
45304W        W 6758   8.699  28.586  12.526
45305W        W 6759  43.423  33.902  11.536
45306W        W 6760  17.773  32.534   3.314
45307W        W 6761  38.367   4.245   2.806
45308W        W 6762  17.223  43.880   1.339
45309W        W 6763  44.941  31.957   0.806
45310W        W 6764  28.457  15.237  13.455
45311W        W 6765   3.453  27.571  10.077
45312W        W 6766  22.062  23.000   4.324
45313W        W 6767  44.338  18.635  11.005
45314W        W 6768  20.112   3.368   3.828
45315W        W 6769   6.251  35.999   3.257
45316W        W 6770  18.653  22.151   1.792
45317W        W 6771  33.486  21.105  13.500
45318W        W 6772  10.204   9.319   2.394
45319W        W 6773  44.459  38.393  10.485
45320W        W 6774  16.313  21.074   2.666
45321W        W 6775  36.474  39.979  12.573
45322W        W 6776   6.317  37.424  10.501
45323W        W 6777  14.627   8.322   4.344
45324W        W 6778  36.846  29.612   0.323
45325W        W 6779   5.355  26.688  14.899
45326W        W 6780  42.294   1.890  11.075
45327W        W 6781  25.489  28.627  12.870
45328W        W 6782  10.806  18.133   3.868
45329W        W 6783   4.874   8.821   3.636
45330W        W 6784  26.497  24.518  13.855
45331W        W 6785  11.233  27.130   4.775
45332W        W 6786  29.943   7.376   0.453
45333W        W 6787  39.363   3.721   2.330
45334W        W 6788  11.758  24.193   2.334
45335W        W 6789  38.336  43.990   5.295
45336W        W 6790  19.652  19.266   4.278
45337W        W 6791  36.511  11.336   4.175
45338W        W 6792  23.568  30.920   2.711
45339W        W 6793  30.938  26.573  13.872
45340W        W 6794  27.529  21.634  11.031
45341W        W 6795  18.161   0.480  10.534
45342W        W 6796  30.005   5.702   1.865
45343W        W 6797  44.816  36.048   5.321
45344W        W 6798  37.086  42.898   0.248
45345W        W 6799   0.358   2.308   0.796
45346W        W 6800  22.722  22.668   0.761
45347W        W 6801  30.507  25.034   4.783
45348W        W 6802   4.756  15.731  10.542
45349W        W 6803  14.325  27.029  11.974
45350W        W 6804  41.950  28.123  12.556
45351W        W 6805  25.103  24.533   4.764
45352W        W 6806   7.318   5.254  10.463
45353W        W 6807  35.032  28.135  12.499
45354W        W 6808  41.517  14.325   2.743
45355W        W 6809  35.016   6.314  14.353
45356W        W 6810  39.381  14.318   3.229
45357W        W 6811   2.379  35.000  12.824
45358W        W 6812  27.593  23.652  14.982
45359W        W 6813  12.692   4.803   3.217
45360W        W 6814  39.377  27.638  14.916
45361W        W 6815  37.954  17.748  14.473
45362W        W 6816  33.018  38.000  13.047
45363W        W 6817  25.488  23.235   3.303
45364W        W 6818   8.763  12.215  12.067
45365W        W 6819  12.741  14.244  13.891
45366W        W 6820  44.291  15.228  14.852
45367W        W 6821   4.874   5.726   0.819
45368W        W 6822  10.259   9.847   4.753
45369W        W 6823  32.578  29.579  14.495
45370W        W 6824  11.177  42.012  12.403
45371W        W 6825   4.319   2.896  10.915
45372W        W 6826  29.125  13.325   3.185
45373W        W 6827  16.215  44.341   4.668
45374W        W 6828  12.847  35.539  10.576
45375W        W 6829  26.001  40.336   0.762
45376W        W 6830  42.363  37.862  11.610
45377W        W 6831  35.067  43.511   1.263
45378W        W 6832   1.312  23.642   3.368
45379W        W 6833  13.111  28.122  13.046
45380W        W 6834  22.226  28.984  12.862
45381W        W 6835  21.647   5.696  13.900
45382W        W 6836   7.401   2.426   0.942
45383W        W 6837  44.790  42.499  12.966
45384W        W 6838   3.908  42.328   1.368
45385W        W 6839  38.041   3.948   3.294
45386W        W 6840   0.796  31.068   1.375
45387W        W 6841   1.809   9.307  12.919
45388W        W 6842  38.899  38.864  11.502
45389W        W 6843  37.993   9.862   3.219
45390W        W 6844  40.869   2.775   2.223
45391W        W 6845  40.305  11.710   4.331
45392W        W 6846  30.422  35.982   1.899
45393W        W 6847  10.685   9.860   4.720
45394W        W 6848  38.944   6.708  12.013
45395W        W 6849  41.425  43.999   3.186
45396W        W 6850  42.020  25.205  14.797
45397W        W 6851  19.643  28.062  11.926
45398W        W 6852  42.816  30.141   0.945
45399W        W 6853  24.029   2.308   1.363
45400W        W 6854  35.515   0.865   4.337
45401W        W 6855  32.975  42.339  12.868
45402W        W 6856  27.682   7.746   0.244
45403W        W 6857  38.905  26.181   1.430
45404W        W 6858   7.781  29.963   3.672
45405W        W 6859  21.690  18.092  12.955
45406W        W 6860  36.553  30.993  14.001
45407W        W 6861  21.587  32.606   0.767
45408W        W 6862  30.943  10.242  10.584
45409W        W 6863  18.151  37.345   2.683
45410W        W 6864  36.371   6.232  12.905
45411W        W 6865  10.710  32.533  14.315
45412W        W 6866  20.549  18.785   0.941
45413W        W 6867  35.019  41.469   3.643
45414W        W 6868  17.560  34.596   1.722
45415W        W 6869   1.888   9.842   1.851
45416W        W 6870  28.521  41.313   4.818
45417W        W 6871   3.920  33.884  11.491
45418W        W 6872   6.275  34.462  14.822
45419W        W 6873  30.922  20.561  10.498
45420W        W 6874  39.499  11.233  13.902
45421W        W 6875  11.331  36.036  12.079
45422W        W 6876   4.840   8.897  10.475
45423W        W 6877  34.053  32.106   3.260
45424W        W 6878  23.103  17.198  11.432
45425W        W 6879  23.629  21.120   3.693
45426W        W 6880  13.649  19.634  12.518
45427W        W 6881  15.203  21.562   3.356
45428W        W 6882  41.533   8.866  11.534
45429W        W 6883  19.179  42.489  13.826
45430W        W 6884  41.314  34.040   1.326
45431W        W 6885   5.274  16.764   4.788
45432W        W 6886  13.679  24.990  13.466
45433W        W 6887   3.773  14.835   4.163
45434W        W 6888  17.748  26.568  12.986
45435W        W 6889  33.082  29.152   3.640
45436W        W 6890  38.519  23.061   4.120
45437W        W 6891  43.509  32.620  12.540
45438W        W 6892  32.613  44.841   0.257
45439W        W 6893  31.541  25.629   0.314
45440W        W 6894  44.004   9.674  13.914
45441W        W 6895  30.609  20.742  14.897
45442W        W 6896  36.520  33.582   1.755
45443W        W 6897  14.624  28.141   3.251
45444W        W 6898  12.117  39.987   1.440
45445W        W 6899   8.164   1.397   4.682
45446W        W 6900  22.196  40.837  10.618
45447W        W 6901  23.176   1.952   2.773
45448W        W 6902  17.794  28.063  11.402
45449W        W 6903  18.653   1.293   2.410
45450W        W 6904  34.557  39.888  10.591
45451W        W 6905   8.661  39.385   4.777
45452W        W 6906  42.884  43.514   1.815
45453W        W 6907   8.704  28.521  11.431
45454W        W 6908  10.871   1.785   0.268
45455W        W 6909  43.792   9.185   4.223
45456W        W 6910  34.502  21.718  14.022
45457W        W 6911  31.628   2.935   2.888
45458W        W 6912  39.044  19.188   3.302
45459W        W 6913   0.478  22.715  13.488
45460W        W 6914  16.804  22.577  13.031
45461W        W 6915  43.018  35.942  12.530
45462W        W 6916  34.587  29.470  10.917
45463W        W 6917  38.505  30.944   2.415
45464W        W 6918  24.581  19.043   1.840
45465W        W 6919   4.929  40.032   1.411
45466W        W 6920  25.015  28.122   0.732
45467W        W 6921  40.521  18.186   2.229
45468W        W 6922   9.306  11.149   4.753
45469W        W 6923  37.041   6.755   0.396
45470W        W 6924  36.439  39.979  13.932
45471W        W 6925  31.411  43.964   4.701
45472W        W 6926  31.085  11.732   3.321
45473W        W 6927  39.402  24.049   1.913
45474W        W 6928  21.615  11.154  11.080
45475W        W 6929   5.736   9.708  10.603
45476W        W 6930  35.471  16.157  14.473
45477W        W 6931  29.097  36.445   2.289
45478W        W 6932  15.093   2.470  12.381
45479W        W 6933  25.481  10.760  11.875
45480W        W 6934  34.873   4.290  12.393
45481W        W 6935  33.899  11.634  11.428
45482W        W 6936  17.188  17.091   3.173
45483W        W 6937  20.259   9.390   4.721
45484W        W 6938   0.268   4.781  12.065
45485W        W 6939  34.596  41.534  11.952
45486W        W 6940  44.912  33.099   3.224
45487W        W 6941  11.151  24.621  11.465
45488W        W 6942  32.943  14.802   4.673
45489W        W 6943  29.480  36.895   1.926
45490W        W 6944  24.643  38.823   0.452
45491W        W 6945  29.069   8.283   0.243
45492W        W 6946  37.416  10.351  10.547
45493W        W 6947  30.435  17.735  10.906
45494W        W 6948  31.947  21.624  12.824
45495W        W 6949  18.737  12.338   2.276
45496W        W 6950  42.827  31.996  14.328
45497W        W 6951  32.482  38.942   1.373
45498W        W 6952   3.816   3.848  11.378
45499W        W 6953  34.929  43.986   2.810
45500W        W 6954  18.637  17.209   4.257
45501W        W 6955  26.555  24.619  10.955
45502W        W 6956  26.130   2.916   0.828
45503W        W 6957  17.589  33.928  14.810
45504W        W 6958   9.758   9.285   3.167
45505W        W 6959  23.206  41.997  14.923
45506W        W 6960   1.896  28.079   1.728
45507W        W 6961  38.000   3.234  12.908
45508W        W 6962  20.599  43.308   1.247
45509W        W 6963   8.367  43.957   0.324
45510W        W 6964  32.963  44.926   3.785
45511W        W 6965  12.316  40.346   1.873
45512W        W 6966  36.515   5.924  14.501
45513W        W 6967   3.220   6.848   0.874
45514W        W 6968  31.587  11.321   2.297
45515W        W 6969  41.895  38.374   0.908
45516W        W 6970  43.390  15.684   2.236
45517W        W 6971  43.985  26.193  13.916
45518W        W 6972  42.359  29.974  10.437
45519W        W 6973  42.316  34.882   4.236
45520W        W 6974  39.462  16.664  11.876
45521W        W 6975  41.306  30.017  13.367
45522W        W 6976   2.890  16.670   2.791
45523W        W 6977   8.397   7.787  11.074
45524W        W 6978  33.971  33.607   4.707
45525W        W 6979   6.422  15.625  13.038
45526W        W 6980   1.966   5.278   1.746
45527W        W 6981   8.656  15.261  12.419
45528W        W 6982  42.317  18.292  13.338
45529W        W 6983  31.591  14.592   0.905
45530W        W 6984  27.550  23.202  11.554
45531W        W 6985  36.470  14.736  14.504
45532W        W 6986   6.359  20.603   2.405
45533W        W 6987   3.280   2.343   0.288
45534W        W 6988  19.747  13.244   2.393
45535W        W 6989   3.760  25.598  14.820
45536W        W 6990  30.931  13.749  10.918
45537W        W 6991  27.178  11.764   1.780
45538W        W 6992  17.064  40.536   2.723
45539W        W 6993   4.722   0.306   3.223
45540W        W 6994   9.149   9.836  11.509
45541W        W 6995   9.851  43.873   1.285
45542W        W 6996  15.807   8.843   2.856
45543W        W 6997   8.781  29.992  13.804
45544W        W 6998  26.046  40.943  11.489
45545W        W 6999  33.910  14.154   2.815
45546W        W 7000  30.105  32.521   3.835
45547W        W 7001  27.599  17.190  11.514
45548W        W 7002  19.591  44.863  13.060
45549W        W 7003  34.480  28.605   2.314
45550W        W 7004  35.474  29.930  10.982
45551W        W 7005  15.695  40.907   1.210
45552W        W 7006  27.674  44.434   3.247
45553W        W 7007  13.615  12.136   5.639
45554W        W 7008  28.632   3.890  10.538
45555W        W 7009  37.504   1.343   3.150
45556W        W 7010   3.346  19.727   2.854
45557W        W 7011  32.545  27.050   4.659
45558W        W 7012   6.196  25.031   3.689
45559W        W 7013  22.026  44.980   3.797
45560W        W 7014   4.229  19.238   1.847
45561W        W 7015  41.323  13.145   4.604
45562W        W 7016  37.399  33.995  10.427
45563W        W 7017  17.072  35.573   0.351
45564W        W 7018  37.056  22.708  14.426
45565W        W 7019  37.917  19.242   3.735
45566W        W 7020   9.849  18.616   3.641
45567W        W 7021  11.308   6.681  14.297
45568W        W 7022   6.775  38.963  12.978
45569W        W 7023  19.208  21.037  14.969
45570W        W 7024  18.195  38.408   2.812
45571W        W 7025   4.240  21.644  12.870
45572W        W 7026  44.788  43.880   4.257
45573W        W 7027  11.677  26.556   2.300
45574W        W 7028  44.395  34.016  11.529
45575W        W 7029  37.442  44.941   0.932
45576W        W 7030  34.945  19.126   1.282
45577W        W 7031  40.422  22.173   3.788
45578W        W 7032  24.001   1.371  14.434
45579W        W 7033  25.188   1.810  13.832
45580W        W 7034  35.369  13.236  10.604
45581W        W 7035  42.405  28.662  12.982
45582W        W 7036   2.350  20.103   2.871
45583W        W 7037  10.359  15.154   3.734
45584W        W 7038  12.636   5.769  10.982
45585W        W 7039  29.113  43.339  10.534
45586W        W 7040  16.117  26.559   1.766
45587W        W 7041  17.764   2.768  13.841
45588W        W 7042  19.232  20.607  14.806
45589W        W 7043  24.107   0.837  14.439
45590W        W 7044  16.303  19.764   2.815
45591W        W 7045  33.391  24.223   3.682
45592W        W 7046  44.990   4.254   0.840
45593W        W 7047   4.734   6.876   1.393
45594W        W 7048  41.511  28.992  12.429
45595W        W 7049  29.600   4.404   2.764
45596W        W 7050   0.355  25.117  12.417
45597W        W 7051  21.051  23.206  11.468
45598W        W 7052  20.211  29.615   4.115
45599W        W 7053  36.355  18.237   3.386
45600W        W 7054  40.857   2.445  12.510
45601W        W 7055   3.824   6.400   0.464
45602W        W 7056  11.272   6.226   2.183
45603W        W 7057  44.893  41.803   1.877
45604W        W 7058   1.309  43.774   4.236
45605W        W 7059  25.066  32.056  10.441
45606W        W 7060   4.843  42.497   2.416
45607W        W 7061   9.878  11.168   3.843
45608W        W 7062  17.132  16.221   4.179
45609W        W 7063  29.616  40.820  12.012
45610W        W 7064   2.339  21.081   1.754
45611W        W 7065  40.813  43.839   0.251
45612W        W 7066  41.903   0.468  13.378
45613W        W 7067  32.937  26.619   1.388
45614W        W 7068  39.477  39.333  13.982
45615W        W 7069  36.452  28.093   2.751
45616W        W 7070   9.155  29.941   2.688
45617W        W 7071  35.894  12.346   1.323
45618W        W 7072  17.566  14.203   3.831
45619W        W 7073  29.988  38.924   2.881
45620W        W 7074  17.720  16.590   3.360
45621W        W 7075  31.582  20.056  10.516
45622W        W 7076  22.246  19.270  14.928
45623W        W 7077   3.270   4.876   0.258
45624W        W 7078  25.069  41.316   3.228
45625W        W 7079  42.812  44.790  14.317
45626W        W 7080  22.592  40.468  11.961
45627W        W 7081  42.504   8.717  12.031
45628W        W 7082  33.005  31.061  10.454
45629W        W 7083  35.867  30.104  13.520
45630W        W 7084  33.605  40.426  14.812
45631W        W 7085  28.981  41.419  13.489
45632W        W 7086  27.616  14.716  14.345
45633W        W 7087  22.587  40.922  10.912
45634W        W 7088  29.008  24.484   3.299
45635W        W 7089  40.014  28.017  11.047
45636W        W 7090   9.239  12.236  10.427
45637W        W 7091  16.624  14.138  13.964
45638W        W 7092   1.884  41.005  12.852
45639W        W 7093   4.332  19.598   1.794
45640W        W 7094  35.855   0.461   1.736
45641W        W 7095  39.396   2.456   3.341
45642W        W 7096  40.361   2.300   4.217
45643W        W 7097  43.356   9.687   1.272
45644W        W 7098  20.703  34.465  14.992
45645W        W 7099  14.621   0.325   1.451
45646W        W 7100  41.995  21.111  12.400
45647W        W 7101  13.759  18.678   0.421
45648W        W 7102  15.792   8.339   4.825
45649W        W 7103   7.202  25.485   3.848
45650W        W 7104  24.687  14.129   0.470
45651W        W 7105   8.172  16.653  10.629
45652W        W 7106  23.080  21.532  13.540
45653W        W 7107  18.684  39.827  13.064
45654W        W 7108   6.760  11.330   0.465
45655W        W 7109  36.003  34.946   1.898
45656W        W 7110  20.750  44.928  14.415
45657W        W 7111  23.579  21.238  12.567
45658W        W 7112  29.468   4.848  14.758
45659W        W 7113  10.265  27.059  13.362
45660W        W 7114   4.863  39.974   0.281
45661W        W 7115  16.643  11.628   3.264
45662W        W 7116  38.407  37.863  12.413
45663W        W 7117  16.698  30.037   2.300
45664W        W 7118  22.187  33.401  13.441
45665W        W 7119  10.710   0.248   0.327
45666W        W 7120   2.961  32.528   2.317
45667W        W 7121  39.462  15.727  11.003
45668W        W 7122   4.266  13.666   1.863
45669W        W 7123   4.935  30.473   2.178
45670W        W 7124  42.897  40.490   4.789
45671W        W 7125  34.984   5.332   3.863
45672W        W 7126  36.950   5.831  12.434
45673W        W 7127  19.218  36.074  10.975
45674W        W 7128  37.889   2.258   3.637
45675W        W 7129  18.188  34.990  14.316
45676W        W 7130  29.600  23.556   3.230
45677W        W 7131  31.557  13.261  14.025
45678W        W 7132   2.315  21.751   3.305
45679W        W 7133  34.438  30.131  13.934
45680W        W 7134   1.954  16.294  14.943
45681W        W 7135  17.087   8.721   3.855
45682W        W 7136  10.149   2.264  12.037
45683W        W 7137  37.834  23.152   1.905
45684W        W 7138  13.213  31.921   3.201
45685W        W 7139  40.389   9.250  13.496
45686W        W 7140  26.493   4.728   1.877
45687W        W 7141  32.927  29.097   0.882
45688W        W 7142  20.526  29.038  13.310
45689W        W 7143  20.135  42.888  10.110
45690W        W 7144   1.418  20.528   4.666
45691W        W 7145  39.409  36.577   1.317
45692W        W 7146  39.959  27.958  14.331
45693W        W 7147  25.035  22.519   2.862
45694W        W 7148  11.322  24.135   3.217
45695W        W 7149  37.414  38.000  13.450
45696W        W 7150  33.902  27.571   4.202
45697W        W 7151   0.343  29.924  11.421
45698W        W 7152  32.902  29.623  12.035
45699W        W 7153  25.669   9.225  14.897
45700W        W 7154  21.618  35.863  11.610
45701W        W 7155   5.884   2.912  11.422
45702W        W 7156  36.587  39.498   2.695
45703W        W 7157  39.375  30.447  14.284
45704W        W 7158  15.796   5.275  13.379
45705W        W 7159  19.250   1.758   3.719
45706W        W 7160  36.916  44.266   4.157
45707W        W 7161   4.447  34.574   4.707
45708W        W 7162   0.334  26.673   1.744
45709W        W 7163  27.580  29.670  12.561
45710W        W 7164  39.487  18.233   3.200
45711W        W 7165   7.808   5.216  10.558
45712W        W 7166  18.194  22.238  11.557
45713W        W 7167  37.927  20.652   0.352
45714W        W 7168  24.582   1.826  12.856
45715W        W 7169  31.943  43.821  10.115
45716W        W 7170  27.983  25.039   2.303
45717W        W 7171  39.057  23.653  11.381
45718W        W 7172  19.677  18.186   4.118
45719W        W 7173  30.087  30.979   4.600
45720W        W 7174  42.306  20.687  11.924
45721W        W 7175  34.500  44.382   0.463
45722W        W 7176  32.594   8.192  11.066
45723W        W 7177  36.496  31.100   3.245
45724W        W 7178  19.565  34.371  13.866
45725W        W 7179  41.445   8.392   0.966
45726W        W 7180   7.834  22.717   4.660
45727W        W 7181  22.025   9.710  12.090
45728W        W 7182  41.412  17.209  14.500
45729W        W 7183  25.992   5.282  12.924
45730W        W 7184   0.986  37.375   4.741
45731W        W 7185  16.303  36.899  13.047
45732W        W 7186  40.432  20.580  10.558
45733W        W 7187  34.105  15.201  13.516
45734W        W 7188   2.777  32.407  10.960
45735W        W 7189   2.286  42.345  14.834
45736W        W 7190  18.286  38.035   2.352
45737W        W 7191  11.722  36.450  14.866
45738W        W 7192  16.781  23.634  11.123
45739W        W 7193  16.149   4.426   3.797
45740W        W 7194  34.508  41.982   1.819
45741W        W 7195  31.991  40.517   1.792
45742W        W 7196  11.821   3.287  10.608
45743W        W 7197   7.222  11.646  12.894
45744W        W 7198  23.565  11.240   1.401
45745W        W 7199  41.800  18.637   3.373
45746W        W 7200  28.039  22.200  13.399
45747W        W 7201   8.184   7.756   2.332
45748W        W 7202  36.352   1.821  13.907
45749W        W 7203  13.723  29.067   0.330
45750W        W 7204  18.675  18.206   2.697
45751W        W 7205  27.605  30.515  11.900
45752W        W 7206  38.876   1.810  14.291
45753W        W 7207   9.880  24.216   3.815
45754W        W 7208  39.354  31.953   1.449
45755W        W 7209  15.257   4.374  14.796
45756W        W 7210   4.411   9.788  12.903
45757W        W 7211  12.210  30.041  14.435
45758W        W 7212   9.261   5.856   2.231
45759W        W 7213   3.860   8.212   0.342
45760W        W 7214  18.779  16.287   0.386
45761W        W 7215  39.940   7.248  13.363
45762W        W 7216  19.089   6.903   3.754
45763W        W 7217  10.307  10.236  12.580
45764W        W 7218   0.427  14.295   1.872
45765W        W 7219  15.638  29.141   1.935
45766W        W 7220  41.507  12.249  12.875
45767W        W 7221   9.223  31.985  13.977
45768W        W 7222  11.228  29.984   4.686
45769W        W 7223   1.257  15.673  14.965
45770W        W 7224  28.998  38.989   1.374
45771W        W 7225  35.994   9.714  11.960
45772W        W 7226   5.390  26.658   0.876
45773W        W 7227  37.398  35.925  14.877
45774W        W 7228  22.583  44.422   0.820
45775W        W 7229   9.730  12.644  11.493
45776W        W 7230  44.400   1.277   1.895
45777W        W 7231   6.305   9.821   0.736
45778W        W 7232  11.217  30.102   0.754
45779W        W 7233  27.041   5.728  14.789
45780W        W 7234   2.469  34.587  11.101
45781W        W 7235  20.029   9.235  13.480
45782W        W 7236  41.040  36.945  13.527
45783W        W 7237  29.056   9.784  14.481
45784W        W 7238  28.104  32.924  11.902
45785W        W 7239   2.343  22.723   2.343
45786W        W 7240  34.939  14.254  14.991
45787W        W 7241  23.239  22.059  11.594
45788W        W 7242  10.735  11.255   0.403
45789W        W 7243  33.057  30.608   4.821
45790W        W 7244  27.009   8.772  12.447
45791W        W 7245  21.079  41.932  14.791
45792W        W 7246  36.866   8.722  14.003
45793W        W 7247   4.815  35.938   4.208
45794W        W 7248  14.784  20.189   1.414
45795W        W 7249   5.728  23.060   0.445
45796W        W 7250   4.704  19.217   2.361
45797W        W 7251   2.737   1.275  14.795
45798W        W 7252   8.196  20.579   3.733
45799W        W 7253   6.221  31.031  11.547
45800W        W 7254  41.345  35.520   4.321
45801W        W 7255  40.049   4.336  13.317
45802W        W 7256  20.734  40.330   1.390
45803W        W 7257  17.638  11.304   2.816
45804W        W 7258  32.913  30.068   0.873
45805W        W 7259  10.237   4.836   5.092
45806W        W 7260   0.780  32.971  10.470
45807W        W 7261  43.397  17.788  10.474
45808W        W 7262  41.015  19.726   4.786
45809W        W 7263  13.720  23.148   4.253
45810W        W 7264  19.059  17.683  11.527
45811W        W 7265  32.494  18.271  11.085
45812W        W 7266   7.195  27.109   4.253
45813W        W 7267  18.133  25.502  11.512
45814W        W 7268  18.590   6.845  12.478
45815W        W 7269  28.622  35.364   5.787
45816W        W 7270   8.171   8.278   4.640
45817W        W 7271  11.833  35.520  11.077
45818W        W 7272  33.110   7.344  14.928
45819W        W 7273  17.570  38.854  13.920
45820W        W 7274  36.456  18.674   3.694
45821W        W 7275  33.130  21.214  12.075
45822W        W 7276  16.273  38.369  14.999
45823W        W 7277  34.548  44.334   2.814
45824W        W 7278   0.265  15.772   1.449
45825W        W 7279  25.164   2.966   3.815
45826W        W 7280  17.157  36.983  11.918
45827W        W 7281   3.432  24.637   3.820
45828W        W 7282   0.325  43.900  11.428
45829W        W 7283  35.029  21.238  14.809
45830W        W 7284  34.384  38.328   0.843
45831W        W 7285  13.736  14.758   2.890
45832W        W 7286  34.090  44.316   3.789
45833W        W 7287  32.487  25.974   3.666
45834W        W 7288  18.063  28.510   4.718
45835W        W 7289  44.283  21.552  12.376
45836W        W 7290  18.162  35.015  13.404
45837W        W 7291  17.643  27.951  13.310
45838W        W 7292   5.296  23.638   4.347
45839W        W 7293   2.965  20.062  13.873
45840W        W 7294  33.002  39.007  12.918
45841W        W 7295  21.087  41.883  13.525
45842W        W 7296   2.828   4.260   4.752
45843W        W 7297  39.034  11.819   1.766
45844W        W 7298   6.227  42.982  11.926
45845W        W 7299  15.198  30.640   1.214
45846W        W 7300  18.163  35.396  12.061
45847W        W 7301  35.497  36.867   4.779
45848W        W 7302  43.271   1.432   1.233
45849W        W 7303  17.729  28.440   1.784
45850W        W 7304  35.533   3.852  11.120
45851W        W 7305  16.152  39.524   1.269
45852W        W 7306   9.313   6.731  11.955
45853W        W 7307  20.661   2.251   2.243
45854W        W 7308  34.062  41.413  11.542
45855W        W 7309   7.361  28.457  13.843
45856W        W 7310  39.893  23.634   4.278
45857W        W 7311  18.099   3.925  11.048
45858W        W 7312  20.612  37.578   1.899
45859W        W 7313  10.177   4.869  13.005
45860W        W 7314  29.575  20.062  13.906
45861W        W 7315   9.654  43.983  10.543
45862W        W 7316  20.106  34.984  12.539
45863W        W 7317  35.513  32.947  13.820
45864W        W 7318  15.733  11.278   0.308
45865W        W 7319  28.562   7.665  11.468
45866W        W 7320  15.269   1.350   4.275
45867W        W 7321  12.249  21.108   1.386
45868W        W 7322  34.445   7.343   0.370
45869W        W 7323  13.329  36.982   2.706
45870W        W 7324  20.592  25.012   1.816
45871W        W 7325  40.865   3.718  14.454
45872W        W 7326  30.481  36.917  10.978
45873W        W 7327  24.121  22.721   0.469
45874W        W 7328   3.447  37.947   1.775
45875W        W 7329   8.234  38.544  10.552
45876W        W 7330  40.885  31.896  10.082
45877W        W 7331  27.490   6.292   2.787
45878W        W 7332  31.567  29.533   3.684
45879W        W 7333   1.959  13.227  12.577
45880W        W 7334  14.158   6.351  10.980
45881W        W 7335  26.489  34.445   4.668
45882W        W 7336  13.720  17.705   1.774
45883W        W 7337  39.394   5.919   2.789
45884W        W 7338  17.737  27.972   1.358
45885W        W 7339  19.744  41.456   4.181
45886W        W 7340  16.778  43.987   4.297
45887W        W 7341  34.368  38.048   3.356
45888W        W 7342  33.058  10.381  13.913
45889W        W 7343  16.236  10.659  13.059
45890W        W 7344  16.270  32.926   4.249
45891W        W 7345  10.841  37.353  11.579
45892W        W 7346  24.637  44.791  12.096
45893W        W 7347  22.249  29.447  11.409
45894W        W 7348  43.832  40.855   0.901
45895W        W 7349  24.043  24.216  10.987
45896W        W 7350  36.069  12.766  14.006
45897W        W 7351  29.574   2.813   2.212
45898W        W 7352  24.025  22.204  12.968
45899W        W 7353   6.324  25.045  14.026
45900W        W 7354   9.714   9.338  10.465
45901W        W 7355  32.913  42.803   1.373
45902W        W 7356  30.551  39.040   0.862
45903W        W 7357  35.852  37.570   2.700
45904W        W 7358  32.612   0.460   1.430
45905W        W 7359  20.728   2.464   0.958
45906W        W 7360  28.511  11.797   9.920
45907W        W 7361  19.648  25.100   3.270
45908W        W 7362  17.069   1.245  12.009
45909W        W 7363  33.022  12.259   3.342
45910W        W 7364  44.418  29.993   4.210
45911W        W 7365  10.875  15.304  14.325
45912W        W 7366   2.870  29.647   3.160
45913W        W 7367  37.377  37.034   5.262
45914W        W 7368  21.077   2.250   1.316
45915W        W 7369  11.329  14.614   2.786
45916W        W 7370  35.861  15.278   2.714
45917W        W 7371  26.510  37.554   4.828
45918W        W 7372  37.985  14.298   2.755
45919W        W 7373  10.286  34.895   4.271
45920W        W 7374  38.845  14.767  10.932
45921W        W 7375  34.379   0.446   1.407
45922W        W 7376  18.755  10.189  13.891
45923W        W 7377  43.851  30.085  11.913
45924W        W 7378  27.462  35.922   3.370
45925W        W 7379   0.346   9.764  10.410
45926W        W 7380  34.102  26.597  12.850
45927W        W 7381  25.119  30.615  12.040
45928W        W 7382  32.579  15.728  13.889
45929W        W 7383   7.189  41.340  11.915
45930W        W 7384  41.932  25.609  10.992
45931W        W 7385   3.462   4.717   1.297
45932W        W 7386  18.279   3.307  12.054
45933W        W 7387  25.148   1.273   2.790
45934W        W 7388  23.671  13.802   2.802
45935W        W 7389   2.443   6.874   4.771
45936W        W 7390  27.623  32.912   1.702
45937W        W 7391   3.309  11.721  13.401
45938W        W 7392   2.353  12.205   4.680
45939W        W 7393  12.130  44.945  14.871
45940W        W 7394  14.276  18.611   3.346
45941W        W 7395   5.928  23.141   1.715
45942W        W 7396  23.512   3.275  10.600
45943W        W 7397   0.797  31.402   0.376
45944W        W 7398  10.371  38.451  13.535
45945W        W 7399   1.326  36.537   1.361
45946W        W 7400  29.654  12.748  10.929
45947W        W 7401  29.517  24.665   5.704
45948W        W 7402  11.244  32.012  11.070
45949W        W 7403  33.926   8.855  10.594
45950W        W 7404  26.605   1.756   0.256
45951W        W 7405  30.995  43.429  10.474
45952W        W 7406  34.879  44.504   2.685
45953W        W 7407  19.110  26.463   2.708
45954W        W 7408   7.263  19.174   4.318
45955W        W 7409  15.737  11.859   3.383
45956W        W 7410  27.122  18.602  12.872
45957W        W 7411   8.866  37.831   2.678
45958W        W 7412  12.641  44.905  12.403
45959W        W 7413   0.882  25.615   4.622
45960W        W 7414   8.188  33.400   0.342
45961W        W 7415   5.689  22.613  12.951
45962W        W 7416  39.547  22.147   4.638
45963W        W 7417  33.428  40.372   3.631
45964W        W 7418  13.140  39.871  13.997
45965W        W 7419  21.111  15.684   2.215
45966W        W 7420  16.566  14.590  14.771
45967W        W 7421  32.046  13.143   1.262
45968W        W 7422  16.805  16.270   0.468
45969W        W 7423  44.428  21.683   2.399
45970W        W 7424  33.129   1.938  11.054
45971W        W 7425  33.592  18.772   0.924
45972W        W 7426  29.449  31.009   0.348
45973W        W 7427  26.057   4.220   1.437
45974W        W 7428  27.603  32.591   5.795
45975W        W 7429  14.597  30.649  14.390
45976W        W 7430   6.182   6.684   2.395
45977W        W 7431  17.264  29.480   0.736
45978W        W 7432  34.524   0.487   2.345
45979W        W 7433  15.794  10.702  12.515
45980W        W 7434  11.694  33.558   0.880
45981W        W 7435   5.807  14.606  14.385
45982W        W 7436  37.867   8.330  13.874
45983W        W 7437  24.103  42.901  11.923
45984W        W 7438  11.171   3.236  10.513
45985W        W 7439  42.848  39.521  12.064
45986W        W 7440  19.117  42.506   4.734
45987W        W 7441  25.036  28.072  11.517
45988W        W 7442  33.948  25.602   1.288
45989W        W 7443  24.570  40.346   3.728
45990W        W 7444  43.019   8.674   1.716
45991W        W 7445  41.896  33.451   3.361
45992W        W 7446  27.039   7.731   3.266
45993W        W 7447  17.733  42.359   1.898
45994W        W 7448   1.882  10.737  10.537
45995W        W 7449  15.262  38.404  12.572
45996W        W 7450   1.256  10.781   1.850
45997W        W 7451  27.040  35.871  11.508
45998W        W 7452  35.886  31.934   1.216
45999W        W 7453   5.789  33.017  14.890
46000W        W 7454  26.597   1.440   1.764
46001W        W 7455   2.804  17.644  13.333
46002W        W 7456  33.984   4.922   4.315
46003W        W 7457  41.307   3.914  11.546
46004W        W 7458   6.229  21.152  11.399
46005W        W 7459   9.805   4.720  12.861
46006W        W 7460   2.948   0.912   4.701
46007W        W 7461  12.683  33.405   3.743
46008W        W 7462  40.017  33.622   4.333
46009W        W 7463  22.202  14.747  12.056
46010W        W 7464  37.506  20.097   2.833
46011W        W 7465  25.636  35.873   3.634
46012W        W 7466  32.568   3.911  13.437
46013W        W 7467  35.943   3.798  11.986
46014W        W 7468  24.096  18.263   4.684
46015W        W 7469   1.460  29.578  12.037
46016W        W 7470  41.443  24.537   2.693
46017W        W 7471  35.008  17.593   3.386
46018W        W 7472  38.364  18.561  14.515
46019W        W 7473  44.422   4.236   4.265
46020W        W 7474  15.294  44.473   0.843
46021W        W 7475  18.178  10.140  10.929
46022W        W 7476  36.870  44.291  13.967
46023W        W 7477   3.245  22.145  11.538
46024W        W 7478   3.752   3.221   4.706
46025W        W 7479   1.906  31.956  14.808
46026W        W 7480  20.657  23.610   4.126
46027W        W 7481   3.302  41.867  14.842
46028W        W 7482  15.305   1.444   1.793
46029W        W 7483  40.868  29.423   4.240
46030W        W 7484  12.360  40.964   3.268
46031W        W 7485  38.841   9.317   4.334
46032W        W 7486  42.903  25.997   3.268
46033W        W 7487  42.413  44.796   2.880
46034W        W 7488  19.271  31.116  12.372
46035W        W 7489  35.107  15.771  12.059
46036W        W 7490  22.112  41.402  12.943
46037W        W 7491   2.942  15.690  10.518
46038W        W 7492  25.163  35.460   4.626
46039W        W 7493  26.512  26.564   3.701
46040W        W 7494  18.575  17.086  14.951
46041W        W 7495  12.275  36.430  12.843
46042W        W 7496  43.486  10.276   4.743
46043W        W 7497   7.264  42.961   1.697
46044W        W 7498  31.984   9.705  13.815
46045W        W 7499  29.463  17.713   0.794
46046W        W 7500  18.099  28.131  12.379
46047W        W 7501  10.851   2.287  12.368
46048W        W 7502  15.308  29.449  10.538
46049W        W 7503  26.673  25.158  12.481
46050W        W 7504  25.201   5.221  10.927
46051W        W 7505  23.556  39.967   0.952
46052W        W 7506  25.023  41.432  13.006
46053W        W 7507  15.668  10.819   1.369
46054W        W 7508  11.354   7.173   0.732
46055W        W 7509  29.082  42.006  11.535
46056W        W 7510  30.116  11.195  14.868
46057W        W 7511   5.266   1.875  12.013
46058W        W 7512  33.442  35.060  13.450
46059W        W 7513  27.682  44.945   1.218
46060W        W 7514  19.629   9.277   1.405
46061W        W 7515  29.661  44.453  12.854
46062W        W 7516  37.049  33.044   0.418
46063W        W 7517  20.037  34.515   3.151
46064W        W 7518  14.137  33.100   2.373
46065W        W 7519  26.599  14.099   2.319
46066W        W 7520   7.820  36.430  13.491
46067W        W 7521  31.451   8.716   1.286
46068W        W 7522  27.033   5.419   2.755
46069W        W 7523   7.706  32.114   2.247
46070W        W 7524  31.641  31.007   2.225
46071W        W 7525  29.611   5.815   1.726
46072W        W 7526  11.296  10.700   3.158
46073W        W 7527  19.141  34.052  13.933
46074W        W 7528  35.445  15.742   3.714
46075W        W 7529  34.561   2.311   3.634
46076W        W 7530  33.555   7.231  14.339
46077W        W 7531   0.768  27.180  10.631
46078W        W 7532   9.322  11.790  10.506
46079W        W 7533  17.125  22.501  12.082
46080W        W 7534  30.096  28.145  10.621
46081W        W 7535  35.907  31.030   5.193
46082W        W 7536  37.513   5.856  12.413
46083W        W 7537  34.557   8.885   4.694
46084W        W 7538  34.924   1.959   1.905
46085W        W 7539  19.740  19.759  14.007
46086W        W 7540  44.921  17.766   1.876
46087W        W 7541  20.266   7.184   3.785
46088W        W 7542  24.510   8.662   1.279
46089W        W 7543   1.277  25.563   1.793
46090W        W 7544  25.095  29.979   0.252
46091W        W 7545   8.374  23.667   0.814
46092W        W 7546  25.979  40.924   0.886
46093W        W 7547  37.375  32.013   1.875
46094W        W 7548  17.066  20.056  11.941
46095W        W 7549   4.838  16.687  11.557
46096W        W 7550  27.943   4.277   2.756
46097W        W 7551  17.063  35.881   2.323
46098W        W 7552  42.834   3.432   3.735
46099W        W 7553  12.731  18.260   1.391
46100W        W 7554  12.622   1.802   3.638
46101W        W 7555  38.035  29.080   0.729
46102W        W 7556   1.302  27.171   2.299
46103W        W 7557  23.669  18.772  10.957
46104W        W 7558   4.317  21.028  13.513
46105W        W 7559  31.150  23.557   2.814
46106W        W 7560  44.939  42.285   3.277
46107W        W 7561  29.667  27.558  12.419
46108W        W 7562  29.134  21.640   2.193
46109W        W 7563  40.328  43.913  13.361
46110W        W 7564  19.649  19.661   2.310
46111W        W 7565   5.290  40.473  10.113
46112W        W 7566  38.470  28.571  12.828
46113W        W 7567  30.960  28.967  12.909
46114W        W 7568  16.093  38.403  11.404
46115W        W 7569  43.401  34.864   0.929
46116W        W 7570  11.147  10.384  10.456
46117W        W 7571  19.702  34.009   4.807
46118W        W 7572  23.218  17.755   2.853
46119W        W 7573  24.068  23.229   4.701
46120W        W 7574  17.140  11.746  13.461
46121W        W 7575  22.649  34.465   0.383
46122W        W 7576  34.880   9.762  12.385
46123W        W 7577  28.080  36.395  11.891
46124W        W 7578  19.578   5.241   1.789
46125W        W 7579  39.889  15.711   0.278
46126W        W 7580  12.783  24.549   3.689
46127W        W 7581  26.178  16.230   1.731
46128W        W 7582  33.466  36.353  14.469
46129W        W 7583  18.721  12.789  12.480
46130W        W 7584  21.171  40.882   0.298
46131W        W 7585  26.688  16.681   1.255
46132W        W 7586  31.600  36.022   4.288
46133W        W 7587  39.040  41.979  10.080
46134W        W 7588  26.667   4.848   3.812
46135W        W 7589  20.676  30.562   0.334
46136W        W 7590  43.784  36.033  13.847
46137W        W 7591  22.623  39.349   1.748
46138W        W 7592  16.198  30.505   1.797
46139W        W 7593  29.970  37.538  12.855
46140W        W 7594  14.200  12.726  11.937
46141W        W 7595   6.801  23.984  13.402
46142W        W 7596  11.161  10.244   0.356
46143W        W 7597   2.887  26.955  10.454
46144W        W 7598  29.982   5.695  10.511
46145W        W 7599  22.063  32.454   1.255
46146W        W 7600   2.374  17.211  11.462
46147W        W 7601  15.244  23.138   4.271
46148W        W 7602  42.932   4.847   1.894
46149W        W 7603  20.101   9.280  14.389
46150W        W 7604  43.408  41.859  14.481
46151W        W 7605  25.993  38.498  10.570
46152W        W 7606  24.099  13.337   3.194
46153W        W 7607  12.827  21.111   4.343
46154W        W 7608  23.639  28.967   1.362
46155W        W 7609   6.343  39.336  14.368
46156W        W 7610  22.117  22.050  10.565
46157W        W 7611  16.725  10.816   4.605
46158W        W 7612  40.976   6.787  12.504
46159W        W 7613  37.582  30.931  12.051
46160W        W 7614   5.308  43.958  10.412
46161W        W 7615  30.154   0.402  10.990
46162W        W 7616   2.245  24.524   1.329
46163W        W 7617   7.173   8.734  12.408
46164W        W 7618  33.108  22.018  11.454
46165W        W 7619  28.099   4.341  14.788
46166W        W 7620  35.083  18.547  10.916
46167W        W 7621  14.178  41.453  13.022
46168W        W 7622  27.541   5.822  11.972
46169W        W 7623  19.212   8.296   4.244
46170W        W 7624  40.359  11.353  12.087
46171W        W 7625  25.120  18.599  11.433
46172W        W 7626  13.348   8.750   1.814
46173W        W 7627  12.201  30.500   1.926
46174W        W 7628   2.458   7.388   4.808
46175W        W 7629  33.917  22.191  14.486
46176W        W 7630  43.473  20.167  13.488
46177W        W 7631  22.013  26.458   1.770
46178W        W 7632   7.323  26.036   1.378
46179W        W 7633  22.012   1.855  13.377
46180W        W 7634  15.617  18.141  13.957
46181W        W 7635  38.530   3.740  11.443
46182W        W 7636  38.547  38.545   5.124
46183W        W 7637  24.160  18.213  11.561
46184W        W 7638  37.528  31.460   0.751
46185W        W 7639  38.405  23.192  10.918
46186W        W 7640  31.606   2.814  11.546
46187W        W 7641   3.233  24.150   2.182
46188W        W 7642  18.167  12.314  14.376
46189W        W 7643  11.624  10.760  10.940
46190W        W 7644  36.485  32.966  11.471
46191W        W 7645  41.807   2.305  11.124
46192W        W 7646  16.100  24.998  14.293
46193W        W 7647  19.069  36.036   1.699
46194W        W 7648  34.596  32.488   2.711
46195W        W 7649  29.048  38.542  11.910
46196W        W 7650  11.663  21.620  13.036
46197W        W 7651  18.715  29.155  10.438
46198W        W 7652   2.784  24.126  13.044
46199W        W 7653  35.919  44.960   1.716
46200W        W 7654  28.940  28.174  14.851
46201W        W 7655  42.831  35.448  13.839
46202W        W 7656  16.099  41.950  12.499
46203W        W 7657   9.323  23.056   4.191
46204W        W 7658  38.824   3.919  14.347
46205W        W 7659  22.580  34.489   4.300
46206W        W 7660  24.506   6.744   0.419
46207W        W 7661  29.030  14.171  12.362
46208W        W 7662   1.820  24.134   0.897
46209W        W 7663  27.477   1.762   0.425
46210W        W 7664  34.020  29.478  11.556
46211W        W 7665  40.940  24.582  10.568
46212W        W 7666  13.686  32.570  11.126
46213W        W 7667  19.218   2.356  13.424
46214W        W 7668  12.800  42.020   3.723
46215W        W 7669  14.314  38.069  10.927
46216W        W 7670   0.943   3.255  14.365
46217W        W 7671  41.966  15.652  12.577
46218W        W 7672  27.479   5.296  13.433
46219W        W 7673   2.422  41.351  11.410
46220W        W 7674  42.473  41.510   4.744
46221W        W 7675  19.231   8.728  13.000
46222W        W 7676  35.582  34.418  12.438
46223W        W 7677  29.947   9.191   9.501
46224W        W 7678  20.105  37.561  11.980
46225W        W 7679  20.180  24.980  10.083
46226W        W 7680  32.461  25.535  14.927
46227W        W 7681  17.189  16.678  14.981
46228W        W 7682  31.472  12.624   5.285
46229W        W 7683  11.625  17.594  14.800
46230W        W 7684  21.251  24.998  13.446
46231W        W 7685  23.021  41.937   3.189
46232W        W 7686   7.401  36.416  12.464
46233W        W 7687  16.663   9.766   4.123
46234W        W 7688  35.485  39.450   9.558
46235W        W 7689  21.721  43.472  13.362
46236W        W 7690  40.055   8.886   3.369
46237W        W 7691  17.278  42.469   2.829
46238W        W 7692  40.827   6.866   1.766
46239W        W 7693   7.769  29.162  14.288
46240W        W 7694  44.891  31.042  11.569
46241W        W 7695  27.053  14.125  10.934
46242W        W 7696   4.248  17.062   3.369
46243W        W 7697   0.799   7.413   1.244
46244W        W 7698  10.273  33.520   0.342
46245W        W 7699  21.034  30.937  12.053
46246W        W 7700  30.917   9.846   1.217
46247W        W 7701  23.577   0.847  13.440
46248W        W 7702  34.474  28.463   1.841
46249W        W 7703  13.138  37.439  10.935
46250W        W 7704   4.728   0.427  12.958
46251W        W 7705  31.000  29.959   1.886
46252W        W 7706  32.919  26.654  12.468
46253W        W 7707  30.032  14.162  11.009
46254W        W 7708   7.801  43.344   3.823
46255W        W 7709   5.356  13.841   0.271
46256W        W 7710   6.391   1.759  10.474
46257W        W 7711  13.294  12.321  10.006
46258W        W 7712  38.483  12.653  10.628
46259W        W 7713   4.857   2.266  10.938
46260W        W 7714   0.250  25.634   3.341
46261W        W 7715  18.268  30.503  14.469
46262W        W 7716  15.223  38.487   5.215
46263W        W 7717  40.331   5.254  11.472
46264W        W 7718  13.675  39.046   2.344
46265W        W 7719   3.730   5.902  13.510
46266W        W 7720   6.239  29.066  14.503
46267W        W 7721   8.776  14.754  13.368
46268W        W 7722  38.414   5.795   4.194
46269W        W 7723  38.345  39.020  10.026
46270W        W 7724  17.150  18.702  11.049
46271W        W 7725  19.617   0.397  11.991
46272W        W 7726  25.046  41.041  14.961
46273W        W 7727  26.631  44.761  13.954
46274W        W 7728  22.043  36.580   0.824
46275W        W 7729  15.218  30.023   2.851
46276W        W 7730   1.435  28.144  14.902
46277W        W 7731  13.702  38.367  11.913
46278W        W 7732  15.580  39.396   0.383
46279W        W 7733   0.981  20.679   1.399
46280W        W 7734   7.694  14.693   2.411
46281W        W 7735   7.777  24.711   3.185
46282W        W 7736   6.834   8.382   0.384
46283W        W 7737  43.445   0.970  11.602
46284W        W 7738  32.486  42.919   2.187
46285W        W 7739   4.445  28.015  10.932
46286W        W 7740  35.926  23.228  13.429
46287W        W 7741  33.495  26.017   3.665
46288W        W 7742  33.027  40.386  14.333
46289W        W 7743  18.240  20.686   1.855
46290W        W 7744  43.342  20.121   2.331
46291W        W 7745  28.185  38.966   4.597
46292W        W 7746  32.980  23.685   2.711
46293W        W 7747  12.353  40.476   2.245
46294W        W 7748  31.056   4.339   0.481
46295W        W 7749  20.241   4.851   0.303
46296W        W 7750   2.318  26.183   3.868
46297W        W 7751  15.761  34.504   0.473
46298W        W 7752  34.578  20.719   3.781
46299W        W 7753  12.160   0.764   0.269
46300W        W 7754  18.701   7.405  10.971
46301W        W 7755  38.074  12.697   3.280
46302W        W 7756   4.932   5.717  10.020
46303W        W 7757  42.400  35.067  12.360
46304W        W 7758  41.794  23.526   0.301
46305W        W 7759  13.254  22.562  12.002
46306W        W 7760  12.828  41.826  12.483
46307W        W 7761  17.687  18.278  13.487
46308W        W 7762  25.078   6.706  10.952
46309W        W 7763   9.307  36.549  12.511
46310W        W 7764  26.629  25.496  14.789
46311W        W 7765  24.098  32.055  10.977
46312W        W 7766  32.045  20.051   1.748
46313W        W 7767  29.092  30.007  14.302
46314W        W 7768   5.296  41.797  14.301
46315W        W 7769  11.822  18.178   0.456
46316W        W 7770  40.449  13.153  12.849
46317W        W 7771  29.434  33.947  14.870
46318W        W 7772  31.519  33.034   0.873
46319W        W 7773  13.195  41.916   1.339
46320W        W 7774  40.927  41.822   3.195
46321W        W 7775   9.868  39.380  14.466
46322W        W 7776  43.485  10.377  11.414
46323W        W 7777   3.457  19.271  12.847
46324W        W 7778   2.320  20.119  14.022
46325W        W 7779  19.063  26.622   2.367
46326W        W 7780   5.239  27.643  13.515
46327W        W 7781  38.916  39.512   1.722
46328W        W 7782  24.702   1.825  11.524
46329W        W 7783  26.568  33.930  13.377
46330W        W 7784  31.958  30.434  10.992
46331W        W 7785  30.935  27.531  11.005
46332W        W 7786  40.475  32.020  11.105
46333W        W 7787   1.768  11.232   3.752
46334W        W 7788  28.670  43.452  10.582
46335W        W 7789  35.994  33.073   4.634
46336W        W 7790   6.196  28.121  13.471
46337W        W 7791  26.153  28.178  12.404
46338W        W 7792  15.156  30.009  12.920
46339W        W 7793  16.157  34.925   2.889
46340W        W 7794  19.180  29.965   0.928
46341W        W 7795  37.371  11.216   0.322
46342W        W 7796  16.294  24.049  12.390
46343W        W 7797  29.089  18.146   1.872
46344W        W 7798   2.466   3.885   2.717
46345W        W 7799  20.067   9.287  12.386
46346W        W 7800  11.796  12.680  10.425
46347W        W 7801   5.223  42.016   1.761
46348W        W 7802   7.860   8.751  14.501
46349W        W 7803  39.979  21.638   4.319
46350W        W 7804  26.494  41.018   1.800
46351W        W 7805  32.506  31.402   2.838
46352W        W 7806  20.592  22.123   2.698
46353W        W 7807   9.876   7.881  14.993
46354W        W 7808  28.120   6.785  10.590
46355W        W 7809  34.957  41.044  11.528
46356W        W 7810  27.477   1.457   0.904
46357W        W 7811  18.604  10.280   9.953
46358W        W 7812  17.779  38.067  11.561
46359W        W 7813  11.807  12.628  10.062
46360W        W 7814   5.294  21.627   3.148
46361W        W 7815  33.586  34.988  12.032
46362W        W 7816  26.174  22.674  11.513
46363W        W 7817   7.414   3.867  14.980
46364W        W 7818  10.206  24.040  12.497
46365W        W 7819  12.330  38.073  10.489
46366W        W 7820  16.761  19.268   2.393
46367W        W 7821   7.266  22.606   1.408
46368W        W 7822  20.699  21.140   0.910
46369W        W 7823  35.068  31.016  11.529
46370W        W 7824  43.403   4.840   0.941
46371W        W 7825  21.673  22.600  11.478
46372W        W 7826  11.771  31.622  14.912
46373W        W 7827  16.255  31.906  11.968
46374W        W 7828   8.225  15.268  13.328
46375W        W 7829  14.618   7.844   3.340
46376W        W 7830  41.020  36.465  12.489
46377W        W 7831  29.085  10.186   0.311
46378W        W 7832  16.310  39.394   1.777
46379W        W 7833  29.118   6.882  12.359
46380W        W 7834   9.354   6.256  12.391
46381W        W 7835  18.104  22.058   0.415
46382W        W 7836  18.083  15.801   2.402
46383W        W 7837  18.703   7.688  14.815
46384W        W 7838  31.119  19.109   0.472
46385W        W 7839  10.175  13.750  13.537
46386W        W 7840  26.029  42.862   1.394
46387W        W 7841  17.703  11.357  10.889
46388W        W 7842  20.209  39.030  13.934
46389W        W 7843  42.833  40.467   3.193
46390W        W 7844  38.959  30.991   2.180
46391W        W 7845  17.710  19.692   0.842
46392W        W 7846   0.982  16.147  12.506
46393W        W 7847   2.293  42.525  11.525
46394W        W 7848  24.521   5.832  12.841
46395W        W 7849  41.968  40.364   0.335
46396W        W 7850  33.070  16.668   2.234
46397W        W 7851  43.439  13.789  10.511
46398W        W 7852  33.397  22.638   2.414
46399W        W 7853  24.138  34.384   2.300
46400W        W 7854   2.253  13.680   4.148
46401W        W 7855  10.798  32.395   2.844
46402W        W 7856  14.228  26.461   2.184
46403W        W 7857  26.032  37.499  10.645
46404W        W 7858   7.886  19.066  14.026
46405W        W 7859  16.745  31.610   3.354
46406W        W 7860   5.794  16.776  13.951
46407W        W 7861  22.536  37.546   4.776
46408W        W 7862  16.604  33.484  14.438
46409W        W 7863  26.501  43.374   3.329
46410W        W 7864  43.491  38.398  13.477
46411W        W 7865  28.516  25.086  11.992
46412W        W 7866   1.454  37.540   2.807
46413W        W 7867  25.612  42.904  12.574
46414W        W 7868  28.502  30.130   0.347
46415W        W 7869  27.505  12.254   1.779
46416W        W 7870   0.384  19.100  11.602
46417W        W 7871  41.948  20.161   2.671
46418W        W 7872  15.702  11.185   2.751
46419W        W 7873   5.280  36.520   4.803
46420W        W 7874  27.994  25.972  13.981
46421W        W 7875  20.245  10.246  13.383
46422W        W 7876  10.866  34.500   1.356
46423W        W 7877  31.966  36.044   0.305
46424W        W 7878  18.603  43.932   2.755
46425W        W 7879  44.946  19.150   4.735
46426W        W 7880   4.758   4.287  13.501
46427W        W 7881  10.791  33.909  13.454
46428W        W 7882  16.109  29.442   1.439
46429W        W 7883   3.875  10.637   4.636
46430W        W 7884  37.060   3.273   1.824
46431W        W 7885   9.726   2.925   3.798
46432W        W 7886  18.080  26.203  14.823
46433W        W 7887  14.232  20.174   2.373
46434W        W 7888  40.038  14.590   1.704
46435W        W 7889  36.094  38.529   0.336
46436W        W 7890  31.970   4.827  14.936
46437W        W 7891  11.680  11.330   2.715
46438W        W 7892  38.350  34.538   2.330
46439W        W 7893  34.459   1.771   2.719
46440W        W 7894  21.705  21.172  13.949
46441W        W 7895  35.489  27.538  13.899
46442W        W 7896  42.345  39.357   3.701
46443W        W 7897  40.998  35.544   3.206
46444W        W 7898   4.823   2.304   3.668
46445W        W 7899  11.256  19.672   1.812
46446W        W 7900  27.972  36.537   4.124
46447W        W 7901  42.373  32.983   2.359
46448W        W 7902   4.908   1.949   4.659
46449W        W 7903  11.811  42.796   4.836
46450W        W 7904  36.073  22.152   3.307
46451W        W 7905  24.691  30.966  12.832
46452W        W 7906   1.279   0.388  10.584
46453W        W 7907  26.193  42.930   3.799
46454W        W 7908   6.838  19.688  13.546
46455W        W 7909  16.152   2.315  10.410
46456W        W 7910  38.055  23.143   3.204
46457W        W 7911  17.671  44.958   0.965
46458W        W 7912  43.510  22.032  14.966
46459W        W 7913  17.598  29.588   4.786
46460W        W 7914  36.424  33.001  14.791
46461W        W 7915  42.834   9.710   4.348
46462W        W 7916  34.900  24.545   2.822
46463W        W 7917  17.112  40.371   5.225
46464W        W 7918  44.460  10.649  14.008
46465W        W 7919  31.459  12.331   2.185
46466W        W 7920  15.246  21.672   4.191
46467W        W 7921  34.106  13.318   0.331
46468W        W 7922  42.977  23.709  13.313
46469W        W 7923  19.048  22.084  10.642
46470W        W 7924  11.805  24.998  14.982
46471W        W 7925  36.976   1.418  13.993
46472W        W 7926  14.311  23.524  10.934
46473W        W 7927   4.432   5.728   1.792
46474W        W 7928   7.178  31.448  14.452
46475W        W 7929  35.894   3.825   2.753
46476W        W 7930   1.898   9.243  13.497
46477W        W 7931  27.688  38.915  10.485
46478W        W 7932  35.580   4.819  13.063
46479W        W 7933  40.870  20.651   0.413
46480W        W 7934  36.016  11.746   0.906
46481W        W 7935  38.875   0.277   2.238
46482W        W 7936  32.054  38.889   3.151
46483W        W 7937  32.518  44.968  13.038
46484W        W 7938  20.119   8.844   1.728
46485W        W 7939   3.783   0.292   4.639
46486W        W 7940  35.001   7.287   1.765
46487W        W 7941  44.412   0.930  13.887
46488W        W 7942  15.786  21.615  13.850
46489W        W 7943  19.585   9.207  12.428
46490W        W 7944  17.241  28.978   4.165
46491W        W 7945   6.917  21.714   1.871
46492W        W 7946   7.196  37.348  11.443
46493W        W 7947  31.458  31.506   1.817
46494W        W 7948  21.517  18.183   2.345
46495W        W 7949  35.487  26.573   3.313
46496W        W 7950   5.876  16.224  13.504
46497W        W 7951  30.470  14.666   2.275
46498W        W 7952  30.068   5.759   2.349
46499W        W 7953  17.295  15.607   0.961
46500W        W 7954  34.120   8.846  13.395
46501W        W 7955  38.388   1.248  12.935
46502W        W 7956  24.079  11.773   3.201
46503W        W 7957  36.436   1.916  11.955
46504W        W 7958  30.555  32.067  12.395
46505W        W 7959  15.239   8.669   4.147
46506W        W 7960   2.448  40.359   3.857
46507W        W 7961  41.845   3.262   1.303
46508W        W 7962  43.788  23.651  11.921
46509W        W 7963  15.642   4.801   4.140
46510W        W 7964  22.622  25.690   0.816
46511W        W 7965  17.302  34.564   2.196
46512W        W 7966  16.588   9.372   4.746
46513W        W 7967  29.496  20.201   3.238
46514W        W 7968  12.340  30.536  14.950
46515W        W 7969  38.970   9.296  13.838
46516W        W 7970   0.820   5.854   0.942
46517W        W 7971  41.887  12.713   4.752
46518W        W 7972  37.836  10.341   1.699
46519W        W 7973  23.704   6.741   2.394
46520W        W 7974  20.544  41.356   4.722
46521W        W 7975  16.652  22.616   1.867
46522W        W 7976  26.619   0.331   4.732
46523W        W 7977  40.534  16.778   1.700
46524W        W 7978  19.561  27.123   1.335
46525W        W 7979  39.507  27.161   2.817
46526W        W 7980   3.247  34.552  11.435
46527W        W 7981   5.887  13.804  14.497
46528W        W 7982  13.133  20.528   4.179
46529W        W 7983   4.812   8.343  10.479
46530W        W 7984  32.502  39.357  12.547
46531W        W 7985   9.276  17.107  14.890
46532W        W 7986  30.444  12.661  14.838
46533W        W 7987  11.265  31.558  11.973
46534W        W 7988  33.045  28.974   4.623
46535W        W 7989  12.805  27.012   4.192
46536W        W 7990  19.118  23.682  14.901
46537W        W 7991  13.216  36.382   3.670
46538W        W 7992  39.346  12.768  10.477
46539W        W 7993  31.058  39.032  10.152
46540W        W 7994  11.340  40.432   5.110
46541W        W 7995  31.955   0.945   4.791
46542W        W 7996  32.908   0.783   3.827
46543W        W 7997   1.773  41.988   1.377
46544W        W 7998  23.526  20.262   3.306
46545W        W 7999  14.714  35.054  12.897
46546W        W 8000   2.834  39.063   0.453
46547W        W 8001  27.547  13.643   3.365
46548W        W 8002  38.960  11.235  13.330
46549W        W 8003   6.764  25.065  13.379
46550W        W 8004  32.541  35.553   4.314
46551W        W 8005  13.696  26.955  13.999
46552W        W 8006  41.429  37.889  14.353
46553W        W 8007   1.392   3.243   4.741
46554W        W 8008  44.322  20.268  12.073
46555W        W 8009  41.534  16.279   1.744
46556W        W 8010  24.522  25.999   2.687
46557W        W 8011  44.765  20.105  10.633
46558W        W 8012  15.238  26.469   4.791
46559W        W 8013  20.536  11.634  13.857
46560W        W 8014  11.273   9.742   0.373
46561W        W 8015   8.168  11.346   0.311
46562W        W 8016   4.273  13.798  11.899
46563W        W 8017  18.551  35.974   4.706
46564W        W 8018   4.941   1.880  13.315
46565W        W 8019   6.721  36.018  13.994
46566W        W 8020  44.439   1.923   0.942
46567W        W 8021  28.033   9.678  14.902
46568W        W 8022  44.320  37.382  13.390
46569W        W 8023  11.730  33.414   4.688
46570W        W 8024  37.868  27.462  10.643
46571W        W 8025  44.288  41.033   3.859
46572W        W 8026  17.564  22.220   0.461
46573W        W 8027  15.772  26.072  11.992
46574W        W 8028   0.356  10.215   0.463
46575W        W 8029  30.513   4.446   2.293
46576W        W 8030  35.454  44.789   4.610
46577W        W 8031  32.100  41.518   1.880
46578W        W 8032  29.147  37.354   2.790
46579W        W 8033  35.360  18.592   1.393
46580W        W 8034  23.514  29.622   1.824
46581W        W 8035  25.509  33.887  11.021
46582W        W 8036   8.316  35.535   5.806
46583W        W 8037   2.861  12.729  14.485
46584W        W 8038  34.994  33.011   0.427
46585W        W 8039  11.353  28.626   1.783
46586W        W 8040   2.940   6.328  12.946
46587W        W 8041   0.372  30.642  12.046
46588W        W 8042  26.005  11.653   4.117
46589W        W 8043  11.832  34.429  11.020
46590W        W 8044  12.329  42.929  13.351
46591W        W 8045  40.464  36.461  13.796
46592W        W 8046  44.848  37.012   0.826
46593W        W 8047  27.468  28.992   2.181
46594W        W 8048  28.526  26.587   3.677
46595W        W 8049  16.730   5.804  12.458
46596W        W 8050  10.188  32.579  12.924
46597W        W 8051  36.901  26.618   2.418
46598W        W 8052  23.519   6.796  10.479
46599W        W 8053  28.473  18.784  11.073
46600W        W 8054  29.012  41.387   4.140
46601W        W 8055   2.357   1.339  11.499
46602W        W 8056  36.842   3.924  13.481
46603W        W 8057   0.803  20.136   1.295
46604W        W 8058   1.954   9.871  14.857
46605W        W 8059   1.796   7.714   0.780
46606W        W 8060   6.374  18.198   1.248
46607W        W 8061  34.113  37.979   1.734
46608W        W 8062  21.609  13.818   3.733
46609W        W 8063  17.258   8.343  13.004
46610W        W 8064  31.145   6.266  10.634
46611W        W 8065  24.073   6.230  11.558
46612W        W 8066  15.179   1.881  13.871
46613W        W 8067   2.381   6.321   9.945
46614W        W 8068  13.123  34.483  14.447
46615W        W 8069  32.123   4.365   4.221
46616W        W 8070  33.990  10.856  10.063
46617W        W 8071   2.349  17.739   1.234
46618W        W 8072  36.945  33.120   2.796
46619W        W 8073  43.494  28.446  14.869
46620W        W 8074  40.009  16.238  14.345
46621W        W 8075  17.734  37.534   2.239
46622W        W 8076  29.566  40.331  10.409
46623W        W 8077   6.216  28.143   1.934
46624W        W 8078  42.028  20.549  12.095
46625W        W 8079  28.092   7.691   5.731
46626W        W 8080  35.994  24.574  14.333
46627W        W 8081   1.313  12.789   4.332
46628W        W 8082  32.403  30.157  14.419
46629W        W 8083  23.524  18.165  14.491
46630W        W 8084   7.873  18.152   3.275
46631W        W 8085  16.093  27.634   2.739
46632W        W 8086  34.879  25.180  11.885
46633W        W 8087  36.990  44.011  12.863
46634W        W 8088  37.507  29.087   1.210
46635W        W 8089   2.737  10.177  13.956
46636W        W 8090  30.002  28.674  10.604
46637W        W 8091  41.790  22.195   2.861
46638W        W 8092  22.671   2.337   4.212
46639W        W 8093  28.019  22.667  12.924
46640W        W 8094   4.259   5.391  11.050
46641W        W 8095  33.592   2.386  12.374
46642W        W 8096  39.443  35.599   0.878
46643W        W 8097  44.953  20.667   3.206
46644W        W 8098  36.091  39.973  13.958
46645W        W 8099  11.131   1.873  12.003
46646W        W 8100  28.067   8.376   0.782
46647W        W 8101   0.378  34.879  10.554
46648W        W 8102  27.516  21.165  10.067
46649W        W 8103  22.690  40.943   4.792
46650W        W 8104  32.075  35.387  13.017
46651W        W 8105  39.053  13.226  11.095
46652W        W 8106  40.969  21.100  10.582
46653W        W 8107  12.335   5.866   1.891
46654W        W 8108  18.234  18.057   1.921
46655W        W 8109  19.598  42.880  12.895
46656W        W 8110  44.753  37.033  12.912
46657W        W 8111  42.527   0.978  13.348
46658W        W 8112  39.488  40.826   0.949
46659W        W 8113   5.431  31.959   3.630
46660W        W 8114   7.667  23.044  11.099
46661W        W 8115  28.594  22.184  10.059
46662W        W 8116  25.993   5.288  13.412
46663W        W 8117  17.730  36.370  13.948
46664W        W 8118  12.685   7.711  12.089
46665W        W 8119  20.532  10.144   1.871
46666W        W 8120  16.267  24.568   2.382
46667W        W 8121   6.735  26.953  12.518
46668W        W 8122  10.803   4.364   4.142
46669W        W 8123  15.143  10.155   2.393
46670W        W 8124  44.989  30.960   0.397
46671W        W 8125  10.187  22.587  11.595
46672W        W 8126  43.934  18.254   4.117
46673W        W 8127   4.819  18.226   2.402
46674W        W 8128  21.184  24.217   1.891
46675W        W 8129   2.801  18.783  14.397
46676W        W 8130  28.938  15.766   0.439
46677W        W 8131  27.969   0.316  10.932
46678W        W 8132  22.645  38.009  14.327
46679W        W 8133  31.445  14.200  11.468
46680W        W 8134  43.432  32.496   1.339
46681W        W 8135  15.122  41.900   4.142
46682W        W 8136   0.811  34.917  14.967
46683W        W 8137  23.619  30.628   1.828
46684W        W 8138  41.419   1.870  13.364
46685W        W 8139  24.979   5.384   0.923
46686W        W 8140   0.973  22.668  12.451
46687W        W 8141  20.080  25.659  14.339
46688W        W 8142  15.143   0.964  14.782
46689W        W 8143  11.367  36.573  12.562
46690W        W 8144  19.692  12.648   3.221
46691W        W 8145  25.192  18.144   3.352
46692W        W 8146  15.658  42.807   1.785
46693W        W 8147   4.884  25.108   3.678
46694W        W 8148   5.744   3.893   0.879
46695W        W 8149   7.199  44.458  12.463
46696W        W 8150  22.052  23.171   0.371
46697W        W 8151  18.704  13.716   2.700
46698W        W 8152  10.256  27.029  12.553
46699W        W 8153  37.036   3.352   1.381
46700W        W 8154  44.883  20.144   4.295
46701W        W 8155  17.572  20.136  14.323
46702W        W 8156  20.668  22.054  13.972
46703W        W 8157  31.623  23.018   1.279
46704W        W 8158  34.093   9.684  14.504
46705W        W 8159  37.047  28.642  14.855
46706W        W 8160  21.659  12.629  14.343
46707W        W 8161  27.032  15.135   3.832
46708W        W 8162  24.222  22.097   4.121
46709W        W 8163  36.942  24.109  11.518
46710W        W 8164   2.440  19.718  12.066
46711W        W 8165  11.234  44.753  12.502
46712W        W 8166   4.309  37.347  12.914
46713W        W 8167  41.934  22.098  13.344
46714W        W 8168  44.381  27.169   1.864
46715W        W 8169  19.562  28.014   3.727
46716W        W 8170   3.757   7.866  14.310
46717W        W 8171  32.403  32.945  11.483
46718W        W 8172  25.699   7.285   2.265
46719W        W 8173   8.352  29.536   1.280
46720W        W 8174  44.466  30.987   2.215
46721W        W 8175  40.450  35.946   0.332
46722W        W 8176  21.045   9.346   3.784
46723W        W 8177  23.717  30.144   2.700
46724W        W 8178   3.331   2.764  11.900
46725W        W 8179  26.629  13.108   3.291
46726W        W 8180   2.801  42.325   1.783
46727W        W 8181  24.608  15.226   3.719
46728W        W 8182  17.284  32.512   4.209
46729W        W 8183  27.537   7.827   1.884
46730W        W 8184   9.267  18.179  13.338
46731W        W 8185  40.514   0.335  13.875
46732W        W 8186  36.356  39.016  12.040
46733W        W 8187  32.090   5.373   4.787
46734W        W 8188   8.274  25.520  14.852
46735W        W 8189  38.004  34.545   0.779
46736W        W 8190   4.720  41.537   2.776
46737W        W 8191  16.124   1.245  13.444
46738W        W 8192  11.838  10.162   5.087
46739W        W 8193  21.562   1.368  11.612
46740W        W 8194  31.559  24.488   4.272
46741W        W 8195  15.221   5.272  10.493
46742W        W 8196  44.496  28.678  13.990
46743W        W 8197  11.152   2.230  11.103
46744W        W 8198  40.368  14.712   1.851
46745W        W 8199  27.675  29.032  14.445
46746W        W 8200   5.712   5.306  10.999
46747W        W 8201  10.342  23.108  14.014
46748W        W 8202  36.072   3.408  14.792
46749W        W 8203  27.160  39.371   0.292
46750W        W 8204  42.480  22.668  11.043
46751W        W 8205  11.687   8.665  10.986
46752W        W 8206  26.073   3.905   1.883
46753W        W 8207   2.329  23.664   1.322
46754W        W 8208   1.973  25.559   4.119
46755W        W 8209  36.577  10.638  11.915
46756W        W 8210  34.385   2.368   4.603
46757W        W 8211  18.237   6.207  13.382
46758W        W 8212  24.578  30.087   0.421
46759W        W 8213  42.481  30.928   0.959
46760W        W 8214  25.057   9.749  14.498
46761W        W 8215  27.180  37.403   3.822
46762W        W 8216  22.685  31.460   3.733
46763W        W 8217  26.680  22.081   0.315
46764W        W 8218  29.611  18.660  10.110
46765W        W 8219   7.210  30.926  12.550
46766W        W 8220  18.641  38.887   3.850
46767W        W 8221  25.976   6.776  10.474
46768W        W 8222  23.654  11.758   2.232
46769W        W 8223  22.185  37.534   0.292
46770W        W 8224  30.152  29.520   2.737
46771W        W 8225   3.240  29.430  12.992
46772W        W 8226  44.006  29.614   2.400
46773W        W 8227  24.644  41.302   2.418
46774W        W 8228  11.273  23.195  12.534
46775W        W 8229  10.260  32.902   1.448
46776W        W 8230  18.627  24.052   4.610
46777W        W 8231  27.569   5.917   5.223
46778W        W 8232  25.480  19.690  14.908
46779W        W 8233  26.572  34.874  14.847
46780W        W 8234  27.578   8.357   2.777
46781W        W 8235   3.769   7.405   2.387
46782W        W 8236   4.747  38.549  10.548
46783W        W 8237   3.226  43.397   3.298
46784W        W 8238  13.839  18.142   4.336
46785W        W 8239  40.346  15.740  11.376
46786W        W 8240  27.183  16.174   3.786
46787W        W 8241  15.700   0.821  14.403
46788W        W 8242  35.980  43.345  13.464
46789W        W 8243  42.801  21.679   0.889
46790W        W 8244  37.466   4.906   1.888
46791W        W 8245  17.158   1.855   3.655
46792W        W 8246   9.278  28.578  10.540
46793W        W 8247   1.476  34.046  12.504
46794W        W 8248  31.084  14.707  10.516
46795W        W 8249  31.442  26.090  10.431
46796W        W 8250  32.132  25.989  11.400
46797W        W 8251  26.174  16.203  11.571
46798W        W 8252  23.716  31.087  11.590
46799W        W 8253  41.489  27.093   0.825
46800W        W 8254  34.037   7.783   3.200
46801W        W 8255  19.116   1.396   0.478
46802W        W 8256  24.006  19.740   4.151
46803W        W 8257   8.817  27.124   0.281
46804W        W 8258   7.350  14.659  14.417
46805W        W 8259  29.492   1.820   2.361
46806W        W 8260   4.353   7.756   3.702
46807W        W 8261  29.520  38.394  13.045
46808W        W 8262  34.966   6.777  14.856
46809W        W 8263  33.456  39.942   5.233
46810W        W 8264   5.710  44.939   1.413
46811W        W 8265  37.361  25.135   2.360
46812W        W 8266  13.307  21.575  14.399
46813W        W 8267   2.894  18.596  10.612
46814W        W 8268   6.916  11.348  10.514
46815W        W 8269   4.332   3.265   0.297
46816W        W 8270  39.386  24.697  14.907
46817W        W 8271  34.100  29.972  12.376
46818W        W 8272  41.526   8.671   1.774
46819W        W 8273  24.572   6.390  14.797
46820W        W 8274  26.121  44.259   9.990
46821W        W 8275  43.473  18.580   3.175
46822W        W 8276  24.064  16.094   4.315
46823W        W 8277  19.609  34.390  12.358
46824W        W 8278   3.759  33.081   2.832
46825W        W 8279  11.810  29.562   2.358
46826W        W 8280  25.983  24.612   1.425
46827W        W 8281  10.722   0.744  13.324
46828W        W 8282  27.576  38.901  13.043
46829W        W 8283  10.696  40.418   9.978
46830W        W 8284  40.055  32.499   2.218
46831W        W 8285  22.679  24.105   0.930
46832W        W 8286   8.812  28.002   2.849
46833W        W 8287   8.730  43.302  11.465
46834W        W 8288  35.557  30.923   2.221
46835W        W 8289  18.757  35.601  14.771
46836W        W 8290  38.349  32.076  14.430
46837W        W 8291  35.431  25.596   1.242
46838W        W 8292   9.832  22.626  14.959
46839W        W 8293  24.650  36.029   1.338
46840W        W 8294  35.866   8.689  11.978
46841W        W 8295  40.991  13.305  11.868
46842W        W 8296  10.780  23.092  10.596
46843W        W 8297   2.810   8.813   2.858
46844W        W 8298  39.966  18.202   3.643
46845W        W 8299  20.613  25.699  12.560
46846W        W 8300  26.526  29.479   3.382
46847W        W 8301  41.001   7.171   2.767
46848W        W 8302  40.488  40.828  10.903
46849W        W 8303  43.864  22.113  14.965
46850W        W 8304  19.078   3.902   4.762
46851W        W 8305  10.337  37.404   4.746
46852W        W 8306   9.281   0.257  14.893
46853W        W 8307   8.283  12.690  11.396
46854W        W 8308   1.319   3.773   1.437
46855W        W 8309  11.330  10.191   4.177
46856W        W 8310  30.161   3.941  10.991
46857W        W 8311  11.253  29.928  10.562
46858W        W 8312  31.065   4.932  14.390
46859W        W 8313  43.271  42.799   1.783
46860W        W 8314   4.397  17.115   4.264
46861W        W 8315  26.129   8.849   3.655
46862W        W 8316  15.679  15.155  10.086
46863W        W 8317  22.038  31.921  10.530
46864W        W 8318  27.647  28.622   2.305
46865W        W 8319  34.874   2.307   4.795
46866W        W 8320  42.476  25.686   4.301
46867W        W 8321  37.957  21.247   1.773
46868W        W 8322  14.803   6.320   4.296
46869W        W 8323  25.552  36.958  14.005
46870W        W 8324  31.536   8.275  13.454
46871W        W 8325  38.386   1.804  11.924
46872W        W 8326  21.566  35.960   3.771
46873W        W 8327   4.235  28.531  12.029
46874W        W 8328  35.364   3.891   1.306
46875W        W 8329  14.766  39.449  14.844
46876W        W 8330   7.405  34.382   2.179
46877W        W 8331  31.489  22.044   4.113
46878W        W 8332   4.800  35.101   5.249
46879W        W 8333  37.076  36.436   3.843
46880W        W 8334   7.776   2.899  13.005
46881W        W 8335   7.849   0.832   3.647
46882W        W 8336  28.015   2.372   3.316
46883W        W 8337  15.200  21.729  10.944
46884W        W 8338   6.881   1.733   4.258
46885W        W 8339  37.911  27.609   2.371
46886W        W 8340  12.734  42.422  12.375
46887W        W 8341  23.084   2.334  13.447
46888W        W 8342  29.569  39.363  11.581
46889W        W 8343  23.221  11.142  10.910
46890W        W 8344   5.388  31.904   2.663
46891W        W 8345  29.507  40.845  14.858
46892W        W 8346  10.801   0.811  12.877
46893W        W 8347   1.305  33.013   2.292
46894W        W 8348  21.741  25.003  14.330
46895W        W 8349  18.755  26.030  12.511
46896W        W 8350  14.322   1.781   0.964
46897W        W 8351  22.644  20.672  14.312
46898W        W 8352   3.242  32.104  11.536
46899W        W 8353  39.891  26.511  11.416
46900W        W 8354   5.204  17.692  11.458
46901W        W 8355  20.143  18.063  12.076
46902W        W 8356  36.454   0.256   1.270
46903W        W 8357  42.421  41.877  12.462
46904W        W 8358   3.902  43.864  13.449
46905W        W 8359  25.589  22.206   1.258
46906W        W 8360  23.219  27.643  12.940
46907W        W 8361  11.790   6.690  11.085
46908W        W 8362  18.275   3.387   4.681
46909W        W 8363  25.099  25.191  12.087
46910W        W 8364  32.477  24.587   0.333
46911W        W 8365   1.914  21.197  10.498
46912W        W 8366  39.546  19.156  10.969
46913W        W 8367  13.636  44.344   1.732
46914W        W 8368   3.904   3.346  14.948
46915W        W 8369  20.578  26.079   2.686
46916W        W 8370  40.516  36.549   4.194
46917W        W 8371  11.829  14.619   2.827
46918W        W 8372  24.979   2.935  11.571
46919W        W 8373  28.502  16.118   2.403
46920W        W 8374  12.339  31.451  11.546
46921W        W 8375  39.429  32.940   3.267
46922W        W 8376  26.053   2.751  13.321
46923W        W 8377  31.449   5.347  11.010
46924W        W 8378  33.594  32.092  11.473
46925W        W 8379  37.019  18.553  12.511
46926W        W 8380  18.063  20.561   2.363
46927W        W 8381  33.046  42.892  13.844
46928W        W 8382  34.087   0.341  13.017
46929W        W 8383  38.481  25.500   1.379
46930W        W 8384  41.855  12.145  12.511
46931W        W 8385  26.536  43.492  11.446
46932W        W 8386   4.905   1.289   0.372
46933W        W 8387  29.489  11.191  14.357
46934W        W 8388  33.422   5.921   0.769
46935W        W 8389   5.210   2.783   3.761
46936W        W 8390   0.252  31.103   0.346
46937W        W 8391  15.622  22.079  12.568
46938W        W 8392  36.463  36.876  14.990
46939W        W 8393  39.846   5.719  12.360
46940W        W 8394  40.884   6.313  13.433
46941W        W 8395  27.586  21.700   4.155
46942W        W 8396   9.773  21.080   1.422
46943W        W 8397   7.812  30.084   4.659
46944W        W 8398  41.300   6.370  12.070
46945W        W 8399  24.577  12.798   2.187
46946W        W 8400  43.500  35.878   4.742
46947W        W 8401  23.690  44.350   3.166
46948W        W 8402  30.920  35.967   2.300
46949W        W 8403  25.577  40.861  12.091
46950W        W 8404  14.314  30.631  14.859
46951W        W 8405  27.083  24.577   0.916
46952W        W 8406  19.129  10.151  13.432
46953W        W 8407  37.911   8.710  12.051
46954W        W 8408  16.788  41.831   2.178
46955W        W 8409  30.997  39.859  14.918
46956W        W 8410  20.083  34.869   4.161
46957W        W 8411  12.253  41.980   3.741
46958W        W 8412  29.454  15.715   1.403
46959W        W 8413  34.979  43.970  10.588
46960W        W 8414  41.026   1.811   3.682
46961W        W 8415   2.299  29.140   4.703
46962W        W 8416   9.698  21.648  12.048
46963W        W 8417   9.225  15.091   3.339
46964W        W 8418  44.845  42.908  14.422
46965W        W 8419  34.454  12.793   9.953
46966W        W 8420  43.809  12.845  12.524
46967W        W 8421  33.498  34.885   3.368
46968W        W 8422  17.648   3.719  13.967
46969W        W 8423  40.379  18.177   0.730
46970W        W 8424  32.946   3.263   2.854
46971W        W 8425  20.116  26.107   3.707
46972W        W 8426  25.655  32.461   4.699
46973W        W 8427  16.654   3.873   2.331
46974W        W 8428   6.212  37.029   3.836
46975W        W 8429  34.540  31.992   3.697
46976W        W 8430  34.038  36.589   2.369
46977W        W 8431   7.218  24.719  14.311
46978W        W 8432  40.456  23.069   2.340
46979W        W 8433   9.164  27.605   2.882
46980W        W 8434  40.998  42.500   1.895
46981W        W 8435   3.219  19.742  13.518
46982W        W 8436   7.713   2.964  12.425
46983W        W 8437  10.769  38.821   2.847
46984W        W 8438  29.516   6.364   2.286
46985W        W 8439  26.955   5.897   1.333
46986W        W 8440  12.310  13.764   0.357
46987W        W 8441  16.627   3.753  12.397
46988W        W 8442  43.513   6.738  13.831
46989W        W 8443   3.278  28.507  13.322
46990W        W 8444   3.384  27.598  13.492
46991W        W 8445  30.533  44.447  13.849
46992W        W 8446  19.259  12.852  13.863
46993W        W 8447  36.524   9.656  13.836
46994W        W 8448  19.766  18.103  10.571
46995W        W 8449  22.646  27.621  12.032
46996W        W 8450  19.186  39.985  13.497
46997W        W 8451   5.915  16.182  10.443
46998W        W 8452   2.444  22.653  10.052
46999W        W 8453  15.251  23.543  13.012
47000W        W 8454   8.221  13.294  12.966
47001W        W 8455  27.978  20.528  10.625
47002W        W 8456  19.590  28.630   1.413
47003W        W 8457  39.448  18.751  14.440
47004W        W 8458  24.548  43.452   1.420
47005W        W 8459  31.490  43.414   4.337
47006W        W 8460   9.782   3.720  12.850
47007W        W 8461  22.193   6.302   9.991
47008W        W 8462  27.158   4.830  11.451
47009W        W 8463  10.226  27.989  10.996
47010W        W 8464   9.238  44.422   0.477
47011W        W 8465  12.120  28.596  11.126
47012W        W 8466   5.421  35.378  11.066
47013W        W 8467  19.089  40.918  12.093
47014W        W 8468  28.168  37.858   3.356
47015W        W 8469  37.483  28.449  12.340
47016W        W 8470  13.604  20.690  12.558
47017W        W 8471  22.237   4.812  14.357
47018W        W 8472  22.249  41.822  14.791
47019W        W 8473   4.937  20.682   2.665
47020W        W 8474  35.104   7.899   2.394
47021W        W 8475   0.327  40.817  11.486
47022W        W 8476  17.218  22.022   0.266
47023W        W 8477   4.936  21.737   3.761
47024W        W 8478  22.248  17.248  12.047
47025W        W 8479  13.836  28.973   2.284
47026W        W 8480   7.871  14.309  12.356
47027W        W 8481  23.107  43.401  14.931
47028W        W 8482   9.274  28.434   0.783
47029W        W 8483  16.218  32.927   0.945
47030W        W 8484  36.861  43.991   1.291
47031W        W 8485  43.400  34.615   2.667
47032W        W 8486  31.604  24.566   4.827
47033W        W 8487  23.704  16.094  13.474
47034W        W 8488  19.160  11.627   1.724
47035W        W 8489  21.128   4.329  13.502
47036W        W 8490  17.650  28.126  14.313
47037W        W 8491  35.497   6.377  13.870
47038W        W 8492  16.160   0.292   2.288
47039W        W 8493   7.850  42.958   4.287
47040W        W 8494  21.078  43.444  11.490
47041W        W 8495  15.128   2.258   4.646
47042W        W 8496   6.222  35.874   2.846
47043W        W 8497   3.820  15.185  12.073
47044W        W 8498  12.277   3.893  14.310
47045W        W 8499   1.854  31.641  10.911
47046W        W 8500  37.465  43.992   1.246
47047W        W 8501  16.689  13.106  12.504
47048W        W 8502  31.623   6.291  10.635
47049W        W 8503  32.139  37.568  13.534
47050W        W 8504  44.932  21.203  12.894
47051W        W 8505   6.400   3.902   1.275
47052W        W 8506  32.893  19.712  12.449
47053W        W 8507  38.999  30.512  14.300
47054W        W 8508   2.353  17.087  12.345
47055W        W 8509  35.998  39.540  13.494
47056W        W 8510   5.226   4.717  11.376
47057W        W 8511   2.439  23.096  11.481
47058W        W 8512  23.599  12.670   2.807
47059W        W 8513   1.866  41.302  11.578
47060W        W 8514  16.793  28.982  14.020
47061W        W 8515  43.002  39.942   3.727
47062W        W 8516  11.213  43.793  11.408
47063W        W 8517  39.018  14.142  12.083
47064W        W 8518  22.110  18.587  10.632
47065W        W 8519   8.215  25.714  12.388
47066W        W 8520  15.822  42.003   3.372
47067W        W 8521  17.175  42.918  12.435
47068W        W 8522  31.469  37.576   3.217
47069W        W 8523  14.774  12.652   3.863
47070W        W 8524   5.816  20.184   1.424
47071W        W 8525  43.284  20.068  12.093
47072W        W 8526   4.329  14.257  11.433
47073W        W 8527  32.594  13.703  11.952
47074W        W 8528  34.005   1.947  10.988
47075W        W 8529  19.631  15.806   1.903
47076W        W 8530  12.741   1.251  10.931
47077W        W 8531  18.087  41.350  13.381
47078W        W 8532   7.225   2.416   1.802
47079W        W 8533  12.839  31.006  14.440
47080W        W 8534  12.223  18.695  10.498
47081W        W 8535  35.386  25.018  13.814
47082W        W 8536  43.970  34.607  13.062
47083W        W 8537  39.030  13.699   4.256
47084W        W 8538   5.778  36.987  12.339
47085W        W 8539  42.385  29.987  13.034
47086W        W 8540  16.792  36.048   4.337
47087W        W 8541  23.144  42.929   2.742
47088W        W 8542  42.435  42.779  11.583
47089W        W 8543  29.656   7.906   2.666
47090W        W 8544  42.975  16.117   1.890
47091W        W 8545  23.698  24.507   1.448
47092W        W 8546   1.400  16.297  14.863
47093W        W 8547  39.893   7.331   3.853
47094W        W 8548  11.754   4.855   4.272
47095W        W 8549  15.594  42.806  12.853
47096W        W 8550  29.513   6.385   1.903
47097W        W 8551  12.684   4.228  11.126
47098W        W 8552  14.161   0.944  11.401
47099W        W 8553  28.953  37.062  12.470
47100W        W 8554   2.743   5.808  14.886
47101W        W 8555   3.937  41.318  11.383
47102W        W 8556  20.686  31.961  10.598
47103W        W 8557  42.778  25.051   3.646
47104W        W 8558   3.446  18.651  11.126
47105W        W 8559   4.377   4.770  13.815
47106W        W 8560   7.838  28.078  13.884
47107W        W 8561  16.300  42.483  14.478
47108W        W 8562  15.203  29.933   4.199
47109W        W 8563  18.607  16.733  14.006
47110W        W 8564  28.474  17.754   0.797
47111W        W 8565  18.211   5.198   0.465
47112W        W 8566  39.972  42.477   1.725
47113W        W 8567  38.336  44.415  13.005
47114W        W 8568  35.559  27.497   0.929
47115W        W 8569  36.001  28.550  12.365
47116W        W 8570  11.307  25.668   4.318
47117W        W 8571  38.505  44.319  12.429
47118W        W 8572   1.811  17.168  14.495
47119W        W 8573  24.645  34.587  14.499
47120W        W 8574  19.565  26.174  14.019
47121W        W 8575  14.643   2.741  14.295
47122W        W 8576   9.265  15.103   0.475
47123W        W 8577  19.079  25.151   3.312
47124W        W 8578  21.543  29.529   0.371
47125W        W 8579   9.223  29.634  11.487
47126W        W 8580   8.668   4.816   4.835
47127W        W 8581  19.238  22.187  10.944
47128W        W 8582  27.085  18.073   5.303
47129W        W 8583   0.429  21.577  11.458
47130W        W 8584  27.039  12.654   4.623
47131W        W 8585  40.804  12.688  10.521
47132W        W 8586  44.968  11.686  14.837
47133W        W 8587  34.518  33.440   4.180
47134W        W 8588  17.760  32.436   4.298
47135W        W 8589  28.090  15.187   5.129
47136W        W 8590   2.317  33.397  14.422
47137W        W 8591  13.203  33.583  13.418
47138W        W 8592  21.630  34.982   4.288
47139W        W 8593  20.241  21.624  11.992
47140W        W 8594  27.005  17.167   2.881
47141W        W 8595  19.589  13.343  13.363
47142W        W 8596  40.892  30.579   1.261
47143W        W 8597  42.015  41.015   4.219
47144W        W 8598  12.724  14.713   4.298
47145W        W 8599  37.441  28.593   4.820
47146W        W 8600  36.031  29.569  10.505
47147W        W 8601  12.810  21.722  10.048
47148W        W 8602  27.970   5.365   5.139
47149W        W 8603  17.155  43.340  12.499
47150W        W 8604  26.626  14.223   5.157
47151W        W 8605   6.243  35.381  10.983
47152W        W 8606  13.245   8.258  12.964
47153W        W 8607  25.467  36.370   1.866
47154W        W 8608  28.487  17.190  11.074
47155W        W 8609   0.421  13.775  13.518
47156W        W 8610  26.969  40.542  11.424
47157W        W 8611   2.443   1.378  12.853
47158W        W 8612  10.152  13.805   1.882
47159W        W 8613  34.588  14.595  14.810
47160W        W 8614  19.552  12.193  14.419
47161W        W 8615  38.849  12.695   0.750
47162W        W 8616  22.235  37.572   4.208
47163W        W 8617  11.695  44.479   3.863
47164W        W 8618  39.320  24.217   0.480
47165W        W 8619  41.917  28.128   1.903
47166W        W 8620  23.094  10.868  13.459
47167W        W 8621  32.931  15.804   5.251
47168W        W 8622  32.511  37.943   3.826
47169W        W 8623  25.980   5.342   4.162
47170W        W 8624  18.061  11.801  12.875
47171W        W 8625  19.574  12.784  13.426
47172W        W 8626  24.007   8.217   9.492
47173W        W 8627  32.572  33.105   0.301
47174W        W 8628  28.167  18.288  12.528
47175W        W 8629  31.594  19.762   0.387
47176W        W 8630  44.924  41.449   4.635
47177W        W 8631   2.845  30.536  13.384
47178W        W 8632   7.364  28.500   3.371
47179W        W 8633   2.377  17.098   1.756
47180W        W 8634   2.849  22.201   2.261
47181W        W 8635  31.524  32.015   2.733
47182W        W 8636  10.161  38.496   0.940
47183W        W 8637  17.112  22.735  13.012
47184W        W 8638   7.377   3.795   3.779
47185W        W 8639  33.906  24.143  14.975
47186W        W 8640  43.316  14.269  14.926
47187W        W 8641  10.239  33.082   2.312
47188W        W 8642   5.867  33.033  10.465
47189W        W 8643  33.601  36.952   9.992
47190W        W 8644  25.610  17.220   4.658
47191W        W 8645  36.940   4.264  14.386
47192W        W 8646  27.008   5.233  13.011
47193W        W 8647  18.582  36.545   0.355
47194W        W 8648  29.090  33.474   0.928
47195W        W 8649  28.542  10.772  11.550
47196W        W 8650   0.416  12.187   4.615
47197W        W 8651  33.961   8.717   5.304
47198W        W 8652  12.243   8.400  11.603
47199W        W 8653  34.603  16.088  13.422
47200W        W 8654  44.272   8.881  13.975
47201W        W 8655  41.857  11.639   0.425
47202W        W 8656   6.211  13.119  10.975
47203W        W 8657  25.174   9.177  13.492
47204W        W 8658  29.548   9.712  13.801
47205W        W 8659  27.108  42.874  11.525
47206W        W 8660  24.136   1.280  11.586
47207W        W 8661  19.541  42.413   0.410
47208W        W 8662  12.668   3.892   1.699
47209W        W 8663  11.184  27.469  13.972
47210W        W 8664   1.934  39.890   0.846
47211W        W 8665  36.574  28.446  11.452
47212W        W 8666  18.707  42.299   3.688
47213W        W 8667  16.259  16.226  13.409
47214W        W 8668   2.352  19.641   1.778
47215W        W 8669  29.468   2.800  14.906
47216W        W 8670  28.077  38.972  13.433
47217W        W 8671  19.071  30.591   4.152
47218W        W 8672  22.037   8.254   3.259
47219W        W 8673  31.421  44.356   4.307
47220W        W 8674  41.405  43.392   4.132
47221W        W 8675  32.095   2.420   4.349
47222W        W 8676  21.246  41.838  14.374
47223W        W 8677  35.529   7.207  13.838
47224W        W 8678   2.270  21.667   2.663
47225W        W 8679   8.296  10.700  10.570
47226W        W 8680  44.457  11.308  10.068
47227W        W 8681  41.295   8.230  10.494
47228W        W 8682  20.146  39.370  11.371
47229W        W 8683  30.428  16.250   4.345
47230W        W 8684   0.913  33.472  12.065
47231W        W 8685   9.211  29.611  13.333
47232W        W 8686  22.609   9.268   0.314
47233W        W 8687   4.788  30.530  13.014
47234W        W 8688  22.156  36.049  12.511
47235W        W 8689   9.832  39.857   4.610
47236W        W 8690   1.736  27.640  13.978
47237W        W 8691  12.631  27.652   0.785
47238W        W 8692  43.806  31.151  11.583
47239W        W 8693  20.218  12.361  10.578
47240W        W 8694   2.329   7.692  11.874
47241W        W 8695   1.944  12.634   1.433
47242W        W 8696  44.892  37.498   3.739
47243W        W 8697  25.707   1.773  11.607
47244W        W 8698  37.970  30.609  11.102
47245W        W 8699  34.421   8.849  12.015
47246W        W 8700  14.139  26.479  13.521
47247W        W 8701  20.120  21.577  14.907
47248W        W 8702  33.973  42.499  14.939
47249W        W 8703  17.154  11.219  10.489
47250W        W 8704  40.015  10.755   0.769
47251W        W 8705  19.201   8.751   2.380
47252W        W 8706  33.414  43.382  14.032
47253W        W 8707  34.098  32.595  12.534
47254W        W 8708  26.986  30.519   4.252
47255W        W 8709   3.263  24.177   4.695
47256W        W 8710  29.629  44.478   0.246
47257W        W 8711  12.734   5.934  13.400
47258W        W 8712   9.150  25.481  11.428
47259W        W 8713   4.434   4.317   0.943
47260W        W 8714   7.210  27.188  14.007
47261W        W 8715   6.182  24.050   3.236
47262W        W 8716  19.761  29.655   2.667
47263W        W 8717  10.177  16.810  11.452
47264W        W 8718  31.906  35.374  14.943
47265W        W 8719  22.124  38.844  10.618
47266W        W 8720  11.780  16.107   3.865
47267W        W 8721   2.349  17.638  13.309
47268W        W 8722  12.736  44.428  10.968
47269W        W 8723  36.489  16.184  12.897
47270W        W 8724   3.453  27.987   1.410
47271W        W 8725  30.546   7.911   1.427
47272W        W 8726  29.549   3.411   3.285
47273W        W 8727  28.958   3.246   0.295
47274W        W 8728  40.390  33.565  14.336
47275W        W 8729  35.078  35.370  11.020
47276W        W 8730  22.207  17.122  14.463
47277W        W 8731   4.818   3.955   2.376
47278W        W 8732  37.837  17.174   3.655
47279W        W 8733  15.250  40.981  13.791
47280W        W 8734  12.289  21.522  13.410
47281W        W 8735   2.803  31.619  14.295
47282W        W 8736   6.418   5.819   1.788
47283W        W 8737  36.421  17.097   5.167
47284W        W 8738   4.297   5.433   2.879
47285W        W 8739  11.178   0.471  12.510
47286W        W 8740   6.196  32.000   1.797
47287W        W 8741  27.530  14.217   4.791
47288W        W 8742  26.152  43.835  11.586
47289W        W 8743   9.868  17.704   3.304
47290W        W 8744   9.760  28.663  13.050
47291W        W 8745  12.117   8.246  14.766
47292W        W 8746  31.412  34.447   5.266
47293W        W 8747  33.566   5.793  13.004
47294W        W 8748  27.484  34.480  13.904
47295W        W 8749  34.470  42.439   4.253
47296W        W 8750   7.807  21.627   0.955
47297W        W 8751   4.357  23.076  11.019
47298W        W 8752  29.542   5.794   2.807
47299W        W 8753  34.477  21.185   1.746
47300W        W 8754   7.187   6.710   4.299
47301W        W 8755  27.573   7.213  12.015
47302W        W 8756  31.052  33.919  14.970
47303W        W 8757  43.464  26.187  10.601
47304W        W 8758  34.406  31.968   4.663
47305W        W 8759  38.004  36.383  10.451
47306W        W 8760   8.760  34.418   4.689
47307W        W 8761   5.193  27.032  10.411
47308W        W 8762  23.602  23.106   1.301
47309W        W 8763   7.880  29.569  14.921
47310W        W 8764  18.224  21.032   2.842
47311W        W 8765  24.483  41.903  11.609
47312W        W 8766  39.401  30.130  13.810
47313W        W 8767  31.142   8.333  14.982
47314W        W 8768  18.171  21.755  13.460
47315W        W 8769  41.935  32.627   3.839
47316W        W 8770  23.527   8.267  11.388
47317W        W 8771  33.024  24.533  11.984
47318W        W 8772  20.136  34.398  10.005
47319W        W 8773  28.989  31.553   0.927
47320W        W 8774  36.539  17.798   2.274
47321W        W 8775  32.065  29.605   0.333
47322W        W 8776   3.864  34.062   2.683
47323W        W 8777   7.840  36.423   3.674
47324W        W 8778  34.951  34.574   3.667
47325W        W 8779  42.306  29.986  13.471
47326W        W 8780   7.172  12.158  12.544
47327W        W 8781  13.294  38.960   4.752
47328W        W 8782  43.984  20.222   3.750
47329W        W 8783  11.306  25.678  12.934
47330W        W 8784   2.773  41.422   0.271
47331W        W 8785   5.791  30.468  11.994
47332W        W 8786  18.726  30.514  13.395
47333W        W 8787   9.785  18.769  10.455
47334W        W 8788   0.272  27.464  14.414
47335W        W 8789  26.177  39.483  10.517
47336W        W 8790  25.512  31.027   4.181
47337W        W 8791  13.677   8.764  10.571
47338W        W 8792  11.859   2.948   3.694
47339W        W 8793  13.246  37.922   4.652
47340W        W 8794   9.154   2.425  11.423
47341W        W 8795   3.335  28.958  10.893
47342W        W 8796  13.827  44.934   4.752
47343W        W 8797  35.601  42.495  10.547
47344W        W 8798  21.623  25.610  11.895
47345W        W 8799  12.247  34.054   3.384
47346W        W 8800  17.639  36.382  12.934
47347W        W 8801  31.031  36.378   2.386
47348W        W 8802  34.383  39.360  10.561
47349W        W 8803  26.995  19.599  12.572
47350W        W 8804  36.937  42.518   2.178
47351W        W 8805   1.940  38.877   3.851
47352W        W 8806  39.493  13.231   1.793
47353W        W 8807  32.055  27.585   1.289
47354W        W 8808   5.752  31.069  10.631
47355W        W 8809  14.609  34.408  13.885
47356W        W 8810  34.432  20.262  11.578
47357W        W 8811  39.491  42.464   1.313
47358W        W 8812  37.474  11.852  14.344
47359W        W 8813  33.882  16.287   3.665
47360W        W 8814  31.414  21.024   2.732
47361W        W 8815  28.021   0.893   9.948
47362W        W 8816  12.237  33.122   4.346
47363W        W 8817   8.201  11.828  14.800
47364W        W 8818  31.942  13.832   2.704
47365W        W 8819  14.120  30.016   2.685
47366W        W 8820  13.214   5.777  14.448
47367W        W 8821   8.767   8.667   4.810
47368W        W 8822  28.942  21.237   3.830
47369W        W 8823  24.060  28.992  14.451
47370W        W 8824  20.534  39.916   1.804
47371W        W 8825  28.630   0.268   4.351
47372W        W 8826  40.925  21.562   2.826
47373W        W 8827  22.995  10.729   9.662
47374W        W 8828  41.814  15.671  12.087
47375W        W 8829  38.915  35.107  10.553
47376W        W 8830  38.441  19.049   0.471
47377W        W 8831   7.248  39.533  11.442
47378W        W 8832  41.968  40.850   5.082
47379W        W 8833   8.857  33.452   3.670
47380W        W 8834   8.804   2.878   0.868
47381W        W 8835   8.200   0.269  10.503
47382W        W 8836  44.414  21.598  11.100
47383W        W 8837   0.794  20.655   0.790
47384W        W 8838  10.353  37.907  12.027
47385W        W 8839  41.335   9.197   4.613
47386W        W 8840  27.074   2.303  12.069
47387W        W 8841  27.667  15.130   4.663
47388W        W 8842  19.070  26.197   3.734
47389W        W 8843  21.213  27.061  10.929
47390W        W 8844   6.709  19.202   2.419
47391W        W 8845  10.212  42.478  14.493
47392W        W 8846  23.501  21.101  11.105
47393W        W 8847  36.367  30.022   1.880
47394W        W 8848  18.114  39.958   3.222
47395W        W 8849  31.531  12.338  13.932
47396W        W 8850  22.555  41.025   2.688
47397W        W 8851  13.716  37.425  13.867
47398W        W 8852  42.028  23.060   0.849
47399W        W 8853  39.470  11.707  12.953
47400W        W 8854  14.304  23.736   4.302
47401W        W 8855   7.236  33.439   4.331
47402W        W 8856   8.170  35.947  12.488
47403W        W 8857   8.329  28.483  11.051
47404W        W 8858  24.513  14.656   0.814
47405W        W 8859   7.283  36.959  10.964
47406W        W 8860  31.505  26.515   0.958
47407W        W 8861   9.858  25.032   3.356
47408W        W 8862   3.379   1.402   2.896
47409W        W 8863  39.407  37.084  11.100
47410W        W 8864   4.438   7.856   0.250
47411W        W 8865  12.788  21.243  13.928
47412W        W 8866   2.963   1.963  10.419
47413W        W 8867  27.019  25.603   1.216
47414W        W 8868  13.630   5.297  14.347
47415W        W 8869  11.298  37.854  13.348
47416W        W 8870  27.062   4.851  14.913
47417W        W 8871   0.862  19.558  12.340
47418W        W 8872  18.607  14.756   2.328
47419W        W 8873  20.107   2.258   4.154
47420W        W 8874  14.180  23.707  12.836
47421W        W 8875  23.087  24.221   2.418
47422W        W 8876  11.196  20.734  11.989
47423W        W 8877  11.826  24.638  11.555
47424W        W 8878  11.808  35.094   4.771
47425W        W 8879  24.648  44.454  10.925
47426W        W 8880  27.137  36.405  13.858
47427W        W 8881  43.370  33.069   0.395
47428W        W 8882  21.087  14.666   1.322
47429W        W 8883   6.841   0.938  14.407
47430W        W 8884  12.196  14.616  11.380
47431W        W 8885   9.382   6.281   0.945
47432W        W 8886  13.306  41.904   0.246
47433W        W 8887   7.827  18.172   0.889
47434W        W 8888  22.595  44.304   1.718
47435W        W 8889  23.731   3.389   3.693
47436W        W 8890   4.877  37.975   1.359
47437W        W 8891  21.038  35.909  14.837
47438W        W 8892  27.472  32.025  14.980
47439W        W 8893   9.832  18.054   0.921
47440W        W 8894  16.753   7.290  12.511
47441W        W 8895  24.027  13.324   0.449
47442W        W 8896  28.672   9.702  11.947
47443W        W 8897   4.723  23.096   2.205
47444W        W 8898   1.808  35.951   2.741
47445W        W 8899  21.235  30.063   2.735
47446W        W 8900  32.114  44.860  12.412
47447W        W 8901   5.747  28.965   4.229
47448W        W 8902  27.528   3.866  13.373
47449W        W 8903   8.858  33.592  13.917
47450W        W 8904   5.202  22.565   0.313
47451W        W 8905   4.263   4.343  10.994
47452W        W 8906   4.238  44.431  14.999
47453W        W 8907  40.405   8.289  11.066
47454W        W 8908  36.973  29.669  10.541
47455W        W 8909  32.080  25.042   4.285
47456W        W 8910  10.294  34.879   5.144
47457W        W 8911  41.357  39.832  14.480
47458W        W 8912  16.142  37.369   0.959
47459W        W 8913  15.707  43.333   2.282
47460W        W 8914  10.680  41.814   1.377
47461W        W 8915  17.158  44.950   4.232
47462W        W 8916  37.921  23.522   2.715
47463W        W 8917  17.672   7.746   3.232
47464W        W 8918  11.818  41.438   4.204
47465W        W 8919  19.650   4.914   0.278
47466W        W 8920   7.255  10.738  12.033
47467W        W 8921  38.836  15.619   4.761
47468W        W 8922  35.050   4.254  11.981
47469W        W 8923  31.984  19.182  14.375
47470W        W 8924   4.391   8.302  13.025
47471W        W 8925  33.882  40.479  12.867
47472W        W 8926  44.488  11.712  14.395
47473W        W 8927  13.687  29.000   1.375
47474W        W 8928  41.459  36.558   0.454
47475W        W 8929  27.514   9.818  12.410
47476W        W 8930  22.711   4.222  14.788
47477W        W 8931  27.498  16.567  13.808
47478W        W 8932  38.997   6.920   1.309
47479W        W 8933  27.983  28.484   1.265
47480W        W 8934  36.449  23.230  12.533
47481W        W 8935   3.827  37.419   4.677
47482W        W 8936  17.582   6.838   1.830
47483W        W 8937  32.395  35.509   4.716
47484W        W 8938  31.527  14.658  12.413
47485W        W 8939  26.628  15.728  10.615
47486W        W 8940  18.137  41.506  13.868
47487W        W 8941   8.831   7.798   1.723
47488W        W 8942  37.484  38.382   3.831
47489W        W 8943  18.629   0.905  12.858
47490W        W 8944  25.616   7.722  10.079
47491W        W 8945   6.428   8.808   3.333
47492W        W 8946  30.432  26.039  12.509
47493W        W 8947  11.343  16.753   3.344
47494W        W 8948  24.608   1.912  10.476
47495W        W 8949  42.401  44.980  12.982
47496W        W 8950  43.017  22.152  10.425
47497W        W 8951  25.630  30.976   3.820
47498W        W 8952  16.604   3.846   3.685
47499W        W 8953  10.189  32.890   3.178
47500W        W 8954  38.954   8.715   0.949
47501W        W 8955  21.186  34.557  13.835
47502W        W 8956   1.458   7.345   4.620
47503W        W 8957  20.705  39.944  11.545
47504W        W 8958  43.368  15.577   4.187
47505W        W 8959  35.516  16.745  12.851
47506W        W 8960  21.665  38.546   3.744
47507W        W 8961  35.514  25.207  12.079
47508W        W 8962  26.039   8.670   2.385
47509W        W 8963  44.890  37.433   1.305
47510W        W 8964  38.524  36.409  11.056
47511W        W 8965   8.299   5.926   1.871
47512W        W 8966  24.669   3.290  13.512
47513W        W 8967  44.408  36.097   3.716
47514W        W 8968  10.330  25.568  12.487
47515W        W 8969  24.229   7.709   1.847
47516W        W 8970  27.524  23.497  12.049
47517W        W 8971  26.653  41.445  10.515
47518W        W 8972  14.611  23.174  14.951
47519W        W 8973  24.097  22.112  11.521
47520W        W 8974  33.086  35.001  11.377
47521W        W 8975  33.920   5.747  11.536
47522W        W 8976  31.050  17.612   1.260
47523W        W 8977  36.935  34.927   2.886
47524W        W 8978   3.713  42.846   1.411
47525W        W 8979  40.408  12.213   2.740
47526W        W 8980   9.837  15.249   0.388
47527W        W 8981   4.417  29.493   3.630
47528W        W 8982  12.695  41.872   1.824
47529W        W 8983  27.556  17.176  12.578
47530W        W 8984  22.218   4.781   3.807
47531W        W 8985  31.587   2.242   3.368
47532W        W 8986  40.840  34.945   1.817
47533W        W 8987  25.604  44.786   2.747
47534W        W 8988  19.598  10.667  14.779
47535W        W 8989  28.015  17.080   0.304
47536W        W 8990  35.432  42.000   2.351
47537W        W 8991  15.272  29.949  13.447
47538W        W 8992  16.091  25.129   2.236
47539W        W 8993   1.360  43.323   2.753
47540W        W 8994  38.514  35.423   4.178
47541W        W 8995  44.798   9.873   2.369
47542W        W 8996   5.432  15.712   3.735
47543W        W 8997  41.417  17.243   2.191
47544W        W 8998   8.833  14.733   3.637
47545W        W 8999  38.934  41.910   1.400
47546W        W 9000  38.394  17.252   3.705
47547W        W 9001   1.805   4.749  14.838
47548W        W 9002  34.033  12.839   4.730
47549W        W 9003   0.253  35.022  13.928
47550W        W 9004  28.047  24.489   1.228
47551W        W 9005  34.872   4.828   9.972
47552W        W 9006  10.271  14.292  12.881
47553W        W 9007   3.722  11.147   3.835
47554W        W 9008   5.831  37.437  14.875
47555W        W 9009  11.354  14.274   0.949
47556W        W 9010  34.431   3.302  10.594
47557W        W 9011  16.309  26.668  13.520
47558W        W 9012  28.117  22.524   0.436
47559W        W 9013  13.803  37.018   3.245
47560W        W 9014  42.420  23.063   0.396
47561W        W 9015   4.334  20.098  14.300
47562W        W 9016  28.160   8.843   3.316
47563W        W 9017  42.989   2.804   4.705
47564W        W 9018  28.649  41.961   1.325
47565W        W 9019  11.675  36.516  11.882
47566W        W 9020  35.016  34.864  13.014
47567W        W 9021  19.284  20.216   3.751
47568W        W 9022  26.984  27.460  12.029
47569W        W 9023  21.228  26.636  11.524
47570W        W 9024   1.406   9.699   3.305
47571W        W 9025  21.190  21.127  10.129
47572W        W 9026  28.062   3.739   2.410
47573W        W 9027  33.474  37.498  12.033
47574W        W 9028  21.170  39.884   2.391
47575W        W 9029  10.381  20.676   3.855
47576W        W 9030  23.594  12.171   3.322
47577W        W 9031  16.611  40.968   3.629
47578W        W 9032   0.892   7.734  10.616
47579W        W 9033  36.045  41.360   4.718
47580W        W 9034  10.725  23.514  14.032
47581W        W 9035  10.300  41.007  14.441
47582W        W 9036   0.275  14.745  11.915
47583W        W 9037  14.114  36.014   1.232
47584W        W 9038  27.560  16.738   2.237
47585W        W 9039   4.360   1.389   1.882
47586W        W 9040  19.197  13.285  14.375
47587W        W 9041   7.397   1.772  13.323
47588W        W 9042  38.523  40.435  11.442
47589W        W 9043  22.612  39.354   9.933
47590W        W 9044  25.110  26.640  12.379
47591W        W 9045   3.443  19.745  10.109
47592W        W 9046  42.819  24.114   4.126
47593W        W 9047  35.412  32.503   0.338
47594W        W 9048  18.636  29.042   0.343
47595W        W 9049  24.095  23.500  13.352
47596W        W 9050  29.633  29.648  13.030
47597W        W 9051   4.349   4.828  10.895
47598W        W 9052  44.387   8.343   1.236
47599W        W 9053   8.680  42.970   1.305
47600W        W 9054  34.440  26.173   1.240
47601W        W 9055  10.148  28.121   3.793
47602W        W 9056  33.534  29.637   1.778
47603W        W 9057   5.872  40.339  11.957
47604W        W 9058   7.762  16.594  10.981
47605W        W 9059  41.994  27.542   2.379
47606W        W 9060  43.440  44.851  13.902
47607W        W 9061  36.960  23.717   2.309
47608W        W 9062  38.896  38.916  14.500
47609W        W 9063  12.819   1.783  13.943
47610W        W 9064  17.800  44.336   0.792
47611W        W 9065  40.972  20.132  10.575
47612W        W 9066  24.606  15.083   4.174
47613W        W 9067  28.491  40.027  12.450
47614W        W 9068  32.390  36.912   1.741
47615W        W 9069   4.866  19.166  11.400
47616W        W 9070  44.377  13.239   4.245
47617W        W 9071  15.325  25.647   3.643
47618W        W 9072  19.279  37.368  14.305
47619W        W 9073  28.651  33.528   1.367
47620W        W 9074  32.945  25.524   4.342
47621W        W 9075  20.596  16.162   2.711
47622W        W 9076  36.515   3.440   2.413
47623W        W 9077  39.951  30.164   3.248
47624W        W 9078  39.377  41.853   5.230
47625W        W 9079  18.650  42.782   4.696
47626W        W 9080   9.180  28.053   2.393
47627W        W 9081  44.399  35.465  11.891
47628W        W 9082   3.424   1.779  12.975
47629W        W 9083  26.993  28.480   1.414
47630W        W 9084  16.716   9.374  14.495
47631W        W 9085  16.170  41.501  12.528
47632W        W 9086  28.475  42.968  14.799
47633W        W 9087  34.025  42.479   0.371
47634W        W 9088   9.150  19.047  13.891
47635W        W 9089   2.383  17.698   3.336
47636W        W 9090  25.652  25.154  13.529
47637W        W 9091  35.492   2.374  14.819
47638W        W 9092   2.423  33.119  13.817
47639W        W 9093  16.293  13.650   5.693
47640W        W 9094  38.045   4.266  12.456
47641W        W 9095  17.567  20.253  11.097
47642W        W 9096  44.986  13.330   3.800
47643W        W 9097  26.114  27.148   2.759
47644W        W 9098  18.676  31.049   0.467
47645W        W 9099   4.841  43.353   2.279
47646W        W 9100   9.680  31.603   3.841
47647W        W 9101   7.724  17.733  10.890
47648W        W 9102  31.915  36.504  13.496
47649W        W 9103  25.184  27.459  13.828
47650W        W 9104  25.016   1.948   3.308
47651W        W 9105  32.492   2.290  14.775
47652W        W 9106  17.565  30.543  13.363
47653W        W 9107  36.992  22.059  14.935
47654W        W 9108  22.666  30.613  13.394
47655W        W 9109   0.876   3.254   1.728
47656W        W 9110  44.916   4.787   4.729
47657W        W 9111  25.200  26.122  11.503
47658W        W 9112  10.306   1.763   1.391
47659W        W 9113   1.846   3.811  13.358
47660W        W 9114  20.556  40.406  13.937
47661W        W 9115   6.700  37.935   2.823
47662W        W 9116  11.803  21.586  10.464
47663W        W 9117  34.540  32.468  13.989
47664W        W 9118  42.843  40.889   2.695
47665W        W 9119  10.358  43.914   2.864
47666W        W 9120  20.156  25.484   1.814
47667W        W 9121  17.723  39.423  13.011
47668W        W 9122  18.076  17.590   0.940
47669W        W 9123  28.085   5.907  10.894
47670W        W 9124  13.672   9.382  13.976
47671W        W 9125   5.379  36.092  10.499
47672W        W 9126  29.585  22.187  14.798
47673W        W 9127   3.891  11.176   2.803
47674W        W 9128  36.056  41.844   4.216
47675W        W 9129   6.875  31.917   5.252
47676W        W 9130  39.449  33.410   0.755
47677W        W 9131  44.389  44.387  13.816
47678W        W 9132   8.678  35.110   5.171
47679W        W 9133  18.099  10.209   3.151
47680W        W 9134  17.186  38.991   5.191
47681W        W 9135  21.577  29.489  10.468
47682W        W 9136  22.201   0.405  14.457
47683W        W 9137  41.514  14.095   0.751
47684W        W 9138  31.062  12.849  10.598
47685W        W 9139  13.702  36.886  10.430
47686W        W 9140   8.355  39.554  11.490
47687W        W 9141  12.665  18.593   2.770
47688W        W 9142  24.145  26.086   4.657
47689W        W 9143  33.480  16.109   1.261
47690W        W 9144  26.595  29.018   1.275
47691W        W 9145  31.634  25.525  14.858
47692W        W 9146  32.993   8.729   3.706
47693W        W 9147  41.295   9.257  11.546
47694W        W 9148  19.124  38.362  11.916
47695W        W 9149  25.133   8.812   1.695
47696W        W 9150   2.949  42.805  12.500
47697W        W 9151  14.638  11.239   4.303
47698W        W 9152  32.069  36.904  13.887
47699W        W 9153  44.371  43.938   2.386
47700W        W 9154  35.444  16.635  12.035
47701W        W 9155  34.075  24.592   0.783
47702W        W 9156  37.886  27.068   2.674
47703W        W 9157   9.177  23.069  12.824
47704W        W 9158   7.791  31.632   0.325
47705W        W 9159  17.653   9.690   5.091
47706W        W 9160  42.984  34.113  13.050
47707W        W 9161   1.850  13.702   1.696
47708W        W 9162  41.932  13.250  14.295
47709W        W 9163   5.208   1.265   3.792
47710W        W 9164  11.634  35.546   2.770
47711W        W 9165  40.001  13.845  10.547
47712W        W 9166   8.201   0.801   0.476
47713W        W 9167  15.112  20.689   3.857
47714W        W 9168  41.934  35.501  12.443
47715W        W 9169  33.910  44.824  14.499
47716W        W 9170   4.730   6.274   2.312
47717W        W 9171  42.788  27.458  12.418
47718W        W 9172   4.334  40.908  14.017
47719W        W 9173  14.302  11.204  10.099
47720W        W 9174  27.464  29.044   3.704
47721W        W 9175  34.505   3.775   4.261
47722W        W 9176  16.760  25.125  11.595
47723W        W 9177  44.844  15.106   4.234
47724W        W 9178  20.644   7.744  14.491
47725W        W 9179   0.361  40.358  11.455
47726W        W 9180  10.742   1.340  10.493
47727W        W 9181  40.425  25.694   1.814
47728W        W 9182  33.914   4.363  13.371
47729W        W 9183  27.634  28.179   0.968
47730W        W 9184   6.415  23.636  14.449
47731W        W 9185  20.142  40.363  12.379
47732W        W 9186  42.362  30.519  10.894
47733W        W 9187  14.769   4.891  10.506
47734W        W 9188  20.188  27.039   3.340
47735W        W 9189  43.413  44.326  13.024
47736W        W 9190  17.639  34.986  11.111
47737W        W 9191  43.434  10.174  10.019
47738W        W 9192  38.939   8.897  12.488
47739W        W 9193   6.389  36.437  11.595
47740W        W 9194  44.362  34.926   0.434
47741W        W 9195  18.156  34.888   0.800
47742W        W 9196  40.904   3.307   0.462
47743W        W 9197  37.869   7.696   4.834
47744W        W 9198  30.923  30.110   1.251
47745W        W 9199   7.365  26.133   2.769
47746W        W 9200   3.896  21.702  12.092
47747W        W 9201  18.601  38.894   4.140
47748W        W 9202  29.442  35.482   0.874
47749W        W 9203  24.157  12.129   3.649
47750W        W 9204  22.704  32.599   9.935
47751W        W 9205  30.908  36.992   1.358
47752W        W 9206  18.193  39.531  12.960
47753W        W 9207  10.152  18.236   5.216
47754W        W 9208  28.601  37.849   3.698
47755W        W 9209  39.054   9.821   4.352
47756W        W 9210   3.220  18.088   2.247
47757W        W 9211  12.120  29.959   2.813
47758W        W 9212  12.339  28.551  13.924
47759W        W 9213  20.683  20.172   4.157
47760W        W 9214  28.459  37.509   0.932
47761W        W 9215   1.897  15.694   0.944
47762W        W 9216  11.298  31.492   2.754
47763W        W 9217   1.879   3.922  12.527
47764W        W 9218  24.215   0.463  13.064
47765W        W 9219   6.275  25.559  10.481
47766W        W 9220   5.222  38.454   4.739
47767W        W 9221  24.666  25.545  10.491
47768W        W 9222  15.085  30.952  12.864
47769W        W 9223   1.257  41.321   4.309
47770W        W 9224  42.365  14.106   1.255
47771W        W 9225  29.611   5.775   4.249
47772W        W 9226  37.502  10.168   3.830
47773W        W 9227  21.053  39.813   3.336
47774W        W 9228  22.207  26.034  11.078
47775W        W 9229  12.625  36.893   0.302
47776W        W 9230  15.305  37.006  10.590
47777W        W 9231  35.877   2.318  10.917
47778W        W 9232  24.689  17.107  10.462
47779W        W 9233  41.490  24.725  12.438
47780W        W 9234  31.404  19.133  13.452
47781W        W 9235  14.288  18.773   1.291
47782W        W 9236  32.959  21.542   4.790
47783W        W 9237   8.698  13.218   0.314
47784W        W 9238  33.604  17.306   1.303
47785W        W 9239  14.760  17.278  14.930
47786W        W 9240  25.081  39.900   3.856
47787W        W 9241   8.870   2.455   1.778
47788W        W 9242  26.595  42.972   0.381
47789W        W 9243  32.009  21.239   0.753
47790W        W 9244  20.594  32.011   3.845
47791W        W 9245  17.064  19.535   3.375
47792W        W 9246   5.906   9.320   1.346
47793W        W 9247  26.530  23.178  13.993
47794W        W 9248  11.803  33.411   4.316
47795W        W 9249  31.520  17.725   0.762
47796W        W 9250  25.194  31.141  10.413
47797W        W 9251  41.038   1.943  14.968
47798W        W 9252  22.078  38.011  12.974
47799W        W 9253  10.338  30.521   2.342
47800W        W 9254  44.342   1.331  12.343
47801W        W 9255  37.441  25.511  11.908
47802W        W 9256  40.485   8.319  14.870
47803W        W 9257  22.546  12.652  10.590
47804W        W 9258   0.251  36.463  11.966
47805W        W 9259   9.200  20.652   2.268
47806W        W 9260  27.194  40.500   4.805
47807W        W 9261  39.466  16.160   2.291
47808W        W 9262  29.455  21.226   3.316
47809W        W 9263  10.739  28.574  11.118
47810W        W 9264  19.107   8.834  13.539
47811W        W 9265  13.660  17.244   2.757
47812W        W 9266   3.369  13.843  13.465
47813W        W 9267  44.972   5.424   1.912
47814W        W 9268  23.593  28.138   1.731
47815W        W 9269  13.794  34.422  14.849
47816W        W 9270  28.174  21.029  13.445
47817W        W 9271  38.516  32.931   2.678
47818W        W 9272  17.707  15.724  10.982
47819W        W 9273   7.271  31.066   4.750
47820W        W 9274  28.171  25.006  10.010
47821W        W 9275  23.032  18.169   0.366
47822W        W 9276  11.786  31.973   2.361
47823W        W 9277  12.157  39.054   0.913
47824W        W 9278  20.747   3.447  11.902
47825W        W 9279  44.499  39.370   1.242
47826W        W 9280   6.363  12.347  10.907
47827W        W 9281  11.199   6.794   4.737
47828W        W 9282   0.870  32.580  13.810
47829W        W 9283  35.100  44.450  14.926
47830W        W 9284   8.252  29.498   5.293
47831W        W 9285   4.840  25.579   2.669
47832W        W 9286  12.753   4.850   4.752
47833W        W 9287  18.112  20.242  11.501
47834W        W 9288   0.944  19.233   2.857
47835W        W 9289  11.706  30.152   4.790
47836W        W 9290  38.847  35.088   0.320
47837W        W 9291  10.184  28.183  11.553
47838W        W 9292   2.964  31.977  11.601
47839W        W 9293  17.158  10.312   2.313
47840W        W 9294  20.611  24.595   0.800
47841W        W 9295  28.169  11.252  12.026
47842W        W 9296   6.776  12.252  11.584
47843W        W 9297   1.734  13.714   4.201
47844W        W 9298  14.227  32.920   3.247
47845W        W 9299  39.953  12.212  10.469
47846W        W 9300  25.029  35.444  13.387
47847W        W 9301  27.469  31.990   3.735
47848W        W 9302  41.361  30.135   3.801
47849W        W 9303  32.115  28.975  14.362
47850W        W 9304  42.960  28.147   5.288
47851W        W 9305  31.498   5.697   3.700
47852W        W 9306  25.092  24.182   0.851
47853W        W 9307  18.159  17.565  11.038
47854W        W 9308  21.541   1.378   2.872
47855W        W 9309  18.642  11.849   3.233
47856W        W 9310  12.755   2.274  13.009
47857W        W 9311  11.249  44.806   1.234
47858W        W 9312  37.535  31.909   0.408
47859W        W 9313  33.931  40.841  10.572
47860W        W 9314   3.274  19.074  14.322
47861W        W 9315   2.256  17.298   2.693
47862W        W 9316  31.985  12.177   2.716
47863W        W 9317  39.012  35.966   5.152
47864W        W 9318  37.984  16.081  11.442
47865W        W 9319  22.016  27.598  13.028
47866W        W 9320  15.661   8.694   5.228
47867W        W 9321   8.304  22.161  14.975
47868W        W 9322  31.946  34.486   2.221
47869W        W 9323  41.036  27.185  13.836
47870W        W 9324   3.891  17.247  12.896
47871W        W 9325  38.473  38.351   2.746
47872W        W 9326   0.279  41.507   4.664
47873W        W 9327  38.400  42.015   0.339
47874W        W 9328  22.664  27.588  13.403
47875W        W 9329  27.126  12.645   2.828
47876W        W 9330   1.913  15.148  11.025
47877W        W 9331  20.652  38.518   0.256
47878W        W 9332  14.103  32.392   0.731
47879W        W 9333  25.188  25.690   2.753
47880W        W 9334  14.591  11.232   5.617
47881W        W 9335  31.552   9.816  12.561
47882W        W 9336   4.770  30.584   1.421
47883W        W 9337  37.966  23.092   2.251
47884W        W 9338   8.359  44.360   3.842
47885W        W 9339   4.844  21.204  11.875
47886W        W 9340  37.388  42.383   0.267
47887W        W 9341  25.564  32.511   0.910
47888W        W 9342   9.189   1.965  12.825
47889W        W 9343   2.794   9.674  13.920
47890W        W 9344  14.827   7.181  13.403
47891W        W 9345  30.940  14.300   0.428
47892W        W 9346   4.867  26.587   2.684
47893W        W 9347  17.163   3.384   1.434
47894W        W 9348  32.059   8.751   4.129
47895W        W 9349  43.293  14.820  14.316
47896W        W 9350  38.853  12.299  13.444
47897W        W 9351   4.264   9.681   3.802
47898W        W 9352  13.129  44.310   1.443
47899W        W 9353  23.156  28.142  11.445
47900W        W 9354  31.062  21.719   3.692
47901W        W 9355  13.347  36.995  11.063
47902W        W 9356   6.720  44.421   2.763
47903W        W 9357  38.038  34.377  14.490
47904W        W 9358  39.435  31.981  11.870
47905W        W 9359   4.931   2.912   5.203
47906W        W 9360  36.021  39.926   2.769
47907W        W 9361   9.165   6.708   4.754
47908W        W 9362  44.990   2.772   1.906
47909W        W 9363  16.292  44.874  12.364
47910W        W 9364  32.605  25.111  13.031
47911W        W 9365  10.165  35.544   0.286
47912W        W 9366  16.243   2.423   0.828
47913W        W 9367  33.089   0.454   4.280
47914W        W 9368  30.420  43.887  12.446
47915W        W 9369  14.160  23.058  11.426
47916W        W 9370  36.460   6.849   0.446
47917W        W 9371  32.486  18.111  10.450
47918W        W 9372  26.076  31.973  14.790
47919W        W 9373  27.165  42.920   0.473
47920W        W 9374   0.988  20.152   4.234
47921W        W 9375  19.070  13.137   2.827
47922W        W 9376  43.835  31.428  13.407
47923W        W 9377  32.576  43.434   2.778
47924W        W 9378  31.553  34.877  10.428
47925W        W 9379  25.493  21.758  14.913
47926W        W 9380  43.965  10.729   1.889
47927W        W 9381  17.083  42.917   2.366
47928W        W 9382  14.612  27.621   1.365
47929W        W 9383  17.229  11.184   1.726
47930W        W 9384  12.777  34.081   3.638
47931W        W 9385  21.723  42.832  14.358
47932W        W 9386  32.058   2.733  14.397
47933W        W 9387  33.514  23.235  10.978
47934W        W 9388  34.462  29.076  13.827
47935W        W 9389  11.256   8.771   0.363
47936W        W 9390  26.026  28.505  11.078
47937W        W 9391  37.932   4.789  14.277
47938W        W 9392   0.408  23.992  11.949
47939W        W 9393  23.490   7.417   9.572
47940W        W 9394  26.462   1.792   3.672
47941W        W 9395  25.661  12.699   4.249
47942W        W 9396  11.786  44.894   4.735
47943W        W 9397  22.236  42.299   1.842
47944W        W 9398   7.732   2.777   2.223
47945W        W 9399  42.416  22.640   4.312
47946W        W 9400  29.948  12.683   3.741
47947W        W 9401  31.049  23.019   0.777
47948W        W 9402  12.740   4.864  13.945
47949W        W 9403  13.237  18.107   0.963
47950W        W 9404   9.813  38.068  14.857
47951W        W 9405  35.526  35.394   1.851
47952W        W 9406  40.812  44.782  14.932
47953W        W 9407   1.361  32.076   0.443
47954W        W 9408  37.873   7.204   1.263
47955W        W 9409   3.789  20.710  13.830
47956W        W 9410  13.679  13.190  11.873
47957W        W 9411  29.063  31.647  14.277
47958W        W 9412  15.632  41.820   4.748
47959W        W 9413  10.324  41.534   0.813
47960W        W 9414  39.981  26.078   2.369
47961W        W 9415  33.116  28.087   3.696
47962W        W 9416  21.064   4.699  11.022
47963W        W 9417  44.959   8.808   1.903
47964W        W 9418   2.230  26.547  10.029
47965W        W 9419  24.994  38.407  12.957
47966W        W 9420  12.840  26.690  11.092
47967W        W 9421  40.861  39.403  13.528
47968W        W 9422  12.725  41.355  14.020
47969W        W 9423   1.476   4.434  10.467
47970W        W 9424  18.632  43.436  12.825
47971W        W 9425  17.120  22.574  14.285
47972W        W 9426  36.393  39.907   9.509
47973W        W 9427  42.368  12.316  13.998
47974W        W 9428  15.788  18.552  12.339
47975W        W 9429  18.724   0.491   4.276
47976W        W 9430  22.093  19.131  13.848
47977W        W 9431  33.887  12.774   3.817
47978W        W 9432  40.548  10.150  14.011
47979W        W 9433  32.096  38.555   4.624
47980W        W 9434  20.579  40.918   4.179
47981W        W 9435  43.947   9.735   2.728
47982W        W 9436  36.916  27.691   4.248
47983W        W 9437   5.837  11.742  10.443
47984W        W 9438  12.657  11.178  11.521
47985W        W 9439  44.416  30.998  13.537
47986W        W 9440  13.799   3.236   3.770
47987W        W 9441  32.031   3.835  12.933
47988W        W 9442  38.485   8.396  13.446
47989W        W 9443   3.387  24.066  14.497
47990W        W 9444  36.867   4.227   3.263
47991W        W 9445  31.077  11.832   1.353
47992W        W 9446  43.446  21.151   1.352
47993W        W 9447  39.484  43.486   9.594
47994W        W 9448  10.862  37.549  14.800
47995W        W 9449  36.371  12.275   0.289
47996W        W 9450  41.416  19.172   4.128
47997W        W 9451  24.540  43.809  14.329
47998W        W 9452  22.539  33.624  11.547
47999W        W 9453  24.486  31.040  12.552
48000W        W 9454  33.082   3.301  10.542
48001W        W 9455  11.300  15.281  12.089
48002W        W 9456   9.388  44.962   0.405
48003W        W 9457  21.196  31.074  12.481
48004W        W 9458  36.008  31.947   0.358
48005W        W 9459  37.949  15.094   1.835
48006W        W 9460   6.298   5.438  12.979
48007W        W 9461   1.424  23.559   0.791
48008W        W 9462  23.490  43.767  11.406
48009W        W 9463  24.988  15.732   3.168
48010W        W 9464   7.734  14.210   2.359
48011W        W 9465  24.049  13.634   2.349
48012W        W 9466  40.375   5.361  12.572
48013W        W 9467  22.555   9.300   2.894
48014W        W 9468  19.098  24.492  14.464
48015W        W 9469  37.895  16.104   0.853
48016W        W 9470  27.129  26.069   2.202
48017W        W 9471  24.712  20.267   3.370
48018W        W 9472  33.887  30.951  10.473
48019W        W 9473   3.824  37.845  14.783
48020W        W 9474  32.465  18.128   0.794
48021W        W 9475  25.006  44.318  13.344
48022W        W 9476   6.762  15.237  14.863
48023W        W 9477  39.408  44.466   0.731
48024W        W 9478   6.346  11.798   3.792
48025W        W 9479  37.559  34.942  10.417
48026W        W 9480  35.430   7.775  11.092
48027W        W 9481  16.804  42.520  12.916
48028W        W 9482   7.813  29.550   3.631
48029W        W 9483  41.836  26.557   4.700
48030W        W 9484  30.463   2.786  13.338
48031W        W 9485  11.753  13.285  11.414
48032W        W 9486  21.520  24.618  11.010
48033W        W 9487  21.229  19.671  13.023
48034W        W 9488  28.020   4.407  12.439
48035W        W 9489  39.479  17.693  12.851
48036W        W 9490  19.623  40.858  14.481
48037W        W 9491  30.907  33.967  12.518
48038W        W 9492   5.198  23.211  13.009
48039W        W 9493  31.490  17.129   3.214
48040W        W 9494  26.056  27.174   4.272
48041W        W 9495  23.664  10.194   2.754
48042W        W 9496  41.039  35.862   2.836
48043W        W 9497   2.840  24.085  10.560
48044W        W 9498   9.378   6.250   2.355
48045W        W 9499  20.610  41.826  14.973
48046W        W 9500  35.954  24.127  14.361
48047W        W 9501   9.227  35.437  12.060
48048W        W 9502  24.160  42.864  14.001
48049W        W 9503  22.161   8.391  13.453
48050W        W 9504  33.036   2.755   3.181
48051W        W 9505  35.395  41.814  12.470
48052W        W 9506  15.787  11.639   3.732
48053W        W 9507   9.814  32.944   0.308
48054W        W 9508  21.169  39.857  13.360
48055W        W 9509  13.157  35.910  11.528
48056W        W 9510  25.208  39.515   1.887
48057W        W 9511   5.204   1.366  14.762
48058W        W 9512  25.123  36.355  14.347
48059W        W 9513   0.798  24.610   1.365
48060W        W 9514  42.425  33.541   0.258
48061W        W 9515   7.249   9.873   1.935
48062W        W 9516  34.961  42.356  13.926
48063W        W 9517  33.921  31.122   0.881
48064W        W 9518  42.028  10.174  13.465
48065W        W 9519  11.785   5.780  12.907
48066W        W 9520  15.268  17.615   1.291
48067W        W 9521  29.124  16.294  13.390
48068W        W 9522   6.249  29.990  14.989
48069W        W 9523  38.334  34.373   1.903
48070W        W 9524   1.789  24.013   2.680
48071W        W 9525  43.017  21.197   1.326
48072W        W 9526  19.706  33.057   9.983
48073W        W 9527   8.850  16.578  10.584
48074W        W 9528  16.312  34.483   4.325
48075W        W 9529  26.496  21.655  14.351
48076W        W 9530  42.877  17.125   0.919
48077W        W 9531  13.314  17.211  13.971
48078W        W 9532  38.381  19.240   4.638
48079W        W 9533  38.362   2.427   0.459
48080W        W 9534  20.683   0.750  11.113
48081W        W 9535  28.070  15.713  13.036
48082W        W 9536  37.083  28.441   0.481
48083W        W 9537  33.472  44.501  12.995
48084W        W 9538  34.939  23.058   0.451
48085W        W 9539  36.556  40.512  11.481
48086W        W 9540  31.047   3.222   5.310
48087W        W 9541  10.654  37.489   0.881
48088W        W 9542  41.354  43.992   3.845
48089W        W 9543  29.097  27.138   9.993
48090W        W 9544   4.227   4.277  12.022
48091W        W 9545   2.954  42.910   3.839
48092W        W 9546  36.564  28.466   3.866
48093W        W 9547  16.627  35.382  14.500
48094W        W 9548  28.527   0.296  12.425
48095W        W 9549  10.841  15.605  12.047
48096W        W 9550  28.944  38.829  14.282
48097W        W 9551  27.671  34.534  13.492
48098W        W 9552  29.592  14.621  13.367
48099W        W 9553   5.753  25.470   2.835
48100W        W 9554  15.798   2.872  11.011
48101W        W 9555  17.150  11.349   3.837
48102W        W 9556  29.126  20.215   3.168
48103W        W 9557  17.164  32.928   4.160
48104W        W 9558  42.015  22.515  14.890
48105W        W 9559  19.727  12.785   0.746
48106W        W 9560  38.558  40.890   5.589
48107W        W 9561  25.205  10.708   4.174
48108W        W 9562  36.974  18.244   4.321
48109W        W 9563  23.191  20.639  11.949
48110W        W 9564  38.830  16.655   4.288
48111W        W 9565   9.744  44.448   3.796
48112W        W 9566   5.214   8.305   3.234
48113W        W 9567  23.592   9.885   1.368
48114W        W 9568  13.754   3.250   4.747
48115W        W 9569  40.508  11.744  14.030
48116W        W 9570  32.932  29.614   3.232
48117W        W 9571   6.335  43.351  12.827
48118W        W 9572  16.234  18.743  12.970
48119W        W 9573   1.975  11.707  11.009
48120W        W 9574  30.634  41.465  14.351
48121W        W 9575  42.845  18.063  12.499
48122W        W 9576   2.465  35.374  11.448
48123W        W 9577  26.161  41.816   2.210
48124W        W 9578  38.015   0.900  14.477
48125W        W 9579  28.657  35.527  12.402
48126W        W 9580   6.783  32.904   3.208
48127W        W 9581  22.042  40.336   4.323
48128W        W 9582  39.455  14.661   1.873
48129W        W 9583  31.121  16.227  10.497
48130W        W 9584  21.586  24.138  11.076
48131W        W 9585   3.433  17.562   3.630
48132W        W 9586  34.102  40.488   1.451
48133W        W 9587  26.598  12.802   1.416
48134W        W 9588   4.362  41.533  13.540
48135W        W 9589  44.436  16.072   2.376
48136W        W 9590  34.863  27.004   2.774
48137W        W 9591  41.986   7.811   1.828
48138W        W 9592  38.508  14.787  14.516
48139W        W 9593   7.759  26.955   2.677
48140W        W 9594   6.765  24.029   2.806
48141W        W 9595  43.859  44.004  13.034
48142W        W 9596  29.536  20.258  10.486
48143W        W 9597   8.216  40.936   1.283
48144W        W 9598  28.476  11.803  10.626
48145W        W 9599  35.080  10.229   4.187
48146W        W 9600  29.156  14.802   4.247
48147W        W 9601  39.020  24.122  13.464
48148W        W 9602   7.232  35.962   4.290
48149W        W 9603  36.556  38.524  10.938
48150W        W 9604   7.399   4.781   3.822
48151W        W 9605  26.594   1.248  10.052
48152W        W 9606  26.661   1.373   4.344
48153W        W 9607  14.669  27.511  12.452
48154W        W 9608  30.462  19.171   3.277
48155W        W 9609  27.143  24.662  13.957
48156W        W 9610  41.828  26.099  10.429
48157W        W 9611  15.642  39.343  10.579
48158W        W 9612  26.652  41.854   3.631
48159W        W 9613   9.377   4.758   9.955
48160W        W 9614  10.779  11.216   2.898
48161W        W 9615  36.009  32.611  12.431
48162W        W 9616  22.506  42.323   3.631
48163W        W 9617  16.567  27.448   0.476
48164W        W 9618   5.292   2.360  10.540
48165W        W 9619   3.843  10.196   4.690
48166W        W 9620  25.521   7.282  10.506
48167W        W 9621  19.102  42.472  11.446
48168W        W 9622  25.084  18.248   4.121
48169W        W 9623  10.821  17.699  14.397
48170W        W 9624  28.551   5.871   5.652
48171W        W 9625  21.196  41.426  10.619
48172W        W 9626  42.817   9.645  14.926
48173W        W 9627  37.894  12.701  12.993
48174W        W 9628  27.952   8.670  13.518
48175W        W 9629  23.159  37.079   3.300
48176W        W 9630  18.071  39.486  12.433
48177W        W 9631  39.821   4.919  11.538
48178W        W 9632  18.183  31.943   0.754
48179W        W 9633  21.709  26.008   0.943
48180W        W 9634  42.951  31.003  10.511
48181W        W 9635  42.965  30.551  11.409
48182W        W 9636  40.316  33.895  14.472
48183W        W 9637  11.176  17.586   0.755
48184W        W 9638  21.537  40.305  14.984
48185W        W 9639  24.624  44.941  11.492
48186W        W 9640  26.010  37.945  11.498
48187W        W 9641  37.041  14.257  13.386
48188W        W 9642  13.142  17.700   1.356
48189W        W 9643  34.026  22.165  12.079
48190W        W 9644  16.796  24.042  10.545
48191W        W 9645  33.899   3.815   0.385
48192W        W 9646   7.343   6.423  10.505
48193W        W 9647  28.522   2.340  13.994
48194W        W 9648  32.906  24.063  13.884
48195W        W 9649  35.369  34.017  12.908
48196W        W 9650  30.043  10.650   0.249
48197W        W 9651  33.450   6.340  11.004
48198W        W 9652  11.630  42.775  12.345
48199W        W 9653  28.069   2.738   1.351
48200W        W 9654  20.585   6.353   3.196
48201W        W 9655   0.348  24.045   3.658
48202W        W 9656   9.802   3.725   4.190
48203W        W 9657  32.995  42.516   1.905
48204W        W 9658  34.996  23.063  14.760
48205W        W 9659  23.598  27.656  13.842
48206W        W 9660  30.966  26.061  13.313
48207W        W 9661  22.159  28.939  10.940
48208W        W 9662  15.638   0.436   3.190
48209W        W 9663  44.002  44.887   4.689
48210W        W 9664   3.889  41.917  14.993
48211W        W 9665  12.180  40.870   5.210
48212W        W 9666  13.316  36.411  14.426
48213W        W 9667  35.429  20.068  13.920
48214W        W 9668  17.751  44.867   0.360
48215W        W 9669  41.804  22.032  12.001
48216W        W 9670  13.195  44.850   1.893
48217W        W 9671  43.795  27.688   4.711
48218W        W 9672   9.181  35.040   0.754
48219W        W 9673  15.203  24.697   4.275
48220W        W 9674  38.428  24.585   1.288
48221W        W 9675   3.328  25.528  13.019
48222W        W 9676  31.119  31.543   2.782
48223W        W 9677  28.654  25.672   4.833
48224W        W 9678  17.561  11.674   3.798
48225W        W 9679  18.185  31.989  13.046
48226W        W 9680  12.258  19.169  13.334
48227W        W 9681  28.468   7.714  10.061
48228W        W 9682  40.385  32.435  12.899
48229W        W 9683  31.078  24.997  11.058
48230W        W 9684  28.594  37.382  13.988
48231W        W 9685  30.588  26.665  10.083
48232W        W 9686   9.821  17.118  12.482
48233W        W 9687  23.994   9.332  14.432
48234W        W 9688  41.012   5.275   4.632
48235W        W 9689  27.997   9.290  13.057
48236W        W 9690  16.774  44.932  11.031
48237W        W 9691  25.211  22.012   1.265
48238W        W 9692   7.183  17.744   3.676
48239W        W 9693   3.460  10.231   5.106
48240W        W 9694  23.602   5.739  11.879
48241W        W 9695  19.067  42.969   1.398
48242W        W 9696  14.750  17.104   5.264
48243W        W 9697  32.398  13.253   2.407
48244W        W 9698   1.337  29.471   0.937
48245W        W 9699   1.394   8.744  14.828
48246W        W 9700   1.247  33.900  14.380
48247W        W 9701  22.168  12.220  14.339
48248W        W 9702  32.955   6.267   0.908
48249W        W 9703  29.061  21.712  12.823
48250W        W 9704  37.345   3.832  12.908
48251W        W 9705  35.037  29.937  11.945
48252W        W 9706  29.105  21.576   3.258
48253W        W 9707   4.230  28.663  13.899
48254W        W 9708  24.092   7.780  14.009
48255W        W 9709  26.132  34.041  14.971
48256W        W 9710  11.175  26.071   4.230
48257W        W 9711  13.261  26.969   4.338
48258W        W 9712   0.323  33.539  11.071
48259W        W 9713  22.013  17.247   3.243
48260W        W 9714  29.921   8.365  13.403
48261W        W 9715  24.540  16.094   4.124
48262W        W 9716  10.715  28.144   2.341
48263W        W 9717  33.569   0.853   1.426
48264W        W 9718  44.794  24.480  12.488
48265W        W 9719  29.071  37.907  12.084
48266W        W 9720   4.335   2.940  13.869
48267W        W 9721  25.023  17.690   1.297
48268W        W 9722  38.378  13.229  10.434
48269W        W 9723  38.838  38.384   3.768
48270W        W 9724  30.947  38.340  14.785
48271W        W 9725  16.593  43.859   1.794
48272W        W 9726  42.935  32.462   1.845
48273W        W 9727   0.275  13.272   4.303
48274W        W 9728  28.148  23.019  11.463
48275W        W 9729   1.471  29.938   3.867
48276W        W 9730  19.169   7.849   4.316
48277W        W 9731  18.266  16.728   3.707
48278W        W 9732  19.753  14.721   3.185
48279W        W 9733  16.744   3.371  12.979
48280W        W 9734  41.907  29.490   3.687
48281W        W 9735  14.276  27.536   3.804
48282W        W 9736  12.618  20.185  12.924
48283W        W 9737  15.180  32.469   3.259
48284W        W 9738  29.123  39.042  10.453
48285W        W 9739  35.928  10.737  13.924
48286W        W 9740  38.544   3.237   2.390
48287W        W 9741  33.936  31.087  13.381
48288W        W 9742  11.698   0.767   3.146
48289W        W 9743  37.930  35.517   2.375
48290W        W 9744  37.380   7.390   4.179
48291W        W 9745   5.861   1.799  10.416
48292W        W 9746  42.403  13.685  13.955
48293W        W 9747  40.990  16.805  12.026
48294W        W 9748   8.679  33.422  12.058
48295W        W 9749  28.635  10.217   2.820
48296W        W 9750  20.030  36.959   3.854
48297W        W 9751  33.384  22.531  10.615
48298W        W 9752  36.491   4.378  13.927
48299W        W 9753  33.553  32.493   0.777
48300W        W 9754  42.392  30.099   2.325
48301W        W 9755  14.099   9.836   1.246
48302W        W 9756   1.831   8.169  10.564
48303W        W 9757  31.506  23.725   3.798
48304W        W 9758  24.008   4.857   0.874
48305W        W 9759  22.540  43.003  12.404
48306W        W 9760  29.566  25.207   2.819
48307W        W 9761  28.457  12.769  14.912
48308W        W 9762  43.893  20.584  13.920
48309W        W 9763  41.469  29.499   2.236
48310W        W 9764  40.918  20.709   4.241
48311W        W 9765  28.558   4.230  13.425
48312W        W 9766  36.487  27.665   4.763
48313W        W 9767  10.701   7.697  11.504
48314W        W 9768   3.450  25.066  13.919
48315W        W 9769   8.327  26.022  13.831
48316W        W 9770  21.175  42.940   0.262
48317W        W 9771  36.995   9.333  14.900
48318W        W 9772  35.549  39.939   3.253
48319W        W 9773   9.153  27.169   2.212
48320W        W 9774   3.257  11.278   2.780
48321W        W 9775  40.928   4.841  11.538
48322W        W 9776  39.940   8.370  14.866
48323W        W 9777  24.152  43.864   1.348
48324W        W 9778  26.959  43.870   2.273
48325W        W 9779  33.124  28.073   0.758
48326W        W 9780  17.569  25.642  10.517
48327W        W 9781  23.712  18.544  14.506
48328W        W 9782  43.383  16.131   3.365
48329W        W 9783  40.540  26.486   1.246
48330W        W 9784  17.687  15.304   1.877
48331W        W 9785  38.945  18.790   0.907
48332W        W 9786  15.640  35.986  14.996
48333W        W 9787  25.712  43.793   2.876
48334W        W 9788  17.746  29.624   0.847
48335W        W 9789  33.455  33.039   4.634
48336W        W 9790   6.247  33.555  11.893
48337W        W 9791   6.416  41.864   1.440
48338W        W 9792  33.530  21.732   0.384
48339W        W 9793  39.406  14.172   1.821
48340W        W 9794   9.333  40.988   1.289
48341W        W 9795  31.587   5.393   3.314
48342W        W 9796  30.986  31.049  11.931
48343W        W 9797  38.896   2.728   0.786
48344W        W 9798  40.835  41.987  14.798
48345W        W 9799  22.535   8.284   0.309
48346W        W 9800   4.302   6.193   3.855
48347W        W 9801  23.724  18.711  10.436
48348W        W 9802  12.765  15.272   3.326
48349W        W 9803  13.148  39.556  14.916
48350W        W 9804   7.416  27.491   3.345
48351W        W 9805   8.833  18.254  10.601
48352W        W 9806  24.605   3.738   1.860
48353W        W 9807  13.318  37.913   1.697
48354W        W 9808  25.528  33.468  12.094
48355W        W 9809   9.191  34.910  14.927
48356W        W 9810  36.475  13.711   0.770
48357W        W 9811  37.507  17.717  14.491
48358W        W 9812  29.592  10.323  13.058
48359W        W 9813  15.609  15.709   4.784
48360W        W 9814   3.891   2.242   4.835
48361W        W 9815   8.171  21.537  14.933
48362W        W 9816  26.601  28.938  11.429
48363W        W 9817  26.982  23.042  13.887
48364W        W 9818   6.289  36.960  12.040
48365W        W 9819  21.229  32.038   0.803
48366W        W 9820  41.392   8.851   3.183
48367W        W 9821  27.981  38.380  13.342
48368W        W 9822  35.400  19.562   4.214
48369W        W 9823  30.424  38.511   1.764
48370W        W 9824  29.502  23.094   3.243
48371W        W 9825  14.829   1.767  14.015
48372W        W 9826  34.981  33.072   1.372
48373W        W 9827  16.225  15.121  14.825
48374W        W 9828   3.894  15.800  12.502
48375W        W 9829  37.874  19.757   3.770
48376W        W 9830  20.073  20.762  10.500
48377W        W 9831   2.793  24.100   4.836
48378W        W 9832  13.652   7.825  13.983
48379W        W 9833  40.485   1.415  11.964
48380W        W 9834  33.574  15.713  13.321
48381W        W 9835   1.442  38.525   4.605
48382W        W 9836  30.450  11.361   2.877
48383W        W 9837  12.701  40.973  13.513
48384W        W 9838  29.131  37.895   3.254
48385W        W 9839  14.730  19.205   2.719
48386W        W 9840  20.627  44.288  14.986
48387W        W 9841  30.585  35.897  12.002
48388W        W 9842  25.013  43.356  11.000
48389W        W 9843  40.039  18.188  10.518
48390W        W 9844  39.999  37.867   4.823
48391W        W 9845  11.811  15.094  14.432
48392W        W 9846  41.466  25.008  10.502
48393W        W 9847  43.021  25.021  13.412
48394W        W 9848  42.896  27.970  12.836
48395W        W 9849  13.238   4.410   2.197
48396W        W 9850  25.006  27.054   3.146
48397W        W 9851   6.252  28.129  13.868
48398W        W 9852  43.298  30.426   5.144
48399W        W 9853  40.967   7.276   4.637
48400W        W 9854  33.383   7.852   1.809
48401W        W 9855  17.161  35.088  12.361
48402W        W 9856  12.775  33.453   4.182
48403W        W 9857  40.492  37.392   3.671
48404W        W 9858  10.245  13.845  14.827
48405W        W 9859  30.051   9.331  12.849
48406W        W 9860   7.691  35.365   4.156
48407W        W 9861   2.783  34.023   4.341
48408W        W 9862   4.822   8.402  11.916
48409W        W 9863  27.057  32.988   2.404
48410W        W 9864  41.498  21.606   1.369
48411W        W 9865  40.461  40.904   3.200
48412W        W 9866  31.647   9.836  12.988
48413W        W 9867  27.600   1.750  13.493
48414W        W 9868  14.677  32.970   0.321
48415W        W 9869  43.799  40.823   4.747
48416W        W 9870  26.479  11.343   0.371
48417W        W 9871   2.463   8.692  12.542
48418W        W 9872   2.339  21.032  13.014
48419W        W 9873  22.010   8.657  12.534
48420W        W 9874  36.376  42.840   4.120
48421W        W 9875  31.554  40.847  12.855
48422W        W 9876  22.029  30.427   1.387
48423W        W 9877   7.904  41.526   3.194
48424W        W 9878  26.537  37.003   1.697
48425W        W 9879  27.640  31.035   0.357
48426W        W 9880  20.139  22.187   0.451
48427W        W 9881  10.831   7.906  11.884
48428W        W 9882   8.870  18.564  10.089
48429W        W 9883   8.785   6.910  10.574
48430W        W 9884  44.450  15.714  13.928
48431W        W 9885  18.706   3.908   2.396
48432W        W 9886  12.634  18.217   1.715
48433W        W 9887  30.153  13.137   0.848
48434W        W 9888  34.119  28.070  13.843
48435W        W 9889  30.597  44.910  13.033
48436W        W 9890  28.967  33.979   1.417
48437W        W 9891  36.423  20.698   4.273
48438W        W 9892  17.725   7.845   4.736
48439W        W 9893  43.331   1.949  10.908
48440W        W 9894  16.166  36.991  14.844
48441W        W 9895  29.080   1.361   1.385
48442W        W 9896  18.732   5.415   1.262
48443W        W 9897  24.485  42.472  12.450
48444W        W 9898  39.338  15.227  14.462
48445W        W 9899  40.428   8.369  12.448
48446W        W 9900  24.074  38.852   3.785
48447W        W 9901  43.509  33.044  10.544
48448W        W 9902  43.427  28.022  10.938
48449W        W 9903  29.634  32.948   3.790
48450W        W 9904  36.088  42.023  12.916
48451W        W 9905  36.983   2.958   2.371
48452W        W 9906  43.965   4.785  11.593
48453W        W 9907  33.558  39.913  13.861
48454W        W 9908  44.408  19.551   4.114
48455W        W 9909   4.769  42.932   2.331
48456W        W 9910  28.636  30.027   4.739
48457W        W 9911  24.020   3.762  11.118
48458W        W 9912  43.435  31.427  13.355
48459W        W 9913  31.009  29.550  14.393
48460W        W 9914   2.428  16.705   1.796
48461W        W 9915  40.810  26.557  11.975
48462W        W 9916  36.494  41.870   4.331
48463W        W 9917  12.637  44.347  13.512
48464W        W 9918  27.657  26.560   1.736
48465W        W 9919  27.069   9.843  14.990
48466W        W 9920  27.549  12.645   3.374
48467W        W 9921  36.016  29.977   1.834
48468W        W 9922  28.625   2.240  11.504
48469W        W 9923  28.965  44.811   0.953
48470W        W 9924  35.417  17.762   0.866
48471W        W 9925  23.100  28.072  14.793
48472W        W 9926  30.034  16.244  11.110
48473W        W 9927   3.276  25.035   2.339
48474W        W 9928   9.270  34.120   1.428
48475W        W 9929  14.283  38.827  12.419
48476W        W 9930  28.441   1.909   4.637
48477W        W 9931  29.561  27.541  11.462
48478W        W 9932  20.668  41.892  14.436
48479W        W 9933  41.339  25.065  11.866
48480W        W 9934  42.027  43.489  14.814
48481W        W 9935  25.575  39.898  13.992
48482W        W 9936  27.598  35.897   0.803
48483W        W 9937  37.554  29.162  10.151
48484W        W 9938  30.415  11.193  13.491
48485W        W 9939  20.596  21.751   0.859
48486W        W 9940  28.490   9.751   4.792
48487W        W 9941   9.335  15.303  12.434
48488W        W 9942  32.133  25.683   2.792
48489W        W 9943  20.198   2.272   0.297
48490W        W 9944  23.031  23.213  14.932
48491W        W 9945  38.372  25.035  12.392
48492W        W 9946  43.497  28.458   4.302
48493W        W 9947  14.765  15.249  13.462
48494W        W 9948  23.578   4.905   0.945
48495W        W 9949  39.530   2.926   4.267
48496W        W 9950  16.074  26.582   4.184
48497W        W 9951   6.413  40.842  12.394
48498W        W 9952  14.803   8.293  14.977
48499W        W 9953  37.055   8.783   4.659
48500W        W 9954   0.348  14.270   0.427
48501W        W 9955  25.093  32.060   4.627
48502W        W 9956  39.411  44.815  14.338
48503W        W 9957  44.289  22.145  13.960
48504W        W 9958  39.913   6.228   4.658
48505W        W 9959   3.849   9.668   0.420
48506W        W 9960  18.290  22.591  14.838
48507W        W 9961   8.368  34.871   0.401
48508W        W 9962  40.004  17.683  12.390
48509W        W 9963  40.499   2.354  11.103
48510W        W 9964  29.053  11.133  11.925
48511W        W 9965  40.992  25.646   4.716
48512W        W 9966  16.073  25.142   0.931
48513W        W 9967  42.809   1.913  13.455
48514W        W 9968  42.955  27.948  12.458
48515W        W 9969  18.680  21.530   3.235
48516W        W 9970  11.207  37.525   4.799
48517W        W 9971   4.334  22.573  14.817
48518W        W 9972  25.469  44.910   3.286
48519W        W 9973  41.446  33.494   3.658
48520W        W 9974  13.188  36.089   0.386
48521W        W 9975  35.885   4.875   4.228
48522W        W 9976  29.491  42.018   3.839
48523W        W 9977  38.402  16.225  12.394
48524W        W 9978  38.469  41.350  11.605
48525W        W 9979  43.788  15.249   1.367
48526W        W 9980  21.210   1.822  11.936
48527W        W 9981  26.691  34.489  10.534
48528W        W 9982  18.265  31.581   2.857
48529W        W 9983  20.074  27.975  13.876
48530W        W 9984  30.627  35.479   3.174
48531W        W 9985  34.873  34.967   3.236
48532W        W 9986  44.296  41.906  13.997
48533W        W 9987   4.295  17.721   1.428
48534W        W 9988  14.794  31.080   0.956
48535W        W 9989  23.547  42.828  14.974
48536W        W 9990  36.887   3.927   2.776
48537W        W 9991  35.475  33.580   4.696
48538W        W 9992  12.293   7.866   0.764
48539W        W 9993  29.978  25.023   3.243
48540W        W 9994  38.340   3.410  10.587
48541W        W 9995   4.321  43.986  14.926
48542W        W 9996  20.069  35.892  13.387
48543W        W 9997  32.084  24.573  13.988
48544W        W 9998   5.370   5.341   0.837
48545W        W 9999  29.971   6.802  11.025
48546W        W10000  40.997  37.836   0.299
48547W        W10001  31.022  12.278   3.823
48548W        W10002  28.598  12.118  10.526
48549W        W10003   1.945   0.906   4.267
48550W        W10004   6.196  17.792   4.278
48551W        W10005  13.692   4.944   4.202
48552W        W10006  40.941  16.137  12.984
48553W        W10007  31.534  36.022   2.387
48554W        W10008  34.435  38.977   0.926
48555W        W10009  38.902  18.241   2.339
48556W        W10010   9.802  25.524   4.741
48557W        W10011  38.008  28.495  12.079
48558W        W10012   6.294  18.737   2.275
48559W        W10013   1.241  19.621   3.643
48560W        W10014  18.735  34.885  14.842
48561W        W10015  24.655   6.297   0.965
48562W        W10016  44.952  37.562  12.380
48563W        W10017   2.456  31.091   2.774
48564W        W10018   8.280   4.754   0.901
48565W        W10019  14.296   2.762   0.813
48566W        W10020  39.358  28.681   0.453
48567W        W10021  29.959  35.400  11.992
48568W        W10022  17.271  44.494   4.721
48569W        W10023  21.030  17.109   3.218
48570W        W10024  30.966  23.724   2.242
48571W        W10025  38.535  29.457  11.429
48572W        W10026  32.959   4.776   3.200
48573W        W10027  33.407  21.214  10.925
48574W        W10028   4.381   6.242   2.869
48575W        W10029  38.384  36.580  12.548
48576W        W10030  28.672  36.510   4.248
48577W        W10031   5.830  30.626   1.304
48578W        W10032  13.115  35.110  12.536
48579W        W10033  22.521  22.571  12.047
48580W        W10034  26.597  21.595  11.011
48581W        W10035  42.296  29.626  12.995
48582W        W10036  32.600  42.436   3.631
48583W        W10037  35.931   4.320  10.510
48584W        W10038  11.736   7.244   5.200
48585W        W10039   1.742  25.707   3.776
48586W        W10040   4.364   2.742  11.433
48587W        W10041  11.141  22.145   0.890
48588W        W10042  17.232  44.936  12.419
48589W        W10043  30.062  19.756  11.477
48590W        W10044   7.252  26.094   0.252
48591W        W10045  17.147  17.081   5.313
48592W        W10046   1.470  33.426   3.196
48593W        W10047  34.469  44.310  11.375
48594W        W10048  12.724  21.588  13.013
48595W        W10049  24.567  40.038   0.459
48596W        W10050  40.462  30.423  12.451
48597W        W10051  34.516  27.601   2.251
48598W        W10052  37.833  23.502  13.377
48599W        W10053  41.306  16.635  13.313
48600W        W10054  30.021  31.538   9.943
48601W        W10055  31.524   4.340  12.349
48602W        W10056  11.144  20.607   4.305
48603W        W10057  25.680  16.615  13.891
48604W        W10058  35.890  18.118   2.336
48605W        W10059  28.037  18.220   1.881
48606W        W10060  34.369   8.263  12.995
48607W        W10061  43.861  15.161   3.285
48608W        W10062  39.009   1.934  13.892
48609W        W10063  23.222  41.971  11.371
48610W        W10064  43.301  35.600   4.143
48611W        W10065  26.034  36.937  14.445
48612W        W10066  43.449  18.686  10.618
48613W        W10067  15.157  42.779  13.429
48614W        W10068  34.958  39.333   0.478
48615W        W10069  15.085  44.405   1.708
48616W        W10070  19.159   7.680   1.897
48617W        W10071   9.778  41.832   1.411
48618W        W10072  34.583   9.869  12.376
48619W        W10073  13.699  26.003   2.335
48620W        W10074  29.922  23.538  14.411
48621W        W10075  24.487   9.830  14.790
48622W        W10076   5.900   2.790  12.033
48623W        W10077  26.164  39.861  13.404
48624W        W10078  22.732  34.977   3.148
48625W        W10079  15.719  40.447  12.996
48626W        W10080  13.182   4.261  12.433
48627W        W10081  36.399  39.329  10.007
48628W        W10082  13.740  32.112  13.987
48629W        W10083  13.247  25.616  10.930
48630W        W10084  12.268  24.638  11.040
48631W        W10085  42.981  13.166  13.007
48632W        W10086  18.609  16.316  11.966
48633W        W10087   9.180  15.648   2.762
48634W        W10088   7.368   0.792   4.789
48635W        W10089   3.402  25.556   3.196
48636W        W10090  35.543   6.797   1.336
48637W        W10091  13.343  40.328   2.263
48638W        W10092  42.856  29.614   0.362
48639W        W10093   7.706   6.395  10.518
48640W        W10094  29.065  37.429  14.854
48641W        W10095  15.315  40.886   4.714
48642W        W10096   6.280   4.263   3.672
48643W        W10097  14.225  18.171  14.387
48644W        W10098  27.636  44.306   4.133
48645W        W10099  22.057  38.923  11.397
48646W        W10100  14.707   4.335   2.401
48647W        W10101   9.817  43.889   1.801
48648W        W10102   8.182  30.470   5.202
48649W        W10103  37.994   1.935   2.308
48650W        W10104  13.302  25.532  14.430
48651W        W10105  36.876  23.059  11.461
48652W        W10106  34.013   1.756  12.060
48653W        W10107   9.252  44.758   2.329
48654W        W10108  32.463   2.300   4.231
48655W        W10109   0.947   0.365  12.918
48656W        W10110  11.674  12.849  12.077
48657W        W10111  34.475  29.656   3.183
48658W        W10112  25.194  44.480   3.795
48659W        W10113   1.969  21.157  12.520
48660W        W10114  21.215   4.298  11.510
48661W        W10115  38.560  44.298  10.952
48662W        W10116  28.122  32.418   2.864
48663W        W10117  27.488  18.074  12.945
48664W        W10118  27.521  35.963  13.515
48665W        W10119  35.472  13.753  13.956
48666W        W10120  42.983   3.904   1.845
48667W        W10121  26.167  24.506  11.940
48668W        W10122  17.784  26.189   0.963
48669W        W10123  30.931  38.914   1.721
48670W        W10124  42.861   6.309   5.154
48671W        W10125  22.058   9.247   4.761
48672W        W10126   3.287  36.402   0.876
48673W        W10127  28.100  24.479   0.305
48674W        W10128  41.312  14.188   0.410
48675W        W10129  12.626  24.000  12.894
48676W        W10130  36.439   6.246   2.885
48677W        W10131  23.206  16.275  11.899
48678W        W10132  32.470  43.435  11.940
48679W        W10133  36.366  26.995  11.584
48680W        W10134  43.357  24.667   2.321
48681W        W10135  44.857   3.746  12.521
48682W        W10136  30.644  34.906   3.216
48683W        W10137  43.304   1.390  12.904
48684W        W10138   7.269  38.976  10.611
48685W        W10139   5.721  15.746  11.862
48686W        W10140  13.789  37.023  10.086
48687W        W10141  12.258  24.537  10.411
48688W        W10142  32.068  23.123   4.354
48689W        W10143  30.909  24.229   3.793
48690W        W10144   5.849   7.271   3.173
48691W        W10145  27.113   2.429  13.048
48692W        W10146  37.400  20.181   3.192
48693W        W10147   7.757  37.926  13.422
48694W        W10148  43.303  16.295  14.488
48695W        W10149  43.783  25.096   4.817
48696W        W10150  18.068  19.727   4.150
48697W        W10151  33.879  23.196  13.908
48698W        W10152  28.649  29.638  11.480
48699W        W10153  38.532   8.297   4.684
48700W        W10154  30.443   1.444   4.704
48701W        W10155  15.823   3.930   4.341
48702W        W10156  28.522  38.412  11.996
48703W        W10157  24.019  28.673   3.708
48704W        W10158   2.452   5.362   2.383
48705W        W10159  22.182  31.565   2.196
48706W        W10160  29.527  10.737   0.884
48707W        W10161   4.910  38.513   0.352
48708W        W10162  42.446  20.128  14.784
48709W        W10163  16.771  42.906   3.189
48710W        W10164  31.124  12.229  12.576
48711W        W10165   4.305   3.768   4.337
48712W        W10166  25.564  43.459   3.709
48713W        W10167  22.566  27.960   4.182
48714W        W10168  14.699  23.721  10.620
48715W        W10169   7.809   2.455  11.567
48716W        W10170  17.626  20.524   3.747
48717W        W10171  14.710   9.238  14.953
48718W        W10172  10.753  36.989   2.252
48719W        W10173  38.971  27.590   9.967
48720W        W10174  32.074  11.205   0.761
48721W        W10175  28.948  30.020   3.804
48722W        W10176  28.537  43.436   1.225
48723W        W10177  24.029   8.677  13.939
48724W        W10178  34.514  15.680  10.639
48725W        W10179  24.111  44.452   2.790
48726W        W10180  26.472  41.366   1.307
48727W        W10181  12.762  23.111  13.528
48728W        W10182   0.456  34.944   4.688
48729W        W10183  28.544  10.644  11.960
48730W        W10184  17.187  40.911   2.796
48731W        W10185  30.495  21.713   3.724
48732W        W10186  20.266  20.198  11.970
48733W        W10187  37.976   2.441  14.451
48734W        W10188   7.872  34.893   1.802
48735W        W10189  38.477   9.647  10.510
48736W        W10190  39.062  39.028  12.581
48737W        W10191  41.351  10.241   2.393
48738W        W10192  28.176  10.765  12.340
48739W        W10193  21.138  27.628   4.802
48740W        W10194   8.219  43.853   2.829
48741W        W10195  33.024  17.678   2.253
48742W        W10196  32.059  22.195   3.661
48743W        W10197  22.661   1.739   4.787
48744W        W10198  43.912  21.226   4.297
48745W        W10199  38.475  12.632   0.402
48746W        W10200   6.695  38.375  13.808
48747W        W10201  15.697  43.859  11.877
48748W        W10202  30.138  32.139  11.056
48749W        W10203  37.037  10.274  13.367
48750W        W10204  43.350  36.412  12.841
48751W        W10205  38.444  17.213   4.789
48752W        W10206  35.857  17.121  12.854
48753W        W10207  22.223   4.235   0.403
48754W        W10208  11.302   4.228  10.405
48755W        W10209  18.259  20.093   2.824
48756W        W10210  42.797  41.298  13.448
48757W        W10211  17.205  34.065   4.625
48758W        W10212  40.049   8.726   3.772
48759W        W10213   8.742  26.124   2.324
48760W        W10214   1.921   7.698   4.818
48761W        W10215   5.698  30.536  10.604
48762W        W10216   6.681  14.794  13.824
48763W        W10217  19.137  19.120   4.728
48764W        W10218  16.707   3.380  13.929
48765W        W10219  27.606   9.760  14.991
48766W        W10220  10.767  18.269   5.299
48767W        W10221   9.178  31.583   1.266
48768W        W10222   8.247  14.792   3.265
48769W        W10223   9.807  21.681  11.100
48770W        W10224  44.429  26.544  13.359
48771W        W10225  34.398  17.124  11.550
48772W        W10226  24.659  19.652  11.975
48773W        W10227  42.031   0.765   2.694
48774W        W10228   9.172   6.408   0.440
48775W        W10229  44.008  37.950   0.735
48776W        W10230   6.186   3.723   2.839
48777W        W10231   4.833  20.109  14.508
48778W        W10232   0.767   1.798  12.402
48779W        W10233  11.630  27.625   1.280
48780W        W10234  38.854  15.646   0.952
48781W        W10235  24.542  27.485  13.886
48782W        W10236  13.772  36.050  14.016
48783W        W10237  40.488  30.533   5.111
48784W        W10238   3.932  41.524   1.796
48785W        W10239  36.919   8.734  12.049
48786W        W10240  15.750  11.848  12.421
48787W        W10241  30.154  31.567   4.119
48788W        W10242  11.840  21.560   0.865
48789W        W10243  11.847  38.552   2.689
48790W        W10244  21.065   0.842  13.384
48791W        W10245   8.786  10.659   0.871
48792W        W10246   0.263  34.403  14.821
48793W        W10247  25.581  32.016  14.495
48794W        W10248   9.375  35.956   0.311
48795W        W10249   7.191  15.128  11.908
48796W        W10250  18.772  36.490  11.988
48797W        W10251   7.795  30.096  11.864
48798W        W10252  44.871   3.232   2.208
48799W        W10253  13.287  30.125  14.324
48800W        W10254  18.153   0.959  12.541
48801W        W10255  42.444  37.377   0.339
48802W        W10256  28.120  27.554   2.695
48803W        W10257  21.737   7.675  12.577
48804W        W10258   5.239  34.023  14.343
48805W        W10259  34.978   4.856  12.571
48806W        W10260  34.900  22.525   0.279
48807W        W10261  39.812  24.187  14.275
48808W        W10262  28.507  29.478  14.397
48809W        W10263  23.520  12.765  10.570
48810W        W10264  13.725  35.092  12.899
48811W        W10265  13.308  38.501  11.861
48812W        W10266  12.716   9.807   0.786
48813W        W10267  17.708  11.848   4.133
48814W        W10268  18.589   2.267   1.329
48815W        W10269  21.643  36.020  10.978
48816W        W10270  17.132  22.039  13.857
48817W        W10271   9.317  30.959  12.091
48818W        W10272  18.691  16.627  14.976
48819W        W10273  25.621  13.637   0.804
48820W        W10274  20.661  20.066   1.386
48821W        W10275  42.897  14.639   2.733
48822W        W10276  24.663  13.789   2.191
48823W        W10277  30.131  33.097   0.817
48824W        W10278  32.467  34.430   4.809
48825W        W10279  38.411  13.687   3.721
48826W        W10280   8.367  43.293  12.492
48827W        W10281  28.508   2.817  12.350
48828W        W10282   0.311   1.286   4.719
48829W        W10283   6.679  23.593  11.578
48830W        W10284  33.607  17.199   0.394
48831W        W10285  33.121  41.294   3.159
48832W        W10286  44.264  15.713   3.656
48833W        W10287  31.042  40.880   4.837
48834W        W10288   5.903  39.523  13.006
48835W        W10289  37.003  12.849   2.368
48836W        W10290  44.925  28.098   1.225
48837W        W10291  22.031  15.168   4.279
48838W        W10292  34.518  29.999   1.213
48839W        W10293   4.293   6.730   0.366
48840W        W10294  13.613  18.768   2.699
48841W        W10295  30.122  11.365   0.773
48842W        W10296  33.069   6.333   2.259
48843W        W10297   1.739  10.684   4.152
48844W        W10298  16.246  41.008  12.449
48845W        W10299  44.376  42.973   2.278
48846W        W10300  21.177   7.670   3.789
48847W        W10301  17.795  41.444  14.497
48848W        W10302  39.369  17.159   0.947
48849W        W10303   5.881   1.332  12.417
48850W        W10304   0.347  38.548  11.404
48851W        W10305  11.692  20.641  13.878
48852W        W10306  37.579  31.406   0.395
48853W        W10307  20.203  40.480   0.897
48854W        W10308  16.739  30.024   3.633
48855W        W10309  14.631   0.348  12.930
48856W        W10310  11.210  12.845  10.410
48857W        W10311  29.000  16.705   0.947
48858W        W10312  32.534  22.515   0.248
48859W        W10313  24.713  35.460   4.722
48860W        W10314  32.531  31.106  13.834
48861W        W10315  26.599  26.652  14.779
48862W        W10316  44.286  44.904   3.340
48863W        W10317   8.398  15.718  14.313
48864W        W10318  39.055  11.316   2.248
48865W        W10319  16.765  18.056   4.656
48866W        W10320  32.443   5.887  10.623
48867W        W10321  29.467  36.491  11.866
48868W        W10322  43.284  14.589   1.363
48869W        W10323   6.309  19.188  13.886
48870W        W10324  19.720  25.126  14.325
48871W        W10325   6.247  19.111  13.029
48872W        W10326  22.008  20.169  11.115
48873W        W10327  31.010  37.532   5.311
48874W        W10328  36.584  25.064  13.875
48875W        W10329  20.226  16.757  12.090
48876W        W10330   3.858   5.889   1.862
48877W        W10331  33.073   9.274   3.788
48878W        W10332  31.454   9.210  14.414
48879W        W10333  40.852  25.198  11.453
48880W        W10334  37.878  15.674  12.844
48881W        W10335  20.705  32.580   2.759
48882W        W10336  35.020   3.839  13.492
48883W        W10337  40.305   4.735   9.967
48884W        W10338  43.338  24.055  12.491
48885W        W10339  12.308  31.939  10.919
48886W        W10340  26.026  44.917  13.416
48887W        W10341   7.327   1.432  10.500
48888W        W10342   1.782  37.442  14.414
48889W        W10343  18.261  40.538   4.161
48890W        W10344  37.547   3.247  11.419
48891W        W10345  39.897  35.873  12.041
48892W        W10346  22.186  12.264   2.186
48893W        W10347  11.316  30.537   3.789
48894W        W10348   0.921  15.638  11.445
48895W        W10349   8.194  24.557   0.344
48896W        W10350  42.868  42.931   0.362
48897W        W10351  43.961  26.081   3.213
48898W        W10352  26.117  42.313  12.378
48899W        W10353  22.739  20.269  14.450
48900W        W10354  15.317  44.435   4.254
48901W        W10355  34.576  28.990   0.861
48902W        W10356  39.334   2.242   1.213
48903W        W10357  18.247  13.729  12.973
48904W        W10358   0.819  23.099   0.947
48905W        W10359  22.103  28.625   1.889
48906W        W10360  27.480   5.377   4.179
48907W        W10361  28.536  42.388   2.805
48908W        W10362  11.322   7.712   0.771
48909W        W10363  43.451  15.286  14.407
48910W        W10364  34.562   6.735  10.520
48911W        W10365  25.577  37.487  11.442
48912W        W10366   2.411  27.188   1.276
48913W        W10367  17.103  15.086  11.938
48914W        W10368   0.485  31.939  10.999
48915W        W10369  32.918  15.230   4.664
48916W        W10370  15.597  39.375   1.378
48917W        W10371  14.159  30.910  14.004
48918W        W10372  41.525  22.116  11.568
48919W        W10373  12.223  34.960   4.747
48920W        W10374  13.840  15.138  12.922
48921W        W10375  37.874   8.361   3.850
48922W        W10376  17.162  31.613  12.075
48923W        W10377   2.775  42.386   4.148
48924W        W10378   1.799  44.338  13.840
48925W        W10379  30.954   5.251  11.530
48926W        W10380  30.532  28.503   0.735
48927W        W10381  38.952  16.674   9.922
48928W        W10382  29.650  33.122  10.976
48929W        W10383   9.278  21.756  14.317
48930W        W10384   0.848  30.453   1.281
48931W        W10385  11.159  39.952  12.005
48932W        W10386  42.349  17.068   2.342
48933W        W10387  42.416  38.010  11.010
48934W        W10388  23.116   9.811  10.482
48935W        W10389  12.275  17.641   5.568
48936W        W10390  23.644  33.607   4.339
48937W        W10391  20.137   7.910  14.963
48938W        W10392  42.316  12.236   0.468
48939W        W10393   0.862  31.151  11.909
48940W        W10394  13.774  30.102  12.060
48941W        W10395  36.474  25.651  12.468
48942W        W10396  43.361  28.144  12.433
48943W        W10397   2.362  22.736   1.909
48944W        W10398  38.856  37.033  13.845
48945W        W10399  42.499  37.912  11.962
48946W        W10400   4.337  26.504   4.232
48947W        W10401  22.705  38.530  14.384
48948W        W10402  21.658   1.476   3.163
48949W        W10403  12.223  34.046   1.212
48950W        W10404  16.282  12.732  11.985
48951W        W10405  17.773  35.099   3.216
48952W        W10406  25.094  11.254  11.425
48953W        W10407   8.685   0.963  14.873
48954W        W10408  38.879  28.598   1.399
48955W        W10409  13.779  44.468   2.864
48956W        W10410  18.233  42.995   4.159
48957W        W10411  12.203  42.462   1.240
48958W        W10412  42.823  13.278   4.739
48959W        W10413  15.164   8.374  14.032
48960W        W10414  21.196  41.514  12.446
48961W        W10415   6.794   9.877  10.531
48962W        W10416  35.437  36.842   2.387
48963W        W10417  34.587  12.856   0.836
48964W        W10418   3.825  16.101  13.322
48965W        W10419  23.724   7.804   0.963
48966W        W10420   6.806  29.487  13.881
48967W        W10421  38.896  43.346  13.337
48968W        W10422  37.968  39.836  12.543
48969W        W10423  39.391  13.294  10.970
48970W        W10424   4.450  10.803  11.451
48971W        W10425   5.238   7.266   4.650
48972W        W10426  33.568  22.014   2.681
48973W        W10427  17.092  13.612   2.824
48974W        W10428  12.250  38.403   2.375
48975W        W10429  18.293  40.929   2.883
48976W        W10430  37.457  40.899  10.130
48977W        W10431  14.108  39.999  11.372
48978W        W10432  17.575  33.128   4.627
48979W        W10433   0.909  11.268  13.866
48980W        W10434  39.425  17.294   2.708
48981W        W10435  44.391  42.844   1.330
48982W        W10436  30.034  29.591   0.875
48983W        W10437  31.911  11.218  12.509
48984W        W10438  13.228   9.823   1.756
48985W        W10439   8.822  31.627   2.229
48986W        W10440   6.692  21.614  11.404
48987W        W10441  18.270  27.985  11.529
48988W        W10442  23.582  24.974  14.760
48989W        W10443  25.089  24.718  13.493
48990W        W10444   0.334   8.227   0.851
48991W        W10445  10.668  43.466   0.814
48992W        W10446  22.507  38.983   5.228
48993W        W10447  10.308  14.269  14.371
48994W        W10448  10.652  15.319  11.965
48995W        W10449  22.194  10.860   5.262
48996W        W10450  42.017  18.724   1.804
48997W        W10451  44.350   9.658  11.088
48998W        W10452  30.644  30.428   0.457
48999W        W10453   8.770  24.722  12.944
49000W        W10454   2.866  40.927  14.982
49001W        W10455  16.289  28.468  12.569
49002W        W10456   0.969  22.078  11.379
49003W        W10457  10.783   1.416   4.128
49004W        W10458   3.444   4.776   0.937
49005W        W10459  22.123  24.502   0.448
49006W        W10460  22.207   1.348  13.317
49007W        W10461  29.131  18.680   2.790
49008W        W10462  43.441  18.284   3.770
49009W        W10463  35.979   6.866   0.739
49010W        W10464  18.135  42.921  12.532
49011W        W10465  33.938  40.014   2.704
49012W        W10466  15.711  22.644  11.087
49013W        W10467  23.025  30.971  13.351
49014W        W10468  29.627   6.895   0.828
49015W        W10469   9.301  11.333   2.765
49016W        W10470  12.618  34.374   1.867
49017W        W10471  41.871   4.416  12.479
49018W        W10472  35.568  41.958   0.322
49019W        W10473   4.794  25.528  10.542
49020W        W10474  14.627  15.622  10.538
49021W        W10475   6.288  43.296   2.755
49022W        W10476  23.020  12.231  11.561
49023W        W10477  22.086  22.505   3.703
49024W        W10478  32.585  41.457  11.055
49025W        W10479  28.470  43.957   1.710
49026W        W10480  25.038  15.250   2.786
49027W        W10481  11.254   8.306  13.518
49028W        W10482  39.418  20.577  13.409
49029W        W10483  11.353   4.827   4.279
49030W        W10484   9.645  37.927  11.960
49031W        W10485  28.580  11.181   5.717
49032W        W10486  13.617  37.833  13.798
49033W        W10487  16.798  41.322   0.785
49034W        W10488  44.444  18.106  14.362
49035W        W10489   5.926  16.680   2.737
49036W        W10490  25.974  10.176   4.150
49037W        W10491  42.492  11.654   4.755
49038W        W10492   4.259  14.206  12.552
49039W        W10493  40.481  23.239   4.334
49040W        W10494  29.552   9.236   4.787
49041W        W10495   2.822  43.420   1.933
49042W        W10496  31.577  28.561   0.882
49043W        W10497  37.466  27.510   2.783
49044W        W10498  40.500   1.849  14.840
49045W        W10499  14.691  31.938   1.353
49046W        W10500  40.918  20.157   3.167
49047W        W10501  17.698  15.782   0.341
49048W        W10502  38.345  14.808   2.218
49049W        W10503  41.835  24.003  12.510
49050W        W10504   7.221  31.092   0.849
49051W        W10505  39.008  18.555  12.900
49052W        W10506  31.141  32.446  11.471
49053W        W10507   6.884  36.496  12.578
49054W        W10508  43.951  43.331   1.727
49055W        W10509  12.672  42.312   4.820
49056W        W10510  33.403  26.502   3.268
49057W        W10511  30.966  35.989  12.096
49058W        W10512  24.714  31.639  10.975
49059W        W10513  22.130  15.601  14.904
49060W        W10514  24.707  41.377  13.838
49061W        W10515  14.777  17.098  12.025
49062W        W10516  37.414  44.941  11.043
49063W        W10517  29.070  25.554   1.447
49064W        W10518  20.033  24.220   3.646
49065W        W10519   2.919  22.079   4.177
49066W        W10520   6.274  24.984   0.945
49067W        W10521  33.131  21.017  14.452
49068W        W10522   1.825  20.185   0.733
49069W        W10523  10.650  10.841   4.736
49070W        W10524  38.031   3.851  14.880
49071W        W10525   2.735  17.788   4.136
49072W        W10526   8.200   2.317   4.130
49073W        W10527  36.065   4.337  14.858
49074W        W10528  36.495  42.285  10.427
49075W        W10529   4.439  13.717   4.711
49076W        W10530  33.464  20.079   0.307
49077W        W10531  21.708  39.965  11.383
49078W        W10532  31.588  37.371   5.262
49079W        W10533  25.088  18.768  12.392
49080W        W10534  17.071  24.147  14.357
49081W        W10535  25.179  38.358   3.316
49082W        W10536  14.731  11.726  13.924
49083W        W10537  10.214  17.239   3.812
49084W        W10538   0.260  37.056   1.397
49085W        W10539  16.154  27.175   2.782
49086W        W10540  39.055  28.552   0.412
49087W        W10541  14.256  37.998   4.687
49088W        W10542  35.871  41.878   4.605
49089W        W10543   8.363   1.338  11.612
49090W        W10544  34.524   3.339   2.896
49091W        W10545   4.813   2.342  10.645
49092W        W10546  21.179  31.923   4.221
49093W        W10547  25.154  23.576  11.423
49094W        W10548  24.613  28.588  13.499
49095W        W10549  42.813  43.436  12.067
49096W        W10550  22.638  40.979  13.405
49097W        W10551  27.577  31.631   0.918
49098W        W10552   7.869  10.279  13.000
49099W        W10553  44.407  15.630   0.954
49100W        W10554  36.048  39.985  12.528
49101W        W10555  17.285  28.679  12.971
49102W        W10556   4.249  27.989   1.311
49103W        W10557  12.351   2.804  13.527
49104W        W10558   6.426  33.385  13.343
49105W        W10559  37.338  36.933  13.518
49106W        W10560   0.830  41.827  10.531
49107W        W10561  10.757   3.930  10.912
49108W        W10562  41.953   4.773  12.023
49109W        W10563  23.507   1.735  12.086
49110W        W10564  20.722  27.653   1.808
49111W        W10565  39.847  12.670  11.525
49112W        W10566  29.001  44.783   1.296
49113W        W10567  38.071   4.420  10.431
49114W        W10568  19.206  19.182  13.798
49115W        W10569  30.083  30.429   4.174
49116W        W10570  37.074   1.949  14.342
49117W        W10571  28.949   8.169   2.788
49118W        W10572  41.409  11.158  14.424
49119W        W10573  37.529   3.426  13.464
49120W        W10574  35.416  39.502  14.507
49121W        W10575  17.618  10.359  14.388
49122W        W10576   0.288  34.579  12.471
49123W        W10577  40.991  15.242  11.480
49124W        W10578  25.055  16.715  12.927
49125W        W10579  28.628  36.498  14.359
49126W        W10580   1.852  19.621  12.977
49127W        W10581  17.191  12.736   2.237
49128W        W10582  39.878  33.986  14.432
49129W        W10583  11.180  38.984  11.928
49130W        W10584  17.168   9.248   4.700
49131W        W10585  34.875  38.965  10.059
49132W        W10586  23.234  17.133  13.509
49133W        W10587  32.582  18.161   4.816
49134W        W10588  12.279  19.606   4.147
49135W        W10589   5.887  43.872   1.766
49136W        W10590  20.141  24.698   4.612
49137W        W10591  15.199   7.218   0.393
49138W        W10592  28.159  44.794  10.975
49139W        W10593   3.729   3.224  12.391
49140W        W10594  42.920  40.885   1.278
49141W        W10595   6.366   8.740   0.772
49142W        W10596   8.860   5.242  11.927
49143W        W10597  36.519   5.356   4.183
49144W        W10598   2.736   8.858  11.010
49145W        W10599  17.779   2.237  10.907
49146W        W10600   2.321  19.246   4.791
49147W        W10601   2.414  39.908  13.398
49148W        W10602  42.981  38.040   1.310
49149W        W10603   2.792  36.371   2.190
49150W        W10604  10.811   5.197   1.448
49151W        W10605   9.875   7.362   2.405
49152W        W10606  26.676  35.394  11.902
49153W        W10607   4.777  13.198  12.340
49154W        W10608  44.880  38.567   2.797
49155W        W10609  24.074  21.700   0.285
49156W        W10610   2.887   6.286   3.181
49157W        W10611  40.353  41.528  13.316
49158W        W10612  24.084  17.771  12.543
49159W        W10613  26.664  16.721   1.889
49160W        W10614  19.049   3.305  12.571
49161W        W10615  13.661  34.583   0.806
49162W        W10616  25.712  17.675   4.657
49163W        W10617  34.413  37.350  12.999
49164W        W10618   2.834   3.362  12.573
49165W        W10619  43.903  17.090   4.659
49166W        W10620  20.245  18.685   2.374
49167W        W10621  13.687   4.399   2.361
49168W        W10622   9.394   1.373   3.334
49169W        W10623  20.624   8.824   5.279
49170W        W10624  27.627  18.085  11.080
49171W        W10625  40.474   5.715   1.904
49172W        W10626   1.360  12.354   0.874
49173W        W10627   6.853  24.582   2.713
49174W        W10628  14.802  38.960  11.030
49175W        W10629  29.596   4.815  12.520
49176W        W10630  12.774   5.799  11.923
49177W        W10631  33.985   4.822  14.278
49178W        W10632  15.160   6.425  13.018
49179W        W10633  24.644   1.886   1.857
49180W        W10634  23.657  21.206   4.277
49181W        W10635   2.728  25.596   0.449
49182W        W10636   6.200   2.283   2.691
49183W        W10637   8.761  14.156  11.489
49184W        W10638  11.302  21.112   3.846
49185W        W10639  38.837  10.272  12.386
49186W        W10640  13.750  31.070   4.314
49187W        W10641  33.401  10.335  11.957
49188W        W10642  34.118   9.854   3.159
49189W        W10643  33.006  29.436  13.858
49190W        W10644  11.126  13.821  11.548
49191W        W10645   4.311  41.304  11.072
49192W        W10646   2.301  10.317   2.268
49193W        W10647  31.039   4.230  13.018
49194W        W10648  38.543  44.444   0.814
49195W        W10649  20.044  35.865   2.204
49196W        W10650   8.684  32.937  13.927
49197W        W10651  29.126  19.209   3.718
49198W        W10652  27.993  18.225  13.981
49199W        W10653  16.784  41.001   1.422
49200W        W10654  10.333  30.104  10.569
49201W        W10655  25.506  44.413   1.280
49202W        W10656  13.630  39.417   1.336
49203W        W10657  42.878  24.538  13.377
49204W        W10658  37.385  23.202  12.340
49205W        W10659   0.915  29.033  14.864
49206W        W10660   9.646  32.405   2.893
49207W        W10661  22.112   9.172  13.992
49208W        W10662  38.469  17.149   0.887
49209W        W10663  44.385  34.025  13.534
49210W        W10664  24.097  42.345   3.348
49211W        W10665  14.112   5.800  14.512
49212W        W10666  40.880  13.280   1.901
49213W        W10667   9.326  34.411   0.912
49214W        W10668  15.299  35.912  13.890
49215W        W10669  27.466   1.749   2.738
49216W        W10670  10.785  41.928  10.524
49217W        W10671   4.795  34.067   4.655
49218W        W10672  42.351  11.784  14.959
49219W        W10673  42.520  36.946   4.287
49220W        W10674  15.577  34.476   0.840
49221W        W10675   1.375  20.626  10.532
49222W        W10676  28.503  43.818  14.956
49223W        W10677  34.079  39.967  11.542
49224W        W10678  36.973   1.749  12.855
49225W        W10679  16.184  40.346  13.946
49226W        W10680   0.492  38.435  14.336
49227W        W10681  40.940   4.742   4.124
49228W        W10682  25.702  27.677   0.778
49229W        W10683   4.325  32.035   3.860
49230W        W10684  31.504  20.700   3.745
49231W        W10685   5.916  13.617  10.504
49232W        W10686   5.321   9.869   3.214
49233W        W10687  43.011  21.703   1.808
49234W        W10688   7.224  22.253  13.355
49235W        W10689  12.293   2.887  12.966
49236W        W10690  43.808  16.246   3.813
49237W        W10691  11.691  31.413   0.243
49238W        W10692  44.952   8.207   0.730
49239W        W10693  43.444   7.278   2.343
49240W        W10694  31.453  35.957   4.811
49241W        W10695  21.557  11.241   2.279
49242W        W10696  39.999  28.618   4.768
49243W        W10697   6.301  14.294  12.504
49244W        W10698  21.236  39.328  10.558
49245W        W10699   2.940  33.489   3.821
49246W        W10700  12.184  39.847   2.343
49247W        W10701  35.099   3.927  14.026
49248W        W10702  42.974  21.607   2.190
49249W        W10703  23.589  39.828   3.257
49250W        W10704  15.656  11.168   4.127
49251W        W10705  18.285  22.621  12.920
49252W        W10706   7.791  37.472   0.349
49253W        W10707  33.907  43.491   1.356
49254W        W10708  22.715  39.519  12.960
49255W        W10709  30.111   2.865   0.956
49256W        W10710   6.280  14.259  14.976
49257W        W10711  27.053  38.927  10.621
49258W        W10712  10.378  31.597  12.566
49259W        W10713  19.078  20.055  12.518
49260W        W10714  24.171  22.528   2.263
49261W        W10715  15.743  16.728   2.355
49262W        W10716  19.082  44.472  14.854
49263W        W10717  36.580  18.169  13.033
49264W        W10718  15.720  44.859   2.818
49265W        W10719  11.289  13.205   1.821
49266W        W10720  12.221  26.080   3.260
49267W        W10721  10.643   6.784   1.290
49268W        W10722  16.768  29.504   2.883
49269W        W10723   6.266  27.558   4.306
49270W        W10724  15.786  22.668  14.357
49271W        W10725  30.544   6.424   0.743
49272W        W10726  12.627  23.643  12.555
49273W        W10727   1.296  10.170   1.432
49274W        W10728  23.560  37.501   3.656
49275W        W10729  15.589   0.819  12.846
49276W        W10730  26.015  33.095  11.585
49277W        W10731   3.769  10.224  14.864
49278W        W10732  43.397  26.097  12.931
49279W        W10733   8.359  14.183   4.780
49280W        W10734  44.005  42.392  12.948
49281W        W10735  10.749   9.198   1.771
49282W        W10736   6.356   1.814  14.313
49283W        W10737   7.194  17.657  13.529
49284W        W10738  29.985  44.807   4.139
49285W        W10739  23.541  34.592   0.777
49286W        W10740  29.928  14.229  12.450
49287W        W10741  34.538  36.883   4.144
49288W        W10742  37.010   9.874  14.860
49289W        W10743  42.319  22.620   0.732
49290W        W10744   7.289  23.512   0.338
49291W        W10745  36.093  10.779  10.427
49292W        W10746  19.627  22.618  14.401
49293W        W10747  14.142  13.716  11.487
49294W        W10748  23.583   1.310   4.241
49295W        W10749  27.625  44.841  13.848
49296W        W10750   4.237  22.699   0.798
49297W        W10751  28.517  43.984   3.826
49298W        W10752  39.337  22.651  14.328
49299W        W10753  43.271  21.678   4.764
49300W        W10754   5.920  42.430   0.736
49301W        W10755  25.685  43.374  12.567
49302W        W10756  39.398  44.493  12.887
49303W        W10757  30.996  15.696   0.948
49304W        W10758  30.422  23.630  11.404
49305W        W10759  12.818   9.382   2.194
49306W        W10760  31.504  16.186  10.457
49307W        W10761   8.322   3.379  10.566
49308W        W10762  25.033   3.440   0.457
49309W        W10763  40.489   0.310  12.462
49310W        W10764  38.474  36.888  13.437
49311W        W10765   3.871  44.999  11.020
49312W        W10766  21.184  23.232  10.983
49313W        W10767  41.956  41.306   2.700
49314W        W10768   7.818  11.343   4.221
49315W        W10769  23.084  39.973   4.774
49316W        W10770  24.185  43.901   2.215
49317W        W10771  10.665   4.853   2.205
49318W        W10772  35.942  26.017   4.698
49319W        W10773  27.564  44.009   4.652
49320W        W10774  41.856  28.092   2.254
49321W        W10775  12.774   6.795  13.984
49322W        W10776  35.069  37.978   2.761
49323W        W10777  28.179  12.243   4.666
49324W        W10778  42.916  28.676   4.727
49325W        W10779  11.710  31.564   4.272
49326W        W10780  14.600  31.433   3.784
49327W        W10781  18.655  35.864  11.468
49328W        W10782  39.379  34.385   4.323
49329W        W10783  41.301   1.472   4.293
49330W        W10784  19.764  15.196   4.151
49331W        W10785  10.148  25.551   0.935
49332W        W10786  12.642  41.414  13.475
49333W        W10787  21.575   6.403   0.873
49334W        W10788   5.801  42.390  12.826
49335W        W10789  36.944  18.086   2.811
49336W        W10790   0.787   5.894   3.788
49337W        W10791  19.255  28.968  13.889
49338W        W10792  35.967  29.976  14.027
49339W        W10793  10.862  44.280   9.993
49340W        W10794  25.556  10.147   2.276
49341W        W10795  29.476  24.996   1.718
49342W        W10796  25.087   3.744   2.367
49343W        W10797  10.158  21.622  11.554
49344W        W10798   2.745  34.056   2.748
49345W        W10799  37.902  35.385  10.518
49346W        W10800   8.700  20.723  13.031
49347W        W10801   7.867  44.277   4.806
49348W        W10802  36.895   3.937  13.976
49349W        W10803  27.634  27.623   0.327
49350W        W10804  33.968  25.579  10.578
49351W        W10805   2.853   4.345   4.152
49352W        W10806  25.001  42.375   3.868
49353W        W10807  39.884  26.144  14.025
49354W        W10808  10.216   3.360   9.970
49355W        W10809  31.998  44.426  12.929
49356W        W10810  31.493  27.498  12.931
49357W        W10811  41.035  34.399   0.246
49358W        W10812   4.219   0.816   0.294
49359W        W10813   4.755  31.929  12.890
49360W        W10814  26.653   7.707  11.537
49361W        W10815  30.080  21.071   2.785
49362W        W10816  29.130  30.157   0.849
49363W        W10817  18.285  19.281  10.921
49364W        W10818  26.063  30.063  12.520
49365W        W10819  13.171  32.116   2.831
49366W        W10820   8.263   6.763  10.601
49367W        W10821  41.035  16.217   2.845
49368W        W10822  17.779  28.559  11.011
49369W        W10823  16.149  12.641  10.055
49370W        W10824  31.587   5.822  14.955
49371W        W10825  22.617  23.207  12.476
49372W        W10826  30.530  41.834   3.213
49373W        W10827  44.421   0.900  12.436
49374W        W10828  42.996  15.795   3.779
49375W        W10829   3.377  33.434   1.257
49376W        W10830  11.186  41.842   4.330
49377W        W10831  40.936  30.451   2.831
49378W        W10832   0.401  13.687  12.356
49379W        W10833  14.309  43.854  12.471
49380W        W10834  15.653  13.675  13.506
49381W        W10835   5.704   6.201   1.451
49382W        W10836  32.469   5.813  12.395
49383W        W10837  17.618  37.497   3.325
49384W        W10838  35.989  26.563  12.051
49385W        W10839  38.509   9.200   3.281
49386W        W10840  17.581   8.860   3.848
49387W        W10841  14.700  30.498   5.126
49388W        W10842  41.415  38.845  11.596
49389W        W10843   4.238   9.231   3.290
49390W        W10844  32.512  20.271   2.762
49391W        W10845  39.815  39.900  13.443
49392W        W10846  23.665   4.296  10.928
49393W        W10847   8.697  42.354   4.224
49394W        W10848   3.804  31.094   2.302
49395W        W10849   5.283  43.408  14.491
49396W        W10850  41.335  18.289  12.005
49397W        W10851  30.979  35.496  14.969
49398W        W10852   5.400  11.804   4.634
49399W        W10853   3.754  40.434   3.203
49400W        W10854  10.715  12.808   0.814
49401W        W10855   3.296  35.907   4.626
49402W        W10856  11.166   7.239  13.876
49403W        W10857   3.889  25.483  14.423
49404W        W10858   4.333   8.746  10.888
49405W        W10859   6.832   4.913  14.003
49406W        W10860  15.813   9.643  12.425
49407W        W10861  26.634  43.786  10.112
49408W        W10862   5.303  42.354   4.780
49409W        W10863  39.357  42.803   3.165
49410W        W10864  16.227   7.343  12.386
49411W        W10865  35.033  40.349  12.517
49412W        W10866  33.930  35.536   2.192
49413W        W10867  18.197   0.363   3.186
49414W        W10868  26.692  14.756  12.906
49415W        W10869  37.405  26.580   1.321
49416W        W10870  41.467  44.865   0.314
49417W        W10871  14.209  16.252  11.992
49418W        W10872  40.458  25.084  11.610
49419W        W10873  38.513  13.322  11.545
49420W        W10874   2.756   0.332  11.973
49421W        W10875  40.890  14.143   2.256
49422W        W10876   9.300  16.162  14.007
49423W        W10877   0.396   6.854   0.263
49424W        W10878  35.949  26.657  11.043
49425W        W10879  13.284   8.807   4.217
49426W        W10880   0.417  11.336  14.308
49427W        W10881  12.793   3.427   3.304
49428W        W10882  13.140  42.836   2.788
49429W        W10883  36.886  18.057  13.003
49430W        W10884  33.020  12.160   2.384
49431W        W10885   2.434  32.411   2.257
49432W        W10886  11.624  15.284   3.685
49433W        W10887   6.391  12.807  10.439
49434W        W10888  22.550  31.905   2.289
49435W        W10889   9.791  31.582   0.783
49436W        W10890  27.446   0.276   0.760
49437W        W10891  19.077  11.230   5.730
49438W        W10892  31.566  17.684  13.412
49439W        W10893  12.833  22.247  10.530
49440W        W10894   4.759  28.597  12.052
49441W        W10895  40.444  44.394  12.481
49442W        W10896  10.277  12.286   3.746
49443W        W10897  24.114  23.525  14.989
49444W        W10898   7.407  12.737   4.148
49445W        W10899  28.984  44.437   3.317
49446W        W10900  33.023  32.974  13.919
49447W        W10901  36.048   7.681  14.871
49448W        W10902  10.191  10.817   0.390
49449W        W10903  13.182  43.926  13.020
49450W        W10904  36.085   5.826   0.247
49451W        W10905  35.107  11.678  11.416
49452W        W10906  23.711   9.761   0.776
49453W        W10907   0.946   0.917   2.670
49454W        W10908  43.820  15.275  14.373
49455W        W10909  31.994  39.470  10.416
49456W        W10910  24.608   9.680  13.944
49457W        W10911  16.262  25.023   3.354
49458W        W10912  14.801  10.141  13.413
49459W        W10913  30.488  39.546  10.505
49460W        W10914  17.769  22.707  13.812
49461W        W10915  27.039   6.409   0.447
49462W        W10916  12.361   3.726  12.409
49463W        W10917  32.969  20.618  14.494
49464W        W10918   2.949  38.043   1.307
49465W        W10919  24.133  18.054  10.019
49466W        W10920  10.331  38.453   1.715
49467W        W10921  16.791  31.901   0.803
49468W        W10922  18.052  15.585   4.637
49469W        W10923  41.024  22.062  10.577
49470W        W10924  12.616  30.599   2.404
49471W        W10925  22.091  30.050   0.350
49472W        W10926  33.475  28.145  13.352
49473W        W10927  39.513   9.345   2.382
49474W        W10928  18.081  14.790   5.189
49475W        W10929  18.111  12.147   1.370
49476W        W10930   1.447   7.735  13.055
49477W        W10931  14.656  14.632  12.880
49478W        W10932   1.976   1.832   2.279
49479W        W10933   4.843  27.550   1.403
49480W        W10934  35.996  24.595   2.260
49481W        W10935  30.461  44.798  13.349
49482W        W10936   6.747  14.770   2.242
49483W        W10937  11.720  25.964   3.341
49484W        W10938  14.767  35.918  10.466
49485W        W10939  33.918  40.998   0.447
49486W        W10940  24.058  44.503   4.218
49487W        W10941   3.385  18.676   1.271
49488W        W10942   6.801  22.095   0.346
49489W        W10943  21.756  31.086  10.476
49490W        W10944  28.143  31.139   2.337
49491W        W10945  43.930  40.798   3.727
49492W        W10946   0.983  20.225   1.704
49493W        W10947   8.222   6.731  13.465
49494W        W10948  13.122  30.631  11.495
49495W        W10949  28.675  20.254  14.487
49496W        W10950  31.137  10.186  11.978
49497W        W10951  18.572   5.877   0.761
49498W        W10952  24.189  32.964  11.997
49499W        W10953  19.656  32.927  13.907
49500W        W10954  17.755  21.578  14.815
49501W        W10955  41.411  18.553  12.513
49502W        W10956  35.906   0.762  14.810
49503W        W10957  37.062   9.163   0.332
49504W        W10958   3.397   8.352  10.437
49505W        W10959  27.162  44.444   0.405
49506W        W10960  22.554  18.181  12.896
49507W        W10961  43.923  10.367   3.332
49508W        W10962  44.339  18.232   5.241
49509W        W10963  19.759  11.630   0.802
49510W        W10964  15.653  34.103  11.028
49511W        W10965  11.339  29.540  12.067
49512W        W10966  28.585  11.129   0.243
49513W        W10967  38.955   3.274  14.450
49514W        W10968  25.004  44.989   3.710
49515W        W10969  30.150  25.000  10.416
49516W        W10970  37.005  10.705  11.066
49517W        W10971  40.853  35.478   2.833
49518W        W10972  27.641   5.429   1.285
49519W        W10973  25.093  22.011  12.543
49520W        W10974  35.375   7.758   2.837
49521W        W10975  35.109  36.950  10.474
49522W        W10976  30.018  12.258  12.521
49523W        W10977  32.613  27.674  13.014
49524W        W10978  26.489  15.750   4.219
49525W        W10979  24.565  37.998   2.670
49526W        W10980  18.065  38.412  10.598
49527W        W10981  38.402  17.625  13.801
49528W        W10982  44.899   4.829  10.549
49529W        W10983  36.971  14.778  14.837
49530W        W10984  29.983  20.160  13.454
49531W        W10985  29.451  12.269  12.863
49532W        W10986  44.999   8.397   0.392
49533W        W10987  38.359  40.961   1.933
49534W        W10988   3.881   2.347   2.843
49535W        W10989  23.116  34.984  13.462
49536W        W10990   5.916  16.768   1.425
49537W        W10991  43.497  37.570   4.288
49538W        W10992   0.357   9.712  12.839
49539W        W10993  15.250  42.809   1.449
49540W        W10994   0.324  36.071  11.574
49541W        W10995  14.163  40.462  12.373
49542W        W10996  37.492  17.249  12.373
49543W        W10997  11.845  18.209  11.503
49544W        W10998  44.888  18.247  14.951
49545W        W10999  40.848  31.448   2.355
49546W        W11000  13.780  41.502  12.874
49547W        W11001  23.061  25.204   4.264
49548W        W11002  37.340  44.004   4.188
49549W        W11003  18.181  38.001   2.677
49550W        W11004  11.665  33.559   3.262
49551W        W11005  15.256  26.701   4.299
49552W        W11006   0.752   8.338  14.298
49553W        W11007  27.677   2.817  10.110
49554W        W11008  13.604   8.845   1.266
49555W        W11009  37.973   3.868  10.565
49556W        W11010  10.823  20.265   3.378
49557W        W11011  22.066  24.499   1.864
49558W        W11012  41.000  31.483  14.911
49559W        W11013  44.928   9.191  14.347
49560W        W11014  11.259  26.111  12.919
49561W        W11015  33.407  32.927   2.228
49562W        W11016  16.171  32.996   4.640
49563W        W11017  24.031  26.086   2.676
49564W        W11018  34.434  32.586   1.216
49565W        W11019  29.468  29.123  13.386
49566W        W11020   2.813  12.137   2.243
49567W        W11021  11.854   3.822  10.566
49568W        W11022  37.544   9.851  11.537
49569W        W11023  32.915  31.559   0.838
49570W        W11024  33.418  24.978  10.517
49571W        W11025  13.838  17.244  13.492
49572W        W11026  27.650  21.109  13.873
49573W        W11027  22.660  18.707   1.259
49574W        W11028  13.244  34.090   3.163
49575W        W11029  39.372  32.470  11.003
49576W        W11030  42.966  14.617   2.409
49577W        W11031   7.732  21.178   1.251
49578W        W11032  10.774  15.672  10.994
49579W        W11033  19.284  31.418  14.344
49580W        W11034  16.272  15.162   1.744
49581W        W11035  13.682  41.878  11.481
49582W        W11036  10.181   7.333   2.797
49583W        W11037   8.236  22.135  12.862
49584W        W11038  18.702  27.686  10.444
49585W        W11039  25.677  25.214   1.246
49586W        W11040  10.243   1.773  13.831
49587W        W11041  31.949  42.446  12.373
49588W        W11042  42.489   0.955  10.424
49589W        W11043  15.753  40.391  14.340
49590W        W11044  28.957  26.653   5.269
49591W        W11045  19.665  25.504   4.838
49592W        W11046  20.196  19.594  12.878
49593W        W11047  44.871  13.307  14.859
49594W        W11048   9.757  34.014   5.105
49595W        W11049  38.075   6.307  10.482
49596W        W11050   6.816  22.079   3.699
49597W        W11051   8.853  21.115   5.195
49598W        W11052  18.642  14.277   4.216
49599W        W11053  30.548  30.565  13.445
49600W        W11054  38.975   7.192   4.826
49601W        W11055  25.496  15.690   3.740
49602W        W11056   1.355  34.938  14.417
49603W        W11057   7.270  18.772  10.504
49604W        W11058  10.187  32.496  12.432
49605W        W11059  43.355  22.191  13.808
49606W        W11060   6.297  18.712   4.820
49607W        W11061  11.698   5.773   2.212
49608W        W11062  39.986  32.576   3.202
49609W        W11063  41.447   2.916   3.758
49610W        W11064   0.481  40.804  14.012
49611W        W11065  10.809  16.665   3.739
49612W        W11066   3.365  40.488   3.367
49613W        W11067  21.549   8.750   1.875
49614W        W11068  26.609  31.561   0.268
49615W        W11069  13.676  40.849   1.291
49616W        W11070  36.488  30.135  14.339
49617W        W11071  22.200  11.191  14.295
49618W        W11072  31.537   5.748  14.474
49619W        W11073  19.744   1.371   0.786
49620W        W11074  35.901  30.488  13.983
49621W        W11075   9.684  40.315  12.929
49622W        W11076  33.947  11.286  11.921
49623W        W11077  35.500  28.941   3.289
49624W        W11078  19.131  41.859  13.370
49625W        W11079  28.948   9.217   0.801
49626W        W11080   4.829  35.000  11.488
49627W        W11081   4.858  43.946  14.364
49628W        W11082   2.239  14.324  10.621
49629W        W11083   0.824  25.485  14.314
49630W        W11084  23.625   3.406   0.337
49631W        W11085  12.828   5.222   4.646
49632W        W11086   4.907  37.546   4.221
49633W        W11087  32.008  29.504  12.874
49634W        W11088  31.896  15.750   1.411
49635W        W11089   9.879  28.010  14.799
49636W        W11090  39.541  36.085   1.731
49637W        W11091  11.242  29.460   2.218
49638W        W11092  42.022  13.711   3.335
49639W        W11093  10.249  11.710  13.375
49640W        W11094   5.231  42.780  10.538
49641W        W11095  30.502   2.746   3.821
49642W        W11096  16.682  40.874  11.123
49643W        W11097   9.244  18.134   9.480
49644W        W11098  16.317  24.659   1.214
49645W        W11099   3.811  32.429   2.419
49646W        W11100   7.818  31.004  14.463
49647W        W11101   5.297  28.624  12.895
49648W        W11102  15.760  22.035   9.962
49649W        W11103  37.562   1.838   4.194
49650W        W11104  24.623  35.393   1.935
49651W        W11105  28.153  14.316  11.873
49652W        W11106  15.786  15.749   1.328
49653W        W11107  41.341   4.245  11.917
49654W        W11108   5.786  28.108   0.847
49655W        W11109  16.619  36.456   3.719
49656W        W11110  19.683  44.995  13.840
49657W        W11111  34.520  25.979  11.420
49658W        W11112  36.017  11.821  14.945
49659W        W11113  41.509  33.067  12.488
49660W        W11114  13.166   8.302  14.823
49661W        W11115  44.844  12.753   0.878
49662W        W11116  11.367   1.915  10.631
49663W        W11117  23.697  39.965   0.396
49664W        W11118  29.480   0.407  11.518
49665W        W11119  12.856  11.710   5.088
49666W        W11120  41.944  32.070  11.025
49667W        W11121   3.370   3.780  14.948
49668W        W11122  11.840  19.625   3.753
49669W        W11123  42.508   7.901  11.473
49670W        W11124   8.800  13.347  14.785
49671W        W11125  13.194   2.857   1.934
49672W        W11126  10.841   2.229   2.364
49673W        W11127  30.038  31.432  14.801
49674W        W11128  25.019  22.744   3.154
49675W        W11129  20.665  41.321   2.219
49676W        W11130  10.149  11.293   4.605
49677W        W11131  30.088   8.168  14.420
49678W        W11132  22.198  29.521   3.374
49679W        W11133  13.335   6.309  11.485
49680W        W11134  26.610  37.441   4.224
49681W        W11135   6.701   1.316  13.909
49682W        W11136  25.567   8.735   0.921
49683W        W11137  25.053  27.067  12.081
49684W        W11138  25.551  14.681  12.036
49685W        W11139  26.205   1.403   2.767
49686W        W11140   3.392  11.370   2.327
49687W        W11141  12.188  44.364   1.278
49688W        W11142  27.632   5.715   4.142
49689W        W11143  15.652  40.405  13.876
49690W        W11144  28.105  13.821  12.370
49691W        W11145  43.500  24.482   1.928
49692W        W11146   8.239  35.088   1.897
49693W        W11147  40.929  29.156   1.393
49694W        W11148   8.678  17.128  10.943
49695W        W11149  14.174  41.808   2.803
49696W        W11150  21.713  33.117   0.350
49697W        W11151  24.489   7.880   4.249
49698W        W11152  23.989  23.591  11.525
49699W        W11153  34.114  19.232  13.441
49700W        W11154  38.438  22.640   1.718
49701W        W11155  10.636  22.059   3.355
49702W        W11156   3.234  23.615   0.899
49703W        W11157   3.278   8.830   0.337
49704W        W11158  30.164   0.264   4.170
49705W        W11159  19.771  33.062  14.963
49706W        W11160  16.304  42.424   3.659
49707W        W11161  25.485   9.291   3.677
49708W        W11162   7.907  30.932  13.016
49709W        W11163   3.714  18.252   0.268
49710W        W11164  23.017  42.482   2.790
49711W        W11165  21.259  27.059  13.520
49712W        W11166  43.512  33.957  13.804
49713W        W11167  17.102   7.725  12.825
49714W        W11168   8.754  29.655   1.419
49715W        W11169   6.215   3.400  10.977
49716W        W11170  43.284  38.376  14.870
49717W        W11171  18.092  31.973   4.688
49718W        W11172  15.160   5.374   2.184
49719W        W11173  31.026  20.079  14.008
49720W        W11174  34.963  43.356  14.813
49721W        W11175  23.586  32.014  11.895
49722W        W11176  33.460  29.559  11.944
49723W        W11177  17.588  31.923  13.951
49724W        W11178  37.468  37.511   3.359
49725W        W11179  43.773  26.123   3.773
49726W        W11180  24.638   7.172  12.974
49727W        W11181  37.423  35.020   0.809
49728W        W11182   7.221  26.101  14.864
49729W        W11183  32.073   7.691   2.714
49730W        W11184  10.150  20.750  12.023
49731W        W11185   9.393  29.166  13.883
49732W        W11186  35.407  44.269   3.373
49733W        W11187  26.020   5.420  14.275
49734W        W11188   0.756  23.008   4.692
49735W        W11189   6.415  23.542   2.762
49736W        W11190   4.205  42.840   1.298
49737W        W11191  13.730  43.281   3.246
49738W        W11192  39.016  22.109  14.853
49739W        W11193  44.465  18.139   2.873
49740W        W11194  26.673  44.871   0.317
49741W        W11195  13.286  18.546  13.043
49742W        W11196   0.366  11.677   3.713
49743W        W11197  28.084  25.485  12.952
49744W        W11198  14.150   2.891   1.270
49745W        W11199  21.161  43.498   1.262
49746W        W11200  15.608  17.198  12.461
49747W        W11201   9.757   1.374  14.786
49748W        W11202   8.298  18.169  11.482
49749W        W11203  21.258  34.597  11.873
49750W        W11204  41.884  43.946  14.511
49751W        W11205  15.591  28.534   1.746
49752W        W11206   0.306  42.434  14.473
49753W        W11207  43.882  13.127  11.065
49754W        W11208  17.224   3.725   3.777
49755W        W11209   1.810  30.657  10.535
49756W        W11210  25.584  42.300   1.716
49757W        W11211  30.964  12.131  11.377
49758W        W11212  12.239  20.752  13.946
49759W        W11213  43.420  26.682  12.415
49760W        W11214   0.367  15.176   0.892
49761W        W11215   2.257  18.632   2.763
49762W        W11216  17.184  14.279   3.635
49763W        W11217  14.102  43.918   3.791
49764W        W11218   7.763   2.257   2.343
49765W        W11219   2.283  13.605   3.351
49766W        W11220  18.275   0.795  10.526
49767W        W11221  11.703  35.955   1.448
49768W        W11222  34.415   1.259   3.730
49769W        W11223  33.949  20.169  10.960
49770W        W11224   5.226  31.144  11.400
49771W        W11225  32.405  18.084   1.787
49772W        W11226  14.705  25.690   3.268
49773W        W11227  39.399  14.834  11.386
49774W        W11228  44.312  23.516   1.810
49775W        W11229   2.433  32.923  14.497
49776W        W11230  14.782  39.840   0.875
49777W        W11231  10.819  37.862   3.204
49778W        W11232  32.089  33.545  14.028
49779W        W11233  18.552  27.980  14.813
49780W        W11234   5.831  35.979  13.383
49781W        W11235  25.122  40.324   4.289
49782W        W11236  24.014  37.084  11.431
49783W        W11237  38.562  40.945  12.025
49784W        W11238   5.203  25.195   3.723
49785W        W11239  39.036  13.194  13.929
49786W        W11240   6.411  40.435  11.077
49787W        W11241  33.074  21.601  12.373
49788W        W11242   5.857  28.007  14.435
49789W        W11243  18.718  37.572   0.908
49790W        W11244  27.614  17.089   3.288
49791W        W11245  15.325  20.146  13.446
49792W        W11246   9.645  30.006   1.705
49793W        W11247  40.991  25.500  12.534
49794W        W11248   9.874  28.625   1.710
49795W        W11249   9.810  20.171  10.104
49796W        W11250  29.930  29.933  13.037
49797W        W11251  13.271   7.410  10.518
49798W        W11252  41.385  28.506  11.493
49799W        W11253  22.110   6.346  11.974
49800W        W11254  15.686  23.219  12.505
49801W        W11255   8.274  19.116  14.360
49802W        W11256  43.911  23.135   2.722
49803W        W11257  22.563   9.321  14.293
49804W        W11258  13.262  27.106  11.872
49805W        W11259  18.204   6.713  10.640
49806W        W11260  32.137   3.764  10.513
49807W        W11261  23.623  12.815   0.760
49808W        W11262  11.831  41.500   4.632
49809W        W11263  29.081  33.092   0.461
49810W        W11264  38.456  25.147  13.364
49811W        W11265  34.104  25.138  12.881
49812W        W11266  22.601   1.257  13.877
49813W        W11267  39.852  34.045   2.336
49814W        W11268   2.805   8.682  12.428
49815W        W11269  23.641  15.579  13.061
49816W        W11270  37.491  32.504   3.342
49817W        W11271  41.470  40.931  12.534
49818W        W11272  24.605  31.145   0.807
49819W        W11273   2.320  15.593   4.319
49820W        W11274   7.271  31.471   0.371
49821W        W11275  10.380  35.489   1.822
49822W        W11276  37.506  29.661  13.378
49823W        W11277  11.800  17.279   1.707
49824W        W11278   4.832   0.430   0.899
49825W        W11279  32.951  39.505  12.899
49826W        W11280   8.321  42.305  14.759
49827W        W11281  13.615  16.600   3.694
49828W        W11282  27.028  39.431   2.225
49829W        W11283   3.437  36.024  12.970
49830W        W11284  30.509  38.918  11.598
49831W        W11285   2.465  40.987  14.353
49832W        W11286  17.732  36.955   0.352
49833W        W11287  27.170   6.337  14.848
49834W        W11288  16.587  39.539  10.145
49835W        W11289  21.517  29.959  14.784
49836W        W11290  29.660  10.141  13.996
49837W        W11291   4.416  39.472  13.410
49838W        W11292   3.459   4.937   3.716
49839W        W11293  14.120  18.235  10.915
49840W        W11294   3.325   8.813  12.948
49841W        W11295  25.502   3.733   2.744
49842W        W11296  22.241   5.818   3.326
49843W        W11297  34.579   4.243   2.375
49844W        W11298  25.180  35.590   5.179
49845W        W11299  15.199  42.333   3.795
49846W        W11300   1.894  16.136   0.795
49847W        W11301  22.069  29.642   0.432
49848W        W11302  39.032  38.913  14.888
49849W        W11303  27.603   2.852  13.360
49850W        W11304  31.594   6.318  13.376
49851W        W11305   0.419  12.779   4.265
49852W        W11306  23.511   8.167   2.195
49853W        W11307   5.237   4.278  12.528
49854W        W11308  18.699   2.466  11.056
49855W        W11309  16.570  36.441  10.484
49856W        W11310   7.250  19.662  10.403
49857W        W11311  21.592  12.292   4.788
49858W        W11312  39.822  20.569   1.788
49859W        W11313  24.155  30.929   1.276
49860W        W11314  21.571  25.041  11.498
49861W        W11315  10.255  11.362  10.054
49862W        W11316  11.652  22.154  12.881
49863W        W11317   5.235  29.151  11.513
49864W        W11318  41.003  16.726  12.547
49865W        W11319  44.380  42.822   4.328
49866W        W11320   3.925   6.903   1.920
49867W        W11321  30.645   4.248  11.420
49868W        W11322   7.192  27.656  13.323
49869W        W11323   0.315   2.349   1.771
49870W        W11324   4.865   0.756  11.110
49871W        W11325  25.696  19.245  12.528
49872W        W11326  21.056   5.734  14.025
49873W        W11327  38.987  29.149  13.892
49874W        W11328  31.499  30.100  12.386
49875W        W11329   3.837  20.530   1.218
49876W        W11330   9.375  26.536   4.355
49877W        W11331  40.500  12.636   2.842
49878W        W11332  15.171  32.476   1.236
49879W        W11333  26.526   8.370  14.866
49880W        W11334   5.860   8.363   1.810
49881W        W11335   6.340  18.258  14.890
49882W        W11336  25.699  15.579  11.936
49883W        W11337  13.756  32.524   2.409
49884W        W11338  25.108  20.245  11.033
49885W        W11339  43.866  14.820   0.395
49886W        W11340   5.697  40.392   0.739
49887W        W11341   3.929  29.540  11.372
49888W        W11342   5.900   6.872   1.391
49889W        W11343  40.000  17.722  13.889
49890W        W11344  14.324  26.141   3.648
49891W        W11345   5.401   5.217   0.248
49892W        W11346  27.510   4.849   1.290
49893W        W11347  41.456  10.794  10.489
49894W        W11348  28.028  37.487  14.976
49895W        W11349  13.152  15.780  13.382
49896W        W11350  38.833   1.402  14.475
49897W        W11351   1.252   8.191   3.314
49898W        W11352   3.911  42.857   4.767
49899W        W11353  41.390  33.574  11.092
49900W        W11354   9.230   3.926  11.438
49901W        W11355   5.918   3.841  10.640
49902W        W11356  21.719  42.291  10.537
49903W        W11357  30.039  23.663   2.250
49904W        W11358  37.456  39.021   1.399
49905W        W11359   1.468  10.761   2.276
49906W        W11360   8.281  20.618   2.393
49907W        W11361  26.611  12.345   2.675
49908W        W11362  37.348  27.979  13.969
49909W        W11363  18.550   8.678  10.604
49910W        W11364  41.921  44.921  14.281
49911W        W11365  37.557  27.477  14.318
49912W        W11366  44.982  39.430  13.915
49913W        W11367  15.789  43.801   3.343
49914W        W11368   3.883   7.403  13.980
49915W        W11369   9.350   8.236  14.803
49916W        W11370  32.963  13.622   3.369
49917W        W11371   2.752  28.148  10.559
49918W        W11372  18.168  15.267  13.940
49919W        W11373   8.660   6.315  11.597
49920W        W11374  40.907  33.471  14.957
49921W        W11375   6.704  16.806   2.748
49922W        W11376  18.759  23.160  11.493
49923W        W11377   5.737  33.583  10.888
49924W        W11378  42.452  32.930   3.809
49925W        W11379  35.081  14.680  10.491
49926W        W11380  41.891   7.794  12.964
49927W        W11381  30.650  26.153   1.857
49928W        W11382  26.999  12.142   0.827
49929W        W11383  41.445  26.624   1.862
49930W        W11384  32.061  39.876   4.262
49931W        W11385   7.226  36.861  11.438
49932W        W11386  13.195  22.036   2.875
49933W        W11387  31.936  35.431  12.470
49934W        W11388  25.501  40.049  10.911
49935W        W11389   3.794  34.082  12.921
49936W        W11390   5.231  44.262   9.989
49937W        W11391  25.534   8.190   1.735
49938W        W11392  41.393   7.203   4.658
49939W        W11393  31.059  19.267   4.161
49940W        W11394  41.410   8.878   2.790
49941W        W11395  40.492   0.403   4.753
49942W        W11396   4.881  43.300  13.801
49943W        W11397  25.654  29.027   1.444
49944W        W11398  38.983  42.363  13.955
49945W        W11399  33.587  37.417  12.980
49946W        W11400   0.298  14.738  10.615
49947W        W11401  12.792   8.796  13.031
49948W        W11402  38.000  40.484   3.658
49949W        W11403  31.066  43.810   0.803
49950W        W11404   3.413  10.293   3.280
49951W        W11405  22.252  15.788   0.803
49952W        W11406  12.147  21.713  10.550
49953W        W11407  25.078  26.951  13.392
49954W        W11408  37.443  42.453   3.656
49955W        W11409   8.781  33.442   0.771
49956W        W11410  18.162  28.471   2.772
49957W        W11411   3.739  24.648  13.400
49958W        W11412  25.669   7.865   0.367
49959W        W11413  37.493  29.973  10.480
49960W        W11414  16.792  34.000   0.728
49961W        W11415  25.692  30.057  13.017
49962W        W11416  21.554  33.960   3.264
49963W        W11417  42.983   2.367  11.046
49964W        W11418   1.364  42.990   0.912
49965W        W11419  20.042  20.559   4.774
49966W        W11420  10.665  25.621   0.896
49967W        W11421  19.675   4.440  10.539
49968W        W11422  36.863  40.333   0.273
49969W        W11423  40.393   1.329   4.349
49970W        W11424   2.357  10.321   5.110
49971W        W11425  22.617  42.008  14.477
49972W        W11426   9.211  27.022  13.948
49973W        W11427  19.536  24.700   0.788
49974W        W11428  14.210  33.112   1.385
49975W        W11429  35.587   6.718  14.900
49976W        W11430  34.901  37.339  10.946
49977W        W11431  20.700  22.067   0.852
49978W        W11432   4.401  27.578   3.653
49979W        W11433   5.204  44.276   2.371
49980W        W11434  32.524  37.986   4.604
49981W        W11435  11.782  20.728   4.130
49982W        W11436  38.859   8.802  12.980
49983W        W11437  13.801  41.818  12.870
49984W        W11438  14.115   3.226  12.451
49985W        W11439  31.908  38.025   4.306
49986W        W11440   3.261   2.429  11.927
49987W        W11441   1.428   0.932   1.214
49988W        W11442  25.116  30.522  11.098
49989W        W11443  31.437  15.152   2.761
49990W        W11444  24.143  42.887  11.091
49991W        W11445  29.088  20.103  11.398
49992W        W11446  17.149  37.358   1.757
49993W        W11447  31.638   5.422   4.322
49994W        W11448  41.303  10.197   0.272
49995W        W11449   7.910   2.227   3.778
49996W        W11450  36.538  12.670   9.926
49997W        W11451  15.721  28.642  10.597
49998W        W11452  35.466  16.136   0.769
49999W        W11453  11.627   1.296  14.807
50000W        W11454  12.837  41.853  13.883
50001W        W11455  36.396  12.798  13.965
50002W        W11456  32.988  22.635   4.336
50003W        W11457  36.039   1.262  12.016
50004W        W11458  16.177  40.309   5.138
50005W        W11459   6.790   5.730  11.955
50006W        W11460  13.118  22.512   1.390
50007W        W11461  44.390  30.056  13.401
50008W        W11462  13.653  28.137  12.848
50009W        W11463   3.868  37.951  11.025
50010W        W11464   5.737  19.717   2.340
50011W        W11465  40.817  10.792  13.898
50012W        W11466  28.974  21.172   0.936
50013W        W11467   8.768  17.733   4.769
50014W        W11468  23.668  36.448   0.430
50015W        W11469  13.836   9.232  12.023
50016W        W11470  34.517  40.339  11.869
50017W        W11471  33.955  22.201   2.826
50018W        W11472  15.296  41.475  14.327
50019W        W11473  28.147  13.272   3.209
50020W        W11474   7.687  35.878   2.728
50021W        W11475   1.847   3.426  10.085
50022W        W11476  37.008  24.659   3.750
50023W        W11477  33.006  34.864   2.214
50024W        W11478  38.884  31.645  14.924
50025W        W11479  12.156   3.338   1.376
50026W        W11480  27.012  39.052  13.812
50027W        W11481  15.808  35.881   3.658
50028W        W11482  40.480  21.183  14.883
50029W        W11483   5.377   6.289   0.409
50030W        W11484  33.592  12.179  12.901
50031W        W11485  18.190  12.208  13.456
50032W        W11486   7.741  35.969  10.521
50033W        W11487  20.589  17.648   3.736
50034W        W11488  27.574   4.700   5.210
50035W        W11489  32.582  35.514   3.240
50036W        W11490  10.640  17.751   4.785
50037W        W11491  40.961   3.223   2.320
50038W        W11492   5.205  36.538   3.271
50039W        W11493   4.370  27.643   4.697
50040W        W11494  14.255  27.129   0.740
50041W        W11495   4.416  12.731   0.814
50042W        W11496  30.010  34.863   4.725
50043W        W11497  30.134  29.129  10.926
50044W        W11498   7.884   1.883  11.546
50045W        W11499   6.814  30.510  12.385
50046W        W11500   4.705  15.599  14.872
50047W        W11501  34.444  15.763  14.776
50048W        W11502  16.117   1.839   1.444
50049W        W11503  30.454  31.012  13.469
50050W        W11504   0.874  26.034   4.611
50051W        W11505  32.412  32.470  13.024
50052W        W11506  37.371  27.132  11.539
50053W        W11507   6.884  34.873   4.696
50054W        W11508   8.338  26.095   4.285
50055W        W11509  26.696  31.573  12.539
50056W        W11510  14.826  43.851  12.984
50057W        W11511   4.895  24.655   1.844
50058W        W11512   9.173  36.391  10.553
50059W        W11513  12.824  23.137   5.288
50060W        W11514  25.141  37.469  12.475
50061W        W11515  15.263   4.267  14.475
50062W        W11516  42.422   2.951  14.284
50063W        W11517  13.826  25.704  13.897
50064W        W11518  29.941  32.092  11.980
50065W        W11519  44.428  30.457   1.396
50066W        W11520  31.414   7.763  11.088
50067W        W11521  19.747  38.874  13.002
50068W        W11522  10.276  16.630  10.591
50069W        W11523   7.772  31.473  13.430
50070W        W11524  29.023  43.430  14.802
50071W        W11525  10.783  21.640   4.270
50072W        W11526   0.315  35.556   0.419
50073W        W11527  39.560  16.708   0.257
50074W        W11528  31.444   2.467   3.732
50075W        W11529   1.937  24.062  14.978
50076W        W11530   5.341  41.025  12.974
50077W        W11531   5.730  29.549   4.623
50078W        W11532  42.512  16.161   4.227
50079W        W11533   8.403  10.850   3.380
50080W        W11534   2.746  14.176   3.868
50081W        W11535   7.340  15.621  11.106
50082W        W11536  42.992   2.411  14.350
50083W        W11537  35.967   1.845  14.012
50084W        W11538  13.316  15.767   4.120
50085W        W11539  11.764  30.950   0.326
50086W        W11540  40.834  17.122  11.568
50087W        W11541   0.395  28.452   1.407
50088W        W11542   5.200  33.988  12.383
50089W        W11543   0.263   4.840  10.898
50090W        W11544   6.712  18.251  14.031
50091W        W11545  32.989  30.656   1.916
50092W        W11546  12.745  42.416  14.880
50093W        W11547  42.954   1.242   4.611
50094W        W11548   1.269  30.164  11.099
50095W        W11549  31.551  35.553  14.308
50096W        W11550  32.503   0.966   4.654
50097W        W11551  25.049  25.578  13.882
50098W        W11552   4.286  24.127  10.433
50099W        W11553  40.467  36.888  14.857
50100W        W11554   2.370  19.686  13.508
50101W        W11555  25.634   0.764  13.342
50102W        W11556  21.259  15.588   3.286
50103W        W11557   9.332  11.779   4.167
50104W        W11558  10.785  41.031   0.430
50105W        W11559  19.695   5.781   4.643
50106W        W11560   5.715  23.585  13.886
50107W        W11561  35.440  35.031  10.988
50108W        W11562   3.738  12.665   2.275
50109W        W11563  19.774  38.861   4.320
50110W        W11564   7.889  27.686  13.378
50111W        W11565  14.686   0.892   2.683
50112W        W11566   1.292   8.872   2.833
50113W        W11567  34.053  39.478   1.778
50114W        W11568   5.835  40.863  12.088
50115W        W11569  27.504  11.642   5.245
50116W        W11570  33.937  21.040  11.878
50117W        W11571  15.778  20.147  11.068
50118W        W11572  10.199  37.356   1.726
50119W        W11573  11.194   2.393  13.547
50120W        W11574  36.357  17.093  14.498
50121W        W11575  13.234  43.361   5.153
50122W        W11576  28.639  11.201   4.732
50123W        W11577   9.354  33.987  10.572
50124W        W11578  30.913  19.702   5.231
50125W        W11579  17.794  35.594  11.512
50126W        W11580  31.082  30.597  10.097
50127W        W11581  44.370   7.319   3.176
50128W        W11582  30.006  30.462  14.309
50129W        W11583  14.696  34.966   4.343
50130W        W11584   1.403  39.389   0.246
50131W        W11585   1.306   2.431  12.431
50132W        W11586  37.345  31.605  13.425
50133W        W11587  29.524  30.072  14.885
50134W        W11588  41.379  20.160   0.327
50135W        W11589  16.161  42.973   3.263
50136W        W11590  26.076   6.853  11.552
50137W        W11591  14.687  21.596   1.832
50138W        W11592  21.208  14.759   0.359
50139W        W11593  40.802   2.754  12.352
50140W        W11594   2.753  35.989  12.958
50141W        W11595  24.138  32.051  14.946
50142W        W11596  23.524  36.480  14.961
50143W        W11597  42.013   2.776   4.323
50144W        W11598  28.442  33.577   1.839
50145W        W11599  36.030  15.599   4.242
50146W        W11600  28.085  23.005  11.106
50147W        W11601   7.880   2.290   0.880
50148W        W11602  19.779  44.314   4.296
50149W        W11603  41.789   8.719   4.146
50150W        W11604  34.530  38.381  12.500
50151W        W11605  43.478  24.718   4.185
50152W        W11606  18.607  35.597  12.840
50153W        W11607   4.811  20.159   2.857
50154W        W11608  25.034  26.697   2.706
50155W        W11609   7.683   1.301  11.882
50156W        W11610  12.200   1.443   4.150
50157W        W11611  21.152  32.996   2.666
50158W        W11612  13.287  39.998  14.784
50159W        W11613  32.486   6.909   1.928
50160W        W11614  29.023  10.355   3.151
50161W        W11615  32.421  14.278  11.946
50162W        W11616  22.722  40.320  12.994
50163W        W11617  34.591   6.337  10.423
50164W        W11618   8.817  24.665   4.643
50165W        W11619  29.651  37.542  13.019
50166W        W11620  14.720  35.510   4.219
50167W        W11621  30.419  35.587   0.833
50168W        W11622  42.781   7.311   2.815
50169W        W11623  11.702  17.163   5.647
50170W        W11624   0.358   7.412  12.550
50171W        W11625  23.605  17.288   0.908
50172W        W11626  33.468   2.729   4.786
50173W        W11627  15.128  41.832   2.254
50174W        W11628  41.971   3.225   2.203
50175W        W11629   1.863  32.407   1.446
50176W        W11630  33.092  39.872  11.548
50177W        W11631   6.738  42.440   0.373
50178W        W11632  40.999  39.818  13.794
50179W        W11633  11.862  41.027  14.947
50180W        W11634   3.381  43.817  13.940
50181W        W11635  25.063  38.844   3.769
50182W        W11636  41.364   5.918   2.803
50183W        W11637   0.801   9.215  14.810
50184W        W11638  36.421  16.722   0.903
50185W        W11639  40.462  12.733   3.689
50186W        W11640  14.323  13.727  10.949
50187W        W11641   1.465  28.029  13.871
50188W        W11642   6.829  19.649   4.698
50189W        W11643   4.239  22.079  10.628
50190W        W11644  32.438  14.778   2.865
50191W        W11645  30.464  16.730   2.674
50192W        W11646   2.918  30.118   0.845
50193W        W11647   9.717  35.015   0.442
50194W        W11648   1.299   9.254   0.334
50195W        W11649   6.916  30.553   2.833
50196W        W11650  21.046   3.429  14.990
50197W        W11651  38.485  43.956  11.382
50198W        W11652  17.763   5.286   1.382
50199W        W11653  40.005  41.794  12.379
50200W        W11654   1.453  25.712   0.912
50201W        W11655   1.370  22.135   0.796
50202W        W11656  24.720  37.944  14.031
50203W        W11657   9.372  34.093   3.852
50204W        W11658   4.266  10.141   3.800
50205W        W11659  12.144  38.931  12.442
50206W        W11660  30.039  42.806  12.974
50207W        W11661  17.259   5.397   3.810
50208W        W11662  10.217  10.212   3.656
50209W        W11663  44.901  24.081  14.818
50210W        W11664  27.577  40.967   0.913
50211W        W11665   3.256  15.313   2.733
50212W        W11666   4.299  43.773  11.855
50213W        W11667  39.047  33.487   5.293
50214W        W11668   4.838  31.141   0.765
50215W        W11669  10.668  38.957   3.839
50216W        W11670  36.951  22.728   0.792
50217W        W11671  40.964  30.625   4.815
50218W        W11672   5.210  13.293  11.476
50219W        W11673  42.870  27.451  11.866
50220W        W11674  22.157   0.472   1.214
50221W        W11675  38.881   1.366   1.752
50222W        W11676   8.812  42.024   5.151
50223W        W11677  26.547   8.723  12.043
50224W        W11678  29.427  15.152   1.402
50225W        W11679   8.881  18.740  12.493
50226W        W11680  41.816   0.305   2.674
50227W        W11681  13.729   3.943   0.902
50228W        W11682  29.993  28.671  13.847
50229W        W11683  31.638  31.470   3.275
50230W        W11684  30.936  12.738   4.208
50231W        W11685   4.931  32.411   3.828
50232W        W11686  26.096  22.645   0.268
50233W        W11687  27.663  19.775  14.989
50234W        W11688  21.113  25.175  10.572
50235W        W11689  24.582  33.024   1.321
50236W        W11690  21.070  33.573  13.844
50237W        W11691  40.411  16.649  10.423
50238W        W11692  15.777  42.926  12.006
50239W        W11693   1.351  21.211   2.266
50240W        W11694  43.829  28.177   4.281
50241W        W11695   7.900  18.236   4.829
50242W        W11696   1.951   8.863   4.222
50243W        W11697  29.046  41.903  14.855
50244W        W11698  30.067  43.426  12.053
50245W        W11699  33.557  41.899  10.069
50246W        W11700   7.719  36.567  14.874
50247W        W11701  37.459  25.592  12.942
50248W        W11702   3.336  43.991   4.604
50249W        W11703   7.729  33.120  14.444
50250W        W11704  24.647  34.398  11.512
50251W        W11705  31.114   6.200  13.923
50252W        W11706  23.628  34.065   3.654
50253W        W11707  40.865  26.490  12.515
50254W        W11708  44.806  36.386  14.958
50255W        W11709  37.438  21.107   5.110
50256W        W11710   1.449   5.319   3.377
50257W        W11711  24.562  36.884   0.748
50258W        W11712   0.915   1.287   0.928
50259W        W11713   5.756   5.368  10.611
50260W        W11714  37.037  34.886  10.519
50261W        W11715  39.398  12.651  14.994
50262W        W11716  15.117  39.047  10.602
50263W        W11717  33.520  26.636  11.602
50264W        W11718  21.216  38.927  14.426
50265W        W11719  30.480  17.192   2.871
50266W        W11720  38.949  42.302   0.324
50267W        W11721  28.110  20.231   0.727
50268W        W11722  28.619  12.750  10.958
50269W        W11723  32.419  42.004   3.704
50270W        W11724  35.959   3.334  13.330
50271W        W11725  25.084   7.254   3.313
50272W        W11726  24.193  41.819  10.986
50273W        W11727  27.669  40.848   0.393
50274W        W11728  42.282  15.148  13.888
50275W        W11729  33.574   8.895  10.068
50276W        W11730  29.578  19.137  13.542
50277W        W11731   6.748  35.892   3.676
50278W        W11732   8.358  10.225  10.614
50279W        W11733  26.586  28.533  13.816
50280W        W11734  40.536  21.545   2.269
50281W        W11735  19.198  10.837  13.382
50282W        W11736  41.792   1.315  11.126
50283W        W11737   9.674  36.997  11.551
50284W        W11738   0.417   2.447   4.735
50285W        W11739  32.567  35.465  14.459
50286W        W11740   2.912   6.183   2.201
50287W        W11741  36.548  38.034   3.271
50288W        W11742  26.023  13.199  13.815
50289W        W11743  19.183  28.513  11.482
50290W        W11744  28.931  26.151   0.444
50291W        W11745  26.060  31.107  11.395
50292W        W11746   6.692  33.454  12.869
50293W        W11747   1.798   1.740   2.850
50294W        W11748  37.417  15.712   5.113
50295W        W11749  13.154  33.525  13.916
50296W        W11750  14.135  20.145  14.497
50297W        W11751  27.493   8.164   2.272
50298W        W11752  41.012  39.519  14.922
50299W        W11753  13.300  20.556  10.472
50300W        W11754  24.519  21.728  10.482
50301W        W11755   6.803   8.761   9.981
50302W        W11756  32.987  40.880   2.672
50303W        W11757  20.755  40.948  12.505
50304W        W11758   9.174  13.244  12.945
50305W        W11759   2.869  43.780   3.660
50306W        W11760  37.429  35.087  13.489
50307W        W11761  36.910  13.839   1.714
50308W        W11762  44.766  32.985   0.425
50309W        W11763  11.189   5.348   1.422
50310W        W11764  26.522  19.110   3.235
50311W        W11765   6.726  15.592  12.018
50312W        W11766  38.978  37.400  11.978
50313W        W11767  20.751  31.931   0.391
50314W        W11768  33.920  36.902   3.778
50315W        W11769  33.009  24.637   1.238
50316W        W11770   8.224  30.145   3.733
50317W        W11771  10.190  28.096  12.031
50318W        W11772   3.840  17.717  10.944
50319W        W11773  15.118  21.644  14.931
50320W        W11774  21.736  32.041   2.708
50321W        W11775  20.729  30.443  12.421
50322W        W11776  33.567  17.649  10.459
50323W        W11777  36.503   8.264  11.855
50324W        W11778   1.876   3.332  14.877
50325W        W11779  13.350  37.465   3.722
50326W        W11780  42.295   9.886   3.718
50327W        W11781  19.125  31.566   4.189
50328W        W11782  35.882  39.440  11.061
50329W        W11783  36.429  24.533  10.579
50330W        W11784   8.286  33.033   0.330
50331W        W11785  16.808  20.683   4.304
50332W        W11786  19.126   4.348   1.766
50333W        W11787   6.277  44.784  14.305
50334W        W11788   2.915   0.763   0.958
50335W        W11789   2.956  23.535  14.824
50336W        W11790   2.820  17.628  11.436
50337W        W11791  42.434  16.642   4.710
50338W        W11792  33.121  42.466   4.179
50339W        W11793  11.258  22.251   0.375
50340W        W11794   6.891   0.330  13.927
50341W        W11795   9.730  18.690   1.316
50342W        W11796  37.560  16.083  11.895
50343W        W11797  15.098  12.192  11.982
50344W        W11798  39.473  36.016   3.307
50345W        W11799  14.337  29.572  11.442
50346W        W11800  19.539  42.854  11.425
50347W        W11801   9.302  41.969  12.547
50348W        W11802  35.984   4.793  13.811
50349W        W11803  25.185  16.148  11.416
50350W        W11804  20.549  16.642   4.242
50351W        W11805  44.348  26.130  13.052
50352W        W11806  42.901  19.599   4.622
50353W        W11807  37.505  42.403   2.309
50354W        W11808   7.369   1.844  13.905
50355W        W11809  18.753  41.873  14.780
50356W        W11810   0.815  13.178   4.651
50357W        W11811   3.721  18.585   4.725
50358W        W11812  27.985  28.571   3.712
50359W        W11813  19.158  22.506  10.407
50360W        W11814  35.992  23.540  13.343
50361W        W11815  22.508  35.994   3.663
50362W        W11816  13.259  17.581  13.006
50363W        W11817  41.425  21.051  11.981
50364W        W11818  37.482   4.237   2.669
50365W        W11819  14.732  40.873  10.096
50366W        W11820  33.463  25.569  13.487
50367W        W11821   8.198  26.493  13.364
50368W        W11822   9.387  23.499   4.222
50369W        W11823   4.407   1.363   4.645
50370W        W11824  23.572  25.692  11.505
50371W        W11825   4.230  17.144  12.414
50372W        W11826  23.627  37.530  10.014
50373W        W11827  12.208  13.208   9.982
50374W        W11828  31.079  26.155  12.957
50375W        W11829  14.100  41.959   3.215
50376W        W11830  44.880  10.195   1.932
50377W        W11831  38.471  30.991  12.496
50378W        W11832  19.597  18.578  10.611
50379W        W11833  11.322  40.366   1.894
50380W        W11834  38.338  40.928  12.905
50381W        W11835  32.925  39.525   3.379
50382W        W11836   3.218  44.980  14.004
50383W        W11837   4.829  26.002  12.025
50384W        W11838  33.619   5.341   0.767
50385W        W11839  19.217  44.828  14.003
50386W        W11840  18.569  43.323   0.404
50387W        W11841   5.350   9.696  11.083
50388W        W11842   1.333  22.716   4.823
50389W        W11843  27.654  41.472  11.974
50390W        W11844  38.971  38.524  13.404
50391W        W11845  18.067  36.394   2.248
50392W        W11846   5.238   3.721   0.877
50393W        W11847  41.894  17.100   4.838
50394W        W11848   6.401  22.177  10.630
50395W        W11849  30.959  33.411  13.320
50396W        W11850  34.907  26.207  12.924
50397W        W11851  15.617  19.632  14.286
50398W        W11852   6.230  12.678   1.787
50399W        W11853   1.974  22.075  13.867
50400W        W11854   5.201  26.162  10.571
50401W        W11855  32.474  12.778  14.856
50402W        W11856  29.008  36.074  12.888
50403W        W11857  43.969  11.213   3.230
50404W        W11858  30.975  15.110   3.159
50405W        W11859  29.473  34.482   4.201
50406W        W11860  36.844  20.561  10.519
50407W        W11861  26.540   7.338  12.560
50408W        W11862   2.927  40.528   3.279
50409W        W11863   5.195  42.379   2.290
50410W        W11864  29.581  33.390   3.788
50411W        W11865  41.315   3.423  11.032
50412W        W11866  30.487  20.105   0.394
50413W        W11867  34.035   5.354  14.013
50414W        W11868  16.125  24.196   2.889
50415W        W11869  24.546   1.930  14.288
50416W        W11870  37.019  19.098   0.249
50417W        W11871  28.110  16.735  11.058
50418W        W11872   4.928  15.214  11.065
50419W        W11873   1.752  34.936   1.727
50420W        W11874  28.611  17.231   1.808
50421W        W11875  19.712  32.058   3.635
50422W        W11876   7.787  29.437   5.198
50423W        W11877  14.765  41.450   0.461
50424W        W11878  25.197   0.456   3.163
50425W        W11879   5.799  18.743  11.587
50426W        W11880  32.088  31.118   1.823
50427W        W11881  41.915  34.896  11.485
50428W        W11882  40.311  39.863  14.396
50429W        W11883  12.341  31.098  12.967
50430W        W11884  24.696  20.099  14.870
50431W        W11885   0.441  12.852  11.924
50432W        W11886  10.753  41.877  12.090
50433W        W11887  20.179  23.642   2.201
50434W        W11888  38.058  29.091  11.381
50435W        W11889  29.516  40.939   4.232
50436W        W11890  15.243  13.709   3.735
50437W        W11891  13.239  16.669   0.292
50438W        W11892  16.766  37.467  13.839
50439W        W11893  16.655  24.676  14.818
50440W        W11894   7.854  18.592  11.930
50441W        W11895  30.590   9.774   1.699
50442W        W11896  32.523  11.747  12.976
50443W        W11897  15.704  25.532  13.490
50444W        W11898   2.882  37.352   2.754
50445W        W11899  38.375  40.537  13.435
50446W        W11900  15.779  24.563  13.974
50447W        W11901  40.322  26.612   4.756
50448W        W11902  18.220   7.884   3.724
50449W        W11903  44.992   7.171  14.409
50450W        W11904   5.403  28.483  12.549
50451W        W11905  41.466   9.326   1.313
50452W        W11906  37.086  31.472   3.684
50453W        W11907   9.775  21.030  11.858
50454W        W11908  31.118  27.569  13.872
50455W        W11909  14.232  33.904   1.726
50456W        W11910   2.865  34.064  11.993
50457W        W11911  43.453  40.798  14.302
50458W        W11912  13.810  36.870  12.441
50459W        W11913  35.014   1.455   0.857
50460W        W11914  30.504   9.696   4.810
50461W        W11915   7.815  30.005  14.403
50462W        W11916  34.607  26.521  14.954
50463W        W11917  18.097  10.846  13.938
50464W        W11918  27.576  31.495  10.911
50465W        W11919  23.089  20.698   4.248
50466W        W11920  21.164  14.126   1.927
50467W        W11921  10.666   3.390  14.933
50468W        W11922  21.196  33.441  14.413
50469W        W11923   9.744   7.777  12.542
50470W        W11924  44.009   5.821  14.462
50471W        W11925  33.612  24.976  11.025
50472W        W11926  44.430  42.812   3.813
50473W        W11927   6.239  43.272   4.729
50474W        W11928  35.453  37.953  11.954
50475W        W11929  38.501  44.941   1.427
50476W        W11930  30.486  24.572  10.951
50477W        W11931  20.609   7.758  12.046
50478W        W11932  39.811   2.420   0.459
50479W        W11933  27.579  40.031  14.770
50480W        W11934  19.097  33.513  13.466
50481W        W11935  27.155  35.912  12.545
50482W        W11936  20.094  27.158  11.889
50483W        W11937   1.875   4.826   4.198
50484W        W11938  37.541  12.198  10.510
50485W        W11939  15.759  15.664   2.330
50486W        W11940  11.626  44.289   0.727
50487W        W11941  14.629   1.919  11.547
50488W        W11942  44.398  28.620   2.393
50489W        W11943  17.153   6.758   0.420
50490W        W11944  28.146  37.337  12.861
50491W        W11945  32.093   9.819  12.055
50492W        W11946  11.157  11.194  10.441
50493W        W11947  20.556  31.499  14.444
50494W        W11948   1.273  22.120   1.379
50495W        W11949  11.336  26.995   0.282
50496W        W11950  27.140  11.280   0.461
50497W        W11951  13.231  36.925   1.242
50498W        W11952  28.610  42.989   4.280
50499W        W11953  36.397  16.575  13.946
50500W        W11954   0.772  25.572   4.352
50501W        W11955  36.575  20.110  11.947
50502W        W11956   1.362  40.458  12.355
50503W        W11957  10.840  28.471   2.805
50504W        W11958  38.347  20.716   3.194
50505W        W11959  18.587  32.567   0.736
50506W        W11960  10.138   4.252   3.205
50507W        W11961  20.133  25.116  14.421
50508W        W11962  37.388   5.854  10.103
50509W        W11963  38.329  11.762   1.213
50510W        W11964   6.787  27.080   3.161
50511W        W11965  30.057  42.823  12.045
50512W        W11966  32.894  11.311  11.579
50513W        W11967  23.728   1.854   3.661
50514W        W11968  34.863  12.157   2.826
50515W        W11969   7.685  30.497   2.712
50516W        W11970  43.813  24.495   3.822
50517W        W11971  32.972  14.143  10.623
50518W        W11972  22.613  19.683  11.857
50519W        W11973  19.535  43.004  11.124
50520W        W11974   0.322  35.860  10.484
50521W        W11975  30.548  44.265   4.773
50522W        W11976  11.310  18.671  11.431
50523W        W11977  25.056  16.657  14.313
50524W        W11978   5.846   5.436  14.983
50525W        W11979  15.665  13.309  12.918
50526W        W11980   4.211   0.872   4.647
50527W        W11981  34.574  37.379  14.414
50528W        W11982   7.722  17.103  13.811
50529W        W11983   7.286  43.816   3.255
50530W        W11984  38.383   0.308   2.334
50531W        W11985  14.283  23.109  11.910
50532W        W11986  20.625  25.598  12.834
50533W        W11987  16.296   0.852  14.876
50534W        W11988  19.692  16.742  12.522
50535W        W11989  29.518   7.321  13.817
50536W        W11990  41.955   7.385   3.240
50537W        W11991  22.186   2.722  13.933
50538W        W11992  19.656  22.094  12.919
50539W        W11993  41.328  22.605  14.010
50540W        W11994  22.125   6.814   3.155
50541W        W11995  35.981  40.516  10.629
50542W        W11996  38.381   6.916  12.911
50543W        W11997  17.579  10.725  13.890
50544W        W11998  41.357  36.023  14.861
50545W        W11999  34.083  42.437  11.928
50546W        W12000  31.967  11.774  12.491
50547W        W12001  26.051   2.956   5.272
50548W        W12002  31.489   8.322  13.890
50549W        W12003   6.690  38.435  12.445
50550W        W12004  34.913  27.457   4.173
50551W        W12005  20.063  42.458   2.789
50552W        W12006  36.927  21.024  14.017
50553W        W12007  13.802  14.277   2.381
50554W        W12008  12.670  24.621  10.510
50555W        W12009   6.418  30.008   0.887
50556W        W12010  28.013  44.870  13.403
50557W        W12011  33.537  26.701   1.877
50558W        W12012  41.019  42.028  12.464
50559W        W12013  10.780  37.526   4.838
50560W        W12014  33.426   2.447  14.342
50561W        W12015   2.817  37.576  11.074
50562W        W12016  25.591  41.458   3.294
50563W        W12017  18.148   6.901  11.462
50564W        W12018  13.126  34.932  13.538
50565W        W12019  28.528  23.661  12.054
50566W        W12020  43.353   0.836   3.175
50567W        W12021  41.307  11.753   1.856
50568W        W12022  36.583  37.005  11.966
50569W        W12023  44.438  19.190   3.633
50570W        W12024  42.475  17.256  12.539
50571W        W12025  24.030   5.702  13.839
50572W        W12026  19.105  25.112  12.838
50573W        W12027  42.776  37.349   5.239
50574W        W12028  39.907  42.482  13.962
50575W        W12029   9.161  34.986  13.457
50576W        W12030   7.884  34.369   1.841
50577W        W12031  21.659  32.627   3.330
50578W        W12032  31.544  38.428   1.217
50579W        W12033  27.476  23.574   1.277
50580W        W12034  42.527  24.691   0.853
50581W        W12035  25.587  14.182  13.805
50582W        W12036   9.789  13.160   4.139
50583W        W12037  40.868  11.684  13.798
50584W        W12038  36.921  11.210   3.760
50585W        W12039  13.288  36.092  10.922
50586W        W12040  36.500   9.193  10.474
50587W        W12041   5.354  40.313   1.899
50588W        W12042  37.366   6.334  14.009
50589W        W12043  14.611  33.600  12.912
50590W        W12044  13.802   7.714  14.454
50591W        W12045   2.904  18.700  12.561
50592W        W12046  19.638   3.339  12.428
50593W        W12047  26.596  34.905   0.386
50594W        W12048  44.897  16.259   4.278
50595W        W12049   4.887  38.551   1.210
50596W        W12050  13.829  23.622   1.875
50597W        W12051  35.400  38.349   3.771
50598W        W12052  37.830  15.325  12.093
50599W        W12053  29.083  28.181  10.889
50600W        W12054  10.290  38.013   1.310
50601W        W12055  13.203   6.226  13.045
50602W        W12056   4.383   4.255   4.300
50603W        W12057  30.487  24.225  11.371
50604W        W12058  41.519  17.114  12.577
50605W        W12059   8.887   4.295  13.834
50606W        W12060  27.996  43.439   1.396
50607W        W12061  20.084  26.547  10.424
50608W        W12062  26.666  21.025   1.249
50609W        W12063  35.506  38.899   1.219
50610W        W12064   3.265  21.574  14.482
50611W        W12065  20.254  13.731  11.415
50612W        W12066  28.023  41.860  12.823
50613W        W12067   6.249  37.418  10.013
50614W        W12068   4.932  21.065  10.599
50615W        W12069  29.517   7.281  12.016
50616W        W12070  23.553  13.130  14.759
50617W        W12071  40.987  40.847  12.877
50618W        W12072  32.635  19.261   0.808
50619W        W12073   6.919  27.619   1.352
50620W        W12074   5.305   4.220   3.747
50621W        W12075  35.534  24.193  12.992
50622W        W12076  38.909   8.189  11.969
50623W        W12077  40.864  39.419   4.175
50624W        W12078  44.777  43.429  10.604
50625W        W12079  34.568  22.561   0.867
50626W        W12080  21.032  17.675  12.830
50627W        W12081  38.049  36.437   0.840
50628W        W12082  23.511  15.194  13.926
50629W        W12083  42.013   5.338   2.814
50630W        W12084  36.087   6.765   1.742
50631W        W12085  16.657  36.866   0.294
50632W        W12086  37.992  26.984  11.923
50633W        W12087  22.237  22.541  12.870
50634W        W12088  17.216  38.328   2.699
50635W        W12089  30.628  18.073   2.192
50636W        W12090  38.861  32.070   3.193
50637W        W12091  44.922  31.580  12.546
50638W        W12092  18.163  14.773  14.889
50639W        W12093  11.353   5.917  12.534
50640W        W12094  37.533  39.328  13.368
50641W        W12095  14.653   0.949  10.139
50642W        W12096   1.832  41.420   2.341
50643W        W12097  17.556  17.760   2.196
50644W        W12098  36.084   8.821   0.268
50645W        W12099  40.886  14.805  13.946
50646W        W12100  10.351  32.928  13.357
50647W        W12101   1.478  17.601  11.463
50648W        W12102  19.064  30.598   5.275
50649W        W12103  41.334  12.654  12.965
50650W        W12104  14.678  10.143  14.507
50651W        W12105  41.350  31.995   5.195
50652W        W12106  16.581  25.962  12.960
50653W        W12107  20.055   8.403   2.740
50654W        W12108   5.207   1.908  14.374
50655W        W12109  26.134   4.384   0.805
50656W        W12110  12.762   3.439   4.147
50657W        W12111   8.764  24.102   2.255
50658W        W12112  36.011  44.428  11.544
50659W        W12113   1.748   7.365   1.401
50660W        W12114  29.987  27.630  14.909
50661W        W12115  40.366  36.026   4.744
50662W        W12116   6.397  24.038  11.407
50663W        W12117  30.081  19.554  13.402
50664W        W12118  36.437  31.582  13.961
50665W        W12119   9.737  28.609  14.448
50666W        W12120  26.012  31.002  13.434
50667W        W12121  15.268  38.906   0.793
50668W        W12122   5.198   2.820  11.895
50669W        W12123  38.525  29.976   1.295
50670W        W12124  14.676   7.820   0.744
50671W        W12125  10.279   2.454   2.183
50672W        W12126  42.943   9.177  14.455
50673W        W12127  20.147  27.959   0.355
50674W        W12128  22.111   9.876  10.147
50675W        W12129  38.966   4.837  12.418
50676W        W12130   1.779  31.616  14.793
50677W        W12131  42.913  42.325   2.740
50678W        W12132  25.528  44.358  10.144
50679W        W12133  29.568   6.767   3.370
50680W        W12134   5.341  15.328  12.950
50681W        W12135  36.053  14.110  10.443
50682W        W12136  40.543  29.992  14.443
50683W        W12137  16.213  23.657   0.831
50684W        W12138   4.870   7.413  14.874
50685W        W12139  32.012  22.232   1.752
50686W        W12140  23.153  23.208   1.380
50687W        W12141  11.164  43.988  11.084
50688W        W12142  15.124   8.795  12.888
50689W        W12143  28.579  17.118   0.869
50690W        W12144   1.400  29.095  11.391
50691W        W12145  39.934  12.134   3.637
50692W        W12146   5.228  18.556  13.863
50693W        W12147  36.542  13.297   0.732
50694W        W12148   4.353  12.123   0.948
50695W        W12149   6.383  32.125  12.999
50696W        W12150  30.620  44.834  14.400
50697W        W12151   1.370  29.428  10.431
50698W        W12152  15.258   8.800   2.254
50699W        W12153  12.788  24.548  10.954
50700W        W12154   0.431   1.871  14.887
50701W        W12155  41.299  41.865   1.722
50702W        W12156  13.820   0.418   1.325
50703W        W12157  16.690  20.694   2.698
50704W        W12158  38.909  41.963  12.864
50705W        W12159  14.245  21.104  12.089
50706W        W12160  13.638   7.734  13.546
50707W        W12161  28.158  36.384  12.979
50708W        W12162  12.667  21.690   1.764
50709W        W12163  13.620  10.218   4.150
50710W        W12164  38.875  24.038  14.461
50711W        W12165  38.571  25.086  11.114
50712W        W12166  30.986   8.744   2.743
50713W        W12167  17.221   7.873   1.431
50714W        W12168  13.608  31.111  13.804
50715W        W12169   0.251  38.043  13.952
50716W        W12170  32.555   2.955  12.948
50717W        W12171  18.123  28.168  11.982
50718W        W12172  11.683  15.728  14.959
50719W        W12173  17.237  29.963   1.913
50720W        W12174   8.809  14.213   3.159
50721W        W12175  35.560   8.346   4.348
50722W        W12176   3.718  37.562  11.455
50723W        W12177  27.591  33.587  12.992
50724W        W12178  37.467   7.727   4.634
50725W        W12179  42.947  11.128   0.843
50726W        W12180  21.702   1.864  12.972
50727W        W12181  21.702  27.568   3.232
50728W        W12182  26.657  34.523  14.786
50729W        W12183   4.409   6.694   3.158
50730W        W12184  42.330   5.847   1.363
50731W        W12185  37.574   1.373   3.765
50732W        W12186  33.037  14.615   3.203
50733W        W12187  10.791  19.627   3.343
50734W        W12188  21.032  36.418   3.378
50735W        W12189  25.651   3.773   9.521
50736W        W12190  29.061  34.962   3.274
50737W        W12191   3.845   4.901   3.656
50738W        W12192  30.130  30.981  13.818
50739W        W12193  31.066  27.626   4.769
50740W        W12194   3.248   7.886   3.184
50741W        W12195  14.677   3.267  10.134
50742W        W12196   8.321   6.857   3.361
50743W        W12197  22.541   6.831   3.225
50744W        W12198   6.755  34.926  10.892
50745W        W12199  28.042  31.041   1.904
50746W        W12200  40.954  36.489   3.240
50747W        W12201  28.504  19.111  12.015
50748W        W12202   7.414  21.057   1.371
50749W        W12203   3.245  41.350   0.299
50750W        W12204  37.972   1.865  14.489
50751W        W12205  10.779  20.125   1.715
50752W        W12206  37.353  26.046  12.877
50753W        W12207  26.469  37.906   3.730
50754W        W12208  24.677  28.153  11.924
50755W        W12209  16.732  15.193   3.698
50756W        W12210  35.539  44.346   4.670
50757W        W12211  27.670  30.960  13.947
50758W        W12212  30.024  13.659  13.402
50759W        W12213   3.949  28.538   4.776
50760W        W12214  23.622  44.263  14.840
50761W        W12215  41.803  38.838  14.400
50762W        W12216  27.001   8.785   3.861
50763W        W12217  39.366  40.381   3.782
50764W        W12218  13.144  32.467  10.569
50765W        W12219  28.154  14.715  14.381
50766W        W12220  41.311  38.342  12.359
50767W        W12221   1.971  35.418   4.618
50768W        W12222   8.264  10.830  11.014
50769W        W12223  38.418  20.176   0.455
50770W        W12224  37.436   4.705  14.343
50771W        W12225  26.474  14.107   4.349
50772W        W12226  15.251  41.006  14.318
50773W        W12227   2.925   4.433   3.630
50774W        W12228  27.480  25.114   2.864
50775W        W12229  21.687  19.607   3.234
50776W        W12230  26.988  36.930   1.369
50777W        W12231  10.358  40.891   5.234
50778W        W12232  27.671  32.096  11.014
50779W        W12233   8.234  38.537   2.677
50780W        W12234  39.816  23.110   3.246
50781W        W12235  32.412  28.094  12.380
50782W        W12236  20.526  22.569   1.849
50783W        W12237  41.800  42.299  11.882
50784W        W12238  17.765  18.216  12.029
50785W        W12239   1.342  43.323   2.369
50786W        W12240  32.531  35.458  12.987
50787W        W12241  41.422  21.150   4.172
50788W        W12242  21.066  44.418  10.497
50789W        W12243  16.186  19.646  12.946
50790W        W12244  12.149  17.117  12.411
50791W        W12245  21.227   5.274   3.332
50792W        W12246   7.673  29.643   1.884
50793W        W12247   5.728  20.102   0.270
50794W        W12248  35.906  10.210  14.322
50795W        W12249  41.516   0.922  12.978
50796W        W12250  24.040   7.844  12.536
50797W        W12251  26.503  41.930  14.811
50798W        W12252   1.949   7.359   1.804
50799W        W12253  22.108  38.438  11.581
50800W        W12254  44.266  37.370   4.780
50801W        W12255  33.412  40.006  10.517
50802W        W12256  12.618   5.427   0.771
50803W        W12257  27.679  44.447   4.712
50804W        W12258  35.974  30.945  14.478
50805W        W12259  14.294  14.168   2.872
50806W        W12260  26.506   1.875   4.287
50807W        W12261  30.539  33.881   4.326
50808W        W12262  19.715  31.909   0.876
50809W        W12263   5.308  42.826   0.378
50810W        W12264  11.663  41.489  14.276
50811W        W12265  18.721  19.216  14.489
50812W        W12266  35.038   3.306  11.602
50813W        W12267  20.054  38.401  10.420
50814W        W12268  14.117  39.831   3.689
50815W        W12269   6.403   2.833  11.062
50816W        W12270  37.562  27.609   3.286
50817W        W12271  10.724   1.305  12.464
50818W        W12272  17.274  34.495   3.789
50819W        W12273  16.795  43.423   2.280
50820W        W12274  39.887  24.023   4.763
50821W        W12275  12.841   1.810   0.423
50822W        W12276   1.404  31.510   1.414
50823W        W12277  23.495  38.053  14.973
50824W        W12278  43.811  19.624   3.364
50825W        W12279  43.820  18.096  12.482
50826W        W12280  37.530  29.093  12.077
50827W        W12281  22.572  25.110  12.896
50828W        W12282  13.683  13.183   0.833
50829W        W12283  29.029  12.814  13.827
50830W        W12284  30.529  14.696   4.640
50831W        W12285  29.931  29.090  11.565
50832W        W12286  39.497  27.029   1.853
50833W        W12287  36.449  35.908  12.867
50834W        W12288  15.275   8.742   1.818
50835W        W12289   4.922  36.970   3.275
50836W        W12290  20.541  22.162   1.807
50837W        W12291  34.392   5.259   3.870
50838W        W12292  30.547  40.518   0.470
50839W        W12293   6.684  35.067  14.963
50840W        W12294  24.710  32.490   0.853
50841W        W12295  25.638  25.597  13.894
50842W        W12296  40.944  18.571   2.299
50843W        W12297  31.074  41.804  13.004
50844W        W12298  13.709   9.713   3.780
50845W        W12299  33.952  38.504   0.290
50846W        W12300  41.324  36.553   2.281
50847W        W12301  16.636  22.248   3.350
50848W        W12302  33.400  11.646  13.356
50849W        W12303   5.390   0.262   2.325
50850W        W12304  18.607  17.754  12.002
50851W        W12305   1.371  15.636   1.322
50852W        W12306  16.168  20.082  11.483
50853W        W12307  11.819  13.235   3.845
50854W        W12308  20.683  38.856   0.373
50855W        W12309  40.038  44.792   3.224
50856W        W12310  41.523  42.982   1.355
50857W        W12311  25.053   2.896  14.955
50858W        W12312  12.254  43.947  13.981
50859W        W12313  31.420  15.317   0.746
50860W        W12314  41.888  12.318  10.549
50861W        W12315   4.340  34.004  14.832
50862W        W12316  34.041   8.377  13.888
50863W        W12317   3.767  27.118   1.831
50864W        W12318  38.989   4.420   2.862
50865W        W12319  27.950  22.579  10.910
50866W        W12320  22.007  20.531   3.350
50867W        W12321   8.394  11.341  12.353
50868W        W12322  29.103  39.844  12.514
50869W        W12323  35.528  29.935  14.907
50870W        W12324  18.554  25.469   1.422
50871W        W12325  42.928  38.397  10.563
50872W        W12326   2.785  43.877  12.845
50873W        W12327  16.247  21.123   0.408
50874W        W12328  34.886  23.058   2.717
50875W        W12329  23.237  31.464  13.894
50876W        W12330  42.924   2.773   3.212
50877W        W12331  44.850  15.794  12.992
50878W        W12332  23.604  22.558   4.156
50879W        W12333  33.060  27.961  13.006
50880W        W12334   2.889  40.377   0.360
50881W        W12335   3.438  10.856  12.933
50882W        W12336   9.251   7.871  11.010
50883W        W12337  26.639  33.051   2.223
50884W        W12338  43.943   0.324  11.549
50885W        W12339  34.934  28.466  12.890
50886W        W12340  18.558  41.972  12.960
50887W        W12341  14.175   6.679  12.893
50888W        W12342   7.239  21.569   4.170
50889W        W12343   6.364  23.046  11.114
50890W        W12344   8.780  24.192  13.874
50891W        W12345  25.595  21.578  13.979
50892W        W12346  22.153  32.558   4.645
50893W        W12347  36.874  13.775   2.804
50894W        W12348  43.302  36.576  11.374
50895W        W12349  14.328  11.180   2.397
50896W        W12350  29.073   9.817   4.630
50897W        W12351  32.557  22.083  13.414
50898W        W12352  39.392  27.010  13.400
50899W        W12353  25.491   9.881  12.504
50900W        W12354  11.801   0.783  12.965
50901W        W12355  16.151  14.671   3.780
50902W        W12356  36.568  32.980  12.884
50903W        W12357   5.305  18.607   3.245
50904W        W12358  15.587  32.444  13.353
50905W        W12359  41.350  41.989  14.443
50906W        W12360  28.179  44.336  14.430
50907W        W12361  27.043  44.370  11.533
50908W        W12362  24.479  27.580   1.349
50909W        W12363  21.162  34.460  10.515
50910W        W12364  11.217  38.496  12.407
50911W        W12365  14.309  20.199  11.530
50912W        W12366  31.550  10.147  14.297
50913W        W12367  21.168   0.963  10.942
50914W        W12368  10.635   8.861   3.659
50915W        W12369  34.565  39.372   1.344
50916W        W12370  17.708  38.865  14.978
50917W        W12371  37.344  19.175   2.751
50918W        W12372  24.075  11.689   3.853
50919W        W12373  13.106  28.545   2.283
50920W        W12374  18.682  26.119  12.092
50921W        W12375  44.832  31.049   1.712
50922W        W12376  37.079  30.147  12.881
50923W        W12377  37.919  37.891   1.790
50924W        W12378  33.576   4.750  13.988
50925W        W12379   7.276  20.574  13.019
50926W        W12380   1.269   8.695   4.775
50927W        W12381  27.457   4.283  11.532
50928W        W12382  24.156  18.618   2.670
50929W        W12383  23.212  27.666   1.300
50930W        W12384  22.533  43.996   2.824
50931W        W12385  33.606  33.005  14.888
50932W        W12386  21.604   5.207  11.394
50933W        W12387   3.954  11.162  13.020
50934W        W12388  23.646  29.571  13.882
50935W        W12389  43.505  26.631   3.706
50936W        W12390  30.056  11.212  12.089
50937W        W12391  24.488  20.087   0.341
50938W        W12392  43.849  22.014   0.847
50939W        W12393  43.896  13.271   4.790
50940W        W12394   2.803  17.123   2.258
50941W        W12395  22.054  27.970   1.278
50942W        W12396  11.184   7.686  11.386
50943W        W12397  37.887  19.640   2.212
50944W        W12398  43.428  36.391  10.562
50945W        W12399  31.469  24.622  11.522
50946W        W12400  34.462  18.714  10.614
50947W        W12401  37.888  36.062   0.850
50948W        W12402  12.274  36.941   0.825
50949W        W12403  16.119  12.818   2.382
50950W        W12404   2.892  36.978  10.441
50951W        W12405  30.455  26.993   0.887
50952W        W12406   8.349  22.205   1.388
50953W        W12407  38.873  12.656  14.424
50954W        W12408  19.559  41.333   2.265
50955W        W12409  20.151  39.392  12.901
50956W        W12410  16.713   4.717  10.127
50957W        W12411  21.608  41.796   2.727
50958W        W12412  20.234  39.422  10.451
50959W        W12413  35.913   3.923   4.811
50960W        W12414  40.482  27.018   0.932
50961W        W12415  16.605  16.230   3.827
50962W        W12416  32.452  28.552   1.283
50963W        W12417  21.735  28.060   1.304
50964W        W12418  18.604  37.415  14.843
50965W        W12419  26.696   2.410   0.261
50966W        W12420  23.541  35.448   3.312
50967W        W12421  18.693  42.487   2.243
50968W        W12422   5.409  31.506  11.949
50969W        W12423  25.502  39.366  13.370
50970W        W12424   4.429  32.999  10.503
50971W        W12425  34.114  44.418  12.046
50972W        W12426  32.047  29.585   5.249
50973W        W12427  28.552  24.980  12.487
50974W        W12428  19.157  36.902   2.418
50975W        W12429  11.846  20.567  10.513
50976W        W12430  37.056   2.383   4.182
50977W        W12431   0.861  19.703  10.105
50978W        W12432  32.463  12.184   3.828
50979W        W12433  15.733  17.090   3.156
50980W        W12434  11.713  28.498   2.412
50981W        W12435   6.789  19.247   4.182
50982W        W12436  18.165  16.648   2.699
50983W        W12437  13.204  38.560   4.309
50984W        W12438  42.408  39.032  14.399
50985W        W12439  13.790  18.127  14.859
50986W        W12440   8.205  44.264  10.609
50987W        W12441  13.626  38.508   4.774
50988W        W12442  34.450   5.894  14.776
50989W        W12443  34.873  24.201   4.758
50990W        W12444   8.378   8.664   4.762
50991W        W12445  36.500  42.979  12.913
50992W        W12446  36.353   1.481   0.729
50993W        W12447  39.818  11.731  14.776
50994W        W12448  34.584  35.537   0.401
50995W        W12449  17.687  36.569  11.577
50996W        W12450  40.911  40.846   1.377
50997W        W12451  12.734  31.996   4.342
50998W        W12452  28.945  29.087   2.361
50999W        W12453  20.575  22.603  12.549
51000W        W12454   3.897  24.130  11.066
51001W        W12455  18.141  30.523   3.160
51002W        W12456  18.272  12.299  12.961
51003W        W12457  29.148   0.407  13.883
51004W        W12458  43.955   2.449   4.744
51005W        W12459   5.339  24.019   4.792
51006W        W12460  39.550  28.053  10.963
51007W        W12461  42.973  34.522  13.521
51008W        W12462  14.170  27.624   1.932
51009W        W12463  30.096  41.321  12.372
51010W        W12464  14.725  34.120   3.739
51011W        W12465  25.696   2.911   0.922
51012W        W12466  36.387  15.258   4.781
51013W        W12467   4.773  13.121   4.704
51014W        W12468  41.527  18.725   2.315
51015W        W12469   0.493   6.220  11.012
51016W        W12470   1.366   2.453   4.678
51017W        W12471   6.891  25.542   4.298
51018W        W12472  17.088  27.100  10.598
51019W        W12473  36.912  25.643  14.764
51020W        W12474   5.285  29.591   2.789
51021W        W12475  35.946  33.457   4.162
51022W        W12476  29.508   0.843  13.355
51023W        W12477  22.998  26.036   1.386
51024W        W12478   1.814  13.226  11.448
51025W        W12479   8.848  42.782   1.838
51026W        W12480  11.761   8.863  14.365
51027W        W12481  28.459  33.500   0.738
51028W        W12482   0.770   8.287   4.766
51029W        W12483  30.524  22.216  12.415
51030W        W12484  19.233  43.773   1.825
51031W        W12485   3.269  17.295   5.264
51032W        W12486  26.073   2.395  11.041
51033W        W12487  23.213  12.793  13.518
51034W        W12488  40.499  10.665  11.518
51035W        W12489  21.663  22.248   1.833
51036W        W12490  43.332  39.454  14.026
51037W        W12491  14.742  23.014  13.814
51038W        W12492  32.014  29.433   2.332
51039W        W12493  44.401  42.776   1.913
51040W        W12494  25.052  39.369  13.057
51041W        W12495  30.491   6.427   3.723
51042W        W12496  42.365  12.675   2.191
51043W        W12497  28.503  27.645   3.682
51044W        W12498   8.877   7.244  11.009
51045W        W12499   9.872  14.710  11.612
51046W        W12500   6.401  42.961   0.822
51047W        W12501  34.555  37.419  12.514
51048W        W12502  12.300  14.241   2.211
51049W        W12503  34.385   3.310  13.972
51050W        W12504  39.393  14.294  10.899
51051W        W12505   6.739  31.492  11.918
51052W        W12506  36.844  20.603  14.352
51053W        W12507  27.969  39.401   4.782
51054W        W12508  41.834  11.689  14.385
51055W        W12509  10.848  41.295  11.858
51056W        W12510  35.529  30.985   1.446
51057W        W12511   2.854  33.571  11.517
51058W        W12512  20.264  28.501  11.122
51059W        W12513   2.416  42.839   9.936
51060W        W12514   2.326  11.730  13.892
51061W        W12515  36.072   0.860   4.221
51062W        W12516  43.369  14.176   3.386
51063W        W12517  32.927  19.572   3.301
51064W        W12518  35.069   5.255   4.663
51065W        W12519  35.947   9.658   0.392
51066W        W12520  42.324   7.795   3.868
51067W        W12521  27.981  44.374  10.132
51068W        W12522  38.019  12.181  14.389
51069W        W12523   7.251  10.846  13.959
51070W        W12524  41.411  31.101   0.732
51071W        W12525  32.106  27.489   0.482
51072W        W12526   6.372  30.632   2.889
51073W        W12527   9.234   8.292   3.646
51074W        W12528  27.025  11.725   2.749
51075W        W12529  24.507   4.314  13.811
51076W        W12530  11.231  40.043   0.339
51077W        W12531  12.663  44.492   3.772
51078W        W12532  12.349  20.717   1.915
51079W        W12533  23.037  14.135   3.166
51080W        W12534  24.213  37.856  14.851
51081W        W12535  21.039  29.919  14.885
51082W        W12536  32.914  16.173  13.503
51083W        W12537  28.036  19.677  11.383
51084W        W12538  13.252  38.895   3.245
51085W        W12539  37.401  31.966   0.754
51086W        W12540  39.847  36.038   2.711
51087W        W12541   6.248  12.182   2.833
51088W        W12542  22.647  38.927   0.960
51089W        W12543  20.611  41.827   1.367
51090W        W12544  33.017   7.395   0.754
51091W        W12545  34.886   8.699   5.231
51092W        W12546  26.051  27.473  14.358
51093W        W12547  41.010  42.820  12.972
51094W        W12548  33.975  13.735   1.748
51095W        W12549  34.996  38.844  12.535
51096W        W12550  15.755  23.675  14.909
51097W        W12551  36.553  34.962   4.791
51098W        W12552  22.737  42.381   1.371
51099W        W12553  10.718  19.572   1.432
51100W        W12554   0.981  12.736  11.539
51101W        W12555   4.403  38.962  12.500
51102W        W12556  19.542   2.801  11.578
51103W        W12557  27.171  14.268   4.740
51104W        W12558  41.307   4.217   3.865
51105W        W12559  18.757  43.992  11.931
51106W        W12560  25.632   0.857  12.012
51107W        W12561  14.149  21.141  13.943
51108W        W12562  23.576  26.971  14.850
51109W        W12563  10.640  30.589   3.263
51110W        W12564  19.719  39.000   5.169
51111W        W12565   5.860  28.096  14.784
51112W        W12566  25.579   7.300   1.277
51113W        W12567  28.634  13.824   1.399
51114W        W12568  34.437  41.834   0.328
51115W        W12569  12.210  32.543  10.638
51116W        W12570   4.760  42.488  12.339
51117W        W12571  44.999  40.368   4.672
51118W        W12572   7.178  22.006   0.822
51119W        W12573   5.881  41.340  13.467
51120W        W12574  24.218  43.432  13.522
51121W        W12575  44.416  25.024   2.697
51122W        W12576  24.051  16.135   2.394
51123W        W12577  33.475  21.687   9.987
51124W        W12578   1.930  18.178   4.814
51125W        W12579  43.325   6.217  13.498
51126W        W12580   9.820  13.663  13.996
51127W        W12581  41.880  23.640  14.308
51128W        W12582  21.631   2.371  12.539
51129W        W12583  20.129  39.922  13.977
51130W        W12584  38.393  18.058  10.588
51131W        W12585  39.914  41.862   0.278
51132W        W12586  37.393  11.336  13.340
51133W        W12587  40.374  16.215   4.798
51134W        W12588   7.248  12.804   0.397
51135W        W12589  36.957  35.909  13.436
51136W        W12590   6.289   1.248   2.745
51137W        W12591  14.675  13.292  11.902
51138W        W12592  31.127   5.330   4.670
51139W        W12593   1.838   8.760   3.214
51140W        W12594  37.502   7.379  10.607
51141W        W12595   5.902  16.647   3.717
51142W        W12596  24.564   3.357   3.801
51143W        W12597   9.768  44.756  11.908
51144W        W12598  34.871   1.284   2.321
51145W        W12599   6.828   0.400   2.758
51146W        W12600  17.239  32.120  13.483
51147W        W12601  20.581   6.847  13.399
51148W        W12602  39.831  13.284   0.744
51149W        W12603  25.494  13.721  11.475
51150W        W12604  38.458  38.528   1.335
51151W        W12605   3.286  29.607  14.795
51152W        W12606  37.993  25.683   2.199
51153W        W12607   0.381   6.298   4.212
51154W        W12608  30.972  26.207  10.896
51155W        W12609  42.512   4.748   0.741
51156W        W12610  41.971   3.789  12.846
51157W        W12611  19.722   0.853  13.503
51158W        W12612  18.149  24.550   2.318
51159W        W12613  28.655   5.837  14.387
51160W        W12614  44.440   7.284  14.012
51161W        W12615  21.644  43.797  13.038
51162W        W12616   5.922   6.425  13.912
51163W        W12617  10.871  17.702   1.300
51164W        W12618  28.556  35.950   4.799
51165W        W12619   4.917  32.422   4.644
51166W        W12620  38.523  27.180  12.985
51167W        W12621   0.305  28.578   2.189
51168W        W12622   6.704  33.103   3.722
51169W        W12623   8.204  15.666   1.918
51170W        W12624   7.866  18.784  11.598
51171W        W12625   5.345  14.105   4.677
51172W        W12626  24.080  12.754   0.411
51173W        W12627  34.953  32.581   2.863
51174W        W12628  13.646  20.542  13.027
51175W        W12629  29.088  20.743  10.550
51176W        W12630  18.789  41.386   2.405
51177W        W12631  18.247   8.360  11.859
51178W        W12632  44.001  12.298  14.474
51179W        W12633  27.027  29.980  10.540
51180W        W12634  27.610  27.602  12.961
51181W        W12635  32.961  36.411   2.894
51182W        W12636   2.300  10.717  12.858
51183W        W12637  13.611  34.985  14.465
51184W        W12638  20.125  13.620  14.778
51185W        W12639  38.450  41.799  14.908
51186W        W12640  26.113  38.465  14.012
51187W        W12641   7.800  40.413  10.139
51188W        W12642  44.865  36.022  12.410
51189W        W12643   6.775  30.921  14.361
51190W        W12644  32.623  37.555   4.799
51191W        W12645  42.337  22.163  10.918
51192W        W12646  37.029   1.847  11.052
51193W        W12647  18.790   2.721   2.252
51194W        W12648  32.392  37.469  13.856
51195W        W12649   2.720   0.778   3.815
51196W        W12650  26.096  25.485   2.241
51197W        W12651   1.950  32.555  14.421
51198W        W12652   6.293  26.590  11.079
51199W        W12653   0.286  21.679  14.802
51200W        W12654  22.732  12.669  13.354
51201W        W12655  15.241  37.485  13.537
51202W        W12656   8.386  18.782   3.793
51203W        W12657  25.701   4.759  13.818
51204W        W12658  39.954  32.545  11.094
51205W        W12659   2.458  32.111   3.696
51206W        W12660   1.416  13.309   1.331
51207W        W12661  36.347  41.880   4.664
51208W        W12662  44.866   9.164  13.020
51209W        W12663   4.706  17.703  13.022
51210W        W12664  21.122   0.772   3.731
51211W        W12665  32.604  43.506   4.839
51212W        W12666  38.534  24.619   0.794
51213W        W12667  41.868  16.231  10.981
51214W        W12668  24.664  28.957   0.946
51215W        W12669  36.992  17.558  13.488
51216W        W12670   4.353  25.120   3.766
51217W        W12671  41.042  18.684  14.396
51218W        W12672   7.284  36.430  11.987
51219W        W12673  30.464   9.645  10.899
51220W        W12674   1.427  37.510  11.524
51221W        W12675  13.167   9.803  12.021
51222W        W12676  42.863  29.945   0.253
51223W        W12677  26.193  15.774  14.910
51224W        W12678  28.452   3.764   0.879
51225W        W12679   7.224  21.157   3.715
51226W        W12680  38.388  12.235   2.787
51227W        W12681  23.517  16.216  14.427
51228W        W12682  42.962  43.014  12.884
51229W        W12683   0.877  38.966  11.437
51230W        W12684  17.063  36.019   4.310
51231W        W12685   6.401  15.594   1.734
51232W        W12686  44.425  21.143  14.359
51233W        W12687  22.698  16.161  13.545
51234W        W12688  26.584  42.855   4.156
51235W        W12689   5.810  25.994  11.086
51236W        W12690  21.513   1.881   4.745
51237W        W12691  27.107   1.288   5.125
51238W        W12692  37.008  27.170   2.667
51239W        W12693  24.600  10.832  14.386
51240W        W12694   8.344  43.957   1.734
51241W        W12695  31.483   7.293   4.256
51242W        W12696  26.077  18.240   0.412
51243W        W12697  21.547   4.825   1.290
51244W        W12698  37.853  28.636   0.291
51245W        W12699  39.054  13.332   4.269
51246W        W12700  34.939  10.360  11.013
51247W        W12701  16.229  23.567   3.292
51248W        W12702  24.005  19.208   4.646
51249W        W12703   3.374  40.401  14.342
51250W        W12704  18.740  14.758  14.024
51251W        W12705  36.501  25.156   2.802
51252W        W12706  17.571  31.042   0.328
51253W        W12707  17.624  35.934   0.324
51254W        W12708  10.282   6.380   5.315
51255W        W12709   5.693   3.904   1.762
51256W        W12710  18.261  25.188   2.770
51257W        W12711  11.622  12.804  13.958
51258W        W12712  13.326  32.497   1.289
51259W        W12713  20.612   1.404  12.930
51260W        W12714  35.485  12.742   2.353
51261W        W12715  23.155   4.779  14.829
51262W        W12716  22.582  30.524  10.437
51263W        W12717  14.112  19.154  12.553
51264W        W12718  42.500   9.859  14.285
51265W        W12719  15.260  23.674   4.794
51266W        W12720   4.714   2.309   0.273
51267W        W12721  11.312   4.718  12.000
51268W        W12722   9.232   6.784   0.411
51269W        W12723   6.238  34.477   1.444
51270W        W12724  11.172  40.342  14.381
51271W        W12725  25.660  29.097  14.489
51272W        W12726  19.186  15.756  12.895
51273W        W12727  11.352  43.389   3.204
51274W        W12728  32.491  22.224   1.819
51275W        W12729   3.724  29.062   1.322
51276W        W12730  20.160   0.258  12.004
51277W        W12731  25.129  33.484   9.989
51278W        W12732   2.264  22.100   4.203
51279W        W12733  27.960  37.871   0.244
51280W        W12734  25.073  36.935   4.698
51281W        W12735  10.686   5.789  13.318
51282W        W12736  38.922  44.863   2.352
51283W        W12737  35.104  41.991   4.724
51284W        W12738  10.822  20.639  14.771
51285W        W12739  14.707  18.786  13.318
51286W        W12740  17.077  43.330  11.022
51287W        W12741  34.483  10.344  14.404
51288W        W12742  24.487  17.661  10.955
51289W        W12743  10.164  11.236   2.218
51290W        W12744  22.086  11.280  13.338
51291W        W12745  27.026  30.962   3.741
51292W        W12746   2.832  22.745   3.775
51293W        W12747  33.471  40.539   4.115
51294W        W12748  25.671  22.610   2.668
51295W        W12749  19.667  42.395   4.617
51296W        W12750  14.600  42.977  12.391
51297W        W12751  12.784   4.403   3.758
51298W        W12752   2.312  11.145  13.346
51299W        W12753  44.862  24.214   1.447
51300W        W12754   7.174  13.826  11.986
51301W        W12755  22.709  13.623   4.673
51302W        W12756  11.269  44.879  14.911
51303W        W12757   6.742  34.381   2.818
51304W        W12758   7.202  22.237   4.200
51305W        W12759  35.500  16.196  11.028
51306W        W12760  25.989  16.145   3.244
51307W        W12761  10.827  40.829  11.121
51308W        W12762  27.611  42.358   0.328
51309W        W12763  11.668  19.174   3.812
51310W        W12764  19.141  41.980   2.852
51311W        W12765  34.530   3.344  12.538
51312W        W12766  12.177  10.184  12.949
51313W        W12767  28.982  30.918  12.544
51314W        W12768  41.315   9.728  10.578
51315W        W12769  31.497   0.299   1.224
51316W        W12770   3.837  30.921  13.898
51317W        W12771  27.005  29.539   1.247
51318W        W12772   7.884  39.857  13.942
51319W        W12773   5.370   4.766  10.892
51320W        W12774  13.644  12.812  12.895
51321W        W12775  18.556  18.588   1.832
51322W        W12776  42.384   4.788   0.269
51323W        W12777  25.627  42.512  10.482
51324W        W12778   3.357  35.587  13.315
51325W        W12779  28.445  28.979  12.087
51326W        W12780   6.204  23.518   1.742
51327W        W12781  11.236  13.304   2.206
51328W        W12782  13.652  23.201  14.937
51329W        W12783  42.307   6.360  11.017
51330W        W12784   0.469  10.697  14.357
51331W        W12785  24.009  25.574  12.416
51332W        W12786  38.466  23.192   2.392
51333W        W12787  16.748  41.455   2.898
51334W        W12788  40.944  29.500   1.858
51335W        W12789  34.472   3.792   2.835
51336W        W12790  20.159  11.732   4.147
51337W        W12791  31.145  42.792   2.239
51338W        W12792  29.565  34.574  12.834
51339W        W12793   9.349  40.504   0.804
51340W        W12794  21.261  29.428  13.032
51341W        W12795  35.896  24.570   0.270
51342W        W12796   2.810  22.666   0.865
51343W        W12797   6.863  30.029  10.992
51344W        W12798  44.382   0.874   3.798
51345W        W12799  21.673  42.868   0.383
51346W        W12800  43.007  29.991  14.491
51347W        W12801  39.022  37.562  11.009
51348W        W12802  39.978  35.852   3.704
51349W        W12803  15.638  23.644  13.009
51350W        W12804  29.113  43.271   0.850
51351W        W12805   2.340   5.870  14.025
51352W        W12806  15.723  26.995  11.514
51353W        W12807  39.824  10.262   2.846
51354W        W12808  40.378  17.112   3.690
51355W        W12809  22.571  21.097  13.853
51356W        W12810   0.297   9.196   3.155
51357W        W12811  23.209  25.574  10.512
51358W        W12812   4.431  27.475   1.885
51359W        W12813  33.911  37.835  14.296
51360W        W12814  17.163   1.737   0.888
51361W        W12815  40.857  41.357  13.516
51362W        W12816  18.591  12.236   2.729
51363W        W12817   5.286  31.589  13.488
51364W        W12818  23.011  35.482  12.990
51365W        W12819  35.869   6.336   4.804
51366W        W12820  29.435  31.080   2.862
51367W        W12821  32.033  36.439  13.796
51368W        W12822   8.803   5.215   3.377
51369W        W12823   7.896  12.693   4.686
51370W        W12824  28.435  18.058  14.465
51371W        W12825  32.119  38.884  10.143
51372W        W12826  18.679  22.669   4.122
51373W        W12827  16.180  28.175   3.835
51374W        W12828  28.986   9.178  12.518
51375W        W12829  24.568  40.522   0.901
51376W        W12830  10.209   5.806  13.451
51377W        W12831  41.475  42.333   9.649
51378W        W12832  28.526  35.963  13.989
51379W        W12833  44.452  16.214  11.064
51380W        W12834  27.049  31.967   1.844
51381W        W12835  25.006  36.420  14.952
51382W        W12836  19.096   8.871  14.000
51383W        W12837   3.304  34.533  14.370
51384W        W12838  42.862   0.839  14.857
51385W        W12839   5.739  16.755  13.342
51386W        W12840  10.208  40.413  12.916
51387W        W12841  30.490  41.901  10.479
51388W        W12842  11.669  10.319  13.975
51389W        W12843   7.791  43.017  14.341
51390W        W12844  21.645  31.073  13.484
51391W        W12845  26.090   3.760  12.928
51392W        W12846  40.030  24.973   3.673
51393W        W12847  26.653   7.384   2.797
51394W        W12848  18.611  20.117  11.976
51395W        W12849  19.116   1.951   0.314
51396W        W12850   4.915   2.274   2.705
51397W        W12851  33.555  26.608   4.736
51398W        W12852   9.199  17.581   4.327
51399W        W12853  34.469  13.635   3.786
51400W        W12854  36.492  38.040   4.733
51401W        W12855  23.236  30.563  10.613
51402W        W12856   8.699   7.178   2.348
51403W        W12857  31.965  18.645   1.217
51404W        W12858  37.524  25.648  12.534
51405W        W12859   2.324  27.055  14.516
51406W        W12860  12.645  37.866  12.015
51407W        W12861   5.725   0.945   2.288
51408W        W12862   4.412  17.619  12.089
51409W        W12863  40.041  29.032  11.569
51410W        W12864  25.967  34.501   4.127
51411W        W12865  21.610  23.513   4.694
51412W        W12866  15.712  36.359  12.960
51413W        W12867  15.317   9.284   5.270
51414W        W12868   4.828  44.418   0.346
51415W        W12869  31.511  40.444   1.910
51416W        W12870  19.104  40.512  12.043
51417W        W12871  36.560  32.569   1.435
51418W        W12872  18.296  22.161  14.368
51419W        W12873   1.736  33.880   1.914
51420W        W12874  14.643   6.873  12.866
51421W        W12875  35.087   9.754   1.391
51422W        W12876  17.247  23.549   4.171
51423W        W12877  18.076  34.991  11.889
51424W        W12878   6.701  14.203  11.399
51425W        W12879  25.618  18.633   4.668
51426W        W12880  34.463  44.001  10.941
51427W        W12881   1.314  11.638  11.940
51428W        W12882  33.931  32.495   1.437
51429W        W12883  16.569  10.352  13.370
51430W        W12884   0.782  29.953   1.815
51431W        W12885  26.169  21.163  12.411
51432W        W12886  30.064  43.475   2.385
51433W        W12887  19.629  25.120  11.050
51434W        W12888   8.801   9.380   0.411
51435W        W12889  42.424  15.329   2.339
51436W        W12890  13.775  20.269  13.507
51437W        W12891  12.712  41.531  14.986
51438W        W12892  22.613   8.274  12.567
51439W        W12893  40.375  44.299  10.434
51440W        W12894  23.185   1.245  11.118
51441W        W12895  43.928  13.666  14.323
51442W        W12896   2.435  18.701  10.989
51443W        W12897  37.498  13.111  14.957
51444W        W12898  32.045  27.998  12.839
51445W        W12899  39.316  13.327  13.396
51446W        W12900  12.683  17.788  10.154
51447W        W12901  21.667  41.947   2.401
51448W        W12902  27.681   2.907  14.423
51449W        W12903   3.402   2.786  13.381
51450W        W12904  29.489  28.467  12.837
51451W        W12905  10.249  18.731  12.436
51452W        W12906  26.124   4.711   1.878
51453W        W12907  37.558  34.050   0.942
51454W        W12908  32.110  14.689  10.586
51455W        W12909  30.008   4.388   0.780
51456W        W12910  14.183  15.297  11.463
51457W        W12911  19.682   5.831  10.104
51458W        W12912  31.411  15.143  11.015
51459W        W12913  14.829  19.230  10.578
51460W        W12914  21.233   2.300   4.323
51461W        W12915   3.456  23.019  10.632
51462W        W12916  34.046   5.846   1.885
51463W        W12917  28.465  17.659   3.244
51464W        W12918  25.142  37.469   3.151
51465W        W12919  11.287  26.655  14.960
51466W        W12920  19.596  23.551  14.821
51467W        W12921   9.338  35.989   0.791
51468W        W12922  13.616  36.380  12.382
51469W        W12923  38.864   8.287   1.739
51470W        W12924   8.735  19.588  14.832
51471W        W12925  44.473  25.492  14.000
51472W        W12926  30.982  38.014   1.931
51473W        W12927  33.101  12.293  14.911
51474W        W12928  21.756  32.001   0.340
51475W        W12929  31.583  20.558  11.087
51476W        W12930  28.565  36.032   5.205
51477W        W12931   5.322  42.910  12.831
51478W        W12932  16.127  29.568  13.927
51479W        W12933  21.022  28.503   0.963
51480W        W12934  14.746  43.887  12.012
51481W        W12935   5.390  29.970  12.411
51482W        W12936   0.961  18.269  11.068
51483W        W12937   1.818  14.664   1.872
51484W        W12938  13.682  13.607   3.254
51485W        W12939  36.908  13.196   4.200
51486W        W12940  38.533   3.439   4.304
51487W        W12941  13.710  21.607  14.970
51488W        W12942  18.188  22.997  12.931
51489W        W12943  13.105   3.412  11.973
51490W        W12944  11.694  20.236   1.364
51491W        W12945  16.729  18.271   2.873
51492W        W12946  25.636  33.065   5.652
51493W        W12947  34.499  39.508   3.755
51494W        W12948  11.824  25.052  10.450
51495W        W12949  38.407  32.941   4.626
51496W        W12950   7.675   5.782   3.724
51497W        W12951  35.604  40.336  13.798
51498W        W12952  37.893  28.062   3.325
51499W        W12953  20.589  44.866  13.903
51500W        W12954   6.770  14.796  10.473
51501W        W12955  40.530  19.181  12.538
51502W        W12956  20.240  21.683   0.311
51503W        W12957  29.055  20.165   0.351
51504W        W12958  40.337  10.296   4.227
51505W        W12959  11.834  28.095   1.257
51506W        W12960  20.751  35.918  14.767
51507W        W12961  20.090  36.417  14.811
51508W        W12962  38.547  41.970   4.150
51509W        W12963  22.249  37.027   0.761
51510W        W12964  18.551   2.350   2.382
51511W        W12965  23.012  41.477   3.349
51512W        W12966  30.504  22.715   0.294
51513W        W12967   2.338  41.965   1.210
51514W        W12968  43.321   7.240   1.417
51515W        W12969   3.407  43.916  14.872
51516W        W12970  27.559  35.449  11.878
51517W        W12971  26.527   4.351  12.556
51518W        W12972   2.843  30.569   4.794
51519W        W12973  26.126  34.995  13.812
51520W        W12974   9.328  14.187   3.696
51521W        W12975  43.415  40.305   3.345
51522W        W12976  11.248  35.536   4.188
51523W        W12977  42.840  15.213  14.007
51524W        W12978  21.628  43.417   4.315
51525W        W12979  44.878  37.919  12.075
51526W        W12980   6.201  35.447  11.472
51527W        W12981   5.854  21.076  12.868
51528W        W12982  22.674   0.796  11.925
51529W        W12983  16.739  11.275   0.866
51530W        W12984  30.910  21.088   3.716
51531W        W12985  15.301   9.837   5.142
51532W        W12986   1.360  25.690  12.995
51533W        W12987   1.891  31.125  14.023
51534W        W12988  30.073   4.859  13.907
51535W        W12989   2.310  44.868   2.872
51536W        W12990  32.594  12.268   9.553
51537W        W12991   8.797  27.030  11.401
51538W        W12992  31.040  29.497  12.568
51539W        W12993  15.206  30.919   3.345
51540W        W12994  14.112   9.183   1.873
51541W        W12995  26.017  10.655  11.418
51542W        W12996  36.041  41.820   1.267
51543W        W12997  30.517   1.894   3.803
51544W        W12998   7.866  15.133   1.916
51545W        W12999   4.248  11.829   1.931
51546W        W13000  25.554  32.601  14.815
51547W        W13001  23.602  26.090   0.765
51548W        W13002   6.755  10.201  14.010
51549W        W13003  11.861  21.126   4.630
51550W        W13004  18.229  31.638   0.408
51551W        W13005  28.617  27.538  10.633
51552W        W13006  25.025  24.562   0.895
51553W        W13007  11.724  31.423  12.503
51554W        W13008   8.866  37.960   0.390
51555W        W13009  10.854  21.143   1.747
51556W        W13010  11.293  31.052   1.418
51557W        W13011  25.585  35.372   0.757
51558W        W13012  33.096  42.515   0.840
51559W        W13013  34.975  17.111  11.582
51560W        W13014  19.076  33.048  14.479
51561W        W13015   4.367  38.965   1.840
51562W        W13016  32.626  14.248   2.733
51563W        W13017   2.794  40.324  10.597
51564W        W13018  42.445  18.714  14.471
51565W        W13019  41.797  23.645   1.793
51566W        W13020  43.930  38.873  13.046
51567W        W13021   1.442  36.382  14.979
51568W        W13022  41.322  34.909   2.678
51569W        W13023  28.575  22.038  14.447
51570W        W13024  37.837  14.194   4.707
51571W        W13025   8.168  25.964   0.340
51572W        W13026  15.268  15.789   4.311
51573W        W13027  24.589  13.114   2.197
51574W        W13028  38.407  35.981   1.279
51575W        W13029  25.640   1.304   1.734
51576W        W13030  39.004  36.539  12.441
51577W        W13031  43.851  13.663   4.838
51578W        W13032  11.360  43.003  11.864
51579W        W13033   3.744  37.850   2.335
51580W        W13034  29.561  18.786  11.575
51581W        W13035  24.127  23.084  14.886
51582W        W13036  23.631  39.933  13.326
51583W        W13037  10.259  31.040   9.921
51584W        W13038  11.333  17.142   3.376
51585W        W13039   8.758  36.470   4.318
51586W        W13040  22.555  14.142  10.900
51587W        W13041   3.233  18.629  11.959
51588W        W13042  23.166   3.357   0.402
51589W        W13043  23.989   2.841   3.253
51590W        W13044  21.024  39.460   3.772
51591W        W13045  30.068   7.666   3.290
51592W        W13046  44.844  30.039  14.339
51593W        W13047  30.425  25.002   1.296
51594W        W13048  24.090  30.427   4.785
51595W        W13049  10.815   1.427  12.870
51596W        W13050  28.666  10.845   2.368
51597W        W13051  30.432  12.631   3.372
51598W        W13052  28.960  39.039   4.681
51599W        W13053   9.322   3.406  12.363
51600W        W13054  25.714  22.108   1.824
51601W        W13055  23.629   0.915  10.987
51602W        W13056   9.329  32.621   9.606
51603W        W13057  30.024  13.134  13.870
51604W        W13058  12.730  32.555  13.847
51605W        W13059  35.977   5.799   3.836
51606W        W13060  17.569   4.299  11.094
51607W        W13061  20.221  31.594  13.843
51608W        W13062  16.084  29.932  12.398
51609W        W13063  33.899  18.702   1.422
51610W        W13064  17.169  12.646   9.677
51611W        W13065  37.382  13.748   0.377
51612W        W13066  24.190  10.259  13.346
51613W        W13067  19.046  27.507  10.632
51614W        W13068  43.463  31.464   1.859
51615W        W13069   1.792  43.379  13.042
51616W        W13070  26.048   1.269   0.319
51617W        W13071   3.922  29.169  11.599
51618W        W13072  27.940  34.934   0.386
51619W        W13073  16.085  24.674  14.453
51620W        W13074  22.687  20.629   4.217
51621W        W13075  11.839   9.169   3.345
51622W        W13076  37.905   0.305   1.239
51623W        W13077  22.153   1.263   1.858
51624W        W13078  18.646   1.770  11.095
51625W        W13079   0.469  23.573   0.832
51626W        W13080  17.801  11.294   3.760
51627W        W13081  29.010  20.539  11.063
51628W        W13082  39.872  14.236   2.842
51629W        W13083   1.780  32.107   3.699
51630W        W13084  33.009   5.335   1.412
51631W        W13085  26.491   9.707  12.042
51632W        W13086  22.107  31.916  11.549
51633W        W13087  35.510   5.321  14.916
51634W        W13088   7.765  11.626  14.459
51635W        W13089  19.147  32.501   3.200
51636W        W13090  15.252  24.202  11.000
51637W        W13091  15.802   2.890   2.327
51638W        W13092  11.739  18.641   2.180
51639W        W13093  27.094  26.040  13.365
51640W        W13094  43.303   5.899  14.852
51641W        W13095   5.813  24.141   1.821
51642W        W13096  44.915   2.843   3.737
51643W        W13097  19.273  19.581  11.001
51644W        W13098  15.587  27.956   4.258
51645W        W13099  20.755  24.190   2.276
51646W        W13100  23.638   8.327   0.802
51647W        W13101  44.294  21.090   1.696
51648W        W13102  31.052  12.672   0.815
51649W        W13103  14.097  28.003   3.870
51650W        W13104  31.088  17.562   0.859
51651W        W13105   2.950  16.644  10.922
51652W        W13106  42.783  33.974  12.435
51653W        W13107  24.218  37.397  13.810
51654W        W13108   5.793  35.015   3.154
51655W        W13109  15.688  17.685   1.785
51656W        W13110   2.912   0.932   2.847
51657W        W13111  13.820  18.712  12.398
51658W        W13112  20.076  22.642  10.983
51659W        W13113  43.471  32.035   4.795
51660W        W13114  34.420  29.129  12.031
51661W        W13115  31.971  14.249  12.973
51662W        W13116  20.113  17.735  12.341
51663W        W13117  33.969  40.452  10.917
51664W        W13118  16.620  19.083   3.795
51665W        W13119  18.130  28.471  11.058
51666W        W13120  44.778   2.388  12.452
51667W        W13121  28.052  18.717   0.243
51668W        W13122  30.608  20.657   0.294
51669W        W13123   3.828  31.943   3.640
51670W        W13124   1.294  40.413   4.775
51671W        W13125   4.248  21.252  12.049
51672W        W13126  29.060  17.073   2.410
51673W        W13127  32.478  25.535  11.445
51674W        W13128  36.480  13.678  11.044
51675W        W13129  16.129   6.687   1.914
51676W        W13130  26.653  22.656   3.300
51677W        W13131  43.382   5.361   0.735
51678W        W13132  20.028  36.502  10.639
51679W        W13133  10.206  34.957  11.016
51680W        W13134  13.723  38.896   0.242
51681W        W13135   7.722  15.599  11.587
51682W        W13136  38.987  26.665  14.505
51683W        W13137  18.666  28.463  14.484
51684W        W13138  25.614   3.784   1.325
51685W        W13139  16.240   1.890  10.430
51686W        W13140   2.804   3.217   4.676
51687W        W13141  31.046  14.097   4.220
51688W        W13142  11.247   9.163  10.494
51689W        W13143  15.764  10.188  11.565
51690W        W13144   2.227  35.368   0.894
51691W        W13145   1.318  14.104   3.833
51692W        W13146  11.745  13.178   0.744
51693W        W13147  26.085  28.098   4.746
51694W        W13148  30.915   9.848  12.827
51695W        W13149  38.888   6.338   3.240
51696W        W13150  13.300  38.422   1.711
51697W        W13151  13.193  41.445  10.546
51698W        W13152  41.518  40.889   0.415
51699W        W13153  44.445  30.056  11.118
51700W        W13154  13.620  38.397   4.194
51701W        W13155  30.150  38.825  11.937
51702W        W13156  43.328  16.757  10.427
51703W        W13157  41.299   9.160   2.676
51704W        W13158  17.302   2.465  12.443
51705W        W13159  44.426  27.493   4.343
51706W        W13160   5.436  15.242   1.216
51707W        W13161  41.811  23.099   0.418
51708W        W13162   1.975  17.696   4.754
51709W        W13163   1.888  14.203   0.479
51710W        W13164  39.331  37.383   1.408
51711W        W13165  33.102  18.197   3.159
51712W        W13166  31.069  34.969   2.410
51713W        W13167   9.852   0.381  14.315
51714W        W13168  29.563  26.100   4.291
51715W        W13169  18.294  35.960  11.072
51716W        W13170  22.684  24.520   1.839
51717W        W13171  15.148  21.099   4.818
51718W        W13172   8.336  26.658   0.456
51719W        W13173  39.396  34.038   1.792
51720W        W13174  41.878  34.999   4.153
51721W        W13175   8.381   1.816   2.236
51722W        W13176  39.976  36.441  12.484
51723W        W13177  19.144  31.057  14.023
51724W        W13178  28.141  25.064  14.801
51725W        W13179  41.814  14.099  11.407
51726W        W13180  27.663  13.147   4.785
51727W        W13181  24.533  14.175  12.394
51728W        W13182  35.052  29.970   0.356
51729W        W13183   3.894  30.502  12.565
51730W        W13184   3.737  22.195   3.176
51731W        W13185  13.611   5.930  13.453
51732W        W13186  14.198  38.952  13.799
51733W        W13187  26.003  38.007   2.883
51734W        W13188   4.801  22.235  14.301
51735W        W13189  33.458  17.280   0.817
51736W        W13190  34.383  12.227  14.917
51737W        W13191  36.455  12.715   5.218
51738W        W13192  32.606  43.915  10.507
51739W        W13193  27.659   3.939  14.391
51740W        W13194  43.896  13.201  11.904
51741W        W13195   7.306  10.328  10.586
51742W        W13196   8.217   4.413   3.847
51743W        W13197  41.530  13.665  12.927
51744W        W13198  18.057  25.206  12.016
51745W        W13199  39.366  43.812  13.043
51746W        W13200  27.523  41.533  12.866
51747W        W13201  38.407   1.364  12.470
51748W        W13202   5.233  13.614  13.903
51749W        W13203   3.240  32.515  10.940
51750W        W13204   2.940  21.677  14.409
51751W        W13205  23.554  34.478   3.692
51752W        W13206  44.483  18.637  12.901
51753W        W13207   2.455  19.092  14.944
51754W        W13208   2.459   0.984  12.853
51755W        W13209  38.856  18.064   1.824
51756W        W13210  30.509  41.934  13.503
51757W        W13211  28.977  25.054  12.843
51758W        W13212  37.459  29.584   1.420
51759W        W13213   8.712  13.182  10.635
51760W        W13214  32.018  44.859  12.015
51761W        W13215   6.256  31.449  10.484
51762W        W13216  40.036   6.691   4.673
51763W        W13217  36.876  11.294   0.320
51764W        W13218   9.242  15.236  12.959
51765W        W13219  41.982  35.530   0.344
51766W        W13220  29.053  37.038  14.812
51767W        W13221  40.857  23.574  11.863
51768W        W13222  10.636  18.683   2.197
51769W        W13223   3.838   5.433  14.369
51770W        W13224   3.741  23.627   3.730
51771W        W13225  22.535  13.727   1.437
51772W        W13226  39.429  25.142  11.418
51773W        W13227  30.978  40.871  14.295
51774W        W13228  26.651  28.558   4.203
51775W        W13229  18.659   8.303   3.715
51776W        W13230  19.073  42.895  13.466
51777W        W13231  11.651  44.793  11.948
51778W        W13232  43.826  43.405  12.499
51779W        W13233  15.236   3.888  14.461
51780W        W13234  37.884   1.348  14.282
51781W        W13235   9.335  42.368  12.992
51782W        W13236  25.119  11.236   3.648
51783W        W13237  16.261  18.678  11.549
51784W        W13238   6.782  35.002  12.378
51785W        W13239  24.501  24.641   3.382
51786W        W13240  32.962  21.666  10.888
51787W        W13241   8.736  18.569   4.736
51788W        W13242  33.926  27.945   0.926
51789W        W13243  42.347  27.945  10.980
51790W        W13244  25.066  37.855   1.326
51791W        W13245  20.560  42.911   2.220
51792W        W13246  23.687   4.743  10.470
51793W        W13247  35.874  39.840   3.368
51794W        W13248  43.471   2.724  14.836
51795W        W13249   8.835  20.672   2.206
51796W        W13250   3.227  18.191   4.212
51797W        W13251  22.016   1.382   1.325
51798W        W13252  29.925  21.722  10.999
51799W        W13253  33.560  42.856   3.629
51800W        W13254  30.583  34.465   0.419
51801W        W13255  18.733  18.270  14.798
51802W        W13256   5.299   5.822   0.461
51803W        W13257  43.361  34.895   1.813
51804W        W13258  36.055  13.219  11.435
51805W        W13259   7.173  21.627  12.972
51806W        W13260  21.260  18.571  14.370
51807W        W13261  19.774  14.799   0.275
51808W        W13262  31.528  39.917   2.850
51809W        W13263  40.029  12.746   1.816
51810W        W13264  24.683  42.327   2.187
51811W        W13265  30.956  37.872   3.173
51812W        W13266  26.970  21.708  14.770
51813W        W13267  17.126  16.789  10.499
51814W        W13268  34.118   3.320   5.108
51815W        W13269  26.492  27.514   4.354
51816W        W13270  35.359  35.034   2.869
51817W        W13271  28.590  44.862   4.762
51818W        W13272  39.886  39.953   2.335
51819W        W13273  28.978  12.647  11.953
51820W        W13274  18.207  38.991   1.371
51821W        W13275   0.864   6.816  13.031
51822W        W13276  30.043  23.052  10.981
51823W        W13277  22.544   3.735   3.812
51824W        W13278   4.347  24.518   1.718
51825W        W13279  21.254  13.679   1.793
51826W        W13280   5.710  28.004   2.710
51827W        W13281  39.402   5.765  13.881
51828W        W13282  30.589  38.942  12.838
51829W        W13283  39.446  31.568   1.871
51830W        W13284  28.462  29.668   2.676
51831W        W13285  33.068  30.052   2.352
51832W        W13286  17.132  16.679  10.923
51833W        W13287  12.202  10.245  11.879
51834W        W13288  24.990  15.767  12.860
51835W        W13289  13.218  34.566   1.334
51836W        W13290  36.496  16.641  14.993
51837W        W13291  28.629  19.215  14.891
51838W        W13292  28.989   8.699  13.046
51839W        W13293  25.489  44.337  10.600
51840W        W13294   1.364   8.670  10.445
51841W        W13295  11.858  13.620   4.701
51842W        W13296  37.996  34.910  12.934
51843W        W13297  16.243   9.796  13.530
51844W        W13298  23.550   6.802   3.210
51845W        W13299   2.847  41.433  14.409
51846W        W13300  44.795   1.763  14.281
51847W        W13301  13.295  33.556   9.931
51848W        W13302   4.227  23.119   0.388
51849W        W13303  31.929  43.016  14.325
51850W        W13304  12.321  39.529  13.346
51851W        W13305  12.637   0.954  11.499
51852W        W13306  43.409   7.275  14.442
51853W        W13307  34.105  32.909  15.000
51854W        W13308   8.678  44.810   2.271
51855W        W13309  44.945  19.235  13.491
51856W        W13310   4.702   4.754   5.140
51857W        W13311  42.014   7.399  13.381
51858W        W13312   9.306  37.836   3.761
51859W        W13313  38.387  11.352   0.788
51860W        W13314  14.687  28.145  11.451
51861W        W13315  22.113  26.650  14.979
51862W        W13316   9.754  39.857   3.836
51863W        W13317  25.542  35.071   1.321
51864W        W13318  22.217   9.370   0.776
51865W        W13319  22.043   7.206  12.435
51866W        W13320   6.403  12.664   2.185
51867W        W13321  34.386  13.134  10.619
51868W        W13322  32.125  13.772  14.847
51869W        W13323  37.928  20.638  10.416
51870W        W13324  24.567  42.289  13.410
51871W        W13325  25.638  33.003  10.560
51872W        W13326   0.324  15.112   3.305
51873W        W13327   5.835  41.306  12.903
51874W        W13328  21.615  26.968   0.346
51875W        W13329  31.464  33.465   5.248
51876W        W13330  12.689  41.917   3.197
51877W        W13331  29.156  38.360   4.711
51878W        W13332  11.348  37.483   3.856
51879W        W13333   8.366  30.042  10.418
51880W        W13334  24.489  41.381   4.743
51881W        W13335   6.797  33.918  12.094
51882W        W13336   3.431  33.434   2.663
51883W        W13337  17.608  29.439  14.792
51884W        W13338  29.584  13.289   3.162
51885W        W13339  30.953  41.961  10.950
51886W        W13340  39.447  10.863   3.676
51887W        W13341  15.137  10.298   2.773
51888W        W13342   3.215  35.575   1.277
51889W        W13343  35.557  41.893  13.958
51890W        W13344  15.094  19.606  10.054
51891W        W13345  41.954  32.552  13.340
51892W        W13346  12.625  14.285   4.210
51893W        W13347  10.154  40.371  10.925
51894W        W13348   8.827   4.774   1.225
51895W        W13349  34.403  32.886   0.874
51896W        W13350  42.455   2.268   2.271
51897W        W13351  38.564  16.644   3.285
51898W        W13352  29.653  29.024   0.313
51899W        W13353  17.640  39.507   4.316
51900W        W13354  27.648  37.954  10.516
51901W        W13355   8.835  38.985  11.597
51902W        W13356  17.584  43.901  12.400
51903W        W13357  40.933   4.396   1.861
51904W        W13358   4.945  25.988  10.128
51905W        W13359   7.234  28.000   2.809
51906W        W13360  16.595  24.692  12.058
51907W        W13361  39.881   7.204  12.065
51908W        W13362  38.509   4.723  13.344
51909W        W13363  37.868   1.968  13.311
51910W        W13364  21.259   1.315   1.337
51911W        W13365  22.060  38.910   0.483
51912W        W13366   9.311  32.412  13.866
51913W        W13367  25.096  27.982  14.999
51914W        W13368  15.792   8.212  11.912
51915W        W13369  19.164  21.570   4.604
51916W        W13370  35.472  21.111  12.491
51917W        W13371  43.348  24.559  11.953
51918W        W13372  44.283   5.275  11.865
51919W        W13373   9.703  42.799  12.515
51920W        W13374   7.404   1.359   0.818
51921W        W13375  30.096  11.132   0.461
51922W        W13376  36.520  36.520   1.750
51923W        W13377  16.648  25.660  11.988
51924W        W13378   2.813  35.452  14.314
51925W        W13379  24.675   0.889   0.442
51926W        W13380  13.648  19.617   1.791
51927W        W13381  38.032   4.832  11.566
51928W        W13382   8.724  28.136  12.069
51929W        W13383  37.545  25.621  14.806
51930W        W13384  13.764   6.815  11.519
51931W        W13385   6.309  21.263   2.820
51932W        W13386  22.083  26.097   0.483
51933W        W13387   2.898  18.264  11.897
51934W        W13388  37.928  32.049  14.381
51935W        W13389  44.888  43.285  12.530
51936W        W13390  33.589   2.300   1.417
51937W        W13391  19.076  25.487   0.767
51938W        W13392   2.753  18.582  11.063
51939W        W13393  31.152  26.696   3.378
51940W        W13394  12.773  35.556  14.471
51941W        W13395   6.758   5.355   2.333
51942W        W13396  16.604  33.585  14.946
51943W        W13397  23.026  18.064  14.022
51944W        W13398  43.391  13.632  14.836
51945W        W13399   8.862  27.546  14.970
51946W        W13400  11.693  42.456  13.012
51947W        W13401  19.100   0.783   3.697
51948W        W13402  26.610  30.418   1.356
51949W        W13403  40.808  24.095  14.446
51950W        W13404  13.197  29.932  14.003
51951W        W13405  35.931  42.425  10.629
51952W        W13406  20.052  27.663   1.265
51953W        W13407  38.053   7.745   1.293
51954W        W13408  39.901   3.808   2.386
51955W        W13409  37.989  10.223   3.324
51956W        W13410  42.001  37.341   2.335
51957W        W13411  22.505  23.523   4.805
51958W        W13412   1.274  24.642  11.056
51959W        W13413  10.277  33.602   1.842
51960W        W13414  14.118  25.641   4.696
51961W        W13415  38.047  42.838   5.203
51962W        W13416  25.009  37.390   4.136
51963W        W13417   2.852  33.988   2.332
51964W        W13418  44.365  11.818  10.922
51965W        W13419  23.576  33.976   0.265
51966W        W13420  23.542  12.696  11.118
51967W        W13421  29.598  15.156   3.670
51968W        W13422  28.460  27.077   3.185
51969W        W13423   8.655  23.073   2.365
51970W        W13424  44.364   8.316   3.827
51971W        W13425  30.138  35.940   0.946
51972W        W13426  44.372  43.782  13.513
51973W        W13427  42.500  16.742   2.219
51974W        W13428  24.543  38.073  14.903
51975W        W13429  38.404  26.128   3.341
51976W        W13430  18.696  25.202  12.486
51977W        W13431  42.495  27.571   0.314
51978W        W13432  16.183  35.934  12.914
51979W        W13433  12.633  42.293  13.914
51980W        W13434  35.389  40.385  10.093
51981W        W13435   8.215  42.369   1.755
51982W        W13436  39.527  34.908   2.374
51983W        W13437  32.519   8.292   3.212
51984W        W13438  33.397  34.042  13.984
51985W        W13439  30.914  23.707   1.229
51986W        W13440  44.795  11.779   3.194
51987W        W13441  39.396  40.322   0.935
51988W        W13442  28.099  22.199  12.378
51989W        W13443  18.639  32.014   5.132
51990W        W13444  13.759  19.039   3.245
51991W        W13445  31.145  29.965  14.505
51992W        W13446  22.723  10.815   4.260
51993W        W13447  29.496   7.417   4.133
51994W        W13448  43.395   9.643  11.937
51995W        W13449  14.757  38.984   0.902
51996W        W13450  29.590   9.189   3.372
51997W        W13451  25.191  16.079   3.203
51998W        W13452  43.295  36.963  14.010
51999W        W13453  40.372  28.522   0.257
52000W        W13454  38.030  22.203   1.738
52001W        W13455  42.829  15.093   3.381
52002W        W13456  25.651  35.370  12.533
52003W        W13457  36.381  39.983   1.426
52004W        W13458   1.322  29.605   3.193
52005W        W13459  18.563  10.234  11.039
52006W        W13460   7.384   3.932  10.433
52007W        W13461  13.825   6.842   3.818
52008W        W13462  18.716  34.054   0.346
52009W        W13463  21.162   6.283  11.400
52010W        W13464  20.758  27.173   2.217
52011W        W13465  43.487  21.513  11.444
52012W        W13466  11.348  41.519   1.817
52013W        W13467  28.032  30.627   5.140
52014W        W13468  33.005  41.858  12.893
52015W        W13469  39.465   4.265   3.242
52016W        W13470  11.668  19.609  14.387
52017W        W13471  11.249  24.611   3.807
52018W        W13472  30.942  31.449  14.373
52019W        W13473  19.754  20.082  12.863
52020W        W13474  36.871   8.854   0.839
52021W        W13475  24.063   6.837  11.888
52022W        W13476  22.050  43.364  11.525
52023W        W13477  18.719  29.159   1.418
52024W        W13478  27.001   8.826   0.811
52025W        W13479  34.922  37.508  13.055
52026W        W13480   8.305   8.231   4.230
52027W        W13481   9.882  39.012  13.001
52028W        W13482  11.266   4.861   0.365
52029W        W13483  10.189  36.560   1.799
52030W        W13484   6.769  17.735   1.768
52031W        W13485  26.521  33.980   3.865
52032W        W13486  36.030  16.739   4.177
52033W        W13487  42.310  23.025   2.348
52034W        W13488   9.248   6.243  13.399
52035W        W13489  13.279  43.912   4.807
52036W        W13490  25.057  34.407  13.367
52037W        W13491   7.323  32.998   1.269
52038W        W13492  42.018   7.193  11.540
52039W        W13493  30.513  31.628  12.029
52040W        W13494  14.270  41.818  11.602
52041W        W13495  43.835  29.050  12.419
52042W        W13496  36.570  34.060  13.980
52043W        W13497   8.885   9.722   2.231
52044W        W13498  12.736  37.986   3.279
52045W        W13499   3.272   5.841  13.007
52046W        W13500  30.520  24.694   4.653
52047W        W13501   3.453  11.753  14.025
52048W        W13502  38.370  14.160  13.983
52049W        W13503  38.901  24.591  12.437
52050W        W13504  26.172   1.759  10.481
52051W        W13505  19.116   6.365  13.833
52052W        W13506  32.544   9.668  10.937
52053W        W13507   7.181   6.725  14.287
52054W        W13508  42.388  18.188   3.176
52055W        W13509  26.098  37.875   4.787
52056W        W13510   4.910   3.452   2.742
52057W        W13511  28.092  38.381  11.437
52058W        W13512   8.769  35.913  10.600
52059W        W13513   2.949  19.216   1.302
52060W        W13514  13.306  10.159  11.061
52061W        W13515  42.996  14.107  13.383
52062W        W13516  30.085  43.501  12.580
52063W        W13517  37.847  24.026   4.294
52064W        W13518  25.066  17.753  11.923
52065W        W13519  11.157  37.049  12.552
52066W        W13520   3.239  30.023   3.685
52067W        W13521   9.678  32.537   1.450
52068W        W13522  33.381  21.608   2.411
52069W        W13523  12.624  40.842   3.259
52070W        W13524  18.563  26.506   3.284
52071W        W13525  11.842   9.846  13.832
52072W        W13526  43.000   5.703   2.850
52073W        W13527   8.213  17.135  11.480
52074W        W13528  15.802  12.328   4.153
52075W        W13529   8.236  30.556  13.926
52076W        W13530  19.175  12.307   0.797
52077W        W13531  30.626  14.113   1.746
52078W        W13532  32.952   7.356   3.702
52079W        W13533  24.633   0.907  13.985
52080W        W13534  42.338  19.764   0.456
52081W        W13535  28.131  17.295  11.428
52082W        W13536  27.560  21.101   0.870
52083W        W13537  38.571  24.000   2.867
52084W        W13538  17.638  32.400  14.403
52085W        W13539  35.389  33.006   3.351
52086W        W13540  39.492  10.763  10.961
52087W        W13541   9.275   6.364  14.407
52088W        W13542  18.786  34.973   2.179
52089W        W13543  23.697  36.576   3.823
52090W        W13544  12.175  44.893  11.525
52091W        W13545  27.095  41.953   0.817
52092W        W13546  12.795  38.919   1.864
52093W        W13547  31.139  25.169   1.856
52094W        W13548   1.357  31.907  12.860
52095W        W13549  34.530   2.723   0.733
52096W        W13550  34.007  17.763  13.793
52097W        W13551  13.326  35.381  11.603
52098W        W13552  12.806   8.317  10.976
52099W        W13553  24.611   8.782  14.900
52100W        W13554  19.690  11.373  14.770
52101W        W13555  35.574  39.343   4.283
52102W        W13556  32.499  14.257   0.452
52103W        W13557   2.261   3.731   0.852
52104W        W13558  20.765  38.421  14.395
52105W        W13559  26.053  17.721   1.805
52106W        W13560  22.598  35.882  13.519
52107W        W13561  31.470  41.454   1.742
52108W        W13562  20.733  11.738   1.831
52109W        W13563  27.580  20.180   2.225
52110W        W13564  41.989  40.023  14.485
52111W        W13565  16.229  13.845   0.413
52112W        W13566  11.765  41.830  13.308
52113W        W13567  31.421  27.540  11.489
52114W        W13568   0.367   2.872   4.321
52115W        W13569  14.198  20.140   1.303
52116W        W13570  15.204  39.888   0.908
52117W        W13571  24.084   6.304  11.932
52118W        W13572   8.166   2.859  11.030
52119W        W13573  10.712   2.332   3.714
52120W        W13574  21.248  40.325  10.452
52121W        W13575  26.043  12.171   3.765
52122W        W13576  22.582   4.325  11.463
52123W        W13577  17.683  31.142  14.029
52124W        W13578  21.664  34.073   4.243
52125W        W13579  44.335   5.277   4.132
52126W        W13580  14.626  16.224  14.004
52127W        W13581   5.278  19.072   3.773
52128W        W13582   0.261  13.158  14.468
52129W        W13583  39.964  21.541   4.809
52130W        W13584   2.302  28.615  11.385
52131W        W13585  24.685  29.101   3.635
52132W        W13586   7.902  21.663   1.388
52133W        W13587  40.408  44.856   0.734
52134W        W13588  32.099  28.614   4.274
52135W        W13589  40.929  38.364  14.005
52136W        W13590  42.313   2.446   4.320
52137W        W13591   0.920   0.341  14.396
52138W        W13592   6.783  43.312  14.850
52139W        W13593   7.210   5.776  13.920
52140W        W13594  31.406  36.438   4.802
52141W        W13595   4.221  26.682   0.861
52142W        W13596  24.580  10.850   4.625
52143W        W13597  24.111  18.220  12.559
52144W        W13598  27.082  31.091   3.293
52145W        W13599  37.040  21.044  10.412
52146W        W13600   3.763  18.730  13.794
52147W        W13601   1.333   4.263   4.190
52148W        W13602  37.384  35.417  10.598
52149W        W13603  15.689  44.863   4.796
52150W        W13604  30.574  20.621   2.332
52151W        W13605  12.621  27.130   3.284
52152W        W13606  11.330  37.842   1.394
52153W        W13607  36.483  31.437   3.234
52154W        W13608  36.902  30.130   2.776
52155W        W13609  44.330  12.659   0.480
52156W        W13610  25.532  15.138   4.181
52157W        W13611  44.456  32.082   2.784
52158W        W13612  27.980   7.382   1.347
52159W        W13613  33.874  39.371  11.577
52160W        W13614  31.550  34.551   1.706
52161W        W13615   6.780  38.482  11.967
52162W        W13616  36.378  43.390   3.293
52163W        W13617  23.579  12.613   2.299
52164W        W13618  34.935  38.360  11.407
52165W        W13619  29.657  16.637   0.948
52166W        W13620  38.371  26.556   3.166
52167W        W13621  30.484  35.977   0.832
52168W        W13622  10.763  37.033   4.615
52169W        W13623  17.780  30.154   1.233
52170W        W13624  37.526  20.185  10.580
52171W        W13625  28.938  21.631  13.811
52172W        W13626  20.209  24.976  11.080
52173W        W13627   6.813  32.940   9.486
52174W        W13628  11.358   0.262  12.086
52175W        W13629  23.600  42.498  13.952
52176W        W13630   0.813   4.366   2.821
52177W        W13631  37.443   4.781   4.740
52178W        W13632  40.392  35.862   2.751
52179W        W13633  10.664  24.581  12.398
52180W        W13634  40.364  41.919  14.377
52181W        W13635  37.368  34.485  13.397
52182W        W13636  41.912   0.905   1.825
52183W        W13637  26.052  27.510   2.780
52184W        W13638  11.743   3.288   1.359
52185W        W13639  13.321  12.286  11.439
52186W        W13640  27.540  40.049   3.722
52187W        W13641  27.600   8.793  11.952
52188W        W13642  23.696  16.651   4.699
52189W        W13643  32.610  22.710   4.659
52190W        W13644  36.453  25.480  13.369
52191W        W13645  36.961  38.866  12.530
52192W        W13646  32.123  38.557   1.726
52193W        W13647  42.405   9.222  14.403
52194W        W13648  32.484   5.390  11.883
52195W        W13649  40.034  30.499   0.311
52196W        W13650  17.290  43.951  10.942
52197W        W13651  21.218  34.016   0.924
52198W        W13652  37.457   8.243  11.965
52199W        W13653  27.976  26.142   4.117
52200W        W13654  39.043   2.301   4.283
52201W        W13655  25.153  42.882   1.924
52202W        W13656  27.635  10.375  13.918
52203W        W13657  33.438  21.751   0.742
52204W        W13658  30.087  37.499   2.263
52205W        W13659  13.801   5.889  12.039
52206W        W13660  28.103  40.802   4.325
52207W        W13661  17.684  44.835  12.084
52208W        W13662  18.260   5.906   2.694
52209W        W13663   4.357  43.458  14.317
52210W        W13664  26.094  26.487   0.878
52211W        W13665  41.030  18.145  11.039
52212W        W13666  24.678  35.401   2.287
52213W        W13667  31.576   6.766   1.858
52214W        W13668  38.858  18.073   1.361
52215W        W13669  11.153   4.275  11.613
52216W        W13670  43.900  12.310  14.923
52217W        W13671   1.920  19.162  14.369
52218W        W13672   4.833  37.393  14.974
52219W        W13673  37.471  28.067  12.080
52220W        W13674  27.651  13.826  13.807
52221W        W13675   8.393  23.144  14.445
52222W        W13676  42.493  11.207  14.970
52223W        W13677   0.300   4.368  12.527
52224W        W13678  19.751  13.729  14.447
52225W        W13679  12.168  37.846  11.577
52226W        W13680  24.083   7.243  13.808
52227W        W13681   4.332  28.653   0.380
52228W        W13682   8.236  40.377  11.954
52229W        W13683  22.538  22.582  12.471
52230W        W13684   5.926  44.272  12.059
52231W        W13685   9.266  21.240   0.283
52232W        W13686  32.494  40.912   3.856
52233W        W13687  38.432  13.329  14.885
52234W        W13688  32.906  31.495   1.914
52235W        W13689  39.954  26.519   1.885
52236W        W13690   8.685  29.465  13.547
52237W        W13691  14.820  12.800   5.269
52238W        W13692   8.274  29.037  12.541
52239W        W13693  25.636  31.937   4.778
52240W        W13694  34.081  10.356   2.821
52241W        W13695   1.265  32.479   3.293
52242W        W13696  11.334  42.449  13.350
52243W        W13697  28.628  11.629   2.778
52244W        W13698  20.159  18.678   1.418
52245W        W13699  38.532   3.795  13.915
52246W        W13700  32.893  40.465  12.526
52247W        W13701  31.925  32.410   3.744
52248W        W13702  26.696  34.537  10.036
52249W        W13703  25.549  20.617   3.865
52250W        W13704  13.203  35.896  12.861
52251W        W13705  31.915   3.327  12.985
52252W        W13706  13.688  15.604   2.200
52253W        W13707  10.383  26.151  10.522
52254W        W13708  34.594  20.221   0.825
52255W        W13709   2.803  20.679  13.542
52256W        W13710  38.837  23.236  13.398
52257W        W13711  39.854  23.498  14.482
52258W        W13712   4.746  13.748   2.397
52259W        W13713  41.956  12.128  12.911
52260W        W13714  24.599  40.835  11.475
52261W        W13715   4.925   7.757  12.909
52262W        W13716  22.218  30.973   4.179
52263W        W13717   4.222  31.621   3.764
52264W        W13718  42.508  22.085  10.553
52265W        W13719  19.115  24.014   2.689
52266W        W13720  34.980  29.546  13.054
52267W        W13721  30.056  32.522  11.483
52268W        W13722  38.442   6.714  10.608
52269W        W13723   1.931  23.102   3.379
52270W        W13724  21.263  29.602  14.481
52271W        W13725  21.223  44.003  13.960
52272W        W13726  40.935  32.076   0.760
52273W        W13727  38.061  27.135  13.473
52274W        W13728  18.722  23.144   1.395
52275W        W13729  29.480  27.060  10.924
52276W        W13730   4.419  21.615   2.399
52277W        W13731  13.202   7.403   1.413
52278W        W13732  13.779   0.475   2.849
52279W        W13733   7.261   5.239  11.094
52280W        W13734  32.490  20.233   3.358
52281W        W13735  11.148  32.445   3.383
52282W        W13736  38.480  15.256   1.241
52283W        W13737  16.153  38.475  10.132
52284W        W13738   8.792  37.461  10.640
52285W        W13739  32.930   1.747  14.934
52286W        W13740  26.681  38.015   0.796
52287W        W13741  40.455  26.693  14.947
52288W        W13742  20.611  37.551  11.108
52289W        W13743  28.593  43.961   3.284
52290W        W13744  21.206  33.973   5.136
52291W        W13745  33.124  34.089  13.968
52292W        W13746  40.433  44.419   4.212
52293W        W13747  41.981  32.115  14.858
52294W        W13748  24.155  13.662  13.483
52295W        W13749  13.731  24.022   4.692
52296W        W13750  35.054  30.087   1.716
52297W        W13751  41.916   9.696  13.858
52298W        W13752  16.774  42.338   3.794
52299W        W13753  12.677   0.336   3.821
52300W        W13754  41.899  19.212   0.315
52301W        W13755  27.971  22.083  14.298
52302W        W13756  21.154  31.905   1.247
52303W        W13757  40.429  32.530   2.882
52304W        W13758  28.512  11.200   3.830
52305W        W13759  20.533   6.716  14.452
52306W        W13760  21.185  32.560  12.849
52307W        W13761   5.896  36.524  14.856
52308W        W13762  36.555  44.401   4.681
52309W        W13763  21.698  18.690   2.229
52310W        W13764   6.385  41.525   1.309
52311W        W13765  10.272  37.900  11.504
52312W        W13766  12.212  16.117  13.493
52313W        W13767  37.408  42.311   1.273
52314W        W13768   7.179  41.962   4.288
52315W        W13769  18.296   6.732   2.326
52316W        W13770  36.095  34.925  14.029
52317W        W13771  18.786  11.291   3.278
52318W        W13772  20.762  31.410   3.694
52319W        W13773  32.556  11.860  13.346
52320W        W13774  21.089  41.871   0.420
52321W        W13775  19.052  14.758   2.896
52322W        W13776  27.022   9.736   4.738
52323W        W13777   0.319  18.773  14.884
52324W        W13778  39.042  41.976  10.888
52325W        W13779   1.293  41.441   1.443
52326W        W13780  33.482  22.544   1.250
52327W        W13781  27.145  29.925   3.296
52328W        W13782  14.137  27.611  11.999
52329W        W13783  30.571   4.237  11.100
52330W        W13784  31.136   7.299   2.763
52331W        W13785  33.497  11.765   4.229
52332W        W13786  23.582  41.484  14.902
52333W        W13787  42.782  21.674   1.313
52334W        W13788  25.967  13.312   0.298
52335W        W13789  37.387  35.434   4.192
52336W        W13790   3.324  34.480  13.433
52337W        W13791   6.303   6.831   3.257
52338W        W13792   0.876  17.296  10.455
52339W        W13793  16.734  43.503  11.073
52340W        W13794  15.823   3.811   1.854
52341W        W13795  35.471  35.556   2.696
52342W        W13796  18.287  41.878  11.977
52343W        W13797  16.653  27.189  14.921
52344W        W13798  18.545  34.951   3.768
52345W        W13799  24.510  43.461  11.963
52346W        W13800  43.959  30.946   2.267
52347W        W13801  35.445  22.124  14.470
52348W        W13802  38.480  20.038   3.670
52349W        W13803  19.579  39.326   0.403
52350W        W13804  25.206  44.947   1.393
52351W        W13805   4.264  41.804   0.455
52352W        W13806  16.568  30.997   0.796
52353W        W13807  11.863  28.469   1.776
52354W        W13808  33.565   9.848   2.702
52355W        W13809  34.033   6.310  13.794
52356W        W13810  12.211  19.762   1.719
52357W        W13811  29.982   4.909   3.831
52358W        W13812  27.990   5.309   0.348
52359W        W13813  26.548   2.258   0.931
52360W        W13814  25.963  42.952  14.472
52361W        W13815   5.861  33.034   2.670
52362W        W13816   0.281  25.472  10.916
52363W        W13817  12.737  33.544   2.717
52364W        W13818  42.006  28.670  11.488
52365W        W13819  43.302  10.789   1.930
52366W        W13820  21.204   4.437   2.758
52367W        W13821  16.629   1.464  14.422
52368W        W13822  24.724  32.616   2.332
52369W        W13823   6.912  38.473  10.469
52370W        W13824   0.782   7.257  10.100
52371W        W13825   5.795  41.842  14.027
52372W        W13826  39.000   6.882  11.376
52373W        W13827  33.952  27.025   1.907
52374W        W13828  22.715   4.224   3.226
52375W        W13829  22.042   1.932   3.306
52376W        W13830   8.398  40.811   3.845
52377W        W13831  25.203   3.902  12.911
52378W        W13832  27.003   6.745   0.873
52379W        W13833   3.797  42.441   3.868
52380W        W13834  10.864  39.911  10.433
52381W        W13835  42.408   1.248   1.414
52382W        W13836   8.232  30.644   3.276
52383W        W13837  34.877  43.870  13.047
52384W        W13838   2.342  30.641   1.368
52385W        W13839  39.558   7.777   3.277
52386W        W13840  23.035  21.212   4.770
52387W        W13841  27.680   8.754   0.745
52388W        W13842  13.672  27.584   4.803
52389W        W13843  22.154   7.709   0.929
52390W        W13844   7.862  13.841  13.482
52391W        W13845  17.694  35.927  12.354
52392W        W13846  15.663  12.669  14.846
52393W        W13847   7.279  27.568   2.389
52394W        W13848  22.677  22.716  14.509
52395W        W13849  28.105   3.740  14.471
52396W        W13850  17.586  42.417  12.824
52397W        W13851  39.844   8.841   2.783
52398W        W13852  43.913  30.575  10.450
52399W        W13853   8.337  39.915   0.337
52400W        W13854  10.848  37.575   2.748
52401W        W13855  25.662  21.651   3.384
52402W        W13856   8.214  28.960  14.005
52403W        W13857  23.991  44.264   3.188
52404W        W13858  38.844  22.128  11.511
52405W        W13859  13.343   1.920   1.711
52406W        W13860  26.471  10.295  10.952
52407W        W13861  15.762  30.548  10.562
52408W        W13862  38.877  15.312   1.442
52409W        W13863  11.628  27.079   0.726
52410W        W13864  31.095  40.888   1.444
52411W        W13865  27.068  42.453  13.053
52412W        W13866   3.825   6.236  10.534
52413W        W13867  12.210  26.970  13.442
52414W        W13868  21.197  14.288   3.359
52415W        W13869   8.669  23.704  13.502
52416W        W13870  35.018  38.364   0.915
52417W        W13871   3.400  27.050   0.331
52418W        W13872  44.931  10.272  11.121
52419W        W13873   5.245  21.261   4.783
52420W        W13874   5.433  13.247  12.978
52421W        W13875  33.961  36.503  12.871
52422W        W13876  16.079  11.779  14.941
52423W        W13877  43.509   7.390   1.792
52424W        W13878   7.292  34.925  12.062
52425W        W13879  33.977   0.963  10.115
52426W        W13880  35.014  44.876   1.792
52427W        W13881   9.774  23.500   3.159
52428W        W13882   4.392  15.194  14.781
52429W        W13883  35.009  18.064  10.926
52430W        W13884  28.051  35.581  14.279
52431W        W13885  17.101  15.309   4.312
52432W        W13886  30.496  29.159   2.797
52433W        W13887   6.683  28.561  10.973
52434W        W13888  27.637  44.405  14.447
52435W        W13889  44.965   5.728   3.289
52436W        W13890  41.876  20.121   3.172
52437W        W13891  24.632  39.533   0.481
52438W        W13892  29.558  24.124  14.856
52439W        W13893   5.354  28.043  14.798
52440W        W13894   4.848   3.722  12.078
52441W        W13895  13.142  26.496   4.273
52442W        W13896  35.996  38.431   0.730
52443W        W13897  27.965  36.029   4.764
52444W        W13898  13.620   3.824  10.484
52445W        W13899  10.316  21.561   3.639
52446W        W13900  33.030  26.694   2.871
52447W        W13901   8.656   1.412   2.204
52448W        W13902  38.047  35.443  10.941
52449W        W13903  42.953  14.269   0.353
52450W        W13904   0.365  29.015  14.842
52451W        W13905  26.688  35.422   4.321
52452W        W13906  33.517  12.708  13.948
52453W        W13907   9.215  37.416   1.285
52454W        W13908  28.667  22.713   0.458
52455W        W13909  23.642  29.108  10.470
52456W        W13910  31.921   0.891  14.363
52457W        W13911  33.556  39.483   1.909
52458W        W13912   3.721   4.343  12.895
52459W        W13913   1.918   3.353   1.321
52460W        W13914   7.702  18.719  10.574
52461W        W13915  19.619   1.394   4.603
52462W        W13916  27.086  35.593  14.399
52463W        W13917  26.604   0.863  10.919
52464W        W13918  27.578  12.734  12.513
52465W        W13919  11.671  14.140  11.463
52466W        W13920  34.022  27.559   3.654
52467W        W13921  30.066  17.120   3.300
52468W        W13922  42.410   4.787  10.925
52469W        W13923  40.976  37.045  12.824
52470W        W13924  42.393   8.790  13.928
52471W        W13925  38.464  27.023   1.311
52472W        W13926  25.056  40.055  14.949
52473W        W13927  31.614  34.866   3.660
52474W        W13928  31.074   6.687  12.827
52475W        W13929  18.753  33.021  11.035
52476W        W13930  43.913  31.609  11.945
52477W        W13931  19.637  37.341  13.039
52478W        W13932  35.502  13.834   2.310
52479W        W13933  15.329  43.471   4.727
52480W        W13934   1.453  27.140   1.315
52481W        W13935  16.764  20.244  11.093
52482W        W13936  42.841  44.321  13.995
52483W        W13937  20.056  14.280  10.406
52484W        W13938  30.028  12.126  12.900
52485W        W13939  44.463  13.147   0.288
52486W        W13940  38.954   5.277   3.229
52487W        W13941  44.916  16.619   4.597
52488W        W13942  32.032   1.973   9.953
52489W        W13943  23.001  13.647   0.894
52490W        W13944  30.556   6.851   1.887
52491W        W13945   6.256  17.250   0.431
52492W        W13946  19.540  23.004   4.786
52493W        W13947  25.523  31.977   3.370
52494W        W13948  24.507  15.739   1.739
52495W        W13949  18.751   9.780   3.797
52496W        W13950   9.297   7.292   4.172
52497W        W13951  15.281  40.864   3.632
52498W        W13952   3.716  17.091  10.025
52499W        W13953  10.200  22.520  12.990
52500W        W13954   7.841  23.504  11.057
52501W        W13955   0.457  30.504  13.851
52502W        W13956  35.471  35.081   4.800
52503W        W13957  25.023  10.306  12.955
52504W        W13958  10.279  41.433  11.995
52505W        W13959  38.847  42.870  11.573
52506W        W13960   7.693  20.119   2.713
52507W        W13961  43.285  22.179  10.550
52508W        W13962   0.871  30.442   0.749
52509W        W13963  21.257   8.881  14.964
52510W        W13964  10.174  41.872  13.906
52511W        W13965   3.807  38.413   2.798
52512W        W13966   6.355  44.416   3.844
52513W        W13967   0.867  36.867   4.282
52514W        W13968  16.216  41.509  11.423
52515W        W13969  13.166  34.486  10.419
52516W        W13970  21.627  15.093  11.479
52517W        W13971  30.610  34.602   0.886
52518W        W13972   0.277  38.961   0.961
52519W        W13973  15.800  44.973   1.227
52520W        W13974  21.246   1.438  14.410
52521W        W13975  20.147  12.242  11.379
52522W        W13976  18.158  39.519   2.303
52523W        W13977   5.221  26.957   4.314
52524W        W13978  24.005  40.982  12.349
52525W        W13979  20.711  22.628  11.098
52526W        W13980  29.637  32.966  13.427
52527W        W13981  24.598  17.172  11.536
52528W        W13982  16.194  31.528   2.704
52529W        W13983   5.320  28.028  11.372
52530W        W13984  30.075   8.847  12.560
52531W        W13985   3.765  22.529  10.973
52532W        W13986  27.456  15.319  14.507
52533W        W13987  15.161  26.554  10.519
52534W        W13988   2.254  26.534   3.796
52535W        W13989  17.715  43.466  14.014
52536W        W13990  39.498   1.437  13.877
52537W        W13991  17.626  12.812  13.521
52538W        W13992  31.049  40.525   1.364
52539W        W13993  36.505  35.072  10.517
52540W        W13994  35.927   6.768  13.959
52541W        W13995   0.392  23.995   1.738
52542W        W13996   3.424  41.794  14.507
52543W        W13997   5.904  27.609   1.372
52544W        W13998  34.474   4.926  10.943
52545W        W13999  44.490  40.474   4.821
52546W        W14000  35.386  13.223   2.396
52547W        W14001  33.902   9.293  11.052
52548W        W14002  23.597  43.496  14.898
52549W        W14003  40.326   4.889   5.087
52550W        W14004  41.342  22.190  13.931
52551W        W14005   4.778  43.812  14.963
52552W        W14006  12.211  39.314  12.382
52553W        W14007  32.504  36.973   2.821
52554W        W14008  11.204  22.582   1.698
52555W        W14009  22.107  41.986  12.840
52556W        W14010  24.991  13.661   1.904
52557W        W14011   9.294   7.681   3.636
52558W        W14012  13.674  11.841   9.477
52559W        W14013  38.912  30.578   2.724
52560W        W14014  42.280  32.492   1.898
52561W        W14015  23.551   6.425   1.736
52562W        W14016  12.352  32.522   4.650
52563W        W14017   7.346   9.688   2.224
52564W        W14018  22.185  36.033  10.524
52565W        W14019  38.002  17.257   0.404
52566W        W14020  10.184   8.200   0.912
52567W        W14021  34.385  35.953   3.295
52568W        W14022  33.021  25.029  12.978
52569W        W14023  29.611   0.475  14.330
52570W        W14024  27.175  30.507   3.283
52571W        W14025   1.420  35.034   2.844
52572W        W14026  16.779  20.732  10.413
52573W        W14027   8.283  10.159  12.558
52574W        W14028  40.344   1.331   2.253
52575W        W14029  34.930  41.534   4.187
52576W        W14030   5.283  14.296  14.798
52577W        W14031  24.028  16.124   2.815
52578W        W14032   3.781  42.352  13.450
52579W        W14033  24.208  27.157  14.515
52580W        W14034  30.084  19.072  11.881
52581W        W14035  27.663   4.243   3.301
52582W        W14036   2.446  36.529  10.610
52583W        W14037  40.505  40.814   9.936
52584W        W14038   0.866   0.390   0.252
52585W        W14039  39.395  16.074  13.016
52586W        W14040  16.145  42.885  14.511
52587W        W14041  23.529  26.581   3.867
52588W        W14042  41.332  43.447   5.174
52589W        W14043  29.585  42.939   3.311
52590W        W14044  42.521  12.174  11.037
52591W        W14045   0.988  16.661   0.948
52592W        W14046  43.869  11.734   2.359
52593W        W14047  44.905  12.838   1.425
52594W        W14048  35.057  25.711  10.531
52595W        W14049  24.074   0.444  10.555
52596W        W14050  33.938   5.745   1.353
52597W        W14051  18.590  39.810   2.810
52598W        W14052  14.248   0.477   0.439
52599W        W14053   7.341  33.394   0.304
52600W        W14054  44.988  25.511   3.274
52601W        W14055  44.285  24.023  10.988
52602W        W14056  27.464   4.354   0.896
52603W        W14057  13.135  44.261   3.755
52604W        W14058  10.649  24.725   3.775
52605W        W14059  13.832  38.477  11.522
52606W        W14060  41.299  34.006   0.854
52607W        W14061  27.942  17.143   2.695
52608W        W14062  18.152   3.792   1.832
52609W        W14063  32.042  31.126  11.445
52610W        W14064  44.863  33.383  12.521
52611W        W14065  15.779   6.244   4.161
52612W        W14066  43.487  17.713   2.740
52613W        W14067  13.325  21.668   5.316
52614W        W14068  32.056  24.061  14.410
52615W        W14069  19.209  16.708   1.904
52616W        W14070  35.051  42.282   4.185
52617W        W14071  41.818   7.809  14.019
52618W        W14072  32.971  31.060   3.230
52619W        W14073  31.097   1.939   2.417
52620W        W14074  35.912  18.545   3.370
52621W        W14075  36.077  28.528  12.956
52622W        W14076  38.905  35.539  11.451
52623W        W14077  26.576  17.584   1.210
52624W        W14078  15.595  40.048   5.133
52625W        W14079  20.151  24.089  13.408
52626W        W14080  44.343  44.788   2.716
52627W        W14081  15.237  37.876  14.470
52628W        W14082  16.609  23.526  12.991
52629W        W14083  20.268  43.365  11.857
52630W        W14084  21.561  34.007  10.448
52631W        W14085   8.866  22.998  14.347
52632W        W14086  36.369  28.170  12.861
52633W        W14087   4.879  36.374   0.905
52634W        W14088   5.323  35.559  10.565
52635W        W14089  24.078  43.991   3.670
52636W        W14090  44.976   0.476   4.174
52637W        W14091  11.648  38.869   1.729
52638W        W14092  33.471  29.536   5.127
52639W        W14093   7.247  34.001  11.406
52640W        W14094  17.705  11.128  14.814
52641W        W14095  34.037  17.212  13.897
52642W        W14096  35.524  37.898  12.381
52643W        W14097  19.610   7.322   3.807
52644W        W14098   6.396  27.998  14.988
52645W        W14099  31.601  26.496  11.024
52646W        W14100  14.226  21.167  14.975
52647W        W14101  38.341   6.349   2.719
52648W        W14102   8.381  21.073  10.140
52649W        W14103  39.936  32.582  14.812
52650W        W14104  18.092  44.930  13.456
52651W        W14105  18.582  12.197  12.464
52652W        W14106  32.967  15.304  12.897
52653W        W14107  13.332  40.873  12.564
52654W        W14108  14.749   3.289   3.680
52655W        W14109  39.822  38.347   2.830
52656W        W14110  21.666  12.688  12.960
52657W        W14111  19.550  11.778  11.498
52658W        W14112  16.223   7.381  14.991
52659W        W14113   1.843   3.394   4.731
52660W        W14114  44.425  21.123  11.484
52661W        W14115  16.784   8.268   4.808
52662W        W14116  16.698  12.734  12.867
52663W        W14117  14.325   3.330   3.271
52664W        W14118  23.581  10.180  14.477
52665W        W14119   5.396  13.724   3.251
52666W        W14120   9.226  16.567   3.198
52667W        W14121  12.150  44.346   0.302
52668W        W14122   8.658   9.844   4.280
52669W        W14123  12.818  11.345   4.623
52670W        W14124  31.948  24.064  13.365
52671W        W14125  33.091  40.833  13.504
52672W        W14126  35.080  36.014   1.715
52673W        W14127  12.331  26.604  12.511
52674W        W14128  42.902  39.971   4.727
52675W        W14129  19.056   5.724  13.475
52676W        W14130  11.685   4.433   2.764
52677W        W14131  44.763  22.686   0.887
52678W        W14132  11.214   7.385   0.426
52679W        W14133  23.499  32.921   3.725
52680W        W14134   0.804  36.092   3.653
52681W        W14135   3.918  43.493  14.287
52682W        W14136   5.787  33.120   3.247
52683W        W14137   0.820   5.906  12.555
52684W        W14138  18.778  41.380  12.412
52685W        W14139  40.330  14.711  14.508
52686W        W14140   8.773  42.381   4.792
52687W        W14141  27.987  25.196   5.317
52688W        W14142  41.989  44.416   1.821
52689W        W14143  38.987   2.816  13.328
52690W        W14144  27.118  43.377  12.886
52691W        W14145   3.328  38.553  11.089
52692W        W14146  29.063  17.784   0.262
52693W        W14147  13.609  22.118   2.193
52694W        W14148  14.750  43.496  10.994
52695W        W14149   9.756  41.300   4.334
52696W        W14150  20.722  16.199   1.271
52697W        W14151  24.004  31.065  12.420
52698W        W14152  11.166  21.552  13.853
52699W        W14153   8.182  20.139   3.183
52700W        W14154   4.411  33.120  14.015
52701W        W14155  37.496  22.707   1.861
52702W        W14156  20.623  40.381  12.031
52703W        W14157  33.920   6.757  10.970
52704W        W14158   6.370  43.403   0.243
52705W        W14159  36.573   2.305   1.366
52706W        W14160  18.134   7.370   3.286
52707W        W14161  33.580  25.625   3.310
52708W        W14162  22.735  41.872  11.100
52709W        W14163  10.152   1.863  10.502
52710W        W14164  40.325  28.640  12.834
52711W        W14165   2.470  35.882   1.732
52712W        W14166  34.526  27.153   0.389
52713W        W14167  12.727  44.502  10.568
52714W        W14168  21.521  29.091  14.965
52715W        W14169  33.100  19.241   1.433
52716W        W14170   0.958  29.559   1.891
52717W        W14171  40.983   5.782   3.379
52718W        W14172   2.457  13.181   0.851
52719W        W14173   7.671   5.230   0.441
52720W        W14174  34.896  24.579   3.757
52721W        W14175  32.938   4.850   4.231
52722W        W14176  40.862  12.631   4.669
52723W        W14177  29.579  24.122  10.949
52724W        W14178  22.026  13.793  12.536
52725W        W14179  23.722  17.148  11.950
52726W        W14180  42.483   7.324   2.713
52727W        W14181   7.674  13.131  14.486
52728W        W14182  13.344  13.736   1.329
52729W        W14183  30.621   0.350  14.274
52730W        W14184  25.079  18.693   2.807
52731W        W14185  44.458  23.076   0.395
52732W        W14186  15.170  39.549   2.706
52733W        W14187  26.465  36.539   4.255
52734W        W14188  19.779  38.037  11.956
52735W        W14189   5.710  22.243   2.864
52736W        W14190  24.550  25.615  14.302
52737W        W14191  12.252  31.113  14.788
52738W        W14192  15.696  36.505  11.389
52739W        W14193   7.335  28.631  12.418
52740W        W14194   1.752  17.708  12.946
52741W        W14195   6.871  21.675   4.257
52742W        W14196  42.471  34.375   3.338
52743W        W14197  36.016  20.655  14.944
52744W        W14198  44.950  17.136  10.969
52745W        W14199  44.352   6.209  12.537
52746W        W14200  20.558  12.147  11.043
52747W        W14201  14.217  15.775   4.219
52748W        W14202   9.394  27.489   1.876
52749W        W14203  29.171   7.730  11.498
52750W        W14204  26.072  25.983   3.346
52751W        W14205  42.904   8.897  11.018
52752W        W14206  25.091  38.456   2.222
52753W        W14207   8.680  30.605   0.466
52754W        W14208  11.257   4.255   4.704
52755W        W14209  40.858   8.331   1.415
52756W        W14210  38.557  24.725   3.284
52757W        W14211   9.319   4.354   3.751
52758W        W14212  35.398   3.910   2.814
52759W        W14213  40.975  36.019   3.259
52760W        W14214  11.832  19.084   2.848
52761W        W14215   5.891  41.915  11.909
52762W        W14216   5.727   1.776   4.746
52763W        W14217   0.924   7.185   0.424
52764W        W14218  25.091  23.115  14.803
52765W        W14219   1.783  17.085  12.895
52766W        W14220  17.669  31.613  14.335
52767W        W14221   6.218  42.828  11.011
52768W        W14222  35.509  25.186   0.251
52769W        W14223  28.444   1.372   2.820
52770W        W14224  21.193  24.131   3.697
52771W        W14225   6.224  42.816  12.376
52772W        W14226  24.525  30.627  10.405
52773W        W14227  18.789  21.043  10.602
52774W        W14228   4.878   5.334   1.756
52775W        W14229  15.199  22.169   4.183
52776W        W14230  41.961  21.067  14.423
52777W        W14231  40.403  41.313  10.473
52778W        W14232  12.688  19.249  12.515
52779W        W14233   1.468  16.640   3.856
52780W        W14234  36.001  25.161  12.342
52781W        W14235  14.622  42.842   9.542
52782W        W14236  20.133  37.047  11.597
52783W        W14237  22.218  18.673   3.629
52784W        W14238  29.969  36.430  14.872
52785W        W14239  29.090   6.400   1.728
52786W        W14240  24.648  30.961  13.935
52787W        W14241  37.554  43.270   4.630
52788W        W14242  40.353  26.113  13.845
52789W        W14243  26.589  37.014  11.377
52790W        W14244  18.592  35.491  12.506
52791W        W14245  17.144  13.129   3.360
52792W        W14246  43.312  23.229  10.941
52793W        W14247  40.912  29.136  12.946
52794W        W14248  15.274   1.865  11.461
52795W        W14249  29.483  34.401   1.377
52796W        W14250  25.106  23.192  10.618
52797W        W14251  34.956  14.743  14.024
52798W        W14252   8.743   8.660  12.016
52799W        W14253  23.025  33.614  13.911
52800W        W14254   3.340   3.938   0.728
52801W        W14255  35.502  31.103   3.818
52802W        W14256   5.213  34.571   2.309
52803W        W14257   9.273  19.112  11.924
52804W        W14258  31.406  25.183  14.766
52805W        W14259  38.423   9.825  13.447
52806W        W14260   8.759  27.609   1.256
52807W        W14261  19.199   9.338  11.528
52808W        W14262  17.784   6.720   3.773
52809W        W14263  15.103   4.422   0.306
52810W        W14264  32.955  23.193  12.460
52811W        W14265  30.013  29.598  14.313
52812W        W14266  26.610  40.345   3.850
52813W        W14267  34.112  41.315  12.343
52814W        W14268  19.242  18.090   1.317
52815W        W14269  17.680  26.129   2.325
52816W        W14270  24.064   4.940  12.951
52817W        W14271  35.924  23.052   3.304
52818W        W14272  33.020  27.094   0.353
52819W        W14273  23.141   0.982  10.547
52820W        W14274  15.279   3.353   0.802
52821W        W14275   1.410  42.443  12.421
52822W        W14276  28.548  43.795  13.842
52823W        W14277   4.885  32.025   2.404
52824W        W14278  41.479   1.781   4.155
52825W        W14279  36.954  13.206  14.943
52826W        W14280  18.678  44.405  14.855
52827W        W14281  31.539  36.367  13.033
52828W        W14282   9.279  42.919  12.823
52829W        W14283  21.606   9.204  13.467
52830W        W14284  43.348  21.665  13.491
52831W        W14285  25.108   3.326  13.981
52832W        W14286  20.738  23.117  10.892
52833W        W14287   2.416   2.791   2.827
52834W        W14288   8.883  12.202   2.234
52835W        W14289  16.132  11.217   1.729
52836W        W14290  37.548  34.090  13.373
52837W        W14291  24.004  12.209  12.495
52838W        W14292  19.755  14.159   2.301
52839W        W14293  37.838   4.877   4.837
52840W        W14294  38.918   9.664  14.828
52841W        W14295  23.697  12.309   0.770
52842W        W14296  17.108   7.350  11.962
52843W        W14297  43.854  32.069  13.492
52844W        W14298  18.275  28.666   1.699
52845W        W14299   5.313  11.134  13.318
52846W        W14300   5.701   4.923  14.901
52847W        W14301  21.036  22.744   4.700
52848W        W14302  43.444  43.769   4.705
52849W        W14303  37.981  39.836   3.268
52850W        W14304  18.221   4.717  10.932
52851W        W14305  39.365  19.093  11.517
52852W        W14306   5.268  17.575  10.462
52853W        W14307  33.942  27.105   0.945
52854W        W14308  40.853  33.532  12.367
52855W        W14309  20.248  10.172  12.389
52856W        W14310  32.636  27.477  14.865
52857W        W14311  41.350  43.407  12.845
52858W        W14312  13.613   6.216  11.396
52859W        W14313  25.063   4.286  13.867
52860W        W14314  31.422  42.513   4.289
52861W        W14315  28.460  11.628  13.500
52862W        W14316  37.571  16.154  11.592
52863W        W14317  42.947  13.119  12.339
52864W        W14318  29.592   8.195  12.844
52865W        W14319  12.122   9.820  13.964
52866W        W14320  32.069   7.898   2.296
52867W        W14321  19.185  38.008   0.282
52868W        W14322   4.419   6.738  12.373
52869W        W14323  16.734  10.361  12.535
52870W        W14324  40.003   6.248  14.464
52871W        W14325  10.779  13.710  13.526
52872W        W14326  23.713  41.321   2.794
52873W        W14327  13.227  42.865   0.828
52874W        W14328  42.785  11.681  13.458
52875W        W14329   9.882  34.031  11.500
52876W        W14330  32.442   9.785  13.052
52877W        W14331   0.923  21.608  10.432
52878W        W14332  13.147  42.293   1.362
52879W        W14333  18.709  28.174  13.928
52880W        W14334   2.359  33.055  12.052
52881W        W14335  27.114  36.394   3.386
52882W        W14336   6.221  11.714   0.740
52883W        W14337  22.598  15.757   2.691
52884W        W14338  17.137  11.192   5.592
52885W        W14339  17.723  28.052   1.694
52886W        W14340  10.353  29.086  14.341
52887W        W14341   8.198  36.066  13.353
52888W        W14342  31.976   2.733   1.901
52889W        W14343  39.533   8.729   3.808
52890W        W14344   8.687  29.006   1.887
52891W        W14345   5.875   7.868  12.361
52892W        W14346  37.931  29.109  10.406
52893W        W14347   6.693  27.455   0.295
52894W        W14348   7.190  43.848  12.014
52895W        W14349  31.911   3.234  14.413
52896W        W14350  30.470  36.511   3.819
52897W        W14351  19.597   8.798  10.071
52898W        W14352   2.869  11.196   1.769
52899W        W14353  37.963  11.819  12.556
52900W        W14354  33.622   2.272  11.878
52901W        W14355   2.908  26.977  11.002
52902W        W14356  33.407  24.046   4.153
52903W        W14357   6.360  11.646  14.443
52904W        W14358  44.481  20.271   2.378
52905W        W14359  33.458  34.526   2.331
52906W        W14360  10.160  17.642   1.795
52907W        W14361  41.353  15.234  13.795
52908W        W14362   2.250   5.325   0.479
52909W        W14363   3.248   0.301   0.267
52910W        W14364  32.486  42.966  11.859
52911W        W14365  41.455   1.799  14.840
52912W        W14366  14.288  15.583  13.870
52913W        W14367  31.081  40.480   2.329
52914W        W14368   6.186  14.641  11.069
52915W        W14369   2.822  28.623  13.917
52916W        W14370  17.732  24.991  10.980
52917W        W14371  43.470  33.015   4.145
52918W        W14372  16.195  15.270   4.820
52919W        W14373  11.290  37.955  12.842
52920W        W14374  14.101   3.913  11.002
52921W        W14375  19.755   7.718  13.889
52922W        W14376  19.568  22.081  14.955
52923W        W14377  35.090   5.241  14.888
52924W        W14378  31.591  19.042   2.391
52925W        W14379   4.816  27.069   4.320
52926W        W14380  16.642  33.056   1.237
52927W        W14381   4.704  17.075  13.979
52928W        W14382   5.425  23.716  10.513
52929W        W14383  22.038  26.097  11.989
52930W        W14384  21.110  37.912  12.558
52931W        W14385  43.880  22.139  13.524
52932W        W14386   8.830  30.922   9.651
52933W        W14387  21.754  30.460   0.406
52934W        W14388  16.087  31.585   1.852
52935W        W14389  25.713  42.304  14.851
52936W        W14390  36.458  44.278  12.386
52937W        W14391  13.249  34.435   1.768
52938W        W14392  33.877   8.365  10.483
52939W        W14393  20.068   9.828  12.855
52940W        W14394  32.596   0.944  11.102
52941W        W14395   1.738  33.883   0.806
52942W        W14396  17.301  29.428  14.934
52943W        W14397  33.419   6.393   0.860
52944W        W14398  23.677  11.157   0.818
52945W        W14399  30.628   3.916  13.008
52946W        W14400  34.942  24.027   3.687
52947W        W14401   1.904  41.414  12.520
52948W        W14402   7.414   5.730  14.898
52949W        W14403  16.676   2.274  10.501
52950W        W14404  18.246  26.518   3.853
52951W        W14405  31.426  29.036   0.434
52952W        W14406  37.427  21.648  12.889
52953W        W14407  20.581  13.708  10.570
52954W        W14408  31.617  37.868   0.313
52955W        W14409   8.233  30.063   9.671
52956W        W14410  22.601  33.609  14.346
52957W        W14411  37.352  32.596   1.433
52958W        W14412  35.864   9.646   1.894
52959W        W14413  21.121   7.306   2.260
52960W        W14414  32.975  27.509  11.604
52961W        W14415  14.708  33.476   1.724
52962W        W14416  19.577  26.993  14.852
52963W        W14417  10.656  39.884  13.444
52964W        W14418  12.757  10.766  13.440
52965W        W14419  42.335  20.254  12.341
52966W        W14420  26.645  19.717   3.320
52967W        W14421  21.656  38.999   2.897
52968W        W14422  38.916  10.851   0.311
52969W        W14423  24.612  39.832  12.340
52970W        W14424   4.699   9.769   0.890
52971W        W14425  23.095   6.717  13.515
52972W        W14426  34.599  32.042  14.364
52973W        W14427  21.224   4.393  12.578
52974W        W14428  28.055  27.081  14.504
52975W        W14429  28.110  41.865   1.881
52976W        W14430  16.198   5.297   3.234
52977W        W14431   1.389  20.589  14.759
52978W        W14432   8.378  44.295   0.325
52979W        W14433  36.381  28.479   0.931
52980W        W14434  29.508  22.217   3.228
52981W        W14435  15.278  25.053  14.918
52982W        W14436   9.346  17.633   0.925
52983W        W14437  43.991  24.104   4.793
52984W        W14438  42.930  43.983   1.211
52985W        W14439   3.845   2.458  14.435
52986W        W14440  10.368  17.679  13.857
52987W        W14441  34.866  39.995  13.950
52988W        W14442  24.127  38.488  13.063
52989W        W14443  39.818  10.867   1.717
52990W        W14444  20.712   0.814   0.928
52991W        W14445  30.655   3.294   1.361
52992W        W14446  21.677  40.449  12.066
52993W        W14447   1.386  25.131   4.637
52994W        W14448   6.376   0.961   0.728
52995W        W14449  20.189   8.833   2.696
52996W        W14450  13.333  27.573  12.029
52997W        W14451  19.230  16.318  13.386
52998W        W14452   5.321  38.380  14.516
52999W        W14453  26.187  20.040  11.887
53000W        W14454  17.717  15.683   3.846
53001W        W14455  38.905  27.612  12.470
53002W        W14456  20.029  32.893   0.381
53003W        W14457  19.275  20.131  13.513
53004W        W14458   9.695  20.273  10.584
53005W        W14459  10.294  22.117   2.721
53006W        W14460  17.616  43.926  14.350
53007W        W14461  17.269  10.837  11.574
53008W        W14462  36.524  14.620   0.778
53009W        W14463  32.085   4.373  12.844
53010W        W14464  24.599  23.708  13.413
53011W        W14465  23.038  15.258   3.719
53012W        W14466  15.171  36.578  14.852
53013W        W14467  42.917   4.273  10.534
53014W        W14468  25.981  11.749  13.941
53015W        W14469   0.270  12.765   1.815
53016W        W14470  22.636  37.571   0.763
53017W        W14471  26.141  25.667  10.989
53018W        W14472  42.784  29.458  10.486
53019W        W14473  28.503  36.853   2.759
53020W        W14474  30.490  22.577  14.831
53021W        W14475  40.341  14.707  12.959
53022W        W14476  24.105  11.358  11.870
53023W        W14477  15.601  11.772  12.019
53024W        W14478  36.851  11.305  11.022
53025W        W14479  26.114  35.375  14.895
53026W        W14480   1.765   1.441  11.112
53027W        W14481  21.261  33.553  13.453
53028W        W14482  11.320   4.869  14.482
53029W        W14483  43.504   4.939   4.835
53030W        W14484   5.270  27.662  14.394
53031W        W14485   7.350  27.632  11.038
53032W        W14486   5.691  30.965  13.432
53033W        W14487  17.210  22.718  11.039
53034W        W14488  11.690  10.269   3.783
53035W        W14489  13.222  33.608   3.674
53036W        W14490  43.479  33.055   3.865
53037W        W14491  12.327   5.374  12.539
53038W        W14492  19.140  35.073   4.750
53039W        W14493   9.367  16.191  11.056
53040W        W14494  20.205  22.721   0.478
53041W        W14495  28.967  27.130   4.232
53042W        W14496  26.109   3.720   0.859
53043W        W14497   0.318  21.735  12.835
53044W        W14498  21.112   5.861  10.640
53045W        W14499   5.320  31.606  13.811
53046W        W14500  32.123  16.683  13.517
53047W        W14501  37.028  12.254  12.055
53048W        W14502  13.706  32.051  12.001
53049W        W14503   9.769  40.500   0.293
53050W        W14504  31.562  14.694  11.564
53051W        W14505  16.775  11.257  12.050
53052W        W14506  31.954   1.914  11.011
53053W        W14507  14.195  13.656   2.359
53054W        W14508  44.847  28.611  14.345
53055W        W14509  27.086  35.454  13.362
53056W        W14510  28.085  32.083  14.359
53057W        W14511  22.741  43.292  11.889
53058W        W14512  43.874  17.660  13.979
53059W        W14513  10.268  31.533   1.696
53060W        W14514  10.763  11.731  12.433
53061W        W14515  13.700  33.952  12.854
53062W        W14516  38.049  25.038  13.358
53063W        W14517  21.112  20.234   3.687
53064W        W14518  43.508  29.980   0.299
53065W        W14519  10.779  41.372   1.405
53066W        W14520  44.978  35.382  10.474
53067W        W14521  38.832   3.780   0.742
53068W        W14522  27.621  42.831   2.860
53069W        W14523  22.205  39.504   3.853
53070W        W14524  44.335  30.437  14.969
53071W        W14525   6.378  21.623  13.510
53072W        W14526  30.140   8.837  10.062
53073W        W14527  36.886  22.085  12.392
53074W        W14528  11.241  21.731  11.557
53075W        W14529  17.218  33.503  10.520
53076W        W14530  40.365  44.008   4.721
53077W        W14531  35.581  42.373   9.592
53078W        W14532  13.694  10.687   4.313
53079W        W14533  29.169   1.389   0.286
53080W        W14534   0.906  28.649  13.548
53081W        W14535   7.794  13.317   4.777
53082W        W14536   0.288  26.606  10.544
53083W        W14537   7.366  42.410  14.507
53084W        W14538  33.978  10.279  14.008
53085W        W14539  28.135  36.354  13.370
53086W        W14540  32.466  15.656  14.401
53087W        W14541  26.206   6.677  11.080
53088W        W14542  29.015  44.960  10.418
53089W        W14543  14.749  21.673  10.555
53090W        W14544  40.911   8.209  14.786
53091W        W14545  35.432  17.664  13.477
53092W        W14546  18.233   5.865   1.266
53093W        W14547  31.033  34.550   5.773
53094W        W14548  21.109   3.393   1.326
53095W        W14549  27.476  16.191   2.303
53096W        W14550  31.118  16.289   0.317
53097W        W14551  26.656  18.775   4.192
53098W        W14552  41.820  30.070  12.422
53099W        W14553  10.817  13.728   4.166
53100W        W14554  44.263  39.941  13.025
53101W        W14555  14.807  11.256   1.748
53102W        W14556   9.689  36.042   0.754
53103W        W14557  17.077  35.006   0.328
53104W        W14558  15.328   3.234   4.815
53105W        W14559   6.388  11.273   4.170
53106W        W14560   0.891  26.645   1.262
53107W        W14561   2.845  33.421   4.781
53108W        W14562  28.047  29.116  12.511
53109W        W14563   6.191  34.460   3.698
53110W        W14564  40.468  12.767   0.326
53111W        W14565  26.958  14.159   1.222
53112W        W14566  39.420  26.998   4.330
53113W        W14567  22.100  44.438  13.812
53114W        W14568   9.213  40.420   1.725
53115W        W14569  26.685  27.514  14.297
53116W        W14570   6.775  30.067  12.917
53117W        W14571  17.640  32.990  11.986
53118W        W14572  27.552  15.105  13.825
53119W        W14573  11.849  28.048  12.893
53120W        W14574  42.901   6.894  12.059
53121W        W14575  38.441  12.300  11.608
53122W        W14576  11.671  31.967  11.059
53123W        W14577  24.551  44.338  14.485
53124W        W14578  13.302  12.680   4.240
53125W        W14579  39.431   6.829   4.731
53126W        W14580   5.224  28.954  12.993
53127W        W14581   3.455  42.989  14.327
53128W        W14582   2.826   4.703  12.556
53129W        W14583  39.850  34.610  10.461
53130W        W14584  23.690  27.619   4.816
53131W        W14585  32.418  38.415  13.339
53132W        W14586  23.522  23.994  13.053
53133W        W14587  27.020  18.088   2.674
53134W        W14588  40.421  22.646  10.017
53135W        W14589  26.550  27.966   1.704
53136W        W14590  34.054  40.420  10.517
53137W        W14591  10.750  34.498   2.338
53138W        W14592  10.784   4.213   0.852
53139W        W14593  28.577   8.232   1.873
53140W        W14594  31.922  30.967  11.014
53141W        W14595  13.640  35.571  14.378
53142W        W14596  10.188  25.117   4.238
53143W        W14597  36.496  23.713  10.523
53144W        W14598  40.528  27.640  14.957
53145W        W14599  29.501  28.444  13.873
53146W        W14600  30.160  13.341   1.750
53147W        W14601  40.836   8.310   2.357
53148W        W14602  20.128  41.304  10.018
53149W        W14603   0.902  38.402  14.509
53150W        W14604  34.469  31.492  11.886
53151W        W14605  22.108  40.922  12.089
53152W        W14606  18.293  25.112   0.736
53153W        W14607   0.965  39.545   1.697
53154W        W14608  44.985  39.546   3.871
53155W        W14609   2.454   1.446  13.453
53156W        W14610  32.057  18.643   5.241
53157W        W14611   5.339  31.551  12.993
53158W        W14612  29.055   7.300  14.416
53159W        W14613  33.530  30.512   1.716
53160W        W14614  16.685  33.121  11.106
53161W        W14615   7.317  32.486   3.724
53162W        W14616  34.975  25.554  11.560
53163W        W14617  42.029  19.736  11.022
53164W        W14618   7.230  29.041  12.896
53165W        W14619  38.499  39.950   2.672
53166W        W14620  24.630   7.215   9.951
53167W        W14621  41.474  11.268   3.189
53168W        W14622  13.215  39.907   3.319
53169W        W14623  38.451  31.477  11.390
53170W        W14624  27.619  43.483   0.415
53171W        W14625  35.565  43.909  10.550
53172W        W14626  11.176  25.557  12.504
53173W        W14627  40.506  30.943   2.819
53174W        W14628   6.876  42.853   4.761
53175W        W14629   2.306  11.657   2.313
53176W        W14630  15.799  32.599   3.354
53177W        W14631  26.493  22.118   3.220
53178W        W14632   1.739  26.460   1.324
53179W        W14633  21.699  33.383  13.806
53180W        W14634  18.136  16.084  12.997
53181W        W14635  14.238  22.560  12.366
53182W        W14636  26.472  39.851  12.054
53183W        W14637  17.169   3.460  14.894
53184W        W14638  29.627  24.180   1.305
53185W        W14639  12.810  20.251   1.423
53186W        W14640  20.186  13.616  14.387
53187W        W14641  15.088  10.779   4.350
53188W        W14642  22.717   5.435  14.983
53189W        W14643  12.620  33.117  11.040
53190W        W14644  14.753   8.870  14.480
53191W        W14645  13.183  11.253  10.499
53192W        W14646  41.482  28.562   4.654
53193W        W14647  42.340  26.118   2.259
53194W        W14648   8.763  42.402   2.802
53195W        W14649   0.940  34.962   3.193
53196W        W14650  43.969  20.145   1.824
53197W        W14651  13.118  25.044  12.433
53198W        W14652   8.220  39.397  10.547
53199W        W14653  31.436  28.554   4.711
53200W        W14654  17.112   4.809  14.396
53201W        W14655  18.158   3.817  14.967
53202W        W14656  33.419  21.566   3.173
53203W        W14657  41.020  26.112  12.971
53204W        W14658  43.801   3.890   0.795
53205W        W14659   7.810  34.053   0.329
53206W        W14660   2.909  44.812  11.601
53207W        W14661  15.093  27.016   1.357
53208W        W14662  24.016  22.725  13.890
53209W        W14663  10.272   9.806  10.423
53210W        W14664  34.476  12.667   4.676
53211W        W14665   0.266  25.980  10.888
53212W        W14666  31.097  37.574   0.256
53213W        W14667  42.977  30.508   4.712
53214W        W14668  33.047   0.762   3.190
53215W        W14669  23.120  24.555  13.856
53216W        W14670  10.658  13.657   3.259
53217W        W14671  38.480  23.560   4.221
53218W        W14672  15.195  23.668  14.447
53219W        W14673   0.389   4.308   4.167
53220W        W14674   8.780  13.671  11.977
53221W        W14675   3.258  38.511   0.880
53222W        W14676  11.690  27.597   2.188
53223W        W14677  18.097  15.300  14.313
53224W        W14678  34.523  32.501   2.273
53225W        W14679  23.040  40.984  13.342
53226W        W14680  38.968   8.379  13.386
53227W        W14681  31.532  16.279   4.331
53228W        W14682  12.852  34.398  12.954
53229W        W14683  13.643  33.985  13.418
53230W        W14684  32.894  24.149   2.891
53231W        W14685  34.561   2.442   2.665
53232W        W14686  32.429  44.306  12.530
53233W        W14687  44.002  19.773   4.121
53234W        W14688  10.744  33.554   4.645
53235W        W14689  41.522  24.127   4.608
53236W        W14690  27.625  37.894  14.964
53237W        W14691  34.469  22.164   1.417
53238W        W14692   6.794  20.159   3.849
53239W        W14693   9.177  19.656  10.513
53240W        W14694  35.564  11.702   0.335
53241W        W14695  41.340  41.787   3.726
53242W        W14696  19.563  17.777   4.241
53243W        W14697   4.786  37.066  12.912
53244W        W14698   7.415   6.233   3.636
53245W        W14699  18.197  36.547   2.801
53246W        W14700  17.633  12.170   1.709
53247W        W14701   5.792  26.142   3.775
53248W        W14702   4.378  15.675   3.741
53249W        W14703  41.318  41.428  11.552
53250W        W14704  31.929   2.734   1.214
53251W        W14705  27.452   8.326  11.461
53252W        W14706  24.146  22.119   1.234
53253W        W14707  30.090   2.884  10.916
53254W        W14708  20.524  39.830  14.509
53255W        W14709  44.763  44.889   0.747
53256W        W14710   8.706  22.059   4.619
53257W        W14711  41.948   2.225   1.753
53258W        W14712  28.653  29.152   1.882
53259W        W14713  30.995  34.444  13.932
53260W        W14714  29.501  29.153   3.269
53261W        W14715   9.195  29.595   9.949
53262W        W14716  35.864   5.862  13.060
53263W        W14717  27.032   4.831   4.825
53264W        W14718  16.795  32.606  14.368
53265W        W14719  22.210  37.835   0.962
53266W        W14720   6.422  15.717   2.281
53267W        W14721  23.219  35.099  11.032
53268W        W14722   9.203   2.270  13.850
53269W        W14723  41.522  14.685  11.489
53270W        W14724  29.462  16.624   1.920
53271W        W14725   7.364  40.421  11.095
53272W        W14726  30.445  36.445  12.948
53273W        W14727  23.685   9.696   3.841
53274W        W14728   6.290  25.113  12.467
53275W        W14729  20.686  40.014  12.946
53276W        W14730  13.834  39.369  14.853
53277W        W14731   3.888   8.243  12.092
53278W        W14732  39.477  31.989   0.953
53279W        W14733  30.610  42.510  13.336
53280W        W14734   5.916  36.088   0.898
53281W        W14735  10.236  16.601   5.203
53282W        W14736  40.483  37.391   1.441
53283W        W14737   2.397  12.732  11.471
53284W        W14738   7.730  10.266  13.442
53285W        W14739  34.951   7.245  13.312
53286W        W14740  11.780  24.989   5.164
53287W        W14741  43.783  22.154   0.407
53288W        W14742  13.340  18.714   1.742
53289W        W14743   4.811   3.856  13.030
53290W        W14744  22.654  24.003   9.940
53291W        W14745  11.704   9.871   0.773
53292W        W14746  32.409  10.169  13.420
53293W        W14747  23.080  12.270  12.004
53294W        W14748   5.747  10.227  14.476
53295W        W14749  42.794  43.905   0.268
53296W        W14750   9.201  10.644   2.292
53297W        W14751  40.907  14.595  11.528
53298W        W14752   6.918  13.783   1.848
53299W        W14753  29.667  31.122  10.471
53300W        W14754  23.619  26.630  13.849
53301W        W14755   8.176  32.948   2.351
53302W        W14756  29.562  20.210  14.363
53303W        W14757  31.463  22.170  14.880
53304W        W14758  44.927  14.770   0.432
53305W        W14759  24.673  24.122   0.390
53306W        W14760  18.289  42.412   1.707
53307W        W14761  17.788  20.135  11.426
53308W        W14762  21.053  13.330   0.745
53309W        W14763  38.363  18.737   0.836
53310W        W14764  33.455  27.040   9.980
53311W        W14765  10.845  31.146   0.452
53312W        W14766  41.838   7.805   0.963
53313W        W14767   7.729  29.430  10.415
53314W        W14768  16.675  18.627  13.965
53315W        W14769  39.845   7.197  14.952
53316W        W14770  23.075  10.209   2.361
53317W        W14771  23.984  38.988   2.896
53318W        W14772  44.310  28.585   4.212
53319W        W14773  35.036  20.601  10.565
53320W        W14774  35.505  29.600   0.952
53321W        W14775  31.980  36.054   4.618
53322W        W14776  11.761  26.979   2.221
53323W        W14777   1.435  43.496  10.993
53324W        W14778   9.724  18.076   0.247
53325W        W14779   4.286   0.471  11.044
53326W        W14780  24.582  26.195  10.636
53327W        W14781  23.496  27.053  14.009
53328W        W14782   0.302  37.362   4.315
53329W        W14783  32.041  35.451  10.521
53330W        W14784  35.546  43.963   1.391
53331W        W14785   5.381  34.475  11.980
53332W        W14786  15.298   9.171  11.571
53333W        W14787  35.519   6.378  10.566
53334W        W14788   7.418  33.081   3.827
53335W        W14789  38.542  38.442   2.358
53336W        W14790  25.030  27.082  11.046
53337W        W14791  15.823   0.330   2.418
53338W        W14792   9.660  14.729   2.315
53339W        W14793  30.548  38.350  14.453
53340W        W14794  21.685  16.572   2.767
53341W        W14795  13.630  31.070  14.482
53342W        W14796   0.349   2.369  11.869
53343W        W14797   7.183  12.116  13.944
53344W        W14798  37.341  22.630  10.922
53345W        W14799  34.071  18.266  11.005
53346W        W14800  21.260  33.095  11.102
53347W        W14801  38.425   1.916   0.928
53348W        W14802  42.411   1.917  10.484
53349W        W14803   4.205  20.073  10.433
53350W        W14804  38.354  13.112  12.577
53351W        W14805  17.800  27.031  10.903
53352W        W14806  41.494   2.779  13.818
53353W        W14807   7.406  10.729  13.515
53354W        W14808  44.949   1.939  11.027
53355W        W14809   2.774  17.653  13.872
53356W        W14810  35.075  43.898  10.937
53357W        W14811   1.931  12.262   0.782
53358W        W14812  26.669  35.944  11.033
53359W        W14813  11.326  34.572  14.999
53360W        W14814   0.755  39.420   0.465
53361W        W14815  40.815   3.852  14.818
53362W        W14816   2.346  43.773  12.998
53363W        W14817  13.154  41.323  10.908
53364W        W14818  25.667  19.082  11.947
53365W        W14819  42.449   0.954   1.915
53366W        W14820   6.228  44.009  14.824
53367W        W14821  12.674  10.200   3.196
53368W        W14822  31.618  18.577  11.903
53369W        W14823  42.913   5.812   0.320
53370W        W14824  36.575  37.950   5.637
53371W        W14825   7.179  40.971   3.701
53372W        W14826  22.682  44.821  10.551
53373W        W14827  37.911   1.751  11.584
53374W        W14828  25.510   9.726   0.966
53375W        W14829  39.492  43.412   2.753
53376W        W14830  20.076  32.412  13.345
53377W        W14831  25.708  29.663  12.470
53378W        W14832  16.240  15.628  14.906
53379W        W14833  35.566   7.247   3.701
53380W        W14834  40.881  29.080  12.046
53381W        W14835  21.543  33.487  11.596
53382W        W14836  14.102  28.160   1.705
53383W        W14837  12.222   0.432  12.407
53384W        W14838  25.964  13.662  14.892
53385W        W14839  39.371  28.106  13.014
53386W        W14840  43.915  33.901  11.496
53387W        W14841   0.986  35.879   1.776
53388W        W14842   5.822   3.353   2.674
53389W        W14843  13.258   9.291  14.494
53390W        W14844  42.468  10.852  12.091
53391W        W14845  17.198   3.788   4.171
53392W        W14846  14.676   6.690  11.561
53393W        W14847   3.347  41.039   4.142
53394W        W14848  39.347  41.425   5.186
53395W        W14849  34.473  38.330   1.860
53396W        W14850   5.708  17.681   2.822
53397W        W14851  24.206  25.488  13.329
53398W        W14852  26.627   8.740   1.730
53399W        W14853  23.664  28.974  14.846
53400W        W14854   2.741  21.555   0.432
53401W        W14855   0.362  11.160  14.922
53402W        W14856  16.241  44.951   3.706
53403W        W14857   2.309  18.281   0.839
53404W        W14858  12.769  11.680  13.358
53405W        W14859  29.928  40.442   1.786
53406W        W14860  19.741  26.167   1.734
53407W        W14861  15.730  21.028   0.481
53408W        W14862   0.815  29.636  12.046
53409W        W14863  13.312  11.796  11.990
53410W        W14864  30.632  17.725  13.441
53411W        W14865  26.634  29.029   0.451
53412W        W14866  42.872  20.627   0.966
53413W        W14867  18.230  39.960   4.301
53414W        W14868  42.439  37.036  12.011
53415W        W14869  15.252  27.944  11.551
53416W        W14870  37.926   2.437   2.295
53417W        W14871  12.713  36.040   0.298
53418W        W14872   5.931  21.542  12.086
53419W        W14873  26.119  21.708   2.401
53420W        W14874  44.301   0.472   2.234
53421W        W14875  36.348  24.687   2.297
53422W        W14876   8.278  22.513  13.821
53423W        W14877   1.909  34.942   2.700
53424W        W14878  44.796  12.153  12.364
53425W        W14879  33.567  44.434   2.901
53426W        W14880   2.728   2.955  12.574
53427W        W14881  33.490  14.785   2.728
53428W        W14882  12.613   6.917  11.605
53429W        W14883   7.376  15.801   2.271
53430W        W14884  13.271   7.870   2.811
53431W        W14885   4.352  40.878   1.698
53432W        W14886  22.745  13.133  10.418
53433W        W14887  22.084  17.652   1.420
53434W        W14888  41.472  31.436  11.045
53435W        W14889  37.964  26.531  12.397
53436W        W14890  18.715  31.105   4.220
53437W        W14891  17.307  24.010  11.575
53438W        W14892  24.714   0.830  13.467
53439W        W14893  38.003  27.577  11.050
53440W        W14894   9.338  19.722  10.129
53441W        W14895  14.265  31.409  11.608
53442W        W14896   3.409   9.356   3.263
53443W        W14897  27.649  28.601   3.840
53444W        W14898  42.931   0.301   1.378
53445W        W14899  30.563  25.173  10.556
53446W        W14900  19.704  11.300  13.467
53447W        W14901   2.765  23.670  11.116
53448W        W14902  42.966  32.482   0.327
53449W        W14903  15.663  30.943   3.647
53450W        W14904  41.377  17.642  13.809
53451W        W14905  19.737  43.362   4.325
53452W        W14906  37.889  33.890  13.361
53453W        W14907   8.320  27.045  11.862
53454W        W14908  31.980  27.048   3.732
53455W        W14909  31.534  14.817  13.468
53456W        W14910   5.241  32.040  10.908
53457W        W14911  19.705  42.331   0.907
53458W        W14912  35.099  37.939   1.816
53459W        W14913  15.648  12.267  14.303
53460W        W14914  24.696  35.491  11.560
53461W        W14915  11.693  10.295  12.849
53462W        W14916   6.276  31.027   2.733
53463W        W14917  44.893  11.293  12.976
53464W        W14918  19.263  20.630  11.075
53465W        W14919  25.577   6.745   1.778
53466W        W14920   2.881  39.422  10.419
53467W        W14921  20.161  19.225  13.544
53468W        W14922  29.529  11.767   3.709
53469W        W14923  34.533  23.573  11.124
53470W        W14924   4.319  26.584  13.012
53471W        W14925  26.601  18.239   2.662
53472W        W14926  29.023  43.406   1.856
53473W        W14927  10.203  37.529  11.456
53474W        W14928  11.182  12.319   0.756
53475W        W14929  37.339  24.172  12.997
53476W        W14930  32.426  22.549  13.361
53477W        W14931  18.632  26.578  13.947
53478W        W14932  22.155  36.448   4.229
53479W        W14933  26.531  21.121   4.760
53480W        W14934   9.303  18.629  13.346
53481W        W14935   1.475  40.339  13.400
53482W        W14936  33.002  43.821   1.340
53483W        W14937  21.654  38.905   2.242
53484W        W14938  32.988  37.030  12.035
53485W        W14939  16.097  11.182   4.712
53486W        W14940  36.870   3.273  13.850
53487W        W14941  41.868  42.813  13.854
53488W        W14942  27.489  28.459   0.372
53489W        W14943  19.582  14.244   4.655
53490W        W14944   9.203   4.332   4.277
53491W        W14945  40.323  39.874  13.017
53492W        W14946  32.405  42.021   1.746
53493W        W14947  15.670  29.020  13.348
53494W        W14948  36.409  13.778  11.403
53495W        W14949   1.748  23.186   2.194
53496W        W14950  39.523  14.621   2.891
53497W        W14951  33.597  32.400  10.954
53498W        W14952  12.713   3.448  12.083
53499W        W14953  22.720  33.061  14.298
53500W        W14954  34.436  44.926  13.809
53501W        W14955  11.214  42.493  10.925
53502W        W14956   7.760   3.239  14.985
53503W        W14957  26.559   1.389  10.422
53504W        W14958  34.468  12.786   3.168
53505W        W14959  12.338  22.556   1.774
53506W        W14960  32.934  27.481  12.408
53507W        W14961  40.372  17.649   4.728
53508W        W14962  22.111  30.053   1.293
53509W        W14963  18.220  18.676   0.830
53510W        W14964  36.017  35.929  12.931
53511W        W14965   4.385  35.868  14.003
53512W        W14966   3.418  13.780   2.853
53513W        W14967  31.544  15.809   3.702
53514W        W14968  31.451   7.848  10.591
53515W        W14969  19.156  14.210  11.391
53516W        W14970  30.526   1.855  11.972
53517W        W14971   9.242  32.449  14.357
53518W        W14972   2.725  19.215  10.561
53519W        W14973  22.625  15.625  14.012
53520W        W14974  21.746   0.932  11.897
53521W        W14975   8.325  37.883   3.806
53522W        W14976  34.523  43.301  12.904
53523W        W14977  40.512  42.899  11.458
53524W        W14978  27.477   5.421  10.039
53525W        W14979   6.251  18.227   3.229
53526W        W14980  31.081  14.623   2.302
53527W        W14981  43.398  16.298  12.468
53528W        W14982  40.402   3.247  13.915
53529W        W14983  38.057  25.103   1.343
53530W        W14984  16.579   8.377   2.394
53531W        W14985  21.558  44.455   3.800
53532W        W14986   2.836   1.430   2.896
53533W        W14987  31.942  17.209   4.183
53534W        W14988  40.405   6.309  14.384
53535W        W14989   5.307  41.850   0.300
53536W        W14990  11.249  23.163   4.763
53537W        W14991  22.612  38.994  13.984
53538W        W14992  11.265   3.932   3.847
53539W        W14993  10.840   1.788   4.223
53540W        W14994   7.347  43.422  14.958
53541W        W14995  18.566  18.123   1.718
53542W        W14996   9.192  12.134   1.280
53543W        W14997  35.358  15.690   1.723
53544W        W14998  33.562  23.161   1.222
53545W        W14999  43.460  13.219  10.613
53546W        W15000  11.229  18.580  13.481
53547W        W15001  39.529  21.537   2.680
53548W        W15002   7.886   4.720  11.974
53549W        W15003  44.343  19.588  13.957
53550W        W15004  33.943   0.481   0.736
53551W        W15005  10.176  11.679  11.983
53552W        W15006  10.823  30.925   4.702
53553W        W15007  19.255  33.529  10.645
53554W        W15008   9.669  16.654   3.216
53555W        W15009  21.098  25.714  12.961
53556W        W15010   5.312  10.269  12.037
53557W        W15011  41.467  32.941   1.296
53558W        W15012  39.421  34.463   2.339
53559W        W15013  28.082   0.768  11.980
53560W        W15014  14.739   7.842  13.309
53561W        W15015  12.274  18.228   9.924
53562W        W15016  10.737  28.980   2.385
53563W        W15017   7.836  29.627   3.282
53564W        W15018  29.931  15.097  12.553
53565W        W15019  37.029  14.720  13.848
53566W        W15020   0.255  37.919   4.257
53567W        W15021   0.313  24.490  12.986
53568W        W15022  18.163  21.059   0.391
53569W        W15023   6.908  42.487   4.718
53570W        W15024  44.416   2.907   3.192
53571W        W15025  13.838   7.198   2.236
53572W        W15026   3.355  11.180  12.926
53573W        W15027  36.015  26.530   2.740
53574W        W15028  11.185  11.284   3.706
53575W        W15029  11.273  11.304  13.338
53576W        W15030  21.033   6.780  12.854
53577W        W15031   6.200  22.022   1.898
53578W        W15032  12.127  29.077   0.421
53579W        W15033  19.161   9.382  14.795
53580W        W15034  12.792  43.019  11.113
53581W        W15035   5.818  40.507  13.336
53582W        W15036   4.723  21.149   0.921
53583W        W15037  15.718  10.322   0.453
53584W        W15038  21.079  17.791  11.023
53585W        W15039  18.057  27.963   2.268
53586W        W15040  42.010  36.042  10.003
53587W        W15041  13.226  42.871  13.902
53588W        W15042  26.480  13.267   2.186
53589W        W15043  26.498  11.193  13.853
53590W        W15044  43.505  22.100   3.356
53591W        W15045   4.343  10.722  12.381
53592W        W15046  14.244   2.350   3.162
53593W        W15047  38.018  28.107   3.830
53594W        W15048  31.570  26.615   4.597
53595W        W15049  24.589   0.411  11.029
53596W        W15050  27.611  36.487   5.590
53597W        W15051  41.510  36.026   1.400
53598W        W15052   2.371   0.762  14.761
53599W        W15053  42.959   4.827   0.766
53600W        W15054   9.807  22.518   1.860
53601W        W15055  40.311  11.300   4.610
53602W        W15056  35.040  39.913  11.988
53603W        W15057  13.707  17.205   4.630
53604W        W15058  37.983  42.326  14.500
53605W        W15059   5.897  33.113   0.728
53606W        W15060  32.546   6.238  12.870
53607W        W15061  37.082  37.081  11.965
53608W        W15062  39.854   3.445   1.372
53609W        W15063  26.558  32.142   3.370
53610W        W15064  15.312  20.167   9.960
53611W        W15065  44.491   0.948   4.810
53612W        W15066  28.583   0.816  12.515
53613W        W15067  35.019   5.897   4.138
53614W        W15068  42.786  33.089  11.448
53615W        W15069  24.118   3.728   2.843
53616W        W15070  35.037  28.535   0.795
53617W        W15071   6.713  30.149   3.358
53618W        W15072  29.981  14.747  14.849
53619W        W15073   0.846  28.068  11.900
53620W        W15074  32.413  24.137   0.834
53621W        W15075  42.945  15.679  14.378
53622W        W15076   8.259  29.020   1.723
53623W        W15077  18.690  34.037  12.891
53624W        W15078   0.806   7.400  11.557
53625W        W15079  18.685  22.242   0.917
53626W        W15080  26.194  34.447  13.392
53627W        W15081  35.402   6.819   2.190
53628W        W15082  43.990  17.129   1.878
53629W        W15083  34.472  23.005   1.338
53630W        W15084   0.345  41.446  11.983
53631W        W15085  25.195  33.569   1.257
53632W        W15086  40.314  26.543  13.531
53633W        W15087  32.114  14.689  14.929
53634W        W15088  42.901  32.518  13.955
53635W        W15089  26.464   8.402   1.376
53636W        W15090  13.744  20.162   0.769
53637W        W15091  26.104   9.713   1.863
53638W        W15092  41.799  40.359  11.387
53639W        W15093  24.520   2.948   9.614
53640W        W15094  44.271  10.720  14.474
53641W        W15095   1.280  37.427  12.556
53642W        W15096  16.575  34.903   2.232
53643W        W15097  39.420  36.460   4.276
53644W        W15098   4.882  13.742  12.072
53645W        W15099  16.126  26.641  12.826
53646W        W15100  34.110  16.743  10.576
53647W        W15101  14.806  27.455  10.633
53648W        W15102   9.839   4.283   1.752
53649W        W15103  41.941   2.835   1.300
53650W        W15104  22.127   8.231   0.851
53651W        W15105   4.699   7.888  10.944
53652W        W15106   6.227  44.313   2.878
53653W        W15107  16.728  29.050  14.495
53654W        W15108  14.322  42.424  12.856
53655W        W15109  22.736  34.973   1.273
53656W        W15110  18.574   2.413  11.451
53657W        W15111   5.383   4.732  13.802
53658W        W15112  18.719   1.893   2.182
53659W        W15113  34.587  32.915  12.827
53660W        W15114  43.852   2.240   3.654
53661W        W15115  31.939  14.252  10.606
53662W        W15116   2.378  29.924  13.797
53663W        W15117  37.422  23.058  12.058
53664W        W15118  16.176   9.754   2.853
53665W        W15119  25.575  28.032  12.007
53666W        W15120  22.061  41.813   4.772
53667W        W15121  37.396   2.362  12.930
53668W        W15122  14.721  41.839   4.277
53669W        W15123  40.968  36.585  11.093
53670W        W15124   9.862  19.179   4.817
53671W        W15125  18.579  43.802  14.828
53672W        W15126  17.174  24.975   2.345
53673W        W15127  20.162  30.132   0.963
53674W        W15128  30.944  32.535   3.353
53675W        W15129  33.497   8.726   2.818
53676W        W15130  15.301  14.751  14.414
53677W        W15131  26.634   4.232  14.435
53678W        W15132  35.552  32.976  10.562
53679W        W15133  31.944  38.535   3.835
53680W        W15134   1.237   9.755  10.597
53681W        W15135  22.169  29.590  12.833
53682W        W15136  27.136  25.548  10.909
53683W        W15137   3.260   0.266  13.540
53684W        W15138  19.074  14.609   4.676
53685W        W15139  44.435  27.660   4.618
53686W        W15140  23.139  40.471  11.554
53687W        W15141  27.670  36.063  14.807
53688W        W15142   5.339  38.066   3.186
53689W        W15143  17.710   7.749   1.386
53690W        W15144  35.404  34.041   3.818
53691W        W15145  11.301  44.316  11.543
53692W        W15146   4.290  16.250  12.509
53693W        W15147  10.800  28.051   0.801
53694W        W15148  44.944  19.596  13.395
53695W        W15149  15.237  41.337  11.580
53696W        W15150  33.100   6.825  14.503
53697W        W15151  20.705   2.428   0.469
53698W        W15152   4.441  24.090  13.463
53699W        W15153  11.843  35.098  12.068
53700W        W15154   3.254  12.124  13.856
53701W        W15155  44.440  36.942  12.369
53702W        W15156   8.723  31.123  12.836
53703W        W15157  32.973  31.600  12.080
53704W        W15158  25.643  33.565  13.812
53705W        W15159  24.618  41.010   2.265
53706W        W15160  39.845  23.008  11.477
53707W        W15161  19.251  35.959   1.222
53708W        W15162   6.193  19.234  14.896
53709W        W15163  41.342   8.892   4.681
53710W        W15164   2.809   1.966   2.843
53711W        W15165  13.786  30.533  14.366
53712W        W15166  24.521  40.429  12.421
53713W        W15167  13.681  40.958  11.477
53714W        W15168   1.408  37.464   0.329
53715W        W15169  34.025  19.192  14.477
53716W        W15170  33.482  26.011   5.235
53717W        W15171  20.655   6.195  11.029
53718W        W15172  31.488  10.206   4.687
53719W        W15173   3.418   3.346  14.367
53720W        W15174   6.401   6.811  12.357
53721W        W15175  11.826  18.289  11.915
53722W        W15176  44.398  18.683  10.606
53723W        W15177  28.575  33.900  14.822
53724W        W15178  22.244   9.724  12.346
53725W        W15179  37.999  16.590   0.428
53726W        W15180   1.803  10.670   4.802
53727W        W15181  41.918  19.535  14.374
53728W        W15182  13.161  38.984  14.775
53729W        W15183  13.283   6.270  11.059
53730W        W15184  37.454  27.478   4.623
53731W        W15185  39.475  31.907   3.377
53732W        W15186  23.094  40.531   2.190
53733W        W15187  28.072  37.575  13.527
53734W        W15188  35.528  37.990   0.378
53735W        W15189  18.684   8.755   9.930
53736W        W15190  38.898  28.669  13.438
53737W        W15191  16.748  27.135   3.191
53738W        W15192  30.019  24.203  13.367
53739W        W15193  30.491  20.687  12.855
53740W        W15194  43.309  31.017  12.478
53741W        W15195  35.953  26.085   2.217
53742W        W15196  32.469  27.527  10.455
53743W        W15197  17.780  10.308   1.695
53744W        W15198  10.319   8.670   5.093
53745W        W15199  10.689  23.719  11.908
53746W        W15200  25.626   8.767  10.559
53747W        W15201  26.107  26.117  12.382
53748W        W15202  10.344   2.251  11.405
53749W        W15203  40.323  25.521  14.355
53750W        W15204  14.155  19.039   3.739
53751W        W15205  23.536  42.932  12.562
53752W        W15206  43.326  39.537  13.548
53753W        W15207  15.299  30.510  10.892
53754W        W15208  24.061   8.802   5.103
53755W        W15209  20.663  28.133   2.185
53756W        W15210  34.037  38.366  11.411
53757W        W15211  23.696   5.765  11.024
53758W        W15212  28.615   2.257   0.932
53759W        W15213  14.725  44.336   3.259
53760W        W15214  23.554  18.103   1.448
53761W        W15215  25.139  39.850   1.324
53762W        W15216  38.044  27.527   2.757
53763W        W15217   1.805  39.466   4.293
53764W        W15218   6.806  36.036  11.039
53765W        W15219  39.842  40.410   4.137
53766W        W15220  27.039  20.167  10.942
53767W        W15221  34.017  34.980  14.410
53768W        W15222  18.753  14.794   1.346
53769W        W15223  37.964   3.720   4.668
53770W        W15224  41.982  39.534  10.485
53771W        W15225  19.069   9.270   4.617
53772W        W15226   0.488   9.201   4.226
53773W        W15227  14.701  23.648  13.499
53774W        W15228  36.096  37.929   4.207
53775W        W15229  29.154  42.447  11.082
53776W        W15230  18.661  44.962  11.583
53777W        W15231  16.150  33.577   1.781
53778W        W15232  18.096  34.092   0.296
53779W        W15233  11.712  39.375   4.118
53780W        W15234  10.186  18.621  13.456
53781W        W15235   0.964  35.933  12.457
53782W        W15236  17.143  12.268  14.774
53783W        W15237  22.667   2.830  11.932
53784W        W15238  20.218  20.545  14.770
53785W        W15239  30.596  24.523  13.913
53786W        W15240  26.136  15.738  11.403
53787W        W15241  27.607  36.546   4.601
53788W        W15242  43.444  17.065  13.396
53789W        W15243  38.955  36.948  11.484
53790W        W15244   5.780  22.678  10.942
53791W        W15245  20.597  37.083   4.759
53792W        W15246  24.143   6.382   3.195
53793W        W15247  40.801  37.507   2.295
53794W        W15248  23.653  13.801   0.269
53795W        W15249   7.206   2.916   3.821
53796W        W15250  10.242  35.967   1.809
53797W        W15251  37.569   6.339   0.921
53798W        W15252  35.051  17.140  14.503
53799W        W15253  12.341  16.173   2.297
53800W        W15254  30.500  23.651  14.279
53801W        W15255  21.702  37.068   3.341
53802W        W15256   3.947   7.286   3.802
53803W        W15257  36.587  12.332  10.466
53804W        W15258  41.019  34.957   3.377
53805W        W15259  23.032   7.231   2.743
53806W        W15260  20.259  15.248   3.651
53807W        W15261  14.831  42.804  13.383
53808W        W15262  11.868  41.520  13.502
53809W        W15263   7.703   5.737  14.859
53810W        W15264  33.125  19.537  11.114
53811W        W15265   5.315   1.775   5.201
53812W        W15266   0.976  12.125   3.271
53813W        W15267  33.505  31.624  12.560
53814W        W15268  17.653  22.226   1.798
53815W        W15269  36.941  33.414   2.811
53816W        W15270   7.300   5.753   2.322
53817W        W15271   4.437  32.032   4.626
53818W        W15272   3.920  35.522  11.963
53819W        W15273   2.736  10.143   0.266
53820W        W15274  10.643  29.954   1.212
53821W        W15275   8.865  28.136  13.825
53822W        W15276  18.576  12.256  12.933
53823W        W15277  19.724   5.704  12.554
53824W        W15278  19.262   9.225   1.388
53825W        W15279  19.040  11.665  10.569
53826W        W15280  13.711  39.924  11.040
53827W        W15281  19.136  27.462   4.614
53828W        W15282  41.836  31.997  11.598
53829W        W15283  30.521  14.794  10.480
53830W        W15284   2.891  20.215  12.046
53831W        W15285  22.706  42.900  12.879
53832W        W15286   2.315  31.570  10.479
53833W        W15287  11.330  26.208   0.922
53834W        W15288  25.557  31.147   1.829
53835W        W15289   2.775  28.034   1.407
53836W        W15290  32.980  14.246  11.086
53837W        W15291   2.306  21.577   1.263
53838W        W15292  35.604  41.818   0.916
53839W        W15293  19.070  19.709   4.683
53840W        W15294  15.107   2.783  10.514
53841W        W15295   4.340  11.739  13.013
53842W        W15296  10.235   9.228   0.291
53843W        W15297  22.636  34.938  10.445
53844W        W15298  44.882   3.723  13.845
53845W        W15299   7.260  20.758  14.431
53846W        W15300  40.539  38.887  12.953
53847W        W15301   3.361  36.936   3.698
53848W        W15302  37.495  32.070  11.493
53849W        W15303  44.263  23.544   2.826
53850W        W15304  41.462  22.731   0.433
53851W        W15305  39.986  40.433   1.301
53852W        W15306  37.423   6.200  12.982
53853W        W15307   5.822   5.750  12.574
53854W        W15308  21.621  28.445   4.724
53855W        W15309  16.254  40.823  10.471
53856W        W15310   5.708  44.452   4.616
53857W        W15311  29.134   9.675  12.046
53858W        W15312   2.876   2.408   0.463
53859W        W15313   4.446  19.558   1.408
53860W        W15314  17.737   1.771  11.978
53861W        W15315  22.640  25.507   4.715
53862W        W15316  29.626   6.391  11.570
53863W        W15317   3.838   5.802  10.992
53864W        W15318   8.659  35.446  12.433
53865W        W15319  41.830  21.225   2.406
53866W        W15320  42.325  44.444   2.850
53867W        W15321  24.142  29.649  12.964
53868W        W15322  15.162  15.778  10.429
53869W        W15323   6.195  15.097  12.421
53870W        W15324  41.428   1.272  11.069
53871W        W15325   5.802  34.966   4.304
53872W        W15326  28.656   1.821   1.252
53873W        W15327  22.508  21.087   2.830
53874W        W15328  36.925   6.308  14.837
53875W        W15329  28.144  15.753   5.318
53876W        W15330  36.558   5.721   1.849
53877W        W15331  31.020  25.600  13.325
53878W        W15332  32.090   8.701   4.687
53879W        W15333   9.881   5.373   3.367
53880W        W15334   3.257  15.765   0.417
53881W        W15335  44.968  18.758  13.057
53882W        W15336  16.791  21.551   2.818
53883W        W15337  40.046  25.662  12.869
53884W        W15338  13.641  34.937  10.592
53885W        W15339  40.967  22.745  14.492
53886W        W15340  31.596  38.524  12.890
53887W        W15341  42.411  39.389  14.809
53888W        W15342  36.556  18.235   0.909
53889W        W15343   0.315  10.766   4.115
53890W        W15344  36.524  26.052   1.312
53891W        W15345  16.246  41.494  13.998
53892W        W15346  23.516  14.832  11.011
53893W        W15347  15.243   7.830  11.484
53894W        W15348   5.350  13.673  11.996
53895W        W15349  44.809  20.698   2.851
53896W        W15350   3.273  32.110   0.459
53897W        W15351  20.693  26.149   3.235
53898W        W15352   9.792   4.424   2.805
53899W        W15353  15.113  31.904  11.563
53900W        W15354   4.944  41.005   3.850
53901W        W15355  35.504  40.029   5.194
53902W        W15356   1.390  43.779  14.346
53903W        W15357  34.033   0.471  14.923
53904W        W15358  15.291   3.806  12.397
53905W        W15359  32.015  27.982  13.886
53906W        W15360  18.623   7.751  11.121
53907W        W15361  13.330  17.280   2.338
53908W        W15362  41.853  20.705  11.068
53909W        W15363  26.124  36.422  13.896
53910W        W15364  16.217  39.061   4.268
53911W        W15365  16.701  35.861   1.417
53912W        W15366  43.494  22.119   1.375
53913W        W15367  33.079  31.545  13.791
53914W        W15368  43.395  14.763   0.247
53915W        W15369  34.985  44.757   3.320
53916W        W15370  12.333  41.300   2.707
53917W        W15371   4.289   8.237   1.904
53918W        W15372  33.932   0.370  12.577
53919W        W15373  38.965  41.377  13.331
53920W        W15374  29.131  43.960   3.743
53921W        W15375  13.341   9.816  14.968
53922W        W15376  28.537  28.489   0.412
53923W        W15377  19.537   0.823  11.052
53924W        W15378  42.887  23.689  13.003
53925W        W15379  42.398  31.966  13.798
53926W        W15380  22.039  13.704  12.898
53927W        W15381   7.375   7.776   4.691
53928W        W15382  38.536  22.571  14.336
53929W        W15383  19.572  19.224  11.531
53930W        W15384  26.004  36.431   0.770
53931W        W15385  38.961  38.825   5.250
53932W        W15386  32.421   0.982  12.071
53933W        W15387   7.797  28.563   3.725
53934W        W15388   6.705  26.207  11.121
53935W        W15389  17.061   5.897   1.726
53936W        W15390  33.595  44.864   3.286
53937W        W15391  35.045  21.560   3.762
53938W        W15392  39.503  28.113   2.681
53939W        W15393   8.303  10.753  11.932
53940W        W15394  35.404  24.132  11.121
53941W        W15395   2.417   2.324  11.983
53942W        W15396  38.451   1.302  13.816
53943W        W15397  23.531   1.879   0.283
53944W        W15398  27.467   7.237   2.213
53945W        W15399   4.265   5.296  12.435
53946W        W15400  43.959  21.717  11.891
53947W        W15401  44.806  43.772   1.803
53948W        W15402  20.102  15.310  11.408
53949W        W15403  44.849  37.542   3.264
53950W        W15404  27.166  18.188  11.899
53951W        W15405   0.434  38.029  12.823
53952W        W15406   3.711  11.783   4.317
53953W        W15407  15.598  27.614   0.874
53954W        W15408  40.833  28.473  12.094
53955W        W15409  13.240  32.437  12.982
53956W        W15410  18.184   0.790   3.775
53957W        W15411  14.197  26.197   0.425
53958W        W15412  17.706   5.259   1.730
53959W        W15413   8.748   4.765   5.138
53960W        W15414   6.855  41.460   3.345
53961W        W15415  24.068  43.281  12.955
53962W        W15416  40.936  43.888  11.864
53963W        W15417  32.436  18.553  12.847
53964W        W15418  29.924  37.895   3.724
53965W        W15419  31.593  10.680  11.535
53966W        W15420  10.844   4.286  14.962
53967W        W15421  25.478  17.204   1.317
53968W        W15422  39.517  13.161   3.229
53969W        W15423  30.076  15.095   0.895
53970W        W15424  44.372  23.009  13.800
53971W        W15425   5.320  34.578  12.531
53972W        W15426   9.738  22.044  13.893
53973W        W15427  18.267  28.151   1.317
53974W        W15428  33.470  25.653  14.288
53975W        W15429  22.189  12.150  10.902
53976W        W15430  28.445  25.481  11.581
53977W        W15431  38.545  44.762  10.532
53978W        W15432  41.350  36.857   1.403
53979W        W15433  30.429  43.365  11.038
53980W        W15434  19.070   3.751  13.335
53981W        W15435  44.261   3.871  11.567
53982W        W15436  33.527  28.962  10.484
53983W        W15437   5.880  22.552   1.812
53984W        W15438  34.574  37.034  12.416
53985W        W15439  33.935  32.003  13.978
53986W        W15440  20.107   7.710   0.962
53987W        W15441  35.109  15.238   2.682
53988W        W15442  31.564  22.501   1.920
53989W        W15443  25.063   4.788   1.839
53990W        W15444  19.653  22.682   4.116
53991W        W15445  38.548  18.591  14.808
53992W        W15446  12.810  19.570  14.895
53993W        W15447   8.776  39.547   4.170
53994W        W15448  25.068   2.241  10.891
53995W        W15449  33.033  28.592  14.277
53996W        W15450  16.223   4.278  12.892
53997W        W15451   3.910  40.921  11.605
53998W        W15452  34.070  36.495  10.577
53999W        W15453   1.916  38.937   2.790
54000W        W15454  32.442   2.287  10.933
54001W        W15455  41.514   7.413   1.765
54002W        W15456  13.329  38.340  10.918
54003W        W15457  17.087  21.057   2.696
54004W        W15458  18.612  43.298   4.150
54005W        W15459  23.569  28.516   2.266
54006W        W15460  41.388  37.515  14.857
54007W        W15461   9.825  36.864  14.407
54008W        W15462  12.187  44.819   0.812
54009W        W15463  32.993  39.517   3.772
54010W        W15464  32.064   3.852  14.907
54011W        W15465  29.078  21.554  14.888
54012W        W15466   4.777  34.080   9.973
54013W        W15467   4.785  30.113   3.656
54014W        W15468  23.069   8.282   0.294
54015W        W15469  12.323  31.635   5.631
54016W        W15470  15.743  10.197  14.778
54017W        W15471  28.034  35.086  13.915
54018W        W15472  21.670   5.327   3.181
54019W        W15473  41.363  18.198  12.867
54020W        W15474   7.831   8.228  12.877
54021W        W15475   5.780  20.240  12.077
54022W        W15476  43.284  24.575  14.397
54023W        W15477  10.243  34.071  11.533
54024W        W15478   8.807   3.227  12.859
54025W        W15479  15.111  37.419   3.362
54026W        W15480  20.647  25.069   3.291
54027W        W15481  22.581   3.243   2.847
54028W        W15482  29.096  37.567   1.912
54029W        W15483  40.545   9.790  13.043
54030W        W15484   7.396  30.530   3.225
54031W        W15485  18.655  24.612   3.679
54032W        W15486  34.453  17.615  13.888
54033W        W15487  31.925  14.178   1.896
54034W        W15488  26.656  14.736   0.421
54035W        W15489  25.503  25.202  14.464
54036W        W15490  37.553  34.426  14.459
54037W        W15491  44.755  42.303  13.508
54038W        W15492  42.387   8.390  13.988
54039W        W15493  21.072  23.608   0.963
54040W        W15494   4.931  39.498   0.799
54041W        W15495   2.955  43.971  10.549
54042W        W15496   6.283  14.163   4.129
54043W        W15497  43.397  38.055  13.411
54044W        W15498  23.212  37.437   2.777
54045W        W15499  33.108  12.198  11.485
54046W        W15500  39.977  38.826  11.598
54047W        W15501  23.587   2.861   4.137
54048W        W15502  35.050  20.123   2.361
54049W        W15503  32.018  12.203  11.420
54050W        W15504  12.700  40.043   2.256
54051W        W15505  23.019  29.942   2.726
54052W        W15506   6.389   4.258   1.933
54053W        W15507  13.248  15.789  12.406
54054W        W15508  23.142  14.693   0.869
54055W        W15509  38.887   6.379   2.372
54056W        W15510  32.136  25.524   1.926
54057W        W15511  40.879  15.296  11.025
54058W        W15512  36.901  20.644   2.836
54059W        W15513  37.406  29.137   2.800
54060W        W15514  33.469  36.083  13.370
54061W        W15515   9.864  17.648   1.856
54062W        W15516  24.526  28.985  13.874
54063W        W15517  26.970  25.658  11.440
54064W        W15518  26.681  22.109  14.460
54065W        W15519  28.975   1.845   3.722
54066W        W15520   0.325  23.507  13.810
54067W        W15521  37.528  24.631   4.131
54068W        W15522   0.346   2.296   2.402
54069W        W15523  20.161  15.803   0.343
54070W        W15524  12.620  14.693  12.998
54071W        W15525   0.313  26.999  12.891
54072W        W15526   4.373  32.102  13.805
54073W        W15527  30.494  41.317   1.861
54074W        W15528  25.212  42.894  11.937
54075W        W15529  32.600  13.242   1.808
54076W        W15530   9.173  21.178  11.886
54077W        W15531  32.074  30.083   0.957
54078W        W15532   7.332  16.607  11.898
54079W        W15533  34.897   5.260   0.350
54080W        W15534  19.187   0.752   2.800
54081W        W15535   9.748  40.862   1.267
54082W        W15536   6.368   6.234  12.049
54083W        W15537  40.304  39.392  13.836
54084W        W15538  11.836   4.251  13.318
54085W        W15539  23.669  25.477  13.798
54086W        W15540  14.596  30.005   3.254
54087W        W15541  28.439  36.042   2.667
54088W        W15542  27.046  40.025   5.227
54089W        W15543  29.166  39.939  10.916
54090W        W15544  13.249   8.221   1.393
54091W        W15545  44.434  29.585   4.644
54092W        W15546  14.648  15.257   3.680
54093W        W15547  20.058  18.188  10.941
54094W        W15548  33.065  20.154  13.022
54095W        W15549   9.303  36.038  12.343
54096W        W15550  25.480  37.844   4.832
54097W        W15551   5.788  43.408  12.575
54098W        W15552   3.239   5.838  10.994
54099W        W15553  25.676  31.050  13.465
54100W        W15554  34.971  21.569   4.248
54101W        W15555   5.908  28.032   0.340
54102W        W15556  19.608  17.142   5.256
54103W        W15557  17.623  25.500  13.521
54104W        W15558  17.227  35.411   4.294
54105W        W15559   7.200  40.862   3.184
54106W        W15560  39.333   9.304  14.438
54107W        W15561  34.502  34.863  11.449
54108W        W15562   3.864   0.361   0.845
54109W        W15563  30.554  32.004  14.344
54110W        W15564  25.983  24.486  12.979
54111W        W15565  42.930   7.772  11.467
54112W        W15566  38.399   5.914   2.324
54113W        W15567  25.064  28.098  12.373
54114W        W15568  24.182  19.687  10.149
54115W        W15569  42.285   9.151  11.986
54116W        W15570  35.891  43.324   0.771
54117W        W15571  38.387  41.337  14.370
54118W        W15572  17.141  23.153  11.079
54119W        W15573  18.567  30.033   1.213
54120W        W15574  35.551  14.204   1.302
54121W        W15575  29.037   9.650  14.006
54122W        W15576  19.626  40.966   1.245
54123W        W15577  41.957  42.921   3.788
54124W        W15578  15.626  20.693   2.870
54125W        W15579   3.426  28.508   1.232
54126W        W15580  37.354  14.192  11.032
54127W        W15581  29.597  21.087   5.128
54128W        W15582   3.443  36.904   2.325
54129W        W15583  25.206  23.669   3.291
54130W        W15584   1.334  35.397   1.704
54131W        W15585  28.555  22.034  13.349
54132W        W15586  30.623  21.168  10.545
54133W        W15587  37.061  42.942   1.709
54134W        W15588  14.780   7.232   4.344
54135W        W15589  23.687  13.338   3.710
54136W        W15590   0.388  35.002  12.945
54137W        W15591  28.092   2.341   1.711
54138W        W15592   0.774  17.661   4.276
54139W        W15593  21.561  42.399   0.284
54140W        W15594  16.166  22.586  10.949
54141W        W15595  33.050   2.309  10.590
54142W        W15596  37.985   2.370   3.193
54143W        W15597  27.982  34.426   4.696
54144W        W15598  35.396  11.181   1.231
54145W        W15599   5.215   7.739   4.796
54146W        W15600  26.471  39.352  11.470
54147W        W15601  39.447  32.540  11.593
54148W        W15602  25.657  32.004   2.833
54149W        W15603  36.501  40.428   4.174
54150W        W15604  44.812  22.051  12.467
54151W        W15605  31.111   1.369  11.924
54152W        W15606  38.996  14.811   3.266
54153W        W15607  33.471   4.831   0.822
54154W        W15608  30.591  15.238   1.713
54155W        W15609   3.870  26.146   4.329
54156W        W15610  44.007  16.573  11.501
54157W        W15611  23.140  24.068  11.924
54158W        W15612  13.266  13.688   2.675
54159W        W15613  12.293  12.737  12.835
54160W        W15614  34.885  33.118  10.948
54161W        W15615  38.415  42.880   3.382
54162W        W15616  15.711  18.749   5.207
54163W        W15617  33.897   3.242  11.388
54164W        W15618   0.339  29.942  13.931
54165W        W15619  12.359   8.164  13.509
54166W        W15620  37.949  19.171   4.183
54167W        W15621  44.999   2.248   1.438
54168W        W15622  23.195  24.037  10.619
54169W        W15623  44.311  17.580  11.023
54170W        W15624  12.795  38.438   0.913
54171W        W15625  28.486  40.447   4.320
54172W        W15626   6.911  34.053  11.533
54173W        W15627  29.602   5.932   1.449
54174W        W15628  10.208   7.194   4.241
54175W        W15629  15.709  17.098  10.579
54176W        W15630  13.320  44.505  14.959
54177W        W15631  36.077  12.298  10.600
54178W        W15632  37.393  13.330  10.411
54179W        W15633   2.815  31.146  10.958
54180W        W15634  43.498  10.677  11.866
54181W        W15635  11.299  43.353   4.346
54182W        W15636  18.218   2.302   4.260
54183W        W15637  14.801  31.629   4.185
54184W        W15638  10.771  11.331  12.068
54185W        W15639  37.029  21.135   3.211
54186W        W15640   0.274  23.095  14.976
54187W        W15641  26.612   5.333  14.491
54188W        W15642   4.233  44.785   3.717
54189W        W15643  18.191  27.069   3.207
54190W        W15644  30.453   9.754   5.753
54191W        W15645  32.616   9.830   0.762
54192W        W15646   0.903  20.727  14.949
54193W        W15647  43.017  15.693   3.168
54194W        W15648  35.000  24.179   2.330
54195W        W15649   1.872  37.954   2.896
54196W        W15650   6.305  14.735   0.756
54197W        W15651  24.501  15.144  13.428
54198W        W15652  32.413  19.235   4.349
54199W        W15653  33.507  36.989  11.978
54200W        W15654  40.453  34.561   0.845
54201W        W15655  44.309  32.016  12.093
54202W        W15656  26.667  38.065  13.995
54203W        W15657  29.028   4.391  13.388
54204W        W15658  17.631  36.347  13.338
54205W        W15659   0.920  30.074   0.876
54206W        W15660  40.032  32.961  14.332
54207W        W15661   6.360  14.303   3.855
54208W        W15662  18.654  39.455   2.680
54209W        W15663  36.079  19.189  11.394
54210W        W15664  27.088  10.238   4.172
54211W        W15665  28.999   2.930   4.600
54212W        W15666   6.731  32.507   2.347
54213W        W15667  44.269  36.402   1.746
54214W        W15668   3.285  19.566  12.461
54215W        W15669  24.146  28.567  13.003
54216W        W15670  33.566  38.345  13.525
54217W        W15671  18.656   2.725   1.293
54218W        W15672  28.005   2.746   2.832
54219W        W15673  39.034  33.067   3.194
54220W        W15674   6.745  36.896   1.374
54221W        W15675  32.131  19.195  13.057
54222W        W15676  23.985  41.484  12.920
54223W        W15677  21.225   2.358   0.310
54224W        W15678  18.221  36.077   4.275
54225W        W15679  16.644  43.341  13.544
54226W        W15680   0.865  26.510  11.498
54227W        W15681   0.384  24.169  14.288
54228W        W15682  44.762   3.727   3.240
54229W        W15683  14.664  37.850  12.062
54230W        W15684   5.284   5.410  14.805
54231W        W15685  10.331  18.184   3.382
54232W        W15686  26.510  27.568   0.416
54233W        W15687   6.330  37.351  13.793
54234W        W15688  25.100  22.066  14.929
54235W        W15689  35.425  44.434   4.219
54236W        W15690   8.711  37.426  13.934
54237W        W15691  29.520   4.385   4.229
54238W        W15692  24.663  10.142  10.534
54239W        W15693  23.205  44.805   1.368
54240W        W15694  21.744  16.245  12.480
54241W        W15695   3.394  14.660   1.299
54242W        W15696  18.152  30.053   4.288
54243W        W15697   1.457   3.751  10.929
54244W        W15698   9.337   2.269  12.435
54245W        W15699   1.803  37.504   3.869
54246W        W15700  27.941   2.901   3.736
54247W        W15701  20.133  44.474  12.039
54248W        W15702  25.983  26.658   2.695
54249W        W15703  35.603   7.416   1.379
54250W        W15704  19.562  42.781   3.300
54251W        W15705  25.602  19.076   3.355
54252W        W15706  38.344  28.975  11.997
54253W        W15707   2.358  31.571   0.308
54254W        W15708   5.727   3.836  12.940
54255W        W15709  28.107  43.961  10.600
54256W        W15710  37.577  29.021  13.517
54257W        W15711  41.335  43.845   1.243
54258W        W15712   2.788  35.045  11.408
54259W        W15713  24.119  25.194   4.203
54260W        W15714  28.047  43.272  10.549
54261W        W15715  17.118   4.260  14.296
54262W        W15716  24.990   6.214   9.504
54263W        W15717   0.751  17.559   1.444
54264W        W15718  37.453  28.537   1.832
54265W        W15719   3.752  18.739  10.446
54266W        W15720  36.498  42.017  13.490
54267W        W15721  33.455  36.903   2.215
54268W        W15722   1.930  30.999   4.229
54269W        W15723  17.082  28.121   1.274
54270W        W15724  10.226  27.642  10.929
54271W        W15725  29.442  11.173   0.353
54272W        W15726   7.218   5.878   3.301
54273W        W15727  12.714  12.351   2.251
54274W        W15728   7.781  35.451   2.723
54275W        W15729  36.931  10.647   1.801
54276W        W15730  15.257  38.544  11.115
54277W        W15731  17.583  26.018   4.752
54278W        W15732  41.894  23.987  13.449
54279W        W15733  14.682  14.741  10.983
54280W        W15734   0.406  38.969  13.498
54281W        W15735  29.945  44.382   1.838
54282W        W15736  35.900  35.882  10.484
54283W        W15737  31.127   4.788  13.825
54284W        W15738  24.106   8.266   0.922
54285W        W15739  24.979   6.390  13.821
54286W        W15740  36.384  34.005   2.206
54287W        W15741  30.055   7.889  12.452
54288W        W15742  40.846  24.592  11.468
54289W        W15743  15.094  12.764  14.958
54290W        W15744  14.668  24.610   3.766
54291W        W15745  20.105  42.884   1.285
54292W        W15746   6.293  10.273  12.891
54293W        W15747  44.932   0.764   0.427
54294W        W15748  39.431  32.066   2.196
54295W        W15749  21.071  17.150   5.323
54296W        W15750  18.128  14.762   0.963
54297W        W15751  24.026   8.812  12.960
54298W        W15752  32.403   4.224   4.196
54299W        W15753   9.646  29.501  10.622
54300W        W15754  13.783  36.916  11.001
54301W        W15755  37.983  41.794   2.705
54302W        W15756   0.777  29.429   0.827
54303W        W15757  44.801  30.967  14.968
54304W        W15758   6.377  39.044   5.223
54305W        W15759  40.986   9.859   0.342
54306W        W15760  13.152  21.084   1.223
54307W        W15761  27.019  21.046   9.957
54308W        W15762   3.762  44.345  10.474
54309W        W15763  37.412   3.249  12.931
54310W        W15764  20.142  12.334   1.737
54311W        W15765   9.212  37.931   4.174
54312W        W15766  17.091  36.394   2.672
54313W        W15767  16.305   0.900   1.792
54314W        W15768  38.987  18.737  12.499
54315W        W15769  44.892  37.534  10.459
54316W        W15770  13.745  21.603  12.528
54317W        W15771   6.825  31.912  14.298
54318W        W15772  36.855  27.167  12.477
54319W        W15773  25.644  44.409  12.040
54320W        W15774   5.319  38.534   3.325
54321W        W15775  12.224  43.991  13.436
54322W        W15776  27.583  22.112   0.957
54323W        W15777  14.095  29.062   1.914
54324W        W15778  17.683  14.239  14.791
54325W        W15779  15.752   2.438   1.799
54326W        W15780   2.444   8.270   0.955
54327W        W15781  36.967   4.893  11.546
54328W        W15782  14.253  25.562   1.809
54329W        W15783   7.723  11.288   3.360
54330W        W15784   3.873  10.184  10.470
54331W        W15785  15.820  20.214   3.639
54332W        W15786  31.613   9.278  12.057
54333W        W15787  14.236  27.084   1.841
54334W        W15788  15.719   7.867   0.407
54335W        W15789   3.735  21.574  14.325
54336W        W15790  18.697  34.566  13.460
54337W        W15791  12.847  31.995   2.373
54338W        W15792   3.435   9.239   5.206
54339W        W15793  13.817  18.643   0.853
54340W        W15794  28.156  44.760   1.744
54341W        W15795  28.971   6.698  11.989
54342W        W15796  36.973  10.237   0.752
54343W        W15797  35.002  43.435  14.429
54344W        W15798  10.654  40.872   2.254
54345W        W15799  21.684  21.638  14.910
54346W        W15800  23.161  27.116   3.330
54347W        W15801  31.978  10.656  13.997
54348W        W15802  41.799  29.538  13.440
54349W        W15803   3.254  42.879   4.639
54350W        W15804  18.681  43.447  11.537
54351W        W15805  20.729  31.024   4.621
54352W        W15806  31.148  23.080  14.415
54353W        W15807  18.702  23.239  11.983
54354W        W15808   8.718  39.543   1.932
54355W        W15809  39.926   7.684   0.744
54356W        W15810   0.801   1.851  11.508
54357W        W15811  12.630  16.311   1.770
54358W        W15812   9.744  22.608   0.861
54359W        W15813  22.107  12.841  11.908
54360W        W15814  27.179  17.672  10.625
54361W        W15815   8.898   1.267  12.926
54362W        W15816  34.461   3.888  12.039
54363W        W15817  22.741  22.664   0.481
54364W        W15818  21.129  37.963   2.178
54365W        W15819  41.363  13.725   3.800
54366W        W15820   8.714   9.211   3.161
54367W        W15821  23.030  11.210   5.179
54368W        W15822  40.335  40.957   0.482
54369W        W15823   0.432  15.594  10.915
54370W        W15824   3.372  30.151   1.876
54371W        W15825  38.457  26.090   3.665
54372W        W15826   0.798   7.189  12.863
54373W        W15827  28.503   1.440  13.385
54374W        W15828  10.180   3.397   3.746
54375W        W15829  10.326   1.311   2.375
54376W        W15830  30.936  40.485   2.789
54377W        W15831  25.097  18.173  14.945
54378W        W15832  32.534  44.402   3.766
54379W        W15833  17.197  12.223   2.299
54380W        W15834   1.482  21.176   2.818
54381W        W15835  29.456  33.454   2.224
54382W        W15836  44.385  35.021   5.237
54383W        W15837  26.597  20.580   2.763
54384W        W15838  23.638  35.510  11.910
54385W        W15839   1.905  29.628   4.275
54386W        W15840   5.714  35.446   4.193
54387W        W15841  25.136  17.094   3.662
54388W        W15842  36.050  17.691   2.814
54389W        W15843  32.473  44.454   0.776
54390W        W15844  42.515   5.211   1.737
54391W        W15845  38.511  37.537   4.664
54392W        W15846  11.344  40.959  10.618
54393W        W15847   1.472  13.704   0.413
54394W        W15848  41.855  35.435  14.008
54395W        W15849  28.500  15.164  11.973
54396W        W15850   2.447  22.115  11.548
54397W        W15851  44.496  21.547  11.427
54398W        W15852   5.338  43.970   3.775
54399W        W15853  44.007  16.761   3.363
54400W        W15854  28.019   3.219   0.465
54401W        W15855  15.329  24.711   1.240
54402W        W15856  17.661  23.681  14.823
54403W        W15857  14.635  43.875   2.208
54404W        W15858  34.506  22.148   3.317
54405W        W15859   9.844  40.013   1.228
54406W        W15860   4.366   2.434   3.757
54407W        W15861  21.189  38.905   4.714
54408W        W15862   2.279  27.103  13.835
54409W        W15863  21.598   6.748  11.115
54410W        W15864  43.418  32.062   3.323
54411W        W15865  39.970  37.552   1.217
54412W        W15866  20.056  32.573  11.434
54413W        W15867  29.974  14.771   1.822
54414W        W15868  17.268  30.952  12.372
54415W        W15869  39.864   2.409   1.892
54416W        W15870  13.791  32.013   3.640
54417W        W15871  30.093  13.675  10.409
54418W        W15872  32.582  34.938   2.808
54419W        W15873  43.479  31.606  11.545
54420W        W15874   0.464  33.492  14.776
54421W        W15875   4.755  43.350  13.478
54422W        W15876   6.768   4.814  14.450
54423W        W15877   5.412  25.207   0.446
54424W        W15878   7.761  42.997  14.992
54425W        W15879  15.160   0.808   3.653
54426W        W15880   1.905  10.241   4.144
54427W        W15881  32.436  23.225   2.292
54428W        W15882  37.067   5.196  11.126
54429W        W15883  19.697  34.606   4.602
54430W        W15884  41.524  39.498  11.438
54431W        W15885  35.040  29.642   2.225
54432W        W15886  16.156   8.832   5.088
54433W        W15887   0.949  37.359   5.194
54434W        W15888  18.700  28.497   2.859
54435W        W15889  12.127  11.654  14.390
54436W        W15890  34.074  43.970  11.989
54437W        W15891  15.750  26.562   1.822
54438W        W15892  16.723  14.799   3.328
54439W        W15893  30.907  20.568   1.863
54440W        W15894   6.749  12.742  12.340
54441W        W15895  27.448  18.696  12.399
54442W        W15896  36.903  12.836  12.025
54443W        W15897  14.275  20.525   4.134
54444W        W15898   3.857  11.846   0.909
54445W        W15899  23.508   3.264   3.167
54446W        W15900  44.795   3.252  13.352
54447W        W15901  34.503  16.147  11.581
54448W        W15902  39.316  19.533  10.964
54449W        W15903  11.779  42.443  14.930
54450W        W15904   6.203   9.339   4.183
54451W        W15905  25.204   4.276   2.740
54452W        W15906  22.056  15.735   4.773
54453W        W15907  39.423   8.848   0.965
54454W        W15908   6.894  19.613   0.425
54455W        W15909   3.316  11.670   5.106
54456W        W15910  12.351  31.406   1.933
54457W        W15911  14.099  15.655   1.798
54458W        W15912  24.998   1.827   0.879
54459W        W15913  16.759  40.945  11.461
54460W        W15914  42.340  10.856  12.864
54461W        W15915  39.557  35.419   4.635
54462W        W15916   4.379   8.161  13.841
54463W        W15917  33.497  44.458  12.570
54464W        W15918   4.205  38.068   4.319
54465W        W15919   6.420   9.364   1.210
54466W        W15920  41.397  42.362  13.495
54467W        W15921  32.998  12.234  12.502
54468W        W15922  26.024  23.542   1.236
54469W        W15923  43.280  32.095  13.409
54470W        W15924   5.258   4.343  11.953
54471W        W15925  19.623   6.327  14.009
54472W        W15926  27.580  34.974  13.017
54473W        W15927  35.877  23.024   2.264
54474W        W15928  40.357  38.052   2.344
54475W        W15929  24.223  24.173   3.698
54476W        W15930  41.999  23.677  14.956
54477W        W15931  42.026  31.615   0.945
54478W        W15932   6.248  23.104   2.749
54479W        W15933  36.392   2.296   1.859
54480W        W15934  36.907  39.952   1.932
54481W        W15935  28.655  32.492  11.480
54482W        W15936  19.250  34.520   1.713
54483W        W15937  38.956   1.423   1.218
54484W        W15938  27.511  11.171  14.400
54485W        W15939  10.300   0.380  11.116
54486W        W15940   2.315   4.390  13.013
54487W        W15941   3.288  12.637  14.500
54488W        W15942  43.797   1.368  14.970
54489W        W15943  18.197  13.700   2.272
54490W        W15944  29.964  28.071   4.129
54491W        W15945   1.478   8.817  12.488
54492W        W15946  12.330  11.777   4.337
54493W        W15947  23.113  12.717   1.891
54494W        W15948  36.469  42.910  10.135
54495W        W15949  35.077  21.045   2.736
54496W        W15950  36.038  17.632   2.309
54497W        W15951  13.338  34.509   4.613
54498W        W15952  23.145  27.142  14.463
54499W        W15953  21.051  39.332   3.375
54500W        W15954  25.568  22.044   2.242
54501W        W15955  15.176  11.152   1.715
54502W        W15956   5.254  11.683   2.730
54503W        W15957  18.234  44.006  14.329
54504W        W15958   0.297  33.469  13.476
54505W        W15959  37.886   9.260   4.659
54506W        W15960   0.842  35.890   3.149
54507W        W15961  22.662  31.575  13.425
54508W        W15962  33.534  30.161   0.759
54509W        W15963  33.913   7.745   2.845
54510W        W15964   2.892   9.809   4.282
54511W        W15965  16.153  33.100   3.651
54512W        W15966  22.178  26.082  12.544
54513W        W15967  11.166   6.788  14.893
54514W        W15968   4.894  21.663  13.966
54515W        W15969  27.627  12.161  11.042
54516W        W15970   6.884  42.504   2.194
54517W        W15971   4.742   2.924  14.846
54518W        W15972  20.637   5.788   0.765
54519W        W15973  36.944   2.926  14.897
54520W        W15974   3.343  23.692  14.022
54521W        W15975  18.755  41.901   2.739
54522W        W15976   6.681  25.154  14.290
54523W        W15977   1.367   6.866   2.186
54524W        W15978  10.266   3.321  14.274
54525W        W15979   9.153   8.786  13.385
54526W        W15980  31.977  33.119   0.738
54527W        W15981  28.493  32.402  12.558
54528W        W15982  44.879   9.711   4.772
54529W        W15983  38.851  12.282   4.277
54530W        W15984  39.037  32.441  11.429
54531W        W15985   3.245  11.696   4.195
54532W        W15986  28.991  22.702  10.506
54533W        W15987  12.821  13.232   2.667
54534W        W15988  14.818  27.017  11.549
54535W        W15989  40.356  15.212  13.851
54536W        W15990  22.008  24.570   1.306
54537W        W15991  32.944  38.015  11.560
54538W        W15992  28.625  15.648   0.360
54539W        W15993  36.493  18.727   4.248
54540W        W15994   3.392  23.218  14.484
54541W        W15995  29.026   4.742  11.443
54542W        W15996  27.164  13.758   4.668
54543W        W15997  20.249  11.284   3.269
54544W        W15998  30.131  31.499   3.771
54545W        W15999  39.917  13.639   4.134
54546W        W16000   8.208  37.558  13.809
54547W        W16001  36.055  41.007  11.080
54548W        W16002  16.299  37.083  10.506
54549W        W16003  38.423  42.942  10.048
54550W        W16004  23.565  13.302  12.947
54551W        W16005   1.830  25.156  12.527
54552W        W16006  44.449  17.730   3.833
54553W        W16007  12.823  15.743   2.242
54554W        W16008  35.435  33.381   2.718
54555W        W16009  39.831  39.370  12.476
54556W        W16010  13.167  22.666   0.459
54557W        W16011   8.326   5.827   2.759
54558W        W16012  30.473  30.163  13.465
54559W        W16013  37.348   8.354   2.281
54560W        W16014  32.136  41.957   0.316
54561W        W16015  26.675  12.675  12.412
54562W        W16016  38.360  22.574   0.832
54563W        W16017   3.241  20.122   1.887
54564W        W16018  36.446  32.488   4.768
54565W        W16019  28.647  13.178   2.388
54566W        W16020  21.120  18.244   4.326
54567W        W16021  16.679  17.179   3.157
54568W        W16022  10.826   3.722   2.290
54569W        W16023  36.903   2.262  13.375
54570W        W16024  38.442  11.128   4.144
54571W        W16025   0.452  37.513  10.481
54572W        W16026  20.577  36.362  14.482
54573W        W16027   7.836   5.359  14.279
54574W        W16028   9.795   6.269   0.854
54575W        W16029  41.450  27.991   3.807
54576W        W16030  19.548  13.342  14.404
54577W        W16031  34.919  40.307  13.795
54578W        W16032  29.431  15.181  11.101
54579W        W16033  10.227  17.196  13.405
54580W        W16034  25.607  13.313   1.826
54581W        W16035  24.530  41.363  12.063
54582W        W16036  36.567   4.720  12.542
54583W        W16037  11.776  14.712  12.546
54584W        W16038  26.030  35.074  12.576
54585W        W16039  29.615  10.140   0.249
54586W        W16040   5.850  15.167  12.361
54587W        W16041  41.328  19.749   2.665
54588W        W16042  43.344  22.074  12.066
54589W        W16043  27.175  24.513   2.204
54590W        W16044  31.947  12.270   3.184
54591W        W16045   1.925  28.010   2.829
54592W        W16046  24.125  14.643   4.123
54593W        W16047  19.605  38.045  14.466
54594W        W16048   4.322   6.753   2.855
54595W        W16049  22.207  15.583   3.150
54596W        W16050  29.669  15.728   2.827
54597W        W16051  37.009  22.080  13.455
54598W        W16052  16.173  30.117  10.545
54599W        W16053  41.338  21.230   9.949
54600W        W16054   6.356   0.401   5.255
54601W        W16055  38.347  17.748   2.880
54602W        W16056  16.800  16.590   3.321
54603W        W16057  12.807   5.315  12.467
54604W        W16058  31.130  29.476  13.853
54605W        W16059   2.751  11.243  10.420
54606W        W16060   8.207  26.190  10.921
54607W        W16061  13.704  18.171   5.778
54608W        W16062  14.615   6.314  14.994
54609W        W16063  22.190  16.180  13.362
54610W        W16064   3.435   9.221  13.974
54611W        W16065  31.062  29.549   1.265
54612W        W16066  21.587  39.009   3.183
54613W        W16067  18.597  14.308  13.989
54614W        W16068  40.021  44.382  11.013
54615W        W16069  12.670  33.579   4.741
54616W        W16070  36.450  27.541  12.487
54617W        W16071  14.110  35.080   4.724
54618W        W16072   7.676  24.127   2.737
54619W        W16073  38.452  41.787  13.845
54620W        W16074  39.850  41.537   4.615
54621W        W16075  27.561  34.965  12.397
54622W        W16076  29.140  29.646  12.872
54623W        W16077   6.199  15.702  11.496
54624W        W16078  43.446  28.674  12.568
54625W        W16079  33.474  30.075   2.695
54626W        W16080  15.762  19.564   4.665
54627W        W16081  13.283  28.538  10.582
54628W        W16082  23.674  14.148  10.891
54629W        W16083  20.065  37.388  12.447
54630W        W16084  36.522   8.198  12.580
54631W        W16085  34.926  41.935  12.467
54632W        W16086  16.659  18.294   4.209
54633W        W16087  38.928  14.699   1.378
54634W        W16088   0.781  16.190   2.701
54635W        W16089  16.614   2.398   4.278
54636W        W16090  33.959  40.814   3.682
54637W        W16091  40.390  12.623  14.785
54638W        W16092  30.619  19.094  12.487
54639W        W16093  36.553   4.383  14.759
54640W        W16094  17.279  27.450  12.369
54641W        W16095  35.388  13.670  13.462
54642W        W16096  44.922   6.759   2.850
54643W        W16097  14.721  10.740  11.093
54644W        W16098  13.827  20.086   0.451
54645W        W16099  29.943  27.664   4.305
54646W        W16100  21.565  39.547   3.257
54647W        W16101  14.137  33.465  13.473
54648W        W16102   0.390  24.222  13.867
54649W        W16103  22.187  10.261  13.310
54650W        W16104   9.218  11.213   0.936
54651W        W16105  31.534  33.097  11.889
54652W        W16106  24.657   3.714  14.837
54653W        W16107   9.760  41.482   1.912
54654W        W16108  19.697  13.768   4.827
54655W        W16109   1.783  22.137   2.243
54656W        W16110  37.016  31.599  12.975
54657W        W16111  29.534  30.514  12.555
54658W        W16112  29.986  19.591   3.348
54659W        W16113  36.349   4.764   0.798
54660W        W16114  31.624   4.357  10.964
54661W        W16115   1.334   1.468  12.392
54662W        W16116  12.286  12.239  14.770
54663W        W16117  43.904   8.185   1.830
54664W        W16118  43.415  39.949  13.800
54665W        W16119  30.011   8.383  13.020
54666W        W16120   9.670  31.956  14.863
54667W        W16121   8.891  33.964   4.182
54668W        W16122   9.284  41.308   0.738
54669W        W16123  13.744   9.756   5.250
54670W        W16124  22.153  12.134  12.428
54671W        W16125  43.017   6.706  14.313
54672W        W16126  26.194  30.997   0.893
54673W        W16127  23.654  44.980  12.426
54674W        W16128  25.616  31.638   1.781
54675W        W16129  10.358  38.992  10.073
54676W        W16130  18.599  41.015   0.320
54677W        W16131  43.980   6.221   0.375
54678W        W16132  38.961  34.890   4.221
54679W        W16133  32.059  10.257   0.747
54680W        W16134  40.810   6.273  11.373
54681W        W16135   3.824  14.288   4.795
54682W        W16136  42.462   8.244  10.496
54683W        W16137  25.542  16.199   1.393
54684W        W16138   0.977  21.565  12.492
54685W        W16139   1.287  11.322   1.769
54686W        W16140  26.584  40.845  13.496
54687W        W16141   0.329  39.952  13.455
54688W        W16142  11.862  25.679   1.431
54689W        W16143  13.105  25.056  11.585
54690W        W16144  43.866  40.317  10.521
54691W        W16145  34.457  43.453  14.429
54692W        W16146  39.016  19.210  14.343
54693W        W16147  43.834  37.503   1.358
54694W        W16148  22.219  42.441  12.385
54695W        W16149  38.034  22.695  13.827
54696W        W16150  25.200  43.396  12.021
54697W        W16151   3.897   9.749  10.562
54698W        W16152  15.754  36.404   9.976
54699W        W16153  11.199  41.306  12.440
54700W        W16154   0.760  34.001   2.390
54701W        W16155  44.503  14.726   4.214
54702W        W16156  25.632  39.482  11.472
54703W        W16157   8.825  39.426  13.894
54704W        W16158  24.159  34.550   3.643
54705W        W16159  36.030  21.635   2.842
54706W        W16160   4.432  15.297  14.459
54707W        W16161   3.939  21.078  13.423
54708W        W16162   1.459  17.246   1.797
54709W        W16163  12.153  23.542  12.512
54710W        W16164  19.227  20.554  13.791
54711W        W16165  22.603   9.845  11.859
54712W        W16166  28.662  25.147   1.234
54713W        W16167  32.068  40.546  11.074
54714W        W16168   7.181  30.503  13.493
54715W        W16169  37.427  15.150  12.558
54716W        W16170  30.507   9.758   1.425
54717W        W16171   1.439  33.448   4.699
54718W        W16172  23.094  29.656   1.424
54719W        W16173  13.342  20.699  12.525
54720W        W16174   5.364  20.041   0.259
54721W        W16175   0.782  17.179   0.438
54722W        W16176   4.350  20.104  11.415
54723W        W16177  36.935   3.316   3.238
54724W        W16178   1.924  22.109  11.063
54725W        W16179  28.660  43.790  11.553
54726W        W16180  11.744   1.800  10.497
54727W        W16181  21.045  30.600   0.786
54728W        W16182   1.288  31.460  12.066
54729W        W16183   3.787  37.445  13.388
54730W        W16184  17.194  41.954  10.044
54731W        W16185  10.681  14.146  11.030
54732W        W16186  39.943  18.254  12.403
54733W        W16187  30.629   3.813  13.947
54734W        W16188  33.526  26.053  12.917
54735W        W16189  26.523  11.778  13.352
54736W        W16190  22.142  32.963  14.842
54737W        W16191  18.290   8.341  11.376
54738W        W16192  37.020  38.024  13.465
54739W        W16193   7.834  27.501  11.565
54740W        W16194   1.395  28.171   3.790
54741W        W16195   6.704  15.243   4.200
54742W        W16196  38.406  41.905   2.777
54743W        W16197   8.846  31.127  13.501
54744W        W16198  23.027   1.792   1.759
54745W        W16199  42.836  38.525   4.639
54746W        W16200   5.416  35.989  13.341
54747W        W16201  14.184  28.119  10.600
54748W        W16202   1.940  28.103  10.982
54749W        W16203  42.877  17.302   2.817
54750W        W16204  37.955  35.967  13.429
54751W        W16205  17.714  19.099  13.027
54752W        W16206  10.181  33.570  12.897
54753W        W16207  19.081   6.844  11.050
54754W        W16208  10.672  38.820  13.862
54755W        W16209  21.669  13.178  14.760
54756W        W16210  35.446  15.144   3.845
54757W        W16211  35.499  18.705   3.735
54758W        W16212  16.117   9.775   5.099
54759W        W16213   2.413   4.217   1.814
54760W        W16214  10.638  40.824  14.436
54761W        W16215  29.625   3.829  13.051
54762W        W16216  22.586  13.830   4.116
54763W        W16217  40.476   5.357  13.996
54764W        W16218  10.687  35.410   4.183
54765W        W16219  31.613   4.380   3.350
54766W        W16220  39.322  30.618   4.712
54767W        W16221   8.272  36.508  13.046
54768W        W16222   3.258  36.864   1.432
54769W        W16223  12.278  44.935  12.936
54770W        W16224  22.160   3.324   4.223
54771W        W16225  36.411  38.931  11.573
54772W        W16226  32.396  25.475   4.808
54773W        W16227  10.750  43.922   0.318
54774W        W16228  40.362   3.413   3.663
54775W        W16229  29.452  23.579   2.180
54776W        W16230   2.384  12.678   2.699
54777W        W16231   7.344  18.205   0.744
54778W        W16232  33.990   4.835  11.000
54779W        W16233   9.827  21.113   0.342
54780W        W16234  34.534  12.197  13.808
54781W        W16235   3.402  20.121  13.458
54782W        W16236   3.723  37.489   3.793
54783W        W16237  42.414   5.783  13.500
54784W        W16238  21.071   3.853   3.748
54785W        W16239   9.796  36.379  14.903
54786W        W16240  34.563  33.969   2.846
54787W        W16241   3.282   1.895   1.890
54788W        W16242  31.033  11.270   0.798
54789W        W16243  34.000  16.252   4.274
54790W        W16244  33.403   2.908  14.007
54791W        W16245  20.122  20.139   4.163
54792W        W16246  28.517   0.893   1.251
54793W        W16247   2.830   5.886   0.826
54794W        W16248   3.256  42.811   0.783
54795W        W16249  24.519  33.437  10.145
54796W        W16250   5.392   7.819  11.585
54797W        W16251  31.554  44.412  14.963
54798W        W16252   5.228  21.251  10.624
54799W        W16253   8.348  28.129  12.405
54800W        W16254  32.497  38.432   0.727
54801W        W16255  12.760  23.661  14.904
54802W        W16256  30.418  19.770   3.200
54803W        W16257  22.113  14.672   2.683
54804W        W16258  14.807   2.356  14.771
54805W        W16259  38.070  34.947   0.841
54806W        W16260  17.277  44.400  12.074
54807W        W16261   6.921  14.674   4.304
54808W        W16262  12.625  24.570   4.261
54809W        W16263  29.113  18.590  13.409
54810W        W16264  35.019  13.217   0.463
54811W        W16265  39.011  25.596  14.431
54812W        W16266  24.585  33.554  10.979
54813W        W16267  29.137  21.597  11.377
54814W        W16268  38.985  26.136  10.967
54815W        W16269  38.349   9.749   0.789
54816W        W16270  19.683  36.483  14.301
54817W        W16271  25.011   8.854   5.299
54818W        W16272  40.497  28.646  13.544
54819W        W16273  33.936  39.045   0.785
54820W        W16274  17.685  38.543  11.417
54821W        W16275  28.570  32.997   1.260
54822W        W16276  12.679  39.416  14.028
54823W        W16277  19.701   3.777   4.641
54824W        W16278  31.967  26.094   1.305
54825W        W16279  25.150   0.829   2.673
54826W        W16280  36.467  21.639  14.893
54827W        W16281  11.634   5.343  14.826
54828W        W16282   0.407  42.964  13.892
54829W        W16283  17.306  22.156  10.591
54830W        W16284   7.817   3.761  13.498
54831W        W16285  18.686  41.370  12.849
54832W        W16286  26.466  44.273   3.724
54833W        W16287   4.361  37.065  13.015
54834W        W16288  33.093  21.095   0.794
54835W        W16289   7.268  13.605   0.271
54836W        W16290  20.083  18.647   1.750
54837W        W16291  32.475   1.799   1.721
54838W        W16292  41.525  37.557   3.202
54839W        W16293  31.492  39.034   0.780
54840W        W16294   2.351   0.823  10.074
54841W        W16295   7.184   4.407  10.890
54842W        W16296  14.325  21.738   4.727
54843W        W16297  30.084   1.282  10.899
54844W        W16298  41.830  12.180  13.803
54845W        W16299   8.314  19.557   4.614
54846W        W16300  14.110  22.673   1.905
54847W        W16301  43.309  32.058   2.849
54848W        W16302   6.736  20.243  11.604
54849W        W16303  14.667   8.712   0.943
54850W        W16304   4.308   6.349  13.330
54851W        W16305  19.251  20.626  11.416
54852W        W16306  28.465  11.190  11.420
54853W        W16307  29.502  16.739   9.989
54854W        W16308  17.737   9.787  14.875
54855W        W16309  31.005  37.383   1.272
54856W        W16310   4.878  41.936   2.827
54857W        W16311  31.902  26.103  14.425
54858W        W16312  24.644   7.711  12.487
54859W        W16313   4.729  16.791  13.906
54860W        W16314  20.171  14.338   3.798
54861W        W16315  33.387  25.003   3.796
54862W        W16316  24.541  43.874   4.773
54863W        W16317   3.843   7.330   0.358
54864W        W16318  42.972  41.923   0.738
54865W        W16319  30.454   9.768   2.291
54866W        W16320  43.986  41.381  11.106
54867W        W16321  19.721  26.517   4.695
54868W        W16322  24.006  10.707  14.452
54869W        W16323  34.048   8.892  12.919
54870W        W16324  18.711   1.794  13.968
54871W        W16325  21.648  16.072  10.489
54872W        W16326   1.848  40.450   4.127
54873W        W16327  44.420  12.252  13.370
54874W        W16328  38.854  23.084   0.399
54875W        W16329  41.808   6.248  10.437
54876W        W16330   5.320   8.874   4.186
54877W        W16331  20.138  23.217   0.330
54878W        W16332  20.231  21.686   2.287
54879W        W16333  20.124  21.067  14.434
54880W        W16334   1.448  14.678   3.207
54881W        W16335  27.566  18.063  14.488
54882W        W16336  14.102  26.471  14.959
54883W        W16337   8.290  27.448   4.179
54884W        W16338  22.092  32.886  13.308
54885W        W16339  34.598  32.975   2.210
54886W        W16340  15.729   6.359   0.449
54887W        W16341   5.810  35.422  11.387
54888W        W16342  14.691  37.012   4.256
54889W        W16343  12.784  16.654  13.461
54890W        W16344  30.057  33.048   5.294
54891W        W16345  44.798  36.353  13.827
54892W        W16346   3.830   2.739   2.793
54893W        W16347  17.132  14.682  11.563
54894W        W16348  36.087   1.310  12.364
54895W        W16349  16.687   2.784  14.881
54896W        W16350  37.891  18.545  10.081
54897W        W16351  41.844  13.155  12.934
54898W        W16352  43.503   1.406   2.264
54899W        W16353  36.927  25.484   4.246
54900W        W16354   9.804  18.225  13.372
54901W        W16355  20.158  12.720  11.066
54902W        W16356   3.754  11.856  12.961
54903W        W16357   6.410  39.382  13.017
54904W        W16358  36.393  18.177  13.508
54905W        W16359  33.423  38.349  11.606
54906W        W16360  25.143  22.006  10.524
54907W        W16361   8.203   6.763   1.932
54908W        W16362  31.109   3.342   3.307
54909W        W16363   4.233   4.772  11.966
54910W        W16364   2.282  40.925  13.459
54911W        W16365  17.660  42.451   0.351
54912W        W16366  23.991  36.390  12.072
54913W        W16367  35.385  38.533   0.943
54914W        W16368  16.628   7.829   1.219
54915W        W16369  20.543  42.826   0.299
54916W        W16370  11.835  15.755   1.257
54917W        W16371  29.950   5.755   5.112
54918W        W16372  27.680  27.609  10.538
54919W        W16373  24.663  18.706   4.196
54920W        W16374   4.217  19.643  13.916
54921W        W16375  25.524  33.456  13.404
54922W        W16376  12.228  42.973  14.887
54923W        W16377  27.952  21.514   3.200
54924W        W16378  18.739  29.477  14.994
54925W        W16379   8.663  20.764   5.131
54926W        W16380  40.362  34.381  14.997
54927W        W16381  12.838   7.209  14.309
54928W        W16382  35.104  41.823   2.391
54929W        W16383  25.501  28.936  11.935
54930W        W16384  31.441   0.771   4.115
54931W        W16385  42.890   0.926   2.669
54932W        W16386  31.142   0.494  10.891
54933W        W16387   8.386  23.501  13.931
54934W        W16388  31.136  37.462  11.517
54935W        W16389  42.813  35.889  12.982
54936W        W16390  12.235  27.957  12.393
54937W        W16391  31.413   6.389   0.365
54938W        W16392  34.511  23.618  12.993
54939W        W16393   3.792  31.125  11.091
54940W        W16394  39.521  13.837   0.910
54941W        W16395  43.340  40.830  11.014
54942W        W16396  41.943   7.823   4.708
54943W        W16397  42.811   9.202   1.367
54944W        W16398  11.683  25.156   2.705
54945W        W16399  31.522  33.473  12.351
54946W        W16400  31.470  44.845  14.821
54947W        W16401  34.958  13.814  11.968
54948W        W16402  15.733  12.693   0.899
54949W        W16403  43.986  32.127  13.960
54950W        W16404  39.837  10.708   4.737
54951W        W16405  22.202  13.250   0.742
54952W        W16406  43.388  11.165  14.447
54953W        W16407  15.803  32.067  11.485
54954W        W16408   0.479  22.199   2.725
54955W        W16409  20.203  27.123  14.448
54956W        W16410  21.710  23.635  10.490
54957W        W16411  44.350   8.791  14.457
54958W        W16412   0.251  43.354   1.889
54959W        W16413  38.054  35.560  12.345
54960W        W16414  12.775   9.837   4.690
54961W        W16415  10.777  16.213   1.859
54962W        W16416  10.857  19.096  12.558
54963W        W16417  15.097  17.161  12.824
54964W        W16418  39.527   9.749   2.839
54965W        W16419  17.238  15.205   2.185
54966W        W16420  40.011  32.887  10.528
54967W        W16421  27.098   8.366  12.884
54968W        W16422  39.387  19.617   1.331
54969W        W16423  20.721  31.912   4.627
54970W        W16424  16.289  13.711  10.983
54971W        W16425   6.678  14.255  12.425
54972W        W16426  36.575   7.380  12.959
54973W        W16427   9.383  27.973   0.395
54974W        W16428  25.016  12.783   2.405
54975W        W16429  16.190   9.150   0.334
54976W        W16430   5.724  12.845  10.432
54977W        W16431  29.655  43.448  14.967
54978W        W16432   9.705  16.108  14.982
54979W        W16433  17.235  33.926  12.549
54980W        W16434   5.366  25.646  13.971
54981W        W16435  25.110  13.173  12.895
54982W        W16436  26.198  10.773  13.030
54983W        W16437  23.605  29.491   3.852
54984W        W16438  16.631  16.110   9.508
54985W        W16439   2.897   7.689   1.805
54986W        W16440  26.525  33.029  13.419
54987W        W16441   4.230  30.526   3.810
54988W        W16442  11.710  38.891  14.980
54989W        W16443  36.417  43.391  13.474
54990W        W16444  30.099   7.221  12.436
54991W        W16445  26.574   7.711   3.829
54992W        W16446   2.444  16.265   1.877
54993W        W16447  10.835   3.833   1.924
54994W        W16448   9.778  40.549  10.931
54995W        W16449  37.343  10.791  11.410
54996W        W16450  30.945  39.315   0.797
54997W        W16451  18.779   7.290  10.118
54998W        W16452  11.209   4.349  11.905
54999W        W16453   7.703  12.686  13.919
55000W        W16454  19.202  18.585   0.450
55001W        W16455  33.421   2.756   2.415
55002W        W16456  27.617  42.836  14.832
55003W        W16457  16.187  30.607  11.870
55004W        W16458  29.989  30.102   4.681
55005W        W16459   5.856  32.042  12.966
55006W        W16460  18.758  44.960   3.241
55007W        W16461  24.158   9.310  14.928
55008W        W16462  17.662  33.918  11.933
55009W        W16463   1.950  15.738   1.869
55010W        W16464   2.267   4.275   3.146
55011W        W16465   0.431  16.241   4.837
55012W        W16466  31.107   6.846   3.632
55013W        W16467  11.629  14.752  10.464
55014W        W16468   0.873  28.472  11.572
55015W        W16469  25.000  38.836   4.340
55016W        W16470  11.860  10.796  10.415
55017W        W16471   1.885  10.350  13.960
55018W        W16472  28.589  23.600   0.479
55019W        W16473  15.143  37.912   0.735
55020W        W16474   7.799  12.198  12.962
55021W        W16475  27.637  44.491  11.089
55022W        W16476   2.355   3.711  13.904
55023W        W16477   1.258  13.638  12.351
55024W        W16478   9.239  30.918   2.890
55025W        W16479  15.731  30.024  14.404
55026W        W16480  37.041  30.036  12.038
55027W        W16481   4.898  21.143   9.919
55028W        W16482  12.855   0.321  13.341
55029W        W16483   6.380  37.869   4.832
55030W        W16484  37.081  25.964  14.407
55031W        W16485  32.031  29.669   0.907
55032W        W16486   7.859   9.665   4.303
55033W        W16487  42.285  25.013   4.721
55034W        W16488  20.526  28.003   0.312
55035W        W16489   8.171  10.364  11.026
55036W        W16490  40.443  24.011   4.748
55037W        W16491  35.472  23.123  12.010
55038W        W16492   0.985   4.710   5.170
55039W        W16493  34.513  16.808  14.318
55040W        W16494  25.489  27.184  11.082
55041W        W16495  40.316   0.753   4.810
55042W        W16496  38.032   3.937   2.791
55043W        W16497   2.860   2.437   0.842
55044W        W16498  22.592  29.075   0.467
55045W        W16499  12.178   6.391   1.319
55046W        W16500   5.195  41.924   1.264
55047W        W16501  39.479  25.112   3.158
55048W        W16502  23.227  16.316   4.273
55049W        W16503  38.053  20.247  11.121
55050W        W16504  12.646  34.056   1.930
55051W        W16505  37.080  33.524  11.095
55052W        W16506   4.258  38.489   1.440
55053W        W16507  38.065  17.237   2.757
55054W        W16508  31.602   3.776   0.824
55055W        W16509   9.259  30.590   2.866
55056W        W16510  36.994  18.612   3.279
55057W        W16511   9.183  42.868  13.448
55058W        W16512   0.922  38.957  12.998
55059W        W16513  24.073  17.303   3.337
55060W        W16514  17.802  17.602   1.380
55061W        W16515  35.556  27.562  11.913
55062W        W16516  42.998  28.670   1.347
55063W        W16517  33.618  27.681  13.497
55064W        W16518   5.432  39.555   2.414
55065W        W16519   4.242  40.354   2.793
55066W        W16520  31.062   4.821   4.334
55067W        W16521  26.986  32.428   0.337
55068W        W16522  12.256   6.187  11.484
55069W        W16523  24.167  41.884   1.394
55070W        W16524  23.721  30.608   0.394
55071W        W16525  30.928   3.858  11.028
55072W        W16526  31.560  16.753   3.312
55073W        W16527  16.273   2.239   0.273
55074W        W16528   4.255   1.958   4.719
55075W        W16529  31.004   3.355   2.877
55076W        W16530  14.270   1.322   1.233
55077W        W16531  21.691   6.321   1.739
55078W        W16532  35.392  15.742   1.318
55079W        W16533  32.014   8.374   4.685
55080W        W16534  14.695  35.940   4.672
55081W        W16535  22.547  33.409   3.216
55082W        W16536  17.160  22.249  11.990
55083W        W16537  10.814  36.517   4.168
55084W        W16538  12.613  36.590  13.990
55085W        W16539  14.753  13.245  13.795
55086W        W16540   0.299   4.312   3.707
55087W        W16541  25.210  27.593   0.320
55088W        W16542  34.511  37.472   4.274
55089W        W16543  14.147   7.893   0.752
55090W        W16544  10.374   2.247  12.447
55091W        W16545  34.483  41.519  10.495
55092W        W16546   4.327  11.220  11.565
55093W        W16547   1.838   4.215   4.354
55094W        W16548  28.524  40.005  11.861
55095W        W16549  30.933   9.744   5.596
55096W        W16550  26.030  41.843   3.251
55097W        W16551  20.236   0.855  12.878
55098W        W16552   4.224   5.920  13.445
55099W        W16553   3.266  44.803  10.970
55100W        W16554  21.732  34.877   0.830
55101W        W16555  28.590  19.722   2.872
55102W        W16556  34.092  17.700   4.598
55103W        W16557  39.829  18.664  14.977
55104W        W16558  33.432  41.411   1.760
55105W        W16559   9.258  25.484   0.859
55106W        W16560  42.851  18.729  14.943
55107W        W16561  34.031  40.477   2.846
55108W        W16562   0.793  27.562  11.036
55109W        W16563   2.847  28.986  11.395
55110W        W16564  36.370  23.603  13.355
55111W        W16565   2.304  41.855  11.103
55112W        W16566  44.891  33.010   3.780
55113W        W16567  34.967  22.244  13.410
55114W        W16568  11.316   8.826  10.967
55115W        W16569  25.130  34.877   1.319
55116W        W16570  32.461  20.570   3.275
55117W        W16571  12.810  17.569   3.638
55118W        W16572  30.098  29.619  14.866
55119W        W16573   3.246   5.261  12.058
55120W        W16574  22.532  10.262  10.060
55121W        W16575  21.079  18.108  10.896
55122W        W16576  30.432  11.851   1.731
55123W        W16577   8.702  38.375  10.578
55124W        W16578  34.614   4.895   4.249
55125W        W16579   6.894  25.019   1.788
55126W        W16580  17.782  30.133  10.537
55127W        W16581  16.089  11.322   5.115
55128W        W16582  31.444   0.387   1.848
55129W        W16583  15.295   7.259   2.239
55130W        W16584  11.861  38.968  13.924
55131W        W16585   7.865  43.859   3.859
55132W        W16586   0.952  22.684  13.360
55133W        W16587  31.564  23.086   3.785
55134W        W16588  44.276  24.679   2.700
55135W        W16589  29.643   3.768   2.382
55136W        W16590  28.509  35.584   3.336
55137W        W16591  37.511  25.103  13.460
55138W        W16592  16.661  33.432   1.387
55139W        W16593  19.642   5.851  10.917
55140W        W16594  15.302  38.457   0.817
55141W        W16595  20.153  19.125   4.334
55142W        W16596  38.827  31.121  13.887
55143W        W16597  24.666   2.453  14.463
55144W        W16598   2.263   8.244   2.265
55145W        W16599  38.505  40.998   2.337
55146W        W16600   4.311  29.596   4.299
55147W        W16601  27.017   2.774  12.081
55148W        W16602  12.694  12.837  10.901
55149W        W16603  25.973  19.114  11.970
55150W        W16604   3.306  38.961   1.214
55151W        W16605   9.359  43.883  10.912
55152W        W16606  36.531  43.904   0.938
55153W        W16607  40.311  31.139  12.916
55154W        W16608  19.668   9.722   0.796
55155W        W16609  18.140  20.648   2.695
55156W        W16610  43.357  16.577  12.370
55157W        W16611  34.068  18.657  11.451
55158W        W16612   3.805  12.812   1.289
55159W        W16613   1.858   2.914   4.297
55160W        W16614  36.585  29.075   2.251
55161W        W16615  42.882  34.530  14.376
55162W        W16616  31.084  17.163  11.899
55163W        W16617  17.148   7.199  10.980
55164W        W16618   2.804  27.564  11.465
55165W        W16619  40.899  38.363  13.422
55166W        W16620  42.448   2.439  11.398
55167W        W16621  39.315  25.031   4.736
55168W        W16622  30.032  18.709   0.734
55169W        W16623  30.570  18.183   4.598
55170W        W16624  11.310   2.918  13.830
55171W        W16625  37.877  14.331   1.768
55172W        W16626  44.817  23.641   0.909
55173W        W16627  15.181  18.663   4.768
55174W        W16628   1.842  37.927   3.749
55175W        W16629   8.825  15.707   1.335
55176W        W16630  34.369  33.450  12.987
55177W        W16631  30.068  22.112  10.961
55178W        W16632   8.394  26.648  11.895
55179W        W16633  32.461  43.006   1.237
55180W        W16634  11.723  33.542  12.066
55181W        W16635  17.604  44.285   2.268
55182W        W16636  23.692  31.488   0.853
55183W        W16637   1.782  23.179  14.851
55184W        W16638  16.161  10.291   0.831
55185W        W16639  19.245  44.776  12.933
55186W        W16640  18.632  30.535   3.846
55187W        W16641  10.368  41.469   3.238
55188W        W16642   8.227  42.402  10.936
55189W        W16643   5.806  17.151   3.645
55190W        W16644  43.461  37.429   1.697
55191W        W16645  26.692  17.177   3.217
55192W        W16646  30.051  34.985  12.540
55193W        W16647   3.228  16.618  12.091
55194W        W16648  40.513  41.834   4.305
55195W        W16649  38.337   5.420  13.484
55196W        W16650   8.822  37.869  14.481
55197W        W16651  41.861  44.958   4.598
55198W        W16652  26.674  16.719   3.710
55199W        W16653  13.617  38.011   5.799
55200W        W16654   9.710  26.026   3.384
55201W        W16655  14.129  13.255   1.235
55202W        W16656  10.777  28.962  12.831
55203W        W16657  32.982  36.465   4.605
55204W        W16658  21.187   5.828  14.847
55205W        W16659  16.134  10.815  10.445
55206W        W16660  42.908  29.611   3.736
55207W        W16661  41.945  38.496  14.331
55208W        W16662  37.954  21.527   0.793
55209W        W16663  15.193   7.801   0.957
55210W        W16664  24.048  25.065   2.880
55211W        W16665  11.311  15.740   2.272
55212W        W16666   6.338  10.264  10.416
55213W        W16667   4.337   9.768  13.399
55214W        W16668  42.329  30.499  12.537
55215W        W16669  40.453  34.966  13.477
55216W        W16670  25.583  16.183  11.570
55217W        W16671   2.834  37.964  14.423
55218W        W16672  16.140   6.217  14.835
55219W        W16673  19.690  18.640   0.917
55220W        W16674  29.523   1.326  13.407
55221W        W16675  21.239  27.050  14.787
55222W        W16676  38.397  18.060  10.904
55223W        W16677   0.835  14.144   1.226
55224W        W16678   5.219  16.667   0.772
55225W        W16679  14.610  22.588  12.992
55226W        W16680   1.911  17.578  10.925
55227W        W16681  36.870   7.386   1.835
55228W        W16682  42.004  15.635   3.701
55229W        W16683   3.789  44.315   4.621
55230W        W16684  36.884   0.263   1.928
55231W        W16685  17.064   2.829  10.890
55232W        W16686  22.617  29.122  14.502
55233W        W16687   2.803  23.688  10.506
55234W        W16688   8.173  24.500  14.839
55235W        W16689  23.068   2.385   4.664
55236W        W16690  32.539  30.538  11.877
55237W        W16691  11.310  39.963   0.742
55238W        W16692  37.940   3.399   4.637
55239W        W16693   0.368   0.789   4.661
55240W        W16694  29.955   1.924  10.536
55241W        W16695  28.996  18.246   0.953
55242W        W16696  23.726   2.427   0.820
55243W        W16697  21.021  11.341  11.556
55244W        W16698  32.974  18.656   4.804
55245W        W16699   5.246  34.577  10.431
55246W        W16700   7.833  30.013   2.665
55247W        W16701   4.239  18.680  13.929
55248W        W16702  22.997  27.083   4.657
55249W        W16703   7.759  38.890  12.397
55250W        W16704  16.201  39.519   4.834
55251W        W16705  20.269  23.572  11.417
55252W        W16706   0.753   6.290  13.988
55253W        W16707  14.199   0.350  10.974
55254W        W16708  12.289  34.995  12.890
55255W        W16709  21.688  43.287  11.064
55256W        W16710  44.000  14.647  11.557
55257W        W16711  29.441  11.624  14.475
55258W        W16712  42.960  42.956   5.169
55259W        W16713   6.757  31.461   1.254
55260W        W16714  11.842  16.281   1.249
55261W        W16715  21.072  20.702   1.700
55262W        W16716  28.675   5.394   4.340
55263W        W16717  43.458  34.034  11.873
55264W        W16718   2.348  26.101  14.454
55265W        W16719  18.577  41.468  11.866
55266W        W16720  25.714  14.754   2.671
55267W        W16721  19.126  13.279   1.397
55268W        W16722  18.575  24.716  11.003
55269W        W16723  33.464  37.068  12.516
55270W        W16724  38.446  41.993   1.248
55271W        W16725  38.444  10.872   1.700
55272W        W16726   3.787   0.377   3.687
55273W        W16727  41.003  25.070   0.853
55274W        W16728  24.026   6.196   1.828
55275W        W16729   9.262  31.581   4.181
55276W        W16730  29.540  31.604   2.781
55277W        W16731  21.547  24.532  12.483
55278W        W16732  11.790  21.223  13.374
55279W        W16733  18.218   0.334   3.839
55280W        W16734   3.895  35.935   4.687
55281W        W16735  19.545   5.819   1.249
55282W        W16736  15.136  30.423   3.323
55283W        W16737  31.013   1.844   3.768
55284W        W16738   7.683  22.657   1.731
55285W        W16739  18.173  23.083  13.409
55286W        W16740  38.060  15.609   4.338
55287W        W16741  26.127  35.572  11.091
55288W        W16742  19.056   5.346  12.972
55289W        W16743  36.052  28.939   4.118
55290W        W16744   9.653   1.374   3.323
55291W        W16745  17.116  11.359  10.157
55292W        W16746  41.384  31.503  13.800
55293W        W16747  36.523  41.958   0.820
55294W        W16748  38.385  43.789  11.899
55295W        W16749  22.998  11.147   0.351
55296W        W16750   1.453   2.903   0.345
55297W        W16751  29.992  31.638  10.528
55298W        W16752  19.218  34.013   2.270
55299W        W16753   0.308   4.396  11.963
55300W        W16754  37.462   4.933   5.315
55301W        W16755  26.181  25.505   4.753
55302W        W16756   8.761   9.762   1.310
55303W        W16757   5.826  24.078   3.795
55304W        W16758  39.485   2.850   3.213
55305W        W16759  25.491   5.193   1.766
55306W        W16760  28.616   8.686   3.840
55307W        W16761  41.975   6.259   1.442
55308W        W16762   6.262  42.351   2.805
55309W        W16763  42.285  24.227  10.465
55310W        W16764  28.134  12.707   4.826
55311W        W16765  28.062   6.215  12.383
55312W        W16766  10.771  42.858  14.316
55313W        W16767  35.560  37.511   3.640
55314W        W16768  37.552  23.078   4.258
55315W        W16769  20.157  29.128   2.410
55316W        W16770  30.474   4.706  11.113
55317W        W16771  18.691  15.617  13.029
55318W        W16772  21.080  42.494  11.895
55319W        W16773  24.719   6.735  12.962
55320W        W16774  20.208  34.076  14.902
55321W        W16775  39.814   7.821   4.681
55322W        W16776  14.737   0.844   0.396
55323W        W16777  13.635   7.729  10.440
55324W        W16778  20.040  20.243   2.208
55325W        W16779  17.685  38.839  12.044
55326W        W16780   0.860  32.607  12.071
55327W        W16781  30.117  35.852  12.905
55328W        W16782  23.564   9.192  14.000
55329W        W16783   6.264  20.083   4.715
55330W        W16784   2.364  24.712  13.342
55331W        W16785  11.276  28.182  11.529
55332W        W16786  19.730  27.596   0.339
55333W        W16787  12.308  38.004  14.372
55334W        W16788   0.830  32.463   2.179
55335W        W16789  39.435  18.275  10.562
55336W        W16790  29.483   6.689   1.762
55337W        W16791  37.923   2.284   2.677
55338W        W16792  35.587  19.199  12.829
55339W        W16793  25.180  24.690  11.054
55340W        W16794   0.987   9.283   1.251
55341W        W16795  43.787  28.450  14.490
55342W        W16796  11.864  36.369   4.774
55343W        W16797  42.390  19.230   2.294
55344W        W16798  43.956  40.027  13.472
55345W        W16799  10.284  12.632   3.167
55346W        W16800  41.962   7.700  11.426
55347W        W16801   2.402  43.395  12.997
55348W        W16802  17.616   2.329   3.755
55349W        W16803  20.142  19.163  12.939
55350W        W16804  12.157  44.859   3.700
55351W        W16805  39.481  19.137   1.255
55352W        W16806  26.028  23.130   5.170
55353W        W16807  40.526  39.001   0.339
55354W        W16808  15.293  17.247   4.121
55355W        W16809   5.745  31.476  10.626
55356W        W16810  22.176  32.590   4.253
55357W        W16811   3.361  33.881   1.737
55358W        W16812  24.081   6.428   4.771
55359W        W16813   8.704   3.218   1.735
55360W        W16814  40.403  20.608  11.585
55361W        W16815   0.920   1.475  11.499
55362W        W16816  38.858  19.780  13.916
55363W        W16817   2.303  42.032  12.961
55364W        W16818   6.723  12.128   1.217
55365W        W16819  39.003   8.191  12.829
55366W        W16820  26.069   6.821  14.884
55367W        W16821  33.448  15.646  12.511
55368W        W16822  13.118   2.349  14.505
55369W        W16823   9.737  12.820   1.868
55370W        W16824   6.279   9.379  13.049
55371W        W16825  34.037   1.462   1.869
55372W        W16826  17.660  30.424  13.868
55373W        W16827  39.370  15.241   0.451
55374W        W16828   8.706  39.010   2.902
55375W        W16829  31.008   7.758   1.418
55376W        W16830  40.803  29.575  13.447
55377W        W16831  28.073  16.764  11.530
55378W        W16832  16.155  10.278  11.928
55379W        W16833  17.271   2.392   1.906
55380W        W16834  36.935   0.433  14.398
55381W        W16835  13.349  37.879   3.775
55382W        W16836  39.890  44.294  12.827
55383W        W16837  28.175  35.386   4.124
55384W        W16838   1.735  25.074   3.763
55385W        W16839   7.675  12.767   3.691
55386W        W16840  16.281  31.986  12.350
55387W        W16841  22.044  28.005  14.506
55388W        W16842  11.199  12.195  13.797
55389W        W16843  25.579  16.190  14.975
55390W        W16844  15.578  28.643  11.511
55391W        W16845  28.491  27.954   4.632
55392W        W16846   1.465  27.007  12.451
55393W        W16847   5.843  27.136   1.431
55394W        W16848   4.940  13.758  11.507
55395W        W16849  29.454  41.525  14.906
55396W        W16850  34.895   3.889  14.861
55397W        W16851   0.948   9.735   4.155
55398W        W16852  29.445  27.969   3.802
55399W        W16853  30.050  19.189   4.253
55400W        W16854  24.028   2.328  14.380
55401W        W16855  14.269   1.423   3.737
55402W        W16856  15.207  25.702  12.550
55403W        W16857  23.603  36.563  11.997
55404W        W16858  39.422  15.312   2.852
55405W        W16859  35.530  22.593  10.556
55406W        W16860  28.571   0.274  14.905
55407W        W16861  20.132   5.269  14.812
55408W        W16862  23.667  43.784   1.422
55409W        W16863  35.029  22.182   2.735
55410W        W16864  39.938  24.598  11.078
55411W        W16865  27.584  30.640  10.506
55412W        W16866   0.912  17.797  10.632
55413W        W16867   0.422   4.224  12.957
55414W        W16868  19.545  28.453  13.857
55415W        W16869  30.139  26.580   3.264
55416W        W16870  32.984   8.801   4.159
55417W        W16871   3.747  31.029  12.049
55418W        W16872  19.187  19.592  12.856
55419W        W16873  37.994  14.216   3.761
55420W        W16874  15.083  13.771   2.416
55421W        W16875  20.707  19.116  12.521
55422W        W16876  22.058  40.356   0.758
55423W        W16877  23.158  10.841   1.862
55424W        W16878  44.901  44.802  11.931
55425W        W16879  11.191   5.802   2.294
55426W        W16880   7.884  38.889   0.744
55427W        W16881  35.949  35.019  14.274
55428W        W16882   5.715  39.420  12.462
55429W        W16883  40.986  32.116  10.445
55430W        W16884  41.492  18.270   2.784
55431W        W16885  14.699  39.920  12.389
55432W        W16886  39.344  22.612   4.787
55433W        W16887  16.258  43.435   3.204
55434W        W16888  25.079   8.803  13.339
55435W        W16889  38.899  11.255  11.532
55436W        W16890  35.362  32.553   0.967
55437W        W16891  18.082  21.650  13.937
55438W        W16892  12.665   6.268   0.383
55439W        W16893  36.528  23.703  11.535
55440W        W16894  25.005  36.852  13.541
55441W        W16895  19.086   3.903   2.238
55442W        W16896  35.905  27.128   4.828
55443W        W16897   5.774  28.034   2.230
55444W        W16898   5.435   7.812  14.837
55445W        W16899  42.287  29.599   3.826
55446W        W16900  18.676  39.993  14.852
55447W        W16901  35.494   0.841   2.314
55448W        W16902  25.571   3.748   2.317
55449W        W16903  19.708   5.746   0.937
55450W        W16904   5.436  41.463  10.988
55451W        W16905  22.567  30.516   0.901
55452W        W16906  34.539  34.454   1.375
55453W        W16907  35.919  30.430   1.420
55454W        W16908  27.146  25.076   3.715
55455W        W16909  35.502  30.926  14.501
55456W        W16910  24.532   3.935   2.688
55457W        W16911  19.281  14.173   1.397
55458W        W16912  21.103  12.144   0.355
55459W        W16913  22.695   3.801   3.306
55460W        W16914  34.547  22.571  12.038
55461W        W16915  10.681  39.951   4.665
55462W        W16916  37.969  37.856   3.351
55463W        W16917  19.170   0.841   2.321
55464W        W16918  42.960  33.964   2.383
55465W        W16919  22.646  19.768  12.882
55466W        W16920  37.396  16.177   1.355
55467W        W16921  13.342   5.198  11.427
55468W        W16922  29.962   9.778  11.069
55469W        W16923  40.548  17.587  14.385
55470W        W16924   8.333  38.903   2.313
55471W        W16925  25.167  32.085  11.393
55472W        W16926  29.174  30.607   1.925
55473W        W16927  29.484  35.579  10.897
55474W        W16928  42.486  24.229  13.887
55475W        W16929  26.020   7.889   0.906
55476W        W16930  40.825  30.127   3.204
55477W        W16931   1.411  31.958  10.644
55478W        W16932  21.078  43.769  14.873
55479W        W16933  37.424   0.252   1.412
55480W        W16934  10.279   7.714  11.119
55481W        W16935  24.117   4.298  11.375
55482W        W16936  28.456  27.049  11.078
55483W        W16937  27.599   3.454   2.697
55484W        W16938  29.615  20.730   3.702
55485W        W16939  21.200  11.790   2.358
55486W        W16940   7.724  22.597   1.230
55487W        W16941   1.424  17.620   1.429
55488W        W16942  35.953  21.063   0.843
55489W        W16943  15.614   2.740   0.337
55490W        W16944   4.711  28.047  12.485
55491W        W16945  27.995  16.644   2.303
55492W        W16946  21.075  23.515  10.147
55493W        W16947  23.031   2.231   1.251
55494W        W16948  37.882  12.715  13.348
55495W        W16949  29.634   4.270  14.379
55496W        W16950  27.680   4.375   3.757
55497W        W16951  21.668  34.025  11.066
55498W        W16952  41.976  25.508  14.776
55499W        W16953  38.509  42.886  14.950
55500W        W16954  12.322  28.029   0.909
55501W        W16955   1.266  35.062  13.363
55502W        W16956  28.490  20.240  10.536
55503W        W16957   4.887  29.158  10.521
55504W        W16958  29.019   5.218  13.466
55505W        W16959  32.939   8.813   0.358
55506W        W16960  39.922  16.622  14.877
55507W        W16961  20.085  21.590   1.276
55508W        W16962  20.666  30.483  11.906
55509W        W16963   6.189   6.715   4.711
55510W        W16964  15.618  18.134  10.511
55511W        W16965   1.922  15.645   2.723
55512W        W16966  13.606  20.234  11.592
55513W        W16967  20.542  42.940   4.183
55514W        W16968  23.105   1.767   0.736
55515W        W16969   8.800  41.002   2.729
55516W        W16970  13.160  28.467  14.837
55517W        W16971   2.468  14.816   4.800
55518W        W16972  32.584  42.878  12.557
55519W        W16973  33.071  22.660   4.770
55520W        W16974   9.179   1.941   3.716
55521W        W16975  36.567  14.594   0.461
55522W        W16976  41.528  39.329  13.976
55523W        W16977  14.696  18.258  13.797
55524W        W16978   9.303  18.660   4.281
55525W        W16979  36.015  41.940   0.443
55526W        W16980  14.120   9.729   4.812
55527W        W16981  21.573   7.334  13.888
55528W        W16982   1.318  21.663   4.191
55529W        W16983  13.795  20.663   1.696
55530W        W16984  14.289   0.836   1.334
55531W        W16985  22.658  32.508  13.455
55532W        W16986   9.373  32.998  12.976
55533W        W16987  30.645   5.412  11.982
55534W        W16988  12.286  23.118  12.415
55535W        W16989  32.121  37.873   3.178
55536W        W16990  40.539  28.016   2.749
55537W        W16991  41.788  22.560   3.722
55538W        W16992  42.847  42.903  14.326
55539W        W16993  44.328  38.550  14.002
55540W        W16994   1.402  44.344  14.817
55541W        W16995   7.824  12.825  14.833
55542W        W16996   6.910  31.074   2.312
55543W        W16997  13.644   4.945   1.409
55544W        W16998  34.521  15.117   2.411
55545W        W16999   2.796  11.713   3.870
55546W        W17000  38.440  13.156   1.411
55547W        W17001  33.038   0.940  13.421
55548W        W17002   2.408  32.997   2.280
55549W        W17003   7.220  18.214   2.282
55550W        W17004  11.865  24.718   0.459
55551W        W17005  19.128  41.827   1.244
55552W        W17006  24.114  10.213   4.292
55553W        W17007  42.309   5.728   3.707
55554W        W17008  20.153  26.121  13.342
55555W        W17009  22.664   6.331   3.326
55556W        W17010   4.869  33.448   4.691
55557W        W17011  29.109  10.657   5.284
55558W        W17012  17.772  42.906  14.969
55559W        W17013  10.244   1.816  14.834
55560W        W17014  21.756  31.065   2.353
55561W        W17015  23.165  20.069  13.832
55562W        W17016   1.759   2.835   3.290
55563W        W17017  34.091  19.570   0.916
55564W        W17018  13.187  11.355   0.342
55565W        W17019  18.622  12.225  13.967
55566W        W17020  20.545  24.526  14.893
55567W        W17021  41.820  10.645   3.189
55568W        W17022  43.444   8.281  14.380
55569W        W17023  13.837   8.815   0.803
55570W        W17024  26.144  32.463   1.307
55571W        W17025   8.853  14.163   2.288
55572W        W17026   8.887  27.074  10.580
55573W        W17027  21.206  30.528  10.147
55574W        W17028   6.699  16.199   0.319
55575W        W17029  20.243  22.514  12.399
55576W        W17030  32.985  42.805  10.159
55577W        W17031  13.646  10.798  12.021
55578W        W17032  10.239   9.157   0.858
55579W        W17033  38.378   8.782  10.552
55580W        W17034  24.230  21.113  13.978
55581W        W17035   8.395  19.252   4.312
55582W        W17036  27.577  34.546  12.899
55583W        W17037  24.051  28.997   2.883
55584W        W17038  38.434  31.071  13.875
55585W        W17039  37.072  34.391  11.513
55586W        W17040  25.016   0.382   0.948
55587W        W17041  30.971  25.077   3.692
55588W        W17042  40.388   7.180   5.233
55589W        W17043  18.201  30.067  13.826
55590W        W17044  27.045  32.614  14.012
55591W        W17045  38.962  11.365  14.848
55592W        W17046   6.903   0.761  12.494
55593W        W17047  40.351  42.425   0.840
55594W        W17048   7.382  15.783   3.839
55595W        W17049  41.364  17.277  13.368
55596W        W17050   5.219   6.409   3.661
55597W        W17051  11.724  26.114  13.793
55598W        W17052  43.896  39.003   1.306
55599W        W17053  21.631  43.495  14.911
55600W        W17054  29.025   9.373   0.393
55601W        W17055  44.860  15.230   4.751
55602W        W17056  39.868   0.333   0.962
55603W        W17057   0.334   8.788  14.903
55604W        W17058  13.326  10.636   2.301
55605W        W17059  43.989  43.345   0.769
55606W        W17060  10.153   4.313   1.389
55607W        W17061   2.907  24.647   2.299
55608W        W17062  27.140   7.669  14.306
55609W        W17063   8.318  28.506   4.306
55610W        W17064  16.749  35.580   3.170
55611W        W17065  30.990  16.196   1.285
55612W        W17066  40.880  22.695  12.558
55613W        W17067  13.600  28.475  12.930
55614W        W17068  34.110  44.813   3.833
55615W        W17069  34.530  29.954   2.765
55616W        W17070  15.674  28.133  13.868
55617W        W17071   2.776  19.629   0.374
55618W        W17072  39.381  31.453  13.320
55619W        W17073  10.711   6.251  11.990
55620W        W17074  39.823  20.136  11.884
55621W        W17075  34.928  14.127   0.833
55622W        W17076  42.297  38.364   2.388
55623W        W17077   0.923   4.442   0.754
55624W        W17078  36.880   3.753  14.312
55625W        W17079  26.590  28.624   3.351
55626W        W17080  20.729  34.924   1.761
55627W        W17081  23.082  15.806   0.373
55628W        W17082  19.118  14.809  10.929
55629W        W17083  11.862  22.106  11.127
55630W        W17084   7.673  37.905  10.931
55631W        W17085   5.340   0.806   4.293
55632W        W17086  30.127  17.752  12.095
55633W        W17087  11.127  29.658   3.240
55634W        W17088  29.997  22.006  11.967
55635W        W17089   2.262   3.267  14.021
55636W        W17090  43.979   4.435  11.907
55637W        W17091  42.867  37.506  13.016
55638W        W17092   0.945   3.895  12.926
55639W        W17093  38.452   6.845  11.465
55640W        W17094  44.882  22.143   4.780
55641W        W17095  17.603  26.669  14.353
55642W        W17096  19.619  25.593  10.921
55643W        W17097  43.514  28.133  11.899
55644W        W17098  43.354   7.330  13.902
55645W        W17099  30.553  34.907   3.685
55646W        W17100  20.191  44.767   3.307
55647W        W17101  17.157   4.449  13.310
55648W        W17102  41.830  23.035  12.453
55649W        W17103  19.691  24.603   1.313
55650W        W17104  30.164  30.133   2.246
55651W        W17105  23.707   0.957   0.884
55652W        W17106  20.158  31.578   0.751
55653W        W17107  29.058  37.412  12.406
55654W        W17108  37.385   7.674  13.855
55655W        W17109  12.619  16.605   3.802
55656W        W17110  30.982  27.636   2.327
55657W        W17111   1.421   9.664   1.783
55658W        W17112  25.036  24.047   0.401
55659W        W17113   8.197   0.764   2.779
55660W        W17114   1.781   9.669   4.837
55661W        W17115  30.648  32.398  10.455
55662W        W17116  23.679  10.356   4.338
55663W        W17117   8.221  22.208  10.975
55664W        W17118  12.314  26.968  11.106
55665W        W17119  17.694  31.607   2.683
55666W        W17120  14.231   9.355   0.823
55667W        W17121   1.829  35.371  14.288
55668W        W17122  17.774  23.996  14.313
55669W        W17123  38.022   0.399   3.233
55670W        W17124  36.013  37.867   3.206
55671W        W17125   2.262  26.648   2.792
55672W        W17126  32.617  29.636  10.890
55673W        W17127  33.006  44.335   2.317
55674W        W17128  41.911  37.920   3.835
55675W        W17129  25.068   5.282  14.967
55676W        W17130  20.592   8.284  14.481
55677W        W17131  20.757  12.746  11.550
55678W        W17132  35.970  17.751  13.460
55679W        W17133  40.819  43.379  13.797
55680W        W17134  31.582  25.578  12.878
55681W        W17135   0.391  43.482   3.272
55682W        W17136   1.353  20.065   3.227
55683W        W17137  22.522  26.167  11.548
55684W        W17138  21.712  42.484   1.915
55685W        W17139  29.591  25.657   2.691
55686W        W17140   7.207   4.828   4.264
55687W        W17141   0.950   0.767   2.248
55688W        W17142  30.506  11.765  14.791
55689W        W17143  33.983  34.482   2.415
55690W        W17144   5.797  11.306   1.728
55691W        W17145  38.476  38.358   4.681
55692W        W17146  23.535  28.158  13.448
55693W        W17147  33.002  13.840  12.490
55694W        W17148   6.792  19.747  12.991
55695W        W17149  20.065   5.313  13.448
55696W        W17150  38.419  20.679  11.926
55697W        W17151  32.119  22.594  10.584
55698W        W17152  35.958  41.862  14.478
55699W        W17153   2.742  34.910   4.638
55700W        W17154  30.075  28.104   2.804
55701W        W17155  36.948  21.689   0.935
55702W        W17156  31.409  18.215   0.337
55703W        W17157   7.828  26.488   2.315
55704W        W17158  22.221  18.754  12.832
55705W        W17159   6.395  31.416   0.836
55706W        W17160  16.789   7.758  13.318
55707W        W17161  34.588  35.045   2.748
55708W        W17162  12.637  12.133   4.193
55709W        W17163   0.898  30.497   9.934
55710W        W17164  41.356  14.810  12.386
55711W        W17165   2.942  40.995   2.710
55712W        W17166   2.802  31.432  13.939
55713W        W17167  41.340  22.736   4.214
55714W        W17168  15.625  32.390   2.262
55715W        W17169  37.003  19.742   3.332
55716W        W17170  26.606  23.216  12.498
55717W        W17171  29.623  15.737   4.748
55718W        W17172  42.489  36.438   4.138
55719W        W17173   9.808  11.836  12.530
55720W        W17174  43.319  15.618  11.008
55721W        W17175   4.391  31.584  13.355
55722W        W17176  22.538  23.994   3.781
55723W        W17177   5.237   2.788   3.234
55724W        W17178  26.564  44.939   3.808
55725W        W17179  42.396  38.994  14.978
55726W        W17180  39.883  13.221  11.598
55727W        W17181  22.590   1.451   4.699
55728W        W17182  10.716  36.396   0.428
55729W        W17183  10.728  12.263  10.889
55730W        W17184  44.858   8.312  12.834
55731W        W17185  39.817  36.512  12.931
55732W        W17186   8.250   0.922   4.798
55733W        W17187  25.579  14.134   3.857
55734W        W17188   9.734   8.864   0.848
55735W        W17189  16.313   4.288  12.345
55736W        W17190   9.695   8.240  14.445
55737W        W17191  30.576  16.312   2.663
55738W        W17192  27.614  30.962  12.429
55739W        W17193  39.375  38.390  11.069
55740W        W17194   9.832  21.549  14.883
55741W        W17195  16.659  34.009  12.347
55742W        W17196  44.425  33.068  11.079
55743W        W17197  20.226  16.249  11.122
55744W        W17198   3.920  20.173   1.702
55745W        W17199  24.079  32.537  11.477
55746W        W17200  19.670  29.503   1.849
55747W        W17201  24.585  15.097  14.981
55748W        W17202  10.847  43.408  13.541
55749W        W17203   4.815  44.973  10.901
55750W        W17204  18.082   0.326  12.419
55751W        W17205   0.891   5.878  13.007
55752W        W17206   7.396  10.828  10.466
55753W        W17207  26.514  13.257   4.749
55754W        W17208  14.311  29.577  13.322
55755W        W17209  41.807   9.793   1.910
55756W        W17210  40.797  41.311  12.434
55757W        W17211  31.034  29.919  14.959
55758W        W17212  15.125   0.485  11.525
55759W        W17213  33.075  21.134  10.458
55760W        W17214  11.768   5.779  14.969
55761W        W17215  19.098  39.552   0.766
55762W        W17216  40.845   4.898   3.197
55763W        W17217  24.687  23.520   4.623
55764W        W17218  27.593  28.527  14.787
55765W        W17219   9.719  22.504  11.019
55766W        W17220  39.853   7.773   2.220
55767W        W17221  30.455  43.354  10.592
55768W        W17222  37.510  29.513  11.398
55769W        W17223  12.708  29.935   0.929
55770W        W17224  22.712  14.669   4.119
55771W        W17225  18.264   8.218   1.382
55772W        W17226  18.646   8.396  10.604
55773W        W17227  17.689   9.832   4.746
55774W        W17228  43.341   0.343  13.801
55775W        W17229  24.481  38.873  12.340
55776W        W17230  29.649   2.744   3.174
55777W        W17231  23.732  19.566  12.022
55778W        W17232  34.932  35.879  10.947
55779W        W17233   9.818  31.951  13.440
55780W        W17234  24.490   8.379   5.617
55781W        W17235   5.774  24.206  10.977
55782W        W17236  40.978  37.537  10.437
55783W        W17237  16.303   7.183   4.812
55784W        W17238   1.971  12.834   1.721
55785W        W17239  13.843  10.141   0.339
55786W        W17240  26.003  11.793  12.423
55787W        W17241   8.709  28.672   0.963
55788W        W17242  43.800  40.449   2.763
55789W        W17243  40.949  16.664  10.604
55790W        W17244   5.241  42.360   3.279
55791W        W17245  35.491  21.665   1.444
55792W        W17246  27.453  13.718   2.320
55793W        W17247   1.922  23.143  11.896
55794W        W17248  14.266  29.100   2.301
55795W        W17249  17.661  34.038  11.063
55796W        W17250  12.834  38.931   3.758
55797W        W17251  40.042  13.172   4.722
55798W        W17252  25.002  27.993  10.455
55799W        W17253  36.363  44.381  13.877
55800W        W17254  43.472  15.205   4.690
55801W        W17255   6.844  17.728   3.772
55802W        W17256  15.121  44.322   3.287
55803W        W17257  43.288   3.323  12.019
55804W        W17258  10.705  34.094   4.654
55805W        W17259  34.506  13.250  12.861
55806W        W17260   3.717  33.517   3.372
55807W        W17261  42.858  31.126  12.501
55808W        W17262  30.434  19.609   4.268
55809W        W17263  13.262   8.206   0.422
55810W        W17264   0.330   4.700   1.737
55811W        W17265  44.993  34.549  10.894
55812W        W17266  15.591  40.485  14.914
55813W        W17267  18.265  27.642  13.038
55814W        W17268  35.515  10.841  14.781
55815W        W17269  44.365  37.985   0.372
55816W        W17270   7.892  15.218  11.394
55817W        W17271   5.913   6.726   0.268
55818W        W17272   1.816  11.161  14.832
55819W        W17273  37.406  17.560  11.121
55820W        W17274  15.293  19.071   3.832
55821W        W17275  18.572  10.756   2.232
55822W        W17276  35.411  35.860  12.579
55823W        W17277   5.908  10.179   1.768
55824W        W17278   5.710   6.806   2.288
55825W        W17279  28.087  41.902  13.436
55826W        W17280  20.549  24.976  13.962
55827W        W17281  30.095  26.989  12.068
55828W        W17282   9.694   3.872  13.356
55829W        W17283  29.469  22.517  10.002
55830W        W17284   3.380  15.619   1.394
55831W        W17285  44.862  13.113   2.821
55832W        W17286   7.314   2.868   2.384
55833W        W17287  37.995  21.692  12.040
55834W        W17288  28.506  30.422   0.958
55835W        W17289  19.131   5.913   2.243
55836W        W17290  27.175  33.426  13.497
55837W        W17291  44.331  37.397   1.223
55838W        W17292  44.385  34.978  10.480
55839W        W17293   6.316   7.391  14.976
55840W        W17294  29.964   6.394  10.440
55841W        W17295  16.595  44.483   2.406
55842W        W17296  16.657  10.751  11.916
55843W        W17297  41.971   6.300   0.822
55844W        W17298  35.535  36.009  13.348
55845W        W17299   4.403  43.362   0.427
55846W        W17300  18.599   1.927  10.642
55847W        W17301  22.664  42.391  14.927
55848W        W17302   6.794   8.299   1.737
55849W        W17303  32.596  29.038   2.756
55850W        W17304  39.895   3.393  11.566
55851W        W17305  10.306   2.855  10.445
55852W        W17306  40.522  32.986  13.453
55853W        W17307  19.213  16.237   2.766
55854W        W17308  13.244   4.386   3.358
55855W        W17309   6.262  30.162  10.614
55856W        W17310   1.957  30.156   3.177
55857W        W17311   4.773  10.184   5.133
55858W        W17312   3.930  10.721  11.511
55859W        W17313  19.223   1.846  13.410
55860W        W17314  38.839  26.689  12.403
55861W        W17315  15.320   8.220   2.758
55862W        W17316  35.423   6.718  13.052
55863W        W17317  16.751   3.418  10.436
55864W        W17318  19.132  18.153   2.248
55865W        W17319   0.882  13.326   1.402
55866W        W17320  31.501  15.822  11.019
55867W        W17321  15.709  35.420  11.100
55868W        W17322  35.476  38.426   1.256
55869W        W17323  32.473   0.774   0.839
55870W        W17324  26.574  21.566   3.345
55871W        W17325  38.368  23.627  12.540
55872W        W17326   7.396  20.690   0.803
55873W        W17327  25.097  18.115  13.411
55874W        W17328   2.365   0.338   2.730
55875W        W17329  42.787  12.717   1.824
55876W        W17330  41.011  20.103  11.979
55877W        W17331   8.236   2.309   2.737
55878W        W17332  32.103   3.736   1.305
55879W        W17333  10.296  30.596   0.290
55880W        W17334  21.731  26.073  13.363
55881W        W17335  22.151  36.967   3.864
55882W        W17336  26.680  11.659   0.805
55883W        W17337   9.868  41.413  13.548
55884W        W17338  34.037  28.615   1.703
55885W        W17339  10.247  43.899  11.464
55886W        W17340  33.041  41.416  12.540
55887W        W17341   2.877  43.462  11.920
55888W        W17342  28.488  31.440   0.806
55889W        W17343  42.810  20.732  12.557
55890W        W17344   6.214   7.790   2.224
55891W        W17345  30.528  17.689  14.326
55892W        W17346  44.324  38.447   2.307
55893W        W17347   5.345   6.255  11.965
55894W        W17348   2.363  27.952  10.944
55895W        W17349  18.064  24.696  10.921
55896W        W17350  32.139  28.548   2.858
55897W        W17351   8.350   8.173  11.985
55898W        W17352  25.524  11.714  12.579
55899W        W17353   3.368   3.461   4.161
55900W        W17354   3.311  19.711  11.427
55901W        W17355  35.581   6.914   3.839
55902W        W17356  41.895   0.285   0.378
55903W        W17357  11.656  33.489   0.293
55904W        W17358  29.932  24.001  14.852
55905W        W17359  12.302  44.259   3.810
55906W        W17360  15.271  34.959  14.994
55907W        W17361   8.901   0.768   4.771
55908W        W17362  36.879  44.962   4.130
55909W        W17363   0.307  39.827   3.219
55910W        W17364  44.445  23.548   4.684
55911W        W17365  12.856   4.371   0.352
55912W        W17366   0.470  40.422   3.638
55913W        W17367   2.411  32.460  13.507
55914W        W17368  10.740   7.260  13.521
55915W        W17369  43.933  28.929   1.229
55916W        W17370   2.873   9.297  12.973
55917W        W17371  26.530  40.805  11.971
55918W        W17372   5.918  33.513   2.324
55919W        W17373  28.938  22.514  11.458
55920W        W17374  35.966  31.006   1.377
55921W        W17375   9.737  14.100  13.815
55922W        W17376  32.394   5.359   3.263
55923W        W17377   5.228   5.796   0.887
55924W        W17378  38.920   3.712  12.902
55925W        W17379  12.221  16.636  14.895
55926W        W17380  24.103   4.842   2.763
55927W        W17381  30.039  41.035  11.931
55928W        W17382  34.968  37.870   3.267
55929W        W17383  20.764  11.201  13.452
55930W        W17384  25.707   2.319  13.844
55931W        W17385  14.300  36.546   1.240
55932W        W17386   2.854  15.663  11.541
55933W        W17387   8.342  13.178   1.743
55934W        W17388   2.290  18.256   5.235
55935W        W17389   3.864  21.741  10.999
55936W        W17390  27.080   9.888   4.286
55937W        W17391  38.973  11.313  11.886
55938W        W17392  19.611  39.470  14.955
55939W        W17393  15.305  19.748  11.422
55940W        W17394  28.094  22.135   2.275
55941W        W17395  43.360  21.630   2.367
55942W        W17396  27.995  26.050   9.996
55943W        W17397   6.201  22.730   4.775
55944W        W17398  39.954  22.133   0.915
55945W        W17399   0.325  30.094   0.261
55946W        W17400  15.268  36.005   2.759
55947W        W17401  36.962  13.232  13.394
55948W        W17402  26.603  23.081   3.657
55949W        W17403   5.804  40.896  13.008
55950W        W17404  38.041  36.860   5.151
55951W        W17405   6.792   8.250  10.464
55952W        W17406  40.844  40.371   3.188
55953W        W17407  36.387  17.238   1.824
55954W        W17408  39.436  10.709   2.251
55955W        W17409  24.999   5.388   1.381
55956W        W17410   1.314   3.345   0.400
55957W        W17411   3.411  19.260  11.029
55958W        W17412   5.720   3.360   5.287
55959W        W17413   0.268   9.230  11.595
55960W        W17414  35.556  22.643   2.302
55961W        W17415  40.309   0.335  14.340
55962W        W17416  36.560  17.617   3.346
55963W        W17417   9.165   1.466   2.199
55964W        W17418  24.152  28.468  13.485
55965W        W17419  26.038  17.307   0.755
55966W        W17420  21.636   5.920  14.798
55967W        W17421   7.665  39.374   2.778
55968W        W17422  20.139   6.865   4.209
55969W        W17423  22.207  10.756  13.872
55970W        W17424  25.143  39.920   0.840
55971W        W17425  22.547  20.092   2.242
55972W        W17426  25.562  20.668  11.546
55973W        W17427  10.206  17.278  12.853
55974W        W17428  35.964  41.300  11.027
55975W        W17429  16.754  30.162   4.316
55976W        W17430   1.929  37.065   0.890
55977W        W17431   3.729  22.192  10.984
55978W        W17432  38.968   4.391  12.874
55979W        W17433  40.318  31.940  11.924
55980W        W17434  44.317  41.982   0.910
55981W        W17435  30.630  19.550  12.824
55982W        W17436  12.778  12.741   2.190
55983W        W17437  37.479   7.753   1.743
55984W        W17438  16.281  42.469   4.272
55985W        W17439  15.215  26.602  14.829
55986W        W17440  23.087  26.089   3.854
55987W        W17441  43.866   3.245  13.378
55988W        W17442  25.135   4.325  13.519
55989W        W17443  44.934  41.491   3.150
55990W        W17444   0.836  15.765   3.164
55991W        W17445  15.690  38.926   0.862
55992W        W17446  35.928  18.786  12.049
55993W        W17447   2.966  37.530  11.878
55994W        W17448   1.477  22.742   0.252
55995W        W17449   5.248  36.496  12.849
55996W        W17450  37.906  17.705  11.933
55997W        W17451  15.264  32.921  13.506
55998W        W17452  34.952   2.453  12.892
55999W        W17453  22.716   6.692  11.935
56000W        W17454  21.617  14.327   3.229
56001W        W17455  39.497  44.767   3.827
56002W        W17456  24.574  12.299  13.412
56003W        W17457  36.519  15.317   1.222
56004W        W17458  36.452  34.003  12.889
56005W        W17459  16.617  22.199   2.696
56006W        W17460   6.807   1.886   1.840
56007W        W17461  20.219   7.175  14.356
56008W        W17462  25.616  38.561  11.488
56009W        W17463   5.315  20.157   3.869
56010W        W17464  10.696   5.885   3.363
56011W        W17465   1.347  32.416   1.320
56012W        W17466  18.111  43.957  11.392
56013W        W17467  21.180  35.438   2.346
56014W        W17468  20.083   5.802   2.354
56015W        W17469   5.835  15.676  13.979
56016W        W17470  14.828  20.642  12.983
56017W        W17471  31.142  23.047  12.408
56018W        W17472  10.320  16.088  12.415
56019W        W17473  43.974  38.568   3.334
56020W        W17474  44.291  33.499  14.013
56021W        W17475  30.623  13.211  12.038
56022W        W17476  43.913  19.186  14.908
56023W        W17477  36.972  37.032   0.301
56024W        W17478  22.220  15.751  11.870
56025W        W17479  12.142   2.411  14.496
56026W        W17480   6.819  39.879   0.964
56027W        W17481  23.126  43.335  12.369
56028W        W17482  23.046  30.117   3.831
56029W        W17483  28.170   5.861   1.315
56030W        W17484  11.777   1.296  13.905
56031W        W17485   8.172  10.298   0.267
56032W        W17486   6.300  43.990   0.798
56033W        W17487  22.506  30.594   9.966
56034W        W17488  34.052  35.982   1.387
56035W        W17489  23.022  11.673  12.931
56036W        W17490   7.796  38.481  10.600
56037W        W17491   5.412   2.796  13.813
56038W        W17492  15.208  21.572   2.371
56039W        W17493  37.392  40.498   2.867
56040W        W17494  32.622   7.712  12.346
56041W        W17495   5.330   3.748   2.249
56042W        W17496   6.920  14.327  13.822
56043W        W17497  39.850  21.558  10.941
56044W        W17498  38.990  12.260   0.891
56045W        W17499  16.240  15.116   5.310
56046W        W17500  26.022  42.923   0.456
56047W        W17501  11.657  24.634   1.250
56048W        W17502  43.357  14.234   1.303
56049W        W17503  39.984  19.774  13.820
56050W        W17504  33.393   1.312  14.411
56051W        W17505  32.619  17.114  12.923
56052W        W17506  26.627  37.490   0.310
56053W        W17507   5.207  34.488   4.115
56054W        W17508  15.738  12.202  13.382
56055W        W17509  13.226   1.863  13.472
56056W        W17510   6.408   8.702   4.274
56057W        W17511  42.457  34.926   1.789
56058W        W17512  32.911  18.725   2.900
56059W        W17513  30.565   2.965   2.250
56060W        W17514  13.180  41.449  13.903
56061W        W17515  27.077  37.536  11.424
56062W        W17516  17.235   0.363  14.985
56063W        W17517  15.306  34.979  10.626
56064W        W17518  33.110   6.295  10.939
56065W        W17519  20.134  17.556  13.794
56066W        W17520   7.337  22.090  13.024
56067W        W17521  25.536   9.678  13.471
56068W        W17522  36.469  41.351   3.180
56069W        W17523  32.480  16.252   0.748
56070W        W17524  22.570   2.726  10.404
56071W        W17525  13.172  21.052  13.845
56072W        W17526  11.187  26.039  12.444
56073W        W17527   6.831  22.584  13.332
56074W        W17528  43.016  40.534  10.963
56075W        W17529  21.709  26.965  11.105
56076W        W17530  39.821  32.997  14.919
56077W        W17531   5.916   5.826   0.902
56078W        W17532   9.219  34.585   2.854
56079W        W17533  15.746  19.661  12.421
56080W        W17534  39.350  19.641   4.658
56081W        W17535  15.815  44.396  12.071
56082W        W17536   9.160  33.608   1.872
56083W        W17537   2.838  43.784   1.926
56084W        W17538  38.526   5.428  13.036
56085W        W17539  25.651  27.111  14.881
56086W        W17540  16.144  21.161   1.833
56087W        W17541  33.007  23.705   0.261
56088W        W17542  36.941  41.515   3.652
56089W        W17543  35.536  24.548  10.463
56090W        W17544   9.756  18.154   3.836
56091W        W17545  26.608  26.637   4.803
56092W        W17546  10.658  40.015   3.685
56093W        W17547  24.606  42.840  12.448
56094W        W17548  14.186  32.411   0.431
56095W        W17549  37.886  30.007  14.886
56096W        W17550  13.299  11.261   2.289
56097W        W17551  34.541  27.629   0.873
56098W        W17552  19.578  18.106   2.690
56099W        W17553  25.701  23.039   0.298
56100W        W17554  21.093   3.369  10.130
56101W        W17555  33.003  34.105   3.273
56102W        W17556  20.241   7.193   4.734
56103W        W17557  21.242  38.949  13.454
56104W        W17558  33.967  14.136  14.512
56105W        W17559  44.822  42.839  11.101
56106W        W17560  39.867  40.849   1.908
56107W        W17561  30.014  31.920   4.228
56108W        W17562  20.725  42.415  14.461
56109W        W17563  21.227  36.412  14.764
56110W        W17564  41.983  17.305   3.784
56111W        W17565  43.464  13.234   4.138
56112W        W17566  40.850  20.188   0.413
56113W        W17567  24.508  35.572  10.507
56114W        W17568   6.290   0.948   4.128
56115W        W17569  23.558  23.721  14.280
56116W        W17570  19.663  14.145   9.963
56117W        W17571  23.578  13.160   4.233
56118W        W17572  40.343   9.783   0.816
56119W        W17573  21.629   0.832   1.323
56120W        W17574  42.946  38.012  13.911
56121W        W17575   7.805  31.001   3.341
56122W        W17576  30.576  37.538  13.024
56123W        W17577  43.870  33.980  11.965
56124W        W17578  33.473   7.255  10.640
56125W        W17579  33.399  20.248  14.314
56126W        W17580  43.302  10.823  11.599
56127W        W17581   4.229  17.576  11.077
56128W        W17582   3.922  14.749  14.910
56129W        W17583  38.860  29.456  11.949
56130W        W17584  30.591   3.237   1.857
56131W        W17585  29.499  16.250  12.893
56132W        W17586  23.655  22.614  14.808
56133W        W17587   2.366  26.097   2.666
56134W        W17588  32.030  18.638  13.466
56135W        W17589  26.528   8.719  12.537
56136W        W17590  42.014  30.517  13.888
56137W        W17591   1.445  24.501   0.364
56138W        W17592  29.437  42.471  13.850
56139W        W17593  30.921  42.978   1.935
56140W        W17594  23.030  14.303  14.344
56141W        W17595  35.912  13.790  11.442
56142W        W17596  16.114  10.784   4.795
56143W        W17597  26.675  11.673  14.422
56144W        W17598  21.107   5.737   0.459
56145W        W17599  21.734  43.819   0.812
56146W        W17600   0.419  38.398   4.325
56147W        W17601  13.828  35.070   4.156
56148W        W17602   8.668  24.561   1.807
56149W        W17603  18.618  39.044   0.935
56150W        W17604  24.035  28.154  14.869
56151W        W17605  40.518  39.901  12.032
56152W        W17606  43.346  19.185   4.650
56153W        W17607  14.302  10.745   3.151
56154W        W17608  11.721   7.886  12.429
56155W        W17609   0.457  14.201  10.522
56156W        W17610  13.240  23.690   0.268
56157W        W17611  18.280  36.472  11.874
56158W        W17612   1.917  36.095   2.390
56159W        W17613   2.885   5.804  14.353
56160W        W17614  10.766   4.921  11.922
56161W        W17615  27.148  17.763  12.070
56162W        W17616  38.360  35.463   1.731
56163W        W17617   1.441  36.413   3.641
56164W        W17618   1.741  14.816   3.240
56165W        W17619   9.266  12.806   0.467
56166W        W17620  14.230  31.619   0.959
56167W        W17621  21.168  33.958  10.452
56168W        W17622   6.348  33.117   9.480
56169W        W17623  33.966   3.257   3.676
56170W        W17624  36.911  22.584   4.803
56171W        W17625  44.868  41.903   2.207
56172W        W17626  16.122  43.323   0.470
56173W        W17627  32.992   8.386   3.263
56174W        W17628  43.002  33.031  12.896
56175W        W17629  32.594  32.886   1.715
56176W        W17630  22.217  10.777  10.626
56177W        W17631  42.026  19.554   4.236
56178W        W17632  25.097  11.203   4.194
56179W        W17633   2.321  22.554   3.776
56180W        W17634  39.405  40.869   3.177
56181W        W17635  31.122  10.836   2.393
56182W        W17636  18.742  37.888  10.481
56183W        W17637  34.552  27.577   3.841
56184W        W17638  33.088  32.059  11.438
56185W        W17639  13.343  40.453  11.013
56186W        W17640   6.425  15.749  10.083
56187W        W17641  25.602  24.200   4.776
56188W        W17642   1.399   6.327   3.221
56189W        W17643  17.612  18.164  14.816
56190W        W17644  23.708  32.416   2.329
56191W        W17645  16.568  33.944  10.960
56192W        W17646  39.840  24.158   1.880
56193W        W17647  10.687  44.001  11.381
56194W        W17648  36.937  32.013   2.857
56195W        W17649  22.247  25.630   3.246
56196W        W17650  11.364  25.580   4.694
56197W        W17651   5.253  15.315   2.800
56198W        W17652  23.175  34.430   2.404
56199W        W17653  41.438  13.304   3.203
56200W        W17654  18.673  44.761   1.283
56201W        W17655  33.090  12.817   3.774
56202W        W17656  30.009  10.672  12.530
56203W        W17657  15.796  10.209   4.125
56204W        W17658  24.227  10.176   2.373
56205W        W17659  29.155  13.737   0.378
56206W        W17660  34.468  29.112   4.732
56207W        W17661  17.083  27.063   4.807
56208W        W17662  37.525  10.297   5.195
56209W        W17663   3.937  10.144  13.832
56210W        W17664  24.566  33.094  11.972
56211W        W17665  14.738   2.865   0.728
56212W        W17666  34.948  17.588  14.772
56213W        W17667   4.826  35.043   4.770
56214W        W17668  43.862   8.864  14.367
56215W        W17669   7.841  15.125  14.789
56216W        W17670  21.739  39.322   4.193
56217W        W17671  17.283  12.281   1.893
56218W        W17672   5.793  31.534   3.686
56219W        W17673  13.283  39.982   4.146
56220W        W17674  30.635  39.532   1.823
56221W        W17675   0.251  18.618  11.957
56222W        W17676  22.104   9.341  12.083
56223W        W17677  11.647   1.848  11.912
56224W        W17678  28.963   9.756  11.025
56225W        W17679  31.570  23.195   4.312
56226W        W17680  32.970  41.826  13.380
56227W        W17681  16.258  14.210  14.843
56228W        W17682   9.378  21.132  11.384
56229W        W17683  33.015  13.823  12.891
56230W        W17684  36.895  24.577   0.793
56231W        W17685  23.045  35.453   0.442
56232W        W17686  34.873  20.217   0.458
56233W        W17687  35.952   4.351  10.954
56234W        W17688  43.811   8.252  12.843
56235W        W17689  35.390  28.024  13.983
56236W        W17690  10.871  28.176   2.673
56237W        W17691  29.035   2.914  10.052
56238W        W17692  31.427  32.595  14.471
56239W        W17693  23.553  21.666   0.398
56240W        W17694   7.708  10.225   1.235
56241W        W17695  28.058  12.811  10.441
56242W        W17696  35.004   0.324  11.095
56243W        W17697  28.984  19.095   0.756
56244W        W17698  40.492  41.444  13.028
56245W        W17699  29.432  37.422   0.266
56246W        W17700   4.700  21.581  14.348
56247W        W17701  32.627  27.545   1.320
56248W        W17702   2.905   3.324  14.794
56249W        W17703  40.353   2.366  14.397
56250W        W17704  26.197  38.537  11.585
56251W        W17705   6.878   2.849   4.612
56252W        W17706  13.609  40.522  13.007
56253W        W17707  36.440  43.923   1.701
56254W        W17708  16.759  27.569   4.672
56255W        W17709   4.811  39.017   3.312
56256W        W17710  40.327  24.600   0.918
56257W        W17711  35.477  35.547  10.891
56258W        W17712  41.471   6.369   0.456
56259W        W17713  11.718  31.603   3.365
56260W        W17714  20.640   1.353  12.000
56261W        W17715  30.988  44.487   1.801
56262W        W17716  32.127  26.607  13.008
56263W        W17717  16.192  22.092   2.901
56264W        W17718   4.853  28.587  11.612
56265W        W17719  30.456  21.162  14.972
56266W        W17720  43.468   6.913   4.700
56267W        W17721  39.954   0.977  13.326
56268W        W17722   5.762  29.174  13.329
56269W        W17723  33.042  25.208  13.887
56270W        W17724  10.673   6.422   1.425
56271W        W17725  25.694  16.199   1.782
56272W        W17726  40.798   3.282  11.613
56273W        W17727  22.032  11.798  14.844
56274W        W17728   5.424  12.757  12.511
56275W        W17729  17.742  17.616   3.786
56276W        W17730   1.289   5.256   4.158
56277W        W17731  32.617  24.125  14.784
56278W        W17732  36.370  11.855   1.931
56279W        W17733  39.848  16.092  13.364
56280W        W17734   0.378   6.354   2.787
56281W        W17735  29.047  14.280  13.389
56282W        W17736  19.593  22.527   3.313
56283W        W17737  27.527  42.287   4.736
56284W        W17738  26.099  20.566  14.347
56285W        W17739  30.654   8.783   0.407
56286W        W17740  21.061   3.378   5.305
56287W        W17741  40.051  16.719  10.418
56288W        W17742   8.337  44.483   0.876
56289W        W17743  12.180  15.119  10.594
56290W        W17744  10.780   5.807   1.815
56291W        W17745  17.284   2.433   4.266
56292W        W17746   7.234  21.612   2.409
56293W        W17747  30.126   1.333  12.418
56294W        W17748  18.699  41.839   2.254
56295W        W17749  23.659   7.796  13.510
56296W        W17750   2.929  33.454  14.341
56297W        W17751   0.854  18.767   4.632
56298W        W17752  36.442  12.292   2.709
56299W        W17753   0.794  19.149  11.963
56300W        W17754  14.650  18.555  11.494
56301W        W17755   7.785   7.218   2.662
56302W        W17756  11.710  33.441   3.637
56303W        W17757  22.053   5.849  12.501
56304W        W17758   9.287  41.941   3.342
56305W        W17759   0.905  36.890  14.384
56306W        W17760   6.717  32.111   2.753
56307W        W17761  26.179  26.541   3.816
56308W        W17762  22.665  38.442  10.479
56309W        W17763  14.294  33.033  10.425
56310W        W17764  40.974  29.530  12.835
56311W        W17765   6.256  14.269   5.321
56312W        W17766  35.985  14.718  13.440
56313W        W17767   8.801   6.897  13.991
56314W        W17768  19.105  10.149  14.996
56315W        W17769  38.873  44.288   4.821
56316W        W17770  12.338   9.270   2.899
56317W        W17771  23.559  34.931   1.856
56318W        W17772  18.061  41.442  12.970
56319W        W17773  13.203  41.505   2.779
56320W        W17774  19.110   0.933   0.245
56321W        W17775  33.911   2.313  13.859
56322W        W17776  37.365   0.365  14.872
56323W        W17777  33.486  18.235   4.668
56324W        W17778   9.309   3.399  11.927
56325W        W17779   9.844  13.161  11.419
56326W        W17780   7.403  25.116   4.353
56327W        W17781  38.502  41.034   1.349
56328W        W17782  26.636   2.232   2.301
56329W        W17783  28.176   5.348   1.269
56330W        W17784  12.347   4.306  14.910
56331W        W17785   0.257  28.580  13.472
56332W        W17786   9.330  28.998   3.638
56333W        W17787   7.869  37.455  12.483
56334W        W17788  18.576  33.488   4.745
56335W        W17789   9.688   5.348  12.928
56336W        W17790  33.069   7.808  14.899
56337W        W17791  44.478  29.158   3.335
56338W        W17792  15.177  36.886   1.792
56339W        W17793  10.383  20.732  11.554
56340W        W17794  37.496  34.109   3.848
56341W        W17795  30.986  22.046   4.727
56342W        W17796  11.368  39.505   1.242
56343W        W17797  24.170  17.582  10.441
56344W        W17798  28.553   7.182   3.299
56345W        W17799  28.085   5.856  10.044
56346W        W17800   4.847  14.197   0.417
56347W        W17801  11.745  16.768   4.314
56348W        W17802  35.903   2.783   2.266
56349W        W17803  40.988  11.225   4.743
56350W        W17804   0.465  34.466   1.795
56351W        W17805   1.927  26.995   0.362
56352W        W17806  37.083  12.852   4.618
56353W        W17807  11.226  11.857  12.463
56354W        W17808  10.184   7.852  14.449
56355W        W17809  32.961  14.110  14.958
56356W        W17810  35.449  25.697   0.843
56357W        W17811   6.753   6.893  14.437
56358W        W17812  40.421  34.526   4.168
56359W        W17813  13.137   4.759  11.543
56360W        W17814   7.730   6.269  11.015
56361W        W17815  14.194  13.792  13.524
56362W        W17816  32.925  13.842  13.878
56363W        W17817  38.974  18.066   9.930
56364W        W17818  16.750  30.056   0.278
56365W        W17819  35.909   3.859  14.298
56366W        W17820  12.661  28.543  13.532
56367W        W17821   6.793  20.768  11.874
56368W        W17822  30.095   4.271  12.385
56369W        W17823  30.103   9.255   1.802
56370W        W17824  24.224  38.918   3.223
56371W        W17825  19.195  40.835  12.455
56372W        W17826  15.607  37.060   0.260
56373W        W17827  17.661  20.665   2.720
56374W        W17828  44.784  21.557  13.826
56375W        W17829   3.896  27.537  10.496
56376W        W17830   4.415  17.645   3.206
56377W        W17831   6.878   5.818   4.623
56378W        W17832  37.395  13.701  12.573
56379W        W17833  20.672  36.042   2.372
56380W        W17834  37.990  37.498  11.955
56381W        W17835  21.107  25.025  14.395
56382W        W17836  34.982  22.680   2.878
56383W        W17837   0.910  38.447   3.630
56384W        W17838   6.208  16.075  13.854
56385W        W17839   3.423  25.120  11.378
56386W        W17840  25.188  15.582   1.935
56387W        W17841  32.919  32.135   4.155
56388W        W17842  35.427   5.309  14.395
56389W        W17843  21.017   2.869  12.944
56390W        W17844  29.456   4.442   0.763
56391W        W17845   2.742   9.701  14.979
56392W        W17846  22.017  26.566  11.047
56393W        W17847  10.141   6.248   4.661
56394W        W17848   3.887   8.265   2.345
56395W        W17849   1.377   3.390   2.347
56396W        W17850  29.553  23.014   3.717
56397W        W17851  35.567   2.914   2.260
56398W        W17852  29.996  19.719  10.513
56399W        W17853  10.374  26.501  11.120
56400W        W17854  43.338   3.816   0.260
56401W        W17855  34.009  43.281  13.441
56402W        W17856   6.694  34.388  10.444
56403W        W17857  10.731   6.378   3.786
56404W        W17858   0.343   3.303  11.493
56405W        W17859  39.320  44.264   2.360
56406W        W17860  36.514  15.314   2.741
56407W        W17861  14.742  24.114   4.806
56408W        W17862   5.432   5.829   4.215
56409W        W17863  43.356  41.450   1.337
56410W        W17864  25.209  25.554   0.743
56411W        W17865  15.286   9.350  12.880
56412W        W17866  42.796  41.031   4.240
56413W        W17867  19.634  41.874   1.821
56414W        W17868   1.848  32.917  14.447
56415W        W17869  18.254  41.907   4.123
56416W        W17870  41.353  42.466  11.964
56417W        W17871   9.232  36.872   1.265
56418W        W17872  24.159  44.411   5.161
56419W        W17873  18.729   6.287   0.778
56420W        W17874  24.003  31.499   1.377
56421W        W17875  22.513  29.531  13.924
56422W        W17876  18.750   6.366  12.886
56423W        W17877  29.436  36.017  14.296
56424W        W17878  34.113  13.608  14.423
56425W        W17879   4.419   6.296   1.337
56426W        W17880  13.789  43.323   0.755
56427W        W17881  12.773  14.790  14.278
56428W        W17882  40.821  15.631  12.481
56429W        W17883  39.519  21.234  13.052
56430W        W17884  28.037  43.952   1.917
56431W        W17885  18.681  32.531   1.251
56432W        W17886  11.625  11.864  14.357
56433W        W17887   8.283   0.843  13.032
56434W        W17888   6.757  11.269   4.115
56435W        W17889  23.198   9.160   1.708
56436W        W17890  21.689  16.287  14.324
56437W        W17891  40.404  31.939   4.617
56438W        W17892   3.779  35.456   2.276
56439W        W17893  21.753  18.089   0.735
56440W        W17894  14.115  25.645  10.480
56441W        W17895  10.329  11.756   0.267
56442W        W17896  28.637  26.643   2.179
56443W        W17897   9.845  17.088   4.289
56444W        W17898  44.467   9.829   1.307
56445W        W17899  21.649  34.597  10.975
56446W        W17900  15.613  43.351   0.430
56447W        W17901  31.089  18.598   4.822
56448W        W17902  30.999  37.465  10.478
56449W        W17903   6.856  29.639  14.931
56450W        W17904  28.502   6.786  12.069
56451W        W17905  11.696   3.952   0.356
56452W        W17906  15.649  13.764  12.032
56453W        W17907   5.921  16.122   2.398
56454W        W17908  24.211  27.670  14.317
56455W        W17909  18.266   2.945   4.220
56456W        W17910  26.506  43.977  14.766
56457W        W17911  19.733  24.988  10.553
56458W        W17912   9.814  39.904  14.839
56459W        W17913  22.533  28.576   4.287
56460W        W17914  10.289  15.628   3.356
56461W        W17915  14.170  34.039   3.645
56462W        W17916  17.166  35.464   0.826
56463W        W17917  37.422   0.849  11.378
56464W        W17918   5.232  26.523   3.196
56465W        W17919   4.326   8.195   1.360
56466W        W17920  15.189   8.228  14.293
56467W        W17921  26.047  41.883  12.968
56468W        W17922  18.131   4.901  13.430
56469W        W17923  29.505   8.827   4.812
56470W        W17924   5.219   6.281   0.728
56471W        W17925  12.120   9.872  10.909
56472W        W17926  13.146  36.899   0.917
56473W        W17927  20.648  41.475  13.800
56474W        W17928   7.851  41.513  13.512
56475W        W17929  33.493  17.150   2.895
56476W        W17930  17.293   3.402   2.780
56477W        W17931  38.979  37.501   0.292
56478W        W17932  43.005   0.423   3.367
56479W        W17933  16.108   9.718   3.660
56480W        W17934  27.082  42.776   4.284
56481W        W17935  44.480  22.234  14.808
56482W        W17936  44.435  11.626  11.593
56483W        W17937  20.537  18.714  14.954
56484W        W17938  12.171  36.452   0.754
56485W        W17939  23.577  39.831   2.823
56486W        W17940   2.302   1.391  10.957
56487W        W17941  38.458   7.200  11.948
56488W        W17942  30.971  24.486   4.140
56489W        W17943  27.966  26.965  13.372
56490W        W17944  32.620  25.701   4.340
56491W        W17945  23.710  38.842   0.388
56492W        W17946  12.842   7.256   3.261
56493W        W17947  12.344   4.329   2.798
56494W        W17948  10.217  17.658  13.482
56495W        W17949  18.683  42.460  12.533
56496W        W17950  13.785   2.317   0.292
56497W        W17951  43.426  12.358  10.495
56498W        W17952  22.099  19.182  11.514
56499W        W17953  39.967  17.610   2.289
56500W        W17954  18.651  30.954  14.343
56501W        W17955   4.866   3.233   0.965
56502W        W17956  39.331  17.586   0.343
56503W        W17957  29.061  37.531   1.262
56504W        W17958  38.011  29.024  13.995
56505W        W17959  18.625  24.707   1.309
56506W        W17960  39.376  32.496   1.272
56507W        W17961  13.704   4.447  12.041
56508W        W17962  29.096  33.941   2.821
56509W        W17963  35.047  44.300  11.903
56510W        W17964   8.889  29.993   1.758
56511W        W17965  13.822  35.028  13.931
56512W        W17966  11.828   9.700  12.346
56513W        W17967  37.994  43.496  10.504
56514W        W17968  30.577  44.792   1.767
56515W        W17969  38.391   6.914  14.899
56516W        W17970   3.215  43.453   1.406
56517W        W17971  18.773  14.747   3.717
56518W        W17972  37.485  16.653   1.438
56519W        W17973   6.281  38.939  13.413
56520W        W17974  29.069  36.911   1.417
56521W        W17975  38.436  23.148  12.938
56522W        W17976  23.146  39.899   0.837
56523W        W17977  44.328  34.093  10.599
56524W        W17978  24.220   5.865  14.498
56525W        W17979   3.375  30.455  13.350
56526W        W17980  10.314  24.705   2.258
56527W        W17981   8.750  37.068  13.807
56528W        W17982  29.173  38.386   3.685
56529W        W17983   0.264  24.699   1.366
56530W        W17984  44.474  27.541  14.280
56531W        W17985  10.369  14.770   0.358
56532W        W17986  23.610  37.471  11.058
56533W        W17987  12.740  13.345   4.608
56534W        W17988  10.234   9.799  13.879
56535W        W17989  30.055  14.147  13.006
56536W        W17990  38.950  13.757  10.484
56537W        W17991  22.124  44.911   0.852
56538W        W17992  33.952  39.539   1.333
56539W        W17993  18.239   6.713   4.256
56540W        W17994  34.868  16.644   0.302
56541W        W17995  25.205   3.933   2.668
56542W        W17996  38.851  26.016  14.486
56543W        W17997  18.115  37.445  14.308
56544W        W17998   1.271   9.319   2.732
56545W        W17999  35.893   8.368   4.761
56546W        W18000  28.064   5.920  12.348
56547W        W18001  22.587  10.229   4.277
56548W        W18002  13.261  28.172   1.739
56549W        W18003  27.527  25.135   3.867
56550W        W18004  32.546  42.387   0.866
56551W        W18005  25.137   5.332   3.226
56552W        W18006  17.093   9.793  12.089
56553W        W18007   6.683  36.377  14.833
56554W        W18008  20.227  24.994  13.947
56555W        W18009  34.878  20.108  10.499
56556W        W18010   8.786  32.591   3.356
56557W        W18011  40.509  33.523   3.282
56558W        W18012   6.261   4.441   4.820
56559W        W18013  26.461   4.207   5.723
56560W        W18014  13.738   6.696  13.863
56561W        W18015  42.427  17.683   3.664
56562W        W18016  37.995   6.274   2.903
56563W        W18017  20.530  37.891   0.727
56564W        W18018  16.758   2.754   4.720
56565W        W18019   3.358   5.724   3.731
56566W        W18020  22.679  32.083   1.288
56567W        W18021  16.756  25.161   2.325
56568W        W18022  18.188   4.905   2.360
56569W        W18023  25.620  11.838   0.964
56570W        W18024  19.612  35.047   1.731
56571W        W18025  10.831  10.315   0.425
56572W        W18026  30.961  25.118  14.442
56573W        W18027  16.114  14.303   2.839
56574W        W18028  10.139  23.046  12.937
56575W        W18029  41.815  29.988  12.979
56576W        W18030  37.085  18.269  11.402
56577W        W18031  39.960  17.785  11.863
56578W        W18032  12.201  10.314   4.318
56579W        W18033   2.376  18.077  13.064
56580W        W18034  25.577  19.647   2.220
56581W        W18035  42.785  38.439   0.868
56582W        W18036  35.597  14.264  14.871
56583W        W18037  10.173  36.061  11.982
56584W        W18038  22.523  27.616   2.823
56585W        W18039   9.258  24.496  10.899
56586W        W18040  32.945  35.055   3.793
56587W        W18041  28.987   2.868  10.951
56588W        W18042  36.095  27.604  11.456
56589W        W18043  10.754  37.852  12.019
56590W        W18044   0.292  36.059   2.413
56591W        W18045  19.269  27.595  13.499
56592W        W18046   6.693  42.964   0.829
56593W        W18047   4.409  42.493  13.851
56594W        W18048  16.261   8.670  13.959
56595W        W18049  31.512  44.851  11.861
56596W        W18050  24.187  17.556   1.300
56597W        W18051  32.584  34.503  12.395
56598W        W18052  35.971  38.051  10.497
56599W        W18053  42.513  36.948  10.578
56600W        W18054   1.324   9.276   4.343
56601W        W18055  18.562   7.409  12.569
56602W        W18056  34.966   8.305   2.879
56603W        W18057  28.609  11.249   2.810
56604W        W18058   4.212  30.511   4.763
56605W        W18059   5.360  10.731   4.127
56606W        W18060  41.808   9.683  14.421
56607W        W18061   0.867  10.351  14.363
56608W        W18062   1.308   4.797   0.906
56609W        W18063  20.632   4.320  10.953
56610W        W18064  28.463  22.115   0.394
56611W        W18065  37.532  37.049   4.721
56612W        W18066  12.331  30.637  11.484
56613W        W18067  23.011   0.330  10.936
56614W        W18068  39.478  31.132  11.870
56615W        W18069  36.062   9.688   3.321
56616W        W18070  36.577   8.848  11.477
56617W        W18071  44.387   6.249  11.451
56618W        W18072   7.706  20.173   4.211
56619W        W18073  35.587   4.318   0.740
56620W        W18074  14.276  29.652  10.972
56621W        W18075   5.921  27.581  14.793
56622W        W18076   4.808  26.014   2.845
56623W        W18077  39.918  19.569  12.507
56624W        W18078  13.278   4.711   3.630
56625W        W18079  21.590  25.060   0.845
56626W        W18080  35.939   9.691   0.741
56627W        W18081  17.115  40.480  10.958
56628W        W18082  44.472  12.725  12.087
56629W        W18083  41.411  22.520   2.318
56630W        W18084  12.748   1.438   2.336
56631W        W18085  28.944  36.418   2.772
56632W        W18086  30.547   3.408   0.964
56633W        W18087  18.074   1.974   1.840
56634W        W18088  24.506  14.309  11.419
56635W        W18089   8.757   0.786  10.973
56636W        W18090  37.572   4.916  12.853
56637W        W18091   4.779  43.855   4.276
56638W        W18092  26.630  11.287   2.253
56639W        W18093   7.772  25.081  10.611
56640W        W18094  36.468  37.400  12.533
56641W        W18095   3.375  40.497  10.548
56642W        W18096   7.767  39.491  10.887
56643W        W18097  33.015  26.583   0.833
56644W        W18098  16.606  10.777  11.404
56645W        W18099  36.061  15.306   4.233
56646W        W18100   6.416  18.645  14.514
56647W        W18101  11.778  10.817   2.676
56648W        W18102  28.118  17.739  12.037
56649W        W18103  40.464  14.219  10.997
56650W        W18104  37.536   7.737   2.273
56651W        W18105  35.963  44.383   4.750
56652W        W18106  27.106  12.660  10.890
56653W        W18107  26.150  19.158   3.713
56654W        W18108  37.562   3.285  14.942
56655W        W18109  38.357  36.904   2.354
56656W        W18110  12.799  17.089   4.244
56657W        W18111  42.506  13.317  12.855
56658W        W18112  34.609  30.575   1.381
56659W        W18113  19.076  24.202  12.496
56660W        W18114  43.343  13.248   1.320
56661W        W18115   4.745  24.009  12.372
56662W        W18116   8.385   8.716  13.517
56663W        W18117  42.517  37.412   0.763
56664W        W18118   7.300  37.451   4.800
56665W        W18119  28.549  26.050   5.111
56666W        W18120  15.579  20.135  11.378
56667W        W18121  30.564   3.342  10.617
56668W        W18122  34.462  40.469   2.182
56669W        W18123  25.178  22.678  10.062
56670W        W18124  19.284  41.341  14.294
56671W        W18125  32.464  16.748   3.344
56672W        W18126   5.883  27.089   1.805
56673W        W18127  24.131   4.899   4.346
56674W        W18128  44.987  34.108   2.870
56675W        W18129   5.691  18.585  13.009
56676W        W18130  20.121  23.094  11.870
56677W        W18131  20.088  11.642  13.051
56678W        W18132   9.278  36.589   1.784
56679W        W18133  14.635  40.393   1.848
56680W        W18134  32.992  44.493  10.465
56681W        W18135  43.875  32.125  11.462
56682W        W18136  39.846  18.187   4.128
56683W        W18137  24.110  34.955  10.408
56684W        W18138  34.893  16.674   1.922
56685W        W18139  39.903  10.198   3.669
56686W        W18140  29.157  27.644   1.451
56687W        W18141  42.808  10.225  13.416
56688W        W18142   1.797  12.741  11.966
56689W        W18143  21.237  22.109  12.969
56690W        W18144  42.435   4.444   0.802
56691W        W18145  11.626  26.988  10.446
56692W        W18146  33.551  29.081   1.446
56693W        W18147  31.021   0.350   1.447
56694W        W18148  35.955  10.730   2.389
56695W        W18149  41.459   6.811   0.736
56696W        W18150  16.706  32.996  14.408
56697W        W18151  27.009  31.029  14.018
56698W        W18152  23.206  40.339  14.458
56699W        W18153  23.725   6.840   5.138
56700W        W18154   1.870  33.910  12.462
56701W        W18155  31.645  24.581   3.266
56702W        W18156  30.448   1.483   3.769
56703W        W18157  23.608  32.962  11.483
56704W        W18158  33.475  41.995   4.774
56705W        W18159  15.132  28.676   2.827
56706W        W18160   4.413  21.640  11.909
56707W        W18161  31.643   3.882  12.045
56708W        W18162  10.258   0.312  13.031
56709W        W18163  24.049  28.983   0.391
56710W        W18164  38.036  24.200  11.449
56711W        W18165  13.768  34.062   2.892
56712W        W18166  28.990  26.164  10.053
56713W        W18167   8.188  19.762  10.557
56714W        W18168  32.476  31.005   0.476
56715W        W18169  25.154  28.626   2.353
56716W        W18170  32.494  36.446  10.963
56717W        W18171  17.104  40.382   1.915
56718W        W18172   6.277  37.577  14.379
56719W        W18173   4.410  25.204   4.753
56720W        W18174  20.127  12.280  12.378
56721W        W18175  30.645  25.591   3.859
56722W        W18176  44.342  19.620   3.259
56723W        W18177   8.700   6.765  11.509
56724W        W18178  41.358   0.945  13.957
56725W        W18179  44.858  24.596  12.002
56726W        W18180  26.127  23.684   5.215
56727W        W18181  33.960   8.771  14.961
56728W        W18182  23.718  19.150  11.476
56729W        W18183   5.399   3.951   4.137
56730W        W18184  19.627   0.828   5.130
56731W        W18185  33.110   4.442   1.916
56732W        W18186  32.946  10.836   1.349
56733W        W18187  32.076  21.136  12.849
56734W        W18188  32.492  26.997  12.068
56735W        W18189  14.286   2.371  11.912
56736W        W18190  42.493  20.748   3.260
56737W        W18191  36.366  22.725   2.787
56738W        W18192  34.424  14.628   0.751
56739W        W18193  14.713  22.585  13.356
56740W        W18194  14.650  41.529  11.123
56741W        W18195  19.561  12.180   4.135
56742W        W18196  42.956   4.742   3.201
56743W        W18197   4.833  11.174   4.337
56744W        W18198   3.869  15.166   1.442
56745W        W18199  42.387  41.408   3.731
56746W        W18200  29.499  16.621   3.295
56747W        W18201  21.261  21.709  11.072
56748W        W18202  40.031  44.443   2.699
56749W        W18203  26.587  26.200   4.296
56750W        W18204  16.267  26.070   2.676
56751W        W18205  27.537  27.173  10.952
56752W        W18206  44.485  39.382  14.498
56753W        W18207   6.240   3.863  13.432
56754W        W18208  25.607  12.126  14.341
56755W        W18209   2.811  18.256   3.329
56756W        W18210  29.125  26.199   3.768
56757W        W18211  27.634  22.006  11.457
56758W        W18212  22.031  40.447  13.491
56759W        W18213  25.036  28.945  11.418
56760W        W18214  30.084   2.339  11.529
56761W        W18215  25.531  21.229   3.755
56762W        W18216  15.723   7.781  12.058
56763W        W18217   2.433  39.863   3.794
56764W        W18218  16.265  39.369   3.795
56765W        W18219  11.276   3.892  11.060
56766W        W18220  20.129   5.880   9.546
56767W        W18221  30.989  42.319   4.834
56768W        W18222   2.275  21.085   1.278
56769W        W18223  29.524   6.834   2.756
56770W        W18224  29.012  41.490   2.826
56771W        W18225  39.860  35.971   2.261
56772W        W18226  40.834  32.956  14.311
56773W        W18227  43.505  41.397  13.903
56774W        W18228   3.868  40.404   4.668
56775W        W18229  25.638  43.982  13.884
56776W        W18230  20.120   7.245  12.377
56777W        W18231   1.296  31.614   0.257
56778W        W18232  22.716  12.322   3.225
56779W        W18233  11.738  12.253  13.881
56780W        W18234  35.974  22.185  14.762
56781W        W18235  14.652  22.191  11.522
56782W        W18236   2.237  39.473   2.823
56783W        W18237  18.765  16.651   4.597
56784W        W18238   8.873  17.139   4.223
56785W        W18239  37.557  19.595   4.295
56786W        W18240   5.745  28.645  14.309
56787W        W18241   2.319  11.846   4.121
56788W        W18242  33.119  28.608   4.260
56789W        W18243   9.806   0.447   2.223
56790W        W18244  28.003  43.955  11.113
56791W        W18245   8.705  19.650   2.206
56792W        W18246   1.920  42.848  10.964
56793W        W18247  39.379  16.133   1.285
56794W        W18248  37.578  31.101   3.161
56795W        W18249  14.225  25.050  14.393
56796W        W18250  39.321  14.798   0.872
56797W        W18251  31.113  32.970  12.511
56798W        W18252  26.017   8.391  14.943
56799W        W18253  19.682  16.219  10.958
56800W        W18254  26.974  11.665   3.160
56801W        W18255  12.325  33.953  12.379
56802W        W18256  27.495  27.543   2.675
56803W        W18257  24.019   7.239   4.331
56804W        W18258  14.240   3.260   2.399
56805W        W18259  15.242   6.189  14.023
56806W        W18260  37.986  36.488  10.995
56807W        W18261  26.108   3.255  14.761
56808W        W18262  24.018  36.348   2.232
56809W        W18263  12.263  42.902   0.790
56810W        W18264  14.292   1.901  14.456
56811W        W18265  22.710   9.269  13.912
56812W        W18266  44.305  16.617  13.540
56813W        W18267  21.654   6.429   1.418
56814W        W18268  42.976  11.164   3.259
56815W        W18269  30.014  43.422  13.429
56816W        W18270  24.571  35.983  12.851
56817W        W18271   0.758  28.601   4.293
56818W        W18272  35.474  37.558  14.815
56819W        W18273   8.837   7.907  13.543
56820W        W18274   9.747  14.224  12.477
56821W        W18275   8.283  37.006   4.210
56822W        W18276  28.546  38.850   0.964
56823W        W18277  25.015  23.055   0.929
56824W        W18278  29.995   0.436   0.883
56825W        W18279  20.164  22.547  14.329
56826W        W18280  24.185   5.872   0.349
56827W        W18281   2.281   5.231   3.191
56828W        W18282  28.671  30.027  12.418
56829W        W18283  17.094  21.253  11.530
56830W        W18284  41.795  33.035  12.996
56831W        W18285   8.832  33.472  11.427
56832W        W18286  34.098  35.447  12.525
56833W        W18287  13.108  36.072   5.310
56834W        W18288  30.469  13.147   0.957
56835W        W18289  34.002   8.376   3.332
56836W        W18290  13.328  39.018   9.630
56837W        W18291  21.637   3.329   3.276
56838W        W18292  15.778   9.733  10.031
56839W        W18293  41.533  42.432   2.378
56840W        W18294  39.540  37.427  11.451
56841W        W18295  33.522   5.762  12.342
56842W        W18296  12.340  34.552  13.520
56843W        W18297   4.877   6.282   3.223
56844W        W18298   8.219  29.642  13.870
56845W        W18299   3.351  35.514   4.115
56846W        W18300  44.493  10.737  11.922
56847W        W18301   5.344   0.451  13.533
56848W        W18302  38.555  38.003   5.170
56849W        W18303  44.438  11.686  13.829
56850W        W18304  42.468  20.201  14.315
56851W        W18305  25.680  40.933  14.910
56852W        W18306  22.160  42.916  12.378
56853W        W18307  16.746  12.118  14.996
56854W        W18308  31.022  17.602   4.669
56855W        W18309   9.314  24.061  10.583
56856W        W18310  31.995  16.655   1.726
56857W        W18311   2.860  18.212  11.527
56858W        W18312  11.277  11.339   4.277
56859W        W18313  38.836  38.390   0.274
56860W        W18314  36.843  32.126  14.915
56861W        W18315  37.574  13.329  12.458
56862W        W18316  35.091  11.681  12.544
56863W        W18317  11.663  18.656   3.733
56864W        W18318   6.723  31.928  14.811
56865W        W18319  39.451  21.068  13.834
56866W        W18320  25.047  41.481   4.147
56867W        W18321  30.984  34.554  10.959
56868W        W18322  36.084  11.746   4.355
56869W        W18323  32.409  39.323   4.126
56870W        W18324  24.704  39.986   2.754
56871W        W18325  37.083  11.308   2.286
56872W        W18326  10.875   8.382   0.415
56873W        W18327   8.213  42.408  11.884
56874W        W18328  32.454  13.153  13.434
56875W        W18329  13.339  38.467  13.005
56876W        W18330  25.159  27.666  11.456
56877W        W18331   4.306  12.812  10.609
56878W        W18332  17.197  16.600  11.453
56879W        W18333  44.435  30.607  11.871
56880W        W18334  11.348  16.227   2.388
56881W        W18335  28.167  26.171  13.408
56882W        W18336   5.203   7.822  14.428
56883W        W18337   0.468  36.000  11.956
56884W        W18338   5.197  31.068   1.396
56885W        W18339  32.474  26.016  14.470
56886W        W18340  30.540  38.917  13.425
56887W        W18341  32.524  33.471   1.902
56888W        W18342   6.384  35.524   3.837
56889W        W18343  20.683  21.233   4.311
56890W        W18344  42.406  42.016  12.021
56891W        W18345  23.597  42.490   1.414
56892W        W18346  32.005   1.373   0.303
56893W        W18347  35.594  19.238   2.386
56894W        W18348  42.864  21.547  13.791
56895W        W18349  38.993  38.063   5.291
56896W        W18350  28.112   1.404   2.287
56897W        W18351   8.378  18.591   0.325
56898W        W18352   2.379  17.658   4.643
56899W        W18353  30.418  15.203  10.436
56900W        W18354  35.419  30.655  11.098
56901W        W18355  21.574  15.693  14.477
56902W        W18356  12.707  26.005  10.412
56903W        W18357  26.040  40.345  11.465
56904W        W18358  10.675  27.998   4.731
56905W        W18359   5.403  22.997   0.889
56906W        W18360  21.227   7.347  13.415
56907W        W18361  38.569  11.739   0.868
56908W        W18362  13.643  21.602  11.906
56909W        W18363  30.082   6.184  11.969
56910W        W18364   5.420   4.283  11.406
56911W        W18365   9.326   3.292   4.726
56912W        W18366  11.169  34.956   5.261
56913W        W18367  20.601  17.184   1.791
56914W        W18368  27.467   7.735   5.091
56915W        W18369  33.059  16.695   0.906
56916W        W18370  41.388  38.409  12.890
56917W        W18371   5.246  26.561   4.668
56918W        W18372  13.732  15.175   4.281
56919W        W18373  20.590  24.654  11.914
56920W        W18374   7.783   0.824  11.089
56921W        W18375   0.455   9.676  13.858
56922W        W18376   6.402  31.059   4.640
56923W        W18377  22.737  13.621  11.408
56924W        W18378  41.311   5.435  11.110
56925W        W18379  14.247  16.743   3.645
56926W        W18380   4.313  25.480  14.431
56927W        W18381   5.712  29.934  10.502
56928W        W18382  36.999  21.552  12.094
56929W        W18383  12.187  21.691   2.830
56930W        W18384  20.199   1.771   0.443
56931W        W18385  32.608  30.575  12.540
56932W        W18386  41.936  19.708   1.425
56933W        W18387  19.220  42.436   0.901
56934W        W18388  25.550  29.465  13.506
56935W        W18389  30.095  28.516   1.896
56936W        W18390   8.696  32.111  11.374
56937W        W18391  20.697  23.139   4.661
56938W        W18392  10.365  29.666   0.795
56939W        W18393   0.873  22.606  11.517
56940W        W18394   5.287  41.007   2.871
56941W        W18395  26.066   0.252  13.408
56942W        W18396  15.796  35.516   0.813
56943W        W18397  12.266  38.447  14.009
56944W        W18398  24.038  43.887  14.788
56945W        W18399  43.968  31.562   3.253
56946W        W18400  24.034  12.673  11.510
56947W        W18401   5.378   1.450   0.307
56948W        W18402  19.691  34.988  13.994
56949W        W18403  43.772  27.078  13.526
56950W        W18404  24.620  38.001   3.707
56951W        W18405  32.100  31.961  14.359
56952W        W18406   5.714  15.274  13.394
56953W        W18407  19.564  35.545  12.457
56954W        W18408   5.435   6.207  10.617
56955W        W18409   8.295  18.603   3.383
56956W        W18410   9.310  29.548  10.614
56957W        W18411   1.334  42.822   3.699
56958W        W18412  38.468  17.612   2.303
56959W        W18413  17.170   4.937  13.399
56960W        W18414  32.578  12.747   4.156
56961W        W18415  39.431   5.265  10.977
56962W        W18416  30.912  44.273   3.278
56963W        W18417   8.751   3.293  12.425
56964W        W18418   1.742  12.691   0.738
56965W        W18419  13.222  29.498  14.915
56966W        W18420  31.517  13.838   1.747
56967W        W18421   7.742  24.557  13.878
56968W        W18422   5.699  21.027   1.917
56969W        W18423  29.926   3.383  13.004
56970W        W18424  12.280  14.178  13.415
56971W        W18425  40.545  39.988   3.193
56972W        W18426   7.780  16.128   3.228
56973W        W18427   8.211  35.508   4.303
56974W        W18428  27.611  43.945  14.787
56975W        W18429   5.699  28.051  10.962
56976W        W18430  29.456  39.864  11.047
56977W        W18431  10.677  35.020   3.849
56978W        W18432  13.268  13.671   1.912
56979W        W18433  11.236  27.485   1.861
56980W        W18434  41.347  44.268  11.570
56981W        W18435  26.061  14.692   0.380
56982W        W18436  33.115  10.156  14.810
56983W        W18437  42.376   3.383  12.570
56984W        W18438  39.369   3.270  11.996
56985W        W18439  18.051  32.947  13.468
56986W        W18440   6.418  15.799   1.360
56987W        W18441  21.751  39.891   4.762
56988W        W18442  26.508  35.906  13.431
56989W        W18443  34.052  30.050  12.031
56990W        W18444  13.201   6.889   1.377
56991W        W18445  11.626  34.944   1.288
56992W        W18446  25.576   1.741   4.663
56993W        W18447  43.910  39.990  14.841
56994W        W18448   7.814  38.982   0.316
56995W        W18449  38.515  19.245   3.804
56996W        W18450   6.324   0.866  13.049
56997W        W18451   9.215   2.334  11.116
56998W        W18452  26.154  11.725   0.399
56999W        W18453  38.966  38.963  13.501
57000W        W18454  19.259  31.102  11.855
57001W        W18455   9.237  21.034  10.046
57002W        W18456  31.932  19.137   4.635
57003W        W18457  21.732  18.681   1.804
57004W        W18458  40.797  26.551   2.294
57005W        W18459  39.391   1.961   2.235
57006W        W18460   1.408  32.032  14.986
57007W        W18461  13.218   1.898   1.325
57008W        W18462  14.746  38.530   3.868
57009W        W18463  32.992   2.237  13.864
57010W        W18464  16.674  21.135  13.860
57011W        W18465   9.886  44.930   3.248
57012W        W18466  40.472  38.557   1.340
57013W        W18467  16.178  15.750  11.084
57014W        W18468   4.855  24.664   3.758
57015W        W18469   4.279  26.177   4.710
57016W        W18470  26.703  41.817  14.464
57017W        W18471  35.106   9.197  12.400
57018W        W18472  23.015   5.765  14.418
57019W        W18473  25.590  28.052  14.505
57020W        W18474  24.092  42.950   0.843
57021W        W18475  31.618  10.295   3.196
57022W        W18476  19.075  31.050   3.152
57023W        W18477   2.844   1.317   0.340
57024W        W18478  41.933  10.140   1.798
57025W        W18479  41.346  26.656  10.017
57026W        W18480   4.866  30.632  13.479
57027W        W18481   9.193  11.633  13.520
57028W        W18482   4.882  29.140  13.923
57029W        W18483   4.395  38.462  12.961
57030W        W18484  17.288  29.441  10.446
57031W        W18485  15.190   4.336  13.478
57032W        W18486  25.985   1.257  14.315
57033W        W18487  32.106  42.305   0.432
57034W        W18488   1.974  22.056  14.452
57035W        W18489   4.910  33.436   4.312
57036W        W18490  17.131  39.508  12.854
57037W        W18491  25.022  26.674  14.901
57038W        W18492  41.478  37.966   0.963
57039W        W18493  11.154  34.448  10.923
57040W        W18494   4.432  11.706   1.438
57041W        W18495  18.774   7.680  11.989
57042W        W18496  32.505  35.596  13.459
57043W        W18497  36.440  34.456  13.403
57044W        W18498  26.690  38.537   1.338
57045W        W18499  40.331  20.631  14.504
57046W        W18500  41.293  34.382  12.010
57047W        W18501  28.015   5.313   9.591
57048W        W18502  32.607  27.651   0.726
57049W        W18503  25.625   9.192  12.346
57050W        W18504  43.000  12.191  10.523
57051W        W18505   5.789   1.931   0.744
57052W        W18506  17.197  23.002   1.358
57053W        W18507  16.720  13.721   1.369
57054W        W18508  20.649   2.365  12.418
57055W        W18509  41.991   6.212   1.925
57056W        W18510   9.203  20.584  13.839
57057W        W18511  27.021  25.056   1.900
57058W        W18512  26.976   5.898  14.355
57059W        W18513  22.557  42.776   4.200
57060W        W18514  41.367  39.952  11.089
57061W        W18515  38.442   2.958  12.959
57062W        W18516   6.303   6.840   1.931
57063W        W18517  22.053   7.216   4.245
57064W        W18518   7.687  18.761  11.067
57065W        W18519   3.837  15.151  13.929
57066W        W18520   1.352  38.559  14.514
57067W        W18521  38.331  21.701  11.608
57068W        W18522  42.996   6.281   0.870
57069W        W18523   3.389  37.357   5.123
57070W        W18524   8.801  15.807   4.777
57071W        W18525  15.250  13.623   3.309
57072W        W18526   7.253  10.317   1.419
57073W        W18527  29.593  16.710  14.345
57074W        W18528  42.941  34.938  11.967
57075W        W18529  10.274  38.370   4.678
57076W        W18530  28.044   4.844   1.349
57077W        W18531  33.095  25.606   1.879
57078W        W18532   2.402   7.265   4.333
57079W        W18533   4.401  24.636   0.259
57080W        W18534  11.353  31.912  11.869
57081W        W18535  36.954   4.266   3.674
57082W        W18536   8.356  19.754  11.986
57083W        W18537  40.928  14.205  13.405
57084W        W18538  34.957  23.654  11.508
57085W        W18539  10.191  11.660   5.316
57086W        W18540  38.056  10.861  11.431
57087W        W18541   9.353  26.144  14.416
57088W        W18542  31.642  26.501   2.314
57089W        W18543  27.009  26.004  12.028
57090W        W18544  34.547  27.109  14.480
57091W        W18545  12.784  41.435   3.226
57092W        W18546  26.152  44.275   3.217
57093W        W18547  16.298   8.231   4.598
57094W        W18548  27.188  21.680  10.432
57095W        W18549   7.265  10.876   1.323
57096W        W18550  15.639  22.564   4.707
57097W        W18551  44.967  30.497  10.528
57098W        W18552  26.514  19.094   2.768
57099W        W18553   6.198  29.139   2.873
57100W        W18554  27.120  35.914   2.239
57101W        W18555  26.620   5.323  12.353
57102W        W18556  22.067   7.331   3.694
57103W        W18557  37.492   1.754   1.756
57104W        W18558   0.896  29.650   3.166
57105W        W18559   2.293  25.094   1.929
57106W        W18560  42.500  20.751   2.899
57107W        W18561  39.837  22.167   2.690
57108W        W18562   0.779  40.487  13.975
57109W        W18563  10.683  13.736   0.449
57110W        W18564  19.730   7.190  11.548
57111W        W18565  32.611  43.478  10.916
57112W        W18566  30.120  22.504   4.789
57113W        W18567  44.996  22.633  11.488
57114W        W18568  11.327  33.417   2.760
57115W        W18569  35.549  12.159   0.838
57116W        W18570   1.479  39.478  14.319
57117W        W18571  16.631  36.466  14.498
57118W        W18572   3.727   8.865  14.307
57119W        W18573  11.175  42.503   1.843
57120W        W18574  27.654  43.388   2.283
57121W        W18575  21.065  21.108   5.204
57122W        W18576   1.900  37.500   0.438
57123W        W18577  27.156   7.410  11.000
57124W        W18578  42.003   8.851  13.936
57125W        W18579  13.107  25.175  13.927
57126W        W18580  28.594   6.849   1.788
57127W        W18581  18.627  33.610  12.353
57128W        W18582  28.463  13.773  13.542
57129W        W18583  15.610  40.957  10.573
57130W        W18584  14.096  22.137   4.312
57131W        W18585   1.478  27.990  10.452
57132W        W18586  14.827   6.424   3.756
57133W        W18587  29.535  35.078  13.338
57134W        W18588  38.457   8.255   0.460
57135W        W18589   0.249  37.928  11.068
57136W        W18590  37.519  22.118  12.422
57137W        W18591  17.799  28.019   4.221
57138W        W18592  34.614   9.259   0.272
57139W        W18593   0.825   0.313   1.890
57140W        W18594  14.711  18.634  12.876
57141W        W18595  11.866  10.292  14.352
57142W        W18596  41.393   9.347  10.440
57143W        W18597  35.046  43.354   4.756
57144W        W18598  38.405  29.133  13.976
57145W        W18599  41.397  14.798   0.464
57146W        W18600  28.558  23.703   1.228
57147W        W18601  42.853   7.827  11.017
57148W        W18602  17.798  35.982  12.960
57149W        W18603  20.256  20.198  14.765
57150W        W18604   9.204  24.218   0.950
57151W        W18605  15.290  23.734   4.257
57152W        W18606  29.047  10.787  12.947
57153W        W18607  25.200  19.598  12.505
57154W        W18608  31.636  22.593   2.305
57155W        W18609  13.177  37.973   5.266
57156W        W18610  40.426   0.337   2.865
57157W        W18611   7.207  10.301  12.911
57158W        W18612  40.966  25.704   0.756
57159W        W18613  16.269  33.078   1.857
57160W        W18614  22.215  31.430  14.993
57161W        W18615   6.305  11.736   4.221
57162W        W18616  39.498   6.288   0.326
57163W        W18617  18.564   8.265  11.491
57164W        W18618  15.300  19.533   1.935
57165W        W18619   9.284  33.059   2.263
57166W        W18620  13.200  10.696   1.764
57167W        W18621  11.817  28.062   5.238
57168W        W18622  30.478  23.558   2.718
57169W        W18623  32.472  44.472   1.354
57170W        W18624  20.158  36.852  13.040
57171W        W18625  30.004   7.309  10.404
57172W        W18626  28.030  10.188  14.461
57173W        W18627  21.642  35.943   3.346
57174W        W18628  37.074  33.505   1.719
57175W        W18629  12.149   5.395  13.522
57176W        W18630  11.164  44.472   2.234
57177W        W18631  21.549   1.822  14.302
57178W        W18632   6.308  14.183   9.924
57179W        W18633  44.848  25.681  10.413
57180W        W18634  20.606  14.335  11.483
57181W        W18635  21.052   5.729  10.932
57182W        W18636  26.966  31.906   3.169
57183W        W18637  32.499  27.447  11.396
57184W        W18638  25.559   4.812  10.439
57185W        W18639  17.776  19.213   4.833
57186W        W18640   3.879  39.052   4.186
57187W        W18641  13.648  23.115  10.475
57188W        W18642  40.504  43.280  12.531
57189W        W18643  21.577  20.595  11.436
57190W        W18644  27.505   6.733   4.789
57191W        W18645  42.382   5.912  14.445
57192W        W18646  14.210  11.812   0.823
57193W        W18647  36.509   6.686   3.867
57194W        W18648  15.577  10.157   0.761
57195W        W18649  24.592  11.233   4.288
57196W        W18650  21.535  16.636  12.994
57197W        W18651  20.210  41.335   0.415
57198W        W18652   9.372  39.534   3.331
57199W        W18653  44.767   3.868   2.729
57200W        W18654   8.297  30.148  11.935
57201W        W18655  24.569  23.515   2.712
57202W        W18656  33.088  22.607  11.902
57203W        W18657  42.796  28.944  13.346
57204W        W18658   8.692  13.711  11.391
57205W        W18659   4.869  11.826  11.988
57206W        W18660  35.043   0.892   2.377
57207W        W18661   6.876  15.737   4.259
57208W        W18662  32.939  17.139  10.491
57209W        W18663  24.653  30.492  13.974
57210W        W18664  32.571   5.249   0.374
57211W        W18665   8.814  44.981   4.717
57212W        W18666  43.327  43.908  13.885
57213W        W18667  33.937  26.516   4.295
57214W        W18668   3.857  22.997  11.545
57215W        W18669  15.258  28.558  11.468
57216W        W18670  34.377  36.935   3.640
57217W        W18671  29.942  16.580   0.285
57218W        W18672  22.117  14.231   4.215
57219W        W18673  16.111  34.094   0.261
57220W        W18674  32.527  27.996   3.728
57221W        W18675  23.554  25.198   1.301
57222W        W18676   1.413  12.837  10.572
57223W        W18677  44.895   2.255   3.337
57224W        W18678  10.785  34.899  12.381
57225W        W18679  28.049  16.140   3.295
57226W        W18680  25.966  42.476  14.775
57227W        W18681  41.850  30.553   1.430
57228W        W18682  41.022  18.694  12.826
57229W        W18683   8.678   6.278  13.416
57230W        W18684   7.178   0.977   1.895
57231W        W18685  37.398   4.404   1.821
57232W        W18686  25.218  20.552   2.194
57233W        W18687  42.364  14.663  11.092
57234W        W18688  32.437  10.240  12.855
57235W        W18689  17.753  10.860  10.581
57236W        W18690  41.444  12.185   2.702
57237W        W18691   4.806  40.318   0.836
57238W        W18692  15.165  11.826   0.937
57239W        W18693  33.420   3.739   2.795
57240W        W18694  12.269   6.331  12.960
57241W        W18695  31.491  38.490  11.557
57242W        W18696   4.387  41.884  13.906
57243W        W18697  23.232  18.726  14.954
57244W        W18698  23.186  10.269   5.117
57245W        W18699  24.046   0.493   3.352
57246W        W18700  28.456  44.900  10.431
57247W        W18701   5.894  23.614  10.495
57248W        W18702   6.865  31.437  12.985
57249W        W18703  17.143  28.971   2.346
57250W        W18704  30.159  35.991   3.202
57251W        W18705  39.469  18.586  13.395
57252W        W18706  23.651   3.954   3.288
57253W        W18707  35.547  30.965  11.380
57254W        W18708  19.132  19.177   1.449
57255W        W18709  44.947  31.421  14.770
57256W        W18710  33.883  14.729  14.834
57257W        W18711  20.045  39.402   2.326
57258W        W18712  32.121  31.507  10.465
57259W        W18713  29.149  23.494  12.574
57260W        W18714   3.228  16.221  12.951
57261W        W18715  31.930   0.974   5.269
57262W        W18716  36.371  10.249   2.235
57263W        W18717  20.653  12.716   3.382
57264W        W18718  34.006  11.630  12.498
57265W        W18719  22.027  40.998   3.242
57266W        W18720   9.323  32.419   9.974
57267W        W18721  11.712  28.561   4.707
57268W        W18722  44.950  28.986   3.849
57269W        W18723  17.603  21.116  11.859
57270W        W18724  14.291  29.483   5.268
57271W        W18725  33.579  17.700   1.284
57272W        W18726  25.179  15.168   4.616
57273W        W18727   6.270  44.827  13.885
57274W        W18728  11.218   5.379  14.967
57275W        W18729  27.988  38.516   2.841
57276W        W18730   3.793  37.951   4.808
57277W        W18731  43.775  35.517   4.309
57278W        W18732  33.129  25.578  10.912
57279W        W18733  22.017  28.592  10.442
57280W        W18734  44.480   7.693   1.743
57281W        W18735  41.365  31.406   4.678
57282W        W18736  24.114  11.348   2.681
57283W        W18737  21.023  15.664  13.528
57284W        W18738  44.769  20.551   0.733
57285W        W18739  22.740  20.092  13.817
57286W        W18740  19.627  37.512   5.134
57287W        W18741  16.634  12.770  10.116
57288W        W18742  10.247   4.926   2.868
57289W        W18743  14.691  41.807   0.358
57290W        W18744  37.083  36.880  11.475
57291W        W18745  34.386  31.922   0.773
57292W        W18746   0.267  38.076   2.894
57293W        W18747  28.975  44.760   3.679
57294W        W18748  44.984  30.424   4.605
57295W        W18749  43.271   3.742   4.257
57296W        W18750  23.230   1.791   2.249
57297W        W18751  23.509  10.797   3.749
57298W        W18752  39.848  27.018  14.934
57299W        W18753  32.109   5.737   2.682
57300W        W18754  34.548  11.754   3.167
57301W        W18755  12.779  37.946   9.471
57302W        W18756   3.307  24.165   2.828
57303W        W18757   2.958  23.068   2.396
57304W        W18758  38.441   7.261   4.198
57305W        W18759   0.277  15.796  14.471
57306W        W18760   8.777   2.752   3.268
57307W        W18761  17.734  41.890   2.865
57308W        W18762   0.933  21.645  14.381
57309W        W18763   4.902  17.273  14.960
57310W        W18764  41.518  18.568   3.646
57311W        W18765  21.685   1.972  10.626
57312W        W18766  40.813  32.427  13.956
57313W        W18767  20.146  41.819   0.347
57314W        W18768  40.032  29.552  13.367
57315W        W18769  36.593   6.371  13.536
57316W        W18770   6.897  35.550  13.029
57317W        W18771  20.693  43.770  11.388
57318W        W18772  38.998  19.763   0.804
57319W        W18773   3.781  38.819  14.991
57320W        W18774  32.403  34.019   4.705
57321W        W18775  41.450  43.915  11.007
57322W        W18776   0.329  13.707  14.477
57323W        W18777  34.995  21.039  10.636
57324W        W18778  32.964  30.979  11.061
57325W        W18779  21.520  18.262   4.153
57326W        W18780  11.753  29.160  13.055
57327W        W18781   3.878  22.243  13.060
57328W        W18782  28.127   8.763  14.352
57329W        W18783  33.388  28.142   3.837
57330W        W18784   2.297  10.823   0.389
57331W        W18785   5.278  22.997  13.968
57332W        W18786  19.640  33.115   3.260
57333W        W18787   2.769  14.230  12.069
57334W        W18788  44.273  34.399  10.633
57335W        W18789   9.285   6.367  12.872
57336W        W18790  26.506   5.281  12.077
57337W        W18791   0.284  43.889  14.820
57338W        W18792  10.216   1.262   4.740
57339W        W18793  38.432  35.898  11.117
57340W        W18794  33.524  19.578  14.931
57341W        W18795  12.794  39.481   2.829
57342W        W18796  31.550   9.212  10.523
57343W        W18797   7.836  23.639   0.948
57344W        W18798  41.315   6.803  14.309
57345W        W18799  29.133  39.838   2.283
57346W        W18800  18.224  26.969  13.308
57347W        W18801  15.612  12.249   3.308
57348W        W18802  32.002   5.924  13.519
57349W        W18803  26.008  37.344  12.357
57350W        W18804  44.793  13.697  14.496
57351W        W18805   4.912   7.820   1.828
57352W        W18806  29.137   0.341   3.212
57353W        W18807  41.891  16.805  13.493
57354W        W18808  30.451  39.859   2.859
57355W        W18809  12.361   6.843  10.507
57356W        W18810  39.898  42.881  11.970
57357W        W18811  20.680   8.736   1.311
57358W        W18812  24.123  18.597   4.614
57359W        W18813  44.797  42.908  11.575
57360W        W18814  13.350  18.780  13.933
57361W        W18815  11.857  44.311   5.270
57362W        W18816  33.538   3.413   1.723
57363W        W18817  22.601  37.458   3.654
57364W        W18818  26.973  33.455  11.444
57365W        W18819  40.416  36.905  11.017
57366W        W18820  29.430   9.229   1.894
57367W        W18821  34.967   0.399   3.868
57368W        W18822  22.510  10.644   5.253
57369W        W18823  12.139  20.557   4.123
57370W        W18824  37.836  28.018   4.795
57371W        W18825  20.213   8.353   3.741
57372W        W18826  27.583  24.066   0.818
57373W        W18827  36.589  13.727  13.370
57374W        W18828  23.713  22.147   3.373
57375W        W18829  17.281  43.993  14.338
57376W        W18830  11.204  10.687  13.926
57377W        W18831  43.314  31.977  14.464
57378W        W18832  24.075  20.743  13.359
57379W        W18833  10.821  14.811  12.492
57380W        W18834  12.650  35.489  11.470
57381W        W18835   2.764  10.213   1.298
57382W        W18836  32.033  27.507  11.104
57383W        W18837   8.226   4.420   2.241
57384W        W18838   1.977  35.417   0.810
57385W        W18839   4.213  26.616   4.640
57386W        W18840  41.337  18.759   0.460
57387W        W18841   1.807   8.709  12.449
57388W        W18842  37.844   5.364   3.285
57389W        W18843   0.419   9.881  12.011
57390W        W18844   7.278  10.233   3.378
57391W        W18845  36.876  31.937   3.202
57392W        W18846   7.876   9.858  14.921
57393W        W18847  23.587  44.945   4.764
57394W        W18848  24.635  18.141   4.322
57395W        W18849  28.112   1.456   2.762
57396W        W18850  18.669  36.503  14.903
57397W        W18851  17.293  19.193  10.446
57398W        W18852  35.890  36.369  12.035
57399W        W18853  37.417  20.151   2.393
57400W        W18854   0.291  35.423   4.262
57401W        W18855  28.946  28.531  14.997
57402W        W18856   6.185   3.915   4.742
57403W        W18857   3.819  27.106   0.894
57404W        W18858  16.732  40.053   4.830
57405W        W18859   3.394  42.020   2.679
57406W        W18860  13.764  26.703   0.824
57407W        W18861   2.257  34.949  11.526
57408W        W18862   1.736  38.982  11.374
57409W        W18863  17.790   8.229   0.935
57410W        W18864   1.460   2.292  11.599
57411W        W18865  39.315  42.992   0.424
57412W        W18866  18.671  14.657  12.000
57413W        W18867  27.670   8.802  14.324
57414W        W18868   0.896  32.889  11.027
57415W        W18869   6.228  35.900   1.382
57416W        W18870   0.490  24.127   1.260
57417W        W18871   9.281  38.895   3.830
57418W        W18872   0.929  15.162  11.477
57419W        W18873  14.813   6.877   2.253
57420W        W18874  16.682   0.408   3.819
57421W        W18875  40.849   2.853  13.312
57422W        W18876  26.633  16.777  13.020
57423W        W18877  44.384  31.991  10.049
57424W        W18878   5.305  20.628  14.419
57425W        W18879  31.118  33.014   0.908
57426W        W18880  25.091  25.054   4.702
57427W        W18881  29.141  17.707  11.874
57428W        W18882   2.425   0.897  10.584
57429W        W18883  41.849  43.457   0.753
57430W        W18884  17.801  32.504  10.968
57431W        W18885  27.064  24.557   0.376
57432W        W18886  38.465  19.087  13.926
57433W        W18887  40.527  34.387  12.918
57434W        W18888  20.754   4.229   4.244
57435W        W18889   9.650   6.279  12.542
57436W        W18890  32.022  32.462  13.512
57437W        W18891   8.330  32.043  11.928
57438W        W18892  11.757   7.334   0.894
57439W        W18893  36.949  11.672  11.929
57440W        W18894  41.531   0.462   1.900
57441W        W18895  20.069  41.936  10.978
57442W        W18896   3.908  13.340   2.344
57443W        W18897  24.535   5.816   3.791
57444W        W18898  22.196  30.935  13.858
57445W        W18899   0.934  38.845  14.978
57446W        W18900  39.823  36.911  11.545
57447W        W18901  39.495  10.384   2.264
57448W        W18902   6.397  10.264   4.184
57449W        W18903  12.832   5.737  10.584
57450W        W18904  14.211  37.353   0.940
57451W        W18905  28.021  18.094  10.645
57452W        W18906   0.841  34.923   3.786
57453W        W18907   4.407  32.900   4.139
57454W        W18908   7.777   5.306   3.655
57455W        W18909  25.563  28.608  11.898
57456W        W18910  35.861  37.980   2.318
57457W        W18911   2.449   3.409  14.451
57458W        W18912  10.143   1.863  10.094
57459W        W18913  30.522  24.632  12.887
57460W        W18914  12.838   4.866  12.894
57461W        W18915  36.087  42.869   4.187
57462W        W18916  30.907   4.280  11.103
57463W        W18917  25.587   4.928  14.367
57464W        W18918  23.588  38.036   1.856
57465W        W18919  10.228   1.289  12.382
57466W        W18920   3.902  25.533   2.204
57467W        W18921   2.414  21.230  11.977
57468W        W18922  44.769  39.915  11.891
57469W        W18923  36.349  21.216   4.135
57470W        W18924  27.047  28.136   3.671
57471W        W18925  31.990  22.151  13.020
57472W        W18926  40.405  12.158   2.389
57473W        W18927  40.420   9.194   1.745
57474W        W18928   0.454  14.693  13.930
57475W        W18929   5.356   2.356   4.780
57476W        W18930  21.196   9.821   2.228
57477W        W18931  44.397  29.649  11.897
57478W        W18932  29.478  39.422   1.218
57479W        W18933  17.616   0.861  11.898
57480W        W18934   6.793   7.712   3.730
57481W        W18935  18.157  23.549  14.422
57482W        W18936   9.860  21.069   3.789
57483W        W18937  27.983  35.084  11.503
57484W        W18938  14.821   7.761   4.598
57485W        W18939  15.177  30.498  12.565
57486W        W18940  18.593  13.321  13.944
57487W        W18941  33.477  43.465   4.712
57488W        W18942   0.756  15.205   4.826
57489W        W18943  40.031  22.639  11.605
57490W        W18944  11.736  21.179   3.199
57491W        W18945  39.989  42.930  13.344
57492W        W18946  44.956  38.976  13.414
57493W        W18947  12.731  32.633  12.018
57494W        W18948  44.942   7.330  11.534
57495W        W18949  29.428  14.813   2.855
57496W        W18950  11.143  14.802  11.499
57497W        W18951  26.522   3.838   0.745
57498W        W18952  19.182  25.602  13.811
57499W        W18953  34.012   4.287   3.850
57500W        W18954  18.747  27.993   1.838
57501W        W18955   4.808  27.103  12.997
57502W        W18956  21.755  19.157  12.913
57503W        W18957  23.238  23.088  12.064
57504W        W18958   9.247   4.867  14.773
57505W        W18959  18.721   0.260   2.206
57506W        W18960  42.948  20.076   1.310
57507W        W18961   8.744  40.333   2.251
57508W        W18962  15.577  28.124  11.963
57509W        W18963  29.117  34.022   2.314
57510W        W18964  12.659  32.952   4.142
57511W        W18965  10.267  23.134  11.123
57512W        W18966  27.570   8.167  14.428
57513W        W18967  29.961  39.351   0.403
57514W        W18968  43.482   4.763  11.515
57515W        W18969  44.888  37.086  11.956
57516W        W18970  43.871  36.918  11.994
57517W        W18971   8.708  18.204  14.441
57518W        W18972  37.897  13.245  14.494
57519W        W18973   5.819  12.634  12.414
57520W        W18974   1.410  36.368  12.508
57521W        W18975  14.704  30.119  10.959
57522W        W18976   5.750  21.166   5.161
57523W        W18977  32.580  26.585   1.857
57524W        W18978   2.365  28.584  11.879
57525W        W18979  17.278  25.040  12.514
57526W        W18980  20.702  26.495  11.432
57527W        W18981  12.628  17.294   2.767
57528W        W18982  15.197   8.828   1.331
57529W        W18983   1.311  40.545  14.322
57530W        W18984  26.055  19.145  13.393
57531W        W18985   8.306   4.399  12.028
57532W        W18986  32.947  10.296   2.898
57533W        W18987  13.188  23.202   3.634
57534W        W18988  30.533  22.691   1.327
57535W        W18989  13.769  19.231  13.458
57536W        W18990  12.790  19.631  13.450
57537W        W18991  30.628   6.678   4.650
57538W        W18992  13.337  26.075   0.878
57539W        W18993  22.647  31.111   4.603
57540W        W18994  28.575  13.308   2.682
57541W        W18995  36.369  43.486   2.738
57542W        W18996  22.526  26.966   0.934
57543W        W18997   7.339  25.204  10.556
57544W        W18998  12.211  31.622   3.791
57545W        W18999  29.923  40.012  11.018
57546W        W19000  23.993  30.918   3.151
57547W        W19001  11.629  31.524   4.664
57548W        W19002   3.909   6.786  12.039
57549W        W19003   2.261  11.868   4.701
57550W        W19004  20.035   2.868   1.852
57551W        W19005  13.609  15.794   4.218
57552W        W19006  12.122  36.071   4.196
57553W        W19007  36.993  29.607  12.899
57554W        W19008   6.425  14.191  11.608
57555W        W19009   4.231   1.282   4.194
57556W        W19010  40.052  28.629  12.580
57557W        W19011  37.950  25.493  11.568
57558W        W19012   2.794  44.411   3.829
57559W        W19013  29.476  13.343   2.325
57560W        W19014  12.293  23.694   1.231
57561W        W19015  33.545   3.737  14.459
57562W        W19016  23.492   4.732   1.849
57563W        W19017  30.977   5.757   4.741
57564W        W19018  36.969  16.113   0.758
57565W        W19019  20.691  30.055  10.644
57566W        W19020  16.808  25.654  13.430
57567W        W19021  16.146  42.312  11.855
57568W        W19022  33.507  43.819  13.470
57569W        W19023  43.274  14.724   0.731
57570W        W19024  15.204   2.240  13.321
57571W        W19025  13.199  21.239   0.788
57572W        W19026  36.395  14.317  11.919
57573W        W19027   9.889   9.202  11.960
57574W        W19028  40.931  17.170   3.688
57575W        W19029   3.830  17.720  11.448
57576W        W19030  12.644   9.260   4.619
57577W        W19031   3.732  29.553  12.490
57578W        W19032  25.585  44.863   1.752
57579W        W19033  23.716   4.722   2.280
57580W        W19034  44.778  23.181  10.928
57581W        W19035  34.576  41.415  13.050
57582W        W19036  30.934   2.409  11.862
57583W        W19037   7.897  41.844  14.809
57584W        W19038  38.852   1.379  10.911
57585W        W19039  28.612  28.609  11.586
57586W        W19040  14.206  25.171   1.235
57587W        W19041   9.156  13.624   0.919
57588W        W19042  27.670  33.097  14.943
57589W        W19043  40.331  44.346   9.928
57590W        W19044  43.998  40.038  12.459
57591W        W19045  34.947  11.811   1.889
57592W        W19046  16.148   8.220   0.846
57593W        W19047   7.793  41.444   4.288
57594W        W19048  20.570  37.536   5.264
57595W        W19049  30.423  32.978   0.893
57596W        W19050  32.546  44.893  11.010
57597W        W19051  37.038  11.698  14.349
57598W        W19052  29.983  25.115  11.578
57599W        W19053   1.792  17.091   4.694
57600W        W19054   7.201  32.040   1.431
57601W        W19055  36.355  26.474   2.896
57602W        W19056   3.944   8.313   3.858
57603W        W19057   1.400   6.403  12.550
57604W        W19058   2.472  26.091  11.020
57605W        W19059   1.898  42.451   0.396
57606W        W19060  35.451  25.143   4.273
57607W        W19061   7.343  24.699   0.249
57608W        W19062   1.472  17.714   2.400
57609W        W19063   5.277   9.657  13.541
57610W        W19064   3.249   7.791   4.114
57611W        W19065   1.420  13.125   3.323
57612W        W19066  30.959   0.834  11.892
57613W        W19067  15.793  26.613   4.749
57614W        W19068  13.694   1.456  14.466
57615W        W19069  33.620   6.704   2.385
57616W        W19070  18.590  44.323  13.444
57617W        W19071  43.886  37.835   4.757
57618W        W19072   8.395  21.214   1.350
57619W        W19073  13.634   6.773  14.469
57620W        W19074  15.800  37.575   3.266
57621W        W19075  32.135  15.135   0.456
57622W        W19076  17.723  15.683  13.496
57623W        W19077  25.567  15.298  12.559
57624W        W19078   0.255   8.167  14.994
57625W        W19079  30.045  43.859  11.995
57626W        W19080  20.564   2.899  11.936
57627W        W19081  17.188  28.495  12.005
57628W        W19082  29.121  30.057   2.665
57629W        W19083  22.152  32.394  13.886
57630W        W19084  17.171  38.839  12.521
57631W        W19085  32.412  17.176   4.287
57632W        W19086  19.211  10.346   1.289
57633W        W19087  24.081  29.466  14.369
57634W        W19088  31.992   0.457  14.897
57635W        W19089  35.479  41.520  11.079
57636W        W19090  27.692  15.261   4.191
57637W        W19091  21.715  29.959  12.547
57638W        W19092   9.679  17.271  11.086
57639W        W19093  10.719  20.720   1.892
57640W        W19094  18.250   5.783  12.011
57641W        W19095   4.883  44.789   5.084
57642W        W19096   9.744  32.919  14.808
57643W        W19097  29.154  28.449   4.750
57644W        W19098  10.221  38.843  13.798
57645W        W19099  27.458  27.952  13.986
57646W        W19100  37.836   8.296   0.365
57647W        W19101   0.961  11.183   1.706
57648W        W19102   0.465  24.671   0.354
57649W        W19103  36.445  17.695  13.354
57650W        W19104  41.457  28.102   4.355
57651W        W19105   3.248  28.077  14.374
57652W        W19106  10.233   4.412  12.064
57653W        W19107  15.729  16.679   3.734
57654W        W19108  32.947  34.386   3.862
57655W        W19109  18.557  35.559   0.763
57656W        W19110  33.888  30.587   4.211
57657W        W19111  44.802  17.257   0.259
57658W        W19112   1.444  12.705  11.414
57659W        W19113  42.780  11.816   2.717
57660W        W19114  36.947  33.093   1.391
57661W        W19115  29.953  39.833  13.909
57662W        W19116  40.964   9.811  11.388
57663W        W19117   6.219   9.283  14.478
57664W        W19118  44.899  20.188   3.294
57665W        W19119  40.967  41.471   1.887
57666W        W19120  31.613   0.840  11.083
57667W        W19121  18.060  15.133   4.275
57668W        W19122   8.737  16.268  14.823
57669W        W19123  11.183   1.246  12.992
57670W        W19124  31.936  35.489  11.376
57671W        W19125  19.769  11.658  12.518
57672W        W19126  25.699  15.631  14.302
57673W        W19127   4.928   0.277  12.375
57674W        W19128  34.910   6.735   4.687
57675W        W19129  12.791  21.050  13.312
57676W        W19130  30.036  33.942  14.957
57677W        W19131  25.522   6.396  10.478
57678W        W19132  18.280   0.850  14.836
57679W        W19133   4.773  20.080   2.353
57680W        W19134  28.087  34.580  13.894
57681W        W19135  11.329  32.914   2.244
57682W        W19136   3.802  11.709   2.811
57683W        W19137  21.614  18.237  11.596
57684W        W19138  36.900  17.127  10.605
57685W        W19139  20.273  35.023   2.334
57686W        W19140  27.604   7.328  12.560
57687W        W19141  35.038  25.995   0.820
57688W        W19142  40.444  13.626   1.931
57689W        W19143  30.504  26.139   2.340
57690W        W19144   5.812  32.581  12.978
57691W        W19145   7.331   3.730   1.319
57692W        W19146  28.983  32.098  12.549
57693W        W19147  37.840  22.678  10.604
57694W        W19148  27.073   9.287  12.453
57695W        W19149  12.138  31.515  12.378
57696W        W19150   3.796  31.089   0.737
57697W        W19151  43.411   9.756  14.789
57698W        W19152   2.407  29.445  10.126
57699W        W19153   7.719  41.384  11.434
57700W        W19154  41.352   4.939   1.430
57701W        W19155  41.787   4.348   4.262
57702W        W19156   4.763  25.542   1.752
57703W        W19157  31.946   3.425   4.266
57704W        W19158  14.609  18.558   4.658
57705W        W19159  22.223  42.467  14.996
57706W        W19160  28.152  34.530   4.114
57707W        W19161  18.293   0.889  14.448
57708W        W19162  39.450  23.079  12.834
57709W        W19163  32.402  28.087   9.927
57710W        W19164  24.497  29.649  12.558
57711W        W19165  31.132   6.755  12.067
57712W        W19166   5.908  32.915   9.521
57713W        W19167  17.262  33.922  11.008
57714W        W19168  17.189  36.995  13.859
57715W        W19169  30.934  35.376   5.210
57716W        W19170  36.538  23.566  14.440
57717W        W19171  18.115  42.839   5.263
57718W        W19172  28.118  26.690  13.405
57719W        W19173  43.362  13.645  13.855
57720W        W19174   9.395  18.092  10.901
57721W        W19175   8.263  33.000  14.958
57722W        W19176  41.005  33.599  13.412
57723W        W19177  19.701  17.612   3.163
57724W        W19178  18.146  16.811  10.594
57725W        W19179  44.488  41.028  10.547
57726W        W19180  42.972   3.296  14.955
57727W        W19181  30.086   2.960  12.989
57728W        W19182  37.569  28.533  13.488
57729W        W19183   4.392   3.791   0.922
57730W        W19184  37.968   8.291   2.858
57731W        W19185  44.403  40.862  11.520
57732W        W19186  30.482  23.629  12.436
57733W        W19187  23.154  44.328   2.249
57734W        W19188  34.495   9.787   1.772
57735W        W19189  23.114  35.954  14.369
57736W        W19190  20.034   9.738   1.792
57737W        W19191  15.181  15.265  11.867
57738W        W19192   7.333  18.725  11.039
57739W        W19193  36.499  34.099  11.079
57740W        W19194  32.894   8.349  14.340
57741W        W19195  29.470  44.316   1.254
57742W        W19196  14.617  34.942   1.356
57743W        W19197  32.431  30.914  12.887
57744W        W19198  20.563  34.084  11.601
57745W        W19199  41.792  40.444   3.761
57746W        W19200  22.150  17.129  11.008
57747W        W19201  14.175  20.160  11.913
57748W        W19202  25.052  33.078   1.329
57749W        W19203   4.332  23.523  11.517
57750W        W19204   0.839  40.805   4.271
57751W        W19205   8.351  39.964   4.347
57752W        W19206  28.015  44.355   4.709
57753W        W19207   3.828  21.097  10.963
57754W        W19208  25.631  33.099   2.833
57755W        W19209  10.385  15.822  14.890
57756W        W19210  25.000   9.885   0.408
57757W        W19211  11.207   7.256   3.663
57758W        W19212  36.914  37.345  14.849
57759W        W19213   1.321  19.285  12.935
57760W        W19214  24.549  32.071  14.462
57761W        W19215  33.044  33.004  11.956
57762W        W19216  26.203  25.000   3.718
57763W        W19217  33.893  26.681  12.009
57764W        W19218  13.717  38.828  10.919
57765W        W19219  42.816  25.149  11.538
57766W        W19220   7.776  35.529   0.788
57767W        W19221  35.498  22.542   1.828
57768W        W19222   8.754  25.113  14.475
57769W        W19223  16.732   9.151   1.333
57770W        W19224   9.392  25.174  12.918
57771W        W19225  24.525   4.234  10.917
57772W        W19226  29.451   6.284   4.306
57773W        W19227  30.571  29.150   4.777
57774W        W19228   9.235   2.293   3.719
57775W        W19229  35.472   3.794  14.493
57776W        W19230  41.438  38.968   1.799
57777W        W19231   3.426  14.605   5.159
57778W        W19232  25.973  23.540   0.307
57779W        W19233  32.566  38.386   0.253
57780W        W19234  35.451  36.477  12.864
57781W        W19235  31.614  40.385   3.782
57782W        W19236  27.639  41.500  12.421
57783W        W19237   3.332   2.364   1.708
57784W        W19238   7.365   9.865   3.748
57785W        W19239  38.352  35.590   3.804
57786W        W19240  28.521  33.575  12.014
57787W        W19241   2.358  25.142  14.405
57788W        W19242   9.799   5.898  13.020
57789W        W19243   6.367  35.971   2.302
57790W        W19244   7.360   6.796   4.664
57791W        W19245   1.805  15.584   3.797
57792W        W19246  12.721  27.146  13.481
57793W        W19247  40.915  12.139   0.871
57794W        W19248  36.448  42.481  10.033
57795W        W19249  29.603  31.588   1.795
57796W        W19250  38.917  40.471  11.417
57797W        W19251  18.667  24.505  10.577
57798W        W19252  38.936  22.612  13.393
57799W        W19253  41.500   5.425  11.871
57800W        W19254  14.623  28.539   2.299
57801W        W19255   1.347  31.459   1.750
57802W        W19256  22.701  17.746  11.463
57803W        W19257   4.846   3.227   0.369
57804W        W19258  16.278  15.085  13.803
57805W        W19259   0.961  38.037  11.954
57806W        W19260   0.339  14.738  13.043
57807W        W19261  23.194  29.630   0.771
57808W        W19262  10.764  41.037   3.210
57809W        W19263  26.056   1.453  11.856
57810W        W19264   8.850  42.779   2.704
57811W        W19265  20.725  34.571   1.421
57812W        W19266  19.604  36.082   4.755
57813W        W19267  12.214  31.011   4.341
57814W        W19268  26.489   0.330  11.407
57815W        W19269  42.338  29.091  13.423
57816W        W19270  21.258  37.474  12.006
57817W        W19271  20.756  39.025  11.397
57818W        W19272   9.740   9.800  14.881
57819W        W19273  34.445  41.966   4.728
57820W        W19274  30.059  22.064  12.445
57821W        W19275  22.570  21.732  10.141
57822W        W19276  25.195   4.917   4.624
57823W        W19277   9.220  29.115  11.561
57824W        W19278  24.492   4.943  14.985
57825W        W19279  28.176   6.339   2.903
57826W        W19280  41.506  20.088  14.353
57827W        W19281  27.673   7.821   9.988
57828W        W19282  34.061  10.761   5.697
57829W        W19283  44.799  34.551   1.219
57830W        W19284  37.984  44.331  10.502
57831W        W19285  43.971  26.462  10.489
57832W        W19286   2.886  19.156   2.816
57833W        W19287  17.198  20.199  12.877
57834W        W19288  19.665  42.324  14.867
57835W        W19289  16.786  32.080  14.786
57836W        W19290  23.128  13.303  14.821
57837W        W19291   6.258  19.112  13.475
57838W        W19292  13.666  31.056  13.361
57839W        W19293   9.162  35.994   3.282
57840W        W19294   6.209  32.043   0.396
57841W        W19295  35.573  38.344   4.607
57842W        W19296  24.982   7.371   1.316
57843W        W19297  10.311   8.298   4.175
57844W        W19298  43.877  25.666   0.757
57845W        W19299  32.892  40.830   4.795
57846W        W19300  24.227   8.737  13.333
57847W        W19301  44.416  16.300  12.384
57848W        W19302  19.662  35.378  13.851
57849W        W19303   1.748   0.344   3.681
57850W        W19304  42.016  12.833  13.407
57851W        W19305  31.406  18.265  13.798
57852W        W19306  10.755  39.827  11.459
57853W        W19307  37.013  16.711  11.609
57854W        W19308   4.320  29.070   0.370
57855W        W19309  41.042  16.124   4.245
57856W        W19310  43.353   5.281   1.353
57857W        W19311  42.361  25.482  13.957
57858W        W19312   2.369  38.990  13.853
57859W        W19313   6.717   2.789   3.674
57860W        W19314  44.878   0.838  11.000
57861W        W19315  24.539  44.890   0.787
57862W        W19316   9.258  36.018   3.797
57863W        W19317  29.940   8.679  10.992
57864W        W19318  21.680  43.506   1.917
57865W        W19319   5.930  11.248   3.761
57866W        W19320  17.743   7.209  12.039
57867W        W19321  29.624   7.293   2.207
57868W        W19322  13.652  39.326  12.874
57869W        W19323   8.780   4.338   4.208
57870W        W19324  18.772  29.656   4.293
57871W        W19325  26.165  39.962   2.692
57872W        W19326  17.748   8.757   1.286
57873W        W19327  27.641  20.258  13.987
57874W        W19328  35.572  17.178  14.811
57875W        W19329  22.734  28.087   0.875
57876W        W19330  15.603  24.575   0.836
57877W        W19331  34.978  39.808   0.884
57878W        W19332  37.071   9.670  13.001
57879W        W19333  16.183  10.168  12.495
57880W        W19334  17.136  11.195  14.461
57881W        W19335  11.261  15.811   1.768
57882W        W19336  33.890  23.621   0.891
57883W        W19337  24.036  35.396  12.906
57884W        W19338   4.370   3.838  13.510
57885W        W19339  27.466  19.573   0.358
57886W        W19340  12.751  42.374   0.250
57887W        W19341  25.138  44.274   0.795
57888W        W19342  37.487   3.747   4.634
57889W        W19343  40.861  10.726   0.478
57890W        W19344   5.842  24.638   1.360
57891W        W19345  37.466  15.260   0.830
57892W        W19346   7.327  36.505   1.213
57893W        W19347   7.892  23.114   1.233
57894W        W19348  27.084  11.285  14.942
57895W        W19349  27.169   3.256  12.882
57896W        W19350  31.975   8.797  12.882
57897W        W19351  11.794   6.679   4.234
57898W        W19352   8.191  41.908   3.224
57899W        W19353  41.918  40.910   1.419
57900W        W19354  23.019   7.762   1.859
57901W        W19355   8.748  35.909   2.412
57902W        W19356  20.545  21.610   1.267
57903W        W19357  24.004  40.035  10.577
57904W        W19358   0.845   5.927  14.963
57905W        W19359  12.328   7.352  13.408
57906W        W19360  22.694   8.716   1.233
57907W        W19361  13.206   3.847   4.649
57908W        W19362  22.147   5.278   4.115
57909W        W19363  11.674   4.711   1.274
57910W        W19364  24.584  40.393  10.544
57911W        W19365   4.304  12.845   3.841
57912W        W19366  15.635   1.303   3.177
57913W        W19367   6.788   8.844   2.253
57914W        W19368  16.083  21.633  13.474
57915W        W19369  37.864  21.614   3.687
57916W        W19370  15.584  22.652  12.876
57917W        W19371   9.393  35.537   0.810
57918W        W19372  22.634  27.507  14.868
57919W        W19373  17.275  42.926  14.351
57920W        W19374  12.778  18.084  13.525
57921W        W19375  16.787  37.401   4.787
57922W        W19376   7.672  11.238  14.986
57923W        W19377  35.932  39.923  11.524
57924W        W19378  20.100  35.435   2.735
57925W        W19379   2.445   5.773   2.683
57926W        W19380   0.311   9.220  10.406
57927W        W19381  13.799  34.556  11.911
57928W        W19382   9.170   5.918  11.955
57929W        W19383  15.125  16.616  13.988
57930W        W19384  13.618  36.487   3.676
57931W        W19385  15.789  44.325   0.808
57932W        W19386  38.047  31.556  13.807
57933W        W19387  16.180  32.027   3.315
57934W        W19388  13.822  16.796  10.988
57935W        W19389   5.818  39.397  13.877
57936W        W19390  37.469  31.563   2.211
57937W        W19391  23.659  23.696  11.873
57938W        W19392  24.566  36.851  14.765
57939W        W19393  43.485   2.386   0.247
57940W        W19394  42.990  10.771   2.711
57941W        W19395  28.608   9.819   2.337
57942W        W19396  29.604  38.513   1.276
57943W        W19397  19.727  31.144   2.338
57944W        W19398   9.299  25.122   0.782
57945W        W19399   7.201  38.972  12.922
57946W        W19400  25.650  23.556  11.406
57947W        W19401  44.998  44.371  12.836
57948W        W19402  34.467  44.989  10.581
57949W        W19403  18.174  35.874   3.798
57950W        W19404  42.391  29.974   4.766
57951W        W19405   5.712  37.554  12.396
57952W        W19406   5.241  39.009   2.853
57953W        W19407  25.142  13.213   0.730
57954W        W19408  18.162  41.999   1.756
57955W        W19409  23.069   4.405   2.892
57956W        W19410  12.800  13.130   2.416
57957W        W19411  32.941  14.753   1.804
57958W        W19412  42.355   5.734  11.918
57959W        W19413   5.396  17.237   1.932
57960W        W19414  26.485  17.746   0.412
57961W        W19415  16.606  23.531  14.009
57962W        W19416  21.081   6.378  10.439
57963W        W19417  10.781   1.873  11.916
57964W        W19418   5.698  23.666   2.208
57965W        W19419  31.994  29.156  11.447
57966W        W19420   4.872  38.428  12.932
57967W        W19421  19.726   3.450  14.930
57968W        W19422  11.203   2.906   4.731
57969W        W19423  30.927   4.840  11.892
57970W        W19424  27.940  35.893   1.283
57971W        W19425  15.168  33.951   1.252
57972W        W19426  28.080  38.411  14.418
57973W        W19427  14.833  16.651   1.350
57974W        W19428  27.557  42.427   1.430
57975W        W19429   9.272  13.645  11.525
57976W        W19430  19.586  35.887   3.835
57977W        W19431  17.570  14.801   3.345
57978W        W19432  25.471  30.514  11.109
57979W        W19433  13.703  24.197  11.585
57980W        W19434  20.226  35.384  12.952
57981W        W19435  41.820  13.236   1.916
57982W        W19436  21.110  23.595   2.188
57983W        W19437  22.082   8.809   2.290
57984W        W19438  30.022  38.396  13.805
57985W        W19439   4.711  15.599  12.515
57986W        W19440  13.311  31.974  13.870
57987W        W19441  44.415  34.566   3.357
57988W        W19442  20.055  13.190   3.843
57989W        W19443  30.070  21.036  11.389
57990W        W19444  26.502  16.747   2.352
57991W        W19445  31.507   1.843  11.916
57992W        W19446  36.418   1.319  10.894
57993W        W19447  39.314  22.591  13.338
57994W        W19448  34.537  18.587  11.864
57995W        W19449  27.974  13.215   2.674
57996W        W19450  17.600  39.881   0.474
57997W        W19451   6.753  23.516  11.072
57998W        W19452  18.559   3.883  13.487
57999W        W19453  23.507  42.880   1.397
58000W        W19454   2.293   6.290   1.886
58001W        W19455  27.493  40.989   4.161
58002W        W19456  33.542  11.655   1.222
58003W        W19457  26.584   4.212  10.118
58004W        W19458  37.999  20.258   3.335
58005W        W19459  27.040  11.826   0.427
58006W        W19460  12.839  34.485   3.839
58007W        W19461   1.938  33.096  12.540
58008W        W19462  34.910  11.263  11.043
58009W        W19463  14.161   5.306   1.287
58010W        W19464  42.871  19.652   3.259
58011W        W19465  33.997   3.407   2.348
58012W        W19466  30.492  37.962   3.263
58013W        W19467   1.411  26.635   2.401
58014W        W19468  20.075  26.543   3.217
58015W        W19469   0.469   4.751  11.574
58016W        W19470   3.396  32.067  13.847
58017W        W19471  12.357  38.968  14.010
58018W        W19472  44.460  31.039  14.365
58019W        W19473   0.474  27.990   2.756
58020W        W19474   5.294  38.446   1.888
58021W        W19475   8.339  16.235   0.288
58022W        W19476  35.401  44.954  12.089
58023W        W19477  36.859  16.304   0.253
58024W        W19478  33.552  33.606   4.706
58025W        W19479  39.393  40.544   2.874
58026W        W19480  34.539  43.418  11.899
58027W        W19481  37.415   7.374  13.547
58028W        W19482   7.798  35.916   1.401
58029W        W19483  37.833  33.123  10.573
58030W        W19484  18.222  24.674   3.780
58031W        W19485  16.603  26.038  14.388
58032W        W19486  10.157   2.300  13.334
58033W        W19487  25.587  24.078  11.127
58034W        W19488  21.677  31.997  11.495
58035W        W19489  43.011   9.330  12.888
58036W        W19490  41.875  31.958   1.352
58037W        W19491  31.000   0.485   2.767
58038W        W19492   3.428  33.484   0.317
58039W        W19493  42.472  31.922  14.796
58040W        W19494  13.111   3.262  11.393
58041W        W19495  35.414  10.687   2.196
58042W        W19496  18.064  17.744   4.252
58043W        W19497  16.211  13.782   3.867
58044W        W19498   3.815   3.226  13.870
58045W        W19499  34.868  18.737  10.460
58046W        W19500  31.586   2.266   0.290
58047W        W19501  16.313  29.137   1.895
58048W        W19502   3.931  43.832  10.899
58049W        W19503  18.553  32.604   2.277
58050W        W19504   1.789  17.683  14.504
58051W        W19505  19.618  39.325  10.933
58052W        W19506   9.273  37.540   3.749
58053W        W19507  12.682  36.431  10.447
58054W        W19508  37.456  25.693   0.929
58055W        W19509  38.461  23.524  11.889
58056W        W19510  13.115  14.758   2.861
58057W        W19511  21.241  20.102  12.947
58058W        W19512   5.364  34.982  11.583
58059W        W19513   7.743  14.108  11.915
58060W        W19514   1.886   2.443   0.851
58061W        W19515  22.143  36.481   0.275
58062W        W19516  16.800  24.089  14.399
58063W        W19517   5.720  15.816  14.857
58064W        W19518   1.781   6.701   4.182
58065W        W19519  42.375  23.222  11.003
58066W        W19520  11.312   3.332   4.790
58067W        W19521  15.690  13.154   3.851
58068W        W19522  43.474  17.797   4.759
58069W        W19523  35.938  25.483  11.578
58070W        W19524  44.880  29.089   4.169
58071W        W19525  24.645  19.617   3.169
58072W        W19526  32.497  32.134  10.549
58073W        W19527  21.674  39.919   2.282
58074W        W19528  31.421  27.502  11.910
58075W        W19529   7.173  22.091   0.453
58076W        W19530  44.422  38.331   0.784
58077W        W19531   1.411  25.560   0.258
58078W        W19532   3.400  33.609   2.248
58079W        W19533  30.085  43.907  14.880
58080W        W19534  40.027  30.086   0.827
58081W        W19535  20.114  24.058   2.252
58082W        W19536  32.547  30.084   3.355
58083W        W19537  16.310  34.873  13.934
58084W        W19538   9.289  44.398  14.435
58085W        W19539  39.048  40.975   2.323
58086W        W19540  31.915  31.598   2.243
58087W        W19541   5.326  27.603   4.683
58088W        W19542  42.002  13.624   4.745
58089W        W19543  28.097  43.330   3.857
58090W        W19544  39.949   5.886  12.072
58091W        W19545  20.096  22.718   3.236
58092W        W19546   2.296  33.106   1.725
58093W        W19547   9.172  29.496   4.656
58094W        W19548  12.757   3.408  13.429
58095W        W19549  30.133  23.534  11.566
58096W        W19550  26.691  41.324   3.260
58097W        W19551  44.966  13.837   0.245
58098W        W19552  24.023  18.135  12.951
58099W        W19553  34.900   1.404  14.890
58100W        W19554  14.323  33.548   1.449
58101W        W19555  32.504  36.580   0.859
58102W        W19556  10.254  41.005  10.929
58103W        W19557   6.218  22.038   2.333
58104W        W19558  43.461   7.325   3.816
58105W        W19559  12.654  15.604  13.357
58106W        W19560  29.013  11.632  14.388
58107W        W19561   0.424  40.054   1.856
58108W        W19562  39.902  41.883  14.858
58109W        W19563  34.113  44.300  12.418
58110W        W19564   3.340  24.120  12.064
58111W        W19565  12.670  37.968   0.855
58112W        W19566  21.238  11.149   2.249
58113W        W19567   2.906   8.743  13.516
58114W        W19568   0.871   5.883   4.329
58115W        W19569   4.922   3.911   2.744
58116W        W19570  16.137  10.224  14.362
58117W        W19571  34.047  25.987  11.612
58118W        W19572  39.062   3.840   2.774
58119W        W19573  19.141  17.086  14.407
58120W        W19574   9.774  40.501   4.700
58121W        W19575  44.994  18.128   0.925
58122W        W19576  12.772  13.811  12.028
58123W        W19577  37.953   0.333  11.608
58124W        W19578  16.624  41.855  13.062
58125W        W19579   2.769  25.478  13.991
58126W        W19580   8.704  19.766  11.496
58127W        W19581  42.002   1.315  12.377
58128W        W19582  14.220   2.798  10.495
58129W        W19583  24.061  30.947  12.936
58130W        W19584  36.001  42.355   1.386
58131W        W19585  41.973  17.732   4.277
58132W        W19586  34.907  26.006  14.802
58133W        W19587   8.212  24.613   3.716
58134W        W19588   8.368   6.236   2.861
58135W        W19589  40.002  24.708  14.373
58136W        W19590  41.963  28.634   0.257
58137W        W19591   5.353  24.724  11.117
58138W        W19592   0.929   9.841  10.911
58139W        W19593  32.967  21.588   1.236
58140W        W19594  20.769  39.332   1.269
58141W        W19595  11.802  21.023  14.974
58142W        W19596  29.067  28.614  11.449
58143W        W19597  44.863  12.146   1.230
58144W        W19598  21.167  27.653  14.986
58145W        W19599  40.472  17.115  12.970
58146W        W19600   0.843   5.898  13.816
58147W        W19601  37.959   7.188   4.169
58148W        W19602   6.264  26.554  14.895
58149W        W19603  16.744   3.762   0.480
58150W        W19604  42.865  41.400   1.914
58151W        W19605  16.604  14.705   3.780
58152W        W19606  38.395  10.661   4.795
58153W        W19607   5.782  42.888  14.381
58154W        W19608  14.678   7.251   0.476
58155W        W19609   4.806  25.653  14.949
58156W        W19610  27.624   1.353   5.271
58157W        W19611  40.362  32.579  14.805
58158W        W19612  43.883  12.780   3.823
58159W        W19613  36.350   7.742   5.141
58160W        W19614   8.176  22.164  12.029
58161W        W19615  40.885   5.294  14.007
58162W        W19616   9.322  15.313  10.589
58163W        W19617  31.940  27.192  12.828
58164W        W19618  31.453   1.463   1.759
58165W        W19619  26.178  18.088   0.817
58166W        W19620  20.037  14.740  13.868
58167W        W19621  41.935  28.551   2.199
58168W        W19622  41.987  39.941   3.693
58169W        W19623  41.866  19.049  11.925
58170W        W19624  10.314  41.940   2.200
58171W        W19625  37.042  17.301  10.940
58172W        W19626   2.920  25.180  13.342
58173W        W19627  10.729  34.893  12.898
58174W        W19628  16.316  37.532   5.230
58175W        W19629  14.686   6.870  10.447
58176W        W19630  34.521  44.888  12.571
58177W        W19631  40.930  23.989  13.988
58178W        W19632   2.741  43.969  11.878
58179W        W19633  36.872  17.782  13.845
58180W        W19634  37.847   4.831   0.354
58181W        W19635   1.382  11.248  11.999
58182W        W19636  15.793  14.776   4.298
58183W        W19637  17.162  41.865   4.768
58184W        W19638  32.616  44.391   2.736
58185W        W19639  27.665  15.093   2.717
58186W        W19640  14.730  40.864  12.872
58187W        W19641  16.758   2.898  10.496
58188W        W19642  33.489  13.152   0.477
58189W        W19643  26.966  18.745   4.292
58190W        W19644  12.776  26.584   0.763
58191W        W19645  12.329   0.985   1.927
58192W        W19646  22.237  11.752  13.050
58193W        W19647  14.648   7.352  11.950
58194W        W19648   4.298   2.356   4.628
58195W        W19649  24.005   1.944  10.906
58196W        W19650  30.987  39.981  11.596
58197W        W19651  20.092   6.287  14.774
58198W        W19652  41.885  37.006   0.850
58199W        W19653  41.035  38.064  14.363
58200W        W19654  23.239  15.806  14.313
58201W        W19655  27.135   9.659   0.273
58202W        W19656   9.758  38.353   1.222
58203W        W19657  26.107  30.460  11.443
58204W        W19658   6.759  16.630   0.962
58205W        W19659  28.475  11.337   1.870
58206W        W19660  10.727   6.870   0.812
58207W        W19661  39.508  44.362   2.672
58208W        W19662   9.347  16.637   2.307
58209W        W19663  40.925  24.220   4.631
58210W        W19664  26.171  14.711  14.342
58211W        W19665  38.541   7.208   2.321
58212W        W19666  15.101  29.065  12.575
58213W        W19667  21.585  19.223   2.211
58214W        W19668  39.860  32.469  12.035
58215W        W19669   6.774   4.350   2.221
58216W        W19670   4.703  22.138  14.833
58217W        W19671   9.681  32.521   3.845
58218W        W19672   8.654  15.817   5.278
58219W        W19673  33.483  26.044  13.877
58220W        W19674  22.676  17.713   3.379
58221W        W19675  34.599   2.917   4.759
58222W        W19676  21.098   3.917  14.274
58223W        W19677  11.200   1.345  11.587
58224W        W19678  21.520  17.740   2.257
58225W        W19679  42.381  18.635  13.989
58226W        W19680  40.428   0.923   2.265
58227W        W19681  35.092  19.082  13.878
58228W        W19682  37.404  19.215   3.150
58229W        W19683   3.820  20.526   3.151
58230W        W19684  42.008  17.202   9.987
58231W        W19685  39.318  22.240  12.506
58232W        W19686  16.612   7.695  14.838
58233W        W19687   3.429  14.649  11.452
58234W        W19688  37.012  30.102   1.227
58235W        W19689   5.898  31.418   4.765
58236W        W19690   9.715  41.453  13.837
58237W        W19691  14.670   6.760  10.985
58238W        W19692  42.498  29.159  11.938
58239W        W19693  18.178  25.147  13.439
58240W        W19694  31.599  21.528  14.955
58241W        W19695  29.125  40.924  12.575
58242W        W19696  41.884   2.754   4.797
58243W        W19697  16.244  14.240   5.112
58244W        W19698  22.652  30.971   1.421
58245W        W19699  13.615   9.159   3.809
58246W        W19700  37.964  36.507  11.603
58247W        W19701   0.973  24.564  10.956
58248W        W19702  40.930  21.195  11.865
58249W        W19703  24.490  34.090  12.024
58250W        W19704   1.432  29.586   4.758
58251W        W19705  23.168  33.928   1.763
58252W        W19706  22.048   1.916  14.342
58253W        W19707  44.297  29.642   2.416
58254W        W19708  22.557   7.384   2.213
58255W        W19709  26.643  40.988   5.261
58256W        W19710  19.687  30.016  11.901
58257W        W19711   8.337  27.533   1.248
58258W        W19712   6.741  11.338  11.873
58259W        W19713  36.996  35.594  14.390
58260W        W19714  44.830  26.608  11.996
58261W        W19715  26.093  36.519   5.316
58262W        W19716  12.645  27.464  10.439
58263W        W19717   6.267  20.603  12.093
58264W        W19718  20.731  10.807  11.579
58265W        W19719   4.235  30.627   2.662
58266W        W19720  38.941  44.414   3.664
58267W        W19721  26.543  33.527   4.173
58268W        W19722  23.197  23.640  14.783
58269W        W19723  22.503  13.107   2.821
58270W        W19724  43.792  16.748   2.289
58271W        W19725  40.917  19.141  12.435
58272W        W19726  15.649  37.918  13.484
58273W        W19727  22.115   3.737   2.881
58274W        W19728  39.404  36.981   9.616
58275W        W19729  10.723  44.293  10.912
58276W        W19730   0.842   4.281   3.264
58277W        W19731  20.677  36.042  11.945
58278W        W19732  29.554  22.739  13.815
58279W        W19733   8.256  17.572   2.368
58280W        W19734   0.891  35.977  10.132
58281W        W19735  19.096   7.737   0.272
58282W        W19736  31.045  28.017   3.730
58283W        W19737   9.324  20.728   5.211
58284W        W19738  38.027  35.966  11.920
58285W        W19739   5.331  17.783  14.917
58286W        W19740  35.106   2.788   2.742
58287W        W19741  36.392  28.679  12.418
58288W        W19742  31.432  36.905   2.410
58289W        W19743  19.100  30.549   2.383
58290W        W19744  37.070   9.248   4.621
58291W        W19745  26.502  10.308  13.010
58292W        W19746  42.896   7.174   1.222
58293W        W19747  22.624  35.904   4.688
58294W        W19748  41.961  44.863   0.322
58295W        W19749  41.803  21.723   3.376
58296W        W19750  21.181   3.806  13.420
58297W        W19751  10.825  27.669  14.497
58298W        W19752  44.474  22.172   1.316
58299W        W19753  38.953  30.979   4.332
58300W        W19754   9.375  24.627   4.172
58301W        W19755  16.694  21.679   4.772
58302W        W19756   8.294  20.076  13.011
58303W        W19757  41.411  28.481   4.167
58304W        W19758  13.843  11.745   4.223
58305W        W19759  38.345  24.120  14.283
58306W        W19760  24.002   7.305   2.402
58307W        W19761  23.580   6.187  13.948
58308W        W19762   9.366   9.688  14.509
58309W        W19763  18.755  25.559  11.978
58310W        W19764  24.194  22.215   2.804
58311W        W19765  18.058  30.504  10.596
58312W        W19766  24.116  11.175  12.440
58313W        W19767  32.593  38.374  11.019
58314W        W19768  18.279  40.014  12.012
58315W        W19769  22.567  36.988   2.783
58316W        W19770  11.786  15.817  11.070
58317W        W19771   4.440  35.895   2.678
58318W        W19772  11.187   5.741   0.856
58319W        W19773  24.603   7.875  12.095
58320W        W19774  40.525  31.617  14.301
58321W        W19775  37.507  13.627  11.963
58322W        W19776  18.745  11.730  10.515
58323W        W19777  16.759   9.339  11.559
58324W        W19778  33.917  36.391   3.343
58325W        W19779  44.445   6.798  13.001
58326W        W19780  37.075  28.060   4.717
58327W        W19781  20.107   5.902  11.482
58328W        W19782  18.097   2.728   3.634
58329W        W19783  30.655   5.355   4.636
58330W        W19784  42.444  23.054  14.328
58331W        W19785  42.796  10.203  10.967
58332W        W19786  17.789  40.998   2.195
58333W        W19787  13.285  16.309   2.379
58334W        W19788  41.006  41.374  10.999
58335W        W19789   4.750   4.747   2.849
58336W        W19790  14.130  10.187  10.625
58337W        W19791  13.208  11.289  14.950
58338W        W19792   7.763   9.673   3.861
58339W        W19793  26.054   8.199  13.813
58340W        W19794   3.948   9.276   0.461
58341W        W19795  17.723  23.534   2.397
58342W        W19796  27.677  24.042  12.910
58343W        W19797  15.090   5.211  11.072
58344W        W19798  13.751  44.914  13.475
58345W        W19799  35.877  26.583   4.636
58346W        W19800  32.424  21.602   2.384
58347W        W19801  39.924  29.520  12.887
58348W        W19802  43.011  13.228   0.752
58349W        W19803   6.292   4.711   2.806
58350W        W19804  37.907  12.245   4.153
58351W        W19805   8.830  20.158   4.267
58352W        W19806  20.769  32.618   0.915
58353W        W19807  36.042  20.670  14.394
58354W        W19808   3.929  20.523  12.447
58355W        W19809   2.314  44.896   3.647
58356W        W19810  21.252  35.360   2.809
58357W        W19811   5.771  22.595  14.298
58358W        W19812  44.010  15.246   1.864
58359W        W19813  13.328  41.376  11.537
58360W        W19814   9.269   4.847  11.394
58361W        W19815  19.127  31.088  14.807
58362W        W19816   0.985   1.961  10.479
58363W        W19817  13.240  38.977   0.414
58364W        W19818  33.044  13.667   4.189
58365W        W19819  35.419  35.583  11.928
58366W        W19820   0.798  10.674   4.229
58367W        W19821  29.118  39.440   0.748
58368W        W19822  37.942   3.862  12.982
58369W        W19823   1.255  37.972  10.560
58370W        W19824   8.797   4.902   3.366
58371W        W19825  15.247   6.238   4.661
58372W        W19826  40.310  35.531  12.942
58373W        W19827  20.744  44.820   1.217
58374W        W19828   6.838  36.490   4.324
58375W        W19829   6.750  31.406  10.960
58376W        W19830  13.318  19.606  12.398
58377W        W19831  33.622  39.822   4.787
58378W        W19832  33.064   0.894   2.744
58379W        W19833  13.137  13.302   0.842
58380W        W19834   6.777  37.950   3.685
58381W        W19835  29.106  31.068  14.474
58382W        W19836  43.328  18.780   2.283
58383W        W19837   7.778   5.748   2.244
58384W        W19838   5.412   5.863   1.770
58385W        W19839  14.733  19.611  11.889
58386W        W19840  43.807  39.015   2.395
58387W        W19841  25.066   5.851   0.285
58388W        W19842  34.572   2.348  11.015
58389W        W19843  17.722  34.577   3.700
58390W        W19844   7.689  25.016   4.741
58391W        W19845  42.857  10.140   5.186
58392W        W19846  19.238  35.072  13.349
58393W        W19847  42.388   7.788   1.879
58394W        W19848  39.484  27.103   1.377
58395W        W19849  19.674  25.018   3.713
58396W        W19850  38.992  18.665   4.261
58397W        W19851  28.107  23.509   3.195
58398W        W19852  41.999  23.084  10.458
58399W        W19853  20.245  16.665   4.658
58400W        W19854  44.441  34.450   1.819
58401W        W19855  38.469  30.066  12.847
58402W        W19856  44.309  12.770   1.932
58403W        W19857  24.589  19.675  13.955
58404W        W19858  15.263  18.741   4.324
58405W        W19859   3.821  20.264  14.434
58406W        W19860  11.703  10.312  10.522
58407W        W19861   8.809  13.735  10.566
58408W        W19862  28.517  40.363   1.733
58409W        W19863   8.828  33.951   9.677
58410W        W19864  23.021  36.079   2.900
58411W        W19865  14.270   7.398   2.836
58412W        W19866  11.671  34.387  13.975
58413W        W19867  42.303  43.982  10.584
58414W        W19868  19.053  15.234   0.341
58415W        W19869  12.720  39.366  14.379
58416W        W19870  26.498  17.599  11.940
58417W        W19871  34.877  28.015  13.858
58418W        W19872  38.029  17.253   0.846
58419W        W19873  19.130  11.307  11.451
58420W        W19874  29.014  12.668  12.995
58421W        W19875  41.929  17.116  14.794
58422W        W19876  18.576   9.269   2.874
58423W        W19877  12.156  28.952  14.408
58424W        W19878  38.858  27.544   2.197
58425W        W19879  40.025  26.181  11.061
58426W        W19880  28.962  20.705  13.951
58427W        W19881  44.413  33.429   0.935
58428W        W19882  20.056  26.205  12.555
58429W        W19883   9.168  28.099   3.374
58430W        W19884  22.622  17.224  12.000
58431W        W19885  30.990  14.669   3.374
58432W        W19886  25.216  36.873   3.686
58433W        W19887  44.373  43.977   4.349
58434W        W19888  22.700  36.518   1.437
58435W        W19889   8.878  16.696  12.444
58436W        W19890   5.728   1.260  10.984
58437W        W19891  41.516  35.984   2.382
58438W        W19892  38.448   4.291   2.202
58439W        W19893  31.446  28.164  12.432
58440W        W19894  34.934  38.534  12.911
58441W        W19895  26.039  26.204   4.719
58442W        W19896  44.908  10.720   2.366
58443W        W19897  15.585   2.925   1.219
58444W        W19898  37.967   1.246   1.270
58445W        W19899  41.014  43.977  12.403
58446W        W19900  21.665  27.485   1.712
58447W        W19901  26.646  30.019  14.800
58448W        W19902  15.301  44.384  14.456
58449W        W19903   5.749  41.346   4.262
58450W        W19904  35.863  30.578  14.511
58451W        W19905   7.285  41.874  12.411
58452W        W19906   5.703   2.374  11.561
58453W        W19907  11.748   0.926  11.876
58454W        W19908  24.168  16.654  14.833
58455W        W19909   8.379  20.116   1.259
58456W        W19910  44.761   6.796  11.975
58457W        W19911  43.396  44.485  10.080
58458W        W19912   9.798  11.820  11.504
58459W        W19913  14.221  36.027  12.901
58460W        W19914   4.309   4.252  10.410
58461W        W19915  35.974  40.420  13.539
58462W        W19916  22.032   3.405   1.395
58463W        W19917  22.091  29.665   2.343
58464W        W19918   1.851  20.255   2.736
58465W        W19919  43.835  37.546  13.831
58466W        W19920  41.789  42.397   3.681
58467W        W19921  33.568  15.818  14.359
58468W        W19922   2.426  23.222   2.237
58469W        W19923  35.919  36.419  12.347
58470W        W19924  40.828  28.094  11.873
58471W        W19925   6.378   9.700   3.242
58472W        W19926  22.702  16.780  10.943
58473W        W19927  44.884  32.577   4.290
58474W        W19928  10.840  26.674   2.826
58475W        W19929   5.694  21.195   2.196
58476W        W19930  24.993  29.944   3.247
58477W        W19931  21.590  34.958   3.758
58478W        W19932  21.058  17.297   3.658
58479W        W19933   0.953  21.106  12.523
58480W        W19934  15.823  29.966   0.742
58481W        W19935  37.001  17.569   2.400
58482W        W19936  26.530  38.829   4.677
58483W        W19937  13.637  34.371  14.344
58484W        W19938  38.004  25.159   2.727
58485W        W19939  20.164  28.170  12.357
58486W        W19940  24.083   6.207   2.242
58487W        W19941   0.819  29.516  13.500
58488W        W19942  21.567  21.205   4.764
58489W        W19943  43.330  32.390   0.738
58490W        W19944   3.806  21.739   3.242
58491W        W19945  44.268  40.034  13.894
58492W        W19946  18.181   2.368  13.334
58493W        W19947  21.559  19.214  11.881
58494W        W19948  23.997  29.034   2.348
58495W        W19949   1.361  36.912   4.753
58496W        W19950  23.055  34.398   2.718
58497W        W19951  12.822   7.880  13.469
58498W        W19952  11.661   8.849  13.375
58499W        W19953  27.152  38.467   2.218
58500W        W19954  10.158  27.674   0.455
58501W        W19955  12.153  15.318  14.497
58502W        W19956   1.802  38.391   2.377
58503W        W19957  33.099  13.137  10.938
58504W        W19958  37.830   9.816   0.462
58505W        W19959  34.531  36.377   4.318
58506W        W19960   6.388  39.834   2.722
58507W        W19961   7.256  27.502   1.415
58508W        W19962  31.033   7.705   2.802
58509W        W19963  28.443  41.923  13.404
58510W        W19964  22.171  13.177  10.976
58511W        W19965   7.904  15.172  13.839
58512W        W19966   8.880  20.700  14.514
58513W        W19967  16.130   4.930  11.108
58514W        W19968  19.576   8.694  14.975
58515W        W19969  15.728   6.889  10.595
58516W        W19970  35.860  34.062   4.319
58517W        W19971  36.989  22.093   3.810
58518W        W19972   4.273  43.975   1.414
58519W        W19973  11.257  42.883  10.471
58520W        W19974  42.822  28.041  11.989
58521W        W19975  27.165  14.610   0.859
58522W        W19976  43.989  15.630  11.408
58523W        W19977  42.829  23.100  12.869
58524W        W19978  32.924  14.636  14.507
58525W        W19979  43.308  44.263  13.495
58526W        W19980   0.494  42.488   0.444
58527W        W19981  26.486   7.183  10.568
58528W        W19982  12.272   4.394   0.870
58529W        W19983   7.784  10.678  13.992
58530W        W19984  14.772  22.055   0.761
58531W        W19985  14.147   5.357  12.944
58532W        W19986   5.266  40.037  12.562
58533W        W19987  23.236   8.746   5.714
58534W        W19988  12.329   8.887   2.260
58535W        W19989  40.370  20.703   2.400
58536W        W19990  33.919  35.391   4.734
58537W        W19991   7.666  41.919  12.031
58538W        W19992  39.451  13.632  13.010
58539W        W19993  43.285  42.961   4.148
58540W        W19994  27.108   2.352   4.164
58541W        W19995   8.687  42.325   0.962
58542W        W19996   9.176  15.619   4.617
58543W        W19997  11.756  21.674  11.047
58544W        W19998  28.052  10.662   3.380
58545W        W19999  17.728  19.148  13.489
58546W        W20000  12.687  34.532   2.884
58547W        W20001  44.385  44.318   3.736
58548W        W20002  13.344   2.774  14.844
58549W        W20003   4.293   8.228   3.730
58550W        W20004  14.809  38.397   3.252
58551W        W20005  15.744  24.017  14.784
58552W        W20006   5.866  29.611   3.367
58553W        W20007  20.757   4.305  14.837
58554W        W20008  10.178   8.164  14.510
58555W        W20009  36.029  33.941  12.993
58556W        W20010  31.522   7.337   3.662
58557W        W20011  12.294  42.372   0.373
58558W        W20012  10.174   9.777  12.463
58559W        W20013  11.718  33.903   4.613
58560W        W20014  30.006  38.427  12.522
58561W        W20015  28.108  20.233   3.776
58562W        W20016  17.221  34.425  14.293
58563W        W20017   1.792  18.739   3.871
58564W        W20018   1.251  12.795  14.978
58565W        W20019   2.941  38.044   2.776
58566W        W20020  35.454  26.094  13.331
58567W        W20021  31.933  18.249   4.350
58568W        W20022  31.064   0.966  13.044
58569W        W20023  24.147  19.688   0.471
58570W        W20024   1.410  42.846  13.974
58571W        W20025  24.120  43.845   2.838
58572W        W20026   0.358   6.908   3.327
58573W        W20027  29.962  34.391  14.824
58574W        W20028  43.358  23.697  13.410
58575W        W20029   4.211  41.857  12.851
58576W        W20030   9.342  24.704   3.702
58577W        W20031   8.691  44.495  14.512
58578W        W20032  26.123  17.230  11.411
58579W        W20033  20.620  37.969  12.975
58580W        W20034  21.694   0.802  12.971
58581W        W20035  33.018  36.481   0.471
58582W        W20036  24.701  12.326  10.924
58583W        W20037  13.677  13.741   0.921
58584W        W20038  38.942  41.828   0.405
58585W        W20039  31.436  18.705  12.459
58586W        W20040  24.215  42.398   3.739
58587W        W20041  24.655   4.762  11.098
58588W        W20042  42.445  25.693  14.475
58589W        W20043  16.192   8.791  12.048
58590W        W20044   3.738  43.829  13.994
58591W        W20045  42.802  33.929   0.798
58592W        W20046   7.178  43.347  12.034
58593W        W20047  24.041   0.939  11.588
58594W        W20048   2.892  19.669   3.292
58595W        W20049  28.537  42.376   1.451
58596W        W20050  10.724  14.800   4.246
58597W        W20051   0.275   7.415  13.926
58598W        W20052  32.991  18.285   2.321
58599W        W20053  28.532  30.605   4.672
58600W        W20054  17.722  34.528  10.951
58601W        W20055  42.513   8.698   2.364
58602W        W20056   1.430  12.214  14.291
58603W        W20057  28.562  27.635  11.392
58604W        W20058  35.905  27.550   3.701
58605W        W20059  40.971  43.996   1.844
58606W        W20060  13.243  11.642  12.574
58607W        W20061  25.154  30.081  10.916
58608W        W20062  32.446  26.577  11.536
58609W        W20063  25.032  11.662  14.778
58610W        W20064  40.461  22.177   4.218
58611W        W20065  43.931   1.732  11.983
58612W        W20066  10.161  23.725  12.363
58613W        W20067  34.613   9.354  14.364
58614W        W20068  32.135  43.430   4.304
58615W        W20069  26.042   9.781  13.419
58616W        W20070  22.684   4.316   0.801
58617W        W20071  34.044  37.381  13.945
58618W        W20072  20.044  30.435   0.925
58619W        W20073  32.924  10.685  12.905
58620W        W20074  14.787  15.152   2.320
58621W        W20075  40.814  27.002  13.347
58622W        W20076  35.996   4.325   3.300
58623W        W20077  44.942  16.797  14.492
58624W        W20078  19.254  21.251  10.461
58625W        W20079  44.914  15.267  12.825
58626W        W20080   9.352  40.022   4.789
58627W        W20081  33.105  40.975  10.929
58628W        W20082  18.174  39.336   0.779
58629W        W20083   0.898  24.608   4.181
58630W        W20084  24.514  16.766   4.281
58631W        W20085  20.598  15.109  10.588
58632W        W20086  37.012  18.065  12.523
58633W        W20087  41.040  13.128   3.663
58634W        W20088   4.891  37.521   3.222
58635W        W20089  31.583  40.340  11.855
58636W        W20090   6.396  33.933  14.780
58637W        W20091  42.308  14.691   1.417
58638W        W20092   6.335   5.262   4.148
58639W        W20093   7.209   1.448  12.376
58640W        W20094  44.328   9.694  14.030
58641W        W20095  40.970  25.212   1.829
58642W        W20096  43.437   8.827   2.234
58643W        W20097  14.818  36.882   2.717
58644W        W20098  37.456  21.707  11.952
58645W        W20099  32.533  22.207   2.179
58646W        W20100  42.796  34.930  14.485
58647W        W20101  37.012   6.688   4.283
58648W        W20102  19.160  21.538   3.306
58649W        W20103  16.279  15.603   1.722
58650W        W20104   7.215  21.076  14.771
58651W        W20105   0.896   9.670   0.380
58652W        W20106  20.227   7.222  10.120
58653W        W20107   4.205  25.981   1.726
58654W        W20108  35.920  28.092   0.476
58655W        W20109   4.766  15.734   2.701
58656W        W20110  29.971   9.864   3.672
58657W        W20111  11.817  43.018  10.472
58658W        W20112  13.305   4.863  12.510
58659W        W20113  40.449   4.895  11.892
58660W        W20114  20.717  23.520  13.495
58661W        W20115  34.472  43.988   1.779
58662W        W20116   2.766  14.261  10.986
58663W        W20117  38.921  44.371   3.279
58664W        W20118  37.035  28.978  12.369
58665W        W20119  16.780  14.242   3.735
58666W        W20120   8.245   8.349  13.954
58667W        W20121  14.174  23.184  11.068
58668W        W20122  35.090   6.323   4.815
58669W        W20123  27.987  40.801  12.014
58670W        W20124   9.838   3.808  10.491
58671W        W20125  41.396  20.066  14.904
58672W        W20126  13.236  43.920   2.297
58673W        W20127  39.829  26.977  14.007
58674W        W20128  33.093   6.385  12.455
58675W        W20129  41.388  29.989   4.631
58676W        W20130  22.175  12.242  10.602
58677W        W20131  29.462  39.475  11.114
58678W        W20132  18.626  35.873  14.763
58679W        W20133  43.987  23.529   3.634
58680W        W20134  13.316  26.561  10.959
58681W        W20135  19.062  23.694   1.763
58682W        W20136   9.655  23.527   1.747
58683W        W20137  31.553  34.517  14.774
58684W        W20138  28.168  38.480  11.954
58685W        W20139  22.163  18.146   3.257
58686W        W20140  11.210  19.578   3.215
58687W        W20141  39.939   5.736  14.447
58688W        W20142  14.805  13.771   1.933
58689W        W20143   9.806  12.348  13.041
58690W        W20144  14.153  33.030  10.913
58691W        W20145   0.381   7.767  10.595
58692W        W20146  18.199   3.290   1.415
58693W        W20147  19.539   4.306   1.796
58694W        W20148  31.942  44.482  10.583
58695W        W20149   7.838  28.936   0.965
58696W        W20150  16.745   0.935  12.536
58697W        W20151  39.863  11.332  12.454
58698W        W20152  10.867  13.162  12.528
58699W        W20153   7.682  26.651  12.430
58700W        W20154  19.170  43.978  14.461
58701W        W20155  40.502   3.863  11.075
58702W        W20156  35.446  43.487   0.837
58703W        W20157  23.019  30.516  14.464
58704W        W20158  39.513   4.939   0.360
58705W        W20159  44.394  37.408   3.653
58706W        W20160   3.919   6.351   2.761
58707W        W20161  20.192  29.135   4.780
58708W        W20162  12.761  32.118  12.892
58709W        W20163   8.683  20.763  13.899
58710W        W20164  25.129  39.975  14.401
58711W        W20165  35.509  36.445  11.080
58712W        W20166   1.958   5.316  13.969
58713W        W20167  16.810  40.342   1.750
58714W        W20168  22.108  24.641   4.711
58715W        W20169  23.703  33.090   1.707
58716W        W20170   8.376  39.530  14.000
58717W        W20171  30.514   2.452  14.995
58718W        W20172   0.342   4.787  12.404
58719W        W20173  31.595  29.063   4.744
58720W        W20174  16.143  18.563   4.653
58721W        W20175  12.743  31.622  13.313
58722W        W20176  37.864  11.740  13.941
58723W        W20177  17.129  18.211   2.801
58724W        W20178  11.185  13.798   2.847
58725W        W20179  41.398  38.530  12.040
58726W        W20180  27.510  41.404  13.521
58727W        W20181  23.722  22.077   3.679
58728W        W20182  43.989  44.372   2.185
58729W        W20183   8.669  28.646   3.298
58730W        W20184   2.767  30.941   0.775
58731W        W20185  38.487  22.177   0.397
58732W        W20186  30.912  31.045  14.950
58733W        W20187  15.774  36.848   2.374
58734W        W20188  42.484   8.296   2.889
58735W        W20189  19.749   4.301  10.014
58736W        W20190  28.114  39.064   0.479
58737W        W20191   2.956  15.639   0.411
58738W        W20192  10.297   4.817  13.526
58739W        W20193  29.999   5.373  11.099
58740W        W20194  36.349   6.223   4.619
58741W        W20195   9.366   9.659   4.687
58742W        W20196  21.030  14.606  10.458
58743W        W20197  25.018  14.787   4.225
58744W        W20198  18.214  12.728  12.029
58745W        W20199  28.531   4.241  12.401
58746W        W20200  24.991  30.114   2.279
58747W        W20201  18.596   0.784  11.443
58748W        W20202   5.924   5.855  14.864
58749W        W20203   4.304  31.084   4.811
58750W        W20204   8.344  18.140   0.766
58751W        W20205  24.219  41.321   1.892
58752W        W20206   0.384  23.063   4.234
58753W        W20207  40.344  11.663   5.141
58754W        W20208   1.384   2.249   1.306
58755W        W20209   3.340   6.923   3.176
58756W        W20210  36.893  14.222  12.935
58757W        W20211  43.966   7.678   3.255
58758W        W20212  42.003  22.243  14.406
58759W        W20213   6.848   3.296  14.450
58760W        W20214  33.572   3.870   3.384
58761W        W20215  24.545  16.167  12.055
58762W        W20216  18.263  27.065  12.513
58763W        W20217  44.383  20.061  14.278
58764W        W20218  41.936   7.174  10.536
58765W        W20219  24.043  44.287   1.253
58766W        W20220  40.833  26.574  13.471
58767W        W20221  16.770  31.597  13.029
58768W        W20222  14.168  42.812   3.189
58769W        W20223   7.775  38.417  12.851
58770W        W20224   3.303  24.006   3.286
58771W        W20225  43.879  34.569   1.746
58772W        W20226  34.393  31.413  12.556
58773W        W20227  37.541  41.907  14.907
58774W        W20228  44.333  20.185  12.438
58775W        W20229  33.555  15.783  14.903
58776W        W20230   1.324   8.318   1.413
58777W        W20231  28.139  35.439   2.344
58778W        W20232  36.439  19.700  14.969
58779W        W20233  19.133  24.589   1.911
58780W        W20234  26.197  44.386   3.701
58781W        W20235  40.469   2.460   4.803
58782W        W20236   7.857  22.658   0.934
58783W        W20237  35.592  36.873   1.449
58784W        W20238  18.294   3.451  11.003
58785W        W20239  14.200   2.313  14.025
58786W        W20240  13.746  25.677  14.768
58787W        W20241  34.610  26.134   2.867
58788W        W20242  38.443  30.025   2.326
58789W        W20243  40.912  42.900  13.400
58790W        W20244  34.033  13.110   2.254
58791W        W20245  39.359  10.857  11.392
58792W        W20246  14.146   0.797  11.893
58793W        W20247  26.700  40.310   0.748
58794W        W20248   1.294  32.109  14.340
58795W        W20249  37.392  41.793  11.595
58796W        W20250  25.687  36.517  10.981
58797W        W20251  22.239  30.123  11.387
58798W        W20252  33.021  14.719   3.733
58799W        W20253   7.224  31.576   2.753
58800W        W20254  10.656   0.299  12.500
58801W        W20255  15.708  21.100   0.750
58802W        W20256  28.560  25.508   5.179
58803W        W20257  42.865   7.398   3.297
58804W        W20258  16.755  42.011  10.426
58805W        W20259  30.111   1.808   1.913
58806W        W20260   8.329  10.840  13.447
58807W        W20261  43.764  19.132   0.840
58808W        W20262   9.261  24.495   1.901
58809W        W20263  16.792  39.942  12.374
58810W        W20264  21.646  26.054  10.426
58811W        W20265   5.207  10.274  14.969
58812W        W20266  35.996   1.312  14.353
58813W        W20267   4.405  16.781  12.959
58814W        W20268   5.335  20.236  12.037
58815W        W20269   1.247  40.324   4.154
58816W        W20270  19.163  41.792  14.318
58817W        W20271  19.237  39.503  12.365
58818W        W20272  30.439   9.780  10.002
58819W        W20273   2.827   3.772   0.297
58820W        W20274  28.653  18.607   3.156
58821W        W20275   2.456  35.945   0.731
58822W        W20276   7.771  17.637   4.261
58823W        W20277  33.457  32.084   1.440
58824W        W20278   0.813  11.298  14.292
58825W        W20279  20.645  26.501  10.433
58826W        W20280  21.189  30.520   1.290
58827W        W20281  20.059  44.441  13.474
58828W        W20282   0.962  30.079   2.810
58829W        W20283  17.238  41.404  13.308
58830W        W20284  21.135  33.074  10.132
58831W        W20285  39.511  25.517  12.980
58832W        W20286  21.140  21.698  12.461
58833W        W20287  24.214  17.232   1.760
58834W        W20288  36.004  31.599  14.446
58835W        W20289  24.046  29.480  13.869
58836W        W20290  18.625  34.488   0.244
58837W        W20291  27.473  16.745  12.053
58838W        W20292   7.877  31.913   1.930
58839W        W20293  11.326   3.361  11.971
58840W        W20294  34.949  42.441  11.091
58841W        W20295  10.361   2.451   3.173
58842W        W20296  20.221  15.678  12.528
58843W        W20297   0.424   8.204   1.700
58844W        W20298   4.405  30.941   1.722
58845W        W20299  29.174  11.310   1.304
58846W        W20300  15.155   8.331   0.457
58847W        W20301  22.608  44.404   4.304
58848W        W20302  40.386  30.922  12.067
58849W        W20303  20.199  38.038  13.851
58850W        W20304  40.429  13.187  13.910
58851W        W20305  34.576  16.791  12.408
58852W        W20306  28.661  11.344   1.307
58853W        W20307  44.835   7.228  11.890
58854W        W20308   5.389  42.396  14.973
58855W        W20309  11.712  39.008  12.562
58856W        W20310  26.180  43.395  11.016
58857W        W20311  29.065   2.327  14.371
58858W        W20312  20.694  36.449   1.298
58859W        W20313  30.492  25.528   4.244
58860W        W20314  10.208  43.291   3.163
58861W        W20315  27.488   3.905   4.207
58862W        W20316  26.611   8.372  11.385
58863W        W20317   3.721  40.518  11.988
58864W        W20318  40.881   8.887  11.057
58865W        W20319  36.348  23.023  11.052
58866W        W20320  14.328  38.048  11.892
58867W        W20321   1.457  12.775   4.729
58868W        W20322  40.973  23.121  10.619
58869W        W20323   3.892  14.741  11.890
58870W        W20324  42.857  30.611   1.890
58871W        W20325  32.422   5.905   1.909
58872W        W20326  20.249   6.405   4.793
58873W        W20327  15.247  27.498   1.809
58874W        W20328  23.707  13.795  12.508
58875W        W20329   8.746   0.780  12.864
58876W        W20330  40.889  43.308  12.521
58877W        W20331  17.740   8.291  12.840
58878W        W20332  11.701  29.003  12.505
58879W        W20333  32.484  28.100  10.527
58880W        W20334  41.952  31.100  13.509
58881W        W20335  44.318  31.410  13.817
58882W        W20336  37.416  23.987   4.153
58883W        W20337  11.240  12.693   0.299
58884W        W20338  24.604  10.787   2.374
58885W        W20339  40.328  37.423   5.140
58886W        W20340   2.841  18.772   4.316
58887W        W20341   5.923  36.951  10.973
58888W        W20342  11.751  27.454   4.228
58889W        W20343  34.029  36.589  13.520
58890W        W20344  16.670  34.574   3.696
58891W        W20345  39.042  23.684  14.946
58892W        W20346   5.788   0.469   3.288
58893W        W20347  33.024  15.600   1.927
58894W        W20348  33.470  16.666   3.330
58895W        W20349   0.895   9.310  12.963
58896W        W20350  39.865  27.661  14.953
58897W        W20351  19.643   7.667   0.875
58898W        W20352  31.137  12.355   0.350
58899W        W20353  20.187  14.677   4.621
58900W        W20354  21.084   7.198  14.839
58901W        W20355  42.810  40.047  14.792
58902W        W20356  31.970  34.089  12.369
58903W        W20357  31.131  25.137   2.207
58904W        W20358  17.570  37.830   2.406
58905W        W20359  18.573  16.736  11.031
58906W        W20360   9.249  32.076   1.750
58907W        W20361  35.899   9.214  12.518
58908W        W20362  17.605   6.385  12.012
58909W        W20363  29.453  18.218  14.383
58910W        W20364  29.105  23.552  13.313
58911W        W20365  25.674   7.312  10.022
58912W        W20366  36.089   3.318  12.955
58913W        W20367  34.425  34.551   3.869
58914W        W20368  42.983   0.342  11.431
58915W        W20369  24.001   4.939   2.186
58916W        W20370  10.727  30.020  13.916
58917W        W20371   9.317  24.046   2.306
58918W        W20372  31.062  31.012  12.472
58919W        W20373  24.100  38.937  13.861
58920W        W20374  19.721   3.297   3.650
58921W        W20375  21.082  37.012  14.431
58922W        W20376  27.980   2.439   0.376
58923W        W20377  26.112  41.000  10.545
58924W        W20378   8.315  31.130   0.251
58925W        W20379  18.778  34.566   4.745
58926W        W20380   0.490  33.953   4.333
58927W        W20381   1.916  17.269   4.145
58928W        W20382   3.720   1.958   2.889
58929W        W20383  42.393  15.767  14.769
58930W        W20384  43.992  32.569   2.758
58931W        W20385  29.581  36.472   2.782
58932W        W20386  28.538  32.469  14.371
58933W        W20387  16.153  19.773  11.124
58934W        W20388  13.205   3.771   2.718
58935W        W20389  23.062  33.384   3.163
58936W        W20390  28.587  28.169   2.771
58937W        W20391  29.631  12.727  14.871
58938W        W20392  43.871  26.547  12.952
58939W        W20393   0.961   6.781  14.434
58940W        W20394   1.904  15.217  10.597
58941W        W20395  19.681  31.953   3.254
58942W        W20396  38.459  40.334   2.292
58943W        W20397  21.216  44.321   5.159
58944W        W20398  42.312  15.646  12.371
58945W        W20399  10.678  18.183  13.989
58946W        W20400  41.926  43.799  12.832
58947W        W20401  37.542   2.257   0.764
58948W        W20402   4.865  14.116   1.376
58949W        W20403   0.960  34.021  12.027
58950W        W20404   2.470  21.023  10.622
58951W        W20405  11.768  40.421   2.350
58952W        W20406  15.291   1.382  11.562
58953W        W20407  19.590  13.287  11.374
58954W        W20408   3.363  17.578   0.422
58955W        W20409  12.782  10.153   3.834
58956W        W20410  10.646   8.365  11.381
58957W        W20411  16.588   9.683   4.651
58958W        W20412  35.530  16.767  11.599
58959W        W20413   9.761  29.988  12.938
58960W        W20414  11.757   5.717  13.937
58961W        W20415  23.235  40.421  10.523
58962W        W20416   5.268   6.319  11.102
58963W        W20417   6.734  16.765  10.963
58964W        W20418  24.650  16.683   0.435
58965W        W20419   7.245  22.220  10.915
58966W        W20420  14.209  38.446  11.015
58967W        W20421  31.929   3.912  11.577
58968W        W20422  11.843  34.093  13.456
58969W        W20423  15.270  40.531  11.884
58970W        W20424  44.318  41.334   4.660
58971W        W20425  39.983  42.384  14.359
58972W        W20426  20.756  30.057  11.868
58973W        W20427   2.728  25.186   1.704
58974W        W20428  31.566  11.771  13.346
58975W        W20429  24.000  32.041  12.541
58976W        W20430  42.904  13.804   0.357
58977W        W20431  20.117   8.330   3.357
58978W        W20432  33.585  23.082  11.889
58979W        W20433   4.865  28.603   0.483
58980W        W20434  33.554  12.840   4.642
58981W        W20435  17.700  19.091  14.798
58982W        W20436  12.197   0.798  10.541
58983W        W20437  13.287  11.758  10.456
58984W        W20438  18.062  29.920  11.015
58985W        W20439  44.341  14.689  11.454
58986W        W20440   4.332  36.051  10.929
58987W        W20441  24.230  42.816  14.853
58988W        W20442  23.579  30.421   2.249
58989W        W20443  29.469  37.997  12.902
58990W        W20444  12.153   6.289  12.399
58991W        W20445  26.121   9.876   3.696
58992W        W20446  29.598   2.800   4.238
58993W        W20447  17.228  23.612  11.923
58994W        W20448  34.958  28.160   1.833
58995W        W20449  19.147  12.819  11.522
58996W        W20450  19.584  18.070  12.918
58997W        W20451  12.679  27.474  12.392
58998W        W20452  31.921  34.608  10.956
58999W        W20453  15.106   2.344   1.233
59000W        W20454  16.694  32.423  12.535
59001W        W20455  22.021  16.281   1.342
59002W        W20456  34.419   0.416  13.486
59003W        W20457  11.773  40.527  12.546
59004W        W20458  19.199  21.543   4.276
59005W        W20459  38.490  19.686  12.374
59006W        W20460   0.426  31.545   3.733
59007W        W20461  32.132  18.124  14.423
59008W        W20462  31.590  24.157  12.934
59009W        W20463  29.093  20.240   1.310
59010W        W20464  18.547  12.183   3.853
59011W        W20465  30.610  11.267  12.090
59012W        W20466  11.738  26.025   4.257
59013W        W20467  12.702  24.982   1.274
59014W        W20468  31.480  33.983   4.289
59015W        W20469  28.952  30.558  11.892
59016W        W20470  20.137  38.015   1.924
59017W        W20471  41.034   3.793   3.647
59018W        W20472  42.904  36.374  14.971
59019W        W20473  22.516  18.711   4.163
59020W        W20474  33.402  39.029  11.467
59021W        W20475  11.147  35.575  10.598
59022W        W20476  23.022  35.543  10.602
59023W        W20477  28.505  31.951  13.807
59024W        W20478  10.688  42.311   2.262
59025W        W20479  10.262  10.259   1.799
59026W        W20480  13.677  31.072   2.674
59027W        W20481   9.235  41.968   0.910
59028W        W20482  26.021   6.198  12.369
59029W        W20483  20.545  43.774  10.496
59030W        W20484   9.754  35.528  10.009
59031W        W20485  43.773  28.620   3.356
59032W        W20486  23.213  26.159  14.964
59033W        W20487  28.593  13.127   3.272
59034W        W20488  41.385  37.378   4.160
59035W        W20489   4.745  22.151  10.032
59036W        W20490  21.211  31.012   1.756
59037W        W20491  33.458  18.547   2.362
59038W        W20492  26.504  30.547  12.938
59039W        W20493  34.934  24.659   1.824
59040W        W20494  39.000   8.240   4.246
59041W        W20495   4.798  42.782   4.129
59042W        W20496   2.417  15.145   0.745
59043W        W20497  15.295  43.907   2.704
59044W        W20498  31.138  24.633  12.381
59045W        W20499  36.901  24.518  14.997
59046W        W20500  29.569  14.725   1.869
59047W        W20501  35.033  16.089  11.029
59048W        W20502  23.728  43.306  10.889
59049W        W20503  27.064  38.058  10.934
59050W        W20504  11.673  41.922  11.490
59051W        W20505  23.159  22.562  10.965
59052W        W20506  17.645   8.882  12.571
59053W        W20507  21.110  44.921   4.307
59054W        W20508  22.600  25.038  14.464
59055W        W20509  26.162   6.215   4.253
59056W        W20510  33.594  44.925   1.890
59057W        W20511  34.898  19.072   3.655
59058W        W20512  44.316   0.857  14.482
59059W        W20513  10.361   3.803  14.434
59060W        W20514  23.000  39.958   1.812
59061W        W20515  32.996  21.593  14.451
59062W        W20516  36.932  44.305   2.417
59063W        W20517  39.950   1.892  12.443
59064W        W20518  23.024  42.292  13.421
59065W        W20519  35.386  38.515  14.816
59066W        W20520  24.228  18.199   0.480
59067W        W20521  15.130   7.795  14.439
59068W        W20522  10.342  20.600   0.931
59069W        W20523  40.473  42.493  12.353
59070W        W20524  37.866   4.213  14.903
59071W        W20525   2.774  39.814  11.446
59072W        W20526   6.205  10.335   0.350
59073W        W20527  23.107  35.986  12.014
59074W        W20528  27.153  44.864   3.219
59075W        W20529  39.497  19.226   1.929
59076W        W20530  13.198  38.948  13.499
59077W        W20531  42.430  32.448   1.317
59078W        W20532  26.118  34.944  14.461
59079W        W20533   7.215  38.443   4.672
59080W        W20534  40.307  22.544   2.796
59081W        W20535   2.871  29.527   2.866
59082W        W20536  37.406  14.312   4.726
59083W        W20537   5.318   2.813   0.342
59084W        W20538  21.133   2.789   3.349
59085W        W20539  38.935  40.921  11.374
59086W        W20540  29.554   3.782   0.739
59087W        W20541  31.922  23.716   4.186
59088W        W20542  17.639  23.600  14.414
59089W        W20543  20.582  20.088   0.360
59090W        W20544  39.065  36.580  10.956
59091W        W20545  14.814  42.799  14.482
59092W        W20546  16.785   7.725  14.339
59093W        W20547  42.325  39.058   4.661
59094W        W20548  32.536  32.542  11.395
59095W        W20549   5.317  37.462  11.514
59096W        W20550  13.622  37.378   1.221
59097W        W20551  29.447  40.003  11.997
59098W        W20552  30.953   7.330  10.120
59099W        W20553   6.918  38.422  11.473
59100W        W20554  16.567  11.649   0.315
59101W        W20555  34.530  10.780  13.999
59102W        W20556   7.292  30.628   0.911
59103W        W20557  30.943  27.491   4.147
59104W        W20558  44.346  29.949   0.405
59105W        W20559   0.491  32.046  12.471
59106W        W20560  39.387   8.299  11.056
59107W        W20561  39.884  30.012  11.859
59108W        W20562  30.561  18.552   4.335
59109W        W20563  38.551  36.867   4.774
59110W        W20564  11.644  13.608  13.521
59111W        W20565  14.103  29.992   0.889
59112W        W20566  14.705  44.992   1.360
59113W        W20567   7.272  16.187  14.379
59114W        W20568  36.964   1.864   1.276
59115W        W20569  21.569  23.094  12.082
59116W        W20570  21.033  26.161  11.916
59117W        W20571  12.163  11.238  11.554
59118W        W20572  42.414   2.922  14.894
59119W        W20573  20.142  16.570   3.195
59120W        W20574  29.089  18.240   4.773
59121W        W20575  21.690  21.736  13.321
59122W        W20576  40.399  38.523  13.342
59123W        W20577  27.987  14.707   0.741
59124W        W20578  23.701  38.474   0.761
59125W        W20579  35.430   3.827   1.802
59126W        W20580  34.111  35.383   0.377
59127W        W20581  18.208   6.375   0.737
59128W        W20582  33.093   2.259   0.806
59129W        W20583  41.924  35.478   4.826
59130W        W20584   3.460   0.903   1.331
59131W        W20585  42.958  28.044   3.319
59132W        W20586   2.765  38.330   2.282
59133W        W20587   2.820  35.551  13.311
59134W        W20588  38.334  11.635   4.292
59135W        W20589  20.172  11.837  10.621
59136W        W20590  22.707  42.332   1.823
59137W        W20591  37.444  38.857  12.035
59138W        W20592   3.921  35.085  13.823
59139W        W20593   3.261  22.594   3.292
59140W        W20594  21.119  36.498  11.005
59141W        W20595  33.399  42.391  12.919
59142W        W20596  11.862  20.582   3.211
59143W        W20597  24.171   4.856  13.891
59144W        W20598  10.185  30.464  12.973
59145W        W20599  24.137  42.900   3.263
59146W        W20600  33.981  21.245   3.346
59147W        W20601  35.080  20.687  11.109
59148W        W20602  16.226   6.683  12.394
59149W        W20603   9.884  35.888  14.454
59150W        W20604  31.063  27.190  14.794
59151W        W20605   4.229  39.950   2.817
59152W        W20606  35.987  30.529  14.980
59153W        W20607  40.901  23.115  13.913
59154W        W20608  16.133  36.354  10.538
59155W        W20609  25.073  14.152  13.920
59156W        W20610   9.793  32.123   1.830
59157W        W20611  36.847   6.250  12.413
59158W        W20612  23.650  22.108   0.770
59159W        W20613  15.157  39.928  12.508
59160W        W20614  41.322  33.385   0.904
59161W        W20615  23.665  18.583   3.228
59162W        W20616  40.439  26.109   4.165
59163W        W20617  10.791  21.128  12.022
59164W        W20618  35.517   9.849   3.864
59165W        W20619  10.204   2.882  10.949
59166W        W20620  22.168  30.431  13.515
59167W        W20621  44.772  12.854  14.297
59168W        W20622   3.836   9.319  11.086
59169W        W20623   8.256  35.449   3.707
59170W        W20624  33.466  23.609   2.782
59171W        W20625   8.845  26.663  12.061
59172W        W20626  36.404  21.056  10.900
59173W        W20627  29.102  41.441   1.762
59174W        W20628   2.372  16.787  14.806
59175W        W20629  15.091  43.818   3.291
59176W        W20630  16.769  28.630  12.083
59177W        W20631   5.854   8.809   0.847
59178W        W20632  11.756  14.265   2.228
59179W        W20633  33.552  27.978  10.432
59180W        W20634   3.740   7.673  11.957
59181W        W20635   7.773  33.019   2.397
59182W        W20636  29.166   1.343  11.966
59183W        W20637  12.339   9.712  14.961
59184W        W20638  34.453   2.882  11.059
59185W        W20639   1.482  19.283  14.428
59186W        W20640  20.209  44.886  14.904
59187W        W20641  29.004  31.074   0.960
59188W        W20642  24.075  17.104   1.320
59189W        W20643  34.566  33.565   4.780
59190W        W20644  34.023  10.824   4.835
59191W        W20645  28.185  33.941  13.987
59192W        W20646  43.319  32.594  10.430
59193W        W20647  11.834  35.489   3.796
59194W        W20648  30.628   2.256  13.880
59195W        W20649  22.129  37.951   3.317
59196W        W20650  30.043  16.100  13.459
59197W        W20651  17.768  14.278  12.910
59198W        W20652  26.191  33.943  12.079
59199W        W20653   2.737  21.121   0.823
59200W        W20654  41.435   9.864   2.780
59201W        W20655  33.968  15.117  14.429
59202W        W20656  13.279  15.719   3.167
59203W        W20657   7.864  17.750   3.278
59204W        W20658  23.654  27.690   2.735
59205W        W20659  36.426  19.548   5.169
59206W        W20660  21.157  33.926  14.440
59207W        W20661  33.967  36.380   2.770
59208W        W20662  16.075  13.327  12.524
59209W        W20663  16.608   1.466  12.095
59210W        W20664  35.448  31.616  13.985
59211W        W20665  42.364  32.073   0.801
59212W        W20666  29.156  25.586   2.265
59213W        W20667  39.543  10.189  12.910
59214W        W20668   1.878  13.805   1.225
59215W        W20669  11.258  38.385   9.921
59216W        W20670  32.916   4.776  10.604
59217W        W20671  25.006  31.629  11.554
59218W        W20672   5.195   2.788  14.454
59219W        W20673  19.678  22.683  10.558
59220W        W20674  22.147  36.478   4.821
59221W        W20675  24.707  41.466   4.264
59222W        W20676  27.522  21.136   2.840
59223W        W20677  41.899   1.311  14.321
59224W        W20678  38.006  11.231   1.377
59225W        W20679  25.665  19.569  14.456
59226W        W20680   0.447  20.265  10.612
59227W        W20681  33.616  32.562  12.446
59228W        W20682  33.459  35.099   0.899
59229W        W20683   7.714   5.431  11.086
59230W        W20684  15.608  19.077   3.218
59231W        W20685  36.512  20.588  13.422
59232W        W20686  26.566   2.381  12.869
59233W        W20687  14.267  24.163  11.884
59234W        W20688   4.791  20.036  13.970
59235W        W20689  40.404  27.179  11.510
59236W        W20690  40.318  16.128  14.849
59237W        W20691   5.863  13.231   2.308
59238W        W20692  26.984  22.079  11.861
59239W        W20693  16.296  15.207  14.378
59240W        W20694  36.044   0.986  10.458
59241W        W20695   7.666  28.676  10.945
59242W        W20696  24.648  15.606   4.644
59243W        W20697   9.697  14.134  14.944
59244W        W20698   8.357  22.614   2.890
59245W        W20699  23.052  21.258   1.373
59246W        W20700  40.809  32.450   3.256
59247W        W20701  14.669   6.203   0.289
59248W        W20702  23.158  15.697  10.513
59249W        W20703  33.478  16.671   1.893
59250W        W20704   9.279  39.484  13.335
59251W        W20705  13.651   0.972  13.052
59252W        W20706  28.124  38.895   2.874
59253W        W20707  35.450  42.369   0.410
59254W        W20708  19.209  21.702  11.603
59255W        W20709  15.613  20.214   1.399
59256W        W20710  16.294   3.725   3.851
59257W        W20711  42.823   4.358   2.322
59258W        W20712  44.840  30.148  10.544
59259W        W20713  43.361  19.686   4.244
59260W        W20714   9.704  22.036  11.408
59261W        W20715  15.272  12.228   0.248
59262W        W20716   6.791  25.648   3.341
59263W        W20717  20.709  12.754  14.426
59264W        W20718   7.827  41.043  12.449
59265W        W20719  22.999  19.768   2.834
59266W        W20720  38.464  14.758   2.756
59267W        W20721  41.971  39.976  11.501
59268W        W20722   2.338   2.421   2.178
59269W        W20723  44.789   1.255  11.408
59270W        W20724  39.003  36.435  11.972
59271W        W20725  30.458  20.177  10.963
59272W        W20726  19.648  14.333   3.748
59273W        W20727  11.793  31.109   2.716
59274W        W20728  31.046  23.523  14.484
59275W        W20729  43.980  28.572  11.869
59276W        W20730  40.007  42.852   1.768
59277W        W20731  41.473  43.782   4.299
59278W        W20732  22.176  22.207  11.477
59279W        W20733  13.205  32.414   0.318
59280W        W20734  34.459  34.005   1.439
59281W        W20735  15.194  22.023  11.605
59282W        W20736  12.671   1.269   4.669
59283W        W20737  30.619  23.151   9.583
59284W        W20738  29.613  30.068   3.648
59285W        W20739   9.358  12.630   4.196
59286W        W20740  15.596  41.792   3.672
59287W        W20741  38.431  20.050   3.233
59288W        W20742   7.404  37.390  14.804
59289W        W20743  43.931   4.777   4.161
59290W        W20744  31.598  31.945  14.278
59291W        W20745  21.034  32.030  13.347
59292W        W20746  38.004  13.123  13.050
59293W        W20747   2.721   8.349  12.354
59294W        W20748  36.958  25.098   4.224
59295W        W20749  18.623  40.876  11.095
59296W        W20750  26.473  15.731  14.957
59297W        W20751  42.355  34.464  11.548
59298W        W20752  24.562  29.586  12.975
59299W        W20753  17.154  32.484   1.885
59300W        W20754  38.562  38.384  13.847
59301W        W20755   2.778  32.446  13.415
59302W        W20756  26.077  42.381   0.340
59303W        W20757  23.123  28.104  12.062
59304W        W20758  41.030  13.663  12.928
59305W        W20759  11.744  18.242  10.954
59306W        W20760  18.169  37.915  13.846
59307W        W20761  32.419   7.256   3.771
59308W        W20762  39.552  30.445  12.033
59309W        W20763  15.303   9.357  12.349
59310W        W20764   6.366  17.593  13.059
59311W        W20765  17.596  21.727   1.926
59312W        W20766  27.072  13.274  12.542
59313W        W20767  14.685  16.808   0.959
59314W        W20768   7.770  11.671  13.844
59315W        W20769  29.600   0.254  11.989
59316W        W20770  20.693  27.067  13.977
59317W        W20771   5.250  29.113  11.062
59318W        W20772   0.849  30.974   4.804
59319W        W20773  12.143   5.849  10.911
59320W        W20774   6.691  41.410   0.939
59321W        W20775  24.673  30.567   4.613
59322W        W20776  21.212  38.519  13.996
59323W        W20777   2.284  28.032  14.351
59324W        W20778  13.271   7.865   3.184
59325W        W20779  15.673  39.347   2.782
59326W        W20780   9.799   5.284   4.277
59327W        W20781  18.057  35.590   3.368
59328W        W20782  26.570  34.376  12.869
59329W        W20783  43.452  26.631  14.448
59330W        W20784  29.488  18.611   3.330
59331W        W20785  18.588  42.482   1.323
59332W        W20786  44.869  29.484   3.727
59333W        W20787  31.435  16.694   0.949
59334W        W20788   0.309  27.987  11.022
59335W        W20789  24.620   1.944  13.486
59336W        W20790   1.318   1.839   1.888
59337W        W20791  33.975   7.733  14.866
59338W        W20792  26.004  41.962  12.502
59339W        W20793   0.751  16.261  14.000
59340W        W20794   2.417  25.521  10.418
59341W        W20795  32.919   5.258  12.884
59342W        W20796  26.122  16.640  12.005
59343W        W20797  22.702   9.765  13.548
59344W        W20798   8.383  35.017   2.287
59345W        W20799  21.617  19.698   2.733
59346W        W20800  21.736  23.110  14.473
59347W        W20801  41.869   6.223  11.884
59348W        W20802  25.012  34.485  13.913
59349W        W20803  11.859  23.669   2.356
59350W        W20804   3.854  23.617  13.381
59351W        W20805  21.258   7.766   3.285
59352W        W20806  36.956  24.984   3.383
59353W        W20807   5.730  39.932   3.650
59354W        W20808  25.705  25.967  12.381
59355W        W20809  25.612  14.126  14.876
59356W        W20810  36.515  34.939   3.705
59357W        W20811  17.116   4.762  10.090
59358W        W20812  22.711  13.747  10.456
59359W        W20813  39.455   7.754   2.694
59360W        W20814  32.925   2.460  14.880
59361W        W20815   9.352  43.952   4.341
59362W        W20816  14.598  17.197   1.393
59363W        W20817  38.013  25.472   1.342
59364W        W20818  22.620  26.158   3.257
59365W        W20819   9.262  29.543  13.942
59366W        W20820  33.128  12.630  14.944
59367W        W20821  17.295   1.857   4.837
59368W        W20822  42.327   6.755  13.861
59369W        W20823  25.054   7.198   5.190
59370W        W20824  25.585   7.688   4.645
59371W        W20825   6.799  28.036   2.851
59372W        W20826  44.499  40.013  10.416
59373W        W20827  42.804   8.368   0.448
59374W        W20828  18.602   3.326   5.289
59375W        W20829  37.913  44.852   1.219
59376W        W20830  40.814  22.189   2.878
59377W        W20831  38.046  26.981  11.054
59378W        W20832  16.794  20.568  11.607
59379W        W20833   0.487  17.738   0.350
59380W        W20834   6.761  18.067  12.873
59381W        W20835  18.177  30.621   1.740
59382W        W20836  25.504   2.780  14.930
59383W        W20837   9.252  30.909   3.794
59384W        W20838   9.268  40.836   2.210
59385W        W20839  13.211  41.413  14.861
59386W        W20840  15.198  34.030  14.857
59387W        W20841   7.341  39.997   0.456
59388W        W20842  26.149  41.458   4.262
59389W        W20843  28.146  31.433   4.694
59390W        W20844  14.110  26.020  11.872
59391W        W20845  36.394  18.790   3.189
59392W        W20846  34.526  17.235  14.828
59393W        W20847  30.048  33.950   3.828
59394W        W20848   0.778  34.550   0.464
59395W        W20849   4.846  25.530  13.484
59396W        W20850  29.059  18.755   3.270
59397W        W20851  42.893  39.916  13.507
59398W        W20852  22.047   5.786  10.158
59399W        W20853  36.034  12.239  14.827
59400W        W20854   1.754  20.260   1.441
59401W        W20855  22.631   5.911  10.092
59402W        W20856  11.630  29.469  10.891
59403W        W20857  30.650   2.863  14.938
59404W        W20858  12.198  16.304   4.778
59405W        W20859  32.978  16.212   4.169
59406W        W20860  16.772  33.019  11.949
59407W        W20861   1.322  34.010  14.930
59408W        W20862  21.746   0.887  10.049
59409W        W20863  19.185   7.262  14.016
59410W        W20864  34.611   6.828   3.678
59411W        W20865   2.419   1.782   4.761
59412W        W20866  16.161  44.394  12.574
59413W        W20867  24.693  20.244   4.697
59414W        W20868  17.065  15.123  12.909
59415W        W20869  38.041  41.502   1.914
59416W        W20870  30.568  28.576   3.277
59417W        W20871  38.383  29.571  13.355
59418W        W20872  31.538  29.992   0.910
59419W        W20873  18.661  34.920  12.507
59420W        W20874   4.827   1.317   1.428
59421W        W20875   4.753  17.241   0.428
59422W        W20876   6.793  20.211  11.892
59423W        W20877  31.510  28.493   1.295
59424W        W20878  19.051  36.448   0.907
59425W        W20879  36.018  30.567  12.997
59426W        W20880  37.535  35.983  10.435
59427W        W20881  32.520  41.484   1.234
59428W        W20882  20.246  29.581  11.502
59429W        W20883  28.037  20.535   4.229
59430W        W20884   4.936  40.315  14.989
59431W        W20885   9.723  11.261  11.077
59432W        W20886  42.009  37.985  11.401
59433W        W20887  26.652  39.899   2.314
59434W        W20888   6.338   1.959  12.412
59435W        W20889  24.591   7.749  14.397
59436W        W20890  29.155  18.736   2.199
59437W        W20891  37.558   6.832   4.704
59438W        W20892  40.473   9.776   1.347
59439W        W20893   9.244  37.400   4.160
59440W        W20894  11.335  44.491  13.923
59441W        W20895  16.744  13.698   0.831
59442W        W20896  21.711  29.081   1.803
59443W        W20897  43.881  10.652  13.964
59444W        W20898   2.772  25.596   4.743
59445W        W20899  44.888  32.934   0.822
59446W        W20900   4.834  30.583  10.054
59447W        W20901  11.289   2.814   1.738
59448W        W20902  14.605  19.571  13.976
59449W        W20903   3.236   0.363  14.353
59450W        W20904  26.505  35.995  14.811
59451W        W20905  21.656  41.929   1.893
59452W        W20906  15.168  31.554   2.876
59453W        W20907   9.234  37.342   1.696
59454W        W20908  23.216  34.434   3.189
59455W        W20909  28.504  11.755   2.211
59456W        W20910  13.133  41.840  13.910
59457W        W20911   4.303  20.569   4.599
59458W        W20912   4.900   4.345   0.292
59459W        W20913  31.118  14.657  10.997
59460W        W20914  11.642  10.761   1.427
59461W        W20915  34.000  21.661  13.865
59462W        W20916   1.824  38.407  12.870
59463W        W20917  32.996   0.923   0.966
59464W        W20918   0.961  29.961   3.688
59465W        W20919  40.799  22.203  13.856
59466W        W20920  22.505  44.437  11.490
59467W        W20921  10.847  31.625   5.192
59468W        W20922  38.947   2.734   2.842
59469W        W20923  43.917   4.368   3.275
59470W        W20924  43.347  25.690  13.973
59471W        W20925  14.187   1.867   3.331
59472W        W20926  44.340  25.138  13.061
59473W        W20927  28.148  30.465   3.753
59474W        W20928  27.589  15.145  11.576
59475W        W20929  31.451   1.399  12.510
59476W        W20930  28.511  12.227  14.887
59477W        W20931  24.973  10.148  11.478
59478W        W20932   4.304  21.253  14.315
59479W        W20933  14.662  16.213  12.511
59480W        W20934  33.600  10.840  10.463
59481W        W20935  19.660  10.172  14.318
59482W        W20936  19.742  17.128   3.249
59483W        W20937  37.526  21.226   0.320
59484W        W20938  35.454  26.488   4.605
59485W        W20939  44.779  41.986   2.858
59486W        W20940  44.758  12.693  11.535
59487W        W20941  30.417  36.032  11.391
59488W        W20942   8.380   2.427  14.476
59489W        W20943  27.106  31.483   1.253
59490W        W20944  10.155   4.372   1.777
59491W        W20945  34.602  30.938  12.836
59492W        W20946  42.470  42.998   4.807
59493W        W20947  44.425   1.757  11.855
59494W        W20948  10.304  15.732  11.603
59495W        W20949  30.099  16.723   4.165
59496W        W20950  17.273  36.054  14.472
59497W        W20951  37.522  25.172   2.695
59498W        W20952  11.632  29.052   1.695
59499W        W20953  28.458   4.890   3.784
59500W        W20954  17.753  34.939  10.614
59501W        W20955  26.546  36.932   1.289
59502W        W20956  27.599  17.209  14.802
59503W        W20957  30.439  42.005  11.987
59504W        W20958  13.606  35.464  13.798
59505W        W20959  15.213  34.404  13.444
59506W        W20960  10.380  16.744   0.810
59507W        W20961  43.894  41.461  14.352
59508W        W20962  33.048  42.841   3.256
59509W        W20963  27.077   5.922  10.423
59510W        W20964  28.001  21.577  12.480
59511W        W20965   1.393  12.724  11.040
59512W        W20966  12.731   5.860   4.226
59513W        W20967   5.753  15.672   2.683
59514W        W20968  26.700  17.155  13.821
59515W        W20969   5.251   8.830   5.243
59516W        W20970   1.954  17.577   3.809
59517W        W20971  38.428  29.031   1.696
59518W        W20972   5.378  27.139   3.164
59519W        W20973   4.332  30.592   2.308
59520W        W20974  17.230  30.651  13.459
59521W        W20975   1.237  44.986   4.331
59522W        W20976  13.339  36.948  14.790
59523W        W20977  43.935  13.658  12.396
59524W        W20978  27.196  34.953   3.330
59525W        W20979  35.595  17.706   3.852
59526W        W20980  42.360   0.401   0.856
59527W        W20981   9.325  40.024   3.170
59528W        W20982  27.582  39.371   2.185
59529W        W20983  42.819  42.938   4.706
59530W        W20984   4.716   6.694   0.789
59531W        W20985  20.033  41.319  11.123
59532W        W20986  11.632  25.116  14.283
59533W        W20987   0.434  27.971  11.546
59534W        W20988  40.010  12.812  13.987
59535W        W20989  38.430  37.994  14.992
59536W        W20990  24.557   6.314   2.418
59537W        W20991   2.922  12.792   2.243
59538W        W20992   3.944  34.445   4.648
59539W        W20993   0.481  13.174   3.676
59540W        W20994  19.065  33.455  11.386
59541W        W20995  19.657  26.674  10.429
59542W        W20996   2.836  31.074   2.851
59543W        W20997  11.859  36.893  14.915
59544W        W20998  33.978   3.334   2.769
59545W        W20999   7.368   0.341  11.033
59546W        W21000  30.480   9.352   2.691
59547W        W21001  26.591  37.410  13.841
59548W        W21002  41.492  29.985   4.299
59549W        W21003   3.456  14.154   4.740
59550W        W21004   8.197  41.443  12.402
59551W        W21005  39.418  36.583  13.495
59552W        W21006  38.830   3.459  12.997
59553W        W21007  30.495  35.603   3.762
59554W        W21008   7.239   9.350  12.089
59555W        W21009   2.910  29.540  13.967
59556W        W21010  15.748  14.299  12.556
59557W        W21011  28.175  35.983  14.516
59558W        W21012   8.669  21.627  14.918
59559W        W21013  11.664  33.906   3.835
59560W        W21014  40.808   5.330   2.876
59561W        W21015  40.052  18.786   4.770
59562W        W21016  15.658  23.025   0.829
59563W        W21017  37.081  33.568   3.856
59564W        W21018  27.459  25.136  11.038
59565W        W21019  10.690  30.930   2.192
59566W        W21020  14.740  19.541   9.638
59567W        W21021  22.689  37.358  13.364
59568W        W21022  29.119  35.401   1.331
59569W        W21023   1.246  13.111  12.936
59570W        W21024  35.547  21.080   0.739
59571W        W21025  24.490  13.281  14.390
59572W        W21026  26.568  19.109  12.359
59573W        W21027  24.493  41.412  13.506
59574W        W21028   4.835  34.544  11.434
59575W        W21029   2.247  26.643  11.587
59576W        W21030  23.041  20.260  12.846
59577W        W21031   4.925   5.743   4.302
59578W        W21032   3.932  19.547   1.822
59579W        W21033  40.486  16.292  11.961
59580W        W21034  22.220  21.198   4.726
59581W        W21035   8.750  11.712   2.897
59582W        W21036  10.702  28.473   4.812
59583W        W21037  44.383   8.795   1.786
59584W        W21038  38.984  43.827  13.006
59585W        W21039   4.804  19.229   2.860
59586W        W21040   5.694   8.178   0.469
59587W        W21041  24.505  24.491   4.735
59588W        W21042  25.676  43.985   0.841
59589W        W21043  29.175  15.242   4.332
59590W        W21044  27.152  18.120  11.547
59591W        W21045  21.059  26.970   1.371
59592W        W21046   7.233   3.722   0.777
59593W        W21047  11.865  37.582  10.939
59594W        W21048   4.323  37.372   2.709
59595W        W21049  30.598  25.140   1.737
59596W        W21050  35.105  36.017  12.014
59597W        W21051  29.577  44.765   0.820
59598W        W21052  38.880   7.779  12.425
59599W        W21053  24.104  34.556  13.053
59600W        W21054  37.367  15.606   0.784
59601W        W21055  40.954   0.301   4.310
59602W        W21056  11.640  32.395   2.805
59603W        W21057  12.664  39.907  14.315
59604W        W21058  14.741  41.805   0.797
59605W        W21059   3.245  26.468  13.951
59606W        W21060  31.569  33.094  10.942
59607W        W21061  15.734  33.882   1.933
59608W        W21062  30.131  31.108   1.429
59609W        W21063   1.301  12.670   2.778
59610W        W21064   6.896  21.234   4.605
59611W        W21065  32.038  18.113  11.957
59612W        W21066  17.270   2.922  12.920
59613W        W21067  39.965  14.710  12.967
59614W        W21068  24.090   5.714   3.339
59615W        W21069  28.566  36.018  11.107
59616W        W21070   0.336  20.607  13.906
59617W        W21071  15.698   2.394  12.003
59618W        W21072   6.280  14.775   3.657
59619W        W21073   6.393  10.168   2.747
59620W        W21074  17.254   8.792  14.416
59621W        W21075   4.368  28.444  14.940
59622W        W21076   8.204   6.735   3.838
59623W        W21077  22.563   4.411  13.333
59624W        W21078  37.420   0.265   3.687
59625W        W21079  17.221  39.442  14.800
59626W        W21080   3.944   8.207  11.544
59627W        W21081  21.577  34.866  10.998
59628W        W21082  18.199  32.629  12.990
59629W        W21083  34.517  21.086   0.944
59630W        W21084  30.651  21.036  13.466
59631W        W21085  10.216  26.671   1.287
59632W        W21086  16.798   6.297  11.997
59633W        W21087   4.262  20.695  13.428
59634W        W21088  32.535   8.234   2.822
59635W        W21089   1.320  43.887   1.868
59636W        W21090  34.552  27.995  14.834
59637W        W21091  25.967  21.707   4.806
59638W        W21092  38.042  14.640  11.383
59639W        W21093  17.620  23.997  14.854
59640W        W21094  31.551  35.991   1.282
59641W        W21095   2.265   9.209   0.363
59642W        W21096  28.565   7.841   3.320
59643W        W21097  35.468   3.767   4.723
59644W        W21098  43.012  41.868   3.849
59645W        W21099  41.789  15.310   1.336
59646W        W21100  18.202  13.293   5.152
59647W        W21101  27.521  19.574  13.877
59648W        W21102  44.921  33.612   2.416
59649W        W21103  24.158  30.417  12.949
59650W        W21104   6.340  44.395   1.253
59651W        W21105   0.906   8.715   2.831
59652W        W21106  27.466  24.056   1.274
59653W        W21107  40.873  12.718  12.885
59654W        W21108  15.814  36.571  14.392
59655W        W21109  40.468   2.790  11.433
59656W        W21110  38.466  31.966   1.213
59657W        W21111  12.139  20.156   4.701
59658W        W21112  19.216  26.665   4.779
59659W        W21113   2.878   1.762   1.931
59660W        W21114  21.511   4.252  12.007
59661W        W21115   5.817  20.148  10.421
59662W        W21116  33.625  12.354  14.974
59663W        W21117   9.853   1.463   0.254
59664W        W21118  37.364  43.816  11.593
59665W        W21119   3.391  42.336   4.800
59666W        W21120  43.930  20.169  12.495
59667W        W21121  14.763  37.439   1.321
59668W        W21122  10.770   6.823   0.386
59669W        W21123  16.234  20.766  13.835
59670W        W21124  12.289  38.922  14.806
59671W        W21125  33.945  19.101   2.707
59672W        W21126  44.973  44.342  11.427
59673W        W21127  37.364   8.272   0.307
59674W        W21128  12.266  13.182   0.436
59675W        W21129  37.412  13.655  10.517
59676W        W21130  38.012   1.857   4.645
59677W        W21131  18.583   1.341  12.561
59678W        W21132  17.227  12.680  11.986
59679W        W21133  27.673  22.682   1.405
59680W        W21134  33.985  29.649  10.992
59681W        W21135  29.076  43.455  11.953
59682W        W21136  34.446   5.232   1.874
59683W        W21137  19.674  29.662   5.215
59684W        W21138  37.460  38.062   9.946
59685W        W21139  25.667  19.059   0.360
59686W        W21140  10.211  35.464  11.873
59687W        W21141  29.609  26.652  12.479
59688W        W21142  23.180  44.886   3.849
59689W        W21143  37.386  34.490  10.554
59690W        W21144  13.624  13.843  11.041
59691W        W21145   8.223  21.695  13.390
59692W        W21146   0.796  24.042  10.476
59693W        W21147   1.961  23.501  11.386
59694W        W21148  15.105  20.247  11.579
59695W        W21149   1.392  31.980  11.077
59696W        W21150  19.065   3.884  12.895
59697W        W21151  22.545   6.849   4.772
59698W        W21152  14.661  40.343   5.150
59699W        W21153  29.486  13.680   1.867
59700W        W21154  42.806  39.030   2.254
59701W        W21155   9.781  33.535  12.476
59702W        W21156   8.742   6.362   2.394
59703W        W21157  40.546  23.573  10.584
59704W        W21158  37.444  34.552  11.946
59705W        W21159  20.749  43.952  14.315
59706W        W21160  37.935  31.057  13.833
59707W        W21161  40.455   3.855  14.352
59708W        W21162  32.423  29.954  12.844
59709W        W21163  30.523  13.289   3.339
59710W        W21164   6.750  22.615   3.378
59711W        W21165   8.895  38.025   1.800
59712W        W21166  39.971   5.356  13.844
59713W        W21167  22.052   8.164   1.444
59714W        W21168  37.547  23.186   0.392
59715W        W21169  28.168  25.667   5.164
59716W        W21170  26.633   8.334   1.892
59717W        W21171  43.297   0.478   0.431
59718W        W21172  19.740   6.856  12.415
59719W        W21173  30.032   1.266  11.480
59720W        W21174   0.971  13.642   3.241
59721W        W21175  36.482   2.433  11.053
59722W        W21176  13.330  26.998   1.325
59723W        W21177   4.439  29.041   4.643
59724W        W21178  36.012  33.950  11.032
59725W        W21179  43.771   8.859  10.941
59726W        W21180  28.478   6.867   9.490
59727W        W21181  14.245  37.968  13.456
59728W        W21182  15.298   2.851   1.763
59729W        W21183  19.051  25.679   4.812
59730W        W21184  15.225  20.255   3.362
59731W        W21185  36.396  10.330  12.076
59732W        W21186  37.903  12.317   4.605
59733W        W21187  19.136   5.704   1.259
59734W        W21188  20.256  17.199  10.121
59735W        W21189  37.003  27.499   2.380
59736W        W21190  14.725   8.163   1.418
59737W        W21191  38.422   5.817   3.239
59738W        W21192  28.133  35.574  11.874
59739W        W21193  19.665  11.820  13.320
59740W        W21194   4.363  11.336   3.336
59741W        W21195  40.987   4.701  14.318
59742W        W21196  13.701  12.178   9.570
59743W        W21197  42.355  39.843  10.460
59744W        W21198   4.867  38.935  13.044
59745W        W21199  42.520   9.378  12.522
59746W        W21200  22.638   6.805  13.794
59747W        W21201  26.981  25.212  10.528
59748W        W21202  30.640  33.600  11.869
59749W        W21203   3.739   9.809  12.481
59750W        W21204  10.176  13.271  11.964
59751W        W21205  35.523  26.655  10.909
59752W        W21206  21.017  18.266  10.595
59753W        W21207  14.173  16.298   4.701
59754W        W21208  17.630  44.375  12.358
59755W        W21209  10.847  36.964   1.433
59756W        W21210  25.602  37.915  13.520
59757W        W21211  28.613  34.036  11.426
59758W        W21212   1.417   8.835   0.735
59759W        W21213   8.377  12.647   1.217
59760W        W21214  10.876  14.734   0.934
59761W        W21215  33.032  24.185   0.270
59762W        W21216  16.215  22.510  14.315
59763W        W21217  43.454  37.921  12.498
59764W        W21218  20.593  15.733   1.296
59765W        W21219  18.056  36.853  11.549
59766W        W21220  43.379  30.642  11.499
59767W        W21221   8.698  12.277   3.156
59768W        W21222  39.841  18.105  14.934
59769W        W21223  12.213   5.688   4.277
59770W        W21224   3.394   7.806  11.962
59771W        W21225  15.710  28.056   2.211
59772W        W21226  26.197   8.290   3.178
59773W        W21227  27.019  44.892  11.857
59774W        W21228   2.334   6.193   4.789
59775W        W21229   5.238  17.772   2.198
59776W        W21230   7.853  28.651   4.734
59777W        W21231  14.722  24.544   2.328
59778W        W21232  29.654  16.223  12.405
59779W        W21233   9.241  31.022   0.447
59780W        W21234  31.418  11.699  12.525
59781W        W21235  17.764  43.455  11.051
59782W        W21236  37.491  39.558   2.706
59783W        W21237  40.501  29.040  13.918
59784W        W21238  37.952  33.423  10.627
59785W        W21239  40.937  33.540  11.085
59786W        W21240   2.351  13.182   0.400
59787W        W21241  37.917  28.964   2.877
59788W        W21242  38.919  36.019  10.503
59789W        W21243  41.901   2.849  13.901
59790W        W21244  39.954  19.044  11.601
59791W        W21245  16.595  32.587  11.977
59792W        W21246  18.251   5.344  14.299
59793W        W21247  34.501   5.301  12.868
59794W        W21248  40.370  32.456   4.235
59795W        W21249  26.495  24.522   4.600
59796W        W21250  28.630   5.700  14.773
59797W        W21251  21.666  42.336   2.851
59798W        W21252  40.427  24.531   0.348
59799W        W21253  34.372   5.775   2.197
59800W        W21254  21.123  11.370  12.091
59801W        W21255  38.390  43.936  13.953
59802W        W21256  35.971  33.946   1.284
59803W        W21257   4.857  25.038   3.376
59804W        W21258  15.148  36.941   4.190
59805W        W21259  15.606  11.143  13.969
59806W        W21260  37.045   7.296  14.812
59807W        W21261   2.862  30.059  14.908
59808W        W21262  22.593  38.337   2.751
59809W        W21263  36.447   0.258   3.199
59810W        W21264  43.491  34.000   2.728
59811W        W21265  28.076  43.500   1.746
59812W        W21266   6.217   8.737   0.353
59813W        W21267  21.686  15.328  10.603
59814W        W21268  23.019  23.728  13.359
59815W        W21269  20.196  43.797  13.442
59816W        W21270  16.757  27.682   2.689
59817W        W21271  42.484   2.828  11.597
59818W        W21272  39.824  28.042  12.464
59819W        W21273  36.418  29.147   3.757
59820W        W21274  21.615  30.458  14.451
59821W        W21275  27.583  22.711   0.339
59822W        W21276  12.254  18.100   5.750
59823W        W21277  27.613  34.045   0.383
59824W        W21278  36.038  25.591   2.315
59825W        W21279  15.642  25.139  12.505
59826W        W21280  30.061  40.824   4.225
59827W        W21281   3.750  32.968  12.073
59828W        W21282   8.214  29.981  14.934
59829W        W21283  14.604  41.834  13.381
59830W        W21284   5.391  35.529  11.599
59831W        W21285  42.342   5.258  14.784
59832W        W21286  10.271  16.724   4.641
59833W        W21287  14.133  29.612   0.477
59834W        W21288  25.477  14.187   1.297
59835W        W21289   4.742  24.561  12.411
59836W        W21290  25.500  18.202  14.355
59837W        W21291  42.338  34.097   3.235
59838W        W21292  33.963  21.609   3.169
59839W        W21293  32.530   5.812  12.855
59840W        W21294  17.708   8.685  11.451
59841W        W21295  37.444  20.558   3.317
59842W        W21296   9.652  18.050   1.907
59843W        W21297  13.708  13.198  12.486
59844W        W21298  38.889  18.772  13.832
59845W        W21299  18.157  31.517  11.423
59846W        W21300  27.452  43.506   1.419
59847W        W21301  44.907   8.387  14.505
59848W        W21302  13.832  20.627   3.669
59849W        W21303  42.486  37.581  14.326
59850W        W21304  33.913  20.235   4.309
59851W        W21305  22.641  39.513  13.415
59852W        W21306   1.240  17.648  12.868
59853W        W21307   5.222  19.199  13.059
59854W        W21308  22.066   0.331  13.345
59855W        W21309  13.685  24.022   1.433
59856W        W21310   1.296  34.001   2.381
59857W        W21311   5.427  26.004  11.085
59858W        W21312   5.209  43.487  12.469
59859W        W21313  38.500  26.162  11.030
59860W        W21314  36.388   4.233  11.413
59861W        W21315  36.516  18.768  14.972
59862W        W21316  39.031  11.128  11.052
59863W        W21317  43.982  42.377   3.692
59864W        W21318   5.253  24.131  14.479
59865W        W21319  12.351  38.407   0.345
59866W        W21320  39.338  38.552  10.578
59867W        W21321  38.470  38.035  14.507
59868W        W21322  29.920  43.390   4.284
59869W        W21323  41.522  32.099  14.806
59870W        W21324  33.594  41.917   3.689
59871W        W21325  33.511  22.053  13.926
59872W        W21326  34.929  24.169  12.509
59873W        W21327   8.668   8.349   2.712
59874W        W21328  16.619   7.303   4.276
59875W        W21329  20.159  27.043   4.318
59876W        W21330  37.554   1.922   3.146
59877W        W21331   4.822  13.250   3.831
59878W        W21332  28.931   2.415   1.418
59879W        W21333  14.617  36.975   2.408
59880W        W21334  38.050  23.683  11.065
59881W        W21335  15.145  25.610   1.820
59882W        W21336  20.101  41.023   3.801
59883W        W21337  15.639  36.471   5.176
59884W        W21338   4.922  18.270   5.275
59885W        W21339   6.417  28.435   1.884
59886W        W21340  33.579   0.410   2.691
59887W        W21341  15.693  27.543  11.904
59888W        W21342  20.641   4.437   3.807
59889W        W21343  18.667   8.383  13.498
59890W        W21344  23.614  10.735   2.236
59891W        W21345   8.854  14.274   0.798
59892W        W21346  15.193  34.895   0.308
59893W        W21347  40.033   9.775  14.360
59894W        W21348  40.315   4.774   2.679
59895W        W21349  43.387  30.454   1.421
59896W        W21350   0.268  44.432  12.455
59897W        W21351  40.499   7.683  14.992
59898W        W21352  19.084   8.812  14.928
59899W        W21353   1.770  21.701  13.800
59900W        W21354  22.072   3.806  12.050
59901W        W21355  13.340  25.194  12.858
59902W        W21356  16.095   0.795  10.986
59903W        W21357  11.290  37.430   2.363
59904W        W21358  23.230  18.590  13.316
59905W        W21359  44.285  23.092   2.728
59906W        W21360  14.763  10.703   3.336
59907W        W21361   8.160  43.920  13.971
59908W        W21362  43.489  35.443  12.913
59909W        W21363  19.138  14.314   5.271
59910W        W21364  24.219  18.597  10.484
59911W        W21365  41.863   0.843  14.882
59912W        W21366  11.710   7.708  10.919
59913W        W21367  29.989  10.875   2.374
59914W        W21368   5.402  19.705   3.706
59915W        W21369   3.398  36.462   5.319
59916W        W21370  22.088   1.369  10.980
59917W        W21371  22.563  24.119   4.349
59918W        W21372  15.236  28.012   3.685
59919W        W21373  39.356  35.575   2.354
59920W        W21374   0.784   5.408   3.267
59921W        W21375   0.479  34.103   3.841
59922W        W21376  38.423  15.626  11.578
59923W        W21377  19.712  40.316   2.262
59924W        W21378   7.668  24.623  11.059
59925W        W21379   7.774  36.541  10.528
59926W        W21380  43.804   4.238   1.447
59927W        W21381  42.010  27.519   4.831
59928W        W21382  24.674  26.151  14.977
59929W        W21383  16.568  36.580  11.020
59930W        W21384  14.184  24.122   1.914
59931W        W21385  10.856  16.623   2.302
59932W        W21386  21.554   2.800  14.901
59933W        W21387  36.550  11.816  10.147
59934W        W21388  10.364  16.182   0.765
59935W        W21389  36.552   5.375   3.196
59936W        W21390  16.721  37.457   0.461
59937W        W21391   0.839   8.890   3.815
59938W        W21392  27.678  39.964  13.471
59939W        W21393  39.969  37.947   2.326
59940W        W21394  16.120  32.017   2.900
59941W        W21395  41.427  26.061  14.023
59942W        W21396  40.351  18.112  10.079
59943W        W21397  40.798   0.422   0.751
59944W        W21398  42.024  10.735   1.928
59945W        W21399  33.421  29.657  13.533
59946W        W21400   4.898  26.100  13.865
59947W        W21401  42.997  38.069  12.879
59948W        W21402  16.312  28.681   4.653
59949W        W21403  30.994  28.442   1.233
59950W        W21404  44.825  36.381  11.566
59951W        W21405  27.577  43.343  14.985
59952W        W21406   0.751  25.595   0.457
59953W        W21407  24.208  44.498  14.291
59954W        W21408   7.838   6.728  11.430
59955W        W21409  23.211   7.221   3.158
59956W        W21410  31.476  29.087  13.917
59957W        W21411  26.503  14.226  10.583
59958W        W21412  15.138   5.404  12.842
59959W        W21413  35.393  19.753   0.929
59960W        W21414  13.764  22.115   2.675
59961W        W21415  17.063  12.230   1.278
59962W        W21416  33.879  14.618   0.327
59963W        W21417  36.361  15.726   2.750
59964W        W21418   5.900   7.280   1.755
59965W        W21419  34.608  29.000   1.711
59966W        W21420  25.580  13.196   4.241
59967W        W21421   1.864  24.677   2.376
59968W        W21422  21.095   5.803   1.880
59969W        W21423  17.628  26.590  10.428
59970W        W21424  27.546  23.704  13.506
59971W        W21425  27.125  28.962   3.375
59972W        W21426  29.470  22.218  12.856
59973W        W21427  32.898   3.785  14.976
59974W        W21428  44.327  12.118  11.503
59975W        W21429  40.820  24.702   4.768
59976W        W21430   1.803  18.216   2.183
59977W        W21431   1.863  22.651   3.647
59978W        W21432   4.391  37.043   0.467
59979W        W21433  29.588  19.708   0.785
59980W        W21434  44.276   1.880   3.372
59981W        W21435  44.799  18.685   4.195
59982W        W21436  39.368  44.401  13.408
59983W        W21437  12.293   6.711  11.080
59984W        W21438   6.822  28.121  14.937
59985W        W21439  23.093  14.695   0.274
59986W        W21440  39.974   5.434   0.735
59987W        W21441  43.900  41.912  14.795
59988W        W21442   5.711  27.622   2.355
59989W        W21443  15.699  27.959   3.817
59990W        W21444   5.727  25.152   4.687
59991W        W21445  12.353  20.709   3.733
59992W        W21446  21.549   9.813  13.359
59993W        W21447  14.180   9.767   0.814
59994W        W21448  35.976  21.740  10.954
59995W        W21449  22.250  40.510   3.222
59996W        W21450  33.473  19.077   0.817
59997W        W21451  32.509  39.889   1.399
59998W        W21452  11.145   2.328  11.411
59999W        W21453   3.283  28.985  11.936
60000W        W21454   5.905  33.602   1.232
60001W        W21455   0.794  40.346  14.971
60002W        W21456  13.762  28.672  12.477
60003W        W21457  41.496  41.852  13.478
60004W        W21458  16.302  31.925   1.318
60005W        W21459   0.774  39.882   3.237
60006W        W21460   0.328  28.122   4.223
60007W        W21461  15.736   5.868  11.454
60008W        W21462  19.228  15.205   2.834
60009W        W21463  22.606  26.561   3.384
60010W        W21464  23.197  21.056  10.528
60011W        W21465  22.137  24.001  13.470
60012W        W21466  13.624   1.291  12.936
60013W        W21467   7.760  38.418  13.401
60014W        W21468  32.487  15.745  11.046
60015W        W21469  25.973  18.652   2.801
60016W        W21470  40.923  33.436   3.717
60017W        W21471  13.675   2.383   4.272
60018W        W21472  19.537  41.944  12.837
60019W        W21473  42.430  30.077   0.869
60020W        W21474  21.541  36.035  14.505
60021W        W21475  20.709  40.306   0.800
60022W        W21476  33.093  37.975   2.720
60023W        W21477  37.893   1.822   3.869
60024W        W21478  22.620  32.044   3.346
60025W        W21479  34.867  29.168   1.827
60026W        W21480  17.257  23.124  11.415
60027W        W21481  37.916   2.867   4.807
60028W        W21482  25.129   9.308  11.867
60029W        W21483  22.998  18.746   4.689
60030W        W21484  17.688  43.992   1.831
60031W        W21485  30.032  14.793   3.758
60032W        W21486  43.846  12.644   1.383
60033W        W21487   5.344  39.464  12.934
60034W        W21488   8.202  41.872   3.669
60035W        W21489  27.611  16.314   0.733
60036W        W21490  42.307   8.711  11.449
60037W        W21491  20.225   6.681   2.235
60038W        W21492  22.137  17.763   4.661
60039W        W21493  14.627  13.709  10.991
60040W        W21494  35.917  10.278   2.401
60041W        W21495  14.170   6.340   1.732
60042W        W21496  13.721  21.044   0.356
60043W        W21497  16.306  43.021   3.755
60044W        W21498  18.225  41.430  11.048
60045W        W21499  17.170  10.677   4.743
60046W        W21500  10.705  12.186   0.931
60047W        W21501  11.208   5.923   3.290
60048W        W21502  16.206   3.261   1.826
60049W        W21503  42.371  13.693  11.117
60050W        W21504   0.410   1.908  10.518
60051W        W21505  14.671  19.158  10.018
60052W        W21506  13.606  12.351   2.739
60053W        W21507   2.830  15.719   4.199
60054W        W21508  27.110  14.596   0.311
60055W        W21509   4.249   7.302   1.774
60056W        W21510  28.965  27.601   4.159
60057W        W21511   0.434  43.014  14.958
60058W        W21512   2.838  37.034  11.424
60059W        W21513  43.016  28.614  11.452
60060W        W21514  20.568  34.398  12.013
60061W        W21515  10.362  39.942  14.955
60062W        W21516  21.186   6.794  12.461
60063W        W21517  14.104   7.229   0.729
60064W        W21518  44.806  33.126  14.953
60065W        W21519  23.186  43.393   4.781
60066W        W21520  27.141  26.172  14.977
60067W        W21521  20.635  13.296   4.302
60068W        W21522  22.552   8.388   2.396
60069W        W21523  14.627  35.372   1.428
60070W        W21524  36.907  25.696  11.091
60071W        W21525   6.204  22.584   0.405
60072W        W21526  12.822  10.274   0.295
60073W        W21527  26.509  18.251  13.963
60074W        W21528  25.995   3.352  12.486
60075W        W21529  19.222  27.120   0.440
60076W        W21530  30.632  33.399   3.730
60077W        W21531  14.751  27.466  11.877
60078W        W21532  16.262  17.139   3.701
60079W        W21533  40.535   0.800  10.986
60080W        W21534  17.689  43.459  11.399
60081W        W21535  34.410  28.551  10.976
60082W        W21536  25.571   6.232  11.062
60083W        W21537  16.716  25.988   2.818
60084W        W21538  24.165   4.718   9.996
60085W        W21539  16.662   4.894  14.474
60086W        W21540  21.198   6.293   2.391
60087W        W21541   1.277  15.127   2.416
60088W        W21542  28.495   9.791   1.385
60089W        W21543  32.931  40.020  10.986
60090W        W21544  23.179   4.813   0.835
60091W        W21545  34.420   3.444   5.142
60092W        W21546  13.196  27.030  13.494
60093W        W21547   9.883  32.887   2.862
60094W        W21548   0.356  35.445  12.829
60095W        W21549   8.786  24.538   4.348
60096W        W21550   0.972  33.561  13.798
60097W        W21551   5.813  11.733  13.970
60098W        W21552   4.912   0.959   5.188
60099W        W21553   1.902  42.328  11.070
60100W        W21554  14.748   8.773  13.824
60101W        W21555   8.249  34.000  12.025
60102W        W21556  30.920  20.249  12.361
60103W        W21557   5.860  19.202   0.250
60104W        W21558   3.879   2.736  10.630
60105W        W21559  32.957   3.772  12.004
60106W        W21560  37.997  14.115  10.603
60107W        W21561  28.114  34.419  12.095
60108W        W21562  33.897  21.158  12.916
60109W        W21563  13.612  14.708   4.127
60110W        W21564  39.410   9.152   1.268
60111W        W21565  17.280  31.450   1.366
60112W        W21566  29.966  38.999  10.525
60113W        W21567  14.610  41.465  14.970
60114W        W21568  38.971  36.071   1.805
60115W        W21569   1.315  36.865   2.293
60116W        W21570  14.677  17.240   3.713
60117W        W21571   7.352  34.069  11.008
60118W        W21572   2.379   9.280   1.787
60119W        W21573  41.295  34.550   0.402
60120W        W21574  19.085   2.754  13.494
60121W        W21575   5.418  39.343   4.627
60122W        W21576  34.401  16.117  13.935
60123W        W21577  19.689  44.279   2.849
60124W        W21578  30.908  13.266   4.336
60125W        W21579  20.709  11.246   1.399
60126W        W21580  24.605   3.356   2.853
60127W        W21581  44.347  38.887   4.122
60128W        W21582  33.965  10.842  10.596
60129W        W21583  42.900  10.354  12.044
60130W        W21584  26.156  21.553  14.966
60131W        W21585  37.022  15.637   2.726
60132W        W21586   9.272  12.797  14.317
60133W        W21587  22.560  22.505   4.831
60134W        W21588   1.798  29.629   3.328
60135W        W21589  32.084  40.848   1.307
60136W        W21590   1.744  30.052   2.292
60137W        W21591   9.833   1.898   0.737
60138W        W21592  14.174  11.287   1.907
60139W        W21593  23.614  14.175  14.498
60140W        W21594  36.921  15.258  11.974
60141W        W21595  27.041   9.338  11.448
60142W        W21596   0.374   0.436  13.523
60143W        W21597  13.709  19.685   2.224
60144W        W21598  40.800   4.394  14.461
60145W        W21599   4.272  37.571  12.456
60146W        W21600  26.600  10.173   1.848
60147W        W21601  12.291  21.129  13.826
60148W        W21602  24.133  26.008   4.334
60149W        W21603  41.796  16.723  12.528
60150W        W21604  12.315  18.184  14.774
60151W        W21605  38.925  12.823   2.389
60152W        W21606  43.515   4.781   3.710
60153W        W21607  42.334  21.225   0.925
60154W        W21608  31.063  24.088  12.931
60155W        W21609  24.006  28.069   1.777
60156W        W21610  15.227  11.358   0.829
60157W        W21611  28.659  20.743  12.089
60158W        W21612  30.163  25.217  13.798
60159W        W21613  23.591   7.243   5.315
60160W        W21614  38.486  15.117  10.935
60161W        W21615  34.009   0.814  11.034
60162W        W21616  18.266   2.774  13.373
60163W        W21617  31.924  44.782  10.494
60164W        W21618  24.096  23.654  12.837
60165W        W21619  13.267  20.690   3.186
60166W        W21620  28.497  42.022   1.805
60167W        W21621  35.047  39.429   2.276
60168W        W21622   7.822  36.093  11.017
60169W        W21623  15.210  18.562  14.372
60170W        W21624   1.460  33.605  12.406
60171W        W21625  28.544  26.592   3.162
60172W        W21626  31.965  33.962  13.334
60173W        W21627  25.597  19.226   1.238
60174W        W21628  36.512   0.351   0.250
60175W        W21629   7.198   9.203   2.767
60176W        W21630   5.688  37.362  14.381
60177W        W21631  30.588  34.447  11.898
60178W        W21632  30.454  35.858   2.712
60179W        W21633  36.506  32.051  11.495
60180W        W21634  29.549  38.866  13.478
60181W        W21635  21.092  24.607   1.418
60182W        W21636  35.550  15.287   3.362
60183W        W21637  26.575  23.237   5.744
60184W        W21638   1.821   7.202  14.832
60185W        W21639   2.281  33.103   0.850
60186W        W21640  35.544  16.077   4.687
60187W        W21641  40.051  30.590   0.809
60188W        W21642   5.902   0.464  12.843
60189W        W21643  40.804   9.823   1.868
60190W        W21644  32.095  17.241   0.473
60191W        W21645  21.035  31.559  14.797
60192W        W21646  27.548  34.531  14.475
60193W        W21647  25.154  10.220   3.666
60194W        W21648  27.473  15.646  12.854
60195W        W21649  42.478   4.923  12.067
60196W        W21650  18.056  25.999   0.420
60197W        W21651  44.382  29.963  13.991
60198W        W21652  17.149   1.917   4.223
60199W        W21653   0.352  19.106  13.408
60200W        W21654  22.505  19.718  10.504
60201W        W21655  31.902  41.996   1.807
60202W        W21656  27.185  22.722   5.084
60203W        W21657  15.298  30.911   2.182
60204W        W21658  37.505  29.031   0.806
60205W        W21659   9.755  21.238   4.696
60206W        W21660  41.431  29.042  13.432
60207W        W21661  20.112  38.405   4.834
60208W        W21662  20.629  34.506   1.731
60209W        W21663  31.954  36.490   2.839
60210W        W21664  22.252  34.448  11.522
60211W        W21665  30.100  38.930  11.091
60212W        W21666  38.568  19.187   1.822
60213W        W21667  29.557   9.295  13.445
60214W        W21668  25.166   2.818   4.312
60215W        W21669  23.706   0.434  11.594
60216W        W21670  11.758  36.851  12.982
60217W        W21671   2.270  41.016   0.459
60218W        W21672  38.379  32.057  14.973
60219W        W21673   9.696  37.533   2.195
60220W        W21674  35.487  20.089   2.693
60221W        W21675  12.327  19.540   0.815
60222W        W21676  31.629   9.862  11.117
60223W        W21677  20.243  15.585   1.859
60224W        W21678  34.051  24.702  12.445
60225W        W21679  44.767   2.781   0.790
60226W        W21680  33.962   2.834   0.282
60227W        W21681  33.883  43.324   0.873
60228W        W21682  25.645  15.750   4.133
60229W        W21683  20.201   1.372  14.309
60230W        W21684   3.402  27.136  14.851
60231W        W21685  34.868   8.762   3.657
60232W        W21686  10.823  38.395  13.035
60233W        W21687   7.666  35.089   0.458
60234W        W21688   0.360  20.632  12.907
60235W        W21689  32.903  42.358  12.521
60236W        W21690   7.787   0.876   3.358
60237W        W21691   0.966  40.307   2.216
60238W        W21692  19.216  39.494   4.613
60239W        W21693   5.322   0.414   1.862
60240W        W21694  19.273  11.661  11.609
60241W        W21695  36.980  21.724  13.902
60242W        W21696  25.521  39.479  10.931
60243W        W21697   4.373  41.003  13.416
60244W        W21698  40.000   0.863   2.251
60245W        W21699   7.668  40.897  14.438
60246W        W21700  15.329   2.417   0.809
60247W        W21701  11.281  13.261  12.941
60248W        W21702  16.237  38.518  12.551
60249W        W21703   6.374  35.108  14.347
60250W        W21704  40.461  38.466   0.351
60251W        W21705   9.377  27.619  10.988
60252W        W21706  34.585  41.400   1.228
60253W        W21707  16.654  32.995   2.302
60254W        W21708  40.053  32.549   1.817
60255W        W21709  24.585   0.453   3.701
60256W        W21710  11.789  41.527  12.828
60257W        W21711  30.911   2.893   1.345
60258W        W21712   2.251  37.072  11.492
60259W        W21713  38.564  15.786   3.859
60260W        W21714  43.446   5.265   4.342
60261W        W21715   4.427  29.921  12.423
60262W        W21716  36.580  24.096   2.858
60263W        W21717  16.081  37.978   3.333
60264W        W21718  18.688   1.238  12.053
60265W        W21719  32.063   5.232  13.486
60266W        W21720   3.796   2.291   0.296
60267W        W21721  35.097  29.159   2.670
60268W        W21722  42.813   2.855  12.066
60269W        W21723  14.627   3.349   1.290
60270W        W21724  16.581  22.243   2.416
60271W        W21725  32.977   8.696  12.358
60272W        W21726  41.855  21.553  11.027
60273W        W21727   0.465   2.847   0.475
60274W        W21728  16.251  39.014  11.380
60275W        W21729  34.950  14.639  12.361
60276W        W21730   5.927  27.538   3.657
60277W        W21731   8.339  29.119   2.363
60278W        W21732   4.793   2.468  13.864
60279W        W21733  27.049  36.912  13.509
60280W        W21734  42.501  14.221   4.744
60281W        W21735  15.665  40.011   1.807
60282W        W21736  36.026  24.599   1.712
60283W        W21737   7.398  29.569   4.138
60284W        W21738   2.732   5.436   3.762
60285W        W21739  13.288  41.018   1.312
60286W        W21740   8.741  34.048   5.207
60287W        W21741  11.812  35.519   9.956
60288W        W21742   4.745  36.414  13.499
60289W        W21743  28.166  14.732  11.580
60290W        W21744   8.760  22.221  11.442
60291W        W21745  41.437   1.806   2.219
60292W        W21746   4.229  14.714  11.609
60293W        W21747  23.060   4.428  11.440
60294W        W21748  12.686  41.385  11.543
60295W        W21749  19.129   7.885   1.446
60296W        W21750  27.166   6.332  10.639
60297W        W21751  20.172  29.978  12.428
60298W        W21752  31.949  43.358   2.388
60299W        W21753   4.290   3.305   2.197
60300W        W21754  28.518  37.542  13.452
60301W        W21755  21.747  22.040  14.276
60302W        W21756  43.867  23.196   0.953
60303W        W21757   6.752  24.621   0.267
60304W        W21758  34.399  39.872   0.888
60305W        W21759  18.081  29.508   0.965
60306W        W21760  14.327  14.279  10.903
60307W        W21761  29.641  16.657   0.475
60308W        W21762   1.794  11.778  14.824
60309W        W21763  19.773  39.924  14.814
60310W        W21764  19.745   2.297  14.386
60311W        W21765  14.693  41.928   3.860
60312W        W21766   5.821  33.985   0.804
60313W        W21767  38.378   4.380   3.175
60314W        W21768   8.236  20.547  12.876
60315W        W21769  26.152  18.283  14.018
60316W        W21770  17.061   6.200   3.170
60317W        W21771  24.504  21.240  10.446
60318W        W21772  44.402  11.666  13.504
60319W        W21773  41.377  25.508  13.806
60320W        W21774  37.933  12.675   0.365
60321W        W21775  11.706  42.841  13.478
60322W        W21776  29.552  39.987   0.857
60323W        W21777  12.128  27.059  14.771
60324W        W21778   9.870   9.669   4.609
60325W        W21779  34.392  23.040   4.739
60326W        W21780   8.284  23.027  12.985
60327W        W21781  10.690  26.192  11.437
60328W        W21782   0.970  42.422   2.300
60329W        W21783  31.957  19.050   3.804
60330W        W21784  20.126  33.112  12.076
60331W        W21785  29.587  42.300   1.238
60332W        W21786  31.070  18.571   2.789
60333W        W21787   8.789  38.518   2.856
60334W        W21788  12.682  30.987  12.841
60335W        W21789   2.382   8.804   0.785
60336W        W21790   3.277  11.179   0.455
60337W        W21791   0.770  34.913  14.465
60338W        W21792  41.968   2.823  10.575
60339W        W21793  14.267   8.719  10.542
60340W        W21794  20.236  18.606  12.458
60341W        W21795  33.108  34.540  13.054
60342W        W21796  31.595  34.384   2.210
60343W        W21797  24.490   4.268  14.338
60344W        W21798  20.224  27.962   3.378
60345W        W21799  17.765  27.613  11.087
60346W        W21800  17.079   2.295   4.760
60347W        W21801   9.383   5.830   4.807
60348W        W21802  16.791  11.721  11.884
60349W        W21803  23.620  15.684   0.788
60350W        W21804  41.799  12.755  14.960
60351W        W21805  38.455   0.883   0.460
60352W        W21806  15.253  32.392   4.262
60353W        W21807   9.650   6.839   0.730
60354W        W21808  29.138  23.067  13.026
60355W        W21809  20.641  22.145  10.941
60356W        W21810  43.909  21.560  13.043
60357W        W21811  41.439  35.524  13.887
60358W        W21812  38.359  43.478  14.452
60359W        W21813   9.250  25.212  13.855
60360W        W21814  31.529  33.003  10.141
60361W        W21815  14.765  16.808  14.508
60362W        W21816  44.500  44.446   1.920
60363W        W21817  28.104  32.442   1.917
60364W        W21818  38.438  35.083   0.953
60365W        W21819  41.986  36.885   3.854
60366W        W21820   5.849  39.839  10.958
60367W        W21821  23.144   0.351   4.803
60368W        W21822  16.693  10.344  11.399
60369W        W21823  32.920   6.887  10.639
60370W        W21824  35.998   2.332  14.023
60371W        W21825  35.065  17.563  14.277
60372W        W21826  21.042  34.981  13.913
60373W        W21827   4.941  44.336   1.265
60374W        W21828  19.044  19.071   2.726
60375W        W21829  21.675   5.277  10.641
60376W        W21830  36.926  34.524  12.406
60377W        W21831  31.102  41.320   3.301
60378W        W21832  12.297  24.008   1.360
60379W        W21833  31.929  28.954   2.805
60380W        W21834   6.760  10.181  12.016
60381W        W21835  16.602  15.803   1.242
60382W        W21836  24.563  40.480  13.517
60383W        W21837  37.371   6.268   3.372
60384W        W21838  10.276  31.128  11.516
60385W        W21839  32.001  17.180  14.336
60386W        W21840  17.303  23.610  13.511
60387W        W21841  30.964  27.683  13.428
60388W        W21842  33.889  25.056   3.655
60389W        W21843  13.813  41.912  14.777
60390W        W21844  33.901  26.516   4.683
60391W        W21845  15.305   4.931  11.593
60392W        W21846  36.384  43.410   3.694
60393W        W21847  42.030  11.265   0.830
60394W        W21848  33.484   1.303  12.075
60395W        W21849  21.033  44.353  12.437
60396W        W21850  26.068  17.695  10.951
60397W        W21851   6.248   7.295   5.294
60398W        W21852  37.522  32.119   2.181
60399W        W21853   4.794  31.954  11.459
60400W        W21854  15.650  29.503   3.211
60401W        W21855   5.344  36.430  12.487
60402W        W21856  24.977  23.182  14.503
60403W        W21857   2.453  36.959  10.916
60404W        W21858  33.502  42.992  10.160
60405W        W21859  14.101  29.112   0.789
60406W        W21860  36.516  27.076   4.236
60407W        W21861  19.118  26.521   4.129
60408W        W21862  22.690  23.149   2.695
60409W        W21863  11.732  43.315   0.929
60410W        W21864  37.396  18.144  14.464
60411W        W21865  35.041  20.547  12.397
60412W        W21866  38.890  19.274   2.765
60413W        W21867  41.915   6.209   4.726
60414W        W21868  31.978  31.993   4.331
60415W        W21869  17.759  20.272   3.841
60416W        W21870  20.153   9.320   0.428
60417W        W21871  29.962  44.392   2.231
60418W        W21872  26.122   2.863   4.142
60419W        W21873  38.326  44.504   0.447
60420W        W21874  18.186  12.849   1.231
60421W        W21875  37.396  33.390   4.816
60422W        W21876  37.938  15.819  13.933
60423W        W21877   2.255  30.049  11.396
60424W        W21878  35.547  36.872   4.286
60425W        W21879   7.287  38.965   2.266
60426W        W21880  29.522  34.400  10.497
60427W        W21881   2.431   7.794   4.827
60428W        W21882  10.699  30.937   1.828
60429W        W21883  14.730   3.413  14.380
60430W        W21884  43.994  31.459  12.923
60431W        W21885  35.082  26.690   4.675
60432W        W21886  27.594  23.524   2.229
60433W        W21887   6.737  13.231  11.102
60434W        W21888  34.559  20.595  11.979
60435W        W21889  37.562  31.929  14.003
60436W        W21890   5.392  14.240  11.423
60437W        W21891  18.098   7.211  11.901
60438W        W21892  44.878  19.213   3.791
60439W        W21893  20.688  43.270  14.403
60440W        W21894  21.694   4.339  14.357
60441W        W21895  26.526  27.080   0.458
60442W        W21896  33.517   2.414   1.892
60443W        W21897  29.937   8.897   9.593
60444W        W21898   5.928  39.518   1.418
60445W        W21899  36.548   6.833  13.005
60446W        W21900  20.647  26.494   0.734
60447W        W21901  26.636  28.051   0.832
60448W        W21902  25.124  28.489   4.192
60449W        W21903  25.980  24.508   2.767
60450W        W21904  36.379  40.902  14.407
60451W        W21905  30.103  40.807   3.838
60452W        W21906  21.569  12.680   2.892
60453W        W21907  20.733  14.732  10.567
60454W        W21908  16.620  19.545   0.315
60455W        W21909  36.563   7.335  10.412
60456W        W21910  33.558  28.594   4.121
60457W        W21911   2.875  27.539  13.846
60458W        W21912   5.929  26.578  10.924
60459W        W21913  14.662  17.196   2.407
60460W        W21914  27.603  23.569   2.719
60461W        W21915  35.368  21.684  13.801
60462W        W21916  30.621   8.294  10.983
60463W        W21917  26.044  30.497  13.369
60464W        W21918   7.847   8.300  14.851
60465W        W21919  43.778   9.729   0.444
60466W        W21920  25.531   1.871  14.513
60467W        W21921  35.496  33.000   1.440
60468W        W21922   1.480  10.666  11.995
60469W        W21923   7.300  33.523   0.727
60470W        W21924  29.151  36.961   0.293
60471W        W21925  39.360   1.372   4.680
60472W        W21926  34.088  22.667  10.960
60473W        W21927  30.952  29.601   0.768
60474W        W21928   3.294  35.913  11.869
60475W        W21929   6.768   2.366  10.973
60476W        W21930  32.563  32.035   4.218
60477W        W21931  22.723  10.247  14.800
60478W        W21932  33.902   4.225  11.588
60479W        W21933  34.046  43.331   4.779
60480W        W21934  28.080  29.118  10.494
60481W        W21935  34.902  37.355   4.115
60482W        W21936  12.650  21.100  10.636
60483W        W21937  18.209  13.676  14.516
60484W        W21938   4.431  31.628  11.044
60485W        W21939   5.272  28.970  10.428
60486W        W21940  31.993  38.952  13.929
60487W        W21941  23.690   6.697   4.826
60488W        W21942  16.797   3.264   3.213
60489W        W21943  35.008  27.016  14.448
60490W        W21944   5.413  24.161   1.896
60491W        W21945  43.962   7.266   4.622
60492W        W21946  18.116   7.240  14.760
60493W        W21947   2.250  14.801   2.298
60494W        W21948  16.310  38.985   1.851
60495W        W21949  40.496  10.848  11.042
60496W        W21950  11.827  34.938  13.464
60497W        W21951  15.109  10.240  11.045
60498W        W21952  37.568  26.194   3.803
60499W        W21953  26.514  15.648   2.728
60500W        W21954  25.706  10.716  11.008
60501W        W21955  13.130  22.222  14.360
60502W        W21956   3.811  13.791   1.250
60503W        W21957   7.694  42.463   0.748
60504W        W21958   6.809  44.308   2.400
60505W        W21959  19.153  36.923  12.577
60506W        W21960   1.745  33.963   2.867
60507W        W21961  31.933  19.534   2.357
60508W        W21962  33.559  20.752  13.354
60509W        W21963  31.526  29.156   4.344
60510W        W21964  17.136   8.719   0.906
60511W        W21965  17.073  19.214   3.184
60512W        W21966  37.055  31.410   3.297
60513W        W21967  30.910  43.380   4.684
60514W        W21968   3.942   1.743  11.876
60515W        W21969  18.639  41.482   3.754
60516W        W21970  17.663   0.898  14.453
60517W        W21971  43.768  10.858  11.911
60518W        W21972  34.021  21.581  14.810
60519W        W21973   9.872   8.663   2.876
60520W        W21974  36.046   3.451  14.391
60521W        W21975  30.425   2.927  10.918
60522W        W21976  20.212  29.057  13.993
60523W        W21977  14.257  30.514  10.056
60524W        W21978  35.080   5.231  10.976
60525W        W21979  42.883   6.835  11.037
60526W        W21980  11.247  21.134   0.277
60527W        W21981   2.323  39.522   4.755
60528W        W21982  30.943  30.932   0.779
60529W        W21983  30.606  37.952  14.492
60530W        W21984  36.974   5.812  11.526
60531W        W21985  10.833  42.011  13.400
60532W        W21986  26.130   6.333   0.780
60533W        W21987  28.569  41.409   0.474
60534W        W21988  26.107  31.526   1.212
60535W        W21989  18.143  39.425  13.335
60536W        W21990  34.571  34.408  12.377
60537W        W21991   5.831   8.236   2.306
60538W        W21992  23.702   7.361  11.395
60539W        W21993  16.229  17.670   1.804
60540W        W21994  27.621   5.253   5.680
60541W        W21995  33.477   6.684   4.278
60542W        W21996   6.248  41.853   3.183
60543W        W21997   6.879  32.552  12.359
60544W        W21998  39.900   7.891   1.901
60545W        W21999  14.319  38.404  14.923
60546W        W22000  13.188  33.402  11.112
60547W        W22001  17.237  23.604   1.751
60548W        W22002  31.404   5.869   4.805
60549W        W22003  36.996  15.319  12.947
60550W        W22004   7.681  27.955  12.523
60551W        W22005   6.856  43.790   0.817
60552W        W22006  12.701  32.513  12.829
60553W        W22007  43.773   6.191   4.683
60554W        W22008  18.693  22.152   2.874
60555W        W22009  37.431   6.690  14.946
60556W        W22010  11.308  38.486   4.733
60557W        W22011  31.914  26.133  13.484
60558W        W22012  24.695  19.162  14.416
60559W        W22013  31.907  33.541   2.249
60560W        W22014  19.541  44.763  11.028
60561W        W22015   0.473  14.176   2.744
60562W        W22016   3.248   2.471  12.385
60563W        W22017  15.598  33.005  11.028
60564W        W22018  37.035  22.016   4.300
60565W        W22019  29.649  39.830  14.300
60566W        W22020  28.113  38.897  12.834
60567W        W22021  41.420   9.718   0.777
60568W        W22022  35.464  18.208  14.312
60569W        W22023  41.416  17.074  11.571
60570W        W22024  19.654  34.884   1.225
60571W        W22025  17.789   3.781  12.909
60572W        W22026   5.830  14.267  13.366
60573W        W22027   2.750  27.487   0.258
60574W        W22028   6.420  34.090   3.356
60575W        W22029  37.073  34.910   4.343
60576W        W22030  19.582  13.205   0.289
60577W        W22031  13.794  26.547   9.987
60578W        W22032  27.172  11.200  11.024
60579W        W22033  11.832  33.983   2.265
60580W        W22034   3.353   1.815  13.919
60581W        W22035  42.900  26.588  11.035
60582W        W22036  43.308  28.948  11.939
60583W        W22037  12.140   4.264   1.443
60584W        W22038   2.426  40.820  11.470
60585W        W22039  36.951  36.090  14.940
60586W        W22040  44.360   3.849   2.781
60587W        W22041   2.280  32.621  11.963
60588W        W22042  33.972  36.958  12.987
60589W        W22043  23.722  10.685  11.473
60590W        W22044  40.000  44.818  12.551
60591W        W22045  36.964   2.442   1.776
60592W        W22046  23.035  15.241   1.220
60593W        W22047  20.736  31.023  11.068
60594W        W22048   7.902  38.547   1.376
60595W        W22049  27.598  22.084  14.991
60596W        W22050  19.119  28.044  14.886
60597W        W22051  27.970   0.806   0.370
60598W        W22052   8.800  35.560   4.685
60599W        W22053  19.260   3.717   3.850
60600W        W22054  19.255   2.795   0.295
60601W        W22055  28.147  20.066  13.514
60602W        W22056  13.770   0.469  11.961
60603W        W22057  40.899  16.598  14.937
60604W        W22058   8.197  11.260   1.226
60605W        W22059  38.901  35.072   4.620
60606W        W22060   4.875  19.253   4.129
60607W        W22061  32.422  28.475  13.951
60608W        W22062  36.492  14.680   1.352
60609W        W22063  44.290  27.663  13.957
60610W        W22064  10.633  16.086  13.840
60611W        W22065  12.328  35.097  11.420
60612W        W22066   0.893  29.470  14.424
60613W        W22067  27.687   5.331  12.411
60614W        W22068  19.595   7.908   2.299
60615W        W22069   2.257  27.070   2.891
60616W        W22070  26.194  40.883  12.996
60617W        W22071  12.209  43.879  14.859
60618W        W22072  26.112  15.239  11.934
60619W        W22073  34.611   9.194  10.552
60620W        W22074   3.246  28.992   4.297
60621W        W22075  26.129  28.966  11.395
60622W        W22076  13.345   4.933   3.325
60623W        W22077  17.787  13.692  11.040
60624W        W22078  37.552  44.440  14.827
60625W        W22079  17.078  40.896  10.056
60626W        W22080   9.223   5.269  12.072
60627W        W22081  26.568  42.426   2.762
60628W        W22082  35.008  34.896   1.340
60629W        W22083  40.829  33.030  11.398
60630W        W22084  37.512   0.861   1.408
60631W        W22085  42.422  34.564   2.800
60632W        W22086  24.723  33.452  14.891
60633W        W22087   0.871  40.008   2.267
60634W        W22088  20.239  44.942   3.717
60635W        W22089   4.326  23.005   3.286
60636W        W22090   6.221  41.906   0.828
60637W        W22091  24.600  16.176  11.112
60638W        W22092  31.588  37.084  11.398
60639W        W22093   7.258  14.178   1.379
60640W        W22094  30.072  11.746  11.436
60641W        W22095  15.586  20.129  13.899
60642W        W22096  42.834  25.492   0.342
60643W        W22097  28.591   2.752  11.399
60644W        W22098  38.929   9.800  11.572
60645W        W22099  18.091  19.662   3.750
60646W        W22100   2.927  18.202  14.950
60647W        W22101   5.321  36.089   0.450
60648W        W22102  31.580  22.103   1.917
60649W        W22103  23.645  36.096  11.915
60650W        W22104  30.510  11.740   4.342
60651W        W22105  31.062  10.683   5.658
60652W        W22106  35.541   5.769   4.169
60653W        W22107  18.590  26.040  11.039
60654W        W22108  24.116  14.220  12.339
60655W        W22109  41.532   4.265   3.364
60656W        W22110  22.059  24.231  14.367
60657W        W22111  17.170   9.172   1.809
60658W        W22112  26.596  24.195   3.321
60659W        W22113  26.994  17.269  12.356
60660W        W22114  44.985  40.930   1.794
60661W        W22115  42.850   4.932   3.726
60662W        W22116  16.262  40.039  10.904
60663W        W22117  30.157  16.281   0.948
60664W        W22118   1.280  39.896  12.399
60665W        W22119  26.584  28.445   1.819
60666W        W22120   4.430  32.922  13.534
60667W        W22121  28.519  18.166   4.346
60668W        W22122  13.341   1.352   3.341
60669W        W22123  30.475  37.063  12.370
60670W        W22124  16.730  22.229   0.337
60671W        W22125   6.797   7.323  12.351
60672W        W22126  38.011  14.274   2.205
60673W        W22127  30.617  39.852  12.576
60674W        W22128  36.420   6.289  14.768
60675W        W22129  31.114  20.532   3.352
60676W        W22130  37.019  19.565   4.683
60677W        W22131  27.947  27.661  11.543
60678W        W22132  11.299  30.114  14.413
60679W        W22133  30.017  37.044  10.947
60680W        W22134  14.236   2.734   1.907
60681W        W22135  20.132  38.060   3.645
60682W        W22136   6.398  42.329   4.823
60683W        W22137  32.117   8.274  11.520
60684W        W22138  11.332  11.225  12.089
60685W        W22139  32.484  17.177   3.273
60686W        W22140  41.957  35.535   1.370
60687W        W22141  23.106   5.224   1.925
60688W        W22142  18.666  44.819   0.322
60689W        W22143  43.786  25.657  14.512
60690W        W22144  24.618  30.461  11.592
60691W        W22145   8.233  17.084   1.287
60692W        W22146  33.415  37.536  10.105
60693W        W22147  36.436  20.232   2.676
60694W        W22148  35.574  41.529  13.471
60695W        W22149  25.050  30.110  14.339
60696W        W22150  21.550   6.871   3.380
60697W        W22151  11.309  20.149   1.325
60698W        W22152  13.199   1.886  14.836
60699W        W22153  15.793  19.177  12.363
60700W        W22154  35.992  40.455   4.726
60701W        W22155  35.951   4.792  10.910
60702W        W22156  38.057  25.035   0.947
60703W        W22157  23.624  27.618  12.503
60704W        W22158  13.311  28.131  12.466
60705W        W22159  28.454  38.443   4.180
60706W        W22160  22.623  42.987  14.367
60707W        W22161  30.563   8.685  14.903
60708W        W22162  14.209  37.429  11.056
60709W        W22163  40.546  19.541  11.421
60710W        W22164  14.597   1.403  11.560
60711W        W22165  16.697   5.769  11.503
60712W        W22166   4.806  26.138  10.909
60713W        W22167   4.343  22.200   1.935
60714W        W22168  12.210  34.005  13.828
60715W        W22169   8.705  21.108  12.530
60716W        W22170  11.127  12.772  14.026
60717W        W22171  31.091  34.438  11.507
60718W        W22172  44.313  17.304   0.318
60719W        W22173  27.460  24.525   0.474
60720W        W22174  39.054  13.619  13.309
60721W        W22175   9.270  32.454  10.582
60722W        W22176   9.727   3.271   3.702
60723W        W22177  28.631  39.850  11.543
60724W        W22178  25.169  16.244  13.997
60725W        W22179   2.329  30.044   0.825
60726W        W22180  30.469  13.688  13.886
60727W        W22181   4.823  40.853  11.592
60728W        W22182  11.236  44.470   1.381
60729W        W22183  20.551   3.359   2.849
60730W        W22184  24.163  35.913  10.045
60731W        W22185  35.367  29.936   0.349
60732W        W22186  35.503  11.143   4.139
60733W        W22187  34.418  21.086   4.172
60734W        W22188  10.225   4.206   0.893
60735W        W22189  38.903  22.246  10.602
60736W        W22190  12.301  13.737   3.828
60737W        W22191  12.813   7.193   0.904
60738W        W22192   7.214  19.092   1.822
60739W        W22193  41.424  42.506  14.346
60740W        W22194  10.253  12.705  12.035
60741W        W22195  30.427  35.449  14.865
60742W        W22196  25.554  35.464   3.306
60743W        W22197  15.639  34.984   2.866
60744W        W22198   8.168   1.740  14.814
60745W        W22199  18.224  22.083  12.574
60746W        W22200  22.580  40.490  11.385
60747W        W22201  10.743  31.056  12.438
60748W        W22202  11.269  15.704   3.244
60749W        W22203   9.315  20.034   3.372
60750W        W22204  40.853  28.078   3.228
60751W        W22205   8.230  35.879   4.310
60752W        W22206  27.447  26.476   3.732
60753W        W22207  40.511  30.149  13.515
60754W        W22208  20.638  23.147  13.408
60755W        W22209   9.208  36.855  12.996
60756W        W22210   4.901  16.785  14.805
60757W        W22211  22.010  40.498   0.472
60758W        W22212  30.915  27.117   3.176
60759W        W22213  17.598  38.492   0.814
60760W        W22214  15.127  28.671   2.383
60761W        W22215  12.284  42.432  12.341
60762W        W22216  12.162  28.095  13.400
60763W        W22217  33.480  42.907  13.797
60764W        W22218   6.823  44.991  12.368
60765W        W22219  13.317   8.320  11.116
60766W        W22220  36.544  18.123   3.859
60767W        W22221   1.286  41.932  11.880
60768W        W22222  27.503   5.818  14.008
60769W        W22223  35.576   9.181  10.580
60770W        W22224  14.593  40.521   0.843
60771W        W22225  43.851  40.370   4.625
60772W        W22226   5.325   6.909  10.497
60773W        W22227   6.759  14.785  14.921
60774W        W22228   8.757  24.717   1.274
60775W        W22229  42.388   7.184  12.878
60776W        W22230  18.609  29.964  13.808
60777W        W22231  32.061  30.476   2.895
60778W        W22232  13.647  10.685   0.340
60779W        W22233  31.596  33.585  11.097
60780W        W22234  33.547  43.912  12.397
60781W        W22235  22.203  26.154  13.924
60782W        W22236  40.492  30.069   0.777
60783W        W22237  33.383  18.639  14.514
60784W        W22238  37.576  17.645   1.837
60785W        W22239  26.999  29.947   4.289
60786W        W22240  24.027  37.999  13.415
60787W        W22241   9.364  36.566   2.341
60788W        W22242  30.010  25.528  11.118
60789W        W22243  34.997  14.222  14.339
60790W        W22244  39.038  23.234  10.562
60791W        W22245  25.541  12.660   3.342
60792W        W22246  20.641  32.066  12.372
60793W        W22247  29.615   5.260   2.291
60794W        W22248  35.021  39.059  12.879
60795W        W22249  34.927  35.953  12.984
60796W        W22250  22.204  23.173   1.246
60797W        W22251  42.318  20.159   0.270
60798W        W22252   6.367  44.281  12.902
60799W        W22253  28.467   3.269   1.889
60800W        W22254  18.081  39.918   2.703
60801W        W22255  41.823  41.337  12.457
60802W        W22256  14.713  33.877  10.411
60803W        W22257  22.123  22.628   1.251
60804W        W22258  40.495  21.676   4.208
60805W        W22259   0.768   3.359   3.259
60806W        W22260  14.794  30.580   2.713
60807W        W22261  33.979  16.604   2.250
60808W        W22262  24.546  31.538   4.665
60809W        W22263  38.419   1.734   3.332
60810W        W22264  27.955  41.441   3.765
60811W        W22265  28.644  29.163   4.673
60812W        W22266  33.909  39.543  11.921
60813W        W22267  17.164  19.191  14.372
60814W        W22268  38.979  25.215   4.716
60815W        W22269  39.973  41.376  12.087
60816W        W22270  26.535   7.824  14.281
60817W        W22271  34.007   2.305   0.777
60818W        W22272  18.760  32.113   1.339
60819W        W22273   0.450  37.044   3.829
60820W        W22274  29.175  20.600   4.152
60821W        W22275  12.153  10.331  11.520
60822W        W22276  16.134  27.656  11.397
60823W        W22277  23.603   5.872   3.810
60824W        W22278  37.007  11.644  12.922
60825W        W22279  10.318  32.031  12.901
60826W        W22280  23.711  31.587   4.250
60827W        W22281  34.612  43.921   4.285
60828W        W22282  16.567   3.236  13.455
60829W        W22283  30.952   2.756   2.236
60830W        W22284   4.420  22.015  14.879
60831W        W22285  43.782   4.890   1.819
60832W        W22286  39.334   0.866  12.977
60833W        W22287  31.512  33.576   0.345
60834W        W22288  28.490  30.604  13.537
60835W        W22289  27.686   8.823   3.261
60836W        W22290  39.457  42.988  12.527
60837W        W22291  22.142  19.062  12.880
60838W        W22292  39.022  13.256  13.518
60839W        W22293  38.373  43.822   4.124
60840W        W22294  26.201   3.219   0.752
60841W        W22295  20.263  41.934   2.269
60842W        W22296  43.287  23.149   0.948
60843W        W22297  38.832  22.539   1.361
60844W        W22298  12.654  22.634  14.901
60845W        W22299  37.035   3.372  11.956
60846W        W22300  32.467  12.157   0.366
60847W        W22301  16.583   9.748  10.942
60848W        W22302  32.120   6.378  14.976
60849W        W22303  19.055  13.238  12.406
60850W        W22304  11.281  40.827  10.888
60851W        W22305  39.913  38.845   1.872
60852W        W22306  12.132  42.899   3.329
60853W        W22307   7.766   0.977  10.076
60854W        W22308   1.738  38.825  12.056
60855W        W22309   5.388  25.508  14.464
60856W        W22310   2.825  13.600   2.349
60857W        W22311  41.358   1.245   4.764
60858W        W22312  17.598   5.741  11.391
60859W        W22313   4.803   5.333   0.828
60860W        W22314  31.454  37.525  10.945
60861W        W22315  12.662  32.593   3.644
60862W        W22316  23.614  23.629   3.180
60863W        W22317  42.990   7.263   1.840
60864W        W22318   0.869  43.905   1.270
60865W        W22319  20.072  16.203  13.035
60866W        W22320  22.542  24.647   3.236
60867W        W22321  17.280  20.693   4.264
60868W        W22322  30.997  19.594  14.845
60869W        W22323  40.858  20.663   0.781
60870W        W22324   8.765  15.099  11.445
60871W        W22325   1.787   6.306   4.808
60872W        W22326  43.912  11.686   2.730
60873W        W22327  16.289  20.227  11.118
60874W        W22328  24.673  44.451   1.400
60875W        W22329  24.074  23.691   0.291
60876W        W22330  31.133  21.073  14.474
60877W        W22331   8.285  40.992  10.609
60878W        W22332  18.684  34.023  10.909
60879W        W22333   4.733  34.393  10.625
60880W        W22334  11.760   8.745   3.288
60881W        W22335  29.964  39.011   3.691
60882W        W22336  14.106   9.323  11.610
60883W        W22337  26.559  41.908   5.194
60884W        W22338  32.579  20.046   0.840
60885W        W22339  12.259   8.316   2.304
60886W        W22340  14.669  11.679   2.277
60887W        W22341  11.251  25.508   0.829
60888W        W22342  18.131  10.328  13.349
60889W        W22343  12.680  24.487  14.917
60890W        W22344  44.879   5.307  12.062
60891W        W22345  27.944  15.162   1.913
60892W        W22346  13.127  16.730  11.374
60893W        W22347  32.513  18.272   1.316
60894W        W22348   4.435  15.580  13.977
60895W        W22349  16.634  41.038   5.627
60896W        W22350  39.881  37.037   1.398
60897W        W22351  13.116  44.413   2.209
60898W        W22352  25.678   0.462   4.660
60899W        W22353  26.003  20.138   3.370
60900W        W22354   9.314  23.519   3.861
60901W        W22355  12.241   8.714   4.621
60902W        W22356   7.821  23.231  14.950
60903W        W22357  34.887   3.360  13.798
60904W        W22358  44.438  17.215  12.459
60905W        W22359   9.852  15.166  12.547
60906W        W22360  38.481  22.626   3.202
60907W        W22361  22.639  20.218  12.935
60908W        W22362  30.909   7.834  13.802
60909W        W22363  22.556   6.357  10.545
60910W        W22364  31.954  28.517   4.604
60911W        W22365   3.387  26.549   4.758
60912W        W22366  12.153  41.910   0.742
60913W        W22367  23.635  42.884   3.297
60914W        W22368   0.878  22.196  11.033
60915W        W22369  25.506  39.996  12.864
60916W        W22370  22.662   8.211  13.836
60917W        W22371  19.723  13.248  14.000
60918W        W22372  29.147  10.156   1.710
60919W        W22373  37.034  36.007  14.493
60920W        W22374  26.024  36.473   0.244
60921W        W22375  26.682  34.990  10.588
60922W        W22376   8.856  24.202   1.716
60923W        W22377   8.707  16.242   3.356
60924W        W22378  41.348  44.918  13.885
60925W        W22379  33.492  32.977   1.247
60926W        W22380  25.592  30.480  12.091
60927W        W22381  18.615  18.119   0.406
60928W        W22382  37.507  16.807  14.955
60929W        W22383   3.406   6.900  14.761
60930W        W22384  42.993  26.664  12.407
60931W        W22385  14.789  42.306   0.449
60932W        W22386  21.096  41.016   1.848
60933W        W22387  40.928   4.749   3.767
60934W        W22388   3.854  44.384  12.553
60935W        W22389   2.369  20.610   3.160
60936W        W22390  22.573  29.095   1.345
60937W        W22391  10.634  13.752  14.315
60938W        W22392  37.452  42.394  11.984
60939W        W22393  35.545  28.097  11.004
60940W        W22394  37.339  20.723   3.858
60941W        W22395  29.436  38.005  13.403
60942W        W22396   8.832  42.454  11.038
60943W        W22397  38.909   5.817  14.421
60944W        W22398  16.125  35.968  11.609
60945W        W22399  12.302  32.118  14.787
60946W        W22400  39.912   1.901  14.315
60947W        W22401  25.031   6.905   0.836
60948W        W22402  25.148  14.106  14.780
60949W        W22403   1.414  38.524  11.927
60950W        W22404  13.658  43.964   0.917
60951W        W22405  43.351   1.259  13.872
60952W        W22406  28.498  32.957  12.356
60953W        W22407  17.687  28.584  11.397
60954W        W22408   7.266  33.527  12.946
60955W        W22409  15.598   5.893  12.521
60956W        W22410  24.608   3.285   4.679
60957W        W22411  13.155  31.447   1.364
60958W        W22412  13.316  30.115  10.976
60959W        W22413  23.035   3.375  14.281
60960W        W22414  41.432   0.466   2.714
60961W        W22415  41.922   6.918   1.784
60962W        W22416  33.623  38.851   3.244
60963W        W22417  29.088   1.866   1.275
60964W        W22418  29.097  27.150   9.446
60965W        W22419  13.674  22.244   0.423
60966W        W22420  36.390  36.011   3.162
60967W        W22421   6.239  40.336  14.479
60968W        W22422   7.908  19.719  11.859
60969W        W22423  30.910  42.337  10.914
60970W        W22424  41.837  18.755   4.130
60971W        W22425  14.272  42.288   3.673
60972W        W22426  39.423  40.413  14.295
60973W        W22427  23.496   0.989  14.946
60974W        W22428  42.354  15.322  11.035
60975W        W22429  15.103  10.721   0.946
60976W        W22430  16.128  18.173   0.955
60977W        W22431   0.353  15.759   0.394
60978W        W22432  28.436   6.696  11.524
60979W        W22433  24.554  38.520   4.308
60980W        W22434  29.560  20.757   4.606
60981W        W22435   2.240  24.157   2.221
60982W        W22436   2.764  25.025  10.901
60983W        W22437  42.827   9.363  11.083
60984W        W22438   4.743   4.756   0.962
60985W        W22439  18.617   0.422  12.869
60986W        W22440  37.946  20.053   1.869
60987W        W22441   9.652  20.184  13.983
60988W        W22442  38.376  34.527  10.601
60989W        W22443  27.096   3.814  11.437
60990W        W22444  22.183  22.666  13.457
60991W        W22445  31.456  22.121   9.618
60992W        W22446   1.802  14.150  11.969
60993W        W22447  32.589  15.281  10.993
60994W        W22448  25.504  41.520  12.432
60995W        W22449  31.074  27.581   1.334
60996W        W22450  35.035  26.506   5.311
60997W        W22451   2.774   3.789  11.875
60998W        W22452  38.988  18.196  13.487
60999W        W22453  42.331  21.194  11.554
61000W        W22454  10.747  32.559   0.882
61001W        W22455  41.299  16.753   3.646
61002W        W22456  12.356  35.878  14.997
61003W        W22457  44.805  33.555  13.939
61004W        W22458  29.599  33.608   0.846
61005W        W22459  22.627   0.447   4.724
61006W        W22460  10.335  31.917  12.536
61007W        W22461  24.522  30.492  12.529
61008W        W22462  11.642   7.189   4.120
61009W        W22463  21.650  14.778  10.609
61010W        W22464   4.816  17.584   3.275
61011W        W22465  44.004  29.539   1.699
61012W        W22466  26.458   6.852   2.679
61013W        W22467  13.288  12.630   0.773
61014W        W22468   0.372   3.951  13.981
61015W        W22469  13.267  31.951  11.936
61016W        W22470  37.395  44.006   2.817
61017W        W22471  23.660   3.452  11.026
61018W        W22472  34.869  33.560  11.983
61019W        W22473  24.717  37.554  13.958
61020W        W22474  35.430  31.503  12.978
61021W        W22475  41.895  41.411   0.730
61022W        W22476  34.521  25.968  12.353
61023W        W22477  43.336   8.399  14.980
61024W        W22478  15.249  36.518   0.766
61025W        W22479   9.255  38.385  12.482
61026W        W22480  15.642  40.348   5.610
61027W        W22481  42.377  30.480   1.404
61028W        W22482   8.292  37.373  11.582
61029W        W22483  27.468  40.797   1.378
61030W        W22484  24.623  32.594  11.493
61031W        W22485  34.510  18.635   4.204
61032W        W22486  33.936  43.482  12.468
61033W        W22487  23.139  15.204  11.937
61034W        W22488  29.652  24.616  13.957
61035W        W22489  20.594   8.834  14.970
61036W        W22490  44.838  34.412  13.982
61037W        W22491   6.348  36.022   3.801
61038W        W22492  33.982  43.952   1.264
61039W        W22493  15.820  32.633   1.932
61040W        W22494   9.678   5.392  10.563
61041W        W22495  16.765  37.552  12.477
61042W        W22496  37.060  25.121  14.391
61043W        W22497  42.805  20.242   3.362
61044W        W22498  37.493  23.543   3.767
61045W        W22499  20.708  36.920  13.879
61046W        W22500  33.431   9.874   0.942
61047W        W22501  17.723  15.722   4.277
61048W        W22502   2.276   1.960  11.110
61049W        W22503   1.400   6.784  12.375
61050W        W22504  29.614  24.608   9.528
61051W        W22505  11.821  25.646  12.860
61052W        W22506  12.201  37.964  13.019
61053W        W22507  44.505   8.265   4.131
61054W        W22508  14.175  12.682  13.881
61055W        W22509  30.622   5.401  11.386
61056W        W22510  39.841  13.654  12.389
61057W        W22511  26.014  27.047  11.601
61058W        W22512  31.149   3.739  13.033
61059W        W22513  13.162  29.936  10.557
61060W        W22514  17.597   3.713   0.904
61061W        W22515  43.923  40.476   3.670
61062W        W22516  10.282  15.757   0.877
61063W        W22517   8.741  35.875  12.978
61064W        W22518  44.459   7.393   4.191
61065W        W22519  29.491  33.395  11.404
61066W        W22520  32.009   5.370   3.745
61067W        W22521  29.614   0.861   0.927
61068W        W22522  40.390  17.565   1.315
61069W        W22523  38.367   6.255  11.052
61070W        W22524   7.229   7.871   4.311
61071W        W22525   5.816  12.158   0.908
61072W        W22526   7.356  44.964  14.884
61073W        W22527  25.490  32.906  12.876
61074W        W22528  19.101  33.027   1.701
61075W        W22529  25.491  32.542  13.472
61076W        W22530  24.168  34.392   0.827
61077W        W22531   4.378  18.290  13.541
61078W        W22532  27.679   0.877  10.999
61079W        W22533  15.601   3.244  12.529
61080W        W22534  23.100  18.090   2.206
61081W        W22535  13.173  23.194  14.868
61082W        W22536  23.720  21.129  13.955
61083W        W22537   5.351  41.333  14.474
61084W        W22538  14.138  41.908   1.838
61085W        W22539   4.380  39.044  10.598
61086W        W22540  36.512  32.017   0.798
61087W        W22541  19.605   2.292   0.429
61088W        W22542  23.014  19.172   3.683
61089W        W22543  43.472  40.367  10.591
61090W        W22544  37.866  13.808   4.811
61091W        W22545  33.430  39.862   2.725
61092W        W22546   5.334  28.544   4.775
61093W        W22547   7.685   6.425   3.651
61094W        W22548  11.694  16.578   0.395
61095W        W22549  17.607   4.238  10.503
61096W        W22550  44.319  15.109   2.676
61097W        W22551  10.145  41.828   3.200
61098W        W22552  15.793  37.364   3.728
61099W        W22553  25.126  24.997  11.471
61100W        W22554  13.845  21.080   1.808
61101W        W22555  17.177  33.492  12.067
61102W        W22556   3.449  20.616   2.884
61103W        W22557  14.756  33.023  14.908
61104W        W22558   0.461  39.534   3.256
61105W        W22559   8.830  13.800   0.940
61106W        W22560  31.969  23.218  14.382
61107W        W22561  18.074  22.614   2.857
61108W        W22562  36.959  36.369   4.624
61109W        W22563   1.944  35.391  12.062
61110W        W22564  23.684  35.394   2.264
61111W        W22565  34.610  35.457   1.737
61112W        W22566  30.984  10.246   1.778
61113W        W22567   3.723  44.763   2.661
61114W        W22568  39.979  28.478   3.165
61115W        W22569  29.029   7.766  12.906
61116W        W22570  19.535   7.871   0.437
61117W        W22571  28.016  19.608  14.293
61118W        W22572  22.123  42.286   4.258
61119W        W22573  15.170  18.786  14.814
61120W        W22574   7.174  39.318  12.392
61121W        W22575  18.765  36.459  13.831
61122W        W22576   0.428  34.371   0.366
61123W        W22577  41.496  14.129  13.541
61124W        W22578  42.922  33.995  10.579
61125W        W22579  30.482  24.694   5.285
61126W        W22580  23.109  23.719   4.806
61127W        W22581  18.246   7.790   1.856
61128W        W22582  43.786  41.909  13.403
61129W        W22583   1.837   4.339  11.863
61130W        W22584   7.889  39.372  11.395
61131W        W22585  44.900  42.455   2.198
61132W        W22586  44.967  34.882   2.868
61133W        W22587  33.934   8.347  13.481
61134W        W22588  16.310   2.240   4.353
61135W        W22589  14.237  22.202   0.886
61136W        W22590  33.382   5.258   0.455
61137W        W22591   5.742  33.110   1.710
61138W        W22592  34.439  12.262  13.513
61139W        W22593  12.713  14.240   1.261
61140W        W22594   9.172  22.242  10.927
61141W        W22595  32.553  24.710  13.387
61142W        W22596  25.119   7.223   2.727
61143W        W22597  21.628  32.935  14.818
61144W        W22598  27.664  19.761   1.821
61145W        W22599   8.167  28.034   2.310
61146W        W22600   2.256  42.984  12.572
61147W        W22601  21.540  28.615  10.447
61148W        W22602  26.627  39.922   4.662
61149W        W22603  21.656   4.839  11.017
61150W        W22604  14.104  17.595   2.858
61151W        W22605   0.381  40.431  14.343
61152W        W22606  11.249   4.395   4.241
61153W        W22607  15.307   5.703  13.931
61154W        W22608  17.683  10.355   3.849
61155W        W22609   0.398   5.746  13.823
61156W        W22610  32.433  24.151   2.823
61157W        W22611  33.903   2.307  11.548
61158W        W22612  33.929   7.405   1.794
61159W        W22613  11.767  26.523   4.678
61160W        W22614   7.786  12.695  13.511
61161W        W22615  13.255  24.641   3.263
61162W        W22616  18.065  11.704  11.521
61163W        W22617  23.713   9.195  13.051
61164W        W22618  43.959   1.292  10.472
61165W        W22619   4.935  14.763  13.895
61166W        W22620  10.169  34.521   2.769
61167W        W22621  19.253  11.160  14.796
61168W        W22622  34.441  21.139  11.435
61169W        W22623  10.312  24.052  11.394
61170W        W22624  19.701  39.837  11.580
61171W        W22625  32.612  26.136   2.292
61172W        W22626   1.384  30.992  12.344
61173W        W22627  34.574   3.826   2.240
61174W        W22628  44.789  11.736  12.477
61175W        W22629   6.296  38.838  10.461
61176W        W22630  34.402  22.019  14.492
61177W        W22631   2.244  19.267  10.439
61178W        W22632  32.558   3.293   4.642
61179W        W22633  22.584  33.509   0.472
61180W        W22634  25.178  22.721  13.365
61181W        W22635  21.100  10.666   1.216
61182W        W22636  14.211  42.313  13.439
61183W        W22637  28.589  28.107  10.925
61184W        W22638  20.064  34.601  12.834
61185W        W22639  30.940  26.150   2.384
61186W        W22640   6.803  37.375   2.835
61187W        W22641  36.433  13.802  12.872
61188W        W22642  27.185   0.756  10.575
61189W        W22643  25.998  23.576   2.201
61190W        W22644  23.180  38.326  14.907
61191W        W22645  10.239  25.633  14.852
61192W        W22646   2.889  16.704  14.951
61193W        W22647  10.721   4.944  13.326
61194W        W22648  32.426  16.660  12.407
61195W        W22649  21.756  27.672   2.246
61196W        W22650  33.033  14.119  11.885
61197W        W22651  40.993  11.229  10.590
61198W        W22652  12.714  33.575  14.442
61199W        W22653   9.319  34.072  13.925
61200W        W22654  27.158  25.081   3.308
61201W        W22655  11.794   1.267   4.322
61202W        W22656  40.426   2.879   1.384
61203W        W22657  29.056  19.610   4.172
61204W        W22658  31.002   9.314   3.146
61205W        W22659  34.606  42.958  12.563
61206W        W22660  26.673  21.124   3.822
61207W        W22661  14.274   9.872  13.477
61208W        W22662  16.232  15.146   0.893
61209W        W22663  26.196  17.161  10.956
61210W        W22664  37.929  35.964  11.076
61211W        W22665  44.932  18.735  10.905
61212W        W22666  12.713  38.896  14.847
61213W        W22667   4.435   0.336   2.287
61214W        W22668  39.907  29.922   2.773
61215W        W22669  40.413  30.592   2.825
61216W        W22670  30.635  24.190   1.383
61217W        W22671  24.723  44.882  14.765
61218W        W22672  16.312   1.793  13.537
61219W        W22673  37.944  38.438   0.282
61220W        W22674   6.382  22.108  12.399
61221W        W22675  41.522   4.288  11.532
61222W        W22676  40.493  20.123  12.074
61223W        W22677  37.511  26.084  10.442
61224W        W22678  39.845  12.702   0.274
61225W        W22679  25.159   7.306   0.909
61226W        W22680  27.611  40.863   3.786
61227W        W22681   7.806  27.087   4.115
61228W        W22682  37.472   1.379  13.541
61229W        W22683  16.244   3.928   0.374
61230W        W22684  23.665   0.856   2.782
61231W        W22685  29.447   9.731   2.401
61232W        W22686  17.774  37.023   2.775
61233W        W22687  42.913  38.038   2.222
61234W        W22688  14.221  18.744   2.211
61235W        W22689   4.829  30.655  14.945
61236W        W22690  42.487  27.112   0.475
61237W        W22691   4.359  34.061  13.019
61238W        W22692  12.727  32.599   3.383
61239W        W22693  32.092  24.549  14.324
61240W        W22694   5.338   0.334  10.506
61241W        W22695  41.006   0.769  13.339
61242W        W22696  15.587  25.481   1.317
61243W        W22697  29.997  37.371   0.812
61244W        W22698  35.932  30.542   4.344
61245W        W22699  40.858  26.001   3.335
61246W        W22700  19.045  40.440   0.735
61247W        W22701   3.215  31.403   0.790
61248W        W22702  25.573  17.579  12.855
61249W        W22703  31.420   9.345   4.317
61250W        W22704  11.852   0.862  14.867
61251W        W22705  38.855   4.416  14.958
61252W        W22706  14.712  26.045  14.887
61253W        W22707  33.625  42.323   4.796
61254W        W22708  36.924  30.968   0.771
61255W        W22709  19.703   0.407   0.816
61256W        W22710   0.748  34.999   0.309
61257W        W22711  11.145  16.568  11.385
61258W        W22712   8.311  40.314  13.426
61259W        W22713  38.338  24.675  14.494
61260W        W22714  11.752   7.395  12.045
61261W        W22715  12.696  44.907   1.301
61262W        W22716  19.558   0.800  12.893
61263W        W22717  35.598  39.970   9.491
61264W        W22718  36.372   6.882  13.501
61265W        W22719  10.358  29.965  13.505
61266W        W22720   0.978  20.229  12.347
61267W        W22721   1.855  26.533  10.419
61268W        W22722  12.267  23.695  11.579
61269W        W22723  36.578  19.222  11.927
61270W        W22724  16.678  44.811   0.398
61271W        W22725  26.608  42.885   4.744
61272W        W22726  31.031   3.280  11.538
61273W        W22727  19.129  39.519  10.522
61274W        W22728   8.347  37.015  11.605
61275W        W22729  29.427   4.758   5.211
61276W        W22730   8.359  21.048   0.782
61277W        W22731  26.507  41.892   2.380
61278W        W22732  27.077  16.225  13.442
61279W        W22733   4.247  11.744  12.367
61280W        W22734  35.103  34.408   0.901
61281W        W22735  36.096  20.087  11.034
61282W        W22736  15.102  17.222   0.839
61283W        W22737  10.261  33.066  14.959
61284W        W22738  21.739  36.868   0.353
61285W        W22739  31.982   8.878  10.544
61286W        W22740  40.400   4.787  13.863
61287W        W22741  11.795   4.228   2.330
61288W        W22742  15.616  27.447  13.875
61289W        W22743  30.004  31.000  10.594
61290W        W22744  12.179  41.521  14.929
61291W        W22745  44.291  28.098  14.293
61292W        W22746  28.118  40.353   4.213
61293W        W22747  32.459  36.360   4.284
61294W        W22748  19.709  18.056   0.402
61295W        W22749   4.287  37.553  14.913
61296W        W22750  21.520  44.813  10.552
61297W        W22751  24.688   9.318   1.930
61298W        W22752  42.009  35.508   1.813
61299W        W22753   4.727   0.985   0.390
61300W        W22754  22.249  16.600  14.785
61301W        W22755  41.431   3.283  14.022
61302W        W22756   8.676  42.427  12.386
61303W        W22757  25.161  10.665  14.847
61304W        W22758  43.276  10.266   0.782
61305W        W22759  15.797   8.766   0.466
61306W        W22760  42.941  16.758   4.800
61307W        W22761  13.197   9.718  11.494
61308W        W22762  37.045  37.373  13.344
61309W        W22763   2.954   1.788  14.958
61310W        W22764  31.987  17.226  10.643
61311W        W22765  30.609  14.605   3.672
61312W        W22766  14.167  10.714   0.885
61313W        W22767  33.552  30.114   0.374
61314W        W22768  27.018  16.642  11.114
61315W        W22769   7.868  10.230  14.301
61316W        W22770  37.987   6.696   2.681
61317W        W22771  35.423  34.563  11.484
61318W        W22772   7.764  29.952  12.957
61319W        W22773  28.474  24.636  11.975
61320W        W22774  29.660   1.259  14.951
61321W        W22775  33.554   7.414  13.442
61322W        W22776   1.319  30.499   4.635
61323W        W22777  16.313  20.159   3.708
61324W        W22778  42.398  25.501  14.825
61325W        W22779  32.071  23.713   3.148
61326W        W22780  24.131  30.651  10.004
61327W        W22781  28.129  32.136   9.947
61328W        W22782  36.554  26.575  14.422
61329W        W22783  37.999  12.198   2.228
61330W        W22784  18.558  31.411  12.848
61331W        W22785  44.345  22.124   3.847
61332W        W22786  19.283  14.124   2.335
61333W        W22787  22.555  42.872   3.646
61334W        W22788  37.878  24.500  12.361
61335W        W22789  39.899  15.281  14.491
61336W        W22790  39.058   4.337   3.772
61337W        W22791   5.890  21.598   2.337
61338W        W22792  35.378  34.945  13.800
61339W        W22793  36.425   0.371  12.014
61340W        W22794  14.733  43.912  13.905
61341W        W22795   3.764  21.569   1.878
61342W        W22796  34.531  31.058  14.899
61343W        W22797  32.121  28.484   1.802
61344W        W22798  18.647  43.483   3.385
61345W        W22799  44.990  37.455   0.954
61346W        W22800   3.908   9.289  12.349
61347W        W22801  42.805  12.169   4.239
61348W        W22802  15.597  12.345   1.352
61349W        W22803  24.497  20.120  13.530
61350W        W22804  14.154  44.301   0.838
61351W        W22805  15.690  25.607   4.617
61352W        W22806  20.225   1.297  13.445
61353W        W22807  42.283  29.931   4.153
61354W        W22808  34.094  36.994   1.267
61355W        W22809  20.207  39.415  13.933
61356W        W22810  17.095   3.925  11.557
61357W        W22811  13.708   1.963   3.717
61358W        W22812  31.995  14.613   5.191
61359W        W22813  34.427  15.619   1.434
61360W        W22814  29.626  29.529   4.196
61361W        W22815  27.040  44.498  14.403
61362W        W22816  34.880  19.655   1.222
61363W        W22817  20.592  32.970   4.600
61364W        W22818  34.943  39.836   1.348
61365W        W22819  44.820  30.595   3.276
61366W        W22820  15.581  17.250   4.177
61367W        W22821  42.952  35.950   0.285
61368W        W22822  21.197  37.447   2.237
61369W        W22823   8.838   7.251  11.949
61370W        W22824  35.101  19.651   1.869
61371W        W22825  22.583  19.061   2.794
61372W        W22826  43.455  25.592   4.676
61373W        W22827  31.089  12.741   1.395
61374W        W22828  14.747  25.188  14.303
61375W        W22829  19.652  11.234  12.889
61376W        W22830  28.152   6.742   1.264
61377W        W22831  20.696  20.531   0.775
61378W        W22832  10.226  44.875   9.949
61379W        W22833  39.525  28.679  14.991
61380W        W22834  30.027  10.786  14.347
61381W        W22835  29.067   2.241   2.408
61382W        W22836  25.501   8.875  13.458
61383W        W22837  27.579  40.452  14.779
61384W        W22838   0.791  42.421  14.500
61385W        W22839  37.844  19.283   2.401
61386W        W22840   0.330  32.106   1.891
61387W        W22841  31.566  18.686   2.401
61388W        W22842   5.435  43.824  11.870
61389W        W22843  20.182  20.229  14.284
61390W        W22844  29.033  12.685  13.312
61391W        W22845  21.617  44.337  12.906
61392W        W22846  13.671   1.447  14.008
61393W        W22847  25.125  41.391  13.441
61394W        W22848  22.557  21.544   0.331
61395W        W22849  32.008  15.621   0.474
61396W        W22850   9.230  33.559  11.971
61397W        W22851  40.866  25.983   1.409
61398W        W22852  24.177  14.164   1.355
61399W        W22853  24.516   4.817   1.262
61400W        W22854  23.075   6.285  10.533
61401W        W22855  25.552  25.512   4.736
61402W        W22856  21.717  16.226   2.235
61403W        W22857  14.616   2.250   2.724
61404W        W22858   1.744  21.530  10.563
61405W        W22859   1.459  34.575   1.312
61406W        W22860  15.640  27.607  14.964
61407W        W22861  27.488  15.615   3.769
61408W        W22862   9.851  16.689   5.251
61409W        W22863  15.783  23.659  14.460
61410W        W22864   5.750  40.313   2.181
61411W        W22865  30.605   5.906  13.895
61412W        W22866  38.492  22.046  12.888
61413W        W22867  10.222  41.910   4.661
61414W        W22868  29.952  42.841  14.886
61415W        W22869  13.307  26.139  10.898
61416W        W22870  21.740   3.397   0.459
61417W        W22871  43.515  44.383  11.522
61418W        W22872  24.188  11.367  10.158
61419W        W22873   0.871  33.878   3.741
61420W        W22874  44.274  21.236   4.174
61421W        W22875  40.898   3.914   2.818
61422W        W22876  37.007  25.526   3.164
61423W        W22877  11.259  40.446   2.691
61424W        W22878  22.654  33.427  12.930
61425W        W22879  42.928  13.157  14.338
61426W        W22880  26.961  28.980   3.690
61427W        W22881  11.136  40.469   9.646
61428W        W22882  34.940  38.964   2.243
61429W        W22883   3.409  23.634  14.878
61430W        W22884  39.921  31.057   4.758
61431W        W22885  26.530  26.199  14.003
61432W        W22886   3.727  25.163  14.471
61433W        W22887  29.453  33.438  12.063
61434W        W22888  13.337   4.237   3.762
61435W        W22889  27.034   9.867  12.876
61436W        W22890  22.509  25.478   1.708
61437W        W22891  22.102  28.483   3.860
61438W        W22892  41.466  12.706  12.575
61439W        W22893  19.587   3.819  13.372
61440W        W22894  20.681   5.254  14.870
61441W        W22895  15.670  39.527   5.318
61442W        W22896  24.176  37.436   1.282
61443W        W22897  34.960   4.204   3.194
61444W        W22898   6.232  32.495   1.930
61445W        W22899  21.140  30.957  10.503
61446W        W22900  14.186  41.988  12.457
61447W        W22901  39.973  43.442   1.892
61448W        W22902  27.189  29.621  12.023
61449W        W22903  23.679  43.952  12.382
61450W        W22904  27.511  31.612  11.976
61451W        W22905  19.773  15.185   3.187
61452W        W22906   3.355   8.679   2.900
61453W        W22907  30.592   3.254   2.265
61454W        W22908  12.787   9.743   1.265
61455W        W22909  26.040  23.664  11.035
61456W        W22910  12.617  23.185  10.014
61457W        W22911  10.181  33.975  13.334
61458W        W22912   9.866  11.839  10.524
61459W        W22913  25.581   0.411  10.889
61460W        W22914  12.294  22.546   3.762
61461W        W22915  10.739  21.566  14.881
61462W        W22916  43.431  19.046  10.978
61463W        W22917  42.410  10.762   2.734
61464W        W22918   1.252  19.632   1.854
61465W        W22919   1.284  44.928   3.652
61466W        W22920  28.654  38.519  10.421
61467W        W22921  23.151  33.480   0.934
61468W        W22922  12.762  10.252   2.198
61469W        W22923  25.124  31.070  13.416
61470W        W22924  40.021   3.863  13.536
61471W        W22925   0.373  38.869  14.427
61472W        W22926   5.237  36.948   1.346
61473W        W22927  43.891  29.017  12.086
61474W        W22928   7.737  31.907   2.724
61475W        W22929  18.764  30.068  10.476
61476W        W22930   7.311  27.450   1.904
61477W        W22931   0.906  35.931   0.802
61478W        W22932  21.256   8.383  12.896
61479W        W22933  14.790  39.963   1.347
61480W        W22934  32.513  26.095  10.544
61481W        W22935  38.558  44.292   1.386
61482W        W22936  28.632  20.115  14.888
61483W        W22937  21.569  40.346   1.319
61484W        W22938  38.966  19.691  11.889
61485W        W22939  22.050  30.503  13.977
61486W        W22940  43.420  30.513  10.456
61487W        W22941  32.519   0.907   2.778
61488W        W22942  38.947   9.860  12.531
61489W        W22943  41.420  12.614  14.379
61490W        W22944   0.275  38.824  12.495
61491W        W22945  37.840  19.550  13.996
61492W        W22946   1.437   2.937  11.870
61493W        W22947   4.207  12.687   0.471
61494W        W22948  25.510  21.668   0.323
61495W        W22949  32.493   7.213  12.049
61496W        W22950  33.483  42.942   0.891
61497W        W22951   8.400  24.194  11.580
61498W        W22952  35.388  21.058   1.372
61499W        W22953  17.261  14.726  14.979
61500W        W22954  41.923  37.517  12.535
61501W        W22955   6.856  29.945  14.797
61502W        W22956  41.804  10.721  13.855
61503W        W22957   1.328   6.347   2.712
61504W        W22958  43.887   6.868  11.511
61505W        W22959  25.673   1.316   4.355
61506W        W22960  35.073   1.253   4.276
61507W        W22961  23.520   3.295  13.317
61508W        W22962  15.107  19.264  10.630
61509W        W22963  28.155  11.289  13.356
61510W        W22964   1.437  43.511   3.286
61511W        W22965  36.885   9.213   1.319
61512W        W22966  39.455  37.840   0.925
61513W        W22967  43.396   0.341   4.331
61514W        W22968  24.105  42.945  11.513
61515W        W22969  20.605  23.703   1.336
61516W        W22970  41.851  14.195   4.612
61517W        W22971  10.866   8.703  12.917
61518W        W22972   0.448  23.139   3.372
61519W        W22973  32.412  10.171   1.900
61520W        W22974  37.376  10.870   3.662
61521W        W22975   2.364   1.477   0.879
61522W        W22976  13.700   8.323   2.371
61523W        W22977  43.486  25.138  12.563
61524W        W22978  36.582  34.454   3.286
61525W        W22979  26.525  41.013   2.266
61526W        W22980   1.381  27.446  14.489
61527W        W22981  35.593  24.524  11.989
61528W        W22982   5.260  30.082  14.900
61529W        W22983   7.388  38.821  12.346
61530W        W22984  39.063   2.273   2.710
61531W        W22985  31.616  22.200  13.995
61532W        W22986  25.673   9.243  10.433
61533W        W22987  32.464   4.782   0.765
61534W        W22988  23.220  20.629  14.432
61535W        W22989  29.046   8.774  13.513
61536W        W22990  17.108  22.023  12.489
61537W        W22991   9.158  41.967  12.081
61538W        W22992  21.585  25.509  14.902
61539W        W22993  38.931  42.029  11.503
61540W        W22994  29.489  28.634   1.344
61541W        W22995  23.502  15.260   1.234
61542W        W22996  40.452   2.361   2.283
61543W        W22997   7.288  41.366  10.587
61544W        W22998  15.139  43.785  10.918
61545W        W22999  33.392  29.173  14.783
61546W        W23000  13.765   8.366  13.510
61547W        W23001  34.605  14.677   2.684
61548W        W23002  22.080  42.920   2.401
61549W        W23003  34.010  11.198   4.294
61550W        W23004   2.400  35.972  13.008
61551W        W23005  37.535  26.507   1.731
61552W        W23006   9.885   5.732  11.075
61553W        W23007  17.619  43.978   1.324
61554W        W23008  16.085   2.292  11.422
61555W        W23009  20.185   2.919   0.369
61556W        W23010  36.432  17.566  12.356
61557W        W23011  22.203  24.517  13.904
61558W        W23012  16.190  34.537   0.478
61559W        W23013  37.574  11.773  12.972
61560W        W23014  42.893  24.150   3.649
61561W        W23015  14.743  44.798   0.376
61562W        W23016  17.076  25.547  13.510
61563W        W23017  26.564   4.715  11.457
61564W        W23018  37.409  25.104  10.143
61565W        W23019  39.536  27.582   2.296
61566W        W23020  39.485   4.854   1.231
61567W        W23021  10.231   2.937   1.722
61568W        W23022  26.466  36.573  12.909
61569W        W23023   6.260   2.237   3.150
61570W        W23024  25.027  13.174   3.152
61571W        W23025  24.996  26.173   4.638
61572W        W23026  43.901   8.799   2.415
61573W        W23027  41.990  43.771   0.383
61574W        W23028  43.009  25.543   1.781
61575W        W23029  14.145  42.861   1.801
61576W        W23030  40.386  35.889   5.183
61577W        W23031   1.786   5.225  14.443
61578W        W23032  42.410  13.346   1.293
61579W        W23033  36.410  36.052   0.960
61580W        W23034   0.332  42.980   0.250
61581W        W23035   3.713  27.986  12.032
61582W        W23036  41.521  36.987  12.883
61583W        W23037   3.379  24.701   1.403
61584W        W23038  32.458   4.815   4.346
61585W        W23039  36.515   3.858   0.397
61586W        W23040  26.658   9.202   1.729
61587W        W23041  36.053  31.642   3.197
61588W        W23042   6.366   7.245  11.020
61589W        W23043  44.323  25.539   1.241
61590W        W23044  30.621  44.362  13.327
61591W        W23045  10.171  17.744  11.460
61592W        W23046  29.605  36.889  11.421
61593W        W23047  22.225   0.800   2.360
61594W        W23048   6.687  23.515   4.760
61595W        W23049   6.369  24.983   9.991
61596W        W23050  42.894  39.345   4.280
61597W        W23051  14.164  28.596  13.011
61598W        W23052  41.973   7.689   4.243
61599W        W23053   0.299   9.764   3.705
61600W        W23054  40.836  35.473  10.405
61601W        W23055  40.974  10.836   1.394
61602W        W23056  24.995   4.760  11.561
61603W        W23057  41.873  20.225  14.324
61604W        W23058  14.650  21.045  14.996
61605W        W23059  16.266  25.497   4.836
61606W        W23060  15.591  27.048  14.508
61607W        W23061  24.480  19.770  14.988
61608W        W23062  26.121  21.210   0.883
61609W        W23063  34.414  20.606   3.237
61610W        W23064  17.095  28.655   2.846
61611W        W23065  43.374  34.008   1.328
61612W        W23066   7.777   9.776   0.373
61613W        W23067  42.863  10.332   0.467
61614W        W23068  22.097  38.925  14.774
61615W        W23069  43.370  20.566   3.288
61616W        W23070  40.979  21.638  14.430
61617W        W23071  37.852  37.390   3.254
61618W        W23072   9.222   9.198   2.810
61619W        W23073  27.635  35.518  13.966
61620W        W23074  12.713   9.858   2.816
61621W        W23075   5.816  26.125  13.893
61622W        W23076  31.999  25.643   2.246
61623W        W23077   3.390  13.151  14.444
61624W        W23078  12.641   0.763   1.888
61625W        W23079   3.853  16.140  11.000
61626W        W23080   5.194  10.844   0.268
61627W        W23081  26.090  43.886   3.193
61628W        W23082  14.182  38.067   3.652
61629W        W23083  29.065  23.697  14.491
61630W        W23084  26.662  41.338  13.471
61631W        W23085  18.629  15.156  11.879
61632W        W23086  38.883  42.515  10.487
61633W        W23087  17.673  40.871  11.547
61634W        W23088  40.034  21.610  11.536
61635W        W23089  11.360   7.307  13.035
61636W        W23090  14.145  17.699  12.516
61637W        W23091  24.701  29.430  14.376
61638W        W23092   7.894  11.812  10.494
61639W        W23093  21.607  12.358  11.383
61640W        W23094  14.789  44.431   3.820
61641W        W23095   5.436  26.199  14.318
61642W        W23096  10.307   0.265   1.441
61643W        W23097  24.152  28.590   3.308
61644W        W23098  44.816  39.887   1.332
61645W        W23099  30.443  24.975  13.871
61646W        W23100   9.315  13.282   5.249
61647W        W23101   5.726  33.423   0.337
61648W        W23102  44.866  17.749   1.220
61649W        W23103  33.623   9.387   4.711
61650W        W23104  29.936  22.512  13.799
61651W        W23105   5.922   1.913   3.218
61652W        W23106   4.798  18.548  14.314
61653W        W23107  15.217  18.676   1.238
61654W        W23108  31.527  44.333   2.790
61655W        W23109  40.044   0.791   0.260
61656W        W23110  13.778  18.081  11.034
61657W        W23111  19.164  20.585  12.451
61658W        W23112  27.461  28.022   2.204
61659W        W23113  39.340  28.436  14.345
61660W        W23114   1.326  17.162  14.810
61661W        W23115  19.214  23.707  13.905
61662W        W23116  35.486   3.415  11.419
61663W        W23117  14.718  39.888   4.138
61664W        W23118  33.586  22.514   2.829
61665W        W23119  22.140  44.970  12.407
61666W        W23120   3.737  14.704  10.482
61667W        W23121  27.581  44.443  12.518
61668W        W23122  44.315  43.996  13.869
61669W        W23123  16.100  17.067  10.084
61670W        W23124  22.710  23.506   0.885
61671W        W23125  26.193   4.924  14.790
61672W        W23126  35.468  13.660  14.935
61673W        W23127   2.937  32.557  12.459
61674W        W23128  17.752  40.462  14.897
61675W        W23129   4.850  34.866  11.101
61676W        W23130   4.701   4.723  13.356
61677W        W23131  16.621   0.981   4.330
61678W        W23132   1.896  40.994   4.210
61679W        W23133   2.820  43.864   4.739
61680W        W23134   3.262  21.568   2.662
61681W        W23135   3.768  33.086  10.616
61682W        W23136  31.110  28.458   2.865
61683W        W23137   8.811  33.952  14.313
61684W        W23138  30.088  40.896   0.822
61685W        W23139  22.536   2.264  14.297
61686W        W23140  19.564  31.458  12.002
61687W        W23141  25.150  18.759   4.742
61688W        W23142  28.935  31.926  14.369
61689W        W23143  28.988   2.256  12.930
61690W        W23144   8.681  10.677  12.018
61691W        W23145  40.465  32.987  11.113
61692W        W23146   8.393  10.705  14.007
61693W        W23147  18.090  28.572  14.800
61694W        W23148  19.165   3.858   2.838
61695W        W23149  38.076  19.254  11.009
61696W        W23150  13.339  23.160  11.563
61697W        W23151   4.862   9.185  13.493
61698W        W23152  19.742   5.280  13.497
61699W        W23153  23.190  40.362   4.175
61700W        W23154  40.334  20.608   3.836
61701W        W23155  17.780   5.344   3.643
61702W        W23156  30.435  11.129   3.368
61703W        W23157  29.633   0.351  14.940
61704W        W23158  30.053  41.477  14.770
61705W        W23159  10.718  42.515  14.316
61706W        W23160  18.105   9.769  14.376
61707W        W23161   5.696  13.216  10.570
61708W        W23162  30.040  35.579  12.896
61709W        W23163  21.226  26.142  10.481
61710W        W23164   2.930  24.054  11.905
61711W        W23165   9.259  44.288  14.890
61712W        W23166  16.644   9.229   0.842
61713W        W23167  18.261  22.715   2.313
61714W        W23168  29.449  21.116  14.347
61715W        W23169  34.007  43.440   3.373
61716W        W23170   2.955   6.388  14.355
61717W        W23171  40.991  11.208  13.033
61718W        W23172  14.675  33.510  13.469
61719W        W23173  27.599   2.935   2.272
61720W        W23174   8.379  29.572   0.416
61721W        W23175  35.908   1.445   4.133
61722W        W23176  12.180  17.698   1.783
61723W        W23177  20.581  17.798   2.287
61724W        W23178  20.215  40.329   4.340
61725W        W23179   3.785  11.838   3.730
61726W        W23180  17.192  38.896   3.762
61727W        W23181  12.793  22.022   3.787
61728W        W23182   5.709  44.848  12.434
61729W        W23183  11.845   0.475  10.524
61730W        W23184  31.564   4.920   0.468
61731W        W23185  13.673  34.571   0.391
61732W        W23186  41.952   8.695   1.909
61733W        W23187  25.580   5.327  12.373
61734W        W23188   6.904  38.380  11.024
61735W        W23189  18.552   0.296  10.980
61736W        W23190   7.697  31.061   4.214
61737W        W23191   1.877  41.894  11.519
61738W        W23192  12.664   0.406  14.968
61739W        W23193  25.627  24.097   5.190
61740W        W23194  28.549  43.809   1.368
61741W        W23195  10.790  34.967  10.519
61742W        W23196   8.874  36.064   4.157
61743W        W23197  18.239  23.054  14.361
61744W        W23198   8.211  15.787  14.942
61745W        W23199   4.257   9.168   0.475
61746W        W23200  13.343  44.899   3.366
61747W        W23201  20.075  17.084   3.282
61748W        W23202  19.216  11.746   4.298
61749W        W23203   4.442  21.059   4.167
61750W        W23204  18.172  26.091  13.821
61751W        W23205  33.959  10.186  14.786
61752W        W23206   3.316  38.074   1.286
61753W        W23207  12.621  36.983   1.387
61754W        W23208  44.335   3.772  10.584
61755W        W23209  26.066   5.900  14.334
61756W        W23210   9.854  22.106   3.689
61757W        W23211  28.935  34.092  14.276
61758W        W23212   6.218  21.630   3.696
61759W        W23213   8.857  29.618  13.997
61760W        W23214   5.255  20.690   3.807
61761W        W23215  42.372  36.843   0.437
61762W        W23216  10.673   0.890  14.485
61763W        W23217   9.163  36.588  11.006
61764W        W23218  37.999  26.173  13.859
61765W        W23219  43.893  11.258   0.312
61766W        W23220  24.996  32.619  10.595
61767W        W23221   4.862  43.905  12.446
61768W        W23222  25.482  44.272   2.275
61769W        W23223  27.629  28.593  11.077
61770W        W23224  29.166  41.017   2.256
61771W        W23225   9.169  22.056  12.507
61772W        W23226  11.708   0.804   1.829
61773W        W23227   4.761   6.286   2.720
61774W        W23228   9.166  19.620  11.437
61775W        W23229   2.774  15.593   4.823
61776W        W23230  18.621  40.940  12.856
61777W        W23231  40.454   0.442   0.746
61778W        W23232   2.850   7.894   2.181
61779W        W23233   3.219  11.326   3.193
61780W        W23234  11.664  38.999   2.392
61781W        W23235  15.699  21.540   5.197
61782W        W23236  23.535  30.495   4.330
61783W        W23237   9.739  27.457   3.866
61784W        W23238  26.547  26.063   0.881
61785W        W23239  39.955  12.168  14.975
61786W        W23240  15.581  11.704   1.878
61787W        W23241  29.941  17.188   2.729
61788W        W23242  33.607   7.897  11.453
61789W        W23243   1.765  17.616  12.356
61790W        W23244  38.883  10.288  13.033
61791W        W23245  31.017  40.352   4.642
61792W        W23246  25.554  31.109  11.036
61793W        W23247  34.888  19.259   1.708
61794W        W23248  14.124  18.076   2.206
61795W        W23249  31.088  26.157   9.542
61796W        W23250   2.891  25.036  12.489
61797W        W23251  44.298  24.997   1.871
61798W        W23252  38.968  34.386  13.395
61799W        W23253  16.603  14.312   3.359
61800W        W23254  33.046  16.140  10.623
61801W        W23255  35.474   5.743  14.431
61802W        W23256  26.099  33.592   3.865
61803W        W23257  15.259  37.963  11.579
61804W        W23258  32.897  23.598  14.481
61805W        W23259  30.521  31.522   0.802
61806W        W23260  42.849  43.291  12.827
61807W        W23261  38.822  15.172  10.943
61808W        W23262  44.781  44.910  13.870
61809W        W23263  36.076  28.551  13.327
61810W        W23264   8.697  42.876  12.408
61811W        W23265   1.355  40.011  14.832
61812W        W23266  13.309   0.802   4.646
61813W        W23267  18.623  14.260  12.579
61814W        W23268  10.207   7.331  13.388
61815W        W23269  21.534  36.091  13.814
61816W        W23270  17.124   2.282   2.902
61817W        W23271  16.149  20.665   1.703
61818W        W23272  33.945   9.331  12.427
61819W        W23273  36.410  30.040  12.836
61820W        W23274   1.883  26.126   0.857
61821W        W23275  18.634  28.965  11.088
61822W        W23276   5.336  30.564  11.487
61823W        W23277  33.003   6.377  14.002
61824W        W23278   9.701  35.872   1.702
61825W        W23279   9.890  39.943  11.869
61826W        W23280   1.838  22.558  10.481
61827W        W23281  32.139  21.557   0.858
61828W        W23282  14.692   7.396   4.761
61829W        W23283  38.062  31.418   0.741
61830W        W23284  11.212  36.401   1.813
61831W        W23285   4.351  32.535  13.517
61832W        W23286  18.674  14.312  10.457
61833W        W23287  14.177  33.980  12.872
61834W        W23288  11.684   2.283  11.520
61835W        W23289  33.403  16.262  10.587
61836W        W23290  19.160  23.162   3.172
61837W        W23291  22.524   4.840  10.440
61838W        W23292  43.954  33.568   3.153
61839W        W23293  16.205  40.370  14.896
61840W        W23294  29.553  28.168  13.882
61841W        W23295  21.079  37.030   4.807
61842W        W23296  31.548  20.559   2.320
61843W        W23297  24.045   1.285   0.385
61844W        W23298  44.886  13.644  12.397
61845W        W23299   1.354   6.245  10.433
61846W        W23300  32.535  37.444  14.992
61847W        W23301   7.195  15.613   2.724
61848W        W23302  32.943  36.013  14.956
61849W        W23303  23.719  24.619  13.393
61850W        W23304  23.993  17.784   2.309
61851W        W23305  31.586  14.811  11.867
61852W        W23306  24.530   8.806   4.341
61853W        W23307   9.210  28.562   3.330
61854W        W23308   1.293  25.026  12.380
61855W        W23309  16.656   5.783  10.939
61856W        W23310  23.151  25.491  12.351
61857W        W23311   2.410   8.882  13.841
61858W        W23312  32.919  18.610  11.899
61859W        W23313  28.644   0.892  11.103
61860W        W23314  35.998  36.075   2.853
61861W        W23315  36.080  11.155   3.786
61862W        W23316  31.415  39.014  12.091
61863W        W23317  40.892  40.423   3.701
61864W        W23318  29.052  20.701  13.357
61865W        W23319  14.619   7.843   2.861
61866W        W23320   9.646  37.993  14.381
61867W        W23321  36.571   1.343  12.881
61868W        W23322  39.942  27.536  12.397
61869W        W23323  28.059  21.538  10.637
61870W        W23324  37.459  34.008  13.933
61871W        W23325   8.176  11.181   4.271
61872W        W23326  31.092  34.564   9.487
61873W        W23327  23.636  32.090  12.436
61874W        W23328  28.937  17.235   1.314
61875W        W23329  39.501  14.826  10.933
61876W        W23330  42.894  38.889   0.728
61877W        W23331  12.768  31.119  14.867
61878W        W23332  25.019  27.164  14.793
61879W        W23333  16.662  17.696   4.814
61880W        W23334   8.236   9.800   2.716
61881W        W23335  21.045  36.452   3.821
61882W        W23336  17.581  17.259  11.530
61883W        W23337  10.303  30.025   2.369
61884W        W23338   9.288  43.458  14.933
61885W        W23339  15.106  28.453  10.594
61886W        W23340  28.594  22.600  10.060
61887W        W23341   1.869  40.043  11.882
61888W        W23342   4.819  10.178  14.956
61889W        W23343   6.397   6.726   4.169
61890W        W23344  22.215  26.141  14.347
61891W        W23345   1.338   0.455  14.429
61892W        W23346  24.493  21.094   0.867
61893W        W23347  18.125  17.791  11.498
61894W        W23348  34.949  24.100   0.358
61895W        W23349  35.582   3.901  12.404
61896W        W23350  18.218  32.981  11.061
61897W        W23351  29.516  17.232  13.932
61898W        W23352  37.016  20.704   2.379
61899W        W23353  27.103   5.376   0.426
61900W        W23354  33.885  14.154  10.490
61901W        W23355  20.090  20.090  11.545
61902W        W23356  22.051  40.324   2.890
61903W        W23357  41.374  37.462   2.736
61904W        W23358  44.976   4.218   2.367
61905W        W23359  30.607   3.390  10.970
61906W        W23360  16.750  34.488  11.017
61907W        W23361  17.565  16.109  11.532
61908W        W23362  42.012   1.849  14.806
61909W        W23363  12.650   0.858  10.972
61910W        W23364  18.697  35.078   9.967
61911W        W23365  36.058  12.201   0.938
61912W        W23366   0.293   3.383  13.466
61913W        W23367  37.989  20.730  13.971
61914W        W23368  22.722  14.187  12.836
61915W        W23369  40.459  39.060  11.391
61916W        W23370  12.723  19.211   2.872
61917W        W23371  18.657  12.842   1.799
61918W        W23372  42.005  13.642  14.436
61919W        W23373  21.724  10.290   3.723
61920W        W23374  37.951  18.110  12.998
61921W        W23375  25.162  32.394  11.383
61922W        W23376   7.809  40.340   2.753
61923W        W23377  27.090  32.061   3.782
61924W        W23378  38.906  11.719  13.324
61925W        W23379  13.111  15.577   2.695
61926W        W23380  25.014  36.391  13.438
61927W        W23381  40.982  35.523   2.324
61928W        W23382  42.866   1.260   3.643
61929W        W23383  43.455  31.047   0.921
61930W        W23384  15.606  39.031   4.753
61931W        W23385  40.473  34.878   1.305
61932W        W23386  23.191  38.860   0.750
61933W        W23387  38.831   8.841   2.187
61934W        W23388   3.717  10.725   3.296
61935W        W23389  36.043  23.614   0.297
61936W        W23390  44.329   5.863   4.266
61937W        W23391   6.409   5.349   0.423
61938W        W23392  39.812   3.937   3.325
61939W        W23393  28.090  19.068   2.392
61940W        W23394  44.833  15.620   4.250
61941W        W23395  12.661   2.311  14.408
61942W        W23396  43.765  41.830   1.741
61943W        W23397  39.343   9.197  10.997
61944W        W23398  13.792  13.846  12.431
61945W        W23399  38.553  39.495  13.950
61946W        W23400  23.109  41.391  14.300
61947W        W23401  42.796   4.814   2.302
61948W        W23402  25.559  30.967  12.863
61949W        W23403   6.349   4.722   9.921
61950W        W23404  10.827  21.095  13.327
61951W        W23405  29.634  15.181  14.486
61952W        W23406  34.486  43.292   2.366
61953W        W23407   6.309  24.210  13.507
61954W        W23408  33.023  34.466   3.376
61955W        W23409   8.675  35.376   0.403
61956W        W23410  24.699   8.270   1.895
61957W        W23411  35.043  27.543  11.576
61958W        W23412   7.796   5.729   3.275
61959W        W23413  31.486  13.229  12.963
61960W        W23414  12.846  26.172   2.882
61961W        W23415  38.360  24.694   1.869
61962W        W23416   9.151   3.295   3.654
61963W        W23417  41.021  38.335   2.367
61964W        W23418  30.910  34.525  12.384
61965W        W23419  10.241  17.608  12.839
61966W        W23420  27.499   9.174   0.768
61967W        W23421   8.852  14.099  14.324
61968W        W23422  14.765  12.613  11.977
61969W        W23423  41.482  42.021  13.795
61970W        W23424  39.854   7.852   0.407
61971W        W23425  11.364  17.230   4.662
61972W        W23426   5.933  39.014  11.560
61973W        W23427  10.675  43.503   3.637
61974W        W23428  17.575   6.707   2.844
61975W        W23429   6.230  39.027   3.759
61976W        W23430  39.550  27.679   0.842
61977W        W23431  17.783   0.901   4.808
61978W        W23432  44.279  34.612  12.521
61979W        W23433   2.401  14.688  12.904
61980W        W23434  28.476  34.464  14.771
61981W        W23435  24.075   8.295  11.580
61982W        W23436  12.656  17.636  14.999
61983W        W23437  18.647  37.003  11.393
61984W        W23438  44.476  22.658  13.404
61985W        W23439   9.256   9.168   1.274
61986W        W23440  33.877  15.726   3.191
61987W        W23441   9.821  19.741   1.218
61988W        W23442   3.421  21.641   4.154
61989W        W23443   2.879   2.308  12.481
61990W        W23444  30.962   8.654   1.870
61991W        W23445  13.772  25.011   1.246
61992W        W23446  36.927  39.818   1.419
61993W        W23447  35.527  30.471   0.853
61994W        W23448  13.687  31.103  10.437
61995W        W23449  27.052  37.511  10.988
61996W        W23450  39.436  37.545   2.740
61997W        W23451   5.437  12.347   1.802
61998W        W23452   2.808  39.029  11.483
61999W        W23453  32.449  40.929  11.518
62000W        W23454  41.467   8.399  14.504
62001W        W23455  30.091  25.061  12.579
62002W        W23456  29.499  32.113  13.028
62003W        W23457  26.646  37.413  13.024
62004W        W23458  21.209  29.542   4.773
62005W        W23459  41.499  21.229  10.574
62006W        W23460  34.402  40.952  14.325
62007W        W23461  29.606  22.598  11.567
62008W        W23462  10.287  15.619   2.768
62009W        W23463  42.953  30.160   3.324
62010W        W23464   5.754  12.328   4.736
62011W        W23465   0.748  16.773   1.852
62012W        W23466   0.835  19.262  13.928
62013W        W23467  15.209  30.927  14.422
62014W        W23468  27.525  35.470  14.846
62015W        W23469  36.563  27.958   0.744
62016W        W23470   9.755  23.140  11.445
62017W        W23471  10.651  18.126   2.227
62018W        W23472  25.147  28.441   3.812
62019W        W23473   4.909  33.590   2.801
62020W        W23474   9.772  26.658   3.330
62021W        W23475  17.649  37.027  12.990
62022W        W23476  26.166  25.634  13.889
62023W        W23477  43.272  21.111  14.910
62024W        W23478  40.465  27.039   3.803
62025W        W23479   4.243  23.682   0.800
62026W        W23480  36.035  38.330  14.514
62027W        W23481  16.686  21.590   4.242
62028W        W23482  26.499  39.512  13.447
62029W        W23483   1.954  27.014  13.438
62030W        W23484   8.719   2.922  11.034
62031W        W23485  22.546   0.827  12.952
62032W        W23486  33.507  39.821   3.358
62033W        W23487   7.845  26.523  14.886
62034W        W23488  17.596  42.286  11.563
62035W        W23489   4.349  19.768   4.632
62036W        W23490  34.450   7.882   3.183
62037W        W23491  14.790  40.307  14.360
62038W        W23492  27.196  35.501   2.746
62039W        W23493  40.051  15.669   2.414
62040W        W23494  38.041  12.655   2.368
62041W        W23495  29.160   6.754  10.615
62042W        W23496  44.834  27.192   0.373
62043W        W23497  13.118  33.029  13.963
62044W        W23498  31.618  38.352  10.466
62045W        W23499  37.898  21.629   4.199
62046W        W23500  24.554   5.908   0.933
62047W        W23501  29.525   6.287  13.944
62048W        W23502  38.435  24.069  10.561
62049W        W23503   8.329  26.543  12.421
62050W        W23504  11.315  44.419   4.638
62051W        W23505   4.908   6.732  11.558
62052W        W23506  10.367  29.952   1.210
62053W        W23507  29.136  12.630   4.685
62054W        W23508  37.547   8.400   0.966
62055W        W23509  25.694  24.621  13.533
62056W        W23510  19.085  17.217  12.469
62057W        W23511  19.681  38.012  14.003
62058W        W23512   0.901  40.358  13.010
62059W        W23513  33.510  34.012  14.463
62060W        W23514  42.378  13.639  11.465
62061W        W23515  31.419   3.403   0.935
62062W        W23516  15.101   6.834  12.844
62063W        W23517  31.621   7.839  11.592
62064W        W23518  28.178   9.348   1.757
62065W        W23519  18.591  37.537   2.396
62066W        W23520  16.789  40.369   1.239
62067W        W23521  13.250   8.787  14.023
62068W        W23522   9.860  31.908  12.929
62069W        W23523  27.009  20.697  10.491
62070W        W23524   5.695  23.099  10.633
62071W        W23525  44.266  14.636  10.074
62072W        W23526  37.033  12.737   4.330
62073W        W23527  23.217  20.734   1.815
62074W        W23528  19.203   4.400   0.860
62075W        W23529   9.293  38.869  12.929
62076W        W23530  31.139  35.084  14.029
62077W        W23531  28.147  21.735  11.114
62078W        W23532  15.721  40.372   9.496
62079W        W23533  43.959  20.678   1.764
62080W        W23534   6.744  22.023  14.890
62081W        W23535  36.094  44.422  13.948
62082W        W23536  14.706  43.284  14.985
62083W        W23537  22.559   6.842  13.377
62084W        W23538  16.218  35.582  12.958
62085W        W23539   3.949  27.995  13.368
62086W        W23540  20.759  26.460  14.928
62087W        W23541  20.643  23.988  10.428
62088W        W23542  13.182  36.950   4.196
62089W        W23543  26.157  30.613   1.713
62090W        W23544  22.181   8.895   3.689
62091W        W23545   3.775  19.110  12.362
62092W        W23546  43.847   5.222  12.850
62093W        W23547   9.837   0.488   3.842
62094W        W23548  25.706  21.089   1.309
62095W        W23549   6.311  40.877   3.290
62096W        W23550  44.776  12.687   2.746
62097W        W23551  35.466  38.485   2.675
62098W        W23552  35.532   8.824  11.967
62099W        W23553  26.196  11.195   0.762
62100W        W23554  34.875  10.233   3.161
62101W        W23555   4.751  33.501   5.134
62102W        W23556  12.760  39.053   2.701
62103W        W23557  27.622   6.215  11.539
62104W        W23558  32.560   6.742  11.868
62105W        W23559  32.012  35.038   5.207
62106W        W23560  11.724  40.335   0.869
62107W        W23561  42.906   1.800  10.626
62108W        W23562  29.958  40.016   4.228
62109W        W23563  17.589  16.738  12.375
62110W        W23564  29.606   8.862   1.915
62111W        W23565  16.317  35.372   1.320
62112W        W23566   6.296  41.503   1.875
62113W        W23567   3.432  12.813  12.981
62114W        W23568  36.534  30.605   5.247
62115W        W23569  28.584   7.819   1.442
62116W        W23570  27.686  19.251  11.429
62117W        W23571  40.502  33.517  10.940
62118W        W23572  31.521  23.159  14.761
62119W        W23573  25.701  44.810   1.371
62120W        W23574  10.330  40.838   2.387
62121W        W23575   9.649  23.051  12.430
62122W        W23576   4.937  39.532  11.886
62123W        W23577   7.744  17.110  10.079
62124W        W23578  13.600  40.989   2.207
62125W        W23579  34.091  10.866   2.255
62126W        W23580  31.635  12.797  13.013
62127W        W23581   4.883   1.254  12.535
62128W        W23582  36.083  12.713  14.361
62129W        W23583  18.246  20.665  13.936
62130W        W23584  44.471  28.589   1.772
62131W        W23585  18.668  35.088  14.014
62132W        W23586  22.241  27.123   0.800
62133W        W23587   0.930  44.438   2.870
62134W        W23588  37.570  35.392   2.896
62135W        W23589  13.806   9.257   1.309
62136W        W23590  24.040  16.618   4.244
62137W        W23591   2.285  16.678   0.411
62138W        W23592  37.884  16.277   2.326
62139W        W23593   5.844  11.834  14.409
62140W        W23594  32.480   1.877  11.110
62141W        W23595   4.899  25.544   4.169
62142W        W23596  25.158   2.390   1.377
62143W        W23597   6.736  43.447  11.478
62144W        W23598  44.363  28.038   4.787
62145W        W23599   9.693   2.290  10.922
62146W        W23600  11.172  41.986  14.351
62147W        W23601  21.547  26.110   2.823
62148W        W23602  18.291  18.788   1.773
62149W        W23603  31.009  22.675  10.431
62150W        W23604  39.425  31.582   3.230
62151W        W23605  28.105  32.024  12.847
62152W        W23606  16.093  26.144   3.842
62153W        W23607   0.861  42.450  14.859
62154W        W23608  15.665  21.742   2.244
62155W        W23609   4.759  31.563  14.516
62156W        W23610  35.020  13.307   2.684
62157W        W23611  34.120   1.387   2.324
62158W        W23612  10.842  13.639  13.057
62159W        W23613  34.583  18.754   1.302
62160W        W23614  29.531  31.939  11.473
62161W        W23615  17.706  37.831  13.359
62162W        W23616  31.082  19.160  10.992
62163W        W23617   1.382  20.656  10.975
62164W        W23618  19.719   6.190   0.769
62165W        W23619  13.110  16.684  12.431
62166W        W23620   2.316  20.653  11.460
62167W        W23621  16.185  38.031   1.886
62168W        W23622  23.507  25.662  12.459
62169W        W23623  31.609   8.266  14.374
62170W        W23624  36.541   7.877  11.884
62171W        W23625  42.429  44.805   1.418
62172W        W23626  10.854  34.605   0.931
62173W        W23627  30.014  17.617   4.348
62174W        W23628  41.421   5.297   3.635
62175W        W23629  32.956  24.531  13.938
62176W        W23630  37.968  31.507   3.655
62177W        W23631  32.424  34.379   3.668
62178W        W23632  36.935  36.910  13.034
62179W        W23633  10.691   3.742   3.241
62180W        W23634  16.759  19.199  11.923
62181W        W23635  15.631  13.818   5.583
62182W        W23636  30.417  39.555   4.326
62183W        W23637   9.705  19.607   4.803
62184W        W23638   7.769  29.964   1.439
62185W        W23639  16.611  37.399   3.318
62186W        W23640  17.265  15.729   1.812
62187W        W23641  39.012  28.043  12.834
62188W        W23642  17.115  21.577  14.920
62189W        W23643  17.141  19.173  12.005
62190W        W23644  39.503  42.418   1.711
62191W        W23645   2.451  14.831   1.439
62192W        W23646  12.818  19.215   4.173
62193W        W23647  39.810  41.454   3.841
62194W        W23648   6.242  29.067  11.998
62195W        W23649   8.397  35.853  11.032
62196W        W23650  10.731  24.209  14.802
62197W        W23651  18.197  11.747   2.256
62198W        W23652   0.776  10.711  10.467
62199W        W23653  28.133  20.689   2.199
62200W        W23654  13.787  36.367   0.806
62201W        W23655   4.392   4.859   0.273
62202W        W23656  31.482  23.198  14.514
62203W        W23657  19.215  19.685   0.416
62204W        W23658   7.290  10.642   4.819
62205W        W23659  18.569   1.859   1.733
62206W        W23660  42.403  21.071  12.375
62207W        W23661  19.571   5.438  11.965
62208W        W23662  11.636  20.049  12.564
62209W        W23663  30.059  22.188  11.494
62210W        W23664  41.897  15.710   4.829
62211W        W23665  23.701  43.428  11.431
62212W        W23666  32.426  18.106   3.715
62213W        W23667  28.945  17.171   4.181
62214W        W23668   5.913   2.886   0.324
62215W        W23669  21.695   2.785  14.421
62216W        W23670   7.338   1.827  11.961
62217W        W23671   7.667  40.489  12.554
62218W        W23672  30.075  24.031  14.354
62219W        W23673   5.848  19.165  11.584
62220W        W23674  18.665  12.667  10.141
62221W        W23675  12.676  12.756  14.301
62222W        W23676   0.873   3.422   0.292
62223W        W23677  41.418  41.887   0.950
62224W        W23678  25.977  30.414  14.466
62225W        W23679  37.000  16.721   1.702
62226W        W23680  15.321  40.352  14.780
62227W        W23681  32.889  30.947  13.806
62228W        W23682  30.157  23.083  14.817
62229W        W23683   1.930  32.501  13.014
62230W        W23684  42.987   6.263   3.268
62231W        W23685  28.053   4.858   3.720
62232W        W23686   7.331  34.945   3.166
62233W        W23687   3.912  44.995  12.032
62234W        W23688  18.702  30.625   2.411
62235W        W23689  18.592  35.039  13.381
62236W        W23690  26.600  17.154  10.612
62237W        W23691  26.067  24.584   3.173
62238W        W23692  13.152  25.493  10.516
62239W        W23693  30.156   3.783   0.887
62240W        W23694  35.859  30.506  11.955
62241W        W23695  34.465  14.340  14.985
62242W        W23696  39.315  42.334  11.383
62243W        W23697   0.780  37.414   2.692
62244W        W23698   2.433   3.453  13.341
62245W        W23699  34.931  35.539   0.409
62246W        W23700  11.732  19.062  11.084
62247W        W23701  41.845   9.223   1.768
62248W        W23702   7.296   1.909  14.824
62249W        W23703   5.895  28.164  12.058
62250W        W23704  13.710  35.993  12.442
62251W        W23705  24.133  10.719  10.416
62252W        W23706  42.004  17.647  14.378
62253W        W23707   3.269   5.901   3.213
62254W        W23708  14.595  13.733   3.385
62255W        W23709  21.188  31.461  11.570
62256W        W23710  30.985  21.168   3.358
62257W        W23711   3.934  24.108   1.420
62258W        W23712  39.819  35.071   2.732
62259W        W23713  25.103  25.964  12.987
62260W        W23714  44.759  43.393  11.068
62261W        W23715  18.249  10.647  11.045
62262W        W23716  27.597  43.015  11.500
62263W        W23717  43.893  23.196   1.259
62264W        W23718   0.811  39.552  14.978
62265W        W23719  10.340   6.815  10.496
62266W        W23720  37.386  24.618  12.986
62267W        W23721  15.306  37.504  13.881
62268W        W23722  38.900   7.357  13.422
62269W        W23723  34.880   0.890  11.409
62270W        W23724   3.829  17.684   3.230
62271W        W23725  32.514  41.852   3.187
62272W        W23726  19.652   9.194   0.746
62273W        W23727  19.665  17.265  13.350
62274W        W23728  24.587  34.062   1.223
62275W        W23729  37.038  42.792   4.802
62276W        W23730  34.916   3.370   4.268
62277W        W23731  26.492   8.226   5.139
62278W        W23732   0.490  20.550  12.383
62279W        W23733  36.847  34.887   0.920
62280W        W23734  22.552   6.282  13.477
62281W        W23735  39.394  33.407  10.944
62282W        W23736  32.140  11.774   1.742
62283W        W23737  19.264  13.717   4.164
62284W        W23738  42.809  42.320   4.343
62285W        W23739  42.495  20.575  11.121
62286W        W23740  41.408  18.674  14.012
62287W        W23741  24.119  10.222   1.866
62288W        W23742  16.697  41.518  11.395
62289W        W23743  29.589  27.595   3.782
62290W        W23744  26.150  20.604  13.427
62291W        W23745  27.525   5.222   1.776
62292W        W23746  28.533  44.500  13.326
62293W        W23747  21.051  34.956   1.342
62294W        W23748  26.047  11.848  14.941
62295W        W23749  19.638  27.454  14.913
62296W        W23750  33.526  29.446   4.666
62297W        W23751  31.140  40.915  14.777
62298W        W23752  21.566  43.943   3.225
62299W        W23753  10.856  42.513  10.641
62300W        W23754  30.544  38.056   0.768
62301W        W23755  26.689  16.675  10.548
62302W        W23756   2.296  17.757   3.705
62303W        W23757  31.907  32.612   4.173
62304W        W23758  19.683  44.390   0.415
62305W        W23759  32.045  42.852  13.817
62306W        W23760  11.330  35.591  11.587
62307W        W23761  11.244  37.545   1.311
62308W        W23762  38.041  36.971   3.713
62309W        W23763  12.118  34.027   1.696
62310W        W23764  31.023  30.945   1.253
62311W        W23765  19.128   0.862   4.635
62312W        W23766  11.699  29.560   0.728
62313W        W23767  22.227  33.612  14.366
62314W        W23768  38.879  25.156   2.698
62315W        W23769  29.060  40.459   2.303
62316W        W23770  13.323  31.516   3.325
62317W        W23771  33.491  24.479   3.865
62318W        W23772  29.080  26.132   0.888
62319W        W23773  35.073  41.367   0.856
62320W        W23774   5.376  18.109   0.456
62321W        W23775  25.606  10.706   0.463
62322W        W23776  35.464  33.024   0.792
62323W        W23777  23.734  34.397   0.298
62324W        W23778  21.101  22.680  11.862
62325W        W23779  15.106  40.306  11.573
62326W        W23780  34.478  15.313  10.415
62327W        W23781   4.300  19.228   0.732
62328W        W23782   5.247  13.765  12.547
62329W        W23783  32.032  36.861   1.890
62330W        W23784  34.920  31.083  11.924
62331W        W23785  22.603   6.704   5.086
62332W        W23786   3.720  25.142  12.481
62333W        W23787  31.114  40.380   1.699
62334W        W23788  42.970   9.756  12.368
62335W        W23789  11.640  31.974   4.286
62336W        W23790  20.628  24.081   4.749
62337W        W23791  25.692  25.984   3.805
62338W        W23792  42.466  43.513   2.252
62339W        W23793  33.486  19.178  10.998
62340W        W23794  24.070  34.863   4.784
62341W        W23795  15.660  14.298  14.504
62342W        W23796  16.656  13.162  13.837
62343W        W23797  39.432  39.520   3.324
62344W        W23798   1.837   1.809   0.426
62345W        W23799  32.009  39.456  14.981
62346W        W23800   4.758  10.333  12.896
62347W        W23801  43.457  18.250  10.539
62348W        W23802  11.231  16.769  14.894
62349W        W23803  42.847  39.452   4.826
62350W        W23804  40.827  20.182   0.881
62351W        W23805   6.804  23.122  14.008
62352W        W23806   0.896   2.308  10.947
62353W        W23807   5.842  42.852   3.345
62354W        W23808  11.342  30.517   0.955
62355W        W23809  19.536  11.730   1.800
62356W        W23810  11.333  28.657   4.203
62357W        W23811  13.653  39.012   3.751
62358W        W23812  10.633  29.432  14.872
62359W        W23813   5.924  28.558  11.085
62360W        W23814  42.401  40.804  13.407
62361W        W23815  34.493  29.584  11.559
62362W        W23816  12.177  25.141  10.482
62363W        W23817  22.663  16.652   0.313
62364W        W23818  37.384  43.869  10.506
62365W        W23819  28.094  37.934  11.446
62366W        W23820  27.979  11.255   3.262
62367W        W23821   9.238  27.593   4.714
62368W        W23822   0.983  32.056   3.655
62369W        W23823  23.509  21.202   2.780
62370W        W23824  14.320   0.464  10.459
62371W        W23825  44.362  35.027   4.755
62372W        W23826  37.579  41.297  15.000
62373W        W23827  34.104  21.628   0.921
62374W        W23828  18.204  37.830  14.322
62375W        W23829  18.139  19.202   2.334
62376W        W23830  39.528   2.266  13.899
62377W        W23831   3.935  28.181  14.352
62378W        W23832  24.229  26.657   0.280
62379W        W23833  42.899  35.071   5.086
62380W        W23834  32.405  29.053  10.644
62381W        W23835  44.906   8.219   3.273
62382W        W23836   6.398  38.871   0.336
62383W        W23837  35.103  43.471   0.337
62384W        W23838  23.667  12.668   0.301
62385W        W23839   1.261  12.270  13.020
62386W        W23840   0.379  11.838   1.797
62387W        W23841  40.943  27.584   3.167
62388W        W23842  41.528  11.202  11.390
62389W        W23843  40.307  29.549   4.759
62390W        W23844  32.118  19.197  13.366
62391W        W23845  17.589  22.626   0.254
62392W        W23846  30.127  23.551   0.771
62393W        W23847  21.045   1.857   3.720
62394W        W23848  28.540  31.999  12.490
62395W        W23849  19.212  25.489  14.797
62396W        W23850  27.080  14.791   4.239
62397W        W23851  30.521  24.173  14.979
62398W        W23852  26.028   7.908   1.447
62399W        W23853  28.064  23.061  14.991
62400W        W23854  26.204  16.127  10.607
62401W        W23855  37.834  27.124   1.790
62402W        W23856  26.196  27.588  11.442
62403W        W23857   7.379   1.446   3.276
62404W        W23858   1.299  32.969   1.783
62405W        W23859  24.554  38.982  11.047
62406W        W23860   0.403  31.535  10.960
62407W        W23861  42.966  14.200   0.825
62408W        W23862  28.112  11.137  13.022
62409W        W23863  30.604  40.906  10.458
62410W        W23864  27.103  42.308  12.375
62411W        W23865  14.589  21.182  12.982
62412W        W23866  13.327  20.746  11.015
62413W        W23867  26.700  25.542   0.951
62414W        W23868  16.587  37.855   4.615
62415W        W23869  19.241   5.922  10.994
62416W        W23870   9.205   1.374   0.280
62417W        W23871  10.188   3.270   1.870
62418W        W23872  25.096  41.861   1.767
62419W        W23873   1.430  37.887  14.998
62420W        W23874  39.355  27.658  14.359
62421W        W23875   4.262   1.877   1.411
62422W        W23876   2.322  12.797   2.377
62423W        W23877  40.530  42.309  11.914
62424W        W23878  14.223   1.474  12.881
62425W        W23879   7.836  26.636   4.637
62426W        W23880  24.590  30.985  14.808
62427W        W23881  21.093  20.642   5.268
62428W        W23882  29.167  22.577  12.448
62429W        W23883  14.281   1.768   4.278
62430W        W23884   3.874  36.409   3.308
62431W        W23885  19.083  34.488   4.244
62432W        W23886  20.577  18.721  14.452
62433W        W23887  24.071  32.547   0.780
62434W        W23888  41.019   0.299   2.236
62435W        W23889   4.378  21.589  10.452
62436W        W23890  17.668  32.104  14.367
62437W        W23891  27.585  22.068   5.801
62438W        W23892  15.139   5.720   0.256
62439W        W23893  36.521  10.175  11.446
62440W        W23894  12.269  17.269   9.597
62441W        W23895  36.941  41.021  11.435
62442W        W23896  33.576  14.625   3.382
62443W        W23897   6.376  32.057   5.168
62444W        W23898   4.395  35.551  13.454
62445W        W23899  36.431  36.455   0.423
62446W        W23900  42.910  25.511  13.980
62447W        W23901   6.900  34.024   0.448
62448W        W23902  36.020   2.916  14.827
62449W        W23903  33.521  41.967   3.208
62450W        W23904  11.369   0.960  14.983
62451W        W23905   8.659  41.503   4.628
62452W        W23906   4.219  43.465   3.722
62453W        W23907  40.857   2.785   2.689
62454W        W23908  20.704  30.079  11.087
62455W        W23909   5.287  24.683   4.123
62456W        W23910  43.865  40.965  11.039
62457W        W23911  22.196  25.015  10.542
62458W        W23912  11.328   8.813  14.341
62459W        W23913  36.919  26.193  13.001
62460W        W23914  29.972  41.875   0.930
62461W        W23915  18.558  13.611   4.651
62462W        W23916   8.174  12.351  13.374
62463W        W23917  11.151  32.950   4.760
62464W        W23918  30.432  36.458  10.615
62465W        W23919  40.972  18.749  13.442
62466W        W23920  17.114  33.391  11.075
62467W        W23921   7.178  18.651   4.780
62468W        W23922  16.646  17.665   1.423
62469W        W23923  24.552   4.895  12.457
62470W        W23924  27.677  41.907   1.418
62471W        W23925  43.911   2.766   0.797
62472W        W23926  30.592  43.413  14.287
62473W        W23927  12.131  13.742   4.767
62474W        W23928  13.263  30.044  12.551
62475W        W23929  35.878  11.643  11.378
62476W        W23930   8.662   7.681  12.824
62477W        W23931  28.982  27.146  13.371
62478W        W23932  38.998   9.395  10.619
62479W        W23933  43.899  35.060   1.265
62480W        W23934   6.765  12.626  14.870
62481W        W23935  18.584  34.501  14.910
62482W        W23936  31.089  42.959   3.372
62483W        W23937  20.609  42.938  13.436
62484W        W23938  25.152   1.309  14.830
62485W        W23939   7.896   4.925  14.789
62486W        W23940   8.869   4.423   4.694
62487W        W23941   2.293  23.601   3.676
62488W        W23942  26.541  20.169  13.041
62489W        W23943  20.768  41.333   0.299
62490W        W23944  30.647  20.133  14.896
62491W        W23945  40.486  22.054  10.978
62492W        W23946  34.446  27.985   4.319
62493W        W23947  15.693  13.680   0.892
62494W        W23948   6.237   5.373  14.464
62495W        W23949  24.188  43.492  14.921
62496W        W23950  24.718   6.350  11.374
62497W        W23951  34.382  37.874  12.392
62498W        W23952  28.494  42.989   1.885
62499W        W23953  40.319   5.329  12.918
62500W        W23954   4.391   8.738   2.700
62501W        W23955   3.892  30.591  10.581
62502W        W23956  11.134  44.884  13.061
62503W        W23957   5.390  32.929   4.352
62504W        W23958  12.358   5.370   4.311
62505W        W23959  16.647  40.512   0.402
62506W        W23960   0.939  43.932   4.784
62507W        W23961  38.907   7.297  14.887
62508W        W23962   7.771  20.233  10.456
62509W        W23963  26.985  38.399  11.914
62510W        W23964  33.560  43.323  11.510
62511W        W23965  17.607   4.733  11.455
62512W        W23966  23.104  40.423   1.933
62513W        W23967  31.491  13.625  10.975
62514W        W23968  24.573  25.024   3.768
62515W        W23969  31.088  42.970  11.014
62516W        W23970   3.949  39.857  12.917
62517W        W23971   5.295  42.791   0.870
62518W        W23972   7.327   0.863   2.401
62519W        W23973  33.879  22.642   9.929
62520W        W23974   3.258   0.950   2.833
62521W        W23975   4.415   8.865  13.474
62522W        W23976  26.128  39.911  10.608
62523W        W23977   7.713   6.402   0.919
62524W        W23978  24.546   7.274  12.417
62525W        W23979   5.933  17.175   0.847
62526W        W23980  43.470  24.689  12.851
62527W        W23981  12.648   7.738  11.059
62528W        W23982   3.816  42.514   4.715
62529W        W23983  33.473   7.898  12.996
62530W        W23984  24.190  27.160  12.075
62531W        W23985  29.046  23.718  13.892
62532W        W23986  44.430   4.735   2.683
62533W        W23987   2.367  20.108  10.974
62534W        W23988  21.534   5.800  13.404
62535W        W23989  38.849  32.089  10.941
62536W        W23990  28.643  12.792  12.530
62537W        W23991  36.003  12.854   4.139
62538W        W23992  35.041   4.264   4.230
62539W        W23993  27.503  44.432  14.010
62540W        W23994  21.739  17.151   4.818
62541W        W23995  18.777  39.546  13.049
62542W        W23996   7.905  43.915   4.132
62543W        W23997  27.470  21.563   1.239
62544W        W23998  22.695  16.170   2.360
62545W        W23999  42.521  29.003  12.861
62546W        W24000  25.972  19.237   3.351
62547W        W24001  43.954   8.218   4.201
62548W        W24002  21.179  24.062  14.028
62549W        W24003  19.244  15.133   0.730
62550W        W24004  21.261  41.991  12.007
62551W        W24005  12.712  42.327  11.950
62552W        W24006  13.292  15.256   0.389
62553W        W24007  43.377  35.914  13.009
62554W        W24008  29.141  40.891   3.225
62555W        W24009   7.725  20.215  11.115
62556W        W24010  17.214  38.451  13.901
62557W        W24011  21.698  22.653   0.772
62558W        W24012  10.307  19.141   5.570
62559W        W24013   1.931  43.988   0.380
62560W        W24014  35.486  14.113  13.889
62561W        W24015  38.850  11.740  11.607
62562W        W24016  10.183  34.053   1.359
62563W        W24017   7.698  19.621   1.404
62564W        W24018  14.663  29.568  10.466
62565W        W24019  31.104  39.847   0.343
62566W        W24020  21.653  17.751  11.922
62567W        W24021  30.930  36.865   3.752
62568W        W24022  26.978   3.860   0.480
62569W        W24023  42.860  30.941   4.134
62570W        W24024  39.522   6.251   3.341
62571W        W24025   5.219  37.551   4.759
62572W        W24026  35.006  38.921  13.926
62573W        W24027   6.412  24.634  12.517
62574W        W24028  16.099  29.586  13.398
62575W        W24029  11.246  39.496   2.283
62576W        W24030  20.720  13.276   2.407
62577W        W24031  13.670  28.982   3.256
62578W        W24032  18.726  27.052  14.388
62579W        W24033  17.066   9.310   0.274
62580W        W24034   5.349   8.730  13.415
62581W        W24035  31.897  24.670   0.437
62582W        W24036   7.799  15.163  12.056
62583W        W24037   7.303  18.783  14.394
62584W        W24038  14.656  44.793   3.331
62585W        W24039   6.920  36.412  14.384
62586W        W24040  13.737  33.492  13.043
62587W        W24041  30.133  20.195   2.831
62588W        W24042  40.504  30.027  14.975
62589W        W24043  20.152  23.727  14.495
62590W        W24044  34.093  21.205   0.880
62591W        W24045  21.038   9.247   1.253
62592W        W24046   3.295  16.731   1.278
62593W        W24047  15.141  16.091  13.893
62594W        W24048  26.509  35.012   2.227
62595W        W24049  29.555  16.107  14.492
62596W        W24050   1.972  23.716  13.378
62597W        W24051   6.676   7.214   1.697
62598W        W24052  16.670  41.483   2.235
62599W        W24053  15.141  30.061  12.493
62600W        W24054   9.745  32.046  13.907
62601W        W24055  18.601  26.169  14.805
62602W        W24056  32.945   9.649  13.488
62603W        W24057  13.166  29.111   4.722
62604W        W24058  41.426   6.212   2.739
62605W        W24059  32.475   2.391  10.608
62606W        W24060   1.312  26.665  14.024
62607W        W24061  32.462   4.741   1.211
62608W        W24062  22.997   9.288   0.754
62609W        W24063  26.039  32.595  10.012
62610W        W24064  35.459  14.213   2.303
62611W        W24065  40.978  35.419   1.247
62612W        W24066  36.575  40.820   2.847
62613W        W24067   6.182  42.836   4.643
62614W        W24068  29.426   2.432  14.956
62615W        W24069  28.063  22.040   2.746
62616W        W24070  10.697  38.459  10.517
62617W        W24071  26.101  19.043   0.358
62618W        W24072  25.965  25.707  11.875
62619W        W24073   9.729   4.818  10.483
62620W        W24074   0.332   8.227  13.482
62621W        W24075  24.167  33.901   4.190
62622W        W24076  15.207  13.144  13.904
62623W        W24077  40.546  31.076   1.819
62624W        W24078  21.696  17.688  14.498
62625W        W24079   5.386  39.978  10.581
62626W        W24080   2.442  37.485  12.895
62627W        W24081  35.055  10.231  13.423
62628W        W24082  41.515  39.315   0.908
62629W        W24083  32.488  19.188  11.411
62630W        W24084  20.174   3.357   0.440
62631W        W24085   7.892  32.008   1.432
62632W        W24086  24.975  29.996  14.831
62633W        W24087  10.676   3.900   4.607
62634W        W24088  39.875  34.440   0.857
62635W        W24089   8.318  31.599  12.861
62636W        W24090  14.657  17.281   0.908
62637W        W24091   2.288  44.346   2.781
62638W        W24092  39.415  11.277   0.956
62639W        W24093  28.047  21.097   1.847
62640W        W24094  15.274  22.041  13.847
62641W        W24095  39.003   3.940  13.508
62642W        W24096  26.052  14.811   3.814
62643W        W24097  11.794   7.173   3.777
62644W        W24098  17.196  36.561   1.258
62645W        W24099  33.126  27.101   3.277
62646W        W24100  17.240  24.528   2.884
62647W        W24101  41.353  41.348   0.871
62648W        W24102  39.980   1.479  12.029
62649W        W24103  40.418  41.020   2.299
62650W        W24104  32.438  44.400   1.784
62651W        W24105  40.831  11.663   4.755
62652W        W24106  42.315  30.031   3.725
62653W        W24107  12.295  36.912  10.634
62654W        W24108   1.868  26.173  11.518
62655W        W24109  35.463  20.588   2.210
62656W        W24110  23.023  41.029  11.866
62657W        W24111  26.677  11.249  14.784
62658W        W24112  26.046  11.652  14.502
62659W        W24113  42.787   4.832  13.938
62660W        W24114  37.033  18.549  14.472
62661W        W24115   0.775  32.397   0.458
62662W        W24116  18.642   6.209   3.249
62663W        W24117   7.755  15.697   1.922
62664W        W24118  39.004  38.820  11.888
62665W        W24119  36.998   5.870   4.285
62666W        W24120   7.348  36.098  12.424
62667W        W24121   0.457  28.098   3.185
62668W        W24122  39.525  31.598   0.774
62669W        W24123  15.235  43.426   2.785
62670W        W24124  29.551   2.962  10.094
62671W        W24125   7.808  20.531  11.889
62672W        W24126  44.845  35.027  12.846
62673W        W24127   4.926  29.949  12.839
62674W        W24128  30.143  44.994   3.847
62675W        W24129  13.803  31.969  10.425
62676W        W24130   2.246  26.645  12.403
62677W        W24131   4.312  43.004  14.373
62678W        W24132  33.910  14.153   3.742
62679W        W24133  27.461  12.660   4.181
62680W        W24134  17.272  38.413  12.864
62681W        W24135  13.760  43.961  12.431
62682W        W24136  23.102  31.019   3.647
62683W        W24137  31.461  33.609   1.746
62684W        W24138  44.459  14.800   0.277
62685W        W24139  13.153  12.302   4.155
62686W        W24140  38.043  15.758  12.381
62687W        W24141  44.356  43.782   3.753
62688W        W24142  12.771  30.907   3.368
62689W        W24143   4.375  14.745  10.444
62690W        W24144  33.441  29.128   0.395
62691W        W24145   3.394  24.531  10.966
62692W        W24146  17.275  38.845  14.028
62693W        W24147  38.822  12.199   2.189
62694W        W24148   4.815  21.585   2.702
62695W        W24149  33.052  28.543   2.331
62696W        W24150  10.769  19.111   3.333
62697W        W24151  24.029  32.622  14.471
62698W        W24152  32.892  42.420  11.531
62699W        W24153  10.863   7.283  14.917
62700W        W24154  43.432   2.851   3.347
62701W        W24155  11.708  40.969  14.453
62702W        W24156  44.343  15.600  14.354
62703W        W24157  12.266  43.432   1.363
62704W        W24158  15.702  41.811   1.928
62705W        W24159  43.421  41.998   1.864
62706W        W24160  11.320  28.183   2.719
62707W        W24161  29.630  27.587   2.310
62708W        W24162  15.655  29.640  10.954
62709W        W24163  32.912   1.371  12.353
62710W        W24164  30.449   9.235  10.988
62711W        W24165  14.760  27.152  11.956
62712W        W24166   7.399  31.462   0.949
62713W        W24167  14.197  44.937  13.455
62714W        W24168   9.183   2.777   4.134
62715W        W24169  20.255   6.279  13.340
62716W        W24170   4.247  42.913  10.998
62717W        W24171  13.239   0.825   1.704
62718W        W24172  27.962  32.015   2.244
62719W        W24173  23.586   1.748  14.018
62720W        W24174  40.514   9.849  11.052
62721W        W24175  37.544  38.937   1.860
62722W        W24176  41.835  18.683  12.427
62723W        W24177  14.630   9.390  13.904
62724W        W24178  37.514   3.274   4.318
62725W        W24179  40.330  40.972   0.784
62726W        W24180  40.983  36.371   0.440
62727W        W24181  10.771  20.553  10.905
62728W        W24182  13.146  33.015   3.320
62729W        W24183  16.072  39.048  10.007
62730W        W24184  39.458  15.154  13.324
62731W        W24185  10.649   5.736   2.353
62732W        W24186  38.952   3.259   2.902
62733W        W24187   1.370  29.511   2.691
62734W        W24188  20.186  42.496  14.425
62735W        W24189  29.511  34.097  14.449
62736W        W24190  31.103  39.000  11.565
62737W        W24191  17.242  23.594  12.960
62738W        W24192  11.797  44.436  10.457
62739W        W24193  16.075  35.919  13.346
62740W        W24194   6.805  32.620  13.343
62741W        W24195  12.693  14.594   1.368
62742W        W24196  25.603   7.209   2.896
62743W        W24197  11.657  39.535   3.232
62744W        W24198   7.228  36.941   4.299
62745W        W24199  21.659  27.036  11.420
62746W        W24200  20.683   2.831  12.987
62747W        W24201  38.828  31.630  10.032
62748W        W24202  44.900  13.313  11.399
62749W        W24203  37.503  21.202  14.414
62750W        W24204   6.286  24.224  14.370
62751W        W24205  38.568  10.789  12.488
62752W        W24206   8.197  28.559  11.371
62753W        W24207  17.138  11.365   0.796
62754W        W24208   8.848  40.313   2.760
62755W        W24209   3.328   4.698  13.854
62756W        W24210   7.880  15.738  11.939
62757W        W24211  33.501  22.152   2.320
62758W        W24212  38.048  33.060   4.168
62759W        W24213  43.939   9.267  10.527
62760W        W24214  18.780  15.145  14.966
62761W        W24215  17.774   1.964  11.083
62762W        W24216  24.013  39.511  10.506
62763W        W24217  20.254  41.359   2.685
62764W        W24218  38.537  16.225  13.926
62765W        W24219  43.362  15.600   0.266
62766W        W24220  10.741  43.313   1.695
62767W        W24221  35.421  27.029  12.485
62768W        W24222  33.932  21.533  10.576
62769W        W24223  14.239  42.963   2.818
62770W        W24224  11.223  20.549  10.586
62771W        W24225  38.558   2.734   1.373
62772W        W24226  44.260   2.415  13.993
62773W        W24227  10.320   9.738   2.738
62774W        W24228  10.202  44.344   2.900
62775W        W24229  29.573   8.339  13.833
62776W        W24230  18.711  13.311  10.055
62777W        W24231  10.323   5.840   0.374
62778W        W24232  32.085   4.260  11.966
62779W        W24233   6.837   5.773  12.920
62780W        W24234   8.256   9.744   0.356
62781W        W24235  43.361  33.407  13.929
62782W        W24236  34.985   9.345  14.016
62783W        W24237  36.364  26.533  10.089
62784W        W24238  16.226  13.234  13.493
62785W        W24239  44.899  14.697   2.270
62786W        W24240  32.501   1.896  12.018
62787W        W24241  10.700  22.577  10.594
62788W        W24242   7.380  35.461  10.905
62789W        W24243  10.192  22.066   3.182
62790W        W24244  11.250  31.563   2.365
62791W        W24245  36.387   3.353  10.412
62792W        W24246  25.007  39.529  11.373
62793W        W24247   5.396  42.954   4.807
62794W        W24248   6.790  31.462  10.505
62795W        W24249  38.564  37.435   3.728
62796W        W24250  36.583  25.650   4.282
62797W        W24251  11.804  21.116   9.957
62798W        W24252  40.806  34.876  14.285
62799W        W24253  10.693  27.986  11.068
62800W        W24254  29.562  25.468   3.668
62801W        W24255  15.183  41.494   0.826
62802W        W24256   4.853   1.366   4.631
62803W        W24257  34.025  33.922  12.373
62804W        W24258  25.560  31.970  13.897
62805W        W24259   8.216  36.911  13.991
62806W        W24260   9.753  13.799  14.411
62807W        W24261  39.320  32.506   0.397
62808W        W24262  40.973  39.385   2.246
62809W        W24263  11.743   0.952   5.119
62810W        W24264  36.390  39.861   0.844
62811W        W24265  13.245  28.162   4.350
62812W        W24266  30.449   6.906  13.856
62813W        W24267   8.335   4.929   0.350
62814W        W24268   2.957   4.870   2.367
62815W        W24269  22.509   2.438   3.678
62816W        W24270  25.498  20.100   0.927
62817W        W24271  37.468  17.777   2.230
62818W        W24272  35.493  44.986  13.839
62819W        W24273  29.646   8.740   2.729
62820W        W24274  41.873  28.573  14.778
62821W        W24275  40.304  28.600  14.455
62822W        W24276  30.100  35.570   2.682
62823W        W24277  13.742  11.629  11.902
62824W        W24278  26.151   9.852   0.372
62825W        W24279  32.540  26.682   4.725
62826W        W24280  33.901  31.037  11.976
62827W        W24281  21.173  28.560   1.218
62828W        W24282   6.765  23.595   1.366
62829W        W24283   9.264  26.617  13.964
62830W        W24284  24.206  16.255   1.704
62831W        W24285  14.753  11.196  11.374
62832W        W24286  12.754  41.886   2.329
62833W        W24287   8.309  37.374  12.848
62834W        W24288  12.341  25.510  12.541
62835W        W24289   8.193   3.766   4.302
62836W        W24290  32.935  15.628  14.848
62837W        W24291  26.037  28.151  10.452
62838W        W24292   6.921  11.678   3.670
62839W        W24293  29.976   4.942   5.174
62840W        W24294  10.318  21.066   0.862
62841W        W24295  17.670  29.989   2.237
62842W        W24296   7.901  44.476  10.513
62843W        W24297  33.883  35.381  11.943
62844W        W24298   8.272  30.972   1.307
62845W        W24299   2.389  29.559   1.891
62846W        W24300  19.649  18.762   4.174
62847W        W24301  31.898   7.317  14.275
62848W        W24302  40.899  14.174  11.041
62849W        W24303  12.182  15.148   0.749
62850W        W24304   3.378   8.255  12.554
62851W        W24305  28.627  33.063   1.855
62852W        W24306  34.376  34.863   1.214
62853W        W24307   2.341  38.021   1.734
62854W        W24308  22.516  13.661  13.892
62855W        W24309  28.480  10.700   1.729
62856W        W24310  37.498  12.327  14.370
62857W        W24311  33.126   7.717  12.496
62858W        W24312  37.928  16.206  13.960
62859W        W24313   1.256   7.878   0.785
62860W        W24314  44.410  34.033   3.640
62861W        W24315  42.490  18.688  12.382
62862W        W24316  18.089  44.005  14.814
62863W        W24317   7.817  31.595  11.934
62864W        W24318   6.267  19.155  10.520
62865W        W24319  44.953  35.564   0.481
62866W        W24320  13.179   1.936  12.379
62867W        W24321   0.404   9.314  13.463
62868W        W24322  10.236  38.926   4.325
62869W        W24323  27.995  39.359  10.478
62870W        W24324  12.726  13.234  13.987
62871W        W24325  18.720  30.421   5.085
62872W        W24326  14.134  16.152   0.309
62873W        W24327   2.251  14.143  12.395
62874W        W24328  36.052  21.101  13.035
62875W        W24329  39.395  25.577  10.585
62876W        W24330  12.147  42.495  11.465
62877W        W24331  41.041  12.316  11.989
62878W        W24332  24.026  42.331  14.506
62879W        W24333  33.879  44.945  14.998
62880W        W24334  40.918  42.959   3.810
62881W        W24335   9.722  36.591   3.863
62882W        W24336   2.400  11.152   2.767
62883W        W24337  29.568   5.800   3.307
62884W        W24338   0.939   3.447   3.735
62885W        W24339  18.607  32.117   4.315
62886W        W24340  33.989  14.262   1.836
62887W        W24341   2.349  30.064  12.945
62888W        W24342  38.390  25.082   0.335
62889W        W24343  30.514  32.620   0.479
62890W        W24344  40.372   1.937   1.718
62891W        W24345  25.172  26.052  11.897
62892W        W24346  36.015   4.907   3.346
62893W        W24347  30.972  17.712  10.497
62894W        W24348  15.759   4.885  13.818
62895W        W24349  26.592  21.109   5.089
62896W        W24350   1.941  40.366   1.387
62897W        W24351  33.512  28.548  13.907
62898W        W24352  29.086  14.688   1.417
62899W        W24353  33.940  30.445   3.162
62900W        W24354  15.319   0.970  11.982
62901W        W24355  13.780   0.295  11.404
62902W        W24356  12.305  18.250   0.315
62903W        W24357  20.158  35.590  12.421
62904W        W24358   2.963  18.131  14.506
62905W        W24359  16.636  29.095   4.292
62906W        W24360  10.296  14.618  11.533
62907W        W24361  19.667  41.436   3.230
62908W        W24362  40.843   4.890  13.479
62909W        W24363  42.314  41.799   4.722
62910W        W24364  39.316  12.217   4.260
62911W        W24365  10.317   5.757   2.789
62912W        W24366  18.192  15.590  14.283
62913W        W24367   6.908  11.196  11.489
62914W        W24368  41.848   2.948   1.920
62915W        W24369  28.095  17.722   4.629
62916W        W24370  39.536  35.995  12.010
62917W        W24371   5.848   4.331   4.707
62918W        W24372  12.139   9.335   3.282
62919W        W24373  39.826  28.961  12.905
62920W        W24374  36.093  31.099  14.926
62921W        W24375  35.460   1.454  14.824
62922W        W24376  21.245  18.075  12.371
62923W        W24377  42.288  25.560  11.886
62924W        W24378  15.102  12.778  13.009
62925W        W24379  11.155  24.538  13.342
62926W        W24380   6.873  37.937  12.894
62927W        W24381  26.993  34.109   2.774
62928W        W24382  42.449  35.975   1.918
62929W        W24383   4.325   6.907  13.917
62930W        W24384  12.814  21.213  10.073
62931W        W24385  36.395  35.594  11.917
62932W        W24386  16.078  10.719   2.323
62933W        W24387   0.443  36.533  11.002
62934W        W24388  36.513  39.545   4.704
62935W        W24389  39.895   6.301   4.331
62936W        W24390  14.787  41.873  11.933
62937W        W24391  28.039  31.589   1.902
62938W        W24392  36.441  35.576   1.431
62939W        W24393  14.708  26.955  13.308
62940W        W24394   1.857  39.034  12.392
62941W        W24395   1.276  39.556  14.863
62942W        W24396   7.818   4.810   0.288
62943W        W24397  35.079  33.054  12.390
62944W        W24398  39.510  30.567   1.413
62945W        W24399  37.991  37.567   5.126
62946W        W24400  17.700   5.419  12.506
62947W        W24401  20.210  14.284  13.056
62948W        W24402   7.316  37.933   3.169
62949W        W24403  43.915  44.368  13.465
62950W        W24404  26.694   3.442  13.474
62951W        W24405  23.191   1.368   2.815
62952W        W24406  28.146  16.635   3.175
62953W        W24407   4.836  15.687   4.677
62954W        W24408  36.433   6.729  11.471
62955W        W24409  18.165  27.117   3.841
62956W        W24410   4.215  13.324  14.903
62957W        W24411   3.225  12.326  12.090
62958W        W24412   8.876  24.197   3.839
62959W        W24413   3.424  40.869  10.520
62960W        W24414  39.808  23.211  13.056
62961W        W24415  15.298   7.768   2.676
62962W        W24416  15.215  17.083   1.891
62963W        W24417  25.515  40.053  12.083
62964W        W24418  14.705   4.828  12.363
62965W        W24419  41.362  26.207  12.445
62966W        W24420  27.689  24.011  12.016
62967W        W24421  44.874  20.557  12.506
62968W        W24422  44.278  19.175  10.641
62969W        W24423  42.944  13.618  12.409
62970W        W24424  33.572  44.911  10.535
62971W        W24425  32.620  11.144  12.544
62972W        W24426  29.965   5.750  14.910
62973W        W24427  27.035   1.262  10.138
62974W        W24428  30.601  11.358  12.987
62975W        W24429   7.862   3.434  12.000
62976W        W24430   3.837  35.603  13.512
62977W        W24431  11.346  34.601   1.249
62978W        W24432  19.747  28.058  14.395
62979W        W24433  29.055  14.623  11.605
62980W        W24434   9.705   9.289  13.027
62981W        W24435  41.857  42.480  14.467
62982W        W24436  22.039  40.430   3.727
62983W        W24437  30.101  21.553   3.830
62984W        W24438  38.973  32.587  13.835
62985W        W24439  12.766   8.871   0.268
62986W        W24440  40.330   9.191  12.042
62987W        W24441  16.619  16.153  14.971
62988W        W24442  26.131  25.628   0.301
62989W        W24443   5.227  27.483   3.204
62990W        W24444  15.127  12.783   2.312
62991W        W24445  14.707  14.273  11.091
62992W        W24446  42.864  37.466  13.500
62993W        W24447  38.506  30.973   4.671
62994W        W24448  19.732  16.289  14.796
62995W        W24449  41.888  20.763   0.347
62996W        W24450  11.735  23.619   3.777
62997W        W24451  26.567  25.993   2.400
62998W        W24452   2.855  15.087  14.861
62999W        W24453   5.740  20.568   4.689
63000W        W24454  14.241   2.910  14.785
63001W        W24455  43.313  26.031  13.359
63002W        W24456   0.826  39.857   3.643
63003W        W24457  33.912  30.527   3.744
63004W        W24458   6.912   1.441   4.299
63005W        W24459  16.231  34.043   1.779
63006W        W24460  22.223  43.270  14.423
63007W        W24461   7.322  41.458   1.291
63008W        W24462   5.690  39.384  11.526
63009W        W24463  36.571  39.997   3.838
63010W        W24464  15.709  33.043   0.405
63011W        W24465  21.622  29.586  12.502
63012W        W24466  17.653  35.465  14.952
63013W        W24467   9.674  20.747   3.176
63014W        W24468   5.284  27.621   2.729
63015W        W24469  19.625  42.350   1.280
63016W        W24470  12.269  24.680  11.580
63017W        W24471  42.022  25.137   2.836
63018W        W24472  39.868  35.533   4.277
63019W        W24473  18.177  15.660  11.974
63020W        W24474  27.046  43.502   2.802
63021W        W24475  11.220  21.737   2.732
63022W        W24476  14.161   4.357   2.186
63023W        W24477  41.854   3.353   3.359
63024W        W24478  36.361  30.559   1.382
63025W        W24479  12.169  24.593   2.196
63026W        W24480  30.951  23.637   4.753
63027W        W24481  37.831  22.064   2.861
63028W        W24482  41.363   9.221   4.261
63029W        W24483  33.486   3.722   4.124
63030W        W24484  34.922  14.263   1.777
63031W        W24485  27.553  23.533  13.939
63032W        W24486  23.678  26.493  11.574
63033W        W24487  44.884  25.068  12.846
63034W        W24488  43.770  30.068   0.279
63035W        W24489   0.430   7.185   0.755
63036W        W24490  33.914  23.578  13.808
63037W        W24491  31.900   1.941  11.430
63038W        W24492  12.834   9.716   3.846
63039W        W24493   3.361   5.745   0.782
63040W        W24494  19.271  11.823   4.692
63041W        W24495  17.564  17.556  14.927
63042W        W24496  19.235  10.219  10.421
63043W        W24497  41.912  10.737  11.902
63044W        W24498  17.169   0.476  12.892
63045W        W24499  20.050  33.466  14.400
63046W        W24500  33.941  28.164   3.306
63047W        W24501  21.137  34.386   1.253
63048W        W24502  40.910  27.528   0.424
63049W        W24503  13.747   7.844  14.808
63050W        W24504  13.119  24.512   2.749
63051W        W24505  43.480  42.914  13.466
63052W        W24506  32.491  36.069  13.807
63053W        W24507   3.278  27.497   4.676
63054W        W24508   1.770  43.873   0.874
63055W        W24509  44.971  11.629  10.957
63056W        W24510  28.457  28.563  10.493
63057W        W24511   2.338  11.312   3.804
63058W        W24512  15.134   2.943   0.892
63059W        W24513   5.277  18.288   2.306
63060W        W24514  13.315   7.808  11.096
63061W        W24515  40.914  42.492  11.428
63062W        W24516  34.881  22.235   0.798
63063W        W24517   4.807  11.146  14.922
63064W        W24518  33.078  21.545   2.829
63065W        W24519  33.952   9.318   0.897
63066W        W24520   0.332  31.958   1.379
63067W        W24521  23.042   0.789   3.756
63068W        W24522  23.196  26.198   0.898
63069W        W24523   7.392  26.457  11.594
63070W        W24524  36.954  29.464   4.839
63071W        W24525  33.575   1.356  13.339
63072W        W24526  39.437  26.540  11.024
63073W        W24527   4.278  24.217  10.922
63074W        W24528  18.201  14.281  12.064
63075W        W24529  28.126   8.268  10.048
63076W        W24530  23.604  18.564   4.264
63077W        W24531  42.811  32.513  12.883
63078W        W24532  21.146  29.988  13.433
63079W        W24533  21.239  13.762  14.321
63080W        W24534  17.225   2.312   0.886
63081W        W24535  21.253  37.989   2.670
63082W        W24536   1.871   9.264  10.454
63083W        W24537   5.835  29.428   2.856
63084W        W24538  19.566  24.613   0.254
63085W        W24539  33.007   3.416  13.547
63086W        W24540  35.534   2.735  12.956
63087W        W24541  10.280  10.801   4.620
63088W        W24542   4.416  35.497   2.706
63089W        W24543   5.811  41.865   1.798
63090W        W24544  42.868  32.418   1.362
63091W        W24545  44.478  40.053  12.377
63092W        W24546  13.643  39.476   2.901
63093W        W24547  16.181  13.794   1.374
63094W        W24548   1.756   7.345   4.132
63095W        W24549   1.910  32.966  12.836
63096W        W24550  42.016  10.315   3.192
63097W        W24551  15.304  42.350  12.447
63098W        W24552  11.846   4.301  10.518
63099W        W24553  20.133  44.266   3.680
63100W        W24554  32.091  25.172  11.864
63101W        W24555  35.373  39.995   4.176
63102W        W24556  33.516  19.238  12.346
63103W        W24557   1.404   7.299   1.866
63104W        W24558  44.427  30.938  11.583
63105W        W24559  18.695  32.590  10.984
63106W        W24560   4.707   3.379  13.317
63107W        W24561  25.607  28.983  11.113
63108W        W24562  28.974   8.259  11.469
63109W        W24563  30.149  38.043  10.914
63110W        W24564  43.922  42.994  12.930
63111W        W24565  43.845   5.788  12.088
63112W        W24566  10.137  23.614   0.779
63113W        W24567  30.420  33.096   2.846
63114W        W24568  25.615  23.193   3.869
63115W        W24569   9.827  16.226   3.237
63116W        W24570  35.977  17.706   0.342
63117W        W24571  27.085   8.379  11.964
63118W        W24572  34.931  40.381   3.787
63119W        W24573   8.886  16.152  13.889
63120W        W24574   7.386  17.118   0.942
63121W        W24575  13.680  12.289  12.986
63122W        W24576  25.577  31.014   0.843
63123W        W24577  18.129  27.467  13.862
63124W        W24578  31.542  37.979  14.499
63125W        W24579  17.251  19.655  12.908
63126W        W24580  30.086  43.345   2.847
63127W        W24581   6.377  14.629  14.399
63128W        W24582  26.637   4.404   2.719
63129W        W24583  42.842  14.687  14.004
63130W        W24584  30.069  39.915   0.883
63131W        W24585   6.240   8.664   2.201
63132W        W24586  28.608   6.371   1.261
63133W        W24587   8.201  28.042  12.964
63134W        W24588  38.517  17.272  14.966
63135W        W24589  44.477  33.579   2.229
63136W        W24590   0.262  21.615   4.792
63137W        W24591  19.600   2.755   2.893
63138W        W24592  26.190  24.553   9.608
63139W        W24593  14.786   1.925  10.417
63140W        W24594  21.732  35.098   4.746
63141W        W24595  36.005  28.121   2.236
63142W        W24596   5.422  37.990  14.023
63143W        W24597  26.161   5.893   0.824
63144W        W24598  16.634  29.027   1.906
63145W        W24599  21.213  33.486   1.929
63146W        W24600  24.586  26.693   3.202
63147W        W24601  22.521   4.909  13.457
63148W        W24602  41.792  36.463  10.897
63149W        W24603  17.115  17.589  13.363
63150W        W24604  27.055   7.895  11.430
63151W        W24605  28.454  23.130  13.858
63152W        W24606  32.069  36.962   5.258
63153W        W24607  23.717  35.914  14.370
63154W        W24608  37.836  44.939  11.099
63155W        W24609  39.887   5.354   2.793
63156W        W24610  21.149   0.387   3.680
63157W        W24611   3.317  39.537   4.129
63158W        W24612  44.907  16.791  11.437
63159W        W24613  26.108   9.148  12.831
63160W        W24614  21.041  20.732   4.186
63161W        W24615  24.049  14.628   2.809
63162W        W24616  43.329   4.826  12.040
63163W        W24617  10.709  21.707  14.484
63164W        W24618  20.087  41.825  13.528
63165W        W24619  33.500  44.450   0.261
63166W        W24620  15.637  11.690  10.566
63167W        W24621  37.840  35.886  13.884
63168W        W24622  13.651  24.082  13.332
63169W        W24623  27.562  26.687  10.616
63170W        W24624   7.859  23.050  13.440
63171W        W24625  30.101  33.898   0.957
63172W        W24626  11.197  30.010  11.431
63173W        W24627  19.081   1.970  13.064
63174W        W24628   6.790  23.165   3.800
63175W        W24629  40.832  27.459  12.898
63176W        W24630  38.057  28.631   3.308
63177W        W24631  13.669  43.465  14.763
63178W        W24632   4.718  14.100  14.415
63179W        W24633  12.674  40.377   0.761
63180W        W24634   7.258  26.971  14.848
63181W        W24635  22.597   5.742  12.095
63182W        W24636  23.203  31.587  12.393
63183W        W24637  27.467  38.488  13.461
63184W        W24638  11.760  36.876   4.327
63185W        W24639  30.435   7.674   2.750
63186W        W24640  18.613  18.643   3.232
63187W        W24641  20.750  26.530   2.716
63188W        W24642   6.881  30.538   4.244
63189W        W24643  10.671  30.055  14.454
63190W        W24644  38.483  31.982  11.069
63191W        W24645  16.155   8.659  14.997
63192W        W24646  14.802  25.985  12.905
63193W        W24647  38.453  37.005  14.852
63194W        W24648   9.699  18.640   4.186
63195W        W24649  40.847   2.294  12.957
63196W        W24650   5.392  11.282  12.902
63197W        W24651  34.436  30.576   0.848
63198W        W24652  29.125  30.652   2.712
63199W        W24653  13.141  37.416  14.429
63200W        W24654  44.843   6.396  13.053
63201W        W24655  23.519  11.269   2.823
63202W        W24656  21.659  23.228   4.181
63203W        W24657  21.191  36.586   1.414
63204W        W24658  10.332   6.783   5.314
63205W        W24659  16.717  43.787   3.378
63206W        W24660  31.971  24.088   4.207
63207W        W24661  43.016  19.119   1.291
63208W        W24662   1.817  31.038   3.797
63209W        W24663  26.498   9.234   2.835
63210W        W24664  43.305   3.738  14.834
63211W        W24665  12.643  22.606  13.515
63212W        W24666  40.878   8.830   4.626
63213W        W24667  30.100  12.210  13.352
63214W        W24668  43.426  43.811  12.957
63215W        W24669  17.098  23.564   5.171
63216W        W24670   9.160  35.596   0.293
63217W        W24671  14.673  19.616   5.716
63218W        W24672   8.402  29.963   0.456
63219W        W24673  38.856  35.856   0.826
63220W        W24674  39.518   7.323  10.424
63221W        W24675  33.881  35.860   2.183
63222W        W24676  23.985  35.463  14.882
63223W        W24677   5.824  22.713  14.024
63224W        W24678   2.269  15.102   1.903
63225W        W24679  37.498   2.449   2.406
63226W        W24680  32.520  35.077   1.375
63227W        W24681  38.976  40.306  14.770
63228W        W24682  26.097  34.006   3.825
63229W        W24683  29.460   8.306   3.150
63230W        W24684   2.751  38.927  14.453
63231W        W24685  43.975   2.439   1.702
63232W        W24686   6.254  15.780  11.996
63233W        W24687  44.850  33.902   0.877
63234W        W24688  35.424  35.417  13.878
63235W        W24689  29.126   5.223  10.915
63236W        W24690  11.661  18.203   3.224
63237W        W24691   1.750  21.657   0.781
63238W        W24692   5.201  31.634  14.310
63239W        W24693  32.093  33.920   4.676
63240W        W24694  44.874  29.597  11.464
63241W        W24695   5.320  35.002  14.902
63242W        W24696  27.545  36.523   5.204
63243W        W24697  37.484  35.051  11.956
63244W        W24698  33.410  28.594  11.446
63245W        W24699  40.984  16.767  13.316
63246W        W24700   8.267  23.608  12.823
63247W        W24701   0.438  43.400  13.372
63248W        W24702  25.089  32.450  14.991
63249W        W24703  14.245   1.443   0.933
63250W        W24704  14.096  23.592   4.648
63251W        W24705   3.809   2.363  14.760
63252W        W24706  18.151  42.500  12.854
63253W        W24707  12.715  33.593   1.849
63254W        W24708   1.366  16.214  14.482
63255W        W24709  17.251  21.729   4.121
63256W        W24710  25.495  37.418   4.799
63257W        W24711  41.352  32.475  14.415
63258W        W24712  10.205  21.639   1.377
63259W        W24713   1.858  16.125   1.216
63260W        W24714  32.004  17.729  14.461
63261W        W24715  35.398  20.719   0.482
63262W        W24716  17.775  21.263  10.584
63263W        W24717  35.907   8.864  13.415
63264W        W24718  29.655  37.517   1.349
63265W        W24719   8.840  19.183  11.946
63266W        W24720  25.188  32.492   1.864
63267W        W24721   3.953  30.496  11.520
63268W        W24722  33.914  38.457  14.436
63269W        W24723  33.456  12.279  13.794
63270W        W24724  15.262  10.257  12.472
63271W        W24725   9.806  42.955   0.484
63272W        W24726   4.423  30.928   3.742
63273W        W24727  26.067   3.841  11.949
63274W        W24728  29.174   4.406  10.096
63275W        W24729  23.587  30.115  14.305
63276W        W24730  38.916   1.356   3.171
63277W        W24731  13.326  36.912  10.497
63278W        W24732  25.096  42.974   0.284
63279W        W24733  24.693  24.197   1.893
63280W        W24734  25.036  40.482  14.869
63281W        W24735   8.882   1.326  13.358
63282W        W24736  12.294  42.839   2.243
63283W        W24737  10.640  27.500  13.018
63284W        W24738   6.793  31.001  14.899
63285W        W24739  27.156  18.592   2.819
63286W        W24740  32.447  13.769   2.218
63287W        W24741  22.523   8.728   3.826
63288W        W24742  37.542  29.575  13.835
63289W        W24743  19.684  44.416  11.956
63290W        W24744  20.588   2.760   3.682
63291W        W24745  34.096   7.769  13.802
63292W        W24746  41.987   0.831  13.967
63293W        W24747  37.056  16.613   2.896
63294W        W24748  25.566  24.560   3.328
63295W        W24749  26.202  18.738   4.710
63296W        W24750  25.668  12.319  14.860
63297W        W24751  14.669  31.583  10.994
63298W        W24752  30.430  43.348   1.824
63299W        W24753  35.472  43.837   0.753
63300W        W24754  29.610  42.779   0.956
63301W        W24755   6.385  41.468  14.986
63302W        W24756  16.202  39.397  10.575
63303W        W24757  26.959  28.935  12.990
63304W        W24758   3.714  19.570  13.407
63305W        W24759  33.419  26.072  11.397
63306W        W24760  18.630  15.104   1.273
63307W        W24761  28.130   7.777  13.547
63308W        W24762  20.039  35.390  11.076
63309W        W24763  42.936   9.382   3.751
63310W        W24764  32.908  12.267  11.037
63311W        W24765   2.816  17.708   1.721
63312W        W24766  43.450  25.553   0.947
63313W        W24767  39.473  31.493  11.517
63314W        W24768   2.925  36.576   1.914
63315W        W24769   8.797  37.932   4.163
63316W        W24770  44.343  32.594   4.747
63317W        W24771  15.738  17.649   4.288
63318W        W24772   0.438   2.778   3.774
63319W        W24773  37.546  14.699   3.348
63320W        W24774  22.535   4.318   4.114
63321W        W24775  23.033  44.874  11.066
63322W        W24776  34.079  18.575   0.910
63323W        W24777  12.116   4.827  14.451
63324W        W24778  33.035  38.049  13.493
63325W        W24779  26.161  43.883   4.348
63326W        W24780  23.066   6.858  13.916
63327W        W24781  32.477  41.360  12.557
63328W        W24782   0.964  28.028   3.286
63329W        W24783  39.018  40.884  14.515
63330W        W24784   2.297  43.960   0.337
63331W        W24785  12.142  14.594   4.236
63332W        W24786   7.229   8.846   4.809
63333W        W24787  15.704  30.577   0.251
63334W        W24788  13.812  36.562  13.449
63335W        W24789   7.350  12.326   2.717
63336W        W24790   4.364  23.582  12.854
63337W        W24791  14.190  37.030  14.944
63338W        W24792  40.526   1.923   0.454
63339W        W24793  34.593  27.995  14.398
63340W        W24794  21.690  14.663   3.157
63341W        W24795  32.577  25.183  11.581
63342W        W24796  36.010  16.729  12.088
63343W        W24797  29.564  16.741   4.649
63344W        W24798  44.769   9.668   3.371
63345W        W24799  20.099  30.066  14.406
63346W        W24800   6.219  38.069   1.381
63347W        W24801   3.873  13.826  14.871
63348W        W24802  33.924  24.000   4.130
63349W        W24803   6.425  15.796   0.333
63350W        W24804  32.409   2.745  14.437
63351W        W24805  27.145  40.908  14.880
63352W        W24806  10.668  22.025  14.477
63353W        W24807  16.314   1.820   2.769
63354W        W24808  11.868   0.431  12.824
63355W        W24809  12.144  23.557  13.433
63356W        W24810   9.199   1.366  13.328
63357W        W24811  18.723  21.549  14.399
63358W        W24812  12.792  19.578   3.369
63359W        W24813  24.186   8.812   1.423
63360W        W24814   0.359  32.464   2.193
63361W        W24815   3.389  41.439  11.601
63362W        W24816  22.740  26.200  14.946
63363W        W24817  36.566  38.047  11.609
63364W        W24818  25.615   4.349  13.324
63365W        W24819   1.911  19.619   0.246
63366W        W24820   3.911   1.853  11.408
63367W        W24821  15.269   4.809   2.199
63368W        W24822  29.111   1.357   4.320
63369W        W24823   9.699  19.775  13.821
63370W        W24824  31.131  32.526  13.342
63371W        W24825  30.047  39.818  14.921
63372W        W24826   1.341   0.419  14.838
63373W        W24827  39.930  36.919   4.743
63374W        W24828   9.727  35.041   1.812
63375W        W24829   3.805   6.828   3.379
63376W        W24830  28.073   0.863  12.923
63377W        W24831  10.856  18.266  11.033
63378W        W24832   1.283  28.472  14.956
63379W        W24833  41.950  31.429  12.865
63380W        W24834  14.652   8.311  12.515
63381W        W24835  12.125  35.438   0.880
63382W        W24836  24.640  37.420  11.470
63383W        W24837   1.940  12.736   0.441
63384W        W24838  44.783  25.626   4.811
63385W        W24839  25.180  12.130   4.168
63386W        W24840   9.830   3.281   4.244
63387W        W24841  18.666   0.901   1.437
63388W        W24842  13.824  27.059   3.315
63389W        W24843  19.552   3.320  11.880
63390W        W24844  33.392  14.782  13.809
63391W        W24845  44.812  12.643   0.336
63392W        W24846  24.592  26.585  13.062
63393W        W24847  17.201  33.085  12.031
63394W        W24848  35.968  30.454   1.861
63395W        W24849  34.491  18.683  13.504
63396W        W24850  27.169   9.646  12.358
63397W        W24851  32.083  29.143   4.646
63398W        W24852  16.784  26.696   4.662
63399W        W24853  13.605  24.693   2.327
63400W        W24854  32.134  40.512   4.205
63401W        W24855   0.913   1.257   4.182
63402W        W24856  17.752  44.338  11.032
63403W        W24857  23.586   5.866  10.490
63404W        W24858  37.898  21.557  12.992
63405W        W24859  29.629  36.461   3.844
63406W        W24860   5.737  41.389  14.998
63407W        W24861  24.191  23.229   1.349
63408W        W24862   1.836  10.256   0.475
63409W        W24863  16.759  18.575  11.477
63410W        W24864  40.452  10.770  11.998
63411W        W24865   9.668  26.111  12.955
63412W        W24866  36.415   3.361   0.942
63413W        W24867   7.218   2.780   0.384
63414W        W24868  20.687  13.169   0.256
63415W        W24869  23.125  11.827   4.148
63416W        W24870   0.909  18.067   9.956
63417W        W24871  43.983  21.576   3.280
63418W        W24872  16.772   1.908  10.609
63419W        W24873  12.745  34.570   3.368
63420W        W24874   1.241  17.665  14.427
63421W        W24875  27.069  22.199   2.263
63422W        W24876  12.747   0.403  10.929
63423W        W24877  42.358   0.489  13.928
63424W        W24878  11.850  35.564   1.410
63425W        W24879   1.266  14.315  10.563
63426W        W24880   3.392  38.443   2.293
63427W        W24881   3.836  36.940  13.965
63428W        W24882  36.995  26.198   2.228
63429W        W24883  12.303   0.311   4.837
63430W        W24884  28.159  11.823   2.821
63431W        W24885  23.729   1.920  11.482
63432W        W24886  19.109  23.584   3.787
63433W        W24887  44.274  30.437   0.786
63434W        W24888  31.478  29.558   3.377
63435W        W24889   8.819  19.727   0.293
63436W        W24890   8.796  32.462   0.334
63437W        W24891   6.731  17.722   1.296
63438W        W24892  17.155  41.430  14.826
63439W        W24893  34.597  31.082  13.929
63440W        W24894  35.888  33.543   2.249
63441W        W24895  25.155  28.095  12.962
63442W        W24896   4.783  39.380  11.476
63443W        W24897  22.120  34.574   3.714
63444W        W24898   2.286  18.640   3.834
63445W        W24899  17.274  30.496  14.373
63446W        W24900  26.620  43.976   4.748
63447W        W24901   3.237  17.796  10.603
63448W        W24902  41.387  34.372  12.987
63449W        W24903   8.384  31.402  14.846
63450W        W24904  38.876  38.370  11.524
63451W        W24905  12.292  32.510  11.905
63452W        W24906  39.386  23.661   2.698
63453W        W24907  29.658  24.006   0.897
63454W        W24908   5.378  39.026  11.899
63455W        W24909   9.841  10.647   0.414
63456W        W24910  36.000  42.281   4.169
63457W        W24911  11.714  23.678   5.224
63458W        W24912  21.566  16.106  11.430
63459W        W24913  31.976   5.826  11.019
63460W        W24914  19.127  16.587  12.878
63461W        W24915  40.341  15.314  14.466
63462W        W24916  28.004  13.840  10.457
63463W        W24917  34.053  44.468   1.323
63464W        W24918  16.270  31.493   0.415
63465W        W24919  21.133  29.154  12.386
63466W        W24920  36.021  34.499  11.037
63467W        W24921   0.330  27.526   0.361
63468W        W24922  28.643  38.486  13.307
63469W        W24923  38.340  35.360  13.798
63470W        W24924  19.629   6.331  10.638
63471W        W24925  25.072  15.587   4.165
63472W        W24926  31.953   1.930  13.406
63473W        W24927  26.522  20.706   4.225
63474W        W24928  39.005  34.394   3.212
63475W        W24929  43.904   6.273  11.886
63476W        W24930  13.211  43.487   4.748
63477W        W24931   6.273   1.955  10.111
63478W        W24932  28.957  31.074   2.213
63479W        W24933  37.455   4.402   2.198
63480W        W24934  15.301   9.282   0.824
63481W        W24935  37.954   7.265  13.006
63482W        W24936  19.070  36.572   2.212
63483W        W24937  32.446  34.058  11.604
63484W        W24938  39.468  27.051  13.840
63485W        W24939  34.439   7.888  11.471
63486W        W24940  26.053  31.439   4.606
63487W        W24941  39.533  38.477  13.878
63488W        W24942  29.060  20.678  14.280
63489W        W24943  15.268  44.861   2.264
63490W        W24944  15.144  43.359  13.484
63491W        W24945  20.179  44.392   0.950
63492W        W24946  33.557  13.782   3.378
63493W        W24947  43.867   8.357   2.728
63494W        W24948  11.846  41.975   2.308
63495W        W24949  29.028   1.847   0.439
63496W        W24950  32.954  28.491   3.354
63497W        W24951   6.268  42.833   2.897
63498W        W24952   6.735  35.474   2.387
63499W        W24953  41.297  11.341   0.264
63500W        W24954  43.362  24.644  12.559
63501W        W24955   1.841   2.336   1.295
63502W        W24956   4.762   3.803  13.806
63503W        W24957  35.029  33.976   3.364
63504W        W24958  34.613  44.491  12.365
63505W        W24959   1.801  36.543   2.868
63506W        W24960  29.932   8.750   3.372
63507W        W24961   7.365   5.320  12.026
63508W        W24962  27.968  34.058  13.417
63509W        W24963  20.664  34.112  13.342
63510W        W24964   2.248  15.287  10.948
63511W        W24965  22.217  12.151   0.334
63512W        W24966  21.598   4.252  12.849
63513W        W24967  15.127  19.204  14.766
63514W        W24968  26.579  13.717  11.114
63515W        W24969   3.390  34.099   2.799
63516W        W24970  19.727  26.600  10.963
63517W        W24971  26.205  40.973  14.909
63518W        W24972  28.569  18.634   2.206
63519W        W24973   4.207   3.241  14.785
63520W        W24974  18.151  42.948  14.952
63521W        W24975  38.976  32.047   4.713
63522W        W24976  23.626   2.383  11.576
63523W        W24977  43.452  19.700  11.982
63524W        W24978  15.246   7.274   4.650
63525W        W24979  28.065  39.377  12.365
63526W        W24980   9.165  16.788  13.950
63527W        W24981  18.712  12.639   1.411
63528W        W24982  33.121   5.406  11.083
63529W        W24983  14.218  15.699   2.305
63530W        W24984  32.036  26.533   4.332
63531W        W24985  44.298   3.771   4.255
63532W        W24986  15.599   9.888   0.341
63533W        W24987  33.385   8.279  11.612
63534W        W24988  42.935  40.442  14.297
63535W        W24989  43.856   9.657  11.455
63536W        W24990  16.133   0.480   1.882
63537W        W24991  41.029  14.693   1.396
63538W        W24992  18.092  12.749   1.721
63539W        W24993   7.190   5.818   0.321
63540W        W24994  38.821  34.104  13.817
63541W        W24995   0.458  35.389  14.334
63542W        W24996  29.990  15.295   4.246
63543W        W24997   7.236  34.958   2.250
63544W        W24998  22.709  13.250   1.383
63545W        W24999   4.839  15.745  13.975
63546W        W25000  21.712   0.364  10.583
63547W        W25001  14.218   2.409   3.766
63548W        W25002  17.288   7.252  14.379
63549W        W25003  19.055  22.678  11.507
63550W        W25004  18.596   0.298   0.415
63551W        W25005   5.260  12.727   1.297
63552W        W25006  18.747  17.171  11.018
63553W        W25007  26.048  30.498   3.758
63554W        W25008  13.211  35.086  14.983
63555W        W25009  13.116   7.762   1.324
63556W        W25010  38.929  22.645   3.631
63557W        W25011  39.446  12.645   1.790
63558W        W25012  37.481  33.104   0.753
63559W        W25013   2.463  11.285   2.365
63560W        W25014  34.601  43.301   0.802
63561W        W25015  34.970  18.175   3.725
63562W        W25016   4.839  43.021  11.398
63563W        W25017  21.036  10.723  10.921
63564W        W25018  44.863  42.505   4.336
63565W        W25019  33.599  35.437  13.395
63566W        W25020   6.736  29.550   0.428
63567W        W25021  17.654   1.935   2.387
63568W        W25022  36.423  41.529   1.809
63569W        W25023   2.410   4.337  13.835
63570W        W25024   0.746   6.909   2.696
63571W        W25025  38.859  31.906  10.016
63572W        W25026  36.452   7.690   2.881
63573W        W25027  38.509   7.754   3.651
63574W        W25028  18.603  23.019   3.375
63575W        W25029  22.138  21.131  14.824
63576W        W25030  22.706  32.493  11.994
63577W        W25031  40.008  34.979  14.796
63578W        W25032  40.418   7.219   4.690
63579W        W25033   7.355  19.574  13.354
63580W        W25034  13.679   2.835  11.873
63581W        W25035  28.950  15.675  10.477
63582W        W25036   4.793  28.571  12.418
63583W        W25037  36.076  26.696   3.770
63584W        W25038   3.804  31.970  10.146
63585W        W25039  39.975   9.860  12.365
63586W        W25040   1.255   7.896   4.227
63587W        W25041   4.357  17.664   2.877
63588W        W25042  43.270   4.855   4.214
63589W        W25043  29.592  36.016   3.247
63590W        W25044  14.271  19.661   0.767
63591W        W25045  26.673  21.538  12.844
63592W        W25046  41.340  24.532   2.401
63593W        W25047  28.521  24.481  13.912
63594W        W25048  39.032  43.844  13.447
63595W        W25049  30.450  43.890  12.968
63596W        W25050  19.773  43.319  12.052
63597W        W25051  35.435   4.820   1.733
63598W        W25052  43.861  16.306   1.882
63599W        W25053  28.453  29.995   4.278
63600W        W25054  21.049  21.617   0.433
63601W        W25055  15.701  10.645  11.602
63602W        W25056  28.554  36.858   4.724
63603W        W25057   9.652  17.140   9.511
63604W        W25058  19.266  10.749   3.191
63605W        W25059  14.732  25.042   4.718
63606W        W25060  27.682  29.520  11.984
63607W        W25061  12.839  17.235  14.282
63608W        W25062  24.106   9.797   0.838
63609W        W25063   9.763  12.679   0.817
63610W        W25064   1.947  39.487   0.960
63611W        W25065  17.234  10.869   1.723
63612W        W25066   7.344  26.612   2.718
63613W        W25067  43.504  29.658   1.268
63614W        W25068  34.595   5.349   2.722
63615W        W25069  22.227  27.680   0.960
63616W        W25070  21.642  17.663  12.851
63617W        W25071   7.248  22.037   1.757
63618W        W25072  39.830   6.388  11.071
63619W        W25073  16.622  24.027   1.772
63620W        W25074  18.115  23.085  11.922
63621W        W25075  30.971  31.477  12.924
63622W        W25076  32.074  38.462  14.025
63623W        W25077  28.574   4.847   3.217
63624W        W25078   5.800  24.151   2.690
63625W        W25079   6.738  11.204  13.401
63626W        W25080  17.663  39.874   1.920
63627W        W25081  23.619  22.126  14.433
63628W        W25082  30.130  17.591   3.681
63629W        W25083   1.477  33.621  11.606
63630W        W25084  36.851  33.990   2.824
63631W        W25085  42.980  18.605   2.697
63632W        W25086  24.980  35.397  11.092
63633W        W25087  28.458  19.153  13.381
63634W        W25088  25.574   6.333  12.014
63635W        W25089  32.091   3.890  12.503
63636W        W25090  26.197  43.339  13.809
63637W        W25091   4.849  27.961   0.426
63638W        W25092  12.707  25.578  12.907
63639W        W25093   1.761  38.938  10.907
63640W        W25094  12.797  40.798  10.522
63641W        W25095  38.362  11.295  14.957
63642W        W25096  25.603  20.680  13.901
63643W        W25097  12.238  26.565  13.438
63644W        W25098  40.797  32.491  11.473
63645W        W25099  11.821  30.022   2.359
63646W        W25100  10.829  35.874  10.516
63647W        W25101   1.271  18.294  11.556
63648W        W25102   3.447   6.352  13.358
63649W        W25103   8.367  39.865  13.445
63650W        W25104  32.466   0.889  10.043
63651W        W25105  18.249  29.996   2.367
63652W        W25106   2.235  41.294  14.349
63653W        W25107  17.639   4.921   0.727
63654W        W25108  31.444  11.244   1.240
63655W        W25109  10.283  36.978   4.289
63656W        W25110  28.029  12.140  11.066
63657W        W25111   7.781  18.091   3.666
63658W        W25112  30.595   4.829   3.237
63659W        W25113   9.734   7.343  13.344
63660W        W25114  24.128  17.679  14.961
63661W        W25115  44.803  13.618  11.487
63662W        W25116   0.324   4.930   2.303
63663W        W25117  13.190   0.941  12.386
63664W        W25118   6.689   2.425   3.632
63665W        W25119  42.986   3.713   2.811
63666W        W25120  23.021   5.324   1.401
63667W        W25121  13.829  16.671  11.528
63668W        W25122  26.123  13.212  13.447
63669W        W25123   2.889  17.678  14.838
63670W        W25124  44.306  12.674  14.878
63671W        W25125  29.045   3.301   0.802
63672W        W25126  32.007  20.157  13.046
63673W        W25127  11.363  35.101   0.472
63674W        W25128  12.231   3.444   4.772
63675W        W25129  25.494  39.494   4.189
63676W        W25130  26.645  27.465   1.821
63677W        W25131  30.020  32.514   3.291
63678W        W25132  35.450  10.339   1.851
63679W        W25133  18.773   9.361  12.359
63680W        W25134  44.991  23.657   2.823
63681W        W25135  27.552   0.360   3.277
63682W        W25136  22.638  20.191  11.509
63683W        W25137  30.047  23.159   2.259
63684W        W25138  44.298  27.182   2.878
63685W        W25139  35.532  23.079   1.437
63686W        W25140  43.012   8.214  14.947
63687W        W25141  21.704  33.529   2.255
63688W        W25142  42.451  24.001  11.552
63689W        W25143   6.703  12.696  12.951
63690W        W25144  43.002  43.989  13.525
63691W        W25145  11.358  38.056   9.600
63692W        W25146  28.662  26.144   3.868
63693W        W25147   8.383  43.300   0.443
63694W        W25148  31.501  20.042  14.340
63695W        W25149  43.435  19.770   2.373
63696W        W25150  43.006  20.098   5.211
63697W        W25151   0.842   5.734  11.877
63698W        W25152  31.133  37.356   3.640
63699W        W25153   9.162  16.644   1.716
63700W        W25154   7.231  29.087  11.068
63701W        W25155  36.883   8.388   2.867
63702W        W25156  38.934   0.486   4.602
63703W        W25157  36.454   2.840  11.043
63704W        W25158  30.992  38.544  10.620
63705W        W25159   1.321  16.264   2.419
63706W        W25160   5.687  30.482   3.642
63707W        W25161  42.979  37.031  10.997
63708W        W25162  21.719  12.125  14.487
63709W        W25163  42.998  29.081   3.863
63710W        W25164  17.229  19.592  14.289
63711W        W25165  25.640   2.768  11.012
63712W        W25166  33.010  18.711   0.743
63713W        W25167  14.780  31.949   0.430
63714W        W25168  27.974  37.416   3.231
63715W        W25169  44.272  32.954  11.907
63716W        W25170  33.131  36.581  12.835
63717W        W25171   0.471   6.812   1.931
63718W        W25172   7.282  33.573  12.474
63719W        W25173  43.821   4.859   4.836
63720W        W25174   1.427  40.446  11.960
63721W        W25175   6.319  36.990   4.337
63722W        W25176  42.358  41.394   0.963
63723W        W25177  33.494  13.675  14.870
63724W        W25178  12.649  29.920  12.370
63725W        W25179   2.389  25.479   2.318
63726W        W25180  14.747  11.770  14.341
63727W        W25181   7.867   5.918   2.694
63728W        W25182  17.674   6.749   4.618
63729W        W25183  17.707  42.818  11.510
63730W        W25184  16.732  28.004  14.969
63731W        W25185  10.721  30.103   0.810
63732W        W25186  17.667   0.989   0.821
63733W        W25187  20.173   7.834   2.233
63734W        W25188  43.812  37.439   4.820
63735W        W25189  21.122  38.483   1.857
63736W        W25190  42.400  21.109  10.008
63737W        W25191  41.415  25.663   2.347
63738W        W25192  30.094  40.823  14.940
63739W        W25193  22.180  44.863  13.348
63740W        W25194   3.904  28.136  12.446
63741W        W25195  42.309  34.933   1.436
63742W        W25196  32.395  18.293  14.437
63743W        W25197  10.176  14.200  10.092
63744W        W25198  33.439  11.190  11.862
63745W        W25199  33.985  24.096  14.429
63746W        W25200  27.151  21.190   2.354
63747W        W25201  12.794  36.996  13.895
63748W        W25202   4.397  39.029   4.804
63749W        W25203  35.405  33.506   3.319
63750W        W25204   2.828  22.167   2.819
63751W        W25205  44.893   2.251  10.911
63752W        W25206  28.084  33.382  13.011
63753W        W25207   4.701  25.643  10.984
63754W        W25208  21.678  42.374  12.827
63755W        W25209   4.759  41.519   0.804
63756W        W25210  24.074  26.207   1.311
63757W        W25211  12.731  20.734   0.339
63758W        W25212  24.609  21.219  11.613
63759W        W25213   4.817  11.255  14.474
63760W        W25214  36.089  24.587  14.013
63761W        W25215  16.170  23.657   2.725
63762W        W25216  41.434   9.819  12.355
63763W        W25217  23.670  16.763   0.738
63764W        W25218   7.843  41.501  13.934
63765W        W25219  17.137  20.729  11.927
63766W        W25220  19.061  17.142   1.721
63767W        W25221   0.924  13.799   4.833
63768W        W25222  33.580  33.582   4.227
63769W        W25223  24.509  21.554  11.515
63770W        W25224  26.495  29.634   5.199
63771W        W25225   7.411   3.860  12.537
63772W        W25226  38.894  30.067  10.977
63773W        W25227  16.743  28.626  11.075
63774W        W25228  18.155  27.574   1.376
63775W        W25229  26.173  14.699   1.776
63776W        W25230   0.813   6.798   4.645
63777W        W25231  33.010  24.538   0.309
63778W        W25232  21.617   5.216  13.389
63779W        W25233  26.636  21.147  10.059
63780W        W25234  25.975  30.428   4.704
63781W        W25235  40.962  24.582   0.408
63782W        W25236  30.629  11.286   1.304
63783W        W25237  26.628   9.750   2.411
63784W        W25238  30.998  33.970   0.278
63785W        W25239  11.262  13.645  13.053
63786W        W25240  41.032  43.477  11.891
63787W        W25241   8.354  42.421   3.364
63788W        W25242  34.613   8.846  10.895
63789W        W25243   9.299  27.149  14.781
63790W        W25244   8.305  17.122   4.294
63791W        W25245  18.741  34.078  13.543
63792W        W25246  10.705   9.388  13.893
63793W        W25247  30.914  35.526  10.574
63794W        W25248   6.822  14.174   0.918
63795W        W25249  12.723   0.461   2.824
63796W        W25250  10.225  29.659  10.594
63797W        W25251  28.467  19.267   4.212
63798W        W25252  23.202  33.046  10.469
63799W        W25253  32.404  10.707   1.720
63800W        W25254  12.267  24.508  14.428
63801W        W25255  29.041  17.219  11.531
63802W        W25256  16.606  32.991   4.836
63803W        W25257  29.551   2.814  11.070
63804W        W25258   7.699  16.179  11.417
63805W        W25259   4.227  25.588   2.364
63806W        W25260  19.198  42.486  12.058
63807W        W25261  32.025  17.689   0.342
63808W        W25262  14.633  38.532  11.108
63809W        W25263  18.791  31.037  11.109
63810W        W25264  29.594  22.629  10.987
63811W        W25265  43.488  16.152   4.630
63812W        W25266  25.695   3.725   0.320
63813W        W25267  24.642   3.358  11.998
63814W        W25268  25.180  21.062   4.672
63815W        W25269  19.227  27.601  13.917
63816W        W25270  26.500  34.466  13.918
63817W        W25271  30.965  23.064   3.704
63818W        W25272  19.072   9.291  13.475
63819W        W25273  15.328  38.966  11.372
63820W        W25274  15.282  15.771   1.399
63821W        W25275  13.152  20.114  13.496
63822W        W25276   6.209  29.623   2.222
63823W        W25277  22.502  12.674   3.739
63824W        W25278  15.159  18.546   2.186
63825W        W25279  24.199  40.366   9.998
63826W        W25280  31.128  24.547  14.308
63827W        W25281  27.132  21.157  14.771
63828W        W25282  14.167  33.394  10.473
63829W        W25283  41.485  15.645   0.347
63830W        W25284   0.488   7.874  13.951
63831W        W25285   8.718  26.959   1.317
63832W        W25286  16.649  27.596   3.256
63833W        W25287  42.490  32.024  13.323
63834W        W25288  36.500  42.422  11.934
63835W        W25289  26.075  28.599   4.235
63836W        W25290  40.990  34.909   2.312
63837W        W25291  34.454   1.454  12.928
63838W        W25292  28.117  20.185   5.294
63839W        W25293  29.147  37.998  12.942
63840W        W25294  31.465  15.706   4.171
63841W        W25295   6.284  17.098  10.091
63842W        W25296  13.151   1.863  11.056
63843W        W25297  40.389   3.425   1.261
63844W        W25298  34.604  24.532   4.798
63845W        W25299  42.961  34.029  14.455
63846W        W25300   2.414  18.172  11.095
63847W        W25301  26.632  25.590   1.860
63848W        W25302  21.532  29.175  11.507
63849W        W25303   3.288   7.712   5.243
63850W        W25304  35.491  30.957  14.790
63851W        W25305  37.973  11.746   9.977
63852W        W25306   8.288  14.198  11.523
63853W        W25307  20.561  22.729   1.408
63854W        W25308  35.919  21.647   1.241
63855W        W25309  21.721  32.999   4.815
63856W        W25310  21.565  16.103   2.892
63857W        W25311  40.470  10.721  13.030
63858W        W25312  10.691  15.195   4.193
63859W        W25313  28.652  35.372   5.113
63860W        W25314  24.194  43.475   0.374
63861W        W25315  24.620  43.838  10.936
63862W        W25316  29.173  28.445  10.977
63863W        W25317  37.876  26.046   0.251
63864W        W25318  13.797  22.502  11.502
63865W        W25319  44.318   8.679   0.356
63866W        W25320  42.792  35.367   4.151
63867W        W25321  27.072   1.382   3.674
63868W        W25322  31.955  28.564  13.398
63869W        W25323  15.132  36.368  11.944
63870W        W25324   1.793  20.083  13.436
63871W        W25325  34.572  40.501   0.354
63872W        W25326   5.811  13.739   1.741
63873W        W25327  27.650  37.967  14.388
63874W        W25328  33.463   9.855  11.036
63875W        W25329  16.222  30.659  13.008
63876W        W25330  21.031  41.312  14.901
63877W        W25331   1.443   4.277  12.015
63878W        W25332  20.646   0.885  12.489
63879W        W25333  21.664  22.518   1.446
63880W        W25334  23.628  43.922   1.855
63881W        W25335  30.006  20.170  14.834
63882W        W25336  44.261   7.827   3.673
63883W        W25337  18.165  32.472   4.133
63884W        W25338  16.098  43.436   0.883
63885W        W25339  17.757  10.711   0.897
63886W        W25340  12.208   1.355  10.957
63887W        W25341  32.893  38.365   3.797
63888W        W25342   9.244  26.140   2.720
63889W        W25343   8.355  19.557   2.371
63890W        W25344  27.125  30.605  14.493
63891W        W25345   6.241  11.283   0.303
63892W        W25346  20.242  44.373  13.960
63893W        W25347  19.727   8.188  11.109
63894W        W25348  36.899  43.813  12.094
63895W        W25349  15.773  19.756  10.106
63896W        W25350  24.667  37.471   3.653
63897W        W25351  40.855  37.015  13.905
63898W        W25352  24.131   3.830   3.353
63899W        W25353  39.832  33.467  11.411
63900W        W25354  29.953  19.563   5.137
63901W        W25355  18.286  24.493   2.849
63902W        W25356  16.714  18.580  10.417
63903W        W25357   8.899   2.400   5.256
63904W        W25358  37.479   0.919  13.989
63905W        W25359  18.554  42.369   3.282
63906W        W25360  39.423  15.694   3.287
63907W        W25361   2.768  17.283   2.714
63908W        W25362   6.793  23.661  10.594
63909W        W25363  16.106  43.414  13.388
63910W        W25364  13.338  16.688  13.412
63911W        W25365  30.031   4.825   9.998
63912W        W25366  24.695  20.735  12.561
63913W        W25367   1.742  42.297  13.004
63914W        W25368  28.544  16.155  13.955
63915W        W25369   8.841  25.201   5.309
63916W        W25370  35.565  39.415  14.887
63917W        W25371  44.998   0.458  13.880
63918W        W25372  42.930  21.521   4.783
63919W        W25373  25.209  38.954   2.797
63920W        W25374   3.905  42.473  14.882
63921W        W25375   3.422  44.945   4.258
63922W        W25376  43.981  36.872   3.300
63923W        W25377   6.359  42.522   2.259
63924W        W25378  34.374  24.031  10.907
63925W        W25379  38.887   7.692  14.356
63926W        W25380  35.862   4.854  10.043
63927W        W25381  25.668  24.594  11.414
63928W        W25382  25.057  37.354   0.452
63929W        W25383  38.988  22.047  12.448
63930W        W25384  25.014  35.409   1.900
63931W        W25385   9.395  10.295   0.256
63932W        W25386  26.152   6.405  12.834
63933W        W25387  19.088  16.737  13.837
63934W        W25388  26.965  34.026  14.779
63935W        W25389   4.735  16.181   3.777
63936W        W25390   6.783  12.159  14.886
63937W        W25391   6.240  28.505   3.642
63938W        W25392  37.564  35.993   2.306
63939W        W25393  10.169  20.148   2.204
63940W        W25394  32.992  20.130  11.551
63941W        W25395  30.569  11.729  12.903
63942W        W25396  17.217  44.484  10.576
63943W        W25397  22.198  32.107   0.375
63944W        W25398  19.163   9.212   3.231
63945W        W25399  26.030   2.777   9.534
63946W        W25400  22.193  25.029  14.286
63947W        W25401  33.415   9.684   4.335
63948W        W25402  15.315   7.365   1.331
63949W        W25403  23.601   4.835  13.979
63950W        W25404  30.134  12.259   3.261
63951W        W25405   7.306  16.674  11.389
63952W        W25406  36.404   1.316   2.748
63953W        W25407  35.893  34.388   1.700
63954W        W25408  38.511  25.662  13.435
63955W        W25409  16.314  10.709   1.377
63956W        W25410  10.735  27.584   2.815
63957W        W25411  10.754   1.969  13.547
63958W        W25412  41.340  32.890  11.602
63959W        W25413  12.205  11.779  13.535
63960W        W25414  42.319  43.346   2.698
63961W        W25415  28.995  38.379   0.895
63962W        W25416  24.686  16.314  13.411
63963W        W25417  42.358  36.034   3.829
63964W        W25418  28.635  33.970  12.077
63965W        W25419  20.037  25.658  12.092
63966W        W25420  42.956  43.371   3.280
63967W        W25421   6.296  33.082   9.973
63968W        W25422  38.568  41.308  11.973
63969W        W25423  39.470  35.917  10.970
63970W        W25424  15.303  40.310  14.349
63971W        W25425  31.101  36.467   4.652
63972W        W25426  34.995  10.762   0.316
63973W        W25427  29.633  42.817  12.946
63974W        W25428  15.290  30.068   1.787
63975W        W25429   5.366  25.118   1.366
63976W        W25430  18.277  23.103   1.743
63977W        W25431  29.975  39.500   3.163
63978W        W25432   9.667  27.128  10.464
63979W        W25433   0.338  15.297   3.646
63980W        W25434  28.045  35.493  10.459
63981W        W25435  13.256  12.296   0.459
63982W        W25436  36.094  15.203  12.988
63983W        W25437  29.433  25.684  12.549
63984W        W25438  29.985  13.227   0.249
63985W        W25439  40.440  34.118   0.386
63986W        W25440  39.514  22.104   2.664
63987W        W25441  15.306  28.601   3.812
63988W        W25442   9.745  22.134  12.837
63989W        W25443  10.840  30.616  14.908
63990W        W25444  34.877   2.769  12.096
63991W        W25445   2.927  24.697   4.641
63992W        W25446   0.493   8.397  11.022
63993W        W25447   6.699  27.630  13.938
63994W        W25448  26.975  27.662  13.515
63995W        W25449  30.520   5.917   1.736
63996W        W25450  13.700  10.657   4.742
63997W        W25451  27.958  23.552  11.103
63998W        W25452   3.369  20.739   4.258
63999W        W25453  23.535  42.396  11.545
64000W        W25454  34.879  37.986   4.815
64001W        W25455   2.796  30.466   2.843
64002W        W25456  25.564  12.226   1.893
64003W        W25457   1.307   4.287  12.448
64004W        W25458  36.041  15.717  13.459
64005W        W25459  15.762  13.308  13.884
64006W        W25460  11.689  31.010  11.440
64007W        W25461  38.537   4.838   1.723
64008W        W25462  15.231  43.327   3.154
64009W        W25463  11.745  34.867  12.403
64010W        W25464   1.346  29.033   3.253
64011W        W25465  24.582  43.398  13.866
64012W        W25466   6.298  36.562  13.373
64013W        W25467   8.677  28.978  10.622
64014W        W25468  19.157   7.317   4.643
64015W        W25469  38.835  43.828  12.355
64016W        W25470   5.746   7.788  10.962
64017W        W25471  16.189  31.996  11.102
64018W        W25472   4.753   8.396  14.002
64019W        W25473  28.081  41.522  11.115
64020W        W25474  16.189  23.642  14.821
64021W        W25475  35.388  36.054   2.216
64022W        W25476  12.702  33.086   2.730
64023W        W25477  16.092  15.578  13.024
64024W        W25478  23.703  40.960   0.435
64025W        W25479  40.458  10.181   0.437
64026W        W25480  17.290  44.982   2.244
64027W        W25481  11.278  30.047   4.178
64028W        W25482  22.579   5.699   4.628
64029W        W25483   8.766  26.063   1.399
64030W        W25484  15.720  25.601  13.876
64031W        W25485  31.062  31.114   4.756
64032W        W25486  38.974  28.516   3.291
64033W        W25487  35.914  11.793   3.205
64034W        W25488  16.147   8.808  11.014
64035W        W25489   7.770  22.535   4.121
64036W        W25490   0.966  19.661  13.476
64037W        W25491  30.076  36.364  14.464
64038W        W25492  25.615  13.720  14.916
64039W        W25493   9.832  18.582   9.451
64040W        W25494   3.343  10.668   3.279
64041W        W25495  24.128  12.274  11.935
64042W        W25496  34.451  16.737   2.302
64043W        W25497  35.904  18.566   0.944
64044W        W25498  28.150   2.747  11.927
64045W        W25499  21.744  19.048  10.462
64046W        W25500  26.043   1.743   1.426
64047W        W25501  41.844  21.571   4.756
64048W        W25502   9.715  35.433   5.262
64049W        W25503  18.206  36.909   3.675
64050W        W25504  27.094  22.637   0.792
64051W        W25505  32.590  26.043  12.939
64052W        W25506  30.022   5.316   2.668
64053W        W25507   0.359  22.062   2.287
64054W        W25508  10.172  43.772  12.064
64055W        W25509  21.562  34.546  14.871
64056W        W25510  16.579  29.479   4.748
64057W        W25511  40.434  25.531  13.794
64058W        W25512  32.048   6.408  13.356
64059W        W25513  35.526  14.713   2.713
64060W        W25514   0.966  15.657  11.101
64061W        W25515  35.870  34.938   3.815
64062W        W25516  25.129   2.740  13.425
64063W        W25517  37.361  23.659   1.861
64064W        W25518  38.906  17.140   5.271
64065W        W25519  42.904  44.996  14.898
64066W        W25520  24.023  14.140   5.240
64067W        W25521  12.202  26.613  14.510
64068W        W25522  18.585  31.084   1.401
64069W        W25523  12.252  17.112   5.622
64070W        W25524  34.916  12.831   2.813
64071W        W25525  26.545   2.803   5.679
64072W        W25526  39.326  29.608  11.417
64073W        W25527  25.614   5.842   3.328
64074W        W25528  39.473  22.722  11.379
64075W        W25529   9.844  20.079   9.520
64076W        W25530   0.396  36.931   0.286
64077W        W25531   9.199  42.002   2.765
64078W        W25532  42.909  23.531   9.943
64079W        W25533  44.915  31.491  13.012
64080W        W25534  31.632  36.081   0.414
64081W        W25535  21.517   5.709  12.518
64082W        W25536  12.783  27.029   1.392
64083W        W25537  42.295   7.256  11.858
64084W        W25538  19.264   3.221   2.397
64085W        W25539   2.922  44.825   3.822
64086W        W25540  17.636  41.493   1.828
64087W        W25541   9.743  34.498   2.224
64088W        W25542   3.431  39.063   3.847
64089W        W25543  16.701  32.964   4.272
64090W        W25544   4.720  12.777  12.361
64091W        W25545  33.075   3.937   4.608
64092W        W25546  16.703  18.549   0.966
64093W        W25547  25.151  32.535   5.197
64094W        W25548  43.006  26.564   1.260
64095W        W25549  25.061  14.180   3.329
64096W        W25550  30.435  37.485   4.198
64097W        W25551   6.893  34.911   0.304
64098W        W25552  36.992  34.060   3.223
64099W        W25553  17.095  16.297   5.124
64100W        W25554  23.142  40.411   3.315
64101W        W25555   9.257  11.334  12.536
64102W        W25556  41.931   0.764  11.443
64103W        W25557  17.202   0.443  12.000
64104W        W25558  36.349  11.347  12.539
64105W        W25559  40.974  36.876  10.454
64106W        W25560  22.996  22.156   2.269
64107W        W25561  18.771  29.174  12.852
64108W        W25562  36.363  29.518   0.872
64109W        W25563  19.614  42.978   5.136
64110W        W25564  30.519   9.791   2.859
64111W        W25565  28.077  36.462  10.526
64112W        W25566   1.756  27.449   3.332
64113W        W25567  32.415  28.947   3.770
64114W        W25568  28.529  40.994   0.921
64115W        W25569  34.986  42.937   1.269
64116W        W25570  26.654   8.248  12.466
64117W        W25571   6.906   4.441  12.891
64118W        W25572  31.041  43.361  12.418
64119W        W25573  21.703   1.371   1.323
64120W        W25574   1.281  38.020   4.312
64121W        W25575   2.258  25.208  12.955
64122W        W25576  41.929  11.731  14.812
64123W        W25577  34.603  28.649  12.377
64124W        W25578  20.663  24.978   1.216
64125W        W25579  21.198   4.789  12.852
64126W        W25580  14.146  42.013  14.801
64127W        W25581  35.587  26.573   2.683
64128W        W25582  42.431   7.715   1.286
64129W        W25583  15.811   7.380   0.909
64130W        W25584  22.188  38.490   3.783
64131W        W25585  20.090   9.261   2.352
64132W        W25586   0.856  14.258  12.519
64133W        W25587  18.265  24.078   2.361
64134W        W25588  20.577  19.159   4.296
64135W        W25589  13.281  14.716   0.897
64136W        W25590  12.688  42.396  10.459
64137W        W25591  22.056  33.995   2.823
64138W        W25592  14.765  10.247   0.466
64139W        W25593  15.621  33.424  11.511
64140W        W25594  20.028  28.680  10.607
64141W        W25595   3.889  12.689  12.497
64142W        W25596  19.068   4.853   2.898
64143W        W25597  39.822  33.416  12.911
64144W        W25598  18.188  19.703  14.300
64145W        W25599  38.888  32.627  14.282
64146W        W25600  36.521  31.113   2.251
64147W        W25601   5.233  13.195   2.339
64148W        W25602  24.073  28.145   5.219
64149W        W25603  24.507  33.625   5.184
64150W        W25604  30.079  12.742  13.895
64151W        W25605  33.121  39.915   3.250
64152W        W25606  11.254  37.452   1.837
64153W        W25607  10.194  34.446   1.718
64154W        W25608   1.858  29.466  14.426
64155W        W25609  31.076  32.449  11.012
64156W        W25610  34.503  13.142   2.803
64157W        W25611  38.491   8.676   0.966
64158W        W25612  10.202  28.110  14.992
64159W        W25613  13.196  38.973  11.545
64160W        W25614  27.658  30.981   1.828
64161W        W25615  36.924  25.626  11.484
64162W        W25616  21.674  16.312  11.990
64163W        W25617  15.281  12.651  13.455
64164W        W25618  11.659   9.216   2.247
64165W        W25619   2.455  36.447   3.231
64166W        W25620  14.337  26.619   3.282
64167W        W25621  21.558   0.402   3.796
64168W        W25622  25.177  13.787   3.723
64169W        W25623  41.813  36.589  14.475
64170W        W25624   6.259  35.888   0.290
64171W        W25625   5.807  12.296   3.630
64172W        W25626   4.366  27.977  14.805
64173W        W25627  12.140  43.423  11.013
64174W        W25628   2.835  22.241  11.972
64175W        W25629  15.118   3.386   2.846
64176W        W25630   2.886   7.849  10.567
64177W        W25631  10.753   3.405   1.451
64178W        W25632  39.328  26.194   4.215
64179W        W25633  38.386  15.627   4.174
64180W        W25634  37.538  30.140   2.705
64181W        W25635  38.491  42.511  13.349
64182W        W25636  31.645   1.814   1.759
64183W        W25637  40.837  29.632  11.110
64184W        W25638  10.338  13.170   2.379
64185W        W25639   0.852  40.538   5.213
64186W        W25640  23.039  28.568  13.521
64187W        W25641  33.607   1.864   0.957
64188W        W25642  33.046   9.290  14.763
64189W        W25643  14.818   9.344  11.071
64190W        W25644  25.114  12.787  10.469
64191W        W25645  19.281  43.989   4.835
64192W        W25646   7.283  39.880   1.247
64193W        W25647  13.747   2.889   4.136
64194W        W25648  32.980  26.033   1.909
64195W        W25649   8.830  13.600  14.454
64196W        W25650  32.527  31.107   1.425
64197W        W25651   6.790  31.438   3.331
64198W        W25652  13.109  14.192  11.117
64199W        W25653  39.019  17.752  14.425
64200W        W25654  42.291  32.588  13.339
64201W        W25655  28.444   9.284   4.766
64202W        W25656  22.539   1.929  14.411
64203W        W25657  15.742  19.699  11.589
64204W        W25658  32.984  17.714  14.922
64205W        W25659  15.303  25.979   0.454
64206W        W25660  10.635  34.498   0.388
64207W        W25661  43.988  37.042  10.593
64208W        W25662  10.168  27.502  14.805
64209W        W25663  19.603  17.274  11.090
64210W        W25664   1.942   4.388  12.455
64211W        W25665   8.254  37.361  12.568
64212W        W25666  15.102  14.282   4.791
64213W        W25667  20.556  40.472  14.769
64214W        W25668  18.086  40.884  13.973
64215W        W25669   3.728  32.434   4.704
64216W        W25670   8.721  36.971  12.397
64217W        W25671  44.978  35.938   3.289
64218W        W25672  44.289   7.777   5.149
64219W        W25673  32.098  19.206  12.444
64220W        W25674  12.651  15.322   2.331
64221W        W25675  34.518   9.739  14.776
64222W        W25676  34.999  32.010  13.808
64223W        W25677  35.541  42.337   3.203
64224W        W25678  23.985  38.492  11.394
64225W        W25679   7.886   4.843  10.144
64226W        W25680  15.592  35.466  11.579
64227W        W25681  35.098  16.644   2.791
64228W        W25682  14.171  30.098   0.308
64229W        W25683   7.770  26.202   4.613
64230W        W25684  22.607   8.667   2.250
64231W        W25685  40.371  29.545   1.281
64232W        W25686  28.965  28.155  10.533
64233W        W25687  24.075  32.926   0.471
64234W        W25688   6.303   3.240  11.391
64235W        W25689  15.172  15.773  13.807
64236W        W25690  10.878  30.552  11.517
64237W        W25691  30.957  21.254  12.975
64238W        W25692  44.442  12.770  12.371
64239W        W25693   5.763  14.225   0.300
64240W        W25694  11.666   4.341  13.039
64241W        W25695   8.715  13.615   2.182
64242W        W25696  11.142  40.815   0.286
64243W        W25697   4.752  36.419  11.917
64244W        W25698  36.506  17.099  13.966
64245W        W25699   0.913  25.576   2.694
64246W        W25700  18.083  37.547   1.335
64247W        W25701  22.234  14.623   4.780
64248W        W25702  40.043  33.066  11.428
64249W        W25703  31.533  23.016  10.038
64250W        W25704  40.930  12.776  14.287
64251W        W25705  21.596  13.654  11.429
64252W        W25706  25.204  25.636  10.602
64253W        W25707  14.755  28.469   1.841
64254W        W25708  25.103  24.116   1.726
64255W        W25709  16.075   5.374  13.473
64256W        W25710  23.188  40.932   1.733
64257W        W25711  21.753  37.911  14.894
64258W        W25712   7.739  44.771   2.799
64259W        W25713  41.416  23.062   2.390
64260W        W25714  26.056  20.110  10.968
64261W        W25715  36.023  17.659   1.285
64262W        W25716  11.752  34.991  14.881
64263W        W25717  28.625  12.164  12.417
64264W        W25718  38.033  31.470   2.297
64265W        W25719  40.421  24.193   3.372
64266W        W25720  32.071  28.057  11.563
64267W        W25721  14.220  39.892  13.025
64268W        W25722  24.671  14.180   3.237
64269W        W25723   7.318  26.150   3.843
64270W        W25724   8.682  18.552  13.451
64271W        W25725  21.136  32.478  14.812
64272W        W25726  34.563  41.992  12.536
64273W        W25727  17.061  34.581  12.078
64274W        W25728  23.163  40.830   0.247
64275W        W25729  29.952  32.066   2.204
64276W        W25730  44.333  26.206  12.523
64277W        W25731   9.714  36.909   4.126
64278W        W25732  39.047  22.134   4.793
64279W        W25733  37.054  19.222  10.628
64280W        W25734  29.018   0.967  14.789
64281W        W25735  35.011  40.373  12.854
64282W        W25736  17.614  38.497   0.305
64283W        W25737  12.802  11.736   0.421
64284W        W25738  12.225  29.645   4.709
64285W        W25739  36.427  36.407   0.823
64286W        W25740  43.361  40.342  11.467
64287W        W25741   0.274  34.397  11.413
64288W        W25742   2.759  19.706  14.921
64289W        W25743   2.229  36.577  10.957
64290W        W25744  44.492  25.638  11.041
64291W        W25745  23.076  37.939  11.127
64292W        W25746   1.894   7.878  12.823
64293W        W25747  17.231  12.718  14.445
64294W        W25748  24.557  32.459   4.750
64295W        W25749  13.827  31.131  12.093
64296W        W25750  12.687  21.734  14.864
64297W        W25751   6.806  27.520  14.935
64298W        W25752  30.979  16.691   4.194
64299W        W25753   0.754   3.910  11.930
64300W        W25754   0.332  41.844  14.435
64301W        W25755  13.706  20.148   5.247
64302W        W25756  26.983  20.230   2.259
64303W        W25757  24.046   6.412  12.477
64304W        W25758  16.695  41.391   1.730
64305W        W25759  15.257  32.033   3.688
64306W        W25760  36.974  42.419  12.573
64307W        W25761   7.398  43.871  12.828
64308W        W25762   8.169   9.252  12.445
64309W        W25763  11.720   9.292  11.594
64310W        W25764  13.810  42.390  12.553
64311W        W25765  30.014  24.557   4.271
64312W        W25766  23.069  17.601  11.918
64313W        W25767  15.304  22.228   1.896
64314W        W25768  39.843   1.249  12.343
64315W        W25769  33.102   2.776  11.499
64316W        W25770  15.144  12.698   2.730
64317W        W25771  22.019   3.817   0.440
64318W        W25772  17.696  10.182   4.664
64319W        W25773   8.297   3.928  14.992
64320W        W25774  39.888   5.834  13.025
64321W        W25775  27.686  42.831  13.876
64322W        W25776  13.165  41.379   3.205
64323W        W25777  23.545  32.998  11.091
64324W        W25778   2.459  39.058  10.601
64325W        W25779   2.459   3.282  12.906
64326W        W25780  24.613  36.368   0.961
64327W        W25781  44.781   5.424   2.803
64328W        W25782  30.163   6.746  14.859
64329W        W25783   5.324  24.714  10.583
64330W        W25784  27.110  17.705   2.823
64331W        W25785  17.762  30.502  11.532
64332W        W25786   9.249  42.983   1.891
64333W        W25787  12.632  21.570   3.747
64334W        W25788  35.018  35.060  10.586
64335W        W25789  30.649  14.202   0.379
64336W        W25790  36.449   4.939   3.824
64337W        W25791  31.101  19.762  14.443
64338W        W25792  43.459  23.112   1.218
64339W        W25793  29.103   3.298  11.856
64340W        W25794  15.214  42.481  13.436
64341W        W25795  38.916  12.852   1.423
64342W        W25796  29.570  34.577  14.363
64343W        W25797  18.229   8.791  13.827
64344W        W25798   8.235  14.711  13.889
64345W        W25799  44.350  16.665   0.351
64346W        W25800  40.844  41.497   3.238
64347W        W25801  33.501  41.003   2.304
64348W        W25802  12.826  36.922  11.460
64349W        W25803  10.866  18.157   1.286
64350W        W25804   1.893  41.341  14.834
64351W        W25805  22.091  30.972   2.724
64352W        W25806  34.594  18.245  13.433
64353W        W25807  37.518  35.437  13.346
64354W        W25808  40.923  29.997   0.876
64355W        W25809  18.574   0.478  14.876
64356W        W25810  26.997  34.940   1.433
64357W        W25811   9.283  44.477  11.857
64358W        W25812   0.409   1.809   1.334
64359W        W25813  31.991  32.985  14.006
64360W        W25814  42.358  40.331   0.443
64361W        W25815  26.063  33.041  13.043
64362W        W25816  23.185  13.735   4.603
64363W        W25817  34.017  41.950  14.311
64364W        W25818  23.127  26.615  13.897
64365W        W25819  21.117   6.802   0.958
64366W        W25820  34.436   8.219   1.812
64367W        W25821  29.152  23.523   1.864
64368W        W25822  21.626  30.070   0.482
64369W        W25823  24.220  43.923  13.547
64370W        W25824  44.278  35.988  13.310
64371W        W25825  28.023   0.451  12.534
64372W        W25826  10.878  43.787   4.271
64373W        W25827  13.656  38.559   1.227
64374W        W25828  13.143   7.184   4.602
64375W        W25829  44.945  23.077  14.511
64376W        W25830  37.469  26.492  13.523
64377W        W25831   7.383  37.922  11.958
64378W        W25832  17.587  13.327   4.717
64379W        W25833   5.342   0.424  11.100
64380W        W25834  28.050   1.836   2.766
64381W        W25835  31.564  20.125   3.355
64382W        W25836  25.109  42.503   4.734
64383W        W25837  40.843   1.739  11.864
64384W        W25838   4.744  43.767   1.769
64385W        W25839  19.090  39.871   3.188
64386W        W25840  14.692  15.279   1.889
64387W        W25841   6.264  22.598   3.164
64388W        W25842  30.941  24.115   0.380
64389W        W25843  21.051  39.335  14.779
64390W        W25844  23.009   7.828   1.390
64391W        W25845  42.344   3.821  13.059
64392W        W25846  32.054   7.895   1.315
64393W        W25847  24.622  27.652   3.182
64394W        W25848   4.423  42.913   2.303
64395W        W25849  29.076   8.232  13.810
64396W        W25850  37.500  42.478   4.151
64397W        W25851  20.242  30.441  12.345
64398W        W25852  18.725  25.565  14.938
64399W        W25853  33.994  44.770   4.728
64400W        W25854  34.120  30.151   3.380
64401W        W25855  14.785  42.437   3.368
64402W        W25856   6.426   9.298   2.358
64403W        W25857  25.002   4.812  10.954
64404W        W25858  15.655   3.794   0.767
64405W        W25859  37.473   2.431  14.355
64406W        W25860  19.181  44.467   0.436
64407W        W25861  13.813  11.152  14.778
64408W        W25862  11.248  24.683   2.839
64409W        W25863  40.428  15.805  10.485
64410W        W25864  13.715   5.278  13.890
64411W        W25865  27.049   1.384   4.160
64412W        W25866  28.997  27.106  14.299
64413W        W25867  16.296  10.772  13.338
64414W        W25868  12.638  21.515  13.848
64415W        W25869  42.869  13.253   1.398
64416W        W25870  33.881  39.962   2.360
64417W        W25871  17.681  10.711   0.280
64418W        W25872  25.619  42.813   0.273
64419W        W25873  31.513  22.629  13.933
64420W        W25874   7.335  24.697  14.820
64421W        W25875   5.399  24.043   0.794
64422W        W25876  40.926  11.192  11.513
64423W        W25877  25.480   9.160  11.978
64424W        W25878  30.050  20.231   0.409
64425W        W25879  44.267  29.559  13.343
64426W        W25880  42.471   2.294  13.838
64427W        W25881  28.624  12.711   1.293
64428W        W25882  39.952  43.403  10.532
64429W        W25883   2.310  37.359  14.423
64430W        W25884  19.635  15.770  13.934
64431W        W25885  24.709  25.168   1.229
64432W        W25886   2.782   6.423  11.493
64433W        W25887  23.632  31.626   3.364
64434W        W25888  39.862  44.833   3.775
64435W        W25889  34.041   2.464   2.397
64436W        W25890  43.324   4.410   1.730
64437W        W25891  30.005  13.652   1.278
64438W        W25892  15.739  34.428  13.423
64439W        W25893  38.963  23.509  11.880
64440W        W25894  34.002  34.028   1.859
64441W        W25895   6.705   8.872  14.965
64442W        W25896   1.809  35.982  14.504
64443W        W25897   2.319  38.483   2.332
64444W        W25898  41.320  44.937  12.951
64445W        W25899  25.964   2.377   1.254
64446W        W25900  24.135  26.457  14.924
64447W        W25901   5.919  22.734   0.804
64448W        W25902  35.007  44.416  11.037
64449W        W25903  15.239   8.741   2.802
64450W        W25904  38.525  41.530  10.446
64451W        W25905  14.286  14.743  14.939
64452W        W25906  29.073  27.979   4.664
64453W        W25907  36.370  18.159  14.914
64454W        W25908  34.400  22.634   4.120
64455W        W25909   8.689   8.313  13.355
64456W        W25910  41.885  20.157  13.334
64457W        W25911  22.687  30.553  13.017
64458W        W25912   4.216  13.244   3.241
64459W        W25913  27.554   5.880   4.744
64460W        W25914  26.579   9.279  13.872
64461W        W25915   3.340  14.210   1.731
64462W        W25916  38.418  33.960   4.684
64463W        W25917  34.474  28.616  13.001
64464W        W25918   6.732   0.853   4.785
64465W        W25919   9.644  31.023  11.544
64466W        W25920  30.446  34.880  10.947
64467W        W25921  44.786  26.470  11.402
64468W        W25922  11.146  27.972   4.806
64469W        W25923  43.976  12.616  11.124
64470W        W25924   5.365  11.153  13.868
64471W        W25925  11.838  34.462  13.456
64472W        W25926   0.418  25.603  14.371
64473W        W25927  22.502  25.685  12.963
64474W        W25928  34.035  37.409   3.367
64475W        W25929  23.607  44.449  12.849
64476W        W25930   6.342   4.417   2.262
64477W        W25931  24.230   4.808  12.090
64478W        W25932  12.856  23.109   9.465
64479W        W25933  26.955  29.478   0.357
64480W        W25934  24.184  15.752   3.306
64481W        W25935  20.056  30.142  13.427
64482W        W25936  13.700  28.145   3.202
64483W        W25937   7.774  12.158   3.249
64484W        W25938  12.747   2.340   0.839
64485W        W25939  18.251  31.410   3.338
64486W        W25940  18.153  16.152  10.928
64487W        W25941  34.003  31.924  10.586
64488W        W25942  42.377  27.150  14.502
64489W        W25943  23.700  25.197  14.391
64490W        W25944  36.456  29.096  10.445
64491W        W25945  27.482  34.595  14.872
64492W        W25946   6.281  31.441   1.695
64493W        W25947  12.851  10.159   4.289
64494W        W25948   6.795  29.982   4.222
64495W        W25949  30.420  36.586  13.986
64496W        W25950  42.793   5.327  10.971
64497W        W25951  33.428  39.481  13.521
64498W        W25952  33.545  15.685  13.798
64499W        W25953  23.588  28.172   0.245
64500W        W25954  23.516  42.800   4.344
64501W        W25955  41.511  18.751   0.843
64502W        W25956  42.488  44.427  10.146
64503W        W25957  35.962  42.848   3.840
64504W        W25958  19.695  11.317   0.916
64505W        W25959  30.480  31.068   2.189
64506W        W25960  27.080  38.474  11.542
64507W        W25961  16.795  20.196  14.874
64508W        W25962  20.091  12.848   3.692
64509W        W25963  19.586  36.051   1.875
64510W        W25964  29.004  26.039   1.391
64511W        W25965  32.119  26.567   3.801
64512W        W25966  19.203  44.454   2.249
64513W        W25967  24.646  19.737   4.296
64514W        W25968  44.387   1.767  12.502
64515W        W25969  21.114  42.882   1.320
64516W        W25970  23.112  27.001   2.308
64517W        W25971  35.579  37.533   1.694
64518W        W25972   0.388   0.826   0.344
64519W        W25973  42.896  29.110   0.936
64520W        W25974   4.730  14.829   0.773
64521W        W25975  20.738  16.698   0.790
64522W        W25976  14.687  36.454   4.204
64523W        W25977  10.360  33.482   1.300
64524W        W25978  44.486  16.747  14.804
64525W        W25979  26.006  34.051   3.291
64526W        W25980  44.885  30.005   1.895
64527W        W25981   6.700   9.784  13.543
64528W        W25982  11.220  10.866   0.316
64529W        W25983   1.453  42.434  10.492
64530W        W25984  23.225  13.709  11.399
64531W        W25985  41.445  12.284  14.995
64532W        W25986  44.846   4.266   4.599
64533W        W25987  41.931  33.485  11.988
64534W        W25988   1.291  32.431  13.922
64535W        W25989  31.425  32.132  12.049
64536W        W25990   8.245  41.993   2.858
64537W        W25991  18.556   8.663  14.801
64538W        W25992  26.122   9.715  10.406
64539W        W25993   1.841  22.090   3.321
64540W        W25994   0.406  17.793  11.473
64541W        W25995  38.057  10.748   0.787
64542W        W25996   8.313  28.952   2.684
64543W        W25997  20.636  18.279  14.381
64544W        W25998  31.093   1.273  14.943
64545W        W25999  26.595  36.007   2.302
64546W        W26000   8.165  28.015   0.378
64547W        W26001  40.891  17.668   1.838
64548W        W26002  32.527  41.955  10.590
64549W        W26003  36.949  38.428   3.712
64550W        W26004  36.587  15.221  13.894
64551W        W26005  43.835  44.882   2.416
64552W        W26006   6.209  14.750  13.922
64553W        W26007  13.633  26.196  12.431
64554W        W26008  33.880  19.161  14.938
64555W        W26009  27.977  35.530   1.392
64556W        W26010   9.691   7.829   3.791
64557W        W26011  37.083  11.693  13.989
64558W        W26012  37.070  37.390   0.273
64559W        W26013  39.545  44.763  11.552
64560W        W26014   7.792  33.974  13.052
64561W        W26015   9.296  39.349   0.749
64562W        W26016  30.915  31.511   1.421
64563W        W26017  16.615  31.496  12.374
64564W        W26018  20.620  20.171  10.523
64565W        W26019  42.429  42.418  10.917
64566W        W26020   3.720   0.774  12.069
64567W        W26021  15.156  40.867  12.931
64568W        W26022  41.858  43.973  10.974
64569W        W26023  24.163   8.881   0.351
64570W        W26024  18.257  28.565   2.319
64571W        W26025  17.126  44.885  12.943
64572W        W26026   5.284   0.751  12.578
64573W        W26027  21.550  31.017  11.472
64574W        W26028  32.447   2.734  12.487
64575W        W26029   2.898  24.102   1.825
64576W        W26030   2.299   7.354  11.456
64577W        W26031  44.870  27.545   3.301
64578W        W26032  42.459  31.553   3.302
64579W        W26033  41.834  43.858   3.823
64580W        W26034  32.117   1.881  12.953
64581W        W26035  24.519   3.221  14.014
64582W        W26036  38.513  10.876  13.417
64583W        W26037  24.168  33.565   3.686
64584W        W26038  38.910  11.762  10.131
64585W        W26039  42.946  22.095  11.390
64586W        W26040  30.603   8.773   2.277
64587W        W26041  35.588  15.218   0.259
64588W        W26042  42.804   4.355  12.830
64589W        W26043   5.398  20.694  10.634
64590W        W26044  29.959  21.166  14.293
64591W        W26045  13.754  10.831   3.331
64592W        W26046   1.295  40.041  13.037
64593W        W26047  10.683  31.054  13.534
64594W        W26048  27.176  36.000  13.950
64595W        W26049  22.595  36.493   3.239
64596W        W26050  25.060  12.127  10.626
64597W        W26051  42.295  16.148   3.241
64598W        W26052  35.069  33.458  14.931
64599W        W26053  20.656  28.178  14.960
64600W        W26054  19.063  21.590  13.876
64601W        W26055   8.723  11.176   1.304
64602W        W26056  32.468  19.258   1.434
64603W        W26057  12.175  33.074   9.588
64604W        W26058  13.319   9.797  13.003
64605W        W26059  23.143  25.470   2.287
64606W        W26060  22.147  35.365  11.475
64607W        W26061  40.483  31.442   0.354
64608W        W26062   5.197  43.332  12.827
64609W        W26063  29.485  17.302   1.306
64610W        W26064  10.780  14.178  14.854
64611W        W26065  22.501  16.171  12.049
64612W        W26066  39.987  23.618   3.366
64613W        W26067  39.341  20.557  11.441
64614W        W26068  35.571  22.142   3.731
64615W        W26069  24.058   7.327  10.159
64616W        W26070  23.506  19.575   4.610
64617W        W26071  33.517   0.907   4.272
64618W        W26072   6.768  38.509   3.845
64619W        W26073   0.986  43.306   1.442
64620W        W26074   8.867   7.311   1.800
64621W        W26075  17.764  41.309  11.079
64622W        W26076  16.760  16.112   3.152
64623W        W26077  25.586  38.361   2.756
64624W        W26078  36.404   2.813   4.345
64625W        W26079  33.057  22.225   0.875
64626W        W26080  31.504  16.127   2.812
64627W        W26081  16.764  11.285  13.946
64628W        W26082   1.968  18.694   1.897
64629W        W26083  37.979   2.828  10.476
64630W        W26084  12.805   8.300  11.883
64631W        W26085   8.818   9.703   2.750
64632W        W26086  40.474  19.565  13.446
64633W        W26087  29.019  26.566   4.830
64634W        W26088   5.342  22.045  10.447
64635W        W26089  40.966  14.266   0.391
64636W        W26090  30.158  15.717  12.850
64637W        W26091  42.784  37.066   3.384
64638W        W26092   4.281  30.104  14.361
64639W        W26093  15.221  44.872   1.877
64640W        W26094  36.555  41.856  10.537
64641W        W26095  19.225  44.304   9.958
64642W        W26096  25.058  40.415  10.413
64643W        W26097  19.208  25.626  12.414
64644W        W26098  24.664  29.978   1.226
64645W        W26099  11.734  12.305   1.855
64646W        W26100  26.550  17.091   4.754
64647W        W26101  21.528   9.843  10.608
64648W        W26102  40.473  21.028   5.096
64649W        W26103  29.668  20.629  10.462
64650W        W26104  18.121  29.102  11.584
64651W        W26105  30.955  15.662   0.312
64652W        W26106  27.956   5.846  12.885
64653W        W26107  16.603   7.900   3.831
64654W        W26108  42.806  34.390   4.598
64655W        W26109  28.031   5.691   0.753
64656W        W26110  39.046  12.618  10.621
64657W        W26111  20.534   7.669   3.751
64658W        W26112   8.390  19.665  14.305
64659W        W26113  10.207  24.632   0.413
64660W        W26114   7.292  39.860   3.268
64661W        W26115   9.277  34.471  12.349
64662W        W26116  39.873  14.611   4.205
64663W        W26117  43.970  17.191   1.377
64664W        W26118  35.487  36.040  10.901
64665W        W26119  11.356  35.471   0.412
64666W        W26120  27.100  44.948  13.850
64667W        W26121  28.015  13.186  12.448
64668W        W26122  34.428  19.181  11.505
64669W        W26123  22.614  30.146   2.201
64670W        W26124  15.682  30.061  11.988
64671W        W26125  44.826  26.543  13.527
64672W        W26126  33.501  14.100  10.631
64673W        W26127  32.540  20.213  13.813
64674W        W26128  25.488  41.886   3.850
64675W        W26129   6.396  33.899   0.800
64676W        W26130  41.420  43.432   1.292
64677W        W26131   7.668  14.722  11.924
64678W        W26132   7.252  19.716   4.277
64679W        W26133  35.367  34.460   3.819
64680W        W26134  20.636  37.891  11.051
64681W        W26135   1.475  40.456   0.740
64682W        W26136   8.802  22.537  11.458
64683W        W26137  13.218  27.537   1.232
64684W        W26138  43.923  43.955   3.175
64685W        W26139  19.166   8.832   3.226
64686W        W26140  30.061   4.373   9.965
64687W        W26141  23.989  21.116   9.987
64688W        W26142   7.785   6.853   0.320
64689W        W26143  33.489  32.403  11.611
64690W        W26144  43.440   2.421   1.826
64691W        W26145  24.531  22.649  10.572
64692W        W26146   0.852  17.694   0.326
64693W        W26147  18.231  18.104   3.692
64694W        W26148  37.485  30.162  14.364
64695W        W26149  12.701  31.006  10.943
64696W        W26150  34.869  24.652  12.989
64697W        W26151  14.604   8.720   2.321
64698W        W26152  13.708  39.318   1.837
64699W        W26153  17.258  32.484  14.797
64700W        W26154  41.486  18.560  14.279
64701W        W26155   2.375   4.317  13.309
64702W        W26156  10.312  14.164   4.117
64703W        W26157  43.819  18.136  11.884
64704W        W26158  19.118  24.716   0.428
64705W        W26159  25.114  14.812   1.806
64706W        W26160  17.797  44.286   2.732
64707W        W26161  22.111  37.391   0.785
64708W        W26162   3.834  43.477  13.876
64709W        W26163  34.506  14.257   4.662
64710W        W26164  10.172  21.146  13.045
64711W        W26165  30.955  42.398  14.006
64712W        W26166   1.859  28.679  13.827
64713W        W26167  15.250   4.799  14.876
64714W        W26168   8.657  17.576  12.523
64715W        W26169  29.505   1.855  11.118
64716W        W26170  31.586  26.071   3.330
64717W        W26171  12.235   0.251  10.435
64718W        W26172  13.184  34.480  12.526
64719W        W26173   4.732  34.431  10.127
64720W        W26174  26.553  35.852  14.400
64721W        W26175  19.117  16.252   0.475
64722W        W26176  23.208  34.096   0.929
64723W        W26177  19.687  23.626  14.456
64724W        W26178   6.711  37.463   0.330
64725W        W26179  31.037  29.515   3.261
64726W        W26180  42.314  16.810   1.283
64727W        W26181   9.350  14.735   4.214
64728W        W26182  34.052  44.948   1.345
64729W        W26183  25.170  23.644   2.367
64730W        W26184   0.370  19.229  12.366
64731W        W26185  33.470  26.625   0.794
64732W        W26186  30.592  29.581   0.311
64733W        W26187  21.023   4.766  11.578
64734W        W26188  43.491  21.607  10.640
64735W        W26189   2.955  28.586   3.707
64736W        W26190  35.053   4.380   0.406
64737W        W26191  16.115  33.451  10.489
64738W        W26192  23.648  22.089   4.792
64739W        W26193  33.434  40.960   3.674
64740W        W26194  38.951  18.562   0.467
64741W        W26195  10.305  13.278   2.875
64742W        W26196   8.307  36.399   4.282
64743W        W26197  23.219   5.269   4.222
64744W        W26198  29.485  30.601  13.422
64745W        W26199  44.926  15.120   0.472
64746W        W26200  13.236  25.494  12.404
64747W        W26201  35.099  33.899   3.798
64748W        W26202  44.766  39.009  12.913
64749W        W26203  28.466  13.275   4.795
64750W        W26204  25.594  40.433  13.834
64751W        W26205   6.304  34.472  14.360
64752W        W26206  36.448  14.241  11.568
64753W        W26207   9.312  17.662  13.902
64754W        W26208  32.523  10.802  14.439
64755W        W26209   1.443  12.259  10.936
64756W        W26210  41.911  38.018   4.350
64757W        W26211  34.383  32.599   3.325
64758W        W26212   5.198  44.965  12.473
64759W        W26213  14.323  24.505  11.452
64760W        W26214  16.694  12.246   2.761
64761W        W26215  20.148  42.867  12.867
64762W        W26216  22.614  19.775   1.780
64763W        W26217  40.444  26.595  12.508
64764W        W26218  21.683  22.198   4.119
64765W        W26219   0.434  44.807  11.097
64766W        W26220  14.742  22.090  12.389
64767W        W26221   1.764  25.108  12.022
64768W        W26222  40.910  19.777   4.188
64769W        W26223  18.712  37.078  14.312
64770W        W26224  43.367   3.219   1.695
64771W        W26225  18.638  16.102   4.253
64772W        W26226  41.950  14.818   1.710
64773W        W26227  30.151  26.964  12.504
64774W        W26228  22.731  35.042  10.149
64775W        W26229  22.733  26.002   2.297
64776W        W26230   4.347  44.377  11.896
64777W        W26231   0.864  11.260   0.825
64778W        W26232  34.561   7.691  14.870
64779W        W26233  21.188  41.474  14.292
64780W        W26234   3.357  20.666  14.300
64781W        W26235  12.816  25.662   1.896
64782W        W26236  15.601  43.778  13.869
64783W        W26237  13.255  13.202  11.383
64784W        W26238  11.278  44.934  11.491
64785W        W26239  34.402  14.799  10.514
64786W        W26240  40.355  15.297  10.480
64787W        W26241   8.170  44.459  14.861
64788W        W26242   7.814  10.737  13.463
64789W        W26243  28.519  39.856   4.640
64790W        W26244  28.027  35.106   2.885
64791W        W26245  10.760  11.801  11.924
64792W        W26246  39.487  33.939   0.343
64793W        W26247  22.061  18.199   0.378
64794W        W26248  31.970  18.216   2.207
64795W        W26249  44.424  25.673  13.358
64796W        W26250  11.193  18.089   1.748
64797W        W26251  39.812  15.166  12.019
64798W        W26252  34.463  22.179  12.835
64799W        W26253  22.559  33.967   4.609
64800W        W26254  20.210  27.954  11.465
64801W        W26255  37.580   7.855   0.880
64802W        W26256  15.810  21.573  14.902
64803W        W26257  34.436  17.253   4.646
64804W        W26258   7.897  38.329  12.383
64805W        W26259  12.725  37.527   2.682
64806W        W26260   7.806  26.184  13.015
64807W        W26261  31.970  39.030   5.157
64808W        W26262   4.854   8.749   2.330
64809W        W26263  43.367  28.518   4.688
64810W        W26264  24.628   8.332   0.330
64811W        W26265  20.191  29.435  10.636
64812W        W26266  31.136  30.448   4.715
64813W        W26267  30.633  15.775  13.862
64814W        W26268  37.549  37.947  12.418
64815W        W26269  42.858  24.069   2.755
64816W        W26270  36.403  20.564   2.262
64817W        W26271  40.478  15.584  13.941
64818W        W26272  13.631  11.148  13.986
64819W        W26273  42.881   9.797   4.710
64820W        W26274   5.278   0.968   0.822
64821W        W26275  27.492  11.633   2.243
64822W        W26276  25.652  43.403  14.833
64823W        W26277  26.076  31.146  14.976
64824W        W26278  39.927  34.970  10.904
64825W        W26279  15.792  43.429  12.488
64826W        W26280  27.559  36.433   1.879
64827W        W26281  20.631   4.864   3.756
64828W        W26282   2.342  17.097  14.848
64829W        W26283   0.821  33.874   3.342
64830W        W26284  33.401  33.932   4.211
64831W        W26285   7.319  12.765  12.348
64832W        W26286   6.713  31.444   2.349
64833W        W26287  11.195  42.416   0.845
64834W        W26288  29.657   9.216   0.458
64835W        W26289  26.643  34.110   2.232
64836W        W26290  13.140  26.536   3.237
64837W        W26291  28.443  40.933   1.352
64838W        W26292  33.596  11.790  11.457
64839W        W26293  25.176   4.366  14.964
64840W        W26294   0.753   8.196  14.805
64841W        W26295   8.211  44.294  12.960
64842W        W26296  22.549  17.288   0.465
64843W        W26297  29.151  32.417   5.252
64844W        W26298  36.887  27.653  12.988
64845W        W26299  31.508   5.383  14.959
64846W        W26300  26.482  36.362   4.684
64847W        W26301  36.905   9.233  14.493
64848W        W26302  27.667  34.480   0.906
64849W        W26303   3.727   8.826  11.453
64850W        W26304  42.847  25.171  14.996
64851W        W26305   0.369  11.662   0.420
64852W        W26306   1.466  25.535  14.280
64853W        W26307  11.722   9.177   0.823
64854W        W26308  12.279  19.577   1.269
64855W        W26309  38.463  25.667  11.070
64856W        W26310  41.812   6.247   0.396
64857W        W26311  16.134  22.233  14.003
64858W        W26312  16.788  23.548   1.783
64859W        W26313  22.998  21.077   3.198
64860W        W26314  41.825  29.635  12.400
64861W        W26315   5.770  18.574  10.936
64862W        W26316   9.368  18.615   0.313
64863W        W26317  44.429  41.915  13.311
64864W        W26318  28.484  33.919   0.335
64865W        W26319  23.086  29.650   2.769
64866W        W26320  38.459  19.618   3.787
64867W        W26321   7.673  40.450  13.480
64868W        W26322  33.412  11.200  11.424
64869W        W26323   0.248   7.185   1.379
64870W        W26324  11.703  22.703  14.488
64871W        W26325   0.284  38.006  11.933
64872W        W26326  19.135  17.733  13.010
64873W        W26327  11.265   7.186  11.544
64874W        W26328  37.558  32.494  14.865
64875W        W26329   8.713  29.624  10.120
64876W        W26330  19.057  27.964  12.844
64877W        W26331  14.161  22.631  14.903
64878W        W26332  32.435   6.746   1.371
64879W        W26333  29.026  32.614  10.146
64880W        W26334  31.933  43.951   2.852
64881W        W26335  22.652   4.807  14.356
64882W        W26336  16.656   2.291  14.974
64883W        W26337  15.242  34.505  10.622
64884W        W26338  37.936  30.121   0.941
64885W        W26339  15.120  27.983   4.329
64886W        W26340  35.918   8.881  12.934
64887W        W26341  40.846   8.402   4.297
64888W        W26342  33.917   5.216  11.898
64889W        W26343  14.297  28.140  12.912
64890W        W26344  20.660  36.459   0.933
64891W        W26345  31.415  18.771   0.382
64892W        W26346  37.384  10.780  10.626
64893W        W26347   8.801  27.558  12.987
64894W        W26348   7.774  44.340   1.815
64895W        W26349  41.041  26.497   2.744
64896W        W26350  13.191  38.334   5.253
64897W        W26351   8.699  41.010  14.323
64898W        W26352  14.233  25.093   0.343
64899W        W26353  31.134  23.100  10.960
64900W        W26354  17.178  39.554  11.493
64901W        W26355  12.746  20.760   1.310
64902W        W26356  18.279  19.684   2.845
64903W        W26357  12.679  32.971  13.363
64904W        W26358  20.745  36.975   0.264
64905W        W26359  16.744  21.627  10.571
64906W        W26360  36.471  15.227  14.940
64907W        W26361  17.643   4.765  14.990
64908W        W26362  31.627  14.146   4.113
64909W        W26363  20.158  15.283   4.283
64910W        W26364  21.661  41.945   0.773
64911W        W26365   1.939  44.338   4.692
64912W        W26366   8.383  20.721   3.158
64913W        W26367  15.766  37.923  10.585
64914W        W26368  19.666  33.097   4.703
64915W        W26369   9.190  31.930  13.002
64916W        W26370  18.765  29.448  14.487
64917W        W26371  17.788  25.547  12.477
64918W        W26372  22.569  22.546   4.272
64919W        W26373   2.337   3.917   0.281
64920W        W26374   8.339  29.987   1.354
64921W        W26375  12.304   4.344   3.642
64922W        W26376  17.155   8.889  13.816
64923W        W26377  33.979  29.125   4.152
64924W        W26378   2.932   4.791  12.906
64925W        W26379  20.251  33.096   2.185
64926W        W26380  38.430   3.902  12.847
64927W        W26381  34.590  39.439   4.165
64928W        W26382  13.175  17.159   4.816
64929W        W26383  27.495  37.569  14.463
64930W        W26384  25.113   4.729   3.655
64931W        W26385   2.267  34.946   4.734
64932W        W26386  43.887   2.461   1.445
64933W        W26387  14.765  15.775   3.868
64934W        W26388  39.555   7.245   3.750
64935W        W26389  29.440  32.490  13.419
64936W        W26390   5.246  42.920  11.083
64937W        W26391  29.003  11.337   5.577
64938W        W26392  26.152   8.848  13.505
64939W        W26393  20.059  31.042   1.310
64940W        W26394  36.918  25.028  10.640
64941W        W26395  28.942  42.499   0.780
64942W        W26396   5.730  40.396   3.781
64943W        W26397  15.317  42.374  10.614
64944W        W26398   8.331  32.634  12.065
64945W        W26399  30.513  39.039   3.378
64946W        W26400  34.978  42.303  14.370
64947W        W26401  44.262  22.053  10.157
64948W        W26402  20.550  27.953   1.264
64949W        W26403  21.583  26.187  14.015
64950W        W26404  33.567  42.937  13.062
64951W        W26405  26.563  28.629   0.418
64952W        W26406   4.261   6.259  14.978
64953W        W26407  23.192  30.045  14.833
64954W        W26408   6.376  37.537   0.951
64955W        W26409  39.902  32.889   1.902
64956W        W26410  23.561   2.906  13.935
64957W        W26411  21.617  33.517   1.368
64958W        W26412  22.172  26.680  10.638
64959W        W26413   0.336  23.158   3.737
64960W        W26414  32.890  24.630  14.504
64961W        W26415  31.627   2.300  13.855
64962W        W26416  14.610  42.953   2.747
64963W        W26417  34.526   2.721  12.959
64964W        W26418   2.376  25.026  11.031
64965W        W26419  42.976   3.370   0.826
64966W        W26420   0.955  27.146  12.914
64967W        W26421  42.827  20.747   2.258
64968W        W26422  20.215  35.490  10.469
64969W        W26423  12.836   5.203   3.149
64970W        W26424   8.242  33.906   1.278
64971W        W26425  19.670  35.080  14.374
64972W        W26426  22.093   0.807  12.368
64973W        W26427  29.069  27.643  11.911
64974W        W26428   3.223  34.078  12.545
64975W        W26429  32.530  36.008   0.265
64976W        W26430  19.168  25.613   2.414
64977W        W26431  17.771   5.934   4.801
64978W        W26432  11.275  34.997  14.962
64979W        W26433   9.261  23.554  13.928
64980W        W26434   1.926  10.310   5.143
64981W        W26435   6.298  26.049   0.765
64982W        W26436  30.631   2.470  12.074
64983W        W26437  27.174   8.269   2.839
64984W        W26438  10.873  21.034   3.646
64985W        W26439   5.398  32.444  10.560
64986W        W26440   6.358  34.014  10.976
64987W        W26441   1.957  16.646  12.003
64988W        W26442  41.491  12.648  10.922
64989W        W26443  33.001  41.351   2.315
64990W        W26444  28.580  22.530   2.740
64991W        W26445  41.408  24.184  13.391
64992W        W26446   1.236  28.667   1.814
64993W        W26447  35.479  39.336  10.935
64994W        W26448  28.071  19.056   1.719
64995W        W26449  42.996  41.294   3.698
64996W        W26450  21.061   4.302   4.649
64997W        W26451  19.134  14.143   2.769
64998W        W26452  15.304   4.361   4.152
64999W        W26453  13.332  29.123   4.314
65000W        W26454   7.387  34.991  13.837
65001W        W26455  10.253  41.422  10.924
65002W        W26456  23.633   2.308  10.527
65003W        W26457  37.966  32.922  13.064
65004W        W26458   5.194  25.694   3.767
65005W        W26459  15.203   3.439  13.415
65006W        W26460   1.824  36.554   4.692
65007W        W26461  37.894  40.018  13.851
65008W        W26462  40.417  30.507   4.215
65009W        W26463  18.702   5.915  12.579
65010W        W26464  29.117  12.301   3.694
65011W        W26465  21.251  43.018   3.749
65012W        W26466  29.921  43.903  14.369
65013W        W26467  28.096   6.212   9.920
65014W        W26468   4.232  12.679   2.785
65015W        W26469  27.972  24.130   4.227
65016W        W26470  22.083  13.806   1.843
65017W        W26471   2.305  42.367  11.903
65018W        W26472   9.186   1.796  14.940
65019W        W26473  39.333   4.255   1.374
65020W        W26474  11.797  40.954  11.028
65021W        W26475  12.338  11.131  14.924
65022W        W26476  10.313  16.314   1.772
65023W        W26477  41.844  15.607   0.939
65024W        W26478  37.395  41.946  14.481
65025W        W26479   1.857  27.156  14.851
65026W        W26480  32.617  32.995   0.841
65027W        W26481  42.776  28.533   2.832
65028W        W26482   5.199  29.621  13.892
65029W        W26483  34.455  37.373  13.813
65030W        W26484  26.645   7.386   3.649
65031W        W26485  33.106  20.166   0.773
65032W        W26486  41.932  34.600  13.904
65033W        W26487  16.277  23.082  11.091
65034W        W26488  38.841  27.498  11.403
65035W        W26489  35.052   1.260  11.052
65036W        W26490   5.432  16.787  12.856
65037W        W26491  12.300   9.788   1.837
65038W        W26492  35.398   6.379  10.925
65039W        W26493  40.041  29.557  12.077
65040W        W26494  12.242   2.280  11.082
65041W        W26495  39.019  35.923   3.161
65042W        W26496   7.300  24.709   1.266
65043W        W26497  36.922  21.161  12.417
65044W        W26498  36.497   8.228   3.702
65045W        W26499  10.742  42.001  10.966
65046W        W26500  15.314  16.187   1.806
65047W        W26501  42.516   2.421  14.807
65048W        W26502  37.914  34.538  13.409
65049W        W26503  35.513  35.548  13.033
65050W        W26504  43.776  16.595  14.380
65051W        W26505  22.189  15.651   4.130
65052W        W26506  43.842  10.663   3.346
65053W        W26507  11.691  31.037  13.857
65054W        W26508  17.073   9.211  12.538
65055W        W26509  35.491  43.906   1.870
65056W        W26510  24.176  14.264  14.417
65057W        W26511  32.038  29.942   2.233
65058W        W26512  33.979  43.492   2.204
65059W        W26513  11.734  43.959  10.918
65060W        W26514  26.036  27.663   0.853
65061W        W26515  40.443  35.032  10.921
65062W        W26516  44.806  44.274  11.912
65063W        W26517  20.261  39.353   0.759
65064W        W26518  20.216  35.416  13.362
65065W        W26519  36.544  42.517   2.409
65066W        W26520  19.547  26.144   1.255
65067W        W26521  23.028  22.105  13.461
65068W        W26522  21.256   5.253  12.383
65069W        W26523  21.158  44.989  12.857
65070W        W26524   5.203  13.698  10.978
65071W        W26525  26.614   5.710   2.723
65072W        W26526  29.482  19.750   9.978
65073W        W26527  44.792  11.135  12.046
65074W        W26528  24.989  44.439   3.363
65075W        W26529  30.001  23.216   0.891
65076W        W26530  26.651  20.552  11.497
65077W        W26531  39.859   1.306   2.229
65078W        W26532  20.102  26.612   4.633
65079W        W26533   6.838  13.319  12.849
65080W        W26534  13.286  25.636   4.309
65081W        W26535  28.150  36.515   0.954
65082W        W26536   0.252  31.640  14.984
65083W        W26537  33.088  38.434  10.524
65084W        W26538  24.009  40.388   3.841
65085W        W26539  18.591   7.346   2.754
65086W        W26540  28.039  29.064  10.910
65087W        W26541  16.187  17.150   1.855
65088W        W26542   9.776  15.235  14.415
65089W        W26543   3.942  17.181  10.510
65090W        W26544  19.188  28.162  11.474
65091W        W26545  14.107   3.846   4.324
65092W        W26546  25.080   0.335  11.525
65093W        W26547  40.004  44.309  12.042
65094W        W26548  35.515  17.262   1.437
65095W        W26549  16.772  33.508  12.913
65096W        W26550  26.634  43.782  14.301
65097W        W26551   1.973  34.598   4.699
65098W        W26552  33.914  21.511  11.918
65099W        W26553   1.792   5.836  11.111
65100W        W26554   5.439  14.683   0.930
65101W        W26555  43.459  22.247  12.496
65102W        W26556   7.202   1.410   1.900
65103W        W26557   1.760  15.323  13.533
65104W        W26558  18.740  26.686   0.729
65105W        W26559   7.415   6.405   2.880
65106W        W26560  40.395  23.666   0.474
65107W        W26561  18.783  33.103   0.939
65108W        W26562   4.932  26.141   3.751
65109W        W26563  30.570  16.167   0.354
65110W        W26564  30.078  25.712  14.980
65111W        W26565   4.780  11.834  10.145
65112W        W26566  36.373  11.362  10.906
65113W        W26567  19.731   2.341   2.397
65114W        W26568  39.841  44.269  14.839
65115W        W26569  16.121  16.734  14.364
65116W        W26570   9.728  34.473   5.691
65117W        W26571  31.473  37.970   2.838
65118W        W26572   1.977   4.385   1.268
65119W        W26573  16.094  43.789   4.621
65120W        W26574  44.946   0.342   3.772
65121W        W26575  34.502   5.288   1.282
65122W        W26576   9.381  40.877  14.962
65123W        W26577  27.530  26.584  12.454
65124W        W26578  22.024  24.106   3.296
65125W        W26579  23.723  20.639   2.738
65126W        W26580  14.833  32.092  13.828
65127W        W26581   7.750  36.438  12.915
65128W        W26582  27.580  14.753  11.012
65129W        W26583  19.141  38.387   2.333
65130W        W26584   0.251  27.005  13.490
65131W        W26585  34.491  16.675  13.048
65132W        W26586  42.926   6.827   4.726
65133W        W26587  16.131  31.067  13.431
65134W        W26588   8.702  14.657  13.924
65135W        W26589  28.574  15.750   1.715
65136W        W26590  35.867  24.087   0.374
65137W        W26591   7.851  27.123  11.414
65138W        W26592  40.798  27.581   1.875
65139W        W26593  33.965  17.269   0.263
65140W        W26594  28.532  36.056  12.392
65141W        W26595  24.714  26.553   4.711
65142W        W26596  40.874  38.431   4.190
65143W        W26597  35.061   4.446  11.386
65144W        W26598  40.309  38.035  12.060
65145W        W26599   9.319  34.086   2.209
65146W        W26600  13.162  41.998   5.652
65147W        W26601  33.546  32.895   0.802
65148W        W26602  14.601  25.686   3.847
65149W        W26603  23.626   4.204   1.705
65150W        W26604  15.694  11.825   4.336
65151W        W26605  41.440  34.869   0.453
65152W        W26606  35.107  32.512  11.923
65153W        W26607  29.637  27.949  10.147
65154W        W26608   0.443  10.792   1.755
65155W        W26609  21.168  30.602   0.370
65156W        W26610  18.788  22.068  14.031
65157W        W26611  16.205  33.620   0.298
65158W        W26612   9.799  17.154  14.380
65159W        W26613  32.040  40.844  13.994
65160W        W26614  41.512  34.973   4.642
65161W        W26615  40.502   3.779   0.805
65162W        W26616  25.492   7.877   5.103
65163W        W26617   7.870   2.763   4.242
65164W        W26618  31.925  33.538   3.782
65165W        W26619  29.164  14.777  13.336
65166W        W26620  30.001  32.589   2.902
65167W        W26621  10.697  31.578   4.128
65168W        W26622  43.500  42.027   4.233
65169W        W26623  25.002  23.650  13.816
65170W        W26624  30.150  37.481  14.874
65171W        W26625  40.053  13.197  12.351
65172W        W26626   5.425  32.966  11.961
65173W        W26627   7.819  34.567   0.772
65174W        W26628  19.271   6.878   1.264
65175W        W26629  33.438  31.069  13.379
65176W        W26630   8.799   5.784   1.902
65177W        W26631   0.343  26.076  13.034
65178W        W26632   6.307  40.486   3.717
65179W        W26633  16.711  34.117  13.818
65180W        W26634   8.809  22.622  14.345
65181W        W26635  44.858  44.921   2.823
65182W        W26636  40.494  20.185   4.232
65183W        W26637  31.545   6.243   2.871
65184W        W26638  31.140  27.965  11.995
65185W        W26639  30.992  15.124   0.281
65186W        W26640   7.767  26.030   4.194
65187W        W26641  23.571   1.390   0.931
65188W        W26642  30.149  15.664  13.901
65189W        W26643  11.624  43.296  14.395
65190W        W26644   7.352   0.968  10.586
65191W        W26645   1.318   8.259  10.991
65192W        W26646  27.024   1.794   4.294
65193W        W26647  13.162   9.378  12.404
65194W        W26648  19.598  24.647  14.465
65195W        W26649  18.296   1.753  11.508
65196W        W26650   9.203  16.675   0.275
65197W        W26651  19.081  33.570  10.903
65198W        W26652  12.318  29.540   0.361
65199W        W26653   1.913  25.536  14.365
65200W        W26654  40.954  13.706  13.341
65201W        W26655  13.831   1.372   3.252
65202W        W26656  43.396   9.773  10.909
65203W        W26657  32.494  21.177   4.754
65204W        W26658  33.049  17.799  12.861
65205W        W26659  33.097   5.697   0.431
65206W        W26660  36.026   8.368  10.604
65207W        W26661  33.616  17.104   4.309
65208W        W26662  36.504  25.109   4.319
65209W        W26663  30.049   3.278  10.936
65210W        W26664   2.379  34.880   3.719
65211W        W26665   8.338  34.599  14.450
65212W        W26666  19.606  26.489   1.386
65213W        W26667  33.554  20.573  11.382
65214W        W26668  12.228   9.662   4.196
65215W        W26669  35.984   1.773   1.330
65216W        W26670  28.036  30.941   3.217
65217W        W26671  13.784  37.430  11.103
65218W        W26672  39.459  36.031  11.577
65219W        W26673   3.773  29.629   3.368
65220W        W26674  18.683  39.050   0.273
65221W        W26675  16.253  32.075  14.786
65222W        W26676   9.151   9.252  10.530
65223W        W26677  27.135   1.934   3.658
65224W        W26678  12.188   1.760   3.846
65225W        W26679  26.561  17.560  11.078
65226W        W26680  39.897  21.678   2.705
65227W        W26681  42.343  35.388   4.674
65228W        W26682  20.196  32.006   0.452
65229W        W26683  19.552   6.886  10.407
65230W        W26684   5.427  40.959  14.971
65231W        W26685   0.780  36.450   1.394
65232W        W26686  38.907  43.360  12.574
65233W        W26687  28.598   8.213   1.219
65234W        W26688  35.964  34.948  13.433
65235W        W26689  43.387  10.173   1.308
65236W        W26690  29.121  38.441   1.443
65237W        W26691  17.103  11.762   3.201
65238W        W26692  12.669  16.258   5.801
65239W        W26693  11.670   1.838   2.880
65240W        W26694  21.088  42.023   1.385
65241W        W26695  38.930   1.353  13.008
65242W        W26696  25.002  39.481   2.663
65243W        W26697  32.434  24.612  14.481
65244W        W26698  17.669  29.632  11.940
65245W        W26699  32.949  26.465  10.641
65246W        W26700  43.802  40.388  13.535
65247W        W26701  43.831  36.463   2.268
65248W        W26702   8.180  30.042  13.380
65249W        W26703  38.486  20.219   2.366
65250W        W26704  29.625   2.429   4.698
65251W        W26705  36.024  36.951  11.022
65252W        W26706  18.070   1.828   2.740
65253W        W26707  23.191   6.341   3.751
65254W        W26708  42.497   4.229   4.777
65255W        W26709  38.564  30.466  11.405
65256W        W26710  20.729  26.038   1.808
65257W        W26711   8.387  11.241   0.736
65258W        W26712   0.375  27.550   1.426
65259W        W26713  20.221  13.287   3.158
65260W        W26714  41.318  39.997  12.041
65261W        W26715  12.727  36.975   3.289
65262W        W26716  40.022  38.517  14.441
65263W        W26717  27.114  43.317   0.939
65264W        W26718  22.063  19.636  11.515
65265W        W26719  43.014  42.007   3.371
65266W        W26720  26.051  33.471  14.280
65267W        W26721  18.638  10.814  10.631
65268W        W26722  10.148  29.545  11.922
65269W        W26723  25.038   5.788  12.095
65270W        W26724   7.887  38.521  14.967
65271W        W26725  12.752  42.903  13.057
65272W        W26726  20.636  24.136  12.936
65273W        W26727   0.387  34.444   2.776
65274W        W26728  31.946   0.906   1.877
65275W        W26729  16.228  25.472   1.739
65276W        W26730  30.158  44.393  10.444
65277W        W26731  44.801  16.315  12.436
65278W        W26732  31.524  29.496  12.560
65279W        W26733  36.974  11.161  14.830
65280W        W26734  18.778  16.251  12.896
65281W        W26735   1.237  37.414  14.467
65282W        W26736   4.394  18.754   1.869
65283W        W26737  40.910  34.455  13.944
65284W        W26738  24.655  34.081   3.753
65285W        W26739  15.090  44.823  10.416
65286W        W26740  27.015  22.077  13.884
65287W        W26741  37.970   4.245   2.836
65288W        W26742  27.063  41.789  14.283
65289W        W26743  33.937  30.581  13.849
65290W        W26744  24.129   0.770  12.023
65291W        W26745   4.447  17.150  11.915
65292W        W26746   4.899  44.864  12.876
65293W        W26747  32.898  29.646   3.678
65294W        W26748  31.147  38.865  11.876
65295W        W26749  22.534  28.024   0.351
65296W        W26750  22.679  33.932   2.184
65297W        W26751  20.145  43.942  10.947
65298W        W26752  34.946  43.944   3.250
65299W        W26753  13.694  20.040  12.493
65300W        W26754  34.878  32.581   3.805
65301W        W26755  15.616  18.683   1.428
65302W        W26756  30.100  37.872   4.199
65303W        W26757  27.116   0.294   2.722
65304W        W26758  25.700  16.152   4.616
65305W        W26759  33.534   8.701   0.250
65306W        W26760  44.921   2.961   4.243
65307W        W26761  30.121  30.004   3.263
65308W        W26762  16.265  39.433   2.784
65309W        W26763  22.550   7.772  13.528
65310W        W26764  12.187   7.689  11.928
65311W        W26765  20.136  23.064  12.528
65312W        W26766   9.721  35.870   3.868
65313W        W26767  40.541   7.813  10.417
65314W        W26768  29.984   7.312  13.914
65315W        W26769  41.017   1.739  13.316
65316W        W26770   9.302  30.653   4.658
65317W        W26771  36.377   7.280  13.337
65318W        W26772  42.504  33.111  10.490
65319W        W26773   3.738  22.663   4.647
65320W        W26774   4.940  10.155   4.296
65321W        W26775  14.640   3.258  13.494
65322W        W26776  42.310  31.080  11.603
65323W        W26777  38.984  13.258   2.846
65324W        W26778  38.439  32.948   0.440
65325W        W26779  33.393  27.507  10.431
65326W        W26780  31.609  41.360   1.296
65327W        W26781  20.257  19.678   3.300
65328W        W26782  38.419  10.809   2.696
65329W        W26783  10.343  25.102  12.974
65330W        W26784  10.774  41.524  14.386
65331W        W26785  20.755  42.353   2.261
65332W        W26786  10.268   3.782   1.935
65333W        W26787   4.940  36.975   2.219
65334W        W26788  12.287   2.311   4.328
65335W        W26789  17.797  12.268  12.037
65336W        W26790  40.468  39.467   0.840
65337W        W26791   0.782  23.163   3.846
65338W        W26792  40.031   3.916  10.634
65339W        W26793   0.838   1.784   3.693
65340W        W26794  26.617  34.514  11.392
65341W        W26795  28.081  39.375  13.424
65342W        W26796  39.409  35.415  13.501
65343W        W26797  25.711  27.943   1.696
65344W        W26798  25.581  17.286   9.962
65345W        W26799  19.198  28.533  14.402
65346W        W26800  39.905  18.731  10.457
65347W        W26801  11.784  30.642  11.917
65348W        W26802  38.450  13.684  14.508
65349W        W26803  22.115  35.888   0.738
65350W        W26804  44.994  28.985   1.857
65351W        W26805  13.284  27.528   2.697
65352W        W26806  16.123  12.299   3.255
65353W        W26807  32.548   5.702   0.762
65354W        W26808  28.543   6.308  12.449
65355W        W26809  41.373  26.600  10.990
65356W        W26810  37.880  14.167  13.042
65357W        W26811  37.942  22.046  13.005
65358W        W26812  25.091  19.666  11.439
65359W        W26813  27.493   0.855   1.860
65360W        W26814  37.909  26.648   3.360
65361W        W26815  15.729  13.649  11.379
65362W        W26816  27.655  23.637  12.489
65363W        W26817  16.305  28.160   2.224
65364W        W26818  16.230   7.713   0.465
65365W        W26819  39.520  19.646  13.897
65366W        W26820   2.928   7.851  11.906
65367W        W26821   4.795   4.241  13.032
65368W        W26822   8.275  34.388   0.366
65369W        W26823   6.329  40.943   0.826
65370W        W26824  32.106  29.449   1.864
65371W        W26825  13.641  37.022  13.923
65372W        W26826  25.556  15.634   0.808
65373W        W26827  11.864   1.780  14.515
65374W        W26828   9.777  20.117   5.714
65375W        W26829   9.777  42.019  12.843
65376W        W26830  18.058   2.414  14.913
65377W        W26831   8.171  17.565  11.103
65378W        W26832   1.316  30.163   1.294
65379W        W26833  10.268  35.102  14.448
65380W        W26834   6.706  28.483  10.534
65381W        W26835  36.041  33.889  11.989
65382W        W26836  15.732  23.618   3.764
65383W        W26837   2.415  12.194   3.755
65384W        W26838  26.954  17.577  13.343
65385W        W26839   4.250  16.647   0.423
65386W        W26840  28.668   2.466   2.261
65387W        W26841  40.446  41.462   0.248
65388W        W26842   7.304  29.091   3.375
65389W        W26843  21.217  11.346   3.663
65390W        W26844  26.144  30.609   3.282
65391W        W26845  14.624  12.263   1.862
65392W        W26846  26.636  16.728   4.293
65393W        W26847  34.988   0.758  10.534
65394W        W26848  28.089   1.770  11.004
65395W        W26849  44.948  11.184  11.075
65396W        W26850  34.608  14.589  11.411
65397W        W26851   1.865  37.454  14.941
65398W        W26852  35.983   0.916   4.640
65399W        W26853  17.622   6.880   2.411
65400W        W26854  16.736  14.785   4.163
65401W        W26855  39.363  18.210   3.821
65402W        W26856  32.997  41.986   1.742
65403W        W26857  10.747  14.631  11.968
65404W        W26858  11.860  10.239   2.854
65405W        W26859  22.737  23.170  11.918
65406W        W26860  14.790  22.545   4.795
65407W        W26861  18.713  44.451  11.004
65408W        W26862   6.819  10.234   2.827
65409W        W26863   8.201  26.035  13.309
65410W        W26864  41.872  14.833   0.868
65411W        W26865  11.259  27.159  13.915
65412W        W26866  16.236   0.493   0.275
65413W        W26867  20.610  35.598   1.850
65414W        W26868  11.856   5.731  10.061
65415W        W26869  40.380  39.375  14.944
65416W        W26870   0.790  12.621   2.858
65417W        W26871  22.509  32.901  12.039
65418W        W26872  25.110  15.319   3.271
65419W        W26873  24.570   6.257  12.455
65420W        W26874  19.711  13.135   2.817
65421W        W26875  42.018   8.724  14.465
65422W        W26876  30.017   8.789   4.750
65423W        W26877   2.244  26.035   1.797
65424W        W26878   7.239  37.542   2.183
65425W        W26879  44.764   3.328   4.334
65426W        W26880  18.595  35.909  12.958
65427W        W26881  22.530  27.684   1.922
65428W        W26882  35.383  21.584   0.815
65429W        W26883   2.443   1.973  11.580
65430W        W26884  15.754  15.692  11.964
65431W        W26885  36.580  30.044  11.904
65432W        W26886  35.425  31.626   2.190
65433W        W26887  37.982  13.635  12.436
65434W        W26888   8.343  18.744   4.213
65435W        W26889   4.927   4.232   4.148
65436W        W26890  37.534  16.179  13.020
65437W        W26891  41.473   8.320   1.217
65438W        W26892  43.466  43.386  14.758
65439W        W26893  25.629  30.051  11.540
65440W        W26894  35.100  32.142   2.777
65441W        W26895   8.329  22.584   0.409
65442W        W26896  41.015  17.117   4.662
65443W        W26897  13.796  10.249   3.708
65444W        W26898  24.016  35.852   5.249
65445W        W26899  40.034  36.520   4.723
65446W        W26900  27.165  11.206   1.782
65447W        W26901  22.615  39.028   1.424
65448W        W26902  37.083  15.682   0.903
65449W        W26903  41.878  14.833   0.374
65450W        W26904  29.137  13.701  14.976
65451W        W26905  33.958   3.460  14.369
65452W        W26906  44.408  27.599  14.770
65453W        W26907   1.816  34.585  11.507
65454W        W26908  20.701  34.893   0.472
65455W        W26909  39.438  23.109   1.709
65456W        W26910   1.257  42.427  14.448
65457W        W26911  19.232  35.368  12.968
65458W        W26912  22.592  43.422  13.374
65459W        W26913  17.061  19.644   0.965
65460W        W26914   4.769  29.949  13.394
65461W        W26915  10.711  29.618  13.375
65462W        W26916  36.927   7.837   2.262
65463W        W26917  28.456  35.050   3.771
65464W        W26918   4.809  10.748   1.366
65465W        W26919   8.187  36.556  12.485
65466W        W26920  20.647  25.057   4.280
65467W        W26921  35.105  36.478   3.152
65468W        W26922  25.068  29.641  13.010
65469W        W26923  25.169  37.476   2.355
65470W        W26924  11.262  20.735  12.432
65471W        W26925  18.725  34.395   4.201
65472W        W26926  34.966  20.093  11.546
65473W        W26927   8.190  12.729   2.410
65474W        W26928  44.349   6.239  12.928
65475W        W26929  25.563  40.891  12.948
65476W        W26930  12.136  39.500  13.944
65477W        W26931  37.830  12.215   1.877
65478W        W26932  26.565  25.985   0.272
65479W        W26933  19.060  34.469  14.984
65480W        W26934   2.322  44.328  13.992
65481W        W26935  42.290   5.242  14.304
65482W        W26936   9.311  13.608  14.959
65483W        W26937  37.397  16.738   3.163
65484W        W26938  32.610   2.811   4.317
65485W        W26939  43.360  23.633  11.505
65486W        W26940  25.059  34.473  11.988
65487W        W26941  17.746  39.995   2.347
65488W        W26942  15.199  15.731   1.697
65489W        W26943  12.658  10.342   2.794
65490W        W26944  25.558  13.246  12.524
65491W        W26945  25.587  17.780  14.985
65492W        W26946  13.108  33.060  10.564
65493W        W26947   4.703   9.384   3.787
65494W        W26948  32.082  20.224   0.949
65495W        W26949   5.194  38.021  14.401
65496W        W26950   0.801  21.113   1.833
65497W        W26951  35.495  27.198   2.318
65498W        W26952  30.967  32.993   1.284
65499W        W26953   4.429  42.411   2.306
65500W        W26954  14.742  37.872  14.006
65501W        W26955   9.373  21.670   0.902
65502W        W26956  30.041  44.941   2.758
65503W        W26957  31.611   0.249  13.457
65504W        W26958  15.739  16.273   4.274
65505W        W26959  33.906  11.353  14.370
65506W        W26960   1.766  37.538  12.090
65507W        W26961  14.831  34.440   1.274
65508W        W26962  11.856  15.138   2.215
65509W        W26963  13.831   0.902   0.395
65510W        W26964   3.347  43.342  12.862
65511W        W26965   1.910  14.181  10.486
65512W        W26966  36.935  41.863   1.404
65513W        W26967  31.493   7.214   0.920
65514W        W26968  30.450  25.562  10.950
65515W        W26969  17.642  22.995  10.949
65516W        W26970  13.845  18.135  13.308
65517W        W26971  40.808   7.247  10.530
65518W        W26972  33.426   0.927  10.905
65519W        W26973  16.110  31.089  12.974
65520W        W26974  26.679  16.594   0.960
65521W        W26975  10.753  33.589  14.380
65522W        W26976   0.379  35.877  11.092
65523W        W26977   0.270   5.311  13.473
65524W        W26978   2.449  17.159   0.787
65525W        W26979  17.578   7.680   0.483
65526W        W26980  24.228   4.285   1.291
65527W        W26981   8.721  43.842   0.313
65528W        W26982   3.755  39.912   1.709
65529W        W26983  12.198  31.495  14.462
65530W        W26984  35.578   8.173  12.399
65531W        W26985  22.148  43.005  14.760
65532W        W26986  27.065  28.681  12.935
65533W        W26987  21.250  32.989   0.815
65534W        W26988  40.454   8.803   9.960
65535W        W26989  42.818  42.812  12.039
65536W        W26990  20.748  42.392  11.877
65537W        W26991  30.071  31.492   1.884
65538W        W26992  33.611  12.670   0.797
65539W        W26993   2.778  39.838  14.877
65540W        W26994  30.509  12.787   0.415
65541W        W26995  20.677  34.570   0.763
65542W        W26996   4.865  25.004  11.003
65543W        W26997   3.911  11.226   1.324
65544W        W26998  39.374  28.647   2.732
65545W        W26999  15.275  34.502   0.304
65546W        W27000  17.094  33.015   0.950
65547W        W27001  25.997  28.583   3.205
65548W        W27002  34.487  34.061   4.730
65549W        W27003  39.478   4.442  10.614
65550W        W27004  10.836  25.692  11.613
65551W        W27005  19.100  34.452  11.006
65552W        W27006  16.288  43.832  12.442
65553W        W27007  19.236  12.783  14.370
65554W        W27008  44.964  18.160   1.374
65555W        W27009   1.852  23.076   1.346
65556W        W27010  12.133  38.842   3.258
65557W        W27011   3.738  15.725   5.185
65558W        W27012  36.900  29.651  10.922
65559W        W27013  33.883  43.328  11.501
65560W        W27014  42.410  15.785   4.211
65561W        W27015  22.057  18.579  12.039
65562W        W27016  11.625  21.190  11.606
65563W        W27017  21.060  33.573   3.692
65564W        W27018   2.904  33.985  12.826
65565W        W27019  29.504  32.591   3.379
65566W        W27020  36.030  15.813   3.845
65567W        W27021   8.848  41.026  11.602
65568W        W27022  11.272  14.244  14.408
65569W        W27023  25.496  35.027  14.409
65570W        W27024   3.910  29.624   4.781
65571W        W27025  20.088  25.578  10.631
65572W        W27026  33.962  36.031  14.427
65573W        W27027  11.181   4.753   3.649
65574W        W27028  14.628   3.796  14.317
65575W        W27029  16.762  42.497  13.438
65576W        W27030  37.875  21.529  13.867
65577W        W27031  10.246  20.171  12.946
65578W        W27032  18.211  24.055  13.865
65579W        W27033  38.531   3.310   2.767
65580W        W27034  38.401  41.410   1.836
65581W        W27035  13.129  29.574  14.346
65582W        W27036  37.033   9.152  12.879
65583W        W27037  37.340  14.779   1.236
65584W        W27038  21.239  21.086  11.928
65585W        W27039  20.256  24.210  14.814
65586W        W27040  25.215  30.567   2.814
65587W        W27041  41.900   9.162  12.385
65588W        W27042  33.545  38.535  14.770
65589W        W27043  24.603  21.657  13.480
65590W        W27044  22.216   5.816  12.858
65591W        W27045  23.131  27.675  10.956
65592W        W27046  27.641  41.438   4.210
65593W        W27047   7.190  12.716  14.898
65594W        W27048   8.666  20.743  11.599
65595W        W27049  31.468  38.061  12.490
65596W        W27050  17.637   7.907   2.662
65597W        W27051  19.650  37.505   1.889
65598W        W27052   1.412  13.232  11.096
65599W        W27053  10.278  38.495   3.635
65600W        W27054  28.989  24.056  11.402
65601W        W27055  28.169  11.641  12.922
65602W        W27056   7.861   9.219   0.425
65603W        W27057  41.405  11.173   0.962
65604W        W27058  12.784  44.351   2.286
65605W        W27059  24.480  23.555  13.054
65606W        W27060  11.726  30.122  12.037
65607W        W27061  32.921  41.041   3.832
65608W        W27062   9.859  39.980   2.684
65609W        W27063  12.834  41.471   1.861
65610W        W27064  31.128  10.704  11.443
65611W        W27065  13.738  40.007   3.173
65612W        W27066  37.944  43.814  10.508
65613W        W27067  40.876  25.159  14.787
65614W        W27068  26.483  34.113   1.295
65615W        W27069  15.772  44.789  14.393
65616W        W27070  13.821  20.052  10.942
65617W        W27071  43.932  19.682  12.980
65618W        W27072   0.254  12.786   3.669
65619W        W27073  13.269  18.639  14.911
65620W        W27074  34.973  41.474   5.149
65621W        W27075  12.167   7.229   2.347
65622W        W27076  43.971  30.143  10.433
65623W        W27077   0.307  31.570   3.296
65624W        W27078  22.532  22.178   4.306
65625W        W27079  35.939  44.969  13.829
65626W        W27080  32.465  19.670   0.408
65627W        W27081  16.179  44.390  11.488
65628W        W27082  17.072  21.656  13.016
65629W        W27083   9.309  33.104   3.801
65630W        W27084  32.955  33.974  12.013
65631W        W27085  25.666  14.793   2.260
65632W        W27086  21.745  12.790  14.826
65633W        W27087   3.847  35.929  13.334
65634W        W27088   0.347   0.317  11.108
65635W        W27089  14.672  22.613  12.080
65636W        W27090   6.705  31.033  11.093
65637W        W27091   3.215  26.123  13.402
65638W        W27092  17.153   1.288   1.290
65639W        W27093  10.877  39.874   0.364
65640W        W27094  40.910  35.513  12.486
65641W        W27095  44.384   8.202  14.001
65642W        W27096  23.208  31.545   1.311
65643W        W27097  18.765   5.777  13.539
65644W        W27098  29.559   8.308  12.459
65645W        W27099  20.206  34.537  13.965
65646W        W27100  22.725   3.247   0.335
65647W        W27101  26.020  41.375   3.240
65648W        W27102  16.807  30.918  12.833
65649W        W27103  29.074   2.948  11.485
65650W        W27104  29.522  24.230  10.566
65651W        W27105  44.990  22.091   4.122
65652W        W27106  31.999  20.079  11.923
65653W        W27107  15.209   4.831   3.240
65654W        W27108  37.374  35.877  14.392
65655W        W27109  20.667  17.272  13.858
65656W        W27110  40.490  24.187  11.034
65657W        W27111  14.251  39.466   1.221
65658W        W27112   1.243  42.358   3.337
65659W        W27113  17.656  26.575  13.915
65660W        W27114  42.789   1.292  14.014
65661W        W27115  23.016  20.157   1.218
65662W        W27116  18.292   5.256  12.498
65663W        W27117  34.530  42.454   3.175
65664W        W27118  36.999  41.512   1.779
65665W        W27119  29.560  35.922   0.741
65666W        W27120   0.854  18.259   2.708
65667W        W27121   3.816  38.367   4.690
65668W        W27122  37.085   9.833  11.496
65669W        W27123  21.072   0.370  14.810
65670W        W27124  40.913   2.783   1.410
65671W        W27125  27.581   6.201   2.310
65672W        W27126  40.030   8.788   0.891
65673W        W27127  23.543  25.714  13.009
65674W        W27128  40.438  21.681  13.422
65675W        W27129  36.517   3.802  14.953
65676W        W27130  36.948  10.196   2.380
65677W        W27131  15.612  19.267   0.252
65678W        W27132  37.431  10.331   0.377
65679W        W27133  26.557  30.951   0.243
65680W        W27134  39.420  12.159  12.879
65681W        W27135  41.974  37.389  10.572
65682W        W27136  13.710  10.197  11.397
65683W        W27137  24.180  32.989  13.925
65684W        W27138  25.168  27.983   1.331
65685W        W27139  28.572  18.771   2.667
65686W        W27140  40.317  15.747   5.266
65687W        W27141   1.924  18.146  14.770
65688W        W27142  34.099  28.646  13.003
65689W        W27143   3.356  31.533  14.374
65690W        W27144   0.976  34.516   4.658
65691W        W27145  30.653  28.085   4.656
65692W        W27146  25.172  40.050  12.411
65693W        W27147   0.391   1.945  13.489
65694W        W27148  39.449  10.278   0.948
65695W        W27149   0.909  37.050   1.396
65696W        W27150  21.122  24.479  13.490
65697W        W27151   5.878  41.317  14.343
65698W        W27152   9.881  37.000   3.297
65699W        W27153  28.008  23.165  12.425
65700W        W27154  21.094   3.289   2.895
65701W        W27155  12.746  44.885   3.210
65702W        W27156   4.796  39.813  13.911
65703W        W27157  41.998  43.896  12.450
65704W        W27158   9.785  21.567  11.535
65705W        W27159  26.684  33.419   1.804
65706W        W27160   2.922   8.396   4.211
65707W        W27161  31.077  43.801   3.299
65708W        W27162  43.467   4.422   4.731
65709W        W27163  32.490  38.832  13.010
65710W        W27164  29.173  32.501   5.772
65711W        W27165  17.106  26.083   0.451
65712W        W27166  17.771  24.142  11.497
65713W        W27167  28.036  19.675   0.335
65714W        W27168  39.020  28.938   2.339
65715W        W27169   5.913  41.434  12.526
65716W        W27170  42.957  13.177   3.305
65717W        W27171   4.791  23.728  10.022
65718W        W27172   6.286  23.206  11.590
65719W        W27173   1.274  37.059  10.528
65720W        W27174  30.608  33.911   2.398
65721W        W27175  38.550  20.207   4.824
65722W        W27176  15.675  16.696  12.537
65723W        W27177  15.610  23.146   3.290
65724W        W27178  29.526  13.333  13.548
65725W        W27179  13.310   2.813  12.541
65726W        W27180  19.617  12.812  10.039
65727W        W27181  14.768  12.775   0.947
65728W        W27182  41.989  20.056  12.051
65729W        W27183  15.241   2.753   1.243
65730W        W27184  40.907  37.448   0.858
65731W        W27185  23.095  37.048  14.930
65732W        W27186  40.528   2.253   3.173
65733W        W27187   0.416  17.247   2.237
65734W        W27188   1.332  19.086  13.983
65735W        W27189  33.513  17.621   3.261
65736W        W27190   0.840   1.908   5.107
65737W        W27191  38.982  20.539  14.496
65738W        W27192  25.559  11.823  11.989
65739W        W27193  12.323  39.414  13.050
65740W        W27194   6.886  12.313  13.447
65741W        W27195  44.941  11.311  11.485
65742W        W27196  23.557  15.822   1.882
65743W        W27197  31.069   7.846   0.817
65744W        W27198   9.266  37.051   4.210
65745W        W27199  12.169  31.068   0.304
65746W        W27200  40.377   7.800   0.879
65747W        W27201   5.328  36.027  14.026
65748W        W27202  28.471   2.279   4.750
65749W        W27203  44.319   0.433   4.274
65750W        W27204  29.507  17.748  14.933
65751W        W27205   6.772  13.260  14.514
65752W        W27206  24.087  25.486   2.822
65753W        W27207  12.213   3.319   0.325
65754W        W27208  28.930  20.195  11.957
65755W        W27209  34.518   3.338  14.886
65756W        W27210  13.302  40.828  12.057
65757W        W27211  29.489  10.685   0.415
65758W        W27212  44.766  37.002   3.709
65759W        W27213   7.880  40.535  12.962
65760W        W27214  25.093  42.796  13.353
65761W        W27215   4.395  37.468  13.845
65762W        W27216   9.809  30.514   1.428
65763W        W27217   0.827  25.982   2.362
65764W        W27218  22.115  31.920  11.103
65765W        W27219  34.482  23.200   3.733
65766W        W27220   4.297  20.758   0.923
65767W        W27221  37.875  35.986  14.492
65768W        W27222  17.680  39.480  14.867
65769W        W27223   8.256   7.269   4.135
65770W        W27224  23.208  29.069  14.933
65771W        W27225  21.643  19.682  10.907
65772W        W27226  11.666  20.219   2.897
65773W        W27227  42.892  20.090  10.900
65774W        W27228  17.613  18.275   2.808
65775W        W27229   9.172  30.154   4.187
65776W        W27230   7.258  23.087   4.260
65777W        W27231   8.851  32.974   4.734
65778W        W27232  23.543  38.940   1.917
65779W        W27233  29.615  36.949   3.309
65780W        W27234  29.947  20.537  13.795
65781W        W27235   0.958  25.164  13.975
65782W        W27236  43.988  28.596   1.900
65783W        W27237  36.877  31.009   0.353
65784W        W27238   5.389   0.249   1.263
65785W        W27239  18.120  17.272   0.960
65786W        W27240  27.472  29.485   1.415
65787W        W27241  18.260   2.864  12.893
65788W        W27242  18.158  10.143   2.742
65789W        W27243  44.009  23.149   0.304
65790W        W27244  30.129  20.621  14.414
65791W        W27245  36.940  28.671  10.983
65792W        W27246  12.130  34.533   0.827
65793W        W27247  29.444   4.235   3.198
65794W        W27248  40.512   8.884  11.582
65795W        W27249  30.535  14.144  13.456
65796W        W27250  21.082  23.646  14.505
65797W        W27251   4.889   6.694  13.531
65798W        W27252  29.568  28.077   4.711
65799W        W27253  17.072  43.440   3.309
65800W        W27254  35.544  20.534  10.627
65801W        W27255  15.296  43.981   0.865
65802W        W27256  20.082   2.854  11.010
65803W        W27257   4.342  17.782  10.596
65804W        W27258  16.711   9.748  11.875
65805W        W27259  34.103  30.112   0.798
65806W        W27260  19.225  36.420  12.543
65807W        W27261  13.698   3.888   2.790
65808W        W27262  44.382  39.490   0.939
65809W        W27263  35.419  43.399  14.416
65810W        W27264  42.383  33.893  12.952
65811W        W27265  11.839  39.052   2.880
65812W        W27266  16.228   8.179  14.327
65813W        W27267   1.425   0.758   3.687
65814W        W27268  18.240  22.248  10.641
65815W        W27269   1.908  11.750  11.884
65816W        W27270  27.174  11.157  13.382
65817W        W27271  27.478  28.047   4.183
65818W        W27272  19.599   5.846   3.772
65819W        W27273   0.278  39.335   1.216
65820W        W27274  11.633  38.889   5.672
65821W        W27275  12.839  31.107   2.750
65822W        W27276  25.673  35.916  13.486
65823W        W27277  31.602  35.477  13.032
65824W        W27278  11.245  23.111  11.527
65825W        W27279  15.084  34.043  10.480
65826W        W27280  33.111  11.329   2.317
65827W        W27281  36.909  40.041   0.379
65828W        W27282  44.505   1.954   0.417
65829W        W27283   7.207  42.391  10.544
65830W        W27284   9.347   2.876  14.924
65831W        W27285  30.466   0.866  13.344
65832W        W27286  10.367  17.731  11.922
65833W        W27287  33.049  43.272   0.319
65834W        W27288  35.067  32.600  14.932
65835W        W27289  42.527  14.265  14.928
65836W        W27290   3.449  37.939   0.290
65837W        W27291   5.382  25.624  13.371
65838W        W27292  20.213  25.137   1.308
65839W        W27293  30.512  19.090   1.297
65840W        W27294  33.618  31.467  12.083
65841W        W27295  36.939  32.634   2.881
65842W        W27296   5.433   0.413  12.520
65843W        W27297  10.800  42.518  11.120
65844W        W27298   2.888   1.392   1.426
65845W        W27299   3.219  34.542   1.694
65846W        W27300   4.336  10.171  11.425
65847W        W27301  35.909  33.532  10.888
65848W        W27302  44.486  18.172   0.791
65849W        W27303  40.926  28.145  14.003
65850W        W27304   2.909  11.278  13.916
65851W        W27305   1.285  10.274   1.894
65852W        W27306  23.138  25.111   0.830
65853W        W27307  41.864   6.903   3.308
65854W        W27308  21.695   2.335   0.922
65855W        W27309   4.318   5.240  11.399
65856W        W27310  13.279  18.078   2.707
65857W        W27311  12.644  44.819   0.277
65858W        W27312  31.955  40.391  11.865
65859W        W27313  38.479  30.023   0.868
65860W        W27314   0.776   2.375  11.412
65861W        W27315  34.568  44.889   2.239
65862W        W27316  37.405   5.703   2.870
65863W        W27317  40.890  17.628   2.769
65864W        W27318  15.116   8.759  13.957
65865W        W27319  28.660  43.918   2.772
65866W        W27320  42.420  32.118   3.281
65867W        W27321  13.150  28.522   0.762
65868W        W27322  21.512   5.931  12.090
65869W        W27323  41.445  19.744  11.890
65870W        W27324   5.219  35.385  12.987
65871W        W27325  17.682  27.642   4.718
65872W        W27326  35.596   3.820  11.419
65873W        W27327  29.538  30.449  14.516
65874W        W27328  32.949   2.949   2.869
65875W        W27329  20.717  26.700  14.347
65876W        W27330  43.450   8.199   4.172
65877W        W27331  17.186  31.566  11.066
65878W        W27332  16.278  17.743   0.873
65879W        W27333   0.777  14.781  14.776
65880W        W27334   0.366  13.842   1.263
65881W        W27335  36.489  41.971   2.194
65882W        W27336  39.908  14.624  13.941
65883W        W27337  35.377  11.312   3.212
65884W        W27338  25.708  15.195  10.942
65885W        W27339  26.531  33.606   2.288
65886W        W27340  29.034  34.477   0.364
65887W        W27341  36.085   1.274   3.167
65888W        W27342  18.123  43.300   4.174
65889W        W27343  39.052  34.082   2.771
65890W        W27344  34.911   5.762   4.603
65891W        W27345  22.202   1.400   2.361
65892W        W27346   9.155  26.572  14.317
65893W        W27347  27.170  15.613  10.417
65894W        W27348  31.958   7.245  11.427
65895W        W27349  44.361  36.074  14.808
65896W        W27350  27.948  25.638   9.942
65897W        W27351  41.023  40.366   1.351
65898W        W27352  14.681  20.229   0.741
65899W        W27353  13.196  28.098  10.446
65900W        W27354  34.494  26.148  12.926
65901W        W27355   6.697   6.786  13.437
65902W        W27356   9.376   8.709   2.780
65903W        W27357  18.054   5.785  10.955
65904W        W27358  31.575  10.170  10.915
65905W        W27359  18.071  39.531  14.012
65906W        W27360  36.420  21.198  10.443
65907W        W27361  33.394   3.917  11.487
65908W        W27362  34.429  30.521  12.523
65909W        W27363  17.141   2.388   0.397
65910W        W27364  14.225  14.608   2.364
65911W        W27365   6.392  34.561  10.486
65912W        W27366  13.196   7.830   2.326
65913W        W27367  31.014  27.089  10.632
65914W        W27368  38.372   1.251  11.927
65915W        W27369  32.411  19.723   2.746
65916W        W27370  34.456  34.410  14.492
65917W        W27371   2.227  40.990   3.302
65918W        W27372  23.646  29.106  14.470
65919W        W27373   3.762  15.795  14.773
65920W        W27374  25.591  27.658   3.360
65921W        W27375  41.989  24.723  13.890
65922W        W27376   1.458  18.710  13.035
65923W        W27377   4.396  21.232  12.967
65924W        W27378   2.321  33.940   2.270
65925W        W27379  36.574  44.413  14.411
65926W        W27380  44.422  42.504   3.269
65927W        W27381  36.503  17.293   4.793
65928W        W27382  20.704   9.331   2.181
65929W        W27383  10.662  18.742  13.918
65930W        W27384  38.564  35.561   0.897
65931W        W27385  29.919  14.134   0.328
65932W        W27386  41.368  42.998   2.765
65933W        W27387  35.512   0.466  13.994
65934W        W27388  35.598   4.356   4.820
65935W        W27389  26.175  29.930  10.985
65936W        W27390   0.342   1.442   1.858
65937W        W27391   1.482  19.274   1.233
65938W        W27392   9.745  16.186  10.405
65939W        W27393  16.285  21.190  11.377
65940W        W27394  20.157  21.241   3.164
65941W        W27395  16.318  27.175  13.808
65942W        W27396  30.984  28.094   1.392
65943W        W27397   8.264  34.906   3.150
65944W        W27398  40.922  11.820   4.323
65945W        W27399  44.320  27.506  13.424
65946W        W27400   1.904   9.758   1.326
65947W        W27401   8.393   6.356  14.437
65948W        W27402  40.961  10.699   1.804
65949W        W27403  12.691  16.775   2.207
65950W        W27404  26.517  16.658  13.894
65951W        W27405  37.926  36.463   2.792
65952W        W27406  12.650  30.575   3.785
65953W        W27407  20.194  44.270  14.405
65954W        W27408  42.479   8.824  14.829
65955W        W27409   4.711  21.513   0.733
65956W        W27410  32.024  27.187  11.520
65957W        W27411  23.574  15.608   3.663
65958W        W27412   0.392  13.146   0.747
65959W        W27413  37.363  17.282  12.861
65960W        W27414   9.212  24.596   4.824
65961W        W27415  43.811  14.598  11.873
65962W        W27416  28.986  26.523   3.343
65963W        W27417   2.768  13.155  12.553
65964W        W27418   0.285   6.390  12.523
65965W        W27419   1.279  22.098  13.321
65966W        W27420   3.772  35.429  11.401
65967W        W27421  13.812  37.444   4.334
65968W        W27422  15.256  24.002  12.825
65969W        W27423  11.136  37.871  11.959
65970W        W27424  16.605  24.218  12.050
65971W        W27425  27.666   7.334  14.817
65972W        W27426   1.415   9.786   4.245
65973W        W27427  10.711  13.680   2.760
65974W        W27428   1.287  25.013  10.524
65975W        W27429  41.898  39.541   4.335
65976W        W27430   8.782  40.453  14.513
65977W        W27431  32.513  16.791   0.471
65978W        W27432  31.974   9.687   4.149
65979W        W27433  27.663  43.294   4.783
65980W        W27434  25.683  42.944  10.159
65981W        W27435   4.285  42.940   5.093
65982W        W27436  29.604   9.724  11.888
65983W        W27437  12.182   8.348   3.662
65984W        W27438  39.045  41.015  12.412
65985W        W27439  26.985  39.934   2.237
65986W        W27440  32.964  11.718  14.337
65987W        W27441  13.209   6.400   4.133
65988W        W27442   2.757  41.435  14.892
65989W        W27443  34.613  11.782  12.535
65990W        W27444  19.212   2.818  10.596
65991W        W27445  20.168   8.173   2.216
65992W        W27446   6.271   5.832  11.506
65993W        W27447  18.573  14.160   2.762
65994W        W27448  33.449  30.077   1.712
65995W        W27449  19.727  11.148  11.468
65996W        W27450  36.527  33.973  13.331
65997W        W27451  29.130   5.291   1.851
65998W        W27452  13.660  12.777   1.333
65999W        W27453  20.549   8.269  13.841
66000W        W27454  24.036  10.289   2.850
66001W        W27455   5.824  19.270   1.360
66002W        W27456   7.216  16.100  14.816
66003W        W27457  13.281  15.098  10.414
66004W        W27458   5.333  23.699  11.868
66005W        W27459  26.563  34.552   4.275
66006W        W27460  22.597   4.739  11.855
66007W        W27461  43.386  37.473  10.554
66008W        W27462  37.545   9.225  11.027
66009W        W27463   6.695  40.813  14.482
66010W        W27464  22.039  16.570  14.292
66011W        W27465  44.892  24.528  10.971
66012W        W27466  13.309  19.050   0.360
66013W        W27467  20.046  16.305  12.092
66014W        W27468   5.344   0.436   3.183
66015W        W27469  37.529   7.240   2.747
66016W        W27470   7.203   0.888   0.881
66017W        W27471  12.854  41.878   1.302
66018W        W27472   8.284  11.368   1.819
66019W        W27473  30.551  16.606  12.419
66020W        W27474  26.124  43.872  14.009
66021W        W27475  32.390  36.963  11.110
66022W        W27476  24.151  32.961   1.294
66023W        W27477  26.951  37.899   3.664
66024W        W27478   2.366  31.599  12.349
66025W        W27479  26.472  41.349   0.903
66026W        W27480   7.741  39.063  11.529
66027W        W27481   3.284  17.082   1.380
66028W        W27482  14.096  13.768   0.912
66029W        W27483   3.392  30.053  14.780
66030W        W27484  20.572  14.599   3.796
66031W        W27485  12.655  14.306  12.022
66032W        W27486  10.360  32.553  14.465
66033W        W27487  35.021  37.997   0.355
66034W        W27488  27.646  42.016  10.549
66035W        W27489  36.378  41.429   0.446
66036W        W27490  23.110   4.233  13.882
66037W        W27491  44.284  26.193  11.109
66038W        W27492  34.426  10.237   0.392
66039W        W27493  35.006   8.846  13.970
66040W        W27494  12.291  14.650   3.264
66041W        W27495   8.882  18.145  12.076
66042W        W27496  23.669  13.652   0.867
66043W        W27497  30.418  31.022  10.622
66044W        W27498  20.597   4.807  10.413
66045W        W27499  22.999  30.506   4.140
66046W        W27500  17.078   1.769  13.479
66047W        W27501  30.988  16.584  11.885
66048W        W27502   2.846  13.806   1.388
66049W        W27503  15.730   9.875  13.893
66050W        W27504  12.208  34.087  10.545
66051W        W27505  10.724  42.412  13.451
66052W        W27506  14.779  21.587   4.794
66053W        W27507  16.660  41.802  10.932
66054W        W27508   5.689  42.317  11.374
66055W        W27509  17.127  32.419  11.031
66056W        W27510  26.569  38.972  12.481
66057W        W27511   8.740   8.204  11.908
66058W        W27512  30.531  19.602   2.679
66059W        W27513  12.257  43.911   2.881
66060W        W27514  32.114  10.643  12.565
66061W        W27515  40.399  22.652   2.361
66062W        W27516  35.999   0.434  10.565
66063W        W27517  18.700  44.430   2.404
66064W        W27518   2.324   0.303  13.903
66065W        W27519  36.453  29.064   1.793
66066W        W27520  10.739   3.283   3.705
66067W        W27521  37.449   5.233   3.839
66068W        W27522  33.035  32.981   3.835
66069W        W27523  21.032  31.612   1.281
66070W        W27524   2.784  36.447   2.861
66071W        W27525  26.011  25.994  14.779
66072W        W27526  39.859   8.279   3.263
66073W        W27527  37.553   4.253  12.514
66074W        W27528  16.598  31.988   2.765
66075W        W27529  38.044  17.604   1.820
66076W        W27530  35.511  32.487  14.770
66077W        W27531   8.197  26.645  12.842
66078W        W27532   5.287   4.440   1.340
66079W        W27533   0.761   4.231  10.510
66080W        W27534   1.327  15.301   3.769
66081W        W27535   5.802  26.462   4.765
66082W        W27536  43.934   1.902   1.778
66083W        W27537  13.747  11.329   3.189
66084W        W27538  44.302  26.971   1.444
66085W        W27539   5.296   6.243   1.768
66086W        W27540  21.086  43.797  11.869
66087W        W27541  28.171  27.667   4.658
66088W        W27542  27.124  30.018  12.533
66089W        W27543  29.057  24.537   0.779
66090W        W27544  28.630   0.926  14.319
66091W        W27545  24.647  21.242   4.763
66092W        W27546  28.945   5.733  11.451
66093W        W27547   3.758  40.443  14.887
66094W        W27548  29.002  40.382  13.049
66095W        W27549   2.804  13.258   2.207
66096W        W27550  15.109  21.148   3.637
66097W        W27551  37.417  15.670   1.315
66098W        W27552   2.303  39.038   5.266
66099W        W27553   3.804  26.195  14.480
66100W        W27554  35.372   0.813  13.390
66101W        W27555  10.872  39.407   3.721
66102W        W27556  32.107  22.597   1.408
66103W        W27557   7.769  33.973   0.833
66104W        W27558  36.891  38.845   2.762
66105W        W27559   3.840  29.109  13.031
66106W        W27560   5.323  16.783   3.354
66107W        W27561  18.106   5.754  11.461
66108W        W27562  37.387   5.838  12.840
66109W        W27563   9.357  20.228   3.799
66110W        W27564  12.714  36.453  11.450
66111W        W27565   8.786   6.707  12.580
66112W        W27566   5.845  22.696  11.462
66113W        W27567  25.675  29.605  11.997
66114W        W27568  22.197   4.801  11.473
66115W        W27569  34.451  42.964  12.094
66116W        W27570   1.821  23.695  14.938
66117W        W27571  13.162  15.207  11.556
66118W        W27572  21.671  14.820  12.029
66119W        W27573   7.739  12.211  14.003
66120W        W27574  40.970  35.984   4.191
66121W        W27575  13.235  10.299  11.884
66122W        W27576  35.054  34.426   2.187
66123W        W27577   3.426  21.051  14.773
66124W        W27578  32.917  38.461   4.662
66125W        W27579  12.649  19.601   1.922
66126W        W27580   7.332   4.760   2.357
66127W        W27581   6.841  28.680   1.410
66128W        W27582  29.468  43.012  10.980
66129W        W27583  29.437  19.593   2.311
66130W        W27584  23.660  14.623  14.788
66131W        W27585  36.037  38.537  10.151
66132W        W27586  31.920  10.252   3.182
66133W        W27587  27.004  27.562  11.542
66134W        W27588   6.372  29.597  13.314
66135W        W27589  24.218  36.466  11.402
66136W        W27590  19.615  35.543   0.883
66137W        W27591  31.557   0.885   3.848
66138W        W27592  23.025  30.953   4.684
66139W        W27593  43.515  26.177  11.010
66140W        W27594  23.579   1.268  10.592
66141W        W27595  19.584   6.424   0.463
66142W        W27596  20.575  35.379   3.174
66143W        W27597  13.107  25.522   0.468
66144W        W27598  17.636  27.090   0.383
66145W        W27599   5.325  19.090  14.992
66146W        W27600   8.192  17.285  12.386
66147W        W27601  27.000  24.061  12.562
66148W        W27602  40.430  32.977  14.882
66149W        W27603  44.001  30.969  10.979
66150W        W27604  25.106  17.742   0.922
66151W        W27605  16.587  19.040  12.357
66152W        W27606   8.212   3.955  10.459
66153W        W27607  14.631  10.243  11.984
66154W        W27608   8.383  38.904   3.840
66155W        W27609  30.657  21.157  11.372
66156W        W27610  33.105   0.459   3.665
66157W        W27611  37.087  41.407  14.276
66158W        W27612  39.336  36.866   5.590
66159W        W27613  20.638   5.396  13.378
66160W        W27614  10.848  39.858   1.807
66161W        W27615  25.596  15.674   3.190
66162W        W27616  15.615  26.098  13.312
66163W        W27617   5.714  29.960  11.865
66164W        W27618  29.511   9.874  11.381
66165W        W27619  44.396  29.574  14.383
66166W        W27620  19.278  26.020   4.784
66167W        W27621   8.233  18.753  14.420
66168W        W27622  36.574   0.387  12.982
66169W        W27623  21.734  20.048  13.917
66170W        W27624  25.060   0.829   3.278
66171W        W27625  42.954  15.713  12.881
66172W        W27626  35.490  16.121  11.880
66173W        W27627  29.143   4.842  13.008
66174W        W27628  40.995  32.458   0.255
66175W        W27629  34.063  16.761   0.784
66176W        W27630  44.467  42.935  13.059
66177W        W27631   1.453  28.576  12.562
66178W        W27632   9.888  38.984  11.460
66179W        W27633   8.376  23.117   2.311
66180W        W27634  33.026   6.723  11.858
66181W        W27635  40.528  14.193  14.987
66182W        W27636   0.819  22.591  10.528
66183W        W27637  18.079  27.512   4.280
66184W        W27638  30.516  31.647   4.313
66185W        W27639  35.368  38.540  12.917
66186W        W27640  11.751   4.818   1.912
66187W        W27641  38.877  13.178   1.797
66188W        W27642  37.957  32.097  10.541
66189W        W27643   9.230  33.397  10.903
66190W        W27644  28.510  38.970  12.566
66191W        W27645  41.442  30.011   2.794
66192W        W27646  42.498  42.442   0.808
66193W        W27647   8.700  14.149  13.839
66194W        W27648  14.140  41.433   4.178
66195W        W27649  37.541   2.373  11.530
66196W        W27650  26.610  28.652   0.856
66197W        W27651  39.480  11.267   3.718
66198W        W27652  38.890  31.103  11.023
66199W        W27653  20.232   1.812  13.062
66200W        W27654   9.193  38.879   3.310
66201W        W27655  38.939   4.864   2.701
66202W        W27656  25.478  28.020   0.764
66203W        W27657  27.101  34.599   2.808
66204W        W27658  21.175   5.907   9.641
66205W        W27659   2.918  44.351  10.000
66206W        W27660   0.335  33.985   4.720
66207W        W27661   2.322  44.408  10.532
66208W        W27662   8.323  17.124  11.955
66209W        W27663   7.203   6.245   4.602
66210W        W27664  18.643  10.293   4.264
66211W        W27665   0.801  37.941   4.638
66212W        W27666   7.861  35.967  10.014
66213W        W27667  32.963   2.819  10.515
66214W        W27668   9.180  34.927  11.058
66215W        W27669   6.844  14.164  12.924
66216W        W27670  27.458  11.147   3.808
66217W        W27671   8.375  34.000   3.279
66218W        W27672  42.786  15.661   4.121
66219W        W27673   7.174  33.897  12.969
66220W        W27674  40.800   6.843   4.301
66221W        W27675   1.321  12.819  13.507
66222W        W27676  10.256  42.012   1.836
66223W        W27677  26.581  22.078   4.293
66224W        W27678   5.860   6.310  10.588
66225W        W27679  32.068  22.587   0.745
66226W        W27680  43.416  19.146   1.320
66227W        W27681  20.111  37.985  14.772
66228W        W27682  31.534  19.246   0.446
66229W        W27683  12.852   2.824  14.968
66230W        W27684   1.443   3.746   2.893
66231W        W27685  25.170  21.208   3.334
66232W        W27686  33.936  10.686   0.740
66233W        W27687  19.059   3.825   3.351
66234W        W27688   6.832  17.705  13.823
66235W        W27689  41.979  44.482  14.455
66236W        W27690  10.334   9.871  13.000
66237W        W27691  29.437   0.835  12.830
66238W        W27692  39.029  28.099   4.272
66239W        W27693  28.450   1.419  10.584
66240W        W27694  16.122  26.551  11.872
66241W        W27695  16.649  17.194   0.889
66242W        W27696   6.412  21.517   0.887
66243W        W27697   0.377  41.957  12.378
66244W        W27698  28.585  16.756  12.481
66245W        W27699  26.700  19.128  10.436
66246W        W27700  25.132  29.460   4.246
66247W        W27701  24.603  19.152   0.848
66248W        W27702  13.657  10.730  12.554
66249W        W27703  43.403  12.814  11.054
66250W        W27704  30.149  28.008   1.230
66251W        W27705  43.880  35.569  13.969
66252W        W27706  22.611  28.632  10.458
66253W        W27707  23.229  40.352  12.022
66254W        W27708  22.172  35.890  11.415
66255W        W27709  11.303  16.722  12.882
66256W        W27710  24.988  20.626  14.298
66257W        W27711   7.224  10.773   4.258
66258W        W27712   0.260  42.915   5.165
66259W        W27713  25.621  27.192  13.888
66260W        W27714  29.920  19.047  13.517
66261W        W27715  25.019  33.548   0.739
66262W        W27716  31.053  44.460   3.819
66263W        W27717   7.866  44.274  14.803
66264W        W27718  17.766  25.587   3.811
66265W        W27719  17.268  10.654  10.929
66266W        W27720  27.455  32.550  11.044
66267W        W27721  30.505   4.778   9.453
66268W        W27722  14.332  34.516  12.000
66269W        W27723  41.905  29.168  14.310
66270W        W27724  12.701  13.763   4.232
66271W        W27725  44.285   1.805   4.812
66272W        W27726   0.254  35.425   4.717
66273W        W27727  12.724   8.314  12.429
66274W        W27728   4.402  37.923   2.338
66275W        W27729  42.000  39.536  12.059
66276W        W27730   5.869  13.273  12.927
66277W        W27731  27.034  31.645  14.401
66278W        W27732   0.413  40.953  13.423
66279W        W27733  43.916  26.043  10.551
66280W        W27734  25.023  18.739   1.763
66281W        W27735   3.373  39.345  14.343
66282W        W27736   0.482   8.190   4.685
66283W        W27737  16.709   4.865   1.858
66284W        W27738  24.630  42.962   3.741
66285W        W27739   6.254  26.514   4.776
66286W        W27740   2.766  24.637   2.692
66287W        W27741   6.818  10.752   0.264
66288W        W27742   0.307  21.224  13.367
66289W        W27743  35.875   1.902  13.408
66290W        W27744   8.244  41.418  10.601
66291W        W27745  25.165   6.338   2.840
66292W        W27746  28.523  32.019  11.018
66293W        W27747  21.181  21.635  11.451
66294W        W27748  19.144  33.961   0.861
66295W        W27749  26.035  34.951   2.401
66296W        W27750  40.009  28.182   1.717
66297W        W27751   3.715  19.136  11.018
66298W        W27752   9.744  14.153   2.416
66299W        W27753  18.076  13.222   0.880
66300W        W27754   8.870  21.188   2.337
66301W        W27755  23.582  26.173  14.007
66302W        W27756  22.543  26.070   4.196
66303W        W27757  30.108   8.297   4.284
66304W        W27758  21.054  10.763  11.588
66305W        W27759  42.019  28.183  13.845
66306W        W27760  43.819  15.630  11.871
66307W        W27761  43.931   8.332   0.258
66308W        W27762  15.093  25.072   0.301
66309W        W27763  35.996  34.980   0.247
66310W        W27764  39.837  17.277  12.011
66311W        W27765  36.579   7.687   3.832
66312W        W27766   9.784  39.345   5.768
66313W        W27767  14.311  40.448  13.059
66314W        W27768   7.369   0.771  12.966
66315W        W27769   1.879  32.924   1.719
66316W        W27770  38.508   2.459  14.302
66317W        W27771  11.305  11.633   2.317
66318W        W27772  14.228  22.014  11.385
66319W        W27773  27.654  19.589   2.793
66320W        W27774  22.019   6.850  10.127
66321W        W27775  12.279  42.287   0.929
66322W        W27776  38.880  38.439   0.921
66323W        W27777   1.446  35.496  10.639
66324W        W27778  19.679  17.735   4.664
66325W        W27779   3.378   2.920   3.294
66326W        W27780  32.513   7.790  13.430
66327W        W27781  14.246  19.591   4.311
66328W        W27782   1.422  43.295  11.594
66329W        W27783  21.534   6.192  14.900
66330W        W27784   2.814  41.410  13.809
66331W        W27785   1.353   6.262   0.289
66332W        W27786   0.373  18.672  11.434
66333W        W27787  38.997  21.019   4.771
66334W        W27788  36.091   4.900   1.432
66335W        W27789  24.706  17.701  13.472
66336W        W27790   0.480  19.543   4.806
66337W        W27791  42.927  17.783   4.635
66338W        W27792  44.928  22.734  11.908
66339W        W27793  21.616   7.305  14.460
66340W        W27794  33.106  10.355  11.565
66341W        W27795  36.534  24.170   2.252
66342W        W27796  41.501   7.324   1.327
66343W        W27797   9.784  16.691   9.516
66344W        W27798  31.413  28.533   0.276
66345W        W27799  15.796  18.135  13.398
66346W        W27800   0.942  20.729   3.719
66347W        W27801  34.423   2.361  11.371
66348W        W27802   7.265  22.582   2.304
66349W        W27803   0.832  27.566   0.966
66350W        W27804   5.385  20.558   1.713
66351W        W27805   3.846  43.399   1.368
66352W        W27806  43.771  11.218  12.402
66353W        W27807  26.136  27.517  11.025
66354W        W27808  32.135  15.205  12.997
66355W        W27809  42.022   3.720   4.122
66356W        W27810   4.393  42.924  12.941
66357W        W27811  15.720  32.632   0.897
66358W        W27812   0.964  11.133  12.419
66359W        W27813  20.076   7.371  12.069
66360W        W27814  12.305   0.986  14.760
66361W        W27815   2.370  21.088   0.252
66362W        W27816  35.443  25.061  10.940
66363W        W27817   6.258   1.775   2.829
66364W        W27818  24.508  35.068  10.632
66365W        W27819  16.629   8.305   0.305
66366W        W27820  19.200  11.215   2.663
66367W        W27821  24.611  27.138   0.358
66368W        W27822   2.434  18.626   4.206
66369W        W27823   7.901  24.657   0.357
66370W        W27824  16.632  11.355   1.316
66371W        W27825  20.072   8.829  11.006
66372W        W27826  33.045  22.055  14.778
66373W        W27827   3.381  25.648  14.941
66374W        W27828   8.782  42.852  14.974
66375W        W27829   1.881  29.139   2.681
66376W        W27830  43.843   2.733  12.349
66377W        W27831  29.499  37.947   2.880
66378W        W27832  43.938  39.000   4.263
66379W        W27833   5.833  14.685   0.329
66380W        W27834   5.826  22.134  12.058
66381W        W27835  16.309  42.844   0.328
66382W        W27836  20.754  27.124  11.572
66383W        W27837   2.943   1.295  13.535
66384W        W27838  27.041  20.159  11.974
66385W        W27839  37.378   8.794  12.440
66386W        W27840  36.888  23.994  11.985
66387W        W27841  36.539  29.079   4.201
66388W        W27842  39.322  23.220   3.699
66389W        W27843   1.449   2.934  12.566
66390W        W27844  27.042  19.163   3.758
66391W        W27845  20.529   8.657  12.013
66392W        W27846  29.463  32.427  10.910
66393W        W27847  30.647  24.513   1.216
66394W        W27848  32.493  29.502  14.762
66395W        W27849  29.508  25.217  13.348
66396W        W27850  17.790  42.490  11.000
66397W        W27851   1.439  23.188  12.392
66398W        W27852  24.592  33.126  14.844
66399W        W27853   7.823  36.548   0.867
66400W        W27854  35.988  25.532   3.226
66401W        W27855  18.225  31.022   1.280
66402W        W27856  32.033  12.679  12.429
66403W        W27857  42.412  15.672  11.007
66404W        W27858  27.138   3.297  11.976
66405W        W27859   7.904  30.591   4.300
66406W        W27860  20.171  29.069   2.856
66407W        W27861  32.610  23.731   4.615
66408W        W27862  32.626  24.600   2.780
66409W        W27863   2.230  15.767   2.380
66410W        W27864  28.468  30.657  11.589
66411W        W27865  33.545  37.971  13.006
66412W        W27866  18.079  21.213   1.268
66413W        W27867  21.736  39.402  12.842
66414W        W27868   4.393  22.609   0.390
66415W        W27869  11.364  34.115   3.820
66416W        W27870   7.399  41.924   1.908
66417W        W27871  15.809   3.451  11.014
66418W        W27872  15.191  11.267   2.672
66419W        W27873  26.530  13.668  13.537
66420W        W27874  13.107  23.088  10.986
66421W        W27875  28.518  24.179   1.848
66422W        W27876  18.553  43.288   0.951
66423W        W27877  41.455  20.152   3.347
66424W        W27878  23.619  31.640  14.823
66425W        W27879  18.210   7.685  14.900
66426W        W27880  38.964  34.555  10.953
66427W        W27881  31.538   6.203   4.326
66428W        W27882  21.658  18.726  11.592
66429W        W27883  33.535  26.604  14.406
66430W        W27884  37.942  30.480   4.704
66431W        W27885  39.063  35.918  13.944
66432W        W27886  24.549  17.259   4.760
66433W        W27887  14.256   4.918   1.900
66434W        W27888  33.996  20.213  11.996
66435W        W27889   3.269  36.953  14.303
66436W        W27890  34.959  19.768  11.073
66437W        W27891  34.475  11.819  14.433
66438W        W27892  19.616  26.591  13.872
66439W        W27893  19.053   8.687  12.407
66440W        W27894  41.307  33.961  12.418
66441W        W27895  22.135  17.607  14.811
66442W        W27896  40.943   6.369   2.705
66443W        W27897   8.195  38.833  11.921
66444W        W27898  36.364   7.171   1.222
66445W        W27899   3.228  25.143  14.430
66446W        W27900  38.555   1.352  13.476
66447W        W27901   2.444  15.230  11.899
66448W        W27902  18.618  36.997  14.883
66449W        W27903  10.168  44.765   3.357
66450W        W27904  36.949  18.633  14.891
66451W        W27905  37.394  24.597  14.351
66452W        W27906   3.302  29.950   4.309
66453W        W27907   2.925  17.563   3.306
66454W        W27908  19.244  24.223  14.481
66455W        W27909  41.397   9.741   3.812
66456W        W27910   6.226  43.514  13.356
66457W        W27911  11.327   4.284   1.362
66458W        W27912  11.840   7.261   1.449
66459W        W27913  37.050  37.524   3.638
66460W        W27914  36.983  37.422  12.422
66461W        W27915   2.862  35.536  10.943
66462W        W27916  42.331  44.403   4.253
66463W        W27917  14.323  38.344   3.688
66464W        W27918  37.479  17.177  12.018
66465W        W27919  20.184  41.874   3.677
66466W        W27920  24.640   3.260   9.571
66467W        W27921   3.227   3.832   4.763
66468W        W27922   0.351  29.619   3.265
66469W        W27923  10.143  41.956  12.079
66470W        W27924  32.455  24.184  11.406
66471W        W27925  10.378  29.595  12.950
66472W        W27926  25.482  32.592   1.378
66473W        W27927   9.840  25.580  14.878
66474W        W27928  11.252  27.486  12.069
66475W        W27929  27.532  34.906  12.073
66476W        W27930   3.304   7.394   4.307
66477W        W27931   4.353  15.747  14.289
66478W        W27932   9.727  37.867  13.972
66479W        W27933  13.726  12.642  11.563
66480W        W27934   1.847  14.822  13.486
66481W        W27935  23.733  42.854  13.921
66482W        W27936   4.720  37.086   1.381
66483W        W27937  29.140   7.384  12.085
66484W        W27938  31.095  21.534  12.060
66485W        W27939  35.998  26.190   1.290
66486W        W27940  30.083  15.259  11.507
66487W        W27941  15.740  26.476   0.729
66488W        W27942  16.657  33.596   2.750
66489W        W27943  36.456  11.645  10.465
66490W        W27944  33.404  36.589  10.544
66491W        W27945  27.078  14.253  13.322
66492W        W27946  20.737  39.532  11.521
66493W        W27947  27.053  20.199  13.041
66494W        W27948   4.318  21.579   2.888
66495W        W27949  10.362  44.417  14.331
66496W        W27950  20.251  44.883   2.406
66497W        W27951  12.785  11.132  13.986
66498W        W27952  20.071  25.189  11.584
66499W        W27953  44.931  30.425  10.973
66500W        W27954  34.918  33.465   0.763
66501W        W27955  16.230  11.353   9.504
66502W        W27956  44.867   1.425  14.472
66503W        W27957   3.270  14.223   0.777
66504W        W27958  19.088  39.833   1.878
66505W        W27959  37.064  41.460  10.520
66506W        W27960  20.242  38.894   3.277
66507W        W27961  38.906  31.602   0.955
66508W        W27962   8.295   7.221  14.797
66509W        W27963  41.001   2.884  13.923
66510W        W27964  21.217  13.736   2.375
66511W        W27965  35.908  22.178  11.537
66512W        W27966  31.040  28.023  11.095
66513W        W27967  21.122   9.654   0.730
66514W        W27968  25.186  43.917   0.821
66515W        W27969   2.874  11.363   3.351
66516W        W27970   0.252  14.243  12.418
66517W        W27971   6.864  32.550   5.639
66518W        W27972  41.893  11.347  13.891
66519W        W27973  12.120  29.621   2.691
66520W        W27974  30.021  29.102  13.033
66521W        W27975  22.733   4.885   5.135
66522W        W27976  22.596  14.168   2.849
66523W        W27977   2.843  19.256   4.133
66524W        W27978  36.414  32.400  12.437
66525W        W27979  40.970  21.136   0.403
66526W        W27980   6.278  26.533   4.195
66527W        W27981  35.056  15.814  13.518
66528W        W27982  18.627   9.371  14.424
66529W        W27983  38.973  20.632  11.920
66530W        W27984   3.254  13.793  12.532
66531W        W27985  25.969  34.584   3.194
66532W        W27986   5.766   7.306  11.559
66533W        W27987  22.186  35.045  14.020
66534W        W27988  11.837  34.020  11.503
66535W        W27989  30.647  23.234   9.999
66536W        W27990  18.088  18.085  12.481
66537W        W27991  41.846  37.525   1.411
66538W        W27992   3.880  17.755  11.948
66539W        W27993  30.039  17.674  10.974
66540W        W27994  36.489   9.209   3.674
66541W        W27995  25.162  11.703   2.180
66542W        W27996   7.396  37.385   1.842
66543W        W27997   0.812  31.117  13.357
66544W        W27998  39.541  29.655   1.824
66545W        W27999  33.565  24.225  10.503
66546W        W28000  37.578   9.752   0.244
66547W        W28001  42.972  15.323   2.803
66548W        W28002  37.881  23.617  10.641
66549W        W28003  15.806   3.345  10.508
66550W        W28004  41.939  23.240   3.193
66551W        W28005  41.497  44.403   0.326
66552W        W28006  20.238  38.571   1.326
66553W        W28007   5.398   6.808   4.681
66554W        W28008   1.765  23.986   4.214
66555W        W28009  29.089  27.504  10.118
66556W        W28010  25.657   3.414  13.904
66557W        W28011  37.922  34.483   2.417
66558W        W28012  40.488  16.607  14.443
66559W        W28013  14.774  16.614   4.630
66560W        W28014  31.599  14.601   9.925
66561W        W28015  12.832  26.102   1.215
66562W        W28016   4.879  37.863   0.786
66563W        W28017  33.895  16.771   1.387
66564W        W28018  28.568  17.157  12.947
66565W        W28019  22.033   9.858  14.395
66566W        W28020   2.814  29.091   4.597
66567W        W28021  10.238  10.188   4.278
66568W        W28022  30.494  38.411   0.261
66569W        W28023  39.552  20.681   2.238
66570W        W28024   2.913  36.041  11.015
66571W        W28025  38.892  11.305  13.025
66572W        W28026   1.264  19.778  13.013
66573W        W28027   1.929  16.628  13.913
66574W        W28028  28.947  42.935   2.866
66575W        W28029  36.057  43.443   2.795
66576W        W28030  18.554  23.128  14.894
66577W        W28031   3.312   5.223   1.265
66578W        W28032  26.000  28.977   0.770
66579W        W28033  33.875  29.084   1.793
66580W        W28034  37.404  17.767  14.917
66581W        W28035  12.225   1.963   2.206
66582W        W28036   4.722  26.964   0.275
66583W        W28037  37.930  41.976   3.846
66584W        W28038  44.491  43.409  13.040
66585W        W28039  42.517  14.763   3.805
66586W        W28040   8.836  32.530  13.903
66587W        W28041  11.783  11.145   3.325
66588W        W28042  10.176  30.997   5.733
66589W        W28043  13.121  32.098   4.209
66590W        W28044   1.316   0.858  12.554
66591W        W28045  34.549   3.844   1.304
66592W        W28046   7.892  20.098   0.462
66593W        W28047  43.439  34.374  11.999
66594W        W28048  30.001   5.308   2.195
66595W        W28049  35.092  41.023   4.823
66596W        W28050  42.786  19.206   2.830
66597W        W28051   1.897  14.734   2.288
66598W        W28052   9.305  36.396   0.791
66599W        W28053  20.636  23.593  11.886
66600W        W28054   3.216   2.277  10.448
66601W        W28055  31.943  31.536   4.313
66602W        W28056  34.409  31.435  13.994
66603W        W28057  32.023   2.258   1.787
66604W        W28058   7.767  41.396  14.464
66605W        W28059   2.769   0.336   2.234
66606W        W28060  18.646  31.056  14.874
66607W        W28061  43.819  37.066   2.852
66608W        W28062  24.141  27.578   4.188
66609W        W28063  19.279  30.526  12.413
66610W        W28064   1.304  44.489   4.759
66611W        W28065  34.089  17.592  12.969
66612W        W28066  16.575  13.711  11.540
66613W        W28067   8.778  29.482   0.346
66614W        W28068  40.946  14.325   1.736
66615W        W28069  25.561  19.746   4.783
66616W        W28070  20.141  33.493   5.182
66617W        W28071   5.306  37.391   0.764
66618W        W28072  34.964  31.024   4.165
66619W        W28073   7.821   5.929  12.450
66620W        W28074  33.028  33.548   1.930
66621W        W28075  10.267  17.084   1.301
66622W        W28076   6.338  35.014   0.794
66623W        W28077   1.794   7.682   2.221
66624W        W28078  44.397  43.484   2.889
66625W        W28079  38.821   7.284  13.792
66626W        W28080  29.470  41.938  14.779
66627W        W28081  43.976  36.034   0.771
66628W        W28082   5.409  17.569  12.934
66629W        W28083   1.341  25.508   2.821
66630W        W28084  12.250  23.002  13.949
66631W        W28085  23.996  34.955   3.176
66632W        W28086  43.918  14.155   2.247
66633W        W28087  28.581  26.143   9.999
66634W        W28088  16.680   3.284  14.961
66635W        W28089   4.737  27.508   2.672
66636W        W28090  32.596  35.895  10.963
66637W        W28091  10.824  13.732   3.797
66638W        W28092   7.313  16.132   3.358
66639W        W28093  20.143  10.846  10.013
66640W        W28094   6.420  33.063   3.220
66641W        W28095  10.373   6.331   1.781
66642W        W28096   5.826  21.225  11.452
66643W        W28097  13.322  42.880   0.439
66644W        W28098  19.105  41.379  11.504
66645W        W28099   1.808  33.976  13.468
66646W        W28100  14.817   3.457  13.033
66647W        W28101  26.482  25.634  12.027
66648W        W28102  35.955  36.903   1.236
66649W        W28103  33.537   3.837   4.712
66650W        W28104  16.695  39.955   3.296
66651W        W28105  34.010  42.307   1.767
66652W        W28106  36.908  37.512   2.702
66653W        W28107  30.129  22.560   2.847
66654W        W28108   1.873  30.017  12.833
66655W        W28109  41.513  39.445   2.304
66656W        W28110  23.068  11.635  12.567
66657W        W28111   1.473  44.496  12.955
66658W        W28112  36.567  26.660  12.366
66659W        W28113   4.734  18.153  13.033
66660W        W28114   5.807   7.699  10.637
66661W        W28115  26.153  27.546  13.539
66662W        W28116  15.122  33.908   2.709
66663W        W28117  14.234  10.717   4.328
66664W        W28118  42.365  16.105  10.504
66665W        W28119  26.143  25.121  13.456
66666W        W28120  21.697  32.095   4.698
66667W        W28121  15.592  25.634   0.459
66668W        W28122  30.987  30.628  12.501
66669W        W28123  10.218  25.689   1.250
66670W        W28124  32.955  40.964   1.312
66671W        W28125  14.201  37.569   5.121
66672W        W28126  39.950  34.414  10.988
66673W        W28127  35.547   2.766  11.482
66674W        W28128  36.391   1.940  11.127
66675W        W28129   5.706   8.195   3.715
66676W        W28130  40.450  21.545   1.900
66677W        W28131  14.183   9.233  11.007
66678W        W28132   0.902  24.044  12.490
66679W        W28133  10.745  38.375   4.255
66680W        W28134  15.228  18.139  12.984
66681W        W28135  37.003   4.420  14.926
66682W        W28136  40.798  34.084   3.661
66683W        W28137  11.742  34.022   1.400
66684W        W28138  23.508  10.647  12.416
66685W        W28139   4.897  13.741   4.620
66686W        W28140  23.717  12.662  12.577
66687W        W28141  34.509  41.444  14.378
66688W        W28142  30.612  42.889  12.072
66689W        W28143  36.376  27.547  13.864
66690W        W28144  29.510   8.369  14.313
66691W        W28145   4.919  25.018   1.233
66692W        W28146  14.143   7.674  12.900
66693W        W28147  36.578  35.492  11.051
66694W        W28148  27.053  33.903   1.380
66695W        W28149  38.822   7.323   0.898
66696W        W28150  22.592   6.702   0.936
66697W        W28151  39.822  42.389   0.731
66698W        W28152  34.970  23.205   3.145
66699W        W28153  12.640   4.828   3.641
66700W        W28154  35.865  13.625   4.653
66701W        W28155  37.580   3.414  10.065
66702W        W28156  20.066  10.710   4.221
66703W        W28157   1.933  15.183   1.309
66704W        W28158  37.382  39.022   2.855
66705W        W28159   8.770   0.878  12.396
66706W        W28160  21.682  21.253  10.038
66707W        W28161  21.152  39.936  14.431
66708W        W28162  34.553  42.450  11.040
66709W        W28163  32.890   3.878   3.712
66710W        W28164   5.854  21.598  13.322
66711W        W28165   3.288  33.588  10.461
66712W        W28166  27.608  30.038   3.731
66713W        W28167  35.375   4.272  14.931
66714W        W28168  34.972   2.774  12.853
66715W        W28169  11.779   1.380  11.444
66716W        W28170  28.627   6.184   1.747
66717W        W28171  25.125  29.975  10.597
66718W        W28172  24.600  18.713   1.886
66719W        W28173  22.593  31.150  13.311
66720W        W28174  16.163  41.906  13.961
66721W        W28175  11.777  30.988  12.560
66722W        W28176  19.174  26.019   0.314
66723W        W28177   4.854  34.575  13.319
66724W        W28178  26.532  36.577  14.904
66725W        W28179  15.133  27.972  10.403
66726W        W28180   1.326   1.921   1.334
66727W        W28181  21.582  41.961   4.354
66728W        W28182   0.304  22.725   0.271
66729W        W28183  41.869  44.768  10.953
66730W        W28184  35.974  26.108   3.684
66731W        W28185  27.479  36.093   4.664
66732W        W28186  40.882  29.619  14.457
66733W        W28187  42.853  37.881  11.570
66734W        W28188  10.234  42.866   2.865
66735W        W28189  37.004  30.063   0.398
66736W        W28190  27.596  30.489   3.863
66737W        W28191   8.273  32.038   2.395
66738W        W28192   1.803  27.967   0.773
66739W        W28193   0.913   4.848   0.280
66740W        W28194   3.762  33.573   3.682
66741W        W28195  18.614  16.250  11.035
66742W        W28196   8.759  24.122   3.150
66743W        W28197   1.408   4.448   1.218
66744W        W28198  22.136  11.671  10.518
66745W        W28199  19.595  41.902   2.869
66746W        W28200  21.626   9.317   4.135
66747W        W28201  33.494  33.105  12.373
66748W        W28202  31.067   6.365  12.980
66749W        W28203  32.594  19.085   1.798
66750W        W28204  18.086   7.174  12.343
66751W        W28205  33.618   7.744   4.333
66752W        W28206  11.359  32.092   3.846
66753W        W28207  43.903  18.591  11.527
66754W        W28208   3.780  29.950   2.889
66755W        W28209  20.767  18.072  14.787
66756W        W28210  30.134   9.295  11.034
66757W        W28211   2.418   2.392   5.099
66758W        W28212  23.234  19.114   1.229
66759W        W28213   5.221   2.425  10.930
66760W        W28214   3.296  38.379  11.473
66761W        W28215  22.746  37.341   1.745
66762W        W28216  28.130  27.168  11.094
66763W        W28217  12.343  15.144  12.462
66764W        W28218  23.687  27.117   1.818
66765W        W28219  33.595   7.809   5.092
66766W        W28220  35.602  34.873  14.307
66767W        W28221   9.710  12.285  13.512
66768W        W28222  34.875   3.751  10.926
66769W        W28223  15.230  16.764   0.746
66770W        W28224   6.835  33.534  14.399
66771W        W28225   9.249  12.631   4.651
66772W        W28226  33.394  31.956   9.992
66773W        W28227  36.507  26.469   3.673
66774W        W28228   5.727  37.581  13.310
66775W        W28229  13.812  29.634  14.851
66776W        W28230   1.897  34.920   3.314
66777W        W28231  33.052   5.375   4.663
66778W        W28232  32.520   5.304  13.896
66779W        W28233  20.686   8.309  14.819
66780W        W28234   7.210  21.649   4.603
66781W        W28235  24.699  38.350   4.602
66782W        W28236  26.658  18.691   2.394
66783W        W28237  14.268   6.338  14.306
66784W        W28238  29.150  10.639  11.560
66785W        W28239  10.745  30.476  13.955
66786W        W28240  37.064  11.693   2.687
66787W        W28241  25.013  19.197   1.878
66788W        W28242  43.385   0.772  14.806
66789W        W28243  28.023  16.180  13.543
66790W        W28244   6.399   5.779  10.908
66791W        W28245  19.601   9.219  11.884
66792W        W28246  25.138  19.199   0.786
66793W        W28247  43.972  39.892   3.327
66794W        W28248  38.325  29.120  13.375
66795W        W28249  38.972  11.648  11.001
66796W        W28250  15.632  15.811  10.073
66797W        W28251  24.177  12.642   4.632
66798W        W28252  41.407  41.392  13.991
66799W        W28253   7.374  33.066   2.414
66800W        W28254  40.315  14.730  11.891
66801W        W28255  10.679  33.005   4.685
66802W        W28256  12.804   9.304  14.335
66803W        W28257  22.633  42.925  11.044
66804W        W28258  13.143  17.595   2.234
66805W        W28259  20.258  18.547  13.412
66806W        W28260  27.661  11.654  11.008
66807W        W28261  22.632  11.326   1.791
66808W        W28262  40.841  39.530   3.756
66809W        W28263  14.785   0.469  14.487
66810W        W28264  17.641  16.140   4.135
66811W        W28265  31.939   5.255   2.689
66812W        W28266  20.571  15.176  13.372
66813W        W28267  22.057   0.280  10.552
66814W        W28268  30.553   2.939  12.910
66815W        W28269   1.338  22.110   3.813
66816W        W28270  10.174  42.515   4.834
66817W        W28271   6.286  18.169  10.481
66818W        W28272  29.429  31.052  12.837
66819W        W28273   9.830   4.788   1.226
66820W        W28274  40.501  24.036  10.148
66821W        W28275  26.039  20.696   0.890
66822W        W28276  28.118  14.152  11.007
66823W        W28277   9.830   7.416   0.378
66824W        W28278  20.173  36.998  10.414
66825W        W28279  19.676  10.642  13.536
66826W        W28280   6.228  18.593   3.716
66827W        W28281  29.667  41.005  13.355
66828W        W28282  41.448   3.710  14.304
66829W        W28283  28.063  27.064   0.751
66830W        W28284  31.452   7.297   2.669
66831W        W28285  34.031   6.302   4.681
66832W        W28286  30.121  35.948  13.995
66833W        W28287   4.401   0.317   4.117
66834W        W28288  13.337   7.263   9.961
66835W        W28289  41.793   1.367   3.286
66836W        W28290  41.866  26.039  11.548
66837W        W28291   9.869  10.755   1.366
66838W        W28292  42.507  30.566  13.471
66839W        W28293  41.958  18.080  11.496
66840W        W28294  44.374  29.042  12.015
66841W        W28295  33.040  37.548  14.459
66842W        W28296  11.266   3.729  14.302
66843W        W28297   6.391  31.413  14.919
66844W        W28298  19.555  21.718  13.016
66845W        W28299  16.162  28.469   1.899
66846W        W28300  30.951  31.923   4.319
66847W        W28301  35.945  28.571  11.555
66848W        W28302  28.952   1.465  14.459
66849W        W28303  10.325  11.726  13.020
66850W        W28304  14.228  19.262  13.830
66851W        W28305  18.288  12.661   0.731
66852W        W28306  43.890   0.379   0.366
66853W        W28307  32.529  27.517  13.395
66854W        W28308  42.500  13.182  12.386
66855W        W28309  28.510  14.614  13.839
66856W        W28310  36.030  25.554   1.919
66857W        W28311  31.635  40.527   0.860
66858W        W28312  31.482   8.363  11.062
66859W        W28313  43.770   0.267   3.221
66860W        W28314   2.402   2.414   1.872
66861W        W28315   3.326  27.026  11.432
66862W        W28316  33.008  31.570  10.469
66863W        W28317  26.550  15.651   4.825
66864W        W28318  30.579   3.791  10.526
66865W        W28319  18.098  31.578  12.412
66866W        W28320   7.808   4.422  13.913
66867W        W28321   7.236  37.564   2.825
66868W        W28322   2.431  42.353   1.906
66869W        W28323   0.926  32.944  12.832
66870W        W28324  17.268  40.413   4.724
66871W        W28325  25.993   8.810   3.239
66872W        W28326  35.412   8.695  10.551
66873W        W28327  35.921   8.300  14.408
66874W        W28328  16.205   1.795  11.424
66875W        W28329  39.877  33.015   0.730
66876W        W28330  20.222  22.127  13.422
66877W        W28331   0.799   3.731  10.533
66878W        W28332  22.553   2.849  12.473
66879W        W28333  22.153  16.635  10.607
66880W        W28334  37.580  10.250   1.894
66881W        W28335  13.813  24.630  12.520
66882W        W28336   0.304  23.646  14.329
66883W        W28337   0.776  10.736   4.718
66884W        W28338  16.215  35.506  13.975
66885W        W28339  31.555  26.208  11.930
66886W        W28340  32.111  44.911   0.835
66887W        W28341  11.206  35.468  11.894
66888W        W28342   7.372  14.719   3.705
66889W        W28343  12.781  22.507   1.747
66890W        W28344  10.259  25.006   5.185
66891W        W28345  41.303  29.436  13.949
66892W        W28346  37.991  35.023   0.263
66893W        W28347   0.959  30.529   0.352
66894W        W28348   0.792  22.167   1.726
66895W        W28349  41.479  35.382   3.269
66896W        W28350   0.257  30.005   2.197
66897W        W28351  25.520   2.929   2.745
66898W        W28352  20.052  32.586   3.317
66899W        W28353  41.900  18.739  10.919
66900W        W28354  24.044  30.066   1.856
66901W        W28355  29.959   7.345   1.902
66902W        W28356  23.616  11.761  10.888
66903W        W28357  12.781  27.159  12.081
66904W        W28358  37.059  19.648  12.446
66905W        W28359   7.338   7.188   1.319
66906W        W28360  31.581  38.517   4.786
66907W        W28361  20.031  19.768  12.387
66908W        W28362  31.925   7.787  12.551
66909W        W28363   3.224  30.488  12.920
66910W        W28364  38.465  13.755   0.309
66911W        W28365  13.264  43.349  11.110
66912W        W28366  10.714  43.934   2.361
66913W        W28367  19.594  21.742  12.356
66914W        W28368  22.203  39.034   4.225
66915W        W28369  15.097  21.039   2.267
66916W        W28370  29.649  26.569  11.087
66917W        W28371   3.442  22.181   4.736
66918W        W28372  22.509  14.594  12.948
66919W        W28373   1.957  42.362   0.758
66920W        W28374  20.130  26.649   9.975
66921W        W28375  24.107   3.731   1.340
66922W        W28376  22.089   0.450  12.861
66923W        W28377  16.579  39.403   5.188
66924W        W28378  19.779  39.402   1.418
66925W        W28379  39.986  20.034  13.988
66926W        W28380  32.102   0.384   1.810
66927W        W28381   9.678  22.131   2.675
66928W        W28382   4.942  39.840   3.209
66929W        W28383  36.888  26.460  14.492
66930W        W28384  19.633  30.492  11.568
66931W        W28385  28.565  17.248   2.816
66932W        W28386  28.448  17.197   1.313
66933W        W28387  38.884  12.656   3.216
66934W        W28388  28.447  20.149  11.943
66935W        W28389  18.220  33.599  11.978
66936W        W28390  44.333  38.045  14.847
66937W        W28391  43.341  42.864  12.424
66938W        W28392  43.321  35.926  10.568
66939W        W28393  13.110  24.576   4.242
66940W        W28394  11.733  35.053   0.442
66941W        W28395  43.361  13.601  12.058
66942W        W28396  39.004   7.753   2.286
66943W        W28397   9.164  26.489  13.038
66944W        W28398   1.966  25.631   1.833
66945W        W28399  41.436  10.730   0.383
66946W        W28400   2.247  23.155  12.885
66947W        W28401  24.714  19.751   4.671
66948W        W28402  22.027  23.010   0.927
66949W        W28403  39.947  14.275  12.048
66950W        W28404  11.226  39.416  10.113
66951W        W28405  28.538   9.762  12.899
66952W        W28406  26.482  37.834  13.502
66953W        W28407   3.876  33.442  14.876
66954W        W28408  12.782  42.795   3.277
66955W        W28409  17.171  30.579  10.009
66956W        W28410  10.300  22.527   0.800
66957W        W28411  10.663   2.454  13.543
66958W        W28412  18.700   2.344   3.212
66959W        W28413   7.872   1.761   2.777
66960W        W28414   2.846   1.373   2.261
66961W        W28415  38.991  11.281   3.714
66962W        W28416  20.732  33.964  12.455
66963W        W28417  33.907  35.400  14.840
66964W        W28418  35.989  20.619   2.393
66965W        W28419  14.819  23.021   2.245
66966W        W28420  12.291   7.203   1.431
66967W        W28421   3.915  39.014  11.924
66968W        W28422  29.019  16.712   4.224
66969W        W28423   2.242  15.196   3.825
66970W        W28424  18.603  22.093   2.399
66971W        W28425  27.650  17.116   1.734
66972W        W28426  24.049  38.512   4.796
66973W        W28427  39.470  43.286  12.564
66974W        W28428  30.653  44.804  12.380
66975W        W28429  40.378  43.374  14.501
66976W        W28430  12.121  32.568   0.783
66977W        W28431  25.588  26.478   2.192
66978W        W28432  42.433  35.913   2.258
66979W        W28433  37.836   0.840  14.824
66980W        W28434  44.460  41.308  14.799
66981W        W28435   7.227  16.598   2.709
66982W        W28436  23.576  20.667  13.511
66983W        W28437  36.453  41.820   2.873
66984W        W28438  38.550  42.476  14.384
66985W        W28439  22.073  13.653  11.431
66986W        W28440   4.771  15.630   1.270
66987W        W28441  41.843   6.921   4.304
66988W        W28442   8.327  27.591  13.832
66989W        W28443  14.205  37.017  10.531
66990W        W28444   7.739  24.157   1.274
66991W        W28445  20.130  19.134   0.935
66992W        W28446  16.697  36.979  10.533
66993W        W28447  33.052  28.057   1.707
66994W        W28448  29.966  37.357   1.291
66995W        W28449  26.525  16.202  13.808
66996W        W28450  42.030   6.353  14.796
66997W        W28451   2.742   0.282  12.425
66998W        W28452  44.979  36.521  14.402
66999W        W28453  30.512  44.471  14.858
67000W        W28454  42.363  25.992   0.252
67001W        W28455   9.357  18.563   1.331
67002W        W28456  22.224  21.572  10.912
67003W        W28457  16.775  16.795   0.326
67004W        W28458   5.715  42.955  10.914
67005W        W28459  29.134  10.651  12.022
67006W        W28460  24.640  18.248   1.915
67007W        W28461  29.020   4.880  14.311
67008W        W28462  43.012  17.203   0.349
67009W        W28463  13.643   1.906  11.543
67010W        W28464  14.707  36.465   0.899
67011W        W28465  18.288  28.032   0.734
67012W        W28466  29.938  16.581  12.006
67013W        W28467   4.233  14.265  13.990
67014W        W28468   5.203  20.530   2.324
67015W        W28469  26.050   7.403   2.673
67016W        W28470  38.373  31.637  13.953
67017W        W28471  37.490  38.443  12.553
67018W        W28472  36.046  21.595  11.578
67019W        W28473   3.901   5.240  13.940
67020W        W28474  20.224  27.459  13.336
67021W        W28475  32.428  41.511   0.370
67022W        W28476   4.396  14.793   4.221
67023W        W28477  13.816  16.144   0.967
67024W        W28478   9.864   7.807  13.857
67025W        W28479  24.551  33.543  14.495
67026W        W28480  27.550   9.656  10.615
67027W        W28481  40.468  43.017  14.400
67028W        W28482  29.544  40.870  10.631
67029W        W28483  33.602  11.716  14.347
67030W        W28484   0.956  43.386   0.467
67031W        W28485   3.847  40.494   3.769
67032W        W28486   8.896  31.002   0.464
67033W        W28487  31.987   2.351  13.828
67034W        W28488  18.663  43.924  13.384
67035W        W28489   7.213   0.801   4.269
67036W        W28490  34.882   8.790  12.389
67037W        W28491  44.270   9.756  13.057
67038W        W28492  14.715  28.937   0.866
67039W        W28493  22.508  13.755  11.079
67040W        W28494   5.866  27.596   4.806
67041W        W28495  22.538  12.829  12.496
67042W        W28496  42.328  14.593  12.580
67043W        W28497   3.724  15.668   4.194
67044W        W28498  31.977  30.130  10.422
67045W        W28499  35.007   2.743  13.527
67046W        W28500  40.443  14.149  12.342
67047W        W28501  41.025  38.350   3.658
67048W        W28502   6.268  17.798  12.465
67049W        W28503  17.574  22.184   0.806
67050W        W28504   2.309   4.786  14.863
67051W        W28505  11.254  38.954   4.349
67052W        W28506   1.953  31.564   2.865
67053W        W28507  15.663  19.554   1.871
67054W        W28508  16.625  16.635   2.696
67055W        W28509  11.252  40.980   2.256
67056W        W28510   4.714  33.110   2.396
67057W        W28511  12.791  11.299   9.959
67058W        W28512  13.247  39.868   2.789
67059W        W28513  16.270  25.195   1.907
67060W        W28514  22.681   7.729   0.312
67061W        W28515  20.731  32.541   1.311
67062W        W28516  35.516  32.058  10.108
67063W        W28517  28.596  40.005   2.771
67064W        W28518  37.920  32.069  13.805
67065W        W28519   3.439  10.673   0.829
67066W        W28520  32.500  32.615  14.390
67067W        W28521  13.721  19.743  11.955
67068W        W28522  39.868   7.245  12.372
67069W        W28523  42.824   5.716   2.418
67070W        W28524  42.966  29.165  12.017
67071W        W28525  13.807  32.930   2.808
67072W        W28526  38.891   7.279   0.402
67073W        W28527  26.049  35.440  11.498
67074W        W28528  25.129  14.168  10.532
67075W        W28529  18.148  41.300  12.013
67076W        W28530  35.370  27.067  12.922
67077W        W28531  11.812  17.222   9.610
67078W        W28532  10.258  42.458   4.231
67079W        W28533   9.306  29.168   2.697
67080W        W28534   1.314  14.758   2.844
67081W        W28535  34.457  24.663   4.204
67082W        W28536   6.222  35.858   1.736
67083W        W28537  17.256  43.847  12.958
67084W        W28538   4.231  10.220   1.911
67085W        W28539   8.736  43.839   2.182
67086W        W28540  16.719  20.222   3.824
67087W        W28541  42.388   5.388   3.145
67088W        W28542   9.749  18.256  10.070
67089W        W28543   6.832  11.838   1.421
67090W        W28544  34.447  12.801   1.710
67091W        W28545  32.624  15.641   0.807
67092W        W28546  34.385  34.961  14.362
67093W        W28547  30.014  23.185  11.899
67094W        W28548  33.550  20.612  10.554
67095W        W28549   3.910  24.128  12.073
67096W        W28550  12.165  38.394  10.040
67097W        W28551  15.708   7.733  12.954
67098W        W28552  20.175  20.766   1.878
67099W        W28553   5.802   0.404   2.889
67100W        W28554   4.441  39.822  11.937
67101W        W28555  23.513  15.292   2.368
67102W        W28556  32.535  42.976   4.194
67103W        W28557  18.078  30.134   0.362
67104W        W28558   6.703  33.023  12.083
67105W        W28559  41.883  37.563  11.020
67106W        W28560  11.267  15.212   1.883
67107W        W28561  33.046   5.263   3.218
67108W        W28562  13.808  16.072  14.274
67109W        W28563  17.762  37.378   1.253
67110W        W28564  26.964  39.436  13.514
67111W        W28565  40.462  31.405  12.921
67112W        W28566  28.134  18.108   3.702
67113W        W28567  27.682  21.530   4.765
67114W        W28568  26.465  26.652   0.453
67115W        W28569  12.348   6.272   0.370
67116W        W28570  12.788  26.667  14.963
67117W        W28571  17.179  35.005  11.910
67118W        W28572   4.284  36.989   2.727
67119W        W28573  15.737   6.736   2.864
67120W        W28574  30.022  25.676   2.770
67121W        W28575  36.871  35.512  10.560
67122W        W28576  21.019  27.612   3.778
67123W        W28577  29.026  16.136  13.925
67124W        W28578   2.393  12.343   2.352
67125W        W28579  17.749  29.987  11.878
67126W        W28580   3.257   6.760  11.490
67127W        W28581  13.134   5.425  14.370
67128W        W28582  14.733   9.193   0.794
67129W        W28583  28.176  15.111  13.545
67130W        W28584  32.486   9.184  11.441
67131W        W28585   1.313  23.584  13.874
67132W        W28586  40.962  21.209  11.516
67133W        W28587   2.466  37.978   3.732
67134W        W28588   2.925  41.383  11.587
67135W        W28589  19.132  10.267  13.862
67136W        W28590  21.238  41.318   4.833
67137W        W28591  44.485  33.560   1.230
67138W        W28592  39.870  39.000   4.144
67139W        W28593   2.772  21.149   3.197
67140W        W28594  24.612  29.631   4.632
67141W        W28595  15.110  43.484  11.510
67142W        W28596  20.032  34.595   2.857
67143W        W28597   6.894  35.100  12.066
67144W        W28598   2.855   5.345   2.245
67145W        W28599  18.722  39.417  11.906
67146W        W28600   2.922  18.167   2.258
67147W        W28601  15.582   9.744   1.915
67148W        W28602  23.671  31.977   5.183
67149W        W28603  32.566  14.622   0.323
67150W        W28604   2.430   0.939  10.936
67151W        W28605  30.093  41.945   4.659
67152W        W28606   6.210  14.251   3.254
67153W        W28607  12.724  11.323   3.372
67154W        W28608   0.319  34.579   4.603
67155W        W28609  24.203  15.736  12.536
67156W        W28610   3.920  17.740   4.321
67157W        W28611  17.061   4.304  13.021
67158W        W28612  17.066  12.856   0.250
67159W        W28613   6.423  34.997  14.943
67160W        W28614  43.438  25.119  11.878
67161W        W28615  41.882  38.899   1.927
67162W        W28616  36.399   1.356  12.042
67163W        W28617  40.467  42.396  14.985
67164W        W28618  43.396  26.134   2.396
67165W        W28619  17.663  24.524  10.518
67166W        W28620   6.832  43.933   2.253
67167W        W28621  20.593  34.409   0.262
67168W        W28622  39.931  13.326  10.632
67169W        W28623  12.356  23.574   3.688
67170W        W28624   9.856   5.229  14.860
67171W        W28625  35.506  13.175   1.740
67172W        W28626  32.951  42.959   2.758
67173W        W28627   5.841  28.521  11.892
67174W        W28628   8.228  44.420  13.820
67175W        W28629  30.587  25.565  12.920
67176W        W28630  10.813  38.837  10.521
67177W        W28631  32.428  30.601   3.182
67178W        W28632  22.220   7.255  10.489
67179W        W28633   1.385   6.766  11.384
67180W        W28634  11.622  41.978  12.369
67181W        W28635  39.050  32.482   3.241
67182W        W28636   7.290  36.528   5.118
67183W        W28637  40.376   5.393   3.227
67184W        W28638  24.990   9.229  11.424
67185W        W28639  26.558  19.659   3.642
67186W        W28640  37.541  44.287  12.086
67187W        W28641   2.411  20.060   0.470
67188W        W28642  23.134  37.548   1.328
67189W        W28643   5.926  40.517   1.778
67190W        W28644   1.915  35.864  11.891
67191W        W28645  28.600  35.968  12.989
67192W        W28646   0.478   1.826  14.433
67193W        W28647   0.276   2.420   0.376
67194W        W28648  11.296   8.843  14.800
67195W        W28649  15.778   3.779  13.439
67196W        W28650  28.002  13.670  13.396
67197W        W28651  19.566  29.571  13.427
67198W        W28652  27.607  33.008  12.487
67199W        W28653   2.967  33.053  11.990
67200W        W28654  34.866  18.775   2.890
67201W        W28655  13.207   8.359   4.209
67202W        W28656  23.182  42.868  10.420
67203W        W28657  27.966   6.767  13.376
67204W        W28658  41.358  23.066   1.322
67205W        W28659  21.540  17.793   0.392
67206W        W28660  41.901   8.339   2.281
67207W        W28661  19.669  29.537   0.253
67208W        W28662  28.473  19.572  11.867
67209W        W28663  25.707   7.849  14.483
67210W        W28664  33.554   4.444   2.320
67211W        W28665  21.062  21.178  13.997
67212W        W28666  19.630  31.982   2.700
67213W        W28667  39.526   8.286  14.503
67214W        W28668  42.282   6.889   3.268
67215W        W28669  37.966   9.350  10.637
67216W        W28670   4.876  40.827   4.204
67217W        W28671  14.621  12.614  14.959
67218W        W28672  22.513  12.748   1.839
67219W        W28673  41.969   5.200   4.654
67220W        W28674   0.870  39.032   9.943
67221W        W28675  17.750  22.628   1.442
67222W        W28676   2.293  13.673   3.805
67223W        W28677  42.014  33.415  10.029
67224W        W28678  40.042  37.880  10.933
67225W        W28679  18.700  20.535   3.195
67226W        W28680  25.991  31.457   3.636
67227W        W28681  13.284   0.458   3.181
67228W        W28682   2.860  16.138  13.396
67229W        W28683  14.656   3.456   4.308
67230W        W28684  20.220  39.450   3.827
67231W        W28685  30.526  20.523  13.880
67232W        W28686   5.840   1.291   1.884
67233W        W28687  30.640  32.403   1.857
67234W        W28688  10.297  15.783   5.288
67235W        W28689  21.606  12.711  10.544
67236W        W28690  12.208  43.512  14.826
67237W        W28691  29.448  18.174   3.221
67238W        W28692   6.364  33.426   3.774
67239W        W28693  13.260  26.678  13.481
67240W        W28694  35.012   9.248  10.971
67241W        W28695  25.985   8.721  11.395
67242W        W28696  19.211  30.486  13.509
67243W        W28697  32.627  24.015  10.936
67244W        W28698  44.265  27.158  13.328
67245W        W28699  40.362  11.257  12.447
67246W        W28700  25.585  31.975   3.635
67247W        W28701  23.093  18.223   0.833
67248W        W28702   1.897  43.917   4.297
67249W        W28703  11.264  31.923  11.474
67250W        W28704  30.463  41.857   5.261
67251W        W28705  17.672   5.758   1.330
67252W        W28706  36.371  16.224  11.053
67253W        W28707  31.985  33.996   0.459
67254W        W28708   0.979  28.635   3.366
67255W        W28709   2.412  36.469   2.886
67256W        W28710   6.259  32.507   0.478
67257W        W28711  24.564   6.745  13.476
67258W        W28712   7.360   7.399   2.272
67259W        W28713   1.393  34.609   4.294
67260W        W28714  27.656  10.632  10.054
67261W        W28715  41.418  31.913   0.318
67262W        W28716  23.089   5.908  13.954
67263W        W28717  24.626   2.337  12.882
67264W        W28718  15.107  13.798  11.969
67265W        W28719   4.857  41.338  14.981
67266W        W28720  35.096  36.965   1.831
67267W        W28721   0.984  42.424   2.782
67268W        W28722  44.380  15.647   4.314
67269W        W28723  28.039  16.297   4.781
67270W        W28724  33.885  35.965   4.677
67271W        W28725  33.472  29.032   5.286
67272W        W28726  35.924  43.835   2.197
67273W        W28727  16.221  39.044  13.537
67274W        W28728  28.463  28.097  14.915
67275W        W28729  33.898  37.446   2.186
67276W        W28730  18.056  42.514  14.462
67277W        W28731  20.211  14.254  11.562
67278W        W28732  23.161  25.521  13.393
67279W        W28733  34.984  21.048   3.685
67280W        W28734   7.708  35.920   4.140
67281W        W28735  19.593   5.836   1.799
67282W        W28736  36.363  16.246   4.267
67283W        W28737  26.145  24.564  13.324
67284W        W28738  21.141   7.283  11.541
67285W        W28739  35.499  29.610  13.452
67286W        W28740  24.631  38.386   0.389
67287W        W28741  33.434  43.863  13.904
67288W        W28742  44.984  12.127  14.898
67289W        W28743  30.441   0.370  14.828
67290W        W28744  14.156   8.364  14.813
67291W        W28745  15.261  19.227   0.750
67292W        W28746   3.915   1.905   9.955
67293W        W28747   0.472  11.224  11.113
67294W        W28748  28.943  21.667   4.349
67295W        W28749  26.014  11.738   1.297
67296W        W28750  30.654  16.148  11.008
67297W        W28751  21.720   3.425  11.565
67298W        W28752  28.948  42.873   1.211
67299W        W28753  28.955  31.473  11.552
67300W        W28754  42.389   5.219   0.393
67301W        W28755  28.171   9.343  12.381
67302W        W28756  28.675  13.646  14.020
67303W        W28757  16.313  18.736   3.809
67304W        W28758  25.622   3.374   1.909
67305W        W28759  17.790  42.850  14.491
67306W        W28760   6.833  44.905   3.680
67307W        W28761  26.957   1.454   1.210
67308W        W28762  41.976   7.243   2.790
67309W        W28763  13.134  24.196  11.021
67310W        W28764  16.783  34.439   1.869
67311W        W28765  23.507  30.658  13.317
67312W        W28766   8.217  26.977  12.436
67313W        W28767  37.862  44.494   3.241
67314W        W28768  25.155   9.859   1.762
67315W        W28769   4.252  26.028  13.795
67316W        W28770  14.814  32.909   1.351
67317W        W28771  22.049  16.173  12.942
67318W        W28772  30.130  40.425  14.341
67319W        W28773   9.223  14.289  13.002
67320W        W28774  34.499   9.660   3.263
67321W        W28775  38.474   9.334   3.646
67322W        W28776  35.990  31.615  13.014
67323W        W28777   1.329  10.308  12.845
67324W        W28778   5.797   5.221  11.477
67325W        W28779  43.826  29.129  14.503
67326W        W28780  14.306  17.173   0.815
67327W        W28781  15.284  39.540  11.005
67328W        W28782   8.287   2.745   0.320
67329W        W28783  39.375  25.163  12.022
67330W        W28784  13.303  31.131   3.204
67331W        W28785   0.819  11.295   1.296
67332W        W28786  34.025  39.911  12.564
67333W        W28787  12.221  18.166  11.908
67334W        W28788   5.870  25.964  11.557
67335W        W28789  10.381  22.091  11.462
67336W        W28790  13.318  19.114  14.385
67337W        W28791  36.998  26.127   4.121
67338W        W28792  24.650  11.219   0.772
67339W        W28793  34.101  40.818  14.922
67340W        W28794  13.280  39.555  12.444
67341W        W28795  35.479  23.672   4.826
67342W        W28796  25.979   1.970  13.394
67343W        W28797  16.603   4.317   1.235
67344W        W28798  22.197   4.269   1.717
67345W        W28799  23.115  35.456   3.277
67346W        W28800  38.548  42.913   4.832
67347W        W28801  30.654  31.516  10.470
67348W        W28802  18.663  12.625   2.336
67349W        W28803  16.303  32.941  13.475
67350W        W28804  16.200  18.744  11.884
67351W        W28805  17.586  33.552  14.852
67352W        W28806  39.556  12.358   0.901
67353W        W28807  43.343  42.998   4.605
67354W        W28808  10.691   4.736  10.413
67355W        W28809  34.971   6.758  12.072
67356W        W28810  28.944  23.200  11.383
67357W        W28811  12.276   2.432  11.583
67358W        W28812  32.935  10.145   4.809
67359W        W28813  17.075  24.056   4.322
67360W        W28814  29.148  40.042   0.892
67361W        W28815  32.061  33.993   1.343
67362W        W28816  21.530  29.450  14.994
67363W        W28817  34.077  34.906   2.768
67364W        W28818  38.055  37.924   2.330
67365W        W28819  10.267  42.949  11.447
67366W        W28820   2.408   2.268  12.946
67367W        W28821   7.353   9.364  13.479
67368W        W28822  24.224  16.577  11.420
67369W        W28823  33.393  21.737   1.828
67370W        W28824   5.894  40.009  14.477
67371W        W28825  44.365  36.573   0.964
67372W        W28826   0.774  13.269  13.798
67373W        W28827  29.960  42.775  11.413
67374W        W28828  30.922  16.265   3.223
67375W        W28829   2.754  22.013  10.590
67376W        W28830  33.892  36.366   4.826
67377W        W28831  25.511  12.811   0.329
67378W        W28832  20.120   3.910   1.236
67379W        W28833  42.343  35.929   3.386
67380W        W28834  38.423   0.903  13.533
67381W        W28835  17.642  21.714  14.279
67382W        W28836  13.701  44.901   0.324
67383W        W28837  11.257  33.983  10.446
67384W        W28838  29.172  22.198   4.829
67385W        W28839  19.181   6.398  12.907
67386W        W28840  35.085  12.207   0.389
67387W        W28841   5.851   1.778  14.829
67388W        W28842  27.528   4.777   9.445
67389W        W28843  30.591  28.995  14.886
67390W        W28844  27.131  13.163  14.434
67391W        W28845  12.796  32.108   1.278
67392W        W28846   9.798  36.890  14.767
67393W        W28847  43.945  23.118  14.351
67394W        W28848  38.356  22.221   2.346
67395W        W28849  28.504  27.956  13.838
67396W        W28850  37.898   9.848  14.276
67397W        W28851  44.904   9.258   2.739
67398W        W28852   1.867   2.235   2.798
67399W        W28853   9.373  36.999  14.444
67400W        W28854  15.584   0.877   3.209
67401W        W28855  33.029   0.813  12.339
67402W        W28856   8.739  43.299  12.041
67403W        W28857  15.657  10.709   0.956
67404W        W28858   0.420  37.067  13.972
67405W        W28859   1.313  26.611  14.809
67406W        W28860  22.042   6.326   1.865
67407W        W28861  12.120  19.270   1.748
67408W        W28862  22.507   0.453   2.274
67409W        W28863  37.971   9.735  13.875
67410W        W28864   5.257  30.516  13.342
67411W        W28865  21.684  13.122  11.550
67412W        W28866   6.282  32.919   2.232
67413W        W28867  26.122  23.697   9.589
67414W        W28868  30.957  36.414  13.405
67415W        W28869   5.814  42.886  11.463
67416W        W28870   0.301  17.683   1.263
67417W        W28871  37.911  11.304   3.746
67418W        W28872  26.176  39.061  13.846
67419W        W28873  42.881  18.117   4.266
67420W        W28874  15.625  30.148   2.352
67421W        W28875  19.606  35.057  10.985
67422W        W28876  29.495  25.655   2.348
67423W        W28877  21.140  28.102   4.305
67424W        W28878   0.304  12.230  12.439
67425W        W28879  14.177  40.448  13.336
67426W        W28880  18.114  29.501  11.092
67427W        W28881  12.804  16.215  13.940
67428W        W28882   0.393  33.512   4.247
67429W        W28883   1.365  38.568  14.795
67430W        W28884  24.192  10.189   3.220
67431W        W28885  40.898  16.793   4.710
67432W        W28886   8.199  33.442  10.601
67433W        W28887  23.528  21.663  14.314
67434W        W28888  29.558  35.554  14.834
67435W        W28889  24.204  30.485  10.453
67436W        W28890  39.451  41.383  13.361
67437W        W28891   0.811  37.499   3.360
67438W        W28892  24.524  26.983  10.895
67439W        W28893  31.023  32.621   1.696
67440W        W28894  24.214  27.453   2.403
67441W        W28895  27.129  11.655  14.911
67442W        W28896  28.453  42.295   3.639
67443W        W28897  23.222  35.546  13.851
67444W        W28898  11.766  12.190   1.292
67445W        W28899   5.857   7.316  11.905
67446W        W28900  22.613  21.202   5.151
67447W        W28901  18.155  37.549   0.768
67448W        W28902  17.300  20.169  14.845
67449W        W28903  35.035  41.320  11.047
67450W        W28904   6.225  13.332  14.020
67451W        W28905  21.545  20.619   3.387
67452W        W28906  39.952   0.951   3.785
67453W        W28907  16.572   4.844  13.942
67454W        W28908   7.307   2.373  14.427
67455W        W28909  37.446   6.875  13.513
67456W        W28910  23.707   0.483  11.024
67457W        W28911  26.083  42.340  11.399
67458W        W28912  39.887  20.624  11.407
67459W        W28913   7.389  16.270  13.978
67460W        W28914   8.763   8.305  13.985
67461W        W28915   6.239  24.005   4.192
67462W        W28916  36.035   0.400  12.496
67463W        W28917  24.208  32.044  13.544
67464W        W28918  19.696  25.473  14.336
67465W        W28919  33.490  30.122  11.584
67466W        W28920  13.283   6.360  13.391
67467W        W28921  14.653  40.403   0.332
67468W        W28922  40.359  39.534  10.964
67469W        W28923  33.925  24.211  12.919
67470W        W28924  40.039  22.232   4.791
67471W        W28925  31.945   1.427  13.003
67472W        W28926   2.820  10.744  14.855
67473W        W28927  40.513   8.682   3.676
67474W        W28928  38.997  37.055  12.382
67475W        W28929  27.123  39.020   0.448
67476W        W28930  43.430   5.860  14.396
67477W        W28931  43.347  34.540  10.563
67478W        W28932   0.277   2.330   3.255
67479W        W28933  43.388  15.322   3.284
67480W        W28934  34.610   0.871  12.903
67481W        W28935  10.829  33.093   2.203
67482W        W28936  28.579   7.901   0.729
67483W        W28937  21.121  10.203  13.330
67484W        W28938  31.984  12.714   1.870
67485W        W28939  44.454  27.664   1.310
67486W        W28940   5.356  25.640  14.769
67487W        W28941  28.083  34.404  10.618
67488W        W28942  11.709  25.138   1.780
67489W        W28943   9.883  43.839  12.384
67490W        W28944   5.313  43.300   4.799
67491W        W28945  35.395  44.980   2.224
67492W        W28946  36.536  38.527  12.545
67493W        W28947   7.669  28.110   1.253
67494W        W28948  26.073   1.933   2.768
67495W        W28949   2.450  28.034   2.261
67496W        W28950  28.974   1.266   3.819
67497W        W28951   0.297   4.214  13.533
67498W        W28952   5.243  11.369  10.422
67499W        W28953  14.164   4.266  13.446
67500W        W28954  43.287  33.053  12.924
67501W        W28955  18.546   8.243  12.558
67502W        W28956   3.912  19.621  11.501
67503W        W28957  37.531  42.416  13.031
67504W        W28958  24.478  37.941   4.745
67505W        W28959   9.840  13.630  13.363
67506W        W28960  37.534  19.277   1.398
67507W        W28961  12.155  34.431  11.017
67508W        W28962  17.110  37.526   4.192
67509W        W28963  30.458  29.427   2.391
67510W        W28964   1.469  16.733   0.253
67511W        W28965  13.182  20.053   2.708
67512W        W28966   3.727  11.831  14.937
67513W        W28967  18.295  32.024   2.887
67514W        W28968  27.964  28.436   2.873
67515W        W28969   5.352   3.410  10.488
67516W        W28970  35.006  31.013  10.897
67517W        W28971  28.506   7.179  10.002
67518W        W28972  30.439  15.730   4.675
67519W        W28973  23.722   9.756   4.326
67520W        W28974  21.692  12.202   1.306
67521W        W28975  11.356  31.527  10.942
67522W        W28976  26.564  36.517   0.795
67523W        W28977  18.084  25.967   0.805
67524W        W28978  27.010  31.013  11.496
67525W        W28979  36.001  40.856  12.412
67526W        W28980  40.339   3.226   0.825
67527W        W28981   8.782  10.802  11.527
67528W        W28982  10.730  32.572  12.425
67529W        W28983  10.270  43.902   0.911
67530W        W28984  39.996  43.874   4.174
67531W        W28985  19.101  36.409  11.508
67532W        W28986   8.710   2.385  14.380
67533W        W28987  21.229  16.687  14.007
67534W        W28988  30.122  14.782   2.669
67535W        W28989  16.583  10.331  11.878
67536W        W28990  23.098  39.409   1.212
67537W        W28991  17.173  12.658  13.492
67538W        W28992  37.994  36.361   1.281
67539W        W28993  31.437  39.507  13.020
67540W        W28994  27.999  24.559   9.977
67541W        W28995  39.021  39.422  12.849
67542W        W28996   6.736  34.869  10.024
67543W        W28997  42.969  25.526  10.421
67544W        W28998  27.036  16.213  13.981
67545W        W28999  35.596   6.419   0.740
67546W        W29000  19.216  26.176  12.412
67547W        W29001   8.809  35.524  10.644
67548W        W29002  40.333  27.080   4.767
67549W        W29003  24.109  25.477  12.862
67550W        W29004  41.301   3.292   2.385
67551W        W29005  44.841  31.992   4.640
67552W        W29006  37.910  32.924   0.887
67553W        W29007   3.900  30.045   4.182
67554W        W29008  23.736  25.480   4.836
67555W        W29009  23.019  16.766  10.558
67556W        W29010   5.365  25.576  12.504
67557W        W29011   1.897  18.089   1.369
67558W        W29012  15.751  35.446  12.956
67559W        W29013  39.366  44.274   3.327
67560W        W29014  19.147  16.309   3.864
67561W        W29015   7.183  14.152   1.900
67562W        W29016  36.377  16.778  12.414
67563W        W29017  16.802  42.511  11.556
67564W        W29018   9.822   3.322  10.898
67565W        W29019  36.499  31.916   1.792
67566W        W29020  44.004  43.924   0.343
67567W        W29021  20.095  44.492   0.433
67568W        W29022   3.857  24.644  14.952
67569W        W29023  11.766  26.565  12.983
67570W        W29024  23.714  28.055  11.044
67571W        W29025  18.270  21.023  13.834
67572W        W29026  20.760  31.898  11.596
67573W        W29027  11.726  41.400   1.803
67574W        W29028   6.868  16.128   0.871
67575W        W29029  10.308   6.772   3.683
67576W        W29030  16.808  33.093  14.028
67577W        W29031  26.566  36.366  14.027
67578W        W29032  36.920  12.145   4.191
67579W        W29033  16.134  15.751   0.399
67580W        W29034  25.106   8.663   4.821
67581W        W29035  11.634   0.256  13.482
67582W        W29036   2.383  33.558   3.796
67583W        W29037  41.437  13.735  12.342
67584W        W29038  16.191  25.024   4.721
67585W        W29039  39.524  14.741  13.336
67586W        W29040   0.790  12.698  13.411
67587W        W29041   5.426  16.732  10.919
67588W        W29042  24.578   6.368   1.891
67589W        W29043  25.486   7.237  11.087
67590W        W29044  31.121  31.514  12.058
67591W        W29045  30.502  24.717   3.314
67592W        W29046  43.792  21.520  13.896
67593W        W29047   5.736  20.633   2.313
67594W        W29048   6.885  29.002   1.408
67595W        W29049  38.392   8.374   1.410
67596W        W29050   3.370   3.249  10.553
67597W        W29051   9.189   4.745   2.340
67598W        W29052  18.108  28.599  12.541
67599W        W29053   2.409  29.968   4.343
67600W        W29054   9.803  40.947   4.309
67601W        W29055   0.803  39.401   4.231
67602W        W29056  20.151   6.336   2.391
67603W        W29057  17.744   7.813  14.325
67604W        W29058  31.526  42.490  12.428
67605W        W29059  29.496  35.100   4.121
67606W        W29060  25.519  44.927   4.273
67607W        W29061  35.541  23.679  14.417
67608W        W29062  15.228  31.014   1.229
67609W        W29063  36.058  20.065  10.530
67610W        W29064  41.334   8.181  14.881
67611W        W29065  44.401  27.539  11.120
67612W        W29066  32.007  39.537  13.880
67613W        W29067  32.589   8.336  13.028
67614W        W29068  44.342  13.270  13.792
67615W        W29069  27.464  24.118   1.726
67616W        W29070  38.347  13.682  11.574
67617W        W29071  12.319  30.456   4.691
67618W        W29072  16.773  22.523  11.490
67619W        W29073  38.393  43.366  12.915
67620W        W29074  31.107  36.566  11.062
67621W        W29075   6.711  29.922  11.861
67622W        W29076  36.365  21.617  14.387
67623W        W29077   0.884   6.419  12.365
67624W        W29078   7.268  35.909   3.681
67625W        W29079  29.606  41.865  13.922
67626W        W29080  35.041  37.419  12.091
67627W        W29081  32.013  10.246   3.644
67628W        W29082  18.602  40.494   1.297
67629W        W29083  36.982   6.375   0.466
67630W        W29084  28.640   8.800   2.340
67631W        W29085   9.835  33.441  13.503
67632W        W29086  12.851   4.933  10.620
67633W        W29087  15.200  28.606   0.430
67634W        W29088  21.062  31.586  12.398
67635W        W29089   1.949   3.368  11.856
67636W        W29090  43.297  32.890   4.804
67637W        W29091  39.326  22.540   0.265
67638W        W29092  40.448   4.759  14.368
67639W        W29093  24.666  31.958   4.676
67640W        W29094  41.326   7.233   0.285
67641W        W29095  38.029   2.237  12.563
67642W        W29096  16.202   0.400  13.951
67643W        W29097  22.112  39.906  12.462
67644W        W29098  14.318  20.153   0.867
67645W        W29099   2.438  42.486   3.732
67646W        W29100  25.094   7.845  14.977
67647W        W29101  19.697   9.769  14.462
67648W        W29102   1.809  38.034  12.904
67649W        W29103  34.389  13.338  12.020
67650W        W29104  28.545  41.416   3.192
67651W        W29105  38.364  42.002  13.400
67652W        W29106  21.609   7.379  11.955
67653W        W29107   3.837  42.468   2.261
67654W        W29108  20.550  37.079   3.764
67655W        W29109  11.330  23.653  14.986
67656W        W29110   8.381  43.022   0.297
67657W        W29111  36.461  24.562  11.050
67658W        W29112  34.598  10.867  14.326
67659W        W29113  25.471  28.093   4.785
67660W        W29114  18.109  25.668   1.876
67661W        W29115   4.377  42.447  11.863
67662W        W29116  12.336  12.669  13.512
67663W        W29117   4.877  26.633  11.568
67664W        W29118  10.329   8.842   1.401
67665W        W29119  18.113  40.049   1.286
67666W        W29120  10.727  43.386  11.586
67667W        W29121  44.776  23.011  13.059
67668W        W29122  26.062   0.403   4.720
67669W        W29123  14.156  30.117  14.861
67670W        W29124  21.130  27.135  12.433
67671W        W29125   6.770   4.799   2.766
67672W        W29126  15.674  26.703   5.172
67673W        W29127   3.709  12.212   4.797
67674W        W29128  31.997  29.529  12.023
67675W        W29129  16.684  25.140   3.184
67676W        W29130  44.389  20.052   1.734
67677W        W29131   9.374  19.743   3.336
67678W        W29132   9.714  11.638   0.349
67679W        W29133  21.077   3.844   2.315
67680W        W29134  33.079  30.625  12.013
67681W        W29135  33.952  37.870  11.002
67682W        W29136  37.993  22.556   1.819
67683W        W29137  30.024  21.512  12.432
67684W        W29138  28.618  17.295  14.404
67685W        W29139   3.824  35.042   3.775
67686W        W29140  21.517  15.198  14.497
67687W        W29141   9.789  10.295  14.788
67688W        W29142  20.238  32.971   1.268
67689W        W29143  17.744  27.483  10.534
67690W        W29144  16.747   3.374  11.550
67691W        W29145  43.295   6.905  12.503
67692W        W29146   9.188  20.572   9.630
67693W        W29147   6.213   6.803  14.961
67694W        W29148  31.490  41.860  12.527
67695W        W29149   2.798   0.747  14.385
67696W        W29150  12.354  21.593   0.902
67697W        W29151   4.352  34.086  12.051
67698W        W29152   4.289  20.735  14.277
67699W        W29153  32.637  11.647  14.807
67700W        W29154  16.128  35.523   0.315
67701W        W29155  43.326  37.557  11.081
67702W        W29156  39.041  34.020  13.494
67703W        W29157   4.227  30.530   0.263
67704W        W29158  38.876  19.181  11.936
67705W        W29159  43.907   0.273   2.292
67706W        W29160   8.371  25.137   4.244
67707W        W29161  38.560  34.971  10.954
67708W        W29162   6.849  12.219   3.169
67709W        W29163   1.832  42.523   2.861
67710W        W29164  24.533  42.323   4.770
67711W        W29165   7.171   7.696   0.809
67712W        W29166  15.750  43.795   1.431
67713W        W29167  27.079  17.255  13.427
67714W        W29168  28.673  32.957  13.493
67715W        W29169   2.257  21.528  12.031
67716W        W29170  11.242  27.121   1.902
67717W        W29171  37.945  11.207  10.583
67718W        W29172   4.772  42.399  11.055
67719W        W29173  32.000  34.868   1.342
67720W        W29174  34.940  23.582   4.706
67721W        W29175  44.464  19.166   0.934
67722W        W29176   9.362   9.149  11.053
67723W        W29177  24.209   9.876   3.869
67724W        W29178  38.344  16.715   3.852
67725W        W29179   4.838  39.363   4.621
67726W        W29180   8.376  35.865   3.716
67727W        W29181  39.863  40.424   2.702
67728W        W29182  32.974   0.466  14.969
67729W        W29183  20.644  12.225   1.831
67730W        W29184  27.103   4.430   0.859
67731W        W29185   1.807   7.699  14.422
67732W        W29186  25.666  28.624  11.415
67733W        W29187  35.442  11.831  14.440
67734W        W29188   8.847  40.916   4.266
67735W        W29189   2.382   1.951   0.480
67736W        W29190  11.298  10.660  12.477
67737W        W29191  29.935  24.153   0.818
67738W        W29192  37.969  31.473  14.407
67739W        W29193  18.712   5.313  11.433
67740W        W29194  31.479  38.330   1.798
67741W        W29195  10.161  42.423   3.743
67742W        W29196  11.838  13.178  12.472
67743W        W29197  32.575   0.846   1.840
67744W        W29198   7.758  11.754   0.474
67745W        W29199   5.912  11.306  12.984
67746W        W29200  22.614   0.830  13.816
67747W        W29201  33.040  24.220   2.406
67748W        W29202  39.980  30.502   2.806
67749W        W29203  41.913  26.974   4.812
67750W        W29204  41.880  35.077   2.882
67751W        W29205   1.883  23.235   4.177
67752W        W29206  22.102  37.569  14.828
67753W        W29207  25.036  38.067  14.910
67754W        W29208  43.918  43.277   3.770
67755W        W29209  27.014   4.399   1.447
67756W        W29210  15.682  44.284   3.311
67757W        W29211  16.696  24.133   0.366
67758W        W29212  16.732  34.965   2.879
67759W        W29213  34.478   7.337  14.444
67760W        W29214  16.265  42.872  10.538
67761W        W29215  24.595   6.769  14.921
67762W        W29216  16.566  16.761  11.472
67763W        W29217   9.166   2.753   4.727
67764W        W29218  32.600   5.308  11.405
67765W        W29219  15.123  22.125   2.210
67766W        W29220  11.723  13.195   4.154
67767W        W29221  39.944  13.602   3.335
67768W        W29222  23.129  42.807  13.010
67769W        W29223  17.636   2.316  14.891
67770W        W29224   5.772  24.169   1.364
67771W        W29225   8.666   6.887   1.306
67772W        W29226  10.700   6.863  11.436
67773W        W29227  26.655  40.537  11.858
67774W        W29228  15.816  28.501  13.049
67775W        W29229   4.734  27.599   3.311
67776W        W29230  22.060   6.242  14.460
67777W        W29231  21.559   6.331   2.692
67778W        W29232   6.360  43.443  14.288
67779W        W29233   7.857  21.213  12.371
67780W        W29234  21.606  14.318  13.807
67781W        W29235   5.724  29.921  14.425
67782W        W29236  29.973  33.041   1.888
67783W        W29237  14.131   0.361   2.293
67784W        W29238   4.289  11.149  10.987
67785W        W29239  35.010  29.519   3.367
67786W        W29240   1.921  40.816   1.425
67787W        W29241  22.732  44.837  14.805
67788W        W29242  39.903  21.033  13.046
67789W        W29243  15.791  11.303  13.523
67790W        W29244   9.343  26.562   2.875
67791W        W29245  35.383  42.478   2.811
67792W        W29246  29.446  31.521  12.548
67793W        W29247  26.541  23.092  10.504
67794W        W29248   8.798  14.805   2.816
67795W        W29249  27.054  22.099   2.811
67796W        W29250  18.223  14.261   3.222
67797W        W29251   9.889  26.104  14.978
67798W        W29252  12.294  31.138  12.458
67799W        W29253  19.042   5.852  12.573
67800W        W29254   1.852  15.774  12.002
67801W        W29255   5.356  38.063   2.238
67802W        W29256  13.108  36.465   1.346
67803W        W29257   3.739  18.736  11.438
67804W        W29258  39.926  27.170  11.612
67805W        W29259  36.386  30.502  11.901
67806W        W29260  23.565  19.195  10.602
67807W        W29261  36.486  17.174   4.183
67808W        W29262  22.511   6.234  11.054
67809W        W29263  15.813  34.436  11.455
67810W        W29264  37.975  16.138   3.252
67811W        W29265  19.709  43.958   0.265
67812W        W29266  21.250   2.462  14.957
67813W        W29267  20.220   7.339  13.971
67814W        W29268  22.533   3.782   4.219
67815W        W29269  32.080  25.632  14.917
67816W        W29270  24.591  15.739  14.371
67817W        W29271  23.050  22.032  12.991
67818W        W29272  15.315  33.002  13.016
67819W        W29273  38.016  30.933  13.055
67820W        W29274   8.836  35.094   2.196
67821W        W29275   2.345   1.287  12.374
67822W        W29276  28.441  44.438   0.385
67823W        W29277  38.506  37.500  10.522
67824W        W29278  40.448  14.234   1.237
67825W        W29279   1.306   3.328  14.959
67826W        W29280  36.348  32.404  10.459
67827W        W29281  25.604  17.259   2.824
67828W        W29282   6.184  42.458  13.017
67829W        W29283  32.492  22.709   0.947
67830W        W29284  22.593  19.234  12.549
67831W        W29285  43.465  25.102   1.408
67832W        W29286   4.430   2.351   0.838
67833W        W29287  23.166  12.802  11.532
67834W        W29288  30.150   3.362   0.899
67835W        W29289  11.845  11.285   4.306
67836W        W29290  35.377  35.973   4.164
67837W        W29291  12.813   6.713   4.230
67838W        W29292  20.742   5.831   2.307
67839W        W29293   2.774   1.247  14.026
67840W        W29294   0.928   0.935  10.643
67841W        W29295  18.704   5.349   4.691
67842W        W29296  17.556  26.666   4.274
67843W        W29297  37.075  34.470  10.568
67844W        W29298  11.771  44.362   4.701
67845W        W29299  15.645  33.615   2.732
67846W        W29300  13.689   6.352   1.727
67847W        W29301  24.165  39.336   3.345
67848W        W29302  40.890  33.482  12.067
67849W        W29303   4.699  19.772  12.882
67850W        W29304   2.912  22.098   0.302
67851W        W29305   7.354   0.938  13.948
67852W        W29306   2.829  26.471   0.414
67853W        W29307  11.688  23.610   0.389
67854W        W29308   8.763  18.084   0.386
67855W        W29309   2.799   5.925   2.319
67856W        W29310  33.090   0.929   2.295
67857W        W29311  44.770  44.387   3.278
67858W        W29312   7.346  14.256  12.971
67859W        W29313  44.420  35.907   3.275
67860W        W29314  10.277   6.220   3.814
67861W        W29315   6.913  10.733  13.803
67862W        W29316  21.717   4.268  11.494
67863W        W29317  34.429  24.553   2.287
67864W        W29318  11.631  40.999  12.915
67865W        W29319  22.562  37.916   1.256
67866W        W29320  27.968  26.140   1.868
67867W        W29321  32.488  16.267   1.435
67868W        W29322   8.834   2.735  10.540
67869W        W29323  29.658  18.750   3.667
67870W        W29324   3.297  31.410   2.364
67871W        W29325  36.366  29.519  14.795
67872W        W29326   9.816  23.720  13.449
67873W        W29327  30.981   9.684  10.985
67874W        W29328  22.600  32.451  12.838
67875W        W29329  11.280   9.220  14.287
67876W        W29330   6.683   9.333   4.690
67877W        W29331  13.119  24.112  11.497
67878W        W29332   3.831  15.736   2.761
67879W        W29333  34.397  37.439  11.477
67880W        W29334  30.656  28.649  10.491
67881W        W29335  25.160  40.455   4.731
67882W        W29336  41.492  23.634  14.319
67883W        W29337  19.139  29.546   4.709
67884W        W29338  38.036  14.681  10.438
67885W        W29339  31.417  43.966   1.893
67886W        W29340  23.113   6.185  11.021
67887W        W29341  17.612  30.603   4.332
67888W        W29342   6.325  10.748   0.260
67889W        W29343  34.006  32.520   1.899
67890W        W29344   9.281  18.131  10.645
67891W        W29345  14.315  20.122   4.638
67892W        W29346  24.099   4.814   1.739
67893W        W29347  22.652  23.528   4.323
67894W        W29348  34.606   5.392  14.883
67895W        W29349   6.410   7.231  10.553
67896W        W29350  22.038  10.377  11.396
67897W        W29351  23.645  34.428  12.865
67898W        W29352  39.351  42.493  12.034
67899W        W29353  24.682   4.922   4.625
67900W        W29354  19.097  22.729   3.764
67901W        W29355  12.303  44.366  12.012
67902W        W29356  17.255  22.663   3.793
67903W        W29357   7.359   2.837   4.806
67904W        W29358  40.816   2.261   3.343
67905W        W29359  14.777   2.960  13.814
67906W        W29360  38.375  44.317   3.323
67907W        W29361  22.745   1.383   1.830
67908W        W29362   4.412  18.180   4.723
67909W        W29363  27.991  31.489   3.324
67910W        W29364  15.763  25.580   0.811
67911W        W29365  44.930  38.927  12.566
67912W        W29366   6.835  14.713   3.676
67913W        W29367  27.972  30.138  14.457
67914W        W29368  40.491   0.907   3.230
67915W        W29369  21.645  40.541  12.858
67916W        W29370  24.975  13.223   4.759
67917W        W29371  11.708   1.296  11.956
67918W        W29372  33.060  33.131  11.515
67919W        W29373  23.500  11.852  10.447
67920W        W29374  36.981  25.185  12.853
67921W        W29375  11.700  27.632   1.838
67922W        W29376  36.867   7.763  14.313
67923W        W29377  43.820  31.588   3.757
67924W        W29378  13.185   9.856   0.468
67925W        W29379  18.734   3.829   4.258
67926W        W29380  40.307  25.998   0.931
67927W        W29381  12.250   6.735  11.519
67928W        W29382   7.853   4.205   0.473
67929W        W29383  22.045  19.228   0.271
67930W        W29384  42.967  30.927   3.154
67931W        W29385  19.199   8.194   0.813
67932W        W29386  32.575  23.579   0.264
67933W        W29387  42.363  38.545   1.272
67934W        W29388  25.541   2.866   3.209
67935W        W29389  36.408   3.396   2.757
67936W        W29390  35.952  35.391  11.882
67937W        W29391  15.662  18.756  14.893
67938W        W29392  23.576  38.851  14.998
67939W        W29393  40.980   7.401  12.491
67940W        W29394   3.831  41.458  10.463
67941W        W29395   6.780  25.093   3.673
67942W        W29396   7.217  31.492   1.300
67943W        W29397   8.736  35.925  13.523
67944W        W29398   8.172  42.386   0.406
67945W        W29399  27.532  30.599   2.713
67946W        W29400  35.925   3.928  10.513
67947W        W29401  42.294  26.971   1.914
67948W        W29402  10.769  30.629   2.806
67949W        W29403   0.265  24.216  10.625
67950W        W29404  36.850  26.510   3.843
67951W        W29405  29.966   0.305  11.960
67952W        W29406   5.898  37.441  12.914
67953W        W29407   1.413  41.425   1.740
67954W        W29408  25.005  12.780   0.928
67955W        W29409  21.166   8.372   3.720
67956W        W29410   1.823  29.969   0.351
67957W        W29411  22.680  38.976  12.369
67958W        W29412  34.908  29.010  11.978
67959W        W29413  30.982  43.961  13.413
67960W        W29414  30.074  33.957  14.386
67961W        W29415   2.465  11.788   0.388
67962W        W29416  11.366  15.218   2.180
67963W        W29417  32.450  39.377   0.920
67964W        W29418   2.306  41.453   0.740
67965W        W29419   0.814  33.603   3.775
67966W        W29420  20.234  20.052   2.725
67967W        W29421  37.431  18.629  12.403
67968W        W29422  19.722   3.286   2.260
67969W        W29423   4.889   0.765   3.633
67970W        W29424  20.132  44.419  11.577
67971W        W29425  25.688  28.981   2.198
67972W        W29426  30.978  26.178   2.741
67973W        W29427   2.296  30.086   3.702
67974W        W29428  26.599  10.321  14.493
67975W        W29429  25.599  20.260  12.399
67976W        W29430  32.962  38.534  11.468
67977W        W29431  32.920  42.968  13.539
67978W        W29432  42.795  11.745   2.256
67979W        W29433  26.630  11.681  12.992
67980W        W29434   6.352  38.378   4.291
67981W        W29435  43.993  16.127  10.461
67982W        W29436  10.301  16.638   2.696
67983W        W29437  25.101  44.929  12.557
67984W        W29438  27.944   1.292   5.086
67985W        W29439   2.766  32.031   3.187
67986W        W29440  21.659  35.368  11.864
67987W        W29441  42.350  27.686   0.864
67988W        W29442  37.075  42.347  12.089
67989W        W29443  10.764   7.310   3.247
67990W        W29444   9.183  42.019   0.263
67991W        W29445   4.720  30.127   4.289
67992W        W29446  10.744  20.045  14.406
67993W        W29447   5.720   8.201  14.026
67994W        W29448  40.467  15.697   0.913
67995W        W29449   4.304   1.470   3.337
67996W        W29450  24.603   6.394  13.397
67997W        W29451  17.686  36.074  11.611
67998W        W29452  15.683  22.164  11.566
67999W        W29453  17.679  19.771   0.274
68000W        W29454  30.099  43.985   4.120
68001W        W29455  27.158  38.432   2.782
68002W        W29456  11.187  39.976  14.412
68003W        W29457  21.562  12.247   2.898
68004W        W29458   1.930  25.679   2.776
68005W        W29459   5.305  29.919  11.081
68006W        W29460  20.536  15.612  13.030
68007W        W29461  14.652  28.608   2.722
68008W        W29462  10.333  28.539   1.315
68009W        W29463  42.345   1.242  12.069
68010W        W29464  10.268  23.101  14.912
68011W        W29465   8.816  21.123  14.418
68012W        W29466   6.754   7.744  13.500
68013W        W29467  12.199  32.089   0.288
68014W        W29468  11.678  40.957   2.726
68015W        W29469  38.874   0.903   2.204
68016W        W29470  28.128  42.933   0.277
68017W        W29471  15.670   3.752   1.216
68018W        W29472  41.413   7.382  11.992
68019W        W29473  35.438  10.157  11.529
68020W        W29474   6.743  39.940   2.797
68021W        W29475  24.981  34.593   5.726
68022W        W29476   9.751  44.313   2.418
68023W        W29477  31.957  44.500  14.793
68024W        W29478  33.478  30.069   4.676
68025W        W29479  16.593  21.145   0.745
68026W        W29480  33.921  33.978   2.403
68027W        W29481  20.691  32.531  12.894
68028W        W29482  14.224  19.680   1.819
68029W        W29483  43.839  30.921   1.410
68030W        W29484   4.430  20.048  12.474
68031W        W29485  42.877  33.922   1.890
68032W        W29486  34.374  18.641   1.860
68033W        W29487  15.821   5.889  13.028
68034W        W29488  19.120  23.706  11.080
68035W        W29489   7.312  32.425   1.840
68036W        W29490  27.968  32.418  12.988
68037W        W29491  26.145  25.534  12.358
68038W        W29492   8.773  42.936  14.460
68039W        W29493   8.321   7.351   1.289
68040W        W29494  35.544  13.128   4.829
68041W        W29495  27.488  26.110   4.218
68042W        W29496  19.595  25.072  13.494
68043W        W29497  25.634  14.256  12.570
68044W        W29498  18.081   4.894   0.814
68045W        W29499  34.014  13.319   3.640
68046W        W29500   1.368  11.158   1.281
68047W        W29501  22.591  34.528   2.183
68048W        W29502  37.931  11.213  11.859
68049W        W29503  38.861  36.994   4.273
68050W        W29504  32.143  24.698  12.565
68051W        W29505   3.719  24.655  10.635
68052W        W29506  37.428   5.773  13.439
68053W        W29507  10.732  35.423  14.814
68054W        W29508  40.319  10.369  13.428
68055W        W29509  33.580  32.904   2.744
68056W        W29510  15.234   2.795  12.341
68057W        W29511  12.849   8.717   4.718
68058W        W29512  15.303  36.976  13.000
68059W        W29513  39.035  20.757  12.959
68060W        W29514  40.959  16.136  10.933
68061W        W29515  32.086  30.645  13.362
68062W        W29516  32.099  39.469   4.616
68063W        W29517  36.967   6.901   1.248
68064W        W29518  25.040   3.250  10.010
68065W        W29519  21.625  13.742  14.017
68066W        W29520  25.636  22.503   1.338
68067W        W29521   3.417  21.066   3.801
68068W        W29522  42.930  19.610  14.005
68069W        W29523  11.286   8.750  11.898
68070W        W29524  37.870  20.249   4.346
68071W        W29525   5.257  27.537   3.845
68072W        W29526  35.008  24.975   1.412
68073W        W29527  15.725  34.430   4.733
68074W        W29528  24.032  37.882  10.550
68075W        W29529  40.797  38.324  10.593
68076W        W29530  17.609   5.214   2.733
68077W        W29531  40.828  27.451   3.707
68078W        W29532  29.500   1.428   4.652
68079W        W29533  15.144  35.581   3.311
68080W        W29534  27.542  25.125  10.423
68081W        W29535   7.354  19.539  10.888
68082W        W29536  36.065  12.192   4.695
68083W        W29537  22.016  20.074  12.945
68084W        W29538  27.487  19.059  10.944
68085W        W29539   9.276  18.634  12.437
68086W        W29540  44.490  11.725   1.858
68087W        W29541  34.068   6.832   0.370
68088W        W29542  20.157  11.724  12.433
68089W        W29543   0.284  43.781   2.761
68090W        W29544  14.736  33.023   3.203
68091W        W29545   7.698  10.192  13.822
68092W        W29546  33.953  31.560   0.418
68093W        W29547  11.806   3.299   0.455
68094W        W29548  14.695  13.785  14.974
68095W        W29549  10.668  12.756  11.880
68096W        W29550  18.193  11.698   1.262
68097W        W29551  32.896  21.060   3.707
68098W        W29552  16.233  38.342   1.310
68099W        W29553   5.774  29.924  11.102
68100W        W29554   9.662  14.224  11.465
68101W        W29555   2.359   2.755   3.643
68102W        W29556  37.033   8.274   4.707
68103W        W29557  13.331  21.175   4.659
68104W        W29558  31.504  30.631  11.074
68105W        W29559  36.050  40.320   0.733
68106W        W29560  37.528  24.136   2.803
68107W        W29561  41.440  19.688  14.283
68108W        W29562  36.081  18.246   0.252
68109W        W29563  14.623  30.509  12.541
68110W        W29564  31.105  36.514   0.879
68111W        W29565  27.611  26.487  11.931
68112W        W29566  21.087   6.737  11.937
68113W        W29567  16.611   2.925   0.941
68114W        W29568   8.746  25.668  14.456
68115W        W29569  15.628   4.780  11.418
68116W        W29570  29.039  35.415  13.916
68117W        W29571  10.277   5.232  13.004
68118W        W29572  41.869  32.078   5.127
68119W        W29573   9.394   3.772  14.399
68120W        W29574  31.595  41.433   3.739
68121W        W29575  19.641  44.965   0.743
68122W        W29576  27.052  27.147  11.093
68123W        W29577   2.335  40.390  12.850
68124W        W29578  12.739  16.241  11.902
68125W        W29579  18.131  17.722  14.000
68126W        W29580  18.189  41.444   4.292
68127W        W29581  34.477  38.357  14.351
68128W        W29582  11.777  17.583   3.687
68129W        W29583   0.267  15.197  12.541
68130W        W29584  35.437  40.489   1.397
68131W        W29585  44.430   9.204   0.387
68132W        W29586  11.207  43.357   0.369
68133W        W29587  28.101  30.590  12.871
68134W        W29588   5.800   7.293  13.326
68135W        W29589   3.324  30.613   3.208
68136W        W29590  26.676   6.705  13.886
68137W        W29591   9.265  42.303  14.444
68138W        W29592  19.268  18.566  11.527
68139W        W29593  33.121  24.214  11.566
68140W        W29594   0.271   8.712   2.350
68141W        W29595  31.544  18.271  13.466
68142W        W29596   8.200  22.105  14.429
68143W        W29597  14.718   1.385  12.971
68144W        W29598  14.663  35.881   1.306
68145W        W29599  13.122   2.387   1.833
68146W        W29600  29.444  17.742   1.228
68147W        W29601  14.281   3.224  13.845
68148W        W29602  38.350  33.472  13.458
68149W        W29603  20.637  18.727  11.417
68150W        W29604  32.494  43.515  13.021
68151W        W29605  11.212  42.901  13.988
68152W        W29606  32.413  25.118  13.464
68153W        W29607  12.207   6.713   0.366
68154W        W29608   8.284  27.156   1.336
68155W        W29609  25.020  17.725  14.327
68156W        W29610   1.344  17.191  13.494
68157W        W29611  32.946   5.238  14.813
68158W        W29612   9.184  44.352   2.360
68159W        W29613  30.162  34.372  11.051
68160W        W29614  30.498  16.109   3.733
68161W        W29615  25.561   0.927   0.735
68162W        W29616  18.754  23.546  10.129
68163W        W29617  11.670  10.343   1.378
68164W        W29618   6.218  32.979   5.184
68165W        W29619  19.222  31.000   2.226
68166W        W29620  35.036  25.543   2.862
68167W        W29621  16.133  13.714  12.515
68168W        W29622   7.671  33.531  11.865
68169W        W29623  14.608  15.259   2.728
68170W        W29624  28.497  14.111  12.429
68171W        W29625  25.031  24.564  13.875
68172W        W29626  40.465  11.316   1.742
68173W        W29627  42.823  20.561  11.407
68174W        W29628  38.476  27.634  11.973
68175W        W29629  13.241  13.278   1.886
68176W        W29630  16.754  33.952  12.019
68177W        W29631   4.895  40.906  10.583
68178W        W29632  14.100   9.344  13.840
68179W        W29633  18.572  18.289   5.145
68180W        W29634  17.091  38.059   0.248
68181W        W29635  21.634   7.765   3.237
68182W        W29636  17.558   2.759   0.242
68183W        W29637  34.108  22.205   4.211
68184W        W29638  19.752  32.951  11.407
68185W        W29639  30.611   9.274  10.623
68186W        W29640  18.548   8.224   1.412
68187W        W29641  29.516  41.393  12.916
68188W        W29642  10.208  37.009  10.526
68189W        W29643  14.775  13.207   0.426
68190W        W29644   0.313  38.350   0.803
68191W        W29645  20.236  34.022   4.294
68192W        W29646   8.820  26.033   4.245
68193W        W29647  28.978  34.950   2.342
68194W        W29648  43.509  36.551  11.943
68195W        W29649  18.560   7.772   1.887
68196W        W29650  15.232  34.870   4.161
68197W        W29651   1.295  37.038   2.750
68198W        W29652   3.281   4.427   2.778
68199W        W29653  42.942  44.931  11.607
68200W        W29654  37.537  18.633   5.169
68201W        W29655  16.782  38.016   3.350
68202W        W29656  33.598   8.386   0.764
68203W        W29657  41.306  35.365  14.840
68204W        W29658  18.629  16.247   2.806
68205W        W29659  10.778   4.209  14.000
68206W        W29660   9.237   0.748  12.894
68207W        W29661  32.558  16.702   0.945
68208W        W29662   0.448   4.929  12.937
68209W        W29663   3.803  12.243  14.935
68210W        W29664   6.763  34.967   3.798
68211W        W29665  13.737  29.066  14.962
68212W        W29666  42.437   9.314   2.297
68213W        W29667  24.989  44.316   5.276
68214W        W29668   0.390   9.308  11.860
68215W        W29669   8.808  14.776   4.746
68216W        W29670  11.154  34.902  10.535
68217W        W29671  19.235  11.817  13.503
68218W        W29672  31.508   2.839   3.753
68219W        W29673  39.981  43.784   0.307
68220W        W29674  10.319  17.302  14.851
68221W        W29675   3.420  41.927   1.753
68222W        W29676  20.040  27.468  10.643
68223W        W29677  15.692  21.118  14.759
68224W        W29678  18.728   1.317   1.258
68225W        W29679  14.760  27.452   0.359
68226W        W29680  35.898  42.365  11.413
68227W        W29681  10.316  28.949  10.588
68228W        W29682  44.848  21.593   0.741
68229W        W29683  44.864  39.540  12.463
68230W        W29684  43.843  37.341  12.385
68231W        W29685  29.986  29.009  12.485
68232W        W29686  24.141  19.183  11.566
68233W        W29687  12.139   2.445   0.271
68234W        W29688   3.399   3.438   0.917
68235W        W29689   5.892  23.118   3.156
68236W        W29690  25.645   5.887  11.024
68237W        W29691  15.136  43.881   4.350
68238W        W29692  31.597  27.146  12.341
68239W        W29693  28.665  27.686   0.764
68240W        W29694  14.103  43.476   0.317
68241W        W29695  31.123  31.082   2.359
68242W        W29696  41.449  22.067  13.536
68243W        W29697  21.198  29.135   0.769
68244W        W29698   3.796  29.527  13.548
68245W        W29699  42.917  38.328  13.028
68246W        W29700  30.553  14.822   1.780
68247W        W29701  26.498  17.174  13.419
68248W        W29702  30.475  14.722  11.950
68249W        W29703   9.272   3.221   2.715
68250W        W29704  20.196  27.567  12.094
68251W        W29705   0.932  32.088   2.692
68252W        W29706  28.602  35.373   1.296
68253W        W29707   5.700  19.574   0.330
68254W        W29708  22.590  13.774  12.875
68255W        W29709  20.637  17.648  10.642
68256W        W29710   0.334  33.910  10.571
68257W        W29711  28.005   1.416   0.869
68258W        W29712  19.552  17.645   3.825
68259W        W29713  36.972  42.006  12.565
68260W        W29714  43.893   9.742  11.961
68261W        W29715  30.507  22.504  13.484
68262W        W29716  20.076  28.011   1.930
68263W        W29717  15.586  11.246  10.931
68264W        W29718  16.679   7.231  11.905
68265W        W29719  16.260  42.323   0.315
68266W        W29720  35.529   3.352   3.340
68267W        W29721  21.203  35.939   5.245
68268W        W29722   8.245  39.502   2.673
68269W        W29723  26.654  39.375   0.739
68270W        W29724   3.878  26.641  10.158
68271W        W29725  26.598  19.226   1.399
68272W        W29726   9.668  14.286  12.074
68273W        W29727   5.292  10.223   4.652
68274W        W29728  24.603  12.701  11.110
68275W        W29729  44.266  11.856   4.205
68276W        W29730  32.075   3.272  11.549
68277W        W29731  33.877  41.487   4.673
68278W        W29732  12.234  31.019   9.453
68279W        W29733   1.444   6.407  12.952
68280W        W29734   3.948  14.596   3.285
68281W        W29735  22.080   8.255   2.260
68282W        W29736  15.139  14.795   1.280
68283W        W29737   4.937  13.697   2.698
68284W        W29738   1.925  38.901  14.507
68285W        W29739  39.990  34.454  13.913
68286W        W29740  43.839   1.241  11.452
68287W        W29741  20.767  33.102   1.272
68288W        W29742  10.341  23.238  14.370
68289W        W29743  23.084  31.646  10.640
68290W        W29744  14.223  39.968   3.217
68291W        W29745  17.238  36.974   3.858
68292W        W29746  44.282  36.069   2.391
68293W        W29747  30.583   7.337   1.766
68294W        W29748  27.997   2.420   9.545
68295W        W29749   7.306  38.988  11.047
68296W        W29750  43.793  14.155   0.376
68297W        W29751  11.717  34.005  14.779
68298W        W29752  31.028  24.720  12.936
68299W        W29753   8.682  26.063  11.556
68300W        W29754  25.175  22.597   4.781
68301W        W29755  33.015  17.781   4.761
68302W        W29756   1.813  43.320  14.316
68303W        W29757  29.602  10.167   2.358
68304W        W29758  13.130  37.429   0.938
68305W        W29759  29.456  41.895   1.763
68306W        W29760  44.809  22.659  10.031
68307W        W29761  39.448  38.471   1.876
68308W        W29762   3.288  24.065  11.414
68309W        W29763   0.820  36.054  11.404
68310W        W29764  28.599  38.555  13.996
68311W        W29765  14.291  21.098   1.323
68312W        W29766   5.356  15.617  12.568
68313W        W29767  25.678   9.716   0.348
68314W        W29768  35.433  22.124  12.056
68315W        W29769   9.250  40.972   1.912
68316W        W29770   4.867   1.779   2.709
68317W        W29771   1.801   4.440   3.746
68318W        W29772  36.382  23.176   4.781
68319W        W29773   1.368   3.304  11.943
68320W        W29774  41.819  14.648   4.630
68321W        W29775  39.330  41.805  13.489
68322W        W29776  26.652  22.568  14.442
68323W        W29777  38.935  31.015   3.742
68324W        W29778  19.246   5.260  11.547
68325W        W29779  19.568  21.167   3.234
68326W        W29780  26.680   9.678  12.482
68327W        W29781  20.565   8.310   2.728
68328W        W29782  28.586  36.569   2.326
68329W        W29783  20.612   5.932  12.518
68330W        W29784  27.488  44.302   3.848
68331W        W29785  11.145  16.674   2.408
68332W        W29786  34.475  26.965  14.984
68333W        W29787  36.381   7.802  12.922
68334W        W29788  31.458  25.478  11.125
68335W        W29789  19.777  21.049   1.906
68336W        W29790   0.455  25.039   3.832
68337W        W29791  18.742  37.512  12.383
68338W        W29792  20.159  30.032  11.040
68339W        W29793  13.797  17.573   3.833
68340W        W29794  15.243  16.679   3.708
68341W        W29795  44.480  32.493  11.914
68342W        W29796  40.024   1.272   1.714
68343W        W29797  15.646  18.250   2.256
68344W        W29798  44.265  28.016   5.107
68345W        W29799   0.901  32.902   4.612
68346W        W29800  24.651   3.723  13.891
68347W        W29801  18.220  22.011  14.835
68348W        W29802  37.947  13.193   3.735
68349W        W29803   4.354  38.863  13.358
68350W        W29804  37.356  14.681   4.811
68351W        W29805  22.744  25.144  11.865
68352W        W29806  23.230   8.209  12.474
68353W        W29807   3.731  27.099   4.636
68354W        W29808   2.406  33.491  10.111
68355W        W29809  10.759   7.294   0.243
68356W        W29810   5.930   7.204  13.926
68357W        W29811   6.272  32.910   0.335
68358W        W29812  18.688  38.011   4.820
68359W        W29813   6.761   6.209  11.119
68360W        W29814  42.437  29.925   3.209
68361W        W29815  14.730  13.824  14.370
68362W        W29816  15.602  21.201  13.949
68363W        W29817  21.572  43.929  13.877
68364W        W29818  21.655  35.524   0.794
68365W        W29819   5.378  21.203  13.326
68366W        W29820  28.954  31.616   1.753
68367W        W29821   7.820  19.282  10.970
68368W        W29822   9.845  20.641  14.402
68369W        W29823   5.864   6.299  12.069
68370W        W29824   4.364   8.779  12.918
68371W        W29825  35.007  24.985   2.864
68372W        W29826  33.432   3.290   3.384
68373W        W29827  42.370  34.475   2.232
68374W        W29828  10.340  28.640   2.762
68375W        W29829  20.636   3.238  14.510
68376W        W29830  32.960  19.259  14.496
68377W        W29831  18.233   8.835   3.367
68378W        W29832  43.767  10.689  13.038
68379W        W29833  14.115  25.585  14.350
68380W        W29834  40.488  29.128   0.852
68381W        W29835  38.380  14.759  11.119
68382W        W29836  20.537  38.828   1.398
68383W        W29837  20.260   5.893  12.999
68384W        W29838   4.929  39.426   1.263
68385W        W29839  32.606  43.476   1.827
68386W        W29840   9.845  23.596  12.390
68387W        W29841  25.037  11.756   1.262
68388W        W29842  43.910  23.539   4.786
68389W        W29843  21.091  18.195   1.769
68390W        W29844  39.062  13.677   3.839
68391W        W29845  42.521  38.439   3.729
68392W        W29846  21.202  37.978  12.946
68393W        W29847  37.991  19.592   0.303
68394W        W29848  35.100  20.765   0.378
68395W        W29849  41.936   0.305  10.640
68396W        W29850  33.487  16.593   4.119
68397W        W29851   8.367  17.674  11.893
68398W        W29852  39.422   1.765  14.487
68399W        W29853  31.495  13.612   0.473
68400W        W29854   6.347   4.251   2.847
68401W        W29855  35.378   1.335   0.478
68402W        W29856  28.076  30.521  12.390
68403W        W29857  28.019   5.330   4.277
68404W        W29858  37.859   2.860   2.343
68405W        W29859  18.558  38.049   0.282
68406W        W29860  43.881  15.711   4.787
68407W        W29861   9.812  13.670  11.910
68408W        W29862  10.185  29.584   2.719
68409W        W29863  19.082  14.309   3.800
68410W        W29864  34.436  11.170   0.840
68411W        W29865   6.838  13.844   3.698
68412W        W29866  25.519   5.794   4.258
68413W        W29867  16.230  40.473  12.452
68414W        W29868   6.685  18.611  12.003
68415W        W29869  40.358  23.660  12.077
68416W        W29870   4.412  36.570  12.529
68417W        W29871  28.040  41.844  11.987
68418W        W29872  30.000  14.626  12.951
68419W        W29873  10.261   1.806   2.384
68420W        W29874  38.039  32.548  12.932
68421W        W29875  39.558  25.592   3.385
68422W        W29876  24.644   8.349   5.184
68423W        W29877  42.836  25.078   1.842
68424W        W29878  19.135  22.242   1.860
68425W        W29879   7.256  42.310  11.866
68426W        W29880  39.382  34.938  12.970
68427W        W29881  18.145  15.144   1.828
68428W        W29882  18.290   3.324   3.151
68429W        W29883  27.943   5.389  14.803
68430W        W29884   5.277  36.419   1.249
68431W        W29885  25.976  43.783  12.883
68432W        W29886  38.039   4.293  13.917
68433W        W29887   8.171  39.013   0.375
68434W        W29888  37.368  43.381  14.341
68435W        W29889  19.721  24.222  13.489
68436W        W29890  42.946  17.750  14.888
68437W        W29891   9.173  26.983  11.908
68438W        W29892  14.109  18.764   4.297
68439W        W29893  39.512  39.402  11.374
68440W        W29894  12.721  11.826  12.546
68441W        W29895   1.300  30.964  14.829
68442W        W29896   4.797  17.118   3.241
68443W        W29897   5.789  14.805   2.368
68444W        W29898  17.300  24.976  11.590
68445W        W29899  28.465  29.962  14.014
68446W        W29900  37.369  29.991  14.880
68447W        W29901  21.173  25.637  13.328
68448W        W29902  31.616  20.627  11.604
68449W        W29903  24.978  39.447   1.233
68450W        W29904  23.205  20.083   3.215
68451W        W29905  13.285  13.312  12.440
68452W        W29906  39.865  34.371   3.662
68453W        W29907  30.445   6.318   1.445
68454W        W29908  35.048   0.351   1.913
68455W        W29909  38.857  30.517  10.972
68456W        W29910  17.163  40.020   4.277
68457W        W29911  16.678  26.566   0.416
68458W        W29912  34.378  15.321   3.186
68459W        W29913  31.550  11.642  10.054
68460W        W29914  41.500  38.998  14.887
68461W        W29915   4.300  32.046  12.882
68462W        W29916  38.010  43.812  13.502
68463W        W29917   0.792   1.243  12.967
68464W        W29918  12.721  14.777  11.911
68465W        W29919   5.894  41.383   2.883
68466W        W29920   7.192  37.507   4.172
68467W        W29921   1.458  14.142  13.981
68468W        W29922   1.287  34.082   0.472
68469W        W29923  27.541  29.628   0.301
68470W        W29924  17.777  39.466   2.419
68471W        W29925  16.783  10.309   0.813
68472W        W29926   4.865   1.332  11.111
68473W        W29927   6.826  27.647  12.565
68474W        W29928  34.011   2.363   4.116
68475W        W29929  39.479  13.609   0.442
68476W        W29930  42.929   0.802  11.412
68477W        W29931  21.640  24.230   3.857
68478W        W29932  39.539  10.680   2.774
68479W        W29933   0.950  33.072   4.249
68480W        W29934  17.628  31.624  11.541
68481W        W29935  11.164  34.538  13.847
68482W        W29936  24.600  10.362   4.340
68483W        W29937  30.517  43.286   1.226
68484W        W29938  43.368  15.616  11.884
68485W        W29939  43.993  31.406   0.962
68486W        W29940  29.534  28.149   0.466
68487W        W29941  13.197  31.424   4.247
68488W        W29942  16.305  17.150  13.940
68489W        W29943  35.066  12.747  10.602
68490W        W29944  17.113  29.518   2.812
68491W        W29945  36.568  40.471   5.763
68492W        W29946   9.219  13.127  11.396
68493W        W29947   0.489  30.501   4.834
68494W        W29948  11.362  25.062   2.877
68495W        W29949  11.627  42.800   9.974
68496W        W29950  35.942  16.144  13.053
68497W        W29951   4.764  10.372   1.358
68498W        W29952  32.938  23.043  10.434
68499W        W29953   1.375  26.658  12.035
68500W        W29954  28.595  32.390   0.877
68501W        W29955  38.073   7.806  14.873
68502W        W29956  40.386  31.427   3.702
68503W        W29957  14.833  14.168   3.377
68504W        W29958  39.521  41.997  12.496
68505W        W29959  26.631   0.916  11.907
68506W        W29960   5.783   9.291   0.368
68507W        W29961  37.867  32.521  11.526
68508W        W29962  30.569  25.170   3.858
68509W        W29963  42.016  41.943  14.760
68510W        W29964  17.235   6.886   3.205
68511W        W29965  39.862  27.672   3.692
68512W        W29966   8.314  14.629   4.158
68513W        W29967   8.299  20.682  11.565
68514W        W29968  14.702  13.135   1.294
68515W        W29969   2.450  23.042   1.333
68516W        W29970   4.418  17.685   1.750
68517W        W29971  39.347  31.529  10.437
68518W        W29972  11.825  18.176  14.801
68519W        W29973  22.517  39.844  12.968
68520W        W29974   3.432  39.373   1.807
68521W        W29975  31.991   4.892  11.596
68522W        W29976  41.868  27.636  11.594
68523W        W29977  33.883   1.286  13.904
68524W        W29978  12.242  29.627  14.890
68525W        W29979  34.605  40.467  12.428
68526W        W29980   7.757  12.788  14.506
68527W        W29981   0.970  43.407   3.309
68528W        W29982  10.770  36.942  12.540
68529W        W29983   4.935  12.202  13.020
68530W        W29984  30.099  17.126  12.852
68531W        W29985   6.745  10.172   1.893
68532W        W29986  32.041  11.828   0.383
68533W        W29987   5.375  16.278  11.948
68534W        W29988  40.849  14.211   2.828
68535W        W29989  24.082  20.148   4.713
68536W        W29990  27.578  30.446   2.183
68537W        W29991  12.683  41.386   4.643
68538W        W29992  22.701  20.538   3.151
68539W        W29993  26.630  32.432  10.491
68540W        W29994  29.509  24.131   2.342
68541W        W29995  24.597  32.437   3.745
68542W        W29996  12.784   8.897  11.422
68543W        W29997  34.528  10.698   0.379
68544W        W29998  20.132  38.832   1.767
68545W        W29999  27.571  44.402  12.903
68546W        W30000  16.203  18.287  14.971
68547W        W30001   1.824  36.448   0.363
68548W        W30002  39.892  32.457   3.824
68549W        W30003  15.088  29.123   4.121
68550W        W30004  38.858  15.154   2.408
68551W        W30005   6.222  12.361   4.758
68552W        W30006  19.748  16.762  14.993
68553W        W30007  37.027  29.969   3.864
68554W        W30008  16.247  22.151  14.500
68555W        W30009  42.482  24.083  14.505
68556W        W30010  16.258   0.850  14.497
68557W        W30011   3.450   0.356   0.858
68558W        W30012  10.258  33.882   4.311
68559W        W30013   3.870  30.912   1.892
68560W        W30014  41.815  16.769  14.900
68561W        W30015  36.096   5.396  14.937
68562W        W30016  28.618   6.848   5.690
68563W        W30017  40.382  30.947  14.890
68564W        W30018  44.499  22.687  10.496
68565W        W30019  29.111  22.554   1.821
68566W        W30020  13.607   9.728   0.805
68567W        W30021  31.898  38.410   0.868
68568W        W30022   0.469  36.860   4.813
68569W        W30023   1.400  41.795   1.748
68570W        W30024  22.570  18.099   4.644
68571W        W30025  35.058  26.966  13.936
68572W        W30026  21.263  12.826  13.457
68573W        W30027  31.994  17.116  13.940
68574W        W30028  31.405   1.394   2.239
68575W        W30029  26.189  16.774   0.891
68576W        W30030  25.130  32.978   1.912
68577W        W30031   3.854   3.248   1.899
68578W        W30032  44.418  33.917  14.424
68579W        W30033  32.035  16.581  14.447
68580W        W30034  37.004  37.926  12.523
68581W        W30035  38.455  28.569   2.778
68582W        W30036  30.452  28.496   2.388
68583W        W30037   4.860  34.889  14.833
68584W        W30038   2.354   4.727  12.043
68585W        W30039  28.455   9.704   3.838
68586W        W30040  11.810  13.606  12.502
68587W        W30041   3.363  11.853  10.431
68588W        W30042  12.737  43.501  12.376
68589W        W30043  33.589  12.329   4.654
68590W        W30044  41.400  14.823  10.587
68591W        W30045  25.022  26.198  14.330
68592W        W30046  41.301  16.620   1.751
68593W        W30047   1.906  16.223  12.060
68594W        W30048  24.564  11.633   2.664
68595W        W30049  20.717  27.066  12.969
68596W        W30050  23.041  25.213  10.986
68597W        W30051  44.386  35.946  11.564
68598W        W30052   7.806  15.800  12.945
68599W        W30053  23.221  29.584  10.513
68600W        W30054  33.110  39.840  14.498
68601W        W30055   1.740  42.896  14.931
68602W        W30056  22.144   9.356  10.436
68603W        W30057   5.409  44.902  11.128
68604W        W30058  39.980  27.475  10.608
68605W        W30059   2.316   2.924   0.748
68606W        W30060  16.635  37.083  14.810
68607W        W30061  17.124  12.714  10.424
68608W        W30062  12.274  22.215  11.550
68609W        W30063  16.736  31.452  11.567
68610W        W30064  25.205  31.403  14.516
68611W        W30065  41.862  24.178   0.760
68612W        W30066  41.424  21.018   1.847
68613W        W30067   1.364   1.457   1.267
68614W        W30068  35.014  44.937  12.503
68615W        W30069  42.423  11.131  13.974
68616W        W30070  34.403  29.158   3.817
68617W        W30071  10.644  38.893  12.894
68618W        W30072  16.315   7.330   0.727
68619W        W30073  26.077  23.711   1.918
68620W        W30074  29.544  16.786  11.986
68621W        W30075   3.847   8.333   0.927
68622W        W30076  36.039  22.512  12.409
68623W        W30077   4.940  42.792  12.985
68624W        W30078   2.787   1.880  11.594
68625W        W30079  38.488   1.312  11.126
68626W        W30080  31.591  22.087  11.495
68627W        W30081  19.193  27.042  13.017
68628W        W30082   3.424  19.208   4.297
68629W        W30083  41.993  19.551   1.756
68630W        W30084  33.524   1.304   1.411
68631W        W30085  30.928   5.772  10.519
68632W        W30086  23.623  22.018  12.032
68633W        W30087  41.335  21.045  10.994
68634W        W30088  24.624   8.896   3.163
68635W        W30089  18.729  40.996   3.174
68636W        W30090   8.313  33.974   0.807
68637W        W30091  14.822   3.454   4.699
68638W        W30092  12.612   6.427   1.302
68639W        W30093  42.775  13.152   2.782
68640W        W30094  44.299  15.813   2.308
68641W        W30095  23.190   0.919  14.461
68642W        W30096  43.990   4.289  12.522
68643W        W30097  26.510  30.032   4.307
68644W        W30098  22.616  37.379   0.379
68645W        W30099  43.431  18.253  14.299
68646W        W30100  32.038  44.332  12.427
68647W        W30101  10.834  33.904   2.772
68648W        W30102  25.976  16.613  13.818
68649W        W30103  40.387  32.540   3.215
68650W        W30104  32.430   6.850  14.346
68651W        W30105  32.896  23.686   4.752
68652W        W30106  19.167  13.669  11.395
68653W        W30107   9.838   3.943  14.807
68654W        W30108   8.731  20.689   0.421
68655W        W30109  18.733  42.392  13.933
68656W        W30110  42.780  17.785  10.932
68657W        W30111  19.205  11.213  12.993
68658W        W30112  29.626  44.497  10.891
68659W        W30113  18.775  20.605  12.958
68660W        W30114  34.026  16.641  14.821
68661W        W30115   5.771  42.380   1.931
68662W        W30116   5.867  28.991   0.939
68663W        W30117  39.818  20.151   4.778
68664W        W30118  17.789  41.519   3.695
68665W        W30119  12.827  28.454   2.318
68666W        W30120  32.039  21.666   4.647
68667W        W30121   4.721  15.593   1.748
68668W        W30122  36.460  14.167  10.003
68669W        W30123  31.112  18.295   2.290
68670W        W30124  10.298  13.686  12.860
68671W        W30125   7.853  23.040  14.472
68672W        W30126   6.303  15.238   2.872
68673W        W30127   9.700  27.011  14.435
68674W        W30128  26.686  21.622   1.316
68675W        W30129  20.682  39.870  13.946
68676W        W30130  27.054  34.392   0.415
68677W        W30131  28.037  29.615   2.832
68678W        W30132  39.915  42.304   3.324
68679W        W30133  39.874   9.723   2.330
68680W        W30134  11.812  44.925  12.825
68681W        W30135  21.679   5.934   1.439
68682W        W30136  39.039  29.049   1.312
68683W        W30137  12.727   2.279   1.842
68684W        W30138   7.313  30.135   1.342
68685W        W30139  43.888  34.022  13.831
68686W        W30140  21.570  34.473  12.441
68687W        W30141  42.502  12.320   2.757
68688W        W30142  25.596  19.741  12.865
68689W        W30143   6.412  28.052   2.833
68690W        W30144  20.732  10.777   4.316
68691W        W30145  35.965  16.161   3.707
68692W        W30146  22.730  23.098   2.359
68693W        W30147   7.365  44.761   4.663
68694W        W30148  38.512  20.146  14.439
68695W        W30149   5.303  38.884  11.464
68696W        W30150  28.974  21.736  11.887
68697W        W30151  42.384   1.975   2.815
68698W        W30152  11.762   7.290  13.380
68699W        W30153  30.630  35.070  11.417
68700W        W30154  20.636  37.495  12.465
68701W        W30155  13.137  34.541   0.270
68702W        W30156  14.260   6.811  11.051
68703W        W30157  27.005  23.627  14.866
68704W        W30158  21.711   9.301   2.783
68705W        W30159  42.026  28.167   3.316
68706W        W30160  42.780   8.670   2.746
68707W        W30161  28.517  31.040  10.041
68708W        W30162  43.475  10.171  10.964
68709W        W30163   5.266  38.487  11.407
68710W        W30164  29.040  19.536  14.312
68711W        W30165  29.059  21.202  14.954
68712W        W30166   3.344  15.754  13.416
68713W        W30167  14.796  41.468  12.850
68714W        W30168   8.392  36.036   2.735
68715W        W30169  35.431  11.159   3.706
68716W        W30170  23.240  32.464   4.157
68717W        W30171  28.162   9.869  12.409
68718W        W30172  32.043  38.534   0.362
68719W        W30173  44.327  36.020   0.389
68720W        W30174  42.980   0.948   0.853
68721W        W30175  15.679  34.499  10.558
68722W        W30176  28.119  35.358   1.699
68723W        W30177   7.379  23.071   1.233
68724W        W30178   5.788  36.029   2.696
68725W        W30179  15.784   0.370   1.239
68726W        W30180  25.176  16.257   4.275
68727W        W30181  11.858  44.416  14.813
68728W        W30182  34.464   7.796   3.729
68729W        W30183  29.577  43.485  11.376
68730W        W30184  14.717  15.602   5.298
68731W        W30185  29.590  24.589   0.403
68732W        W30186  22.652  13.768  14.336
68733W        W30187  11.803  36.987  11.481
68734W        W30188   2.913  31.110   0.461
68735W        W30189  36.928  36.950   3.836
68736W        W30190  16.248  10.711   4.257
68737W        W30191  15.817  16.080   0.752
68738W        W30192   9.856  34.507  10.074
68739W        W30193   3.757   7.741   3.718
68740W        W30194  29.167  16.229   3.777
68741W        W30195  23.230  28.599   4.188
68742W        W30196  21.615   4.428   2.857
68743W        W30197  17.140  26.206  10.987
68744W        W30198  22.071  35.044   3.331
68745W        W30199   9.869  29.091   0.297
68746W        W30200  42.019  34.594  11.914
68747W        W30201  23.634  42.928   0.315
68748W        W30202  18.553  22.622  11.459
68749W        W30203  40.960   1.341  10.444
68750W        W30204  14.227  15.239  13.488
68751W        W30205  28.005  34.426   2.203
68752W        W30206  29.433  44.499   2.297
68753W        W30207   3.399  26.996  13.859
68754W        W30208  17.661  38.454  11.100
68755W        W30209   5.809  14.186   2.342
68756W        W30210  40.962  41.491   1.329
68757W        W30211  15.773  16.578  14.812
68758W        W30212  19.134   1.408   4.784
68759W        W30213  15.102   7.908   3.340
68760W        W30214   1.762  41.431  10.606
68761W        W30215  38.364  34.400  12.444
68762W        W30216  14.613  20.640   4.269
68763W        W30217  39.954  12.673   2.235
68764W        W30218   2.823  32.554   3.717
68765W        W30219  30.034   9.374  14.812
68766W        W30220  18.257  41.497  10.635
68767W        W30221  41.912  11.815   1.909
68768W        W30222   8.262  24.019  13.444
68769W        W30223  25.985  30.087   1.768
68770W        W30224  17.786  27.128   0.766
68771W        W30225  18.086  30.151  10.597
68772W        W30226  31.103  32.098   9.621
68773W        W30227  14.160  13.159   2.281
68774W        W30228  29.932   7.304   3.157
68775W        W30229  30.609  35.525  11.552
68776W        W30230  40.325   0.373   3.233
68777W        W30231  20.712  19.666   1.723
68778W        W30232  33.545   9.708  13.330
68779W        W30233   1.897  35.016   0.475
68780W        W30234  30.585   2.264   0.756
68781W        W30235  17.229  38.007   3.784
68782W        W30236  22.580   0.969  11.018
68783W        W30237  33.430  22.541   1.931
68784W        W30238  28.647  43.377   2.666
68785W        W30239  13.156   7.704   4.326
68786W        W30240  41.989   0.371  11.489
68787W        W30241  37.080  27.603  11.544
68788W        W30242  33.961   0.315   0.359
68789W        W30243  17.724  39.886   1.389
68790W        W30244  41.024  44.441   4.607
68791W        W30245  31.460  17.149   4.125
68792W        W30246  33.515  44.418  11.860
68793W        W30247   0.850   8.885   4.211
68794W        W30248  27.121  44.804   2.240
68795W        W30249   7.756  39.941   0.796
68796W        W30250   0.878  37.985   0.875
68797W        W30251   5.744   9.350   2.276
68798W        W30252   5.880   0.891  14.857
68799W        W30253  12.829  18.254   3.237
68800W        W30254  41.321  29.549   0.878
68801W        W30255  30.984   8.321   1.373
68802W        W30256  10.758   4.352  12.921
68803W        W30257  11.789  37.368  12.409
68804W        W30258  33.002  11.256  13.987
68805W        W30259  30.101  17.562   1.731
68806W        W30260   4.920  24.570   3.287
68807W        W30261  21.214  14.743   2.200
68808W        W30262  21.564  41.446   4.631
68809W        W30263  17.610  11.201  13.800
68810W        W30264  21.226   6.241  10.900
68811W        W30265  43.852  36.096  12.934
68812W        W30266  19.690  31.475   0.405
68813W        W30267  44.376  11.672  10.586
68814W        W30268  24.204  28.956  11.371
68815W        W30269  34.500  21.187   2.198
68816W        W30270  10.305  43.394  10.920
68817W        W30271   0.424   6.237   3.198
68818W        W30272   2.361  28.558  14.281
68819W        W30273   6.870  28.523   2.414
68820W        W30274  14.719   7.366  10.641
68821W        W30275   3.445   3.260   1.223
68822W        W30276  12.130  36.549  14.505
68823W        W30277  16.787  24.525   3.782
68824W        W30278  21.683  25.034   1.765
68825W        W30279  30.609  39.388  10.935
68826W        W30280  13.684  27.465   0.405
68827W        W30281  38.327  23.217   2.803
68828W        W30282  26.024  34.377   0.903
68829W        W30283  39.326  38.848   4.123
68830W        W30284  19.241  31.145  10.899
68831W        W30285   8.849  26.097  14.020
68832W        W30286  18.221  36.887   0.295
68833W        W30287  36.389  30.621   2.729
68834W        W30288  21.026  38.899   2.369
68835W        W30289  37.374  31.551   1.864
68836W        W30290  19.146   5.762  14.298
68837W        W30291  31.618  19.779  13.860
68838W        W30292  24.008  26.149   0.944
68839W        W30293   7.325  35.997   1.278
68840W        W30294   7.318  20.738  13.372
68841W        W30295  34.490   0.463  11.122
68842W        W30296  22.685  11.330   2.792
68843W        W30297  29.932  33.070   3.832
68844W        W30298  40.959  31.081  14.407
68845W        W30299  34.573  33.934  11.970
68846W        W30300  38.449  28.492   4.158
68847W        W30301   9.664  35.426  10.933
68848W        W30302  20.094   1.244   2.800
68849W        W30303  40.533   9.684  11.990
68850W        W30304  11.732  21.575  12.580
68851W        W30305  41.523  11.798   0.901
68852W        W30306  31.122  43.329   2.197
68853W        W30307  18.551  38.533  13.338
68854W        W30308  36.098  30.599  10.533
68855W        W30309   3.801  18.278   4.712
68856W        W30310   8.782   9.656  13.926
68857W        W30311  20.551  30.515  11.460
68858W        W30312   3.883  16.165   3.704
68859W        W30313   2.779   7.252  10.956
68860W        W30314  22.642  40.425   4.181
68861W        W30315   6.241  30.499  12.949
68862W        W30316  29.593  22.091   1.441
68863W        W30317  18.145  19.046   2.798
68864W        W30318  26.659  37.389  11.872
68865W        W30319  17.719  27.070  13.440
68866W        W30320  36.452   7.877   0.852
68867W        W30321  15.718  38.511  12.514
68868W        W30322  24.724  16.106   3.737
68869W        W30323  16.117  39.491   0.754
68870W        W30324  24.064  43.829  11.113
68871W        W30325  12.307  40.549  12.901
68872W        W30326  15.244  37.370  12.903
68873W        W30327  39.905  19.285  10.583
68874W        W30328  35.405  22.185   2.707
68875W        W30329   5.746  37.978   3.688
68876W        W30330  12.769  44.282  12.090
68877W        W30331  14.811   5.294   2.353
68878W        W30332  18.701  30.149  15.000
68879W        W30333  11.211   1.827   0.342
68880W        W30334  13.794  10.368   4.787
68881W        W30335  34.023  38.061  11.482
68882W        W30336  19.278  30.559  12.824
68883W        W30337  30.559  13.769   4.743
68884W        W30338  12.333  27.978  14.289
68885W        W30339   8.354  10.876   1.845
68886W        W30340  31.059  22.073  14.923
68887W        W30341  18.607  31.446   3.678
68888W        W30342  36.445   0.787   3.261
68889W        W30343  16.668  39.822  14.763
68890W        W30344  36.426  29.018  12.033
68891W        W30345  14.675  21.213   3.199
68892W        W30346  17.133  35.087  13.309
68893W        W30347  18.694   9.799  12.962
68894W        W30348  28.668  13.718  12.390
68895W        W30349  23.126  12.291  13.547
68896W        W30350   7.668  24.569   1.410
68897W        W30351  23.035   8.238  13.876
68898W        W30352  33.903  34.459   0.284
68899W        W30353  20.561   6.908   3.366
68900W        W30354  23.568   8.397  12.097
68901W        W30355  12.727  10.365  12.452
68902W        W30356  12.632  36.590  11.004
68903W        W30357  17.109  21.049  14.314
68904W        W30358  24.569  34.024  12.883
68905W        W30359  13.109  31.466  13.453
68906W        W30360   0.813  22.694   4.764
68907W        W30361   3.733  21.512  12.346
68908W        W30362  40.968  22.520  12.950
68909W        W30363  23.990  18.611  12.016
68910W        W30364  35.041  39.500  12.542
68911W        W30365  28.183   1.404  14.951
68912W        W30366  27.995  36.032   1.919
68913W        W30367  30.424   3.832   0.815
68914W        W30368  17.677  17.156   0.868
68915W        W30369  25.623  22.746   3.222
68916W        W30370   5.373  26.681   4.121
68917W        W30371  21.742  42.414  11.860
68918W        W30372  26.952   1.344  14.936
68919W        W30373  41.342  29.460  11.407
68920W        W30374  39.017  23.722   0.858
68921W        W30375  33.469  15.782   5.274
68922W        W30376  11.730  13.212  12.954
68923W        W30377  26.498  44.890   4.713
68924W        W30378  17.662  37.539  11.433
68925W        W30379  18.575   6.427  14.503
68926W        W30380  28.596  39.970   3.220
68927W        W30381  12.147  44.782   4.281
68928W        W30382   4.808  44.919  10.623
68929W        W30383  29.918   5.260   4.219
68930W        W30384  32.443   3.732   3.778
68931W        W30385  22.120  24.626  14.370
68932W        W30386  36.848   8.351   4.225
68933W        W30387  33.071  19.266   3.355
68934W        W30388  40.442   6.771   2.333
68935W        W30389  43.458  37.084   0.272
68936W        W30390  12.143  40.824  13.413
68937W        W30391  10.713  21.230   0.352
68938W        W30392  38.346  43.958  12.476
68939W        W30393  43.826   4.711   3.750
68940W        W30394   1.454   8.256   0.392
68941W        W30395  39.394  11.665   0.285
68942W        W30396   9.303  10.673   0.779
68943W        W30397   9.336  42.973  11.481
68944W        W30398  16.266  40.537   3.267
68945W        W30399  34.594  37.928   1.722
68946W        W30400  30.097  38.552  12.936
68947W        W30401  38.556  40.422  10.990
68948W        W30402  32.899  27.546  11.865
68949W        W30403  34.869  30.996  12.554
68950W        W30404  16.288  33.039  10.968
68951W        W30405  24.084  17.108   2.845
68952W        W30406  23.700  36.842  14.504
68953W        W30407  21.635  24.686   1.272
68954W        W30408   7.323  30.651  11.065
68955W        W30409  29.584  39.998   2.398
68956W        W30410  32.973  31.531   3.180
68957W        W30411   4.875  10.176   9.939
68958W        W30412  36.908  28.659  14.314
68959W        W30413  17.067  12.279   4.124
68960W        W30414  42.867  38.491  13.430
68961W        W30415  10.310  22.110  13.915
68962W        W30416   3.765   4.765   2.410
68963W        W30417  28.526  34.614   3.828
68964W        W30418  16.115   6.423  11.008
68965W        W30419  36.078   5.244  11.069
68966W        W30420  27.622  16.668  10.631
68967W        W30421  36.394  18.058  10.066
68968W        W30422   1.927  39.474  10.446
68969W        W30423  40.021  13.828  11.506
68970W        W30424  16.675  42.891   4.283
68971W        W30425  21.579  23.544   3.680
68972W        W30426  11.675  10.333  10.069
68973W        W30427  20.576  44.754  10.536
68974W        W30428   5.293   5.312  13.397
68975W        W30429  23.677   4.272   2.191
68976W        W30430  12.298  34.447   2.307
68977W        W30431  29.104  42.924  13.366
68978W        W30432  39.451   2.850  14.022
68979W        W30433  27.665  12.649  14.952
68980W        W30434  12.275  17.246   4.693
68981W        W30435  14.691   0.392  12.402
68982W        W30436  39.942  10.211  10.937
68983W        W30437  41.405   1.411   0.772
68984W        W30438  14.162  43.280  13.014
68985W        W30439  12.175  30.448   2.805
68986W        W30440  10.297  13.320   1.236
68987W        W30441  11.766  43.512   1.255
68988W        W30442  23.500  41.456   3.171
68989W        W30443  18.283   3.331   3.845
68990W        W30444  42.923  29.965   4.256
68991W        W30445   2.819  31.597  12.963
68992W        W30446   4.830  29.551   0.935
68993W        W30447  30.080  25.656  12.387
68994W        W30448   0.781   4.902  13.473
68995W        W30449  21.155   1.937  14.514
68996W        W30450  19.537  36.563  13.464
68997W        W30451   5.379   5.397  13.899
68998W        W30452  32.539  18.759   3.325
68999W        W30453  26.200  31.490  14.516
69000W        W30454  21.567  32.419  13.416
69001W        W30455  34.066  27.024   4.200
69002W        W30456  43.395  40.923   2.276
69003W        W30457   6.832  10.698  13.056
69004W        W30458  11.737   1.957  10.926
69005W        W30459  16.592   5.922   1.244
69006W        W30460  36.961  22.223  10.512
69007W        W30461  37.028   3.279  11.394
69008W        W30462  26.164  31.442   4.128
69009W        W30463  20.230  11.795  14.878
69010W        W30464  41.495  10.713  11.392
69011W        W30465  14.231  38.342   1.316
69012W        W30466  44.391  22.675   2.717
69013W        W30467   4.242  18.231  12.548
69014W        W30468  15.091  39.861   3.693
69015W        W30469  12.260  21.664  13.955
69016W        W30470   4.378  14.648   2.275
69017W        W30471  15.747  28.568  13.798
69018W        W30472  15.733  13.176   1.280
69019W        W30473  18.284  12.660  13.946
69020W        W30474  19.130  33.035   1.420
69021W        W30475  40.382  18.135  10.430
69022W        W30476  18.664  15.227   3.331
69023W        W30477  44.383  41.865  11.101
69024W        W30478   1.791   8.318  11.092
69025W        W30479   9.843  33.468   5.292
69026W        W30480  36.913  43.978  14.377
69027W        W30481   3.842  15.728  12.829
69028W        W30482   4.915  31.619   3.232
69029W        W30483   3.786  40.475  13.310
69030W        W30484   5.692  34.042  13.800
69031W        W30485  38.054   4.817  14.875
69032W        W30486  40.844  43.837  12.996
69033W        W30487  24.143  14.262  14.881
69034W        W30488  16.673  31.062  13.360
69035W        W30489  10.674  28.611  11.910
69036W        W30490  33.456   4.403   3.264
69037W        W30491  14.804   1.357  12.375
69038W        W30492  15.643   5.326   1.826
69039W        W30493  25.194   1.399   0.330
69040W        W30494  37.411  31.934   4.249
69041W        W30495  11.739   0.907   2.743
69042W        W30496  10.179  22.638   2.790
69043W        W30497  14.681  37.055   4.696
69044W        W30498   8.349  44.324  11.890
69045W        W30499  28.474  21.552   1.240
69046W        W30500   8.244  14.314   3.870
69047W        W30501   2.376  42.878   0.333
69048W        W30502  28.616  44.866  12.987
69049W        W30503  30.110  22.179  12.961
69050W        W30504   0.471  27.108   2.279
69051W        W30505  39.359  23.129  11.469
69052W        W30506  32.494  21.022  14.993
69053W        W30507  19.632   0.766  11.511
69054W        W30508   6.709   6.867  10.961
69055W        W30509  11.183   7.249   2.268
69056W        W30510  19.087  22.196  11.572
69057W        W30511  40.031  23.061  12.507
69058W        W30512  24.054   7.793   0.349
69059W        W30513   7.840  33.571   3.169
69060W        W30514  28.549  19.578   3.787
69061W        W30515  23.176   5.877   3.248
69062W        W30516  16.160  43.883   1.368
69063W        W30517  34.511  15.655   3.149
69064W        W30518   1.869   9.159   3.629
69065W        W30519  11.629  13.840  13.885
69066W        W30520  31.101  42.297   2.839
69067W        W30521   1.786  44.288   1.223
69068W        W30522  35.854  22.546   3.147
69069W        W30523  39.981  22.204   2.207
69070W        W30524  25.658  31.489  11.491
69071W        W30525  13.681  33.413  14.987
69072W        W30526  27.022  39.868  11.374
69073W        W30527  27.484  16.238   3.259
69074W        W30528   6.256   8.754  13.054
69075W        W30529  31.910  35.077  12.506
69076W        W30530  16.072  26.028  13.481
69077W        W30531  11.240  33.018  13.043
69078W        W30532  37.017  35.458   2.707
69079W        W30533  36.428   6.684  12.035
69080W        W30534  30.450  24.713  10.591
69081W        W30535  16.776  37.411   5.144
69082W        W30536  25.089  37.480   0.833
69083W        W30537  15.233   4.706   4.713
69084W        W30538  24.118  25.624  11.870
69085W        W30539  40.389   4.374   4.320
69086W        W30540  23.586   0.916   3.379
69087W        W30541  44.352  32.634   2.263
69088W        W30542  36.492  20.530  12.967
69089W        W30543  31.474  32.906  14.767
69090W        W30544  34.536  23.188  11.127
69091W        W30545  40.403  12.623   9.927
69092W        W30546  24.100  15.204   4.168
69093W        W30547  14.277  37.911   2.845
69094W        W30548  41.535   2.822   0.397
69095W        W30549  37.848  28.601   1.334
69096W        W30550   3.937   0.943  11.540
69097W        W30551   5.207   3.318  11.518
69098W        W30552  25.581   5.241   4.726
69099W        W30553   7.407   8.259   4.316
69100W        W30554  18.124  37.997   3.865
69101W        W30555  16.252   1.359  14.931
69102W        W30556  10.726  12.126   3.644
69103W        W30557  16.191  37.525   1.446
69104W        W30558   3.238   0.383   4.115
69105W        W30559  11.738  17.722  13.429
69106W        W30560  24.568  12.807  14.827
69107W        W30561  27.155  28.476  14.767
69108W        W30562   8.257  24.537   1.293
69109W        W30563  39.990  33.571   2.693
69110W        W30564  41.838  11.345   1.407
69111W        W30565  17.172   0.742  14.815
69112W        W30566  18.057  30.535  14.801
69113W        W30567  37.056   7.223   1.356
69114W        W30568  26.509  30.953   3.217
69115W        W30569  24.575   7.710   2.391
69116W        W30570  10.318   6.761  11.921
69117W        W30571  39.879  21.098  14.476
69118W        W30572   5.262  26.032  13.309
69119W        W30573   0.749  14.237  13.951
69120W        W30574  44.342  12.262  12.347
69121W        W30575  36.849  34.425   1.243
69122W        W30576  10.196  25.107   3.739
69123W        W30577  29.465  38.890  12.038
69124W        W30578  31.094  44.961   1.216
69125W        W30579  18.630  18.667   0.941
69126W        W30580  39.974  16.303   1.894
69127W        W30581  18.684  38.362  13.792
69128W        W30582  32.054  25.049   2.866
69129W        W30583  39.364  36.545  14.022
69130W        W30584  31.516  23.714   2.794
69131W        W30585  43.796  33.949   4.819
69132W        W30586  27.627  36.919  14.031
69133W        W30587   9.346   9.257  12.445
69134W        W30588  41.400   7.812   1.713
69135W        W30589   3.716  33.619  10.005
69136W        W30590  36.969  34.380   2.321
69137W        W30591  35.401   4.324  11.857
69138W        W30592  18.564  28.941   0.751
69139W        W30593  33.929   9.731   9.968
69140W        W30594  23.587  17.568   4.265
69141W        W30595  36.481  23.192   2.416
69142W        W30596  30.638   5.401   0.921
69143W        W30597  44.327  37.365  11.072
69144W        W30598   9.289  23.624   2.245
69145W        W30599  27.542  34.462  11.505
69146W        W30600  11.330   8.674   4.334
69147W        W30601  25.584   9.689   2.208
69148W        W30602  27.664  13.206  14.782
69149W        W30603  38.524   9.832   3.765
69150W        W30604  14.128  19.184  11.900
69151W        W30605  25.164  19.628  11.086
69152W        W30606  25.181  43.850  14.883
69153W        W30607  22.747  33.624  10.986
69154W        W30608  32.889   3.347  11.467
69155W        W30609  32.900  31.959  13.354
69156W        W30610   8.288  40.982  11.983
69157W        W30611  41.486   8.184  13.896
69158W        W30612  39.357  19.571  12.844
69159W        W30613  34.867  23.672  14.379
69160W        W30614  33.576   6.222  11.923
69161W        W30615  15.317  29.006  14.484
69162W        W30616  39.969  24.556  13.881
69163W        W30617  39.530  32.032  10.439
69164W        W30618   9.246  29.929   0.809
69165W        W30619  11.762  21.144   4.139
69166W        W30620   7.378  39.891   1.762
69167W        W30621  27.090  26.987   0.967
69168W        W30622  18.609   8.290   2.704
69169W        W30623  15.242   7.803  12.430
69170W        W30624  20.121  21.147  10.145
69171W        W30625  20.103  17.764   3.697
69172W        W30626   4.355  36.495  14.400
69173W        W30627  10.371   7.266   9.920
69174W        W30628   9.696   8.707  10.536
69175W        W30629  16.741   1.815  12.005
69176W        W30630  21.533  16.777  14.947
69177W        W30631  17.226  11.849  12.349
69178W        W30632  15.237  29.616   3.333
69179W        W30633  43.443   9.852  13.390
69180W        W30634  10.755  32.062  12.986
69181W        W30635   0.401  29.609   4.322
69182W        W30636  44.994  14.188   1.396
69183W        W30637  27.663  42.506   2.401
69184W        W30638  17.666   4.393  12.479
69185W        W30639  12.335  23.732  11.129
69186W        W30640  44.349  10.325   2.182
69187W        W30641   7.675   5.200   4.734
69188W        W30642  13.654  44.780  13.913
69189W        W30643  22.155  20.108   1.231
69190W        W30644   7.293   9.765  13.912
69191W        W30645  31.139  29.154  14.375
69192W        W30646  33.624  12.613   1.316
69193W        W30647   7.692  13.811   0.754
69194W        W30648  16.572  33.564   3.671
69195W        W30649  18.196   9.751  14.973
69196W        W30650  29.075  35.080   3.852
69197W        W30651  39.063  14.193   2.764
69198W        W30652  40.837  19.694   0.264
69199W        W30653  44.442  13.169  12.083
69200W        W30654   5.276  31.129  14.411
69201W        W30655   1.395  29.436  14.362
69202W        W30656   9.718  19.555  10.566
69203W        W30657  30.142   6.789  12.544
69204W        W30658  38.451   5.261   0.950
69205W        W30659  31.986   9.745  12.906
69206W        W30660  21.531  22.201  10.521
69207W        W30661   7.359   0.287  13.015
69208W        W30662   0.305  28.559  10.483
69209W        W30663  23.145  13.250   0.810
69210W        W30664  44.006  40.450  14.288
69211W        W30665  33.014   0.409   0.423
69212W        W30666  13.112  35.471   1.798
69213W        W30667   3.370   1.452  13.427
69214W        W30668  16.631  33.550  10.477
69215W        W30669  27.173  18.271  14.496
69216W        W30670   3.819  41.001   1.222
69217W        W30671  24.670  11.801  14.824
69218W        W30672   7.372   5.870   0.823
69219W        W30673  33.086  12.181  12.076
69220W        W30674  19.655  33.084  13.350
69221W        W30675  18.128  22.041   1.279
69222W        W30676  34.901  23.603  13.942
69223W        W30677  21.724  12.287   3.803
69224W        W30678  36.482  20.214   4.606
69225W        W30679   0.844   5.341  11.940
69226W        W30680  24.013   6.338   0.828
69227W        W30681  39.001  35.071   2.668
69228W        W30682  14.220  24.668  12.540
69229W        W30683  29.430  12.664   5.226
69230W        W30684  26.172  11.196  10.528
69231W        W30685   1.914   8.760  10.542
69232W        W30686  39.961  36.070  12.894
69233W        W30687  29.469  44.858  12.352
69234W        W30688  43.380  31.588  14.901
69235W        W30689  24.068  10.754   0.902
69236W        W30690  19.731   8.772   3.251
69237W        W30691  14.292  25.117  11.403
69238W        W30692  10.236   2.254  14.316
69239W        W30693   0.370  19.764   3.804
69240W        W30694  21.159   4.884   2.271
69241W        W30695  28.611  15.613   4.644
69242W        W30696  33.492   0.467   1.926
69243W        W30697  14.209  40.981   2.186
69244W        W30698  42.815  20.534   3.846
69245W        W30699  10.666  33.443   2.813
69246W        W30700   6.804  40.954  11.438
69247W        W30701  26.986  39.001  13.043
69248W        W30702  19.541  37.836   4.699
69249W        W30703  44.265  36.407   4.742
69250W        W30704  22.198  16.613   2.814
69251W        W30705  13.351   1.857  10.045
69252W        W30706  11.767  24.625   0.825
69253W        W30707  35.567  24.566  11.504
69254W        W30708   8.872  15.117   0.784
69255W        W30709  34.426  39.401   2.865
69256W        W30710  20.248  42.494  11.017
69257W        W30711  34.466  25.628  11.877
69258W        W30712  10.781  19.133   0.795
69259W        W30713  26.988   7.744   2.328
69260W        W30714  21.613  15.221  14.906
69261W        W30715   0.470  24.988   2.756
69262W        W30716   3.932  44.932  13.820
69263W        W30717  29.095  16.128   4.348
69264W        W30718  16.246  32.082   0.886
69265W        W30719  42.286  28.653  11.522
69266W        W30720  12.297  12.615  11.530
69267W        W30721  16.090   4.764   3.766
69268W        W30722   8.664  26.158   2.818
69269W        W30723  27.135  39.054   1.432
69270W        W30724  29.621  39.532  12.570
69271W        W30725  11.639  25.981  10.624
69272W        W30726  26.003   8.822   1.789
69273W        W30727  12.193  23.680   2.263
69274W        W30728  33.517  20.141  12.493
69275W        W30729  10.291  10.151   2.843
69276W        W30730  41.932  26.481  14.799
69277W        W30731  42.797  17.143   3.680
69278W        W30732  37.504  31.067  14.342
69279W        W30733  41.821  14.118   3.794
69280W        W30734   3.863  41.534   0.934
69281W        W30735   2.820   7.694  11.061
69282W        W30736  43.407  37.554   3.229
69283W        W30737  10.864  12.747   4.222
69284W        W30738  10.835   5.712   2.781
69285W        W30739   1.973  15.645   1.211
69286W        W30740  29.437  29.989   0.310
69287W        W30741  22.059  23.016  10.512
69288W        W30742   3.851  17.721  10.643
69289W        W30743  18.767  39.896  10.027
69290W        W30744  44.495  24.120  13.826
69291W        W30745   8.842  27.066  14.438
69292W        W30746  25.597   7.768  14.954
69293W        W30747  36.426  35.363  12.878
69294W        W30748   0.909  23.492  10.484
69295W        W30749  34.535   3.894  14.893
69296W        W30750  36.460   4.410  10.944
69297W        W30751   1.295  16.728  12.483
69298W        W30752  34.435   4.844  11.487
69299W        W30753  23.026  37.854  12.863
69300W        W30754  31.937  30.489   2.214
69301W        W30755  20.705   9.282   3.744
69302W        W30756  36.589  16.773   0.431
69303W        W30757   2.278   1.903  12.525
69304W        W30758  44.315   1.770  14.326
69305W        W30759  32.935  23.650  11.085
69306W        W30760  30.058  26.077  10.997
69307W        W30761  31.138  22.502   2.274
69308W        W30762  10.263  32.596  14.764
69309W        W30763  39.429   0.369  14.395
69310W        W30764  23.082   6.821   3.754
69311W        W30765  23.241  12.703  10.961
69312W        W30766  20.565   1.878   1.713
69313W        W30767  12.811  26.523  11.591
69314W        W30768  33.436  19.643  10.048
69315W        W30769  13.638  33.462  12.438
69316W        W30770  27.186  11.712  13.373
69317W        W30771   8.789  17.303   5.114
69318W        W30772   6.737  35.043  13.450
69319W        W30773  18.602  16.602   3.651
69320W        W30774  44.296  20.065   4.222
69321W        W30775  30.066  21.027   4.215
69322W        W30776  17.272  13.743   2.204
69323W        W30777  36.473  22.154  12.422
69324W        W30778   0.743  43.816  11.570
69325W        W30779   0.329  44.992  14.853
69326W        W30780  14.268   2.370  12.997
69327W        W30781  23.627  40.430   1.790
69328W        W30782  10.634  18.641  12.046
69329W        W30783  37.087  38.536   4.731
69330W        W30784  36.493  40.994   1.449
69331W        W30785  35.473   7.862   3.700
69332W        W30786   0.299  24.618  10.497
69333W        W30787  19.550   7.768   2.763
69334W        W30788  16.800  30.142   1.852
69335W        W30789  37.952  20.665   1.801
69336W        W30790  19.143   8.818   4.202
69337W        W30791  11.297  30.433  12.412
69338W        W30792  20.670  23.099   0.752
69339W        W30793  41.384  37.502   1.349
69340W        W30794  16.765  39.028   3.216
69341W        W30795  16.579  12.792   2.858
69342W        W30796   6.914   5.799   0.903
69343W        W30797  12.797  22.500   4.634
69344W        W30798  22.178   4.205  13.515
69345W        W30799  35.886  28.452  10.514
69346W        W30800  23.151  31.983  13.875
69347W        W30801   7.818  42.347   0.357
69348W        W30802  16.678  30.415  14.972
69349W        W30803  34.880  25.613   4.348
69350W        W30804  34.580  27.660   3.180
69351W        W30805  25.567  43.456  12.947
69352W        W30806   7.364   2.306  10.543
69353W        W30807  44.339  22.589   2.361
69354W        W30808  23.568  44.412   1.828
69355W        W30809  39.905  15.286   1.213
69356W        W30810   3.332  25.487   4.677
69357W        W30811   1.780   4.716   3.745
69358W        W30812  27.023  40.809  12.942
69359W        W30813  34.438  43.427   0.345
69360W        W30814  20.527   1.842  13.433
69361W        W30815  31.424  39.818   0.279
69362W        W30816  31.984  16.252   3.208
69363W        W30817  24.541  12.297   4.148
69364W        W30818  29.103  20.170   1.729
69365W        W30819  12.144  19.158  12.891
69366W        W30820  24.977  42.487  10.972
69367W        W30821  39.008  30.086   2.684
69368W        W30822  11.146  12.628   4.723
69369W        W30823  40.520  20.205  10.514
69370W        W30824  42.017  37.518   5.286
69371W        W30825  33.431  24.037  12.033
69372W        W30826  13.105  11.142  13.023
69373W        W30827  13.793  15.607  11.433
69374W        W30828  11.338  11.244   1.323
69375W        W30829   7.373   3.390  14.473
69376W        W30830  21.224  26.049  12.388
69377W        W30831  26.952  24.089   2.276
69378W        W30832  15.659  28.996  10.150
69379W        W30833  36.911  44.416  10.408
69380W        W30834  21.239  20.240   2.249
69381W        W30835  22.183  32.942  14.502
69382W        W30836  10.142  16.739  10.098
69383W        W30837  30.561   7.848  14.760
69384W        W30838  44.344  42.291   0.299
69385W        W30839  32.631  33.071   3.311
69386W        W30840  22.059  19.612   1.922
69387W        W30841   7.364  41.426  10.968
69388W        W30842  22.700   4.216  12.095
69389W        W30843  33.397  34.535  13.877
69390W        W30844  28.110  27.971  13.803
69391W        W30845  29.060  13.799   5.232
69392W        W30846  37.908  37.070   2.240
69393W        W30847   6.392  22.126  14.021
69394W        W30848  16.286   2.875  11.028
69395W        W30849  37.343  25.965  14.830
69396W        W30850  35.556   4.400  12.435
69397W        W30851  41.013  26.047  11.858
69398W        W30852  40.431  26.954   2.294
69399W        W30853  35.976  15.770  14.983
69400W        W30854   2.414  38.965   9.951
69401W        W30855  38.864  43.999   1.740
69402W        W30856  24.519  34.413  14.940
69403W        W30857  15.730  36.868  12.398
69404W        W30858  22.541  43.406   3.730
69405W        W30859  29.056  22.715  14.434
69406W        W30860  36.034  24.635  12.453
69407W        W30861  40.478  12.772  14.343
69408W        W30862  24.688  16.196  14.332
69409W        W30863  22.250  31.522   1.306
69410W        W30864   7.375   7.695  11.520
69411W        W30865  20.167  11.842   1.312
69412W        W30866  43.864  39.022  13.524
69413W        W30867  16.109  17.107  14.943
69414W        W30868  37.379  10.872  11.957
69415W        W30869   5.339   7.361   2.844
69416W        W30870  17.604  27.473   2.341
69417W        W30871   3.829  32.585  13.972
69418W        W30872  30.086   1.845  12.455
69419W        W30873  16.727  12.306   0.851
69420W        W30874  12.703  39.545  12.047
69421W        W30875  19.252  37.074   0.851
69422W        W30876  28.084  32.540   4.801
69423W        W30877  11.140  28.125  14.848
69424W        W30878  42.411  35.449  12.975
69425W        W30879   3.775  18.134  12.479
69426W        W30880  17.607   6.324  13.373
69427W        W30881  20.195  37.941  11.376
69428W        W30882   5.298   6.255  11.462
69429W        W30883  41.359  26.065  11.920
69430W        W30884  19.277   4.306   0.266
69431W        W30885  40.490  25.167  11.055
69432W        W30886  23.118  22.718  13.948
69433W        W30887  10.697  13.690  14.866
69434W        W30888   5.315  14.753  12.485
69435W        W30889   0.797  36.929   1.740
69436W        W30890  13.311  14.649   3.161
69437W        W30891  32.478  34.587  11.944
69438W        W30892  40.306  26.545   1.696
69439W        W30893   3.856  33.533   4.199
69440W        W30894   7.849  20.088   2.299
69441W        W30895   8.282  13.239  14.416
69442W        W30896  32.122  31.132   4.143
69443W        W30897  24.111  30.646   0.388
69444W        W30898  16.677   6.204   1.292
69445W        W30899  36.458  17.136  11.102
69446W        W30900   6.767  33.004   5.765
69447W        W30901  28.544   9.173   0.481
69448W        W30902  25.964  34.531   1.432
69449W        W30903  17.713  12.630   0.256
69450W        W30904  30.566  27.982  12.574
69451W        W30905   0.384  22.670   2.409
69452W        W30906  28.674  42.821  10.991
69453W        W30907  16.304  26.053   4.683
69454W        W30908  26.971  12.259  14.292
69455W        W30909  30.467   2.386   5.195
69456W        W30910   3.870  16.791  10.578
69457W        W30911  40.971  32.996   4.258
69458W        W30912   5.216  24.684   3.796
69459W        W30913  17.148  43.846   0.742
69460W        W30914   1.467  16.273  13.815
69461W        W30915  37.950  37.935  13.011
69462W        W30916  12.161  40.496  14.496
69463W        W30917   6.733  26.550   1.420
69464W        W30918  22.642  14.702   3.844
69465W        W30919   6.773  44.286   3.319
69466W        W30920  12.317  15.649  14.417
69467W        W30921  38.494  42.308   0.338
69468W        W30922  42.375   2.442  13.357
69469W        W30923   0.749  26.128   0.327
69470W        W30924   7.358  33.015  13.343
69471W        W30925   4.716  35.062   2.212
69472W        W30926  17.151  10.309   0.435
69473W        W30927   8.721   5.310  14.795
69474W        W30928  37.997  40.402  12.382
69475W        W30929  34.043  31.065   0.296
69476W        W30930  10.724  30.418  14.438
69477W        W30931  23.536  36.491   4.827
69478W        W30932  28.952  17.109  10.635
69479W        W30933  12.266   6.364   2.273
69480W        W30934   4.383  19.701  10.934
69481W        W30935   3.246  34.934   5.231
69482W        W30936  42.813   7.404   4.740
69483W        W30937   8.286  37.567  14.432
69484W        W30938   8.785  44.926  12.032
69485W        W30939   6.860   3.778  14.478
69486W        W30940  11.813  39.452  12.479
69487W        W30941  35.564  43.958   3.270
69488W        W30942  15.707  35.914  11.389
69489W        W30943  36.033  14.673   2.839
69490W        W30944  21.702  17.782  11.438
69491W        W30945  17.578  40.421  10.999
69492W        W30946   5.748  40.937   0.914
69493W        W30947   4.299  31.016   3.329
69494W        W30948  15.796   5.749  13.432
69495W        W30949  32.105   0.784   3.235
69496W        W30950  24.673  38.410  11.919
69497W        W30951  35.488   9.154   0.861
69498W        W30952  24.174  38.472   3.826
69499W        W30953  27.143  43.450   1.871
69500W        W30954  39.548   6.714  12.074
69501W        W30955  21.067  14.637   3.284
69502W        W30956   3.748  32.396  12.084
69503W        W30957  22.091   6.717   5.804
69504W        W30958  13.194  20.540   3.846
69505W        W30959  15.098  34.993   1.367
69506W        W30960  35.471  19.564   4.712
69507W        W30961  29.078  40.489   2.703
69508W        W30962  37.560  41.907  10.970
69509W        W30963  37.416  31.018   2.777
69510W        W30964   9.383  37.880   0.900
69511W        W30965  23.220   7.678   0.889
69512W        W30966  44.890   7.672   4.837
69513W        W30967  42.003  13.267  13.444
69514W        W30968  23.200  21.707   0.853
69515W        W30969  16.756  17.220   1.334
69516W        W30970   5.424  13.779   4.754
69517W        W30971  18.673  28.495  11.020
69518W        W30972   6.182   3.345  13.994
69519W        W30973  32.584  25.548   0.392
69520W        W30974   2.432  19.628   5.266
69521W        W30975  12.286   3.428   3.170
69522W        W30976   0.988  30.021   4.165
69523W        W30977  28.012  12.128   2.668
69524W        W30978  21.046  19.765  13.913
69525W        W30979  11.838  27.074   4.242
69526W        W30980  15.799  14.835   3.164
69527W        W30981  14.320  27.138   3.274
69528W        W30982   7.755  37.579  13.502
69529W        W30983   2.950  13.814   3.731
69530W        W30984  43.401  21.675   4.341
69531W        W30985  13.755  24.518  13.417
69532W        W30986   2.800  41.332   1.261
69533W        W30987  43.301  23.629  14.842
69534W        W30988  13.228  17.592  13.820
69535W        W30989  31.066  37.378   2.718
69536W        W30990  15.213  41.401   2.392
69537W        W30991  26.044  35.575   3.369
69538W        W30992   8.392  25.480  11.388
69539W        W30993  42.960  11.666   4.697
69540W        W30994  40.006  34.908  13.317
69541W        W30995  27.028  25.081  13.433
69542W        W30996  12.313  34.407  12.368
69543W        W30997  33.451  12.356  10.511
69544W        W30998  43.825  41.043   2.373
69545W        W30999   8.388  17.636   1.775
69546W        W31000  21.737   0.847   0.748
69547W        W31001   0.320   3.422   1.794
69548W        W31002  19.759   2.468   5.289
69549W        W31003  37.965  19.134  12.472
69550W        W31004  40.047   4.854  13.351
69551W        W31005  19.581  26.164  12.399
69552W        W31006  33.063  24.575   4.732
69553W        W31007  41.897  25.120  11.521
69554W        W31008  20.176  11.163   0.751
69555W        W31009  37.084   3.950   0.282
69556W        W31010  13.189  41.326   2.367
69557W        W31011  26.525  36.847   0.360
69558W        W31012  11.693   9.802   2.400
69559W        W31013  42.386  36.041  12.933
69560W        W31014  40.962  26.108  14.314
69561W        W31015  38.349  28.177   2.229
69562W        W31016  43.824  36.546  12.019
69563W        W31017   3.853  25.036   4.240
69564W        W31018  12.251  35.028   3.349
69565W        W31019  35.500   4.762  14.336
69566W        W31020   3.833  33.500  10.934
69567W        W31021  15.313  25.039   1.841
69568W        W31022   7.209  20.705   0.276
69569W        W31023  10.188  18.262  14.968
69570W        W31024   6.788  41.297  13.058
69571W        W31025  21.253   8.195  11.511
69572W        W31026  43.019   2.956   2.825
69573W        W31027   2.317   3.373   3.756
69574W        W31028  37.938  20.759   4.778
69575W        W31029  24.697  37.562  14.465
69576W        W31030  29.534   1.911   0.786
69577W        W31031  42.944  34.460   2.209
69578W        W31032  14.706  17.794  14.375
69579W        W31033   9.805  15.648   4.629
69580W        W31034  31.118   0.960  13.308
69581W        W31035  13.641   0.822   3.188
69582W        W31036  33.015   9.289   2.724
69583W        W31037   5.424  27.482   0.290
69584W        W31038  44.268   5.335  14.822
69585W        W31039  13.156  23.091  10.077
69586W        W31040  44.358  17.586   0.953
69587W        W31041   4.233  25.025   2.228
69588W        W31042  20.110   4.255   2.679
69589W        W31043  33.952   0.922   0.287
69590W        W31044  41.418   9.818  11.886
69591W        W31045  11.646  36.877   1.842
69592W        W31046  43.895  31.979   5.295
69593W        W31047  13.302  40.920  14.973
69594W        W31048  24.152   9.691  14.879
69595W        W31049  35.409   5.857  12.870
69596W        W31050  34.077  36.067   4.201
69597W        W31051  40.480   0.309   1.721
69598W        W31052   5.336  27.653  12.936
69599W        W31053  10.285  23.572   3.820
69600W        W31054  11.139  36.861  12.829
69601W        W31055  16.581  42.937  10.641
69602W        W31056  33.476  20.681   3.856
69603W        W31057  43.857  40.885  12.870
69604W        W31058  11.333  18.697   1.834
69605W        W31059  41.978  23.582   5.103
69606W        W31060  20.726  26.690   3.221
69607W        W31061  37.085   7.879  10.599
69608W        W31062  10.632  19.175   1.274
69609W        W31063   7.245  43.774   2.313
69610W        W31064  43.807   9.261   2.875
69611W        W31065  36.890  17.576   1.863
69612W        W31066   5.768  23.166  11.503
69613W        W31067   4.902  22.690  12.963
69614W        W31068  27.048  13.272  13.820
69615W        W31069  20.192  40.910  13.012
69616W        W31070  31.599  30.129   1.754
69617W        W31071   5.245  40.839   4.137
69618W        W31072   2.318  12.253  13.063
69619W        W31073  40.883  15.250  13.473
69620W        W31074  44.864  35.914  11.052
69621W        W31075  14.701  28.961  14.772
69622W        W31076  29.594  29.166  10.108
69623W        W31077  23.192   7.317   0.963
69624W        W31078  22.209  34.962  14.332
69625W        W31079   7.691  30.069   4.128
69626W        W31080  39.921   5.217  10.892
69627W        W31081  42.010  25.150   4.657
69628W        W31082   4.433  17.736   0.369
69629W        W31083  30.596  40.361  13.904
69630W        W31084  19.075  21.638   1.301
69631W        W31085  41.502  40.504  11.004
69632W        W31086  40.475   4.730  11.445
69633W        W31087   6.811   9.295  13.465
69634W        W31088  42.026   8.820   3.748
69635W        W31089   3.745  24.202   0.350
69636W        W31090  10.277  16.648   4.169
69637W        W31091  33.119  41.963   3.713
69638W        W31092  36.495  41.893  14.967
69639W        W31093  24.207  30.556  11.429
69640W        W31094  29.963   4.763  12.987
69641W        W31095  22.203  33.463   4.828
69642W        W31096  19.172  35.109   2.807
69643W        W31097  33.620  22.531  13.855
69644W        W31098  36.382  39.467  12.492
69645W        W31099  30.970  22.221   3.228
69646W        W31100   7.813  39.918  14.362
69647W        W31101  18.156  41.038  13.366
69648W        W31102  27.549  27.550  13.926
69649W        W31103  34.003  12.120  10.424
69650W        W31104   7.677  12.818  11.438
69651W        W31105  28.996  33.994   0.480
69652W        W31106  38.397  19.154  14.515
69653W        W31107  18.623   5.252   4.242
69654W        W31108  28.064   8.772   3.666
69655W        W31109   6.770  23.009   2.750
69656W        W31110  17.733  39.428  11.906
69657W        W31111   1.296  14.100   1.784
69658W        W31112  23.105   1.765   3.705
69659W        W31113  25.566   1.305  11.565
69660W        W31114  39.388   0.837   1.698
69661W        W31115  36.893  16.180  11.396
69662W        W31116  42.025  36.083  11.561
69663W        W31117  24.138  29.014   4.777
69664W        W31118  43.008  21.074   1.803
69665W        W31119  16.801  13.196   2.377
69666W        W31120  38.470  42.962   0.410
69667W        W31121  21.606  36.930  13.399
69668W        W31122  30.126  38.382  11.956
69669W        W31123   6.428   0.761  12.515
69670W        W31124   8.254  42.501   1.298
69671W        W31125  36.356   9.720  13.010
69672W        W31126  32.578   9.191   1.444
69673W        W31127  31.454  30.497  14.922
69674W        W31128  13.290   3.339   0.910
69675W        W31129   0.395  22.037  11.025
69676W        W31130  43.479  38.378   4.634
69677W        W31131   5.793  26.080  14.447
69678W        W31132  38.399  28.135  14.376
69679W        W31133  30.097  29.546   1.442
69680W        W31134  32.950  34.868  14.806
69681W        W31135  40.472  37.926  14.406
69682W        W31136  21.650  40.975  13.470
69683W        W31137   7.881  28.095  13.467
69684W        W31138  26.048   9.175   1.430
69685W        W31139  23.194  43.938   1.898
69686W        W31140  37.989  17.658  14.780
69687W        W31141   2.424  28.523   1.233
69688W        W31142  42.508  15.215   0.906
69689W        W31143  32.988   0.483  11.912
69690W        W31144  28.614  16.628   4.257
69691W        W31145  42.977  21.031   3.707
69692W        W31146  30.433  17.665  11.856
69693W        W31147  11.158  20.106   2.237
69694W        W31148  19.217  13.839   2.253
69695W        W31149  43.888  12.176   4.282
69696W        W31150  27.452  30.475   4.661
69697W        W31151  42.857   1.307  14.502
69698W        W31152  23.169  17.771  13.027
69699W        W31153  14.263  28.491  10.567
69700W        W31154  15.116  11.274   9.492
69701W        W31155  44.886   7.878  11.437
69702W        W31156  13.782  41.899   2.406
69703W        W31157  19.645   0.486   2.412
69704W        W31158   6.192  10.265   1.754
69705W        W31159  37.032  20.575   1.404
69706W        W31160   0.834  36.401   1.733
69707W        W31161  33.964   3.802   0.854
69708W        W31162  12.688  21.133  11.405
69709W        W31163  35.428  20.131   4.197
69710W        W31164  10.820  42.777   1.246
69711W        W31165  43.362  24.036   4.727
69712W        W31166  35.089  18.135  11.530
69713W        W31167  12.812  16.608   4.814
69714W        W31168  36.069   2.759   2.805
69715W        W31169  37.930  20.218   0.830
69716W        W31170   9.326  38.351   4.210
69717W        W31171  32.496  41.488   4.610
69718W        W31172  10.189  44.326  13.811
69719W        W31173  43.013  14.304   1.212
69720W        W31174   6.186   6.804  11.914
69721W        W31175  26.007  19.629  10.458
69722W        W31176  31.126  36.483   4.350
69723W        W31177  30.080  36.468   4.216
69724W        W31178   1.885  28.528   1.783
69725W        W31179  12.699  31.451  11.902
69726W        W31180  21.146  25.554   0.875
69727W        W31181   8.251  18.085   0.481
69728W        W31182  28.953  16.134   0.731
69729W        W31183   1.398  12.216   4.348
69730W        W31184  10.825  42.940   0.311
69731W        W31185  22.715  35.591  11.050
69732W        W31186  30.567   4.766   4.295
69733W        W31187  35.090  26.678   1.729
69734W        W31188  16.156   2.375  10.996
69735W        W31189  31.956  28.506  12.908
69736W        W31190  25.008  13.673  11.556
69737W        W31191   7.361  30.932   5.231
69738W        W31192   0.412   0.857   3.865
69739W        W31193  30.514  30.936  11.573
69740W        W31194  29.434   0.443   3.710
69741W        W31195  40.966  11.196   4.226
69742W        W31196  43.494  17.166   0.298
69743W        W31197   3.757  17.275   4.282
69744W        W31198  37.922   0.830   3.330
69745W        W31199   6.865  40.989  11.985
69746W        W31200   5.304  30.527  12.446
69747W        W31201  22.149  43.482  12.553
69748W        W31202  31.631  44.417  12.030
69749W        W31203  27.613  10.220   2.256
69750W        W31204  38.560  25.137   2.687
69751W        W31205   1.903  13.310   2.403
69752W        W31206  12.677  42.491  13.512
69753W        W31207  29.066  27.648   1.723
69754W        W31208  35.589   4.873  12.344
69755W        W31209  31.075  17.139   4.132
69756W        W31210  38.028  22.172   2.297
69757W        W31211  20.153  16.667  13.943
69758W        W31212  41.472   0.764   4.718
69759W        W31213  27.119  20.210   1.398
69760W        W31214   4.857  11.825  11.525
69761W        W31215   1.827   5.418   3.702
69762W        W31216  23.709  15.272   3.725
69763W        W31217   5.697  22.024  13.938
69764W        W31218  38.014  28.538  12.827
69765W        W31219  21.107  32.919   0.272
69766W        W31220  24.158  33.562  12.987
69767W        W31221  44.327  36.955  11.073
69768W        W31222   2.326  30.543   0.435
69769W        W31223   2.859  37.894   1.779
69770W        W31224  36.061  18.136   2.760
69771W        W31225  41.024  43.945   3.854
69772W        W31226  26.621   4.302   1.776
69773W        W31227  37.020  35.367  14.864
69774W        W31228  10.841  21.639   3.202
69775W        W31229  37.544   0.375   4.713
69776W        W31230  36.593   6.395  13.866
69777W        W31231  23.591  24.058  13.824
69778W        W31232   3.231   2.398   3.248
69779W        W31233  37.981  44.891   4.722
69780W        W31234  32.915   0.871  14.821
69781W        W31235  28.646  12.151  13.980
69782W        W31236  11.265  44.964   2.261
69783W        W31237  33.605  30.634   0.920
69784W        W31238   8.203  24.510  11.507
69785W        W31239  20.767  10.836  12.080
69786W        W31240  19.598  34.038   2.296
69787W        W31241   7.731   1.272   3.702
69788W        W31242  32.122  15.292  12.520
69789W        W31243  41.020  11.231   2.886
69790W        W31244  22.602  44.322   4.645
69791W        W31245  10.227  24.570   0.931
69792W        W31246   9.661   8.781  13.310
69793W        W31247  27.001  43.310   3.243
69794W        W31248   1.806  16.292  10.553
69795W        W31249  34.405  30.431   3.722
69796W        W31250  13.247  24.614   0.817
69797W        W31251  36.995  17.659   1.311
69798W        W31252   7.266  30.050  11.406
69799W        W31253   6.691  39.490  14.847
69800W        W31254  42.006  36.037   1.934
69801W        W31255  20.546  37.558  10.633
69802W        W31256  40.857  26.662  12.964
69803W        W31257  20.767  36.573  11.382
69804W        W31258   0.385  29.661   3.853
69805W        W31259  43.456  34.866   4.277
69806W        W31260  37.925  13.309   2.669
69807W        W31261  24.613  23.128  12.960
69808W        W31262   6.269  38.045   4.351
69809W        W31263  34.025  44.831   0.948
69810W        W31264  29.447  35.506  12.026
69811W        W31265  27.164  21.048   1.855
69812W        W31266  32.517  26.497  13.397
69813W        W31267  33.534  10.220   4.731
69814W        W31268  26.018  17.184  14.496
69815W        W31269  40.328  36.887   0.865
69816W        W31270  33.474   4.895  12.979
69817W        W31271  44.864  27.987  14.015
69818W        W31272  11.835  10.732   3.160
69819W        W31273  16.188   2.921   0.264
69820W        W31274  15.281  15.176  13.934
69821W        W31275   5.226  18.548  12.512
69822W        W31276  10.676  13.774  11.090
69823W        W31277   3.773  14.809   0.461
69824W        W31278  36.943  38.367  13.038
69825W        W31279  30.075  24.549   1.813
69826W        W31280   3.406  17.069  12.915
69827W        W31281  16.102   1.774   1.884
69828W        W31282  42.523  14.700   4.167
69829W        W31283   2.762   6.727   3.289
69830W        W31284  35.036   9.785   2.820
69831W        W31285  22.145   3.385  13.821
69832W        W31286  24.207  15.178   2.693
69833W        W31287  27.459  11.767  13.417
69834W        W31288   6.821   1.405   3.290
69835W        W31289  39.418   9.866  14.790
69836W        W31290   9.301  29.462  14.491
69837W        W31291  32.573   7.183   1.315
69838W        W31292   7.211  16.647   4.307
69839W        W31293  17.253   1.332   0.822
69840W        W31294  36.890  24.660  13.843
69841W        W31295   4.207  24.492  14.769
69842W        W31296  18.086  43.292   4.634
69843W        W31297  21.217  35.595   3.665
69844W        W31298  24.478  37.407   2.373
69845W        W31299  44.910   1.960   3.256
69846W        W31300   5.890  34.609   2.778
69847W        W31301  12.634  20.157   5.726
69848W        W31302  15.306  15.110   2.221
69849W        W31303  31.925  41.929  13.358
69850W        W31304  32.397  24.711   0.934
69851W        W31305  39.894  24.021   3.747
69852W        W31306  21.714   6.309  12.569
69853W        W31307   0.400  33.485   3.153
69854W        W31308  13.822  21.251  12.925
69855W        W31309   4.442  14.261   1.215
69856W        W31310   3.237  34.526   1.224
69857W        W31311  31.447  16.126  11.500
69858W        W31312  17.092   5.276  14.331
69859W        W31313   9.801   7.857  12.000
69860W        W31314   3.954  37.514  10.594
69861W        W31315  32.137  41.296  14.361
69862W        W31316  24.995  31.467   1.855
69863W        W31317  23.153  41.405   3.671
69864W        W31318   3.873   1.456  13.887
69865W        W31319  35.095  36.989  11.607
69866W        W31320  30.482   8.767  12.345
69867W        W31321  28.977  27.077   0.451
69868W        W31322  10.237   6.862  11.500
69869W        W31323  29.527  21.556   4.754
69870W        W31324  26.012   8.361  13.410
69871W        W31325  34.867  40.804   1.324
69872W        W31326  27.478  13.829   0.249
69873W        W31327  14.800  14.605  14.454
69874W        W31328  29.958  24.584  11.973
69875W        W31329  36.408  11.266  14.424
69876W        W31330  34.956  16.604  14.372
69877W        W31331   7.403   2.934   1.757
69878W        W31332  21.187  23.984  12.574
69879W        W31333  31.941  34.040   1.888
69880W        W31334  19.606   8.761  12.049
69881W        W31335  32.065  31.083   4.672
69882W        W31336  12.740  37.020  11.888
69883W        W31337   7.386  16.726   2.355
69884W        W31338  23.215  29.477   4.248
69885W        W31339  29.152  21.210  11.925
69886W        W31340  25.644   4.212  14.351
69887W        W31341  40.493  44.325   1.224
69888W        W31342  27.629  28.508  13.424
69889W        W31343  21.108  12.818   9.995
69890W        W31344  35.857  35.453  11.386
69891W        W31345  10.225   6.419  13.802
69892W        W31346  19.237  14.594   1.922
69893W        W31347  23.240   0.905   1.883
69894W        W31348  33.931   5.932  10.553
69895W        W31349  15.639  27.622  11.077
69896W        W31350  43.893  16.108   4.312
69897W        W31351  24.700  25.169  10.922
69898W        W31352  18.137   4.872  14.424
69899W        W31353   1.472  40.977  11.575
69900W        W31354   7.290  14.601  10.920
69901W        W31355  18.264  15.654  13.475
69902W        W31356   2.267  13.781   2.865
69903W        W31357   0.761  33.887  10.922
69904W        W31358   1.939  13.131   3.237
69905W        W31359  17.245   6.722  12.950
69906W        W31360   6.428   6.702   1.329
69907W        W31361  37.480   6.802   0.736
69908W        W31362  43.771  32.464  13.970
69909W        W31363   8.383  20.672   4.672
69910W        W31364  25.207  31.420   3.373
69911W        W31365   4.320   7.881   1.906
69912W        W31366  40.995  21.170   1.356
69913W        W31367  23.231  19.083  10.453
69914W        W31368   8.288  33.106   1.254
69915W        W31369   2.258  10.848  12.364
69916W        W31370  36.522  36.511  10.989
69917W        W31371  35.002  10.324   3.668
69918W        W31372  28.552   8.863   2.822
69919W        W31373  29.518  14.620   0.361
69920W        W31374  21.112   3.267  11.587
69921W        W31375  24.651  34.894   0.301
69922W        W31376   4.252  12.312  11.609
69923W        W31377  30.522  24.644  14.884
69924W        W31378  40.998  29.470   0.409
69925W        W31379  38.037  31.073   4.642
69926W        W31380   1.760   0.371   0.265
69927W        W31381   9.869  44.356   3.273
69928W        W31382  13.320  22.514  12.834
69929W        W31383   8.852  13.167   2.764
69930W        W31384  37.381  43.835   2.373
69931W        W31385  35.950  24.671  13.309
69932W        W31386  33.054   9.688   2.887
69933W        W31387  26.639  15.621   2.330
69934W        W31388  27.147  30.548  11.946
69935W        W31389  41.964  38.047  12.493
69936W        W31390  39.010  27.584   2.690
69937W        W31391   6.361  37.408   1.924
69938W        W31392  15.184   4.845  10.498
69939W        W31393  17.690   4.223  12.065
69940W        W31394  33.521  19.081   3.842
69941W        W31395  24.097  31.964   2.864
69942W        W31396  21.601  33.880   0.410
69943W        W31397  32.522   0.978   1.255
69944W        W31398  21.713  29.509  11.372
69945W        W31399  10.746  43.326  10.429
69946W        W31400  11.656   3.836  12.006
69947W        W31401   9.646  20.602   0.477
69948W        W31402  11.853   4.222  14.868
69949W        W31403  32.479  43.302   0.813
69950W        W31404  32.064  29.078   4.145
69951W        W31405  19.700  39.323   2.357
69952W        W31406  40.450  10.776   4.808
69953W        W31407   5.921   7.747   0.336
69954W        W31408  43.766  20.578   4.251
69955W        W31409  36.406  29.425  11.584
69956W        W31410  18.627  23.133   4.337
69957W        W31411   5.745   8.404  14.947
69958W        W31412   7.192  26.563   2.226
69959W        W31413  30.994  11.236  10.915
69960W        W31414  25.126  36.385  13.944
69961W        W31415  31.935  28.570   0.760
69962W        W31416  11.773   5.745  11.040
69963W        W31417   4.831  37.970   3.341
69964W        W31418  38.413  42.788   2.395
69965W        W31419  29.639  15.733  13.839
69966W        W31420  24.178  12.730  13.419
69967W        W31421   6.266   2.818  13.025
69968W        W31422  38.875  27.521   1.387
69969W        W31423  16.307  21.682   2.326
69970W        W31424  20.213   5.302  14.313
69971W        W31425   8.694   5.318  14.333
69972W        W31426  22.671  15.219   1.833
69973W        W31427  19.544   1.869   4.764
69974W        W31428  13.621  27.973   2.859
69975W        W31429  18.087  20.562   1.432
69976W        W31430  36.871  41.366   4.163
69977W        W31431   5.337  44.325   0.863
69978W        W31432   4.841  22.053   2.227
69979W        W31433  26.078  17.716   4.271
69980W        W31434  23.184  15.175  12.522
69981W        W31435  14.616  40.394  12.074
69982W        W31436  14.778  26.577   3.161
69983W        W31437   3.313  32.538  13.370
69984W        W31438  16.259  29.157   2.704
69985W        W31439  32.939  12.269   0.479
69986W        W31440  25.649  20.211  13.548
69987W        W31441  13.691   3.928   1.448
69988W        W31442  30.439  26.000  13.938
69989W        W31443  35.388  25.994   0.852
69990W        W31444  35.945  29.076   2.738
69991W        W31445   3.368  20.549   1.935
69992W        W31446   8.390  25.633  14.452
69993W        W31447  24.089  26.558   4.702
69994W        W31448   8.324  39.518   1.282
69995W        W31449  37.437  43.433  12.830
69996W        W31450  14.310   1.896  11.411
69997W        W31451   6.716  12.327  10.943
69998W        W31452  21.728  39.470   3.855
69999W        W31453  30.541  38.039   2.279
70000W        W31454  14.702   5.905   3.719
70001W        W31455  22.668  29.594   1.877
70002W        W31456  20.739   9.349  11.493
70003W        W31457  20.661  34.374  13.964
70004W        W31458   0.900  10.230   2.281
70005W        W31459   4.784  43.399   2.862
70006W        W31460  42.379  27.138   3.306
70007W        W31461  22.019   2.831   3.208
70008W        W31462  15.198  10.209  10.010
70009W        W31463  24.183  31.566   3.369
70010W        W31464  13.693  41.363   9.475
70011W        W31465  40.925  39.836  12.342
70012W        W31466  30.616  13.813   2.676
70013W        W31467   5.271  31.453   0.846
70014W        W31468  31.459  21.737   1.824
70015W        W31469  29.485  20.767  12.863
70016W        W31470  20.613  35.861   1.769
70017W        W31471  28.560   8.319  11.572
70018W        W31472  42.829   2.756  10.952
70019W        W31473   9.830  21.221  12.459
70020W        W31474  22.246  38.885  12.983
70021W        W31475  28.622  40.429   1.364
70022W        W31476   2.785  21.755  11.919
70023W        W31477   0.355  35.358   3.812
70024W        W31478   8.221  32.449   2.223
70025W        W31479  11.319  16.741   1.737
70026W        W31480   0.904  27.184   4.800
70027W        W31481  43.391   4.782  13.502
70028W        W31482  23.102  21.026  12.083
70029W        W31483  20.172  19.623   3.644
70030W        W31484  40.798  29.088   2.839
70031W        W31485   9.770   9.306   1.847
70032W        W31486  34.409  10.152  10.502
70033W        W31487   4.853  39.477  13.530
70034W        W31488  15.160   7.811  13.793
70035W        W31489  17.120  27.460  10.455
70036W        W31490  27.516   9.789   1.882
70037W        W31491  11.738  19.167   4.127
70038W        W31492  21.055  34.502   2.701
70039W        W31493  42.934  17.213  12.505
70040W        W31494  41.833  19.720   0.403
70041W        W31495  44.989  11.314   1.438
70042W        W31496  32.088   5.225   1.722
70043W        W31497  41.926  32.595  12.880
70044W        W31498   5.704  33.110  12.826
70045W        W31499  28.554   2.328  13.043
70046W        W31500  37.476  41.859   2.302
70047W        W31501  32.446  40.892   1.227
70048W        W31502  36.513  26.201  12.032
70049W        W31503   3.237  18.553  12.469
70050W        W31504  44.783  25.117   0.466
70051W        W31505  42.511  26.012   3.733
70052W        W31506  10.731  12.687  13.377
70053W        W31507  22.117  12.333  13.423
70054W        W31508  40.947  31.001   1.879
70055W        W31509  16.154  10.219  10.585
70056W        W31510  42.387  38.382  14.825
70057W        W31511  20.105  36.961  14.989
70058W        W31512   1.337  43.447  10.447
70059W        W31513  17.707  11.225  12.093
70060W        W31514   9.817  15.769   0.750
70061W        W31515  13.746  12.143   0.852
70062W        W31516  12.711  23.111   3.819
70063W        W31517  36.545  30.520   0.895
70064W        W31518  13.128   3.883  14.438
70065W        W31519  25.698  42.967   1.317
70066W        W31520   9.190  28.017  14.878
70067W        W31521   7.356  23.206   0.334
70068W        W31522  44.766  22.723   1.275
70069W        W31523  16.256  21.138  14.951
70070W        W31524  23.613  20.600  13.052
70071W        W31525  14.191  11.196   0.420
70072W        W31526  12.776  34.524  14.934
70073W        W31527  29.424   9.825   2.867
70074W        W31528  14.686  25.135   9.964
70075W        W31529  27.007  38.956   1.880
70076W        W31530   2.345  31.127  10.607
70077W        W31531   4.799  24.069   3.364
70078W        W31532   5.301  20.530  14.988
70079W        W31533   3.898   9.353  12.006
70080W        W31534  39.830   9.387  11.046
70081W        W31535  22.611  26.461  13.941
70082W        W31536  25.141   0.478   0.403
70083W        W31537  11.169  11.851   1.714
70084W        W31538  22.083  16.595  13.449
70085W        W31539  44.476  18.704   0.256
70086W        W31540  35.034   3.446   5.115
70087W        W31541  39.544  16.584  12.403
70088W        W31542  12.773  36.969   2.391
70089W        W31543  22.514   5.703   5.153
70090W        W31544   0.760   7.881  11.070
70091W        W31545  11.326  35.070   1.929
70092W        W31546  36.093  12.702   0.897
70093W        W31547  16.673  32.592   3.347
70094W        W31548  41.533  15.247   4.223
70095W        W31549   7.889  39.525  13.530
70096W        W31550  27.088  14.619  11.997
70097W        W31551  15.715  41.873   0.323
70098W        W31552  21.703   5.810  11.579
70099W        W31553   5.799  32.598   0.377
70100W        W31554   3.451  15.167   1.318
70101W        W31555  15.632  25.081  14.808
70102W        W31556  38.537  16.626  10.615
70103W        W31557   1.848  22.669   4.283
70104W        W31558  25.545  43.965  10.446
70105W        W31559   4.432  12.167   0.443
70106W        W31560  34.453  43.330  11.507
70107W        W31561   0.254   0.971  10.522
70108W        W31562  15.764  19.642   4.237
70109W        W31563  36.414   7.830  10.962
70110W        W31564   3.255  26.483  12.062
70111W        W31565  27.026  25.149  11.599
70112W        W31566   1.922   3.921  10.412
70113W        W31567  22.113   6.815  13.873
70114W        W31568  34.995  23.137   1.823
70115W        W31569  30.544  21.530  10.905
70116W        W31570  12.149   0.787  13.320
70117W        W31571  18.614   2.361  12.431
70118W        W31572   3.898  19.209  12.073
70119W        W31573  27.179  12.120   0.303
70120W        W31574  21.190  14.715  14.920
70121W        W31575  39.922  25.202  10.515
70122W        W31576  10.195   5.304   3.320
70123W        W31577  29.601  12.306  11.420
70124W        W31578  11.705   6.873   3.841
70125W        W31579  39.012  41.391   3.668
70126W        W31580  23.639  29.977   3.780
70127W        W31581  21.558   6.319  10.151
70128W        W31582   7.670   1.789   4.694
70129W        W31583  21.611  28.664  11.431
70130W        W31584  36.511  43.310  12.831
70131W        W31585   8.343  24.032  10.552
70132W        W31586  32.584  13.821  13.812
70133W        W31587  29.642  42.312  14.281
70134W        W31588   8.726  14.625  12.382
70135W        W31589  18.184   6.420  13.934
70136W        W31590   3.398  31.906  11.933
70137W        W31591  27.947  18.122   4.819
70138W        W31592  34.867   7.203   5.299
70139W        W31593  19.278   8.831  10.889
70140W        W31594  22.122   6.184   4.269
70141W        W31595  22.067  23.501   2.826
70142W        W31596   4.828  44.482   5.120
70143W        W31597  14.109  36.885  11.857
70144W        W31598  32.526  39.050  11.561
70145W        W31599  12.313  28.614  10.421
70146W        W31600   5.349  27.196  14.417
70147W        W31601  44.449  20.575   0.794
70148W        W31602  41.796  23.994  11.865
70149W        W31603  26.640   0.384  14.459
70150W        W31604  34.436  29.647   1.909
70151W        W31605  38.990  35.972   2.346
70152W        W31606  15.695  41.922  14.344
70153W        W31607  26.117  26.149  11.072
70154W        W31608   1.437  44.985   4.797
70155W        W31609  32.010  43.907  14.330
70156W        W31610  44.901  43.306  12.938
70157W        W31611   4.767  25.655  14.408
70158W        W31612  10.158  13.313  13.029
70159W        W31613  19.143  25.593   1.790
70160W        W31614  39.366  19.686  12.023
70161W        W31615  15.636  16.596   5.273
70162W        W31616  33.577  28.099   5.104
70163W        W31617  14.334  44.933   4.125
70164W        W31618  10.819  35.107   4.806
70165W        W31619  32.417  12.327   0.827
70166W        W31620  30.511  44.420   1.699
70167W        W31621   9.653  14.098   3.330
70168W        W31622  43.814  13.764   1.698
70169W        W31623   0.425  43.379   0.329
70170W        W31624  31.495  30.464  13.489
70171W        W31625   4.830  43.965   0.964
70172W        W31626  22.590  28.549  12.823
70173W        W31627  22.616  18.762  12.047
70174W        W31628  21.064  41.327   2.845
70175W        W31629  26.030  12.143   1.930
70176W        W31630  28.048   7.885   1.761
70177W        W31631  16.785  38.528   1.873
70178W        W31632  19.697  14.750   0.948
70179W        W31633  17.291  30.156  10.568
70180W        W31634   9.691  40.955   1.869
70181W        W31635   5.695  16.566   3.354
70182W        W31636  40.894   9.194   2.878
70183W        W31637  33.480  17.609  14.015
70184W        W31638  17.765   6.892  14.298
70185W        W31639  10.780  12.689   4.618
70186W        W31640  37.486  17.263   2.831
70187W        W31641  20.681   8.691   2.813
70188W        W31642  13.204   7.749  13.365
70189W        W31643  27.510  11.734   0.377
70190W        W31644  36.939  43.508  12.979
70191W        W31645  28.647  39.872  13.387
70192W        W31646  39.480  24.642  12.390
70193W        W31647  21.021   3.925  11.970
70194W        W31648  21.060  17.718   0.964
70195W        W31649   6.888  18.220   2.862
70196W        W31650   8.846  14.747   2.289
70197W        W31651  12.805   4.744  11.968
70198W        W31652  30.994  34.981  12.990
70199W        W31653  38.404  29.104   2.308
70200W        W31654  10.148  44.848  13.962
70201W        W31655  38.373   3.906  14.958
70202W        W31656   3.394  17.597   4.333
70203W        W31657   2.763   6.759  14.477
70204W        W31658  22.007  38.979   1.380
70205W        W31659   4.940  10.639  12.494
70206W        W31660  18.240  43.890   4.305
70207W        W31661   8.833   5.809  13.994
70208W        W31662  33.039  21.079  14.906
70209W        W31663   9.883   9.330   1.430
70210W        W31664  35.597  12.700  10.417
70211W        W31665  11.255  19.135   3.352
70212W        W31666  10.384  42.480   0.859
70213W        W31667   2.859  25.045   3.260
70214W        W31668  31.597  11.141   3.153
70215W        W31669  31.924  36.006  11.009
70216W        W31670  43.446  23.238   4.162
70217W        W31671   8.727  44.378  11.899
70218W        W31672   9.332   7.751   4.241
70219W        W31673   2.929   2.331  11.007
70220W        W31674   6.246  36.390   0.951
70221W        W31675   3.254  44.934  14.330
70222W        W31676  17.577  18.692  11.417
70223W        W31677  23.239  10.703   5.286
70224W        W31678   9.783   3.406   1.278
70225W        W31679  16.084  35.893   2.791
70226W        W31680  13.636  21.707   0.732
70227W        W31681  44.503   5.328   1.758
70228W        W31682  41.325  12.137   3.851
70229W        W31683  12.234  15.246  11.902
70230W        W31684   1.884  32.918  13.366
70231W        W31685  38.405   1.239  14.379
70232W        W31686  16.673  43.802  14.386
70233W        W31687  27.036  20.161   0.958
70234W        W31688  32.504  28.643   0.279
70235W        W31689   6.299  40.362   2.795
70236W        W31690   6.682  22.555  14.896
70237W        W31691  30.909  23.647  11.470
70238W        W31692  18.555  44.855  12.507
70239W        W31693   5.867  12.732  11.541
70240W        W31694  15.088  43.888   1.880
70241W        W31695   2.908  35.927   0.315
70242W        W31696  20.637  14.126   1.318
70243W        W31697  32.467  31.638   1.433
70244W        W31698   7.818   2.888  10.417
70245W        W31699   9.330   2.885   1.771
70246W        W31700  21.082  42.988  12.453
70247W        W31701   1.280  26.628  13.346
70248W        W31702  16.625  15.740  11.423
70249W        W31703   2.227  10.284  14.988
70250W        W31704  37.034  35.093   2.273
70251W        W31705  44.504  25.017  10.631
70252W        W31706  30.620   6.752  11.937
70253W        W31707  10.269  21.132  12.572
70254W        W31708   2.815  37.851  13.532
70255W        W31709   1.245  32.891   3.771
70256W        W31710   8.322  37.075   0.896
70257W        W31711  40.501  11.225  13.806
70258W        W31712   1.906  29.034   4.346
70259W        W31713  38.370   2.876  14.454
70260W        W31714  36.097  29.487  14.025
70261W        W31715  14.155  21.637   0.887
70262W        W31716   3.236  40.020   1.316
70263W        W31717  18.552  36.559   2.771
70264W        W31718  31.432   1.895  13.048
70265W        W31719   7.272  21.031   0.923
70266W        W31720  23.163  36.853   4.782
70267W        W31721  13.267   1.281   1.393
70268W        W31722   3.292  31.038   0.819
70269W        W31723  39.326   1.952   2.678
70270W        W31724  41.452  31.981  11.921
70271W        W31725  33.082  21.190   1.418
70272W        W31726   4.289  28.580   3.865
70273W        W31727  25.635  43.487   4.657
70274W        W31728  27.691  16.685  11.579
70275W        W31729   1.946  18.238  11.012
70276W        W31730   5.393  35.398  14.799
70277W        W31731  25.139  43.295  13.036
70278W        W31732  19.132  29.436  12.455
70279W        W31733  38.910   6.867  14.938
70280W        W31734  10.667  38.826  12.524
70281W        W31735   0.887  29.026   4.730
70282W        W31736   1.382  32.104   3.734
70283W        W31737  33.915  33.956   1.316
70284W        W31738  22.208   5.280   3.353
70285W        W31739  22.018  18.549  14.032
70286W        W31740  36.030  24.101   1.292
70287W        W31741  39.431  26.585  11.555
70288W        W31742  15.157  24.543  14.383
70289W        W31743  24.093   7.712   5.583
70290W        W31744  18.052  24.681   1.757
70291W        W31745  26.033  31.902  11.979
70292W        W31746  18.724  25.472  12.866
70293W        W31747   2.464  33.617   1.861
70294W        W31748  38.899  42.800  10.450
70295W        W31749  33.968  24.671   3.795
70296W        W31750  40.931  15.823  12.898
70297W        W31751   8.314   7.185  11.974
70298W        W31752  32.544  10.685  11.433
70299W        W31753  29.585   4.912  13.029
70300W        W31754   7.251  34.369   1.348
70301W        W31755  14.168  44.965  13.036
70302W        W31756  27.025  37.570   0.805
70303W        W31757   0.311  32.109   0.462
70304W        W31758  44.432  20.731  14.394
70305W        W31759  28.166  30.591  13.416
70306W        W31760  26.034  38.022   3.689
70307W        W31761  29.019   2.248   0.754
70308W        W31762  30.645  31.589  10.955
70309W        W31763  20.155  33.997   4.832
70310W        W31764  23.989   2.900   4.692
70311W        W31765  33.999  37.462  14.514
70312W        W31766  36.430  17.157  11.563
70313W        W31767  24.110  35.483  11.103
70314W        W31768  25.471  38.424  11.048
70315W        W31769   5.427   8.239  14.415
70316W        W31770  25.056  35.086  12.515
70317W        W31771  21.057  35.581  12.881
70318W        W31772   6.732  40.302  14.966
70319W        W31773  31.531  33.877   3.865
70320W        W31774   1.324   9.183   0.742
70321W        W31775   3.718  28.063   0.767
70322W        W31776  17.197  16.162  12.534
70323W        W31777  13.629  22.096  14.486
70324W        W31778  19.596  12.293  11.973
70325W        W31779  31.063  11.250   2.265
70326W        W31780  40.934  10.166  14.883
70327W        W31781  28.009   0.929   5.172
70328W        W31782  25.069  39.014  10.406
70329W        W31783  16.779  29.554  11.091
70330W        W31784  25.056   3.388   9.677
70331W        W31785  22.589  12.305   2.411
70332W        W31786  10.714  27.057   0.875
70333W        W31787   0.375  38.884   2.777
70334W        W31788  21.614   1.462  12.918
70335W        W31789  14.631  25.664  13.920
70336W        W31790  28.646  37.497   2.212
70337W        W31791  42.489  32.896  13.837
70338W        W31792  44.771  44.948   4.807
70339W        W31793  19.713  13.828  13.895
70340W        W31794   7.868  43.294   4.190
70341W        W31795  12.120  30.925   0.957
70342W        W31796  19.645   5.267  14.444
70343W        W31797  24.550   0.439   2.280
70344W        W31798  34.866  13.170   4.637
70345W        W31799  12.694  30.034   4.226
70346W        W31800  26.128  32.593  12.089
70347W        W31801  28.528  30.581  14.414
70348W        W31802  25.596   9.682   4.734
70349W        W31803  14.183  28.143   4.636
70350W        W31804  41.463  10.790  12.870
70351W        W31805  29.650  43.797   1.255
70352W        W31806  38.011  17.181   3.320
70353W        W31807  33.497   7.180  14.018
70354W        W31808  30.463   7.280  14.381
70355W        W31809   2.892  33.468   0.435
70356W        W31810  41.424  22.738   1.748
70357W        W31811  30.501  23.631   3.697
70358W        W31812  22.503   0.940  12.378
70359W        W31813  18.130  17.295  10.901
70360W        W31814  31.011  29.001   3.190
70361W        W31815   9.227  40.500   2.798
70362W        W31816  11.694  14.144  13.870
70363W        W31817  39.381  14.683  12.452
70364W        W31818  12.660  22.198  14.404
70365W        W31819   5.896  35.884   1.361
70366W        W31820  29.555  16.249   1.711
70367W        W31821   1.874  24.521  11.113
70368W        W31822   3.446  38.363   3.174
70369W        W31823   7.356  42.896   4.246
70370W        W31824   5.700  26.505   0.323
70371W        W31825   5.717  17.266   1.910
70372W        W31826   2.749  38.500  14.336
70373W        W31827  11.826  20.271  14.283
70374W        W31828  12.137  11.365  11.883
70375W        W31829  44.887  19.048  11.579
70376W        W31830  21.683  31.563   3.283
70377W        W31831  28.186  35.055  10.898
70378W        W31832  16.142  23.559   1.726
70379W        W31833   5.412  43.800   1.438
70380W        W31834  18.720  25.153   0.379
70381W        W31835  10.171   2.740   4.321
70382W        W31836  32.932  27.575   0.292
70383W        W31837   8.217  26.173  12.901
70384W        W31838  16.752  40.908   1.889
70385W        W31839  39.397  34.597  13.347
70386W        W31840  32.603   2.796   0.340
70387W        W31841  20.736  16.763   3.195
70388W        W31842   1.808  26.652   1.894
70389W        W31843  31.073   8.683  13.512
70390W        W31844  29.577  14.214   3.236
70391W        W31845  28.169  27.090   1.298
70392W        W31846  34.111  22.604   0.461
70393W        W31847  37.965  27.991   0.308
70394W        W31848  30.572  14.720   5.135
70395W        W31849  42.923  44.861   4.695
70396W        W31850  24.096   1.859  13.525
70397W        W31851   0.480  32.596  13.341
70398W        W31852  43.301  11.749   3.354
70399W        W31853  23.735  22.249  11.063
70400W        W31854   1.358  32.062  12.345
70401W        W31855   6.248  41.928   3.707
70402W        W31856  28.528  16.750   1.750
70403W        W31857  43.425  30.973  12.985
70404W        W31858  26.984  31.628  14.951
70405W        W31859   6.885  42.853  12.829
70406W        W31860  17.666  13.661   4.735
70407W        W31861  42.990  20.047   4.166
70408W        W31862  34.418  35.925  12.344
70409W        W31863  24.129  23.196  11.437
70410W        W31864  21.187  31.976  11.452
70411W        W31865  12.714  18.724  12.496
70412W        W31866  31.943  14.209   0.441
70413W        W31867  11.716  28.006   4.262
70414W        W31868  19.089   6.812  10.552
70415W        W31869  15.149  17.221  11.459
70416W        W31870  28.139   4.287   3.214
70417W        W31871  24.547   0.352   4.739
70418W        W31872  18.722  36.003   2.692
70419W        W31873  34.908  23.626  10.500
70420W        W31874   8.378  21.047  11.546
70421W        W31875  16.292  23.072  14.920
70422W        W31876  30.973  19.539   3.220
70423W        W31877   7.412   9.187   1.758
70424W        W31878   5.772  41.358   3.763
70425W        W31879   3.302  34.985   4.217
70426W        W31880  17.195  21.102   1.350
70427W        W31881  16.747  37.930  10.496
70428W        W31882   8.287  18.253   4.211
70429W        W31883  28.149  33.583   5.292
70430W        W31884  38.915  25.156   3.268
70431W        W31885  16.232  21.115   4.160
70432W        W31886  34.511  30.417   2.769
70433W        W31887  35.920  35.052  12.045
70434W        W31888   1.366  19.069   2.403
70435W        W31889  44.475  21.217  10.489
70436W        W31890  39.849  17.165   3.382
70437W        W31891  19.727  38.974  13.808
70438W        W31892   4.370  17.110   3.684
70439W        W31893   6.203  38.929  11.575
70440W        W31894  34.883   0.843  12.021
70441W        W31895   2.751  28.586   1.416
70442W        W31896  15.281  30.521  14.012
70443W        W31897  38.478  29.967  11.857
70444W        W31898  42.869  24.548   2.415
70445W        W31899  36.890  18.615  14.003
70446W        W31900   6.886   0.836   1.821
70447W        W31901  31.058  43.811  11.588
70448W        W31902  16.681  12.738  13.343
70449W        W31903  32.451   5.798  14.799
70450W        W31904  32.601  38.324   3.319
70451W        W31905   6.688  31.015  10.561
70452W        W31906  11.811   7.821  14.027
70453W        W31907  11.703  11.710  12.986
70454W        W31908  12.238  27.166   1.702
70455W        W31909  25.177   3.791  13.382
70456W        W31910  18.207  26.184   4.235
70457W        W31911   3.253  44.290  12.996
70458W        W31912  44.366  28.440  11.464
70459W        W31913  38.442   6.693  11.859
70460W        W31914  18.051  14.827  11.578
70461W        W31915  42.028   4.940   0.344
70462W        W31916  12.321  11.181   3.294
70463W        W31917  10.243  15.769  10.546
70464W        W31918   8.771  22.726   0.404
70465W        W31919  18.685  39.834  13.530
70466W        W31920   0.314  20.081   0.449
70467W        W31921  34.555  37.890   1.401
70468W        W31922  33.547  31.551   3.680
70469W        W31923  19.200  29.644   1.782
70470W        W31924  23.193  38.537   3.744
70471W        W31925  21.526  31.523  13.517
70472W        W31926   5.931  12.737  14.788
70473W        W31927  24.678   7.842   1.807
70474W        W31928   3.413  24.545   2.788
70475W        W31929  12.184  38.539  14.891
70476W        W31930   6.221  41.992  14.893
70477W        W31931  14.339   5.392  14.009
70478W        W31932   5.220  25.996   2.777
70479W        W31933  31.540  20.523   4.625
70480W        W31934  22.177   8.730  11.462
70481W        W31935  24.087  41.444   0.364
70482W        W31936   4.223  28.499   0.784
70483W        W31937  13.218  12.151  13.933
70484W        W31938  38.031  22.088  10.892
70485W        W31939  33.611   6.849  10.437
70486W        W31940  19.047   2.392   1.856
70487W        W31941  37.037   0.809   1.383
70488W        W31942  22.047  12.159  12.910
70489W        W31943  15.708  33.100  12.420
70490W        W31944  33.556  30.486  13.310
70491W        W31945  15.229   8.681  10.008
70492W        W31946  11.291  37.453  10.040
70493W        W31947   2.878  22.077  13.544
70494W        W31948  23.522  20.751  11.907
70495W        W31949   3.374  26.955   4.122
70496W        W31950  31.478   6.701  10.525
70497W        W31951  44.314  24.635   3.349
70498W        W31952   6.752   4.435   2.864
70499W        W31953  14.208   9.682  12.073
70500W        W31954  35.434  21.259  14.018
70501W        W31955  26.617  10.787   0.316
70502W        W31956  27.974  41.973  14.837
70503W        W31957   9.157   5.874  14.360
70504W        W31958  18.736  35.504   1.915
70505W        W31959  29.521  14.336  11.118
70506W        W31960  10.179  10.787  14.959
70507W        W31961  24.092  32.084   9.993
70508W        W31962   1.278  28.954  11.003
70509W        W31963  12.303  15.720   0.865
70510W        W31964   1.741  42.882   1.716
70511W        W31965  19.235  15.712   1.789
70512W        W31966  40.340  19.083   3.280
70513W        W31967   2.863  32.035   4.736
70514W        W31968  44.827  11.342  14.930
70515W        W31969  38.017  41.030  14.809
70516W        W31970   0.904  30.549  14.993
70517W        W31971  29.602  23.610   3.866
70518W        W31972   4.360  25.659  14.832
70519W        W31973  33.100  26.576   3.641
70520W        W31974  30.563  39.876  14.842
70521W        W31975  36.048  37.032   0.821
70522W        W31976   9.283  37.989  13.811
70523W        W31977  22.135  24.690  13.327
70524W        W31978  29.958  15.320  13.496
70525W        W31979  25.007  20.691   0.963
70526W        W31980  11.276  31.431  13.966
70527W        W31981  21.023  14.743  14.009
70528W        W31982  35.025  19.090  12.896
70529W        W31983  39.383  12.857  12.077
70530W        W31984  43.853  17.166  11.108
70531W        W31985  28.442  21.229   1.933
70532W        W31986  36.973  12.255  11.538
70533W        W31987  34.098  30.058  11.386
70534W        W31988  35.896  22.222   4.692
70535W        W31989  12.685  26.581  14.368
70536W        W31990   5.409  18.175  12.866
70537W        W31991  40.048   2.951  11.577
70538W        W31992   6.368  12.644   0.926
70539W        W31993  39.394  28.014   4.662
70540W        W31994   4.796  20.248   0.782
70541W        W31995  12.812  37.567   4.224
70542W        W31996  17.065   5.919   1.362
70543W        W31997   4.448  37.385   0.827
70544W        W31998  34.958  37.582   1.247
70545W        W31999  18.719  41.029   4.308
70546W        W32000  43.324  27.471  13.010
70547W        W32001  37.962  42.841  11.427
70548W        W32002  36.985  12.672   0.370
70549W        W32003   8.178  31.524  12.460
70550W        W32004  12.187  37.411   0.461
70551W        W32005  33.579  24.135  12.570
70552W        W32006  22.197   5.280   1.752
70553W        W32007  10.150  12.146   1.827
70554W        W32008   2.931  12.678  14.005
70555W        W32009  17.250  23.087   4.800
70556W        W32010  40.979   3.821   1.741
70557W        W32011   1.313   7.175   2.388
70558W        W32012  25.142  42.817  11.100
70559W        W32013  22.199  22.089   3.210
70560W        W32014  44.935  17.678   0.950
70561W        W32015  41.016  37.394   1.820
70562W        W32016  41.019  39.466   0.330
70563W        W32017  24.117   6.831   0.330
70564W        W32018  26.700  44.369   1.243
70565W        W32019  10.835  10.228  11.964
70566W        W32020   5.845  28.558   2.313
70567W        W32021  26.543   2.269   1.771
70568W        W32022  43.434  15.243  13.375
70569W        W32023  38.881  37.429  13.916
70570W        W32024   7.828  34.911   2.211
70571W        W32025  39.416  28.059   0.894
70572W        W32026  28.546  19.042   2.721
70573W        W32027   6.370  38.060   1.750
70574W        W32028  14.610   9.182  14.485
70575W        W32029  29.566  31.618  13.833
70576W        W32030  19.766  22.747   5.100
70577W        W32031  39.837  19.040   0.478
70578W        W32032  10.820  30.919   4.239
70579W        W32033  12.313   7.178   0.794
70580W        W32034   6.208   1.253   0.283
70581W        W32035  26.181  32.602   0.864
70582W        W32036  38.992   5.340   0.389
70583W        W32037  21.529  32.889   3.174
70584W        W32038  38.486   5.848   0.902
70585W        W32039  25.096   2.949  14.004
70586W        W32040  25.177   5.927  10.499
70587W        W32041   6.783  41.305  10.452
70588W        W32042   3.320  40.937  11.555
70589W        W32043  29.446  43.015   3.760
70590W        W32044  36.960  16.779   4.208
70591W        W32045  34.920  41.441  12.056
70592W        W32046  31.036  23.008   1.869
70593W        W32047   0.979   5.385  12.882
70594W        W32048  32.418  39.955   3.798
70595W        W32049   3.751   5.886  14.513
70596W        W32050   0.819  33.973   0.263
70597W        W32051  15.097  30.429  14.511
70598W        W32052   3.848  34.504  12.574
70599W        W32053  40.809  17.621   3.727
70600W        W32054  39.331  31.951  13.931
70601W        W32055  14.160  27.098  12.488
70602W        W32056  10.138  36.383  14.870
70603W        W32057   2.466  12.785  10.055
70604W        W32058  42.491  37.541  12.902
70605W        W32059   2.401  41.896  11.437
70606W        W32060  23.545   7.287   3.171
70607W        W32061   7.247  36.482  13.339
70608W        W32062  40.410  18.632   0.271
70609W        W32063   5.689  15.772   0.438
70610W        W32064  30.656  32.056  10.560
70611W        W32065   8.355  12.247  14.980
70612W        W32066  27.566  11.845  10.137
70613W        W32067   7.743   3.820  10.479
70614W        W32068  13.108  44.790  14.850
70615W        W32069  44.886  36.845   1.301
70616W        W32070  24.670   7.285   9.495
70617W        W32071  32.125  41.884   0.813
70618W        W32072  40.351  16.233   3.653
70619W        W32073   8.887  11.168   0.836
70620W        W32074  10.258  37.374   4.143
70621W        W32075  12.845  25.549   1.289
70622W        W32076   8.247  22.204   2.731
70623W        W32077  43.387  15.313  10.911
70624W        W32078   1.911   5.432   4.318
70625W        W32079  33.564  27.611  14.905
70626W        W32080   9.710  42.866   1.220
70627W        W32081   2.244  43.997  13.504
70628W        W32082   5.296  13.170   4.347
70629W        W32083  43.308  24.998  13.924
70630W        W32084  44.821  14.755   4.172
70631W        W32085  33.433   9.722  14.821
70632W        W32086  30.474  19.193  10.619
70633W        W32087  40.901  22.068  12.038
70634W        W32088   3.293  44.767   2.745
70635W        W32089  11.220  28.996  12.361
70636W        W32090  12.647  31.022  10.485
70637W        W32091  28.137   5.873   5.170
70638W        W32092  24.216  16.582   0.372
70639W        W32093  41.293   0.449  11.477
70640W        W32094   1.862   0.902  14.829
70641W        W32095  30.455  41.023  13.988
70642W        W32096   9.153  42.319  12.403
70643W        W32097  15.110  32.973  11.479
70644W        W32098  41.856   7.821  14.418
70645W        W32099   4.798   6.291   0.942
70646W        W32100  23.617   1.359  11.920
70647W        W32101  43.334  11.648   2.190
70648W        W32102  38.333  37.453  14.512
70649W        W32103  20.195  30.154   4.657
70650W        W32104   0.262  38.445  14.917
70651W        W32105   3.816   7.269  14.379
70652W        W32106  12.131  19.087  14.344
70653W        W32107  40.052  22.240   3.284
70654W        W32108  38.902  33.585   2.776
70655W        W32109  29.585  10.231   4.759
70656W        W32110  18.762  40.403  14.280
70657W        W32111  16.226  15.752   3.682
70658W        W32112  30.121  33.005  11.466
70659W        W32113  39.886   4.377   0.252
70660W        W32114  30.094  15.702   0.423
70661W        W32115  23.612   1.776   1.715
70662W        W32116  24.652  30.953   3.303
70663W        W32117  33.527   9.863   3.244
70664W        W32118  38.526  22.624  13.408
70665W        W32119  30.603   8.222   2.785
70666W        W32120  13.285  33.385   0.942
70667W        W32121  20.658  15.263   0.951
70668W        W32122   7.286  25.968   4.321
70669W        W32123   1.897  21.118  14.818
70670W        W32124  35.056  15.800  14.311
70671W        W32125  21.258  32.967   4.192
70672W        W32126   2.861  11.789   4.612
70673W        W32127  24.652  33.458   2.277
70674W        W32128  24.994  31.954  14.953
70675W        W32129  40.320  18.150   3.684
70676W        W32130  20.744  17.760  11.524
70677W        W32131  13.229   5.858  12.970
70678W        W32132   2.295  25.150  13.958
70679W        W32133  35.382  35.453   3.871
70680W        W32134  33.553  30.659   4.787
70681W        W32135  17.725   5.351   4.298
70682W        W32136  33.901  22.696   2.388
70683W        W32137  29.033  12.314   2.719
70684W        W32138   5.814  16.270  12.070
70685W        W32139  39.044   7.723  11.862
70686W        W32140  42.960  43.295   2.812
70687W        W32141  26.479  37.571  11.085
70688W        W32142  13.275  41.843  10.158
70689W        W32143  21.038  17.082   0.300
70690W        W32144  10.163  38.349  10.143
70691W        W32145  28.601   6.258  13.517
70692W        W32146  17.245  26.604  13.029
70693W        W32147  23.491   9.847   3.188
70694W        W32148  33.472  36.481   4.746
70695W        W32149  17.235  30.032  12.437
70696W        W32150  25.054   0.851  11.539
70697W        W32151  41.500   1.961  12.507
70698W        W32152   3.454   9.290  14.298
70699W        W32153   2.936   2.254  10.444
70700W        W32154  35.600  38.064   3.788
70701W        W32155  25.179  35.967  14.342
70702W        W32156  33.411  42.301   4.288
70703W        W32157  16.593  32.507  13.321
70704W        W32158  31.015  30.097   0.451
70705W        W32159  28.541   7.197  12.467
70706W        W32160   6.896  37.940  14.465
70707W        W32161  31.953  25.553  13.522
70708W        W32162  31.508  41.437   4.353
70709W        W32163  14.275   2.315  11.557
70710W        W32164  41.892  40.813   2.291
70711W        W32165  41.818  29.169   3.814
70712W        W32166  43.459  22.732  11.611
70713W        W32167  30.458  19.128   2.341
70714W        W32168  14.760  10.222  11.016
70715W        W32169   6.421  19.235  10.974
70716W        W32170  12.343  38.328   4.243
70717W        W32171  37.922  10.243  12.923
70718W        W32172  43.329  31.095   1.852
70719W        W32173  37.074  10.695  14.489
70720W        W32174  30.115   2.399  13.513
70721W        W32175  35.381  28.142   1.811
70722W        W32176  14.324   8.755   3.823
70723W        W32177  26.535   1.846  14.360
70724W        W32178  17.223  16.600   3.258
70725W        W32179  43.435  25.605   1.801
70726W        W32180  13.750  30.125  11.099
70727W        W32181   5.305  36.356  13.438
70728W        W32182  38.382  31.562  14.499
70729W        W32183  27.034  31.440   4.210
70730W        W32184  19.768  19.136   4.659
70731W        W32185  22.527  36.868   4.783
70732W        W32186  41.980  26.593  12.433
70733W        W32187  38.518   4.836  12.424
70734W        W32188  39.957  40.413   2.299
70735W        W32189  29.541  12.648   1.699
70736W        W32190  19.277  22.593  14.994
70737W        W32191   5.802  14.312  14.475
70738W        W32192  16.260  20.555   2.276
70739W        W32193   6.341  30.096   1.741
70740W        W32194  18.250  39.476   1.880
70741W        W32195   0.880   5.819   0.305
70742W        W32196  16.150  30.012  14.507
70743W        W32197  26.205  12.716   2.297
70744W        W32198   9.786  40.471  11.460
70745W        W32199  42.032   8.863   0.266
70746W        W32200  29.156  27.528  13.461
70747W        W32201  42.789  12.353   2.325
70748W        W32202  21.752  14.138  10.440
70749W        W32203  28.624  24.982  10.614
70750W        W32204  38.483   6.853  13.429
70751W        W32205  44.996  31.461   4.608
70752W        W32206  10.295  37.013  11.023
70753W        W32207  17.623  11.844  14.381
70754W        W32208   6.359   8.292  13.947
70755W        W32209  23.537  20.073  12.529
70756W        W32210  40.343  17.095   4.617
70757W        W32211  43.867  42.885  11.119
70758W        W32212   1.761   1.292   3.236
70759W        W32213  34.937  42.995   3.334
70760W        W32214   7.739   5.717  13.913
70761W        W32215  11.730  23.152  10.413
70762W        W32216   3.379   4.366  14.846
70763W        W32217  29.577   1.812  14.343
70764W        W32218   9.295  15.214  11.879
70765W        W32219  11.264  39.007  13.520
70766W        W32220   8.261   0.920  11.377
70767W        W32221  43.417  31.020   3.701
70768W        W32222  17.143   9.777   2.240
70769W        W32223   6.251  19.760  10.508
70770W        W32224  10.656  19.745   5.734
70771W        W32225  18.087   6.873  14.915
70772W        W32226  41.903  22.677   3.151
70773W        W32227  10.297   0.848  11.454
70774W        W32228  16.659   2.732   4.130
70775W        W32229  13.149  25.699   2.385
70776W        W32230   1.794  43.327   3.374
70777W        W32231  25.682  20.186  10.946
70778W        W32232  19.648   1.416  13.933
70779W        W32233  35.928   5.705   2.339
70780W        W32234  35.420  16.665  10.996
70781W        W32235  44.439  17.133   2.705
70782W        W32236  29.939  23.207  13.810
70783W        W32237  28.096  32.427  14.867
70784W        W32238  38.964   1.888  11.376
70785W        W32239  26.075  41.947   4.182
70786W        W32240   7.747   1.245  13.369
70787W        W32241  40.505  18.558   4.152
70788W        W32242  27.975   6.188   0.886
70789W        W32243  19.730  17.753   2.866
70790W        W32244  32.019  13.143  13.393
70791W        W32245  12.229  26.205   0.922
70792W        W32246  17.771  23.093   3.776
70793W        W32247  38.394  11.138  13.497
70794W        W32248  29.493   2.761   0.915
70795W        W32249  41.375  26.203  10.589
70796W        W32250   9.361   2.403  10.563
70797W        W32251  27.977  28.115   2.685
70798W        W32252  29.438  38.906   2.732
70799W        W32253  20.221  30.478  10.905
70800W        W32254  26.058  19.750   2.276
70801W        W32255  44.400  36.487  12.530
70802W        W32256  36.356  22.639  11.113
70803W        W32257  27.578   7.336   0.297
70804W        W32258   9.285  30.037  12.895
70805W        W32259  42.917   4.931   5.166
70806W        W32260  35.531  26.556  12.400
70807W        W32261  17.247  21.719  13.845
70808W        W32262  35.495  32.512   4.719
70809W        W32263  41.972  31.441  14.405
70810W        W32264  15.679  38.383   0.816
70811W        W32265  35.008  18.648  11.902
70812W        W32266  27.467   2.452  14.300
70813W        W32267  19.557  34.395  12.936
70814W        W32268  42.323   3.733   4.600
70815W        W32269   0.255  23.575   4.325
70816W        W32270  44.862  38.980  14.944
70817W        W32271   3.821  14.656  12.464
70818W        W32272  16.802  13.160  13.380
70819W        W32273   4.332  23.569  14.970
70820W        W32274  19.269   9.733   1.424
70821W        W32275   3.713  30.453   0.476
70822W        W32276  18.179  27.498  14.886
70823W        W32277  24.137   2.798  13.407
70824W        W32278  21.665  17.688   3.745
70825W        W32279  16.110  15.744   3.321
70826W        W32280   5.351  33.485   0.332
70827W        W32281  37.885  36.486  14.983
70828W        W32282  36.920  44.971  11.589
70829W        W32283  36.532  33.013  10.546
70830W        W32284  27.524  22.700  10.928
70831W        W32285  11.852  18.629  11.602
70832W        W32286   5.738  42.405  10.579
70833W        W32287  23.013  38.558   0.243
70834W        W32288  35.491  19.748  13.915
70835W        W32289   8.375  19.753  12.949
70836W        W32290  36.979   4.344   0.423
70837W        W32291  30.497  43.772   3.851
70838W        W32292  36.575  26.630  11.442
70839W        W32293  12.693  38.534  11.543
70840W        W32294  24.493  42.922   1.395
70841W        W32295  37.490  44.881   1.869
70842W        W32296   5.896  34.914  11.571
70843W        W32297  25.696   2.874  11.383
70844W        W32298   2.851   9.888   1.416
70845W        W32299  44.344  26.607  12.452
70846W        W32300  27.505  30.490   1.253
70847W        W32301  29.647  21.150  13.905
70848W        W32302  24.184  16.278   0.275
70849W        W32303  26.545  23.622  13.013
70850W        W32304  32.576  28.659  13.346
70851W        W32305  39.553   8.314   4.147
70852W        W32306  41.016   5.410   0.927
70853W        W32307  18.063   7.237   0.259
70854W        W32308  13.802  30.596   5.236
70855W        W32309  16.591  18.279   0.322
70856W        W32310  10.812  32.923   5.270
70857W        W32311  28.169  34.462   0.380
70858W        W32312   5.210  21.220   4.161
70859W        W32313  29.439  30.532  14.901
70860W        W32314  33.445  39.951  13.474
70861W        W32315  22.006  25.647  11.541
70862W        W32316  10.280  14.617  12.943
70863W        W32317   5.390  39.869   3.749
70864W        W32318  38.530  32.460  12.533
70865W        W32319  24.184  13.750   0.298
70866W        W32320  12.178  27.629  13.430
70867W        W32321  26.196  42.378  13.873
70868W        W32322  42.015  17.697  13.063
70869W        W32323  10.342  36.436  11.528
70870W        W32324  12.263  36.574   2.879
70871W        W32325  19.173  11.362  12.401
70872W        W32326   6.682  27.537   3.372
70873W        W32327  17.620   6.717  13.383
70874W        W32328  29.921  43.370   0.749
70875W        W32329  28.540  39.993  12.911
70876W        W32330   9.654  10.266  11.866
70877W        W32331   9.264  31.122  12.355
70878W        W32332  14.289   4.847  13.830
70879W        W32333  30.549  37.476   0.798
70880W        W32334  15.195  38.907   5.223
70881W        W32335  36.987  25.169   3.779
70882W        W32336   9.828  25.139  13.465
70883W        W32337   3.358   2.815   0.782
70884W        W32338  31.418  31.098   0.832
70885W        W32339  38.825   0.828   2.721
70886W        W32340  20.256  30.947   1.699
70887W        W32341  13.702  14.333  12.485
70888W        W32342  12.682  32.465   1.422
70889W        W32343  41.977  29.961   3.324
70890W        W32344  43.310  18.746  12.478
70891W        W32345  24.509   8.755   2.713
70892W        W32346  11.322   9.270  14.908
70893W        W32347  44.296   6.381  14.943
70894W        W32348  12.639  14.101   0.865
70895W        W32349  25.638   8.246   3.787
70896W        W32350  19.665  17.204  12.865
70897W        W32351  44.962  20.173  12.958
70898W        W32352   3.925  41.418   3.741
70899W        W32353  16.309  16.698   1.857
70900W        W32354  19.715  42.348  14.388
70901W        W32355  41.940  42.456  12.481
70902W        W32356  27.060  44.455  14.779
70903W        W32357  16.264  39.383  11.596
70904W        W32358  27.549  14.708   2.714
70905W        W32359  41.428  12.325   0.873
70906W        W32360  10.796  21.259  14.862
70907W        W32361  25.001  29.141   1.798
70908W        W32362  32.587   1.952   0.400
70909W        W32363  20.194  13.109  14.931
70910W        W32364  44.807   0.487  13.354
70911W        W32365  16.220  11.363   2.881
70912W        W32366  22.580  36.396  11.512
70913W        W32367  44.768  36.996   0.461
70914W        W32368  44.420  43.847  11.076
70915W        W32369  30.097  44.407  12.019
70916W        W32370  38.920  11.364  12.550
70917W        W32371  30.611  29.981   0.886
70918W        W32372  44.918   9.727  10.531
70919W        W32373   3.832  41.535  13.800
70920W        W32374  40.050   8.354  12.497
70921W        W32375   2.311   4.239   4.612
70922W        W32376  36.056  34.599  14.950
70923W        W32377  39.314  23.574   2.249
70924W        W32378  16.199  25.523  14.334
70925W        W32379  21.110  11.621  11.072
70926W        W32380  32.893  23.645   3.838
70927W        W32381   9.361   9.718   3.824
70928W        W32382  31.991  33.401  11.075
70929W        W32383  42.512  39.856  14.457
70930W        W32384  23.201   0.960  11.491
70931W        W32385  18.236  34.502  14.487
70932W        W32386  36.086  40.417   0.390
70933W        W32387  33.614  10.138   1.823
70934W        W32388  37.042  15.241  13.971
70935W        W32389   1.337   1.812   2.276
70936W        W32390  40.017  37.003  13.811
70937W        W32391   2.234   8.677  11.541
70938W        W32392  21.029   3.446  12.048
70939W        W32393  18.168  41.913   0.420
70940W        W32394  41.939  29.064   2.408
70941W        W32395  23.067  22.619  13.402
70942W        W32396  33.056  12.843   5.230
70943W        W32397  11.648  10.699   3.664
70944W        W32398  36.465   6.852  10.973
70945W        W32399  23.038  18.295  13.046
70946W        W32400  10.827   2.861  10.645
70947W        W32401  14.645  11.659   0.285
70948W        W32402  31.093  37.518  12.885
70949W        W32403   7.707  22.643  14.981
70950W        W32404   4.338   8.326   2.218
70951W        W32405  39.012   7.838  10.499
70952W        W32406  40.510  24.489   1.300
70953W        W32407   6.700  42.830   2.414
70954W        W32408  41.033  29.563  10.439
70955W        W32409  30.161  44.857   4.691
70956W        W32410  31.139  35.358   0.953
70957W        W32411   0.802  26.016  12.350
70958W        W32412  23.992   4.762  13.528
70959W        W32413  28.604  23.130  14.967
70960W        W32414  44.493  14.269   0.823
70961W        W32415  36.460  10.802  11.024
70962W        W32416  22.094  31.048   3.355
70963W        W32417  41.938   5.225   0.292
70964W        W32418  38.011   3.406  11.439
70965W        W32419  14.641  11.833  12.414
70966W        W32420  23.060   3.909  13.526
70967W        W32421  26.045  11.249   0.290
70968W        W32422  21.079  28.579  13.316
70969W        W32423  40.395  29.483  12.347
70970W        W32424  29.533   6.903  14.980
70971W        W32425   0.395  16.317   2.733
70972W        W32426  29.047   5.861   1.829
70973W        W32427  37.523  12.290   0.364
70974W        W32428  12.180  37.891  12.012
70975W        W32429  26.969  12.760  12.918
70976W        W32430  26.173  18.251  14.511
70977W        W32431  39.912  31.548   3.673
70978W        W32432  27.451  26.998   3.764
70979W        W32433   8.856  22.047  11.917
70980W        W32434   8.274  27.074  13.395
70981W        W32435   4.767  16.734  10.990
70982W        W32436  44.383  34.421  14.918
70983W        W32437  20.736  39.467   4.335
70984W        W32438  25.575  22.573  12.579
70985W        W32439  17.790   9.160   4.260
70986W        W32440  37.998  33.425   1.412
70987W        W32441   3.385  28.137  10.432
70988W        W32442  15.768  13.625  13.957
70989W        W32443   3.842  20.210   1.385
70990W        W32444  37.984  23.102   3.711
70991W        W32445  27.530  20.274   3.282
70992W        W32446   5.345  36.553   2.666
70993W        W32447  18.133   2.404  13.955
70994W        W32448   4.872  12.239   3.819
70995W        W32449  18.548  32.913   3.758
70996W        W32450  18.568   8.879   3.212
70997W        W32451  25.516  31.059  12.034
70998W        W32452  20.042  40.487  13.374
70999W        W32453   2.240  38.473  13.977
71000W        W32454  17.130   8.758   4.249
71001W        W32455  19.568  35.487  14.494
71002W        W32456  36.380  35.028   0.321
71003W        W32457  29.532  17.735  14.498
71004W        W32458  15.291  22.204  10.919
71005W        W32459  26.612  35.370   3.696
71006W        W32460  37.914   8.380  12.539
71007W        W32461  41.877  36.540   2.706
71008W        W32462  30.161  16.631  14.914
71009W        W32463  10.251  17.229  12.545
71010W        W32464   9.649   3.345  12.930
71011W        W32465  38.539  30.032   1.792
71012W        W32466   2.909  32.052  12.838
71013W        W32467   9.854  13.123  14.477
71014W        W32468  22.217  43.499  10.599
71015W        W32469  28.011  30.506  10.023
71016W        W32470  16.673  38.527   0.731
71017W        W32471   8.391  30.418  14.792
71018W        W32472  39.464  42.026   1.393
71019W        W32473  12.791  19.635   0.886
71020W        W32474  37.865  41.295  12.999
71021W        W32475  39.510  29.639   2.713
71022W        W32476   7.375   1.858   1.285
71023W        W32477  11.368  42.298   0.346
71024W        W32478  11.334  11.355   0.967
71025W        W32479  11.280  13.164  14.960
71026W        W32480   3.850  35.402  13.818
71027W        W32481  14.745  28.587  11.929
71028W        W32482  22.632  24.083   3.385
71029W        W32483  14.303   4.363  12.836
71030W        W32484   0.849  19.615   3.215
71031W        W32485   7.879  40.864  12.003
71032W        W32486  29.460   6.244  14.934
71033W        W32487  12.145  29.062  13.826
71034W        W32488   6.256   8.900  13.891
71035W        W32489  34.869   7.218   4.648
71036W        W32490  35.101  10.316   0.864
71037W        W32491  18.185  23.568   3.761
71038W        W32492  39.401  13.134  13.842
71039W        W32493  35.084  17.072  13.869
71040W        W32494  44.433  42.324   2.237
71041W        W32495  27.583  44.925   2.219
71042W        W32496  21.657  17.643  10.618
71043W        W32497  31.051  37.954   2.900
71044W        W32498   0.806  15.219  11.932
71045W        W32499  41.425  32.510   4.227
71046W        W32500   8.293   2.775   3.707
71047W        W32501  30.912   6.188  10.969
71048W        W32502   6.699   8.795  12.471
71049W        W32503  38.552  43.941  14.473
71050W        W32504  41.405  41.828  12.362
71051W        W32505  11.194   7.243  11.879
71052W        W32506  30.656  14.785   2.880
71053W        W32507  31.984  43.987   1.791
71054W        W32508  34.402  40.797   3.762
71055W        W32509   3.872   1.256  11.110
71056W        W32510  26.124  14.112  12.497
71057W        W32511  44.914  38.571  13.835
71058W        W32512   4.724   3.953  14.978
71059W        W32513  11.646  39.967   3.319
71060W        W32514  24.163  41.978   1.832
71061W        W32515  19.243  18.598  13.815
71062W        W32516  37.030  22.136   2.195
71063W        W32517  31.448  34.892   0.249
71064W        W32518  39.509  33.070   2.325
71065W        W32519  34.906  11.669  14.769
71066W        W32520   7.858  19.592  10.081
71067W        W32521   6.797  33.593   2.825
71068W        W32522  19.552  20.749  13.833
71069W        W32523   1.356  28.546  11.444
71070W        W32524  39.869   1.343   0.451
71071W        W32525  35.955   2.952  10.895
71072W        W32526  24.064   1.464   0.851
71073W        W32527  43.953  28.128  14.402
71074W        W32528  24.592  13.109   1.929
71075W        W32529  15.273  20.187   4.810
71076W        W32530  43.887   8.161  13.417
71077W        W32531  22.218  44.779  11.975
71078W        W32532  23.716  38.935  12.897
71079W        W32533   0.835   0.370   1.386
71080W        W32534  15.811  17.085  12.971
71081W        W32535  17.700   6.333  11.607
71082W        W32536  24.033  18.205  11.059
71083W        W32537  28.434  10.817  12.924
71084W        W32538  15.136  11.647   1.382
71085W        W32539  16.634  39.991  11.427
71086W        W32540  15.624  15.230   2.332
71087W        W32541  26.555  12.827  11.453
71088W        W32542  27.966  28.639   4.604
71089W        W32543  43.472   6.427  10.111
71090W        W32544  37.560  13.224  12.863
71091W        W32545  41.408  27.008   2.779
71092W        W32546  14.834  10.263   2.256
71093W        W32547   9.723  18.111   4.165
71094W        W32548  43.861  30.626   1.305
71095W        W32549   2.473  11.354  11.914
71096W        W32550   5.313  27.008  12.046
71097W        W32551  23.732  28.587  11.963
71098W        W32552  32.545   6.869  14.994
71099W        W32553  15.821   1.767  13.008
71100W        W32554  10.152  13.628  13.990
71101W        W32555  39.046  24.672  10.510
71102W        W32556  34.572  42.296   0.962
71103W        W32557  21.692  14.316   5.319
71104W        W32558   7.323  24.482   3.766
71105W        W32559   5.318  43.350  11.459
71106W        W32560  35.084  44.792  12.858
71107W        W32561  29.154  13.199  11.450
71108W        W32562  41.538  15.664   2.243
71109W        W32563   4.223  10.138  11.108
71110W        W32564  32.012  21.261   2.863
71111W        W32565  24.546  39.444  11.441
71112W        W32566   9.163  16.730  11.414
71113W        W32567  43.337   7.844   4.242
71114W        W32568  23.638  26.583  14.930
71115W        W32569   8.229  39.960   1.740
71116W        W32570  19.727  40.317  12.974
71117W        W32571  33.060  16.650   3.798
71118W        W32572  34.080  14.316  11.444
71119W        W32573  39.320  21.545   3.785
71120W        W32574  37.360  11.739  11.882
71121W        W32575  34.512   7.200  13.423
71122W        W32576   6.384  29.135  12.404
71123W        W32577   8.878  37.049   4.832
71124W        W32578  44.788   2.452   1.706
71125W        W32579  26.589   9.356  10.902
71126W        W32580  16.658   8.752   0.369
71127W        W32581  13.708  35.854   3.151
71128W        W32582   9.211   5.788  14.770
71129W        W32583  41.809   2.312  12.343
71130W        W32584  37.581  29.166  14.331
71131W        W32585   5.820  28.081  12.470
71132W        W32586  43.883   0.488   4.308
71133W        W32587  26.069  33.952  13.548
71134W        W32588  36.841  37.884   1.923
71135W        W32589  17.119   3.459   4.259
71136W        W32590  41.322  27.132  13.039
71137W        W32591  30.945  26.011  12.500
71138W        W32592  15.612  22.207  10.473
71139W        W32593   8.685  43.401   4.766
71140W        W32594  26.696  36.512   3.255
71141W        W32595  43.472   7.710   3.785
71142W        W32596  44.441  10.305  14.298
71143W        W32597  24.973  14.289   0.476
71144W        W32598   6.258  31.448   4.305
71145W        W32599   8.825  41.970   2.759
71146W        W32600  44.378  29.480   1.324
71147W        W32601  42.977  42.882  14.966
71148W        W32602  13.788  16.719  14.826
71149W        W32603  24.218  20.657   4.672
71150W        W32604   6.385  44.768   0.439
71151W        W32605  42.368  40.812   1.715
71152W        W32606  13.618   5.348   3.820
71153W        W32607  13.705  40.883   5.266
71154W        W32608  26.029  14.166   3.736
71155W        W32609  25.132   0.313  13.968
71156W        W32610  40.895  28.582   2.212
71157W        W32611   4.831  10.384   1.795
71158W        W32612   4.319  17.651   4.351
71159W        W32613  26.063  32.402  14.368
71160W        W32614  42.922   5.334   0.899
71161W        W32615  40.378  28.955  13.497
71162W        W32616  30.564  26.587   0.281
71163W        W32617  30.424  25.492   4.701
71164W        W32618  23.987  33.111   2.384
71165W        W32619  25.541  15.732   1.445
71166W        W32620  12.136  17.643   9.557
71167W        W32621  37.442  43.469  14.818
71168W        W32622   0.802  14.773   3.366
71169W        W32623  40.348  17.083   0.905
71170W        W32624  17.305  33.079  10.480
71171W        W32625   9.271   6.413   3.376
71172W        W32626  34.917   7.707  11.069
71173W        W32627  10.649  27.639   4.287
71174W        W32628  36.069  21.631  10.470
71175W        W32629   7.844   1.449   2.858
71176W        W32630  27.600  19.082   1.910
71177W        W32631   1.822  35.565   1.706
71178W        W32632  11.818  37.897  14.452
71179W        W32633  11.792  18.757  14.444
71180W        W32634  11.865  42.859  10.919
71181W        W32635  37.336  16.801  10.014
71182W        W32636  44.949  40.515  13.430
71183W        W32637  30.116   5.809  13.310
71184W        W32638  38.342  40.911  11.488
71185W        W32639  26.985  10.671   2.303
71186W        W32640   8.281   9.686  10.990
71187W        W32641  10.144  12.661  10.592
71188W        W32642   8.259  25.015   2.419
71189W        W32643  10.286  12.782   2.287
71190W        W32644  26.056  35.968   0.731
71191W        W32645  41.922  26.164  14.898
71192W        W32646   8.857  21.120   1.284
71193W        W32647  33.965  13.802   0.827
71194W        W32648  44.277  15.167  12.887
71195W        W32649  31.120   0.982  14.875
71196W        W32650  38.839  41.433   2.335
71197W        W32651   2.298  34.932  11.121
71198W        W32652  12.612  42.826  13.527
71199W        W32653   6.885  42.312   1.273
71200W        W32654  29.642  12.351  13.320
71201W        W32655  19.585  27.517   2.815
71202W        W32656  16.219   9.765   1.727
71203W        W32657   5.790   2.721  14.005
71204W        W32658  41.962  24.023   2.814
71205W        W32659  36.504  10.675   2.279
71206W        W32660   9.853  40.375   1.901
71207W        W32661  17.122   8.210   2.291
71208W        W32662  26.583  19.585   0.428
71209W        W32663  21.536  38.006  12.077
71210W        W32664   9.841   8.667   1.337
71211W        W32665  32.894   3.320  11.894
71212W        W32666  27.142  11.256  12.025
71213W        W32667  40.382   7.785   3.307
71214W        W32668  13.315   8.359   4.618
71215W        W32669  12.612  16.795  14.352
71216W        W32670  13.171   1.923  11.911
71217W        W32671  37.483  43.400   5.283
71218W        W32672   8.775  10.347  13.849
71219W        W32673   8.175  10.349  10.108
71220W        W32674  16.271  36.034   1.319
71221W        W32675   8.175  42.857  11.481
71222W        W32676   5.748  41.005  12.565
71223W        W32677  13.819  25.998  13.487
71224W        W32678  42.885  28.545   0.433
71225W        W32679   8.746  12.721  11.451
71226W        W32680  35.011  15.605   3.805
71227W        W32681  35.437  32.626   2.720
71228W        W32682  21.125  42.909  13.925
71229W        W32683  41.360  22.656   3.633
71230W        W32684  28.028  24.120   0.901
71231W        W32685  43.415   7.339  13.366
71232W        W32686  34.517  36.922  14.348
71233W        W32687  23.992   1.784   9.961
71234W        W32688  27.688  28.509   2.761
71235W        W32689  13.732   0.316   3.145
71236W        W32690  42.892   7.850   0.365
71237W        W32691  44.813   4.925   0.895
71238W        W32692  32.076  41.798   1.252
71239W        W32693  42.500  43.382  11.100
71240W        W32694  17.772  31.934   3.809
71241W        W32695  38.908  10.210   5.179
71242W        W32696  24.480   5.335  12.969
71243W        W32697  42.847   1.902  11.084
71244W        W32698  17.701   5.860   3.827
71245W        W32699   8.685  11.759   5.153
71246W        W32700  32.083  31.632  10.888
71247W        W32701  12.351   7.229  14.870
71248W        W32702   3.291  44.281  12.547
71249W        W32703  23.990  21.724   1.385
71250W        W32704  13.762  39.432   2.390
71251W        W32705   7.767  28.558   1.263
71252W        W32706  16.592   0.787   3.736
71253W        W32707  17.286  15.091   3.164
71254W        W32708  39.369   4.899   4.304
71255W        W32709  12.724  24.128   4.136
71256W        W32710  29.109  23.088  13.938
71257W        W32711  33.541  35.396  12.469
71258W        W32712  24.484  23.107   4.624
71259W        W32713  22.662   8.736  14.301
71260W        W32714   7.390   0.491   4.737
71261W        W32715  39.324   7.280  13.525
71262W        W32716  14.267  12.714  11.542
71263W        W32717  44.908  32.055  13.443
71264W        W32718   1.965  31.055   4.682
71265W        W32719  34.454  41.830  12.018
71266W        W32720  33.060  42.378  10.562
71267W        W32721  10.269   6.244  12.895
71268W        W32722  16.172  18.549  13.307
71269W        W32723  13.780  36.462   0.290
71270W        W32724   5.725   1.383  13.881
71271W        W32725   5.925  28.957  10.444
71272W        W32726   0.326  15.633  13.944
71273W        W32727  28.563  36.912   1.373
71274W        W32728  28.517  20.675   3.314
71275W        W32729   3.442  41.865   1.238
71276W        W32730  43.485   3.309   2.820
71277W        W32731  14.730  32.420  11.961
71278W        W32732  10.241  35.039  13.861
71279W        W32733  33.890  24.647   2.315
71280W        W32734   6.740  16.574   0.290
71281W        W32735   9.721  23.687   4.202
71282W        W32736  36.478   0.827  11.504
71283W        W32737  31.028  38.474   0.433
71284W        W32738   7.412  23.119  12.910
71285W        W32739  24.657  17.145  14.985
71286W        W32740   1.466   1.291  11.029
71287W        W32741  11.268  16.656   1.327
71288W        W32742  43.969  23.730  14.860
71289W        W32743   8.708  39.532   0.290
71290W        W32744   5.404   9.337   2.227
71291W        W32745  34.019  41.311  13.511
71292W        W32746  10.356  20.029  11.386
71293W        W32747  33.101  23.187   3.259
71294W        W32748  15.580  37.023  10.952
71295W        W32749  24.159   9.838  11.910
71296W        W32750  25.505  23.195  13.342
71297W        W32751   2.891  31.088  12.908
71298W        W32752  13.232  31.606   2.367
71299W        W32753  32.600  43.872  14.277
71300W        W32754  21.708   6.284   9.492
71301W        W32755  35.094  30.004   3.780
71302W        W32756  19.762  21.560   3.663
71303W        W32757  30.461   2.425  12.555
71304W        W32758  11.728   6.912  13.348
71305W        W32759  35.069  18.164  14.369
71306W        W32760  10.254  19.729   9.959
71307W        W32761   4.290  32.477   4.148
71308W        W32762  26.023  32.392  11.483
71309W        W32763  13.843  27.619   2.743
71310W        W32764   8.772  25.965   3.326
71311W        W32765  23.012  35.517   3.828
71312W        W32766   6.362  32.946  13.471
71313W        W32767   1.339  31.628  11.467
71314W        W32768  38.960   4.916  12.083
71315W        W32769  12.843  41.789   0.460
71316W        W32770   9.730   5.917   3.664
71317W        W32771  29.085  37.059  12.963
71318W        W32772  29.003  26.178  10.420
71319W        W32773   5.894   2.416  14.477
71320W        W32774  16.657  35.048  10.644
71321W        W32775  21.711  18.102   3.691
71322W        W32776  10.748  31.597  14.401
71323W        W32777  43.988  12.348  12.056
71324W        W32778  38.347   8.349   0.961
71325W        W32779  26.022  17.708  10.496
71326W        W32780  42.404   7.793   3.235
71327W        W32781  43.017   2.368   5.249
71328W        W32782  12.159   9.175  13.918
71329W        W32783  29.007  14.670   0.922
71330W        W32784  10.319  18.725   1.446
71331W        W32785  17.757  31.969  14.872
71332W        W32786  11.353  32.475   1.842
71333W        W32787  30.550   3.847  13.387
71334W        W32788  10.672  13.343  13.922
71335W        W32789  41.976  30.503  12.366
71336W        W32790  25.979  23.717  14.864
71337W        W32791  21.665  24.145  13.436
71338W        W32792  37.968   5.196  12.057
71339W        W32793   1.368  24.177   0.842
71340W        W32794  32.904  44.383  13.433
71341W        W32795  29.556  12.337   1.304
71342W        W32796   5.772  11.816   3.692
71343W        W32797  16.686  33.590   2.265
71344W        W32798  11.843  25.123  11.042
71345W        W32799  38.558  36.847  12.945
71346W        W32800   1.969   1.410  11.484
71347W        W32801  34.991  42.527   0.790
71348W        W32802  18.228  42.837   0.728
71349W        W32803  25.664  24.604   2.401
71350W        W32804  15.206  17.574  14.913
71351W        W32805  17.575  33.562   3.857
71352W        W32806   1.310  34.577  12.396
71353W        W32807   8.873  34.087   3.315
71354W        W32808  41.468  15.196   2.315
71355W        W32809  21.586  32.612   2.866
71356W        W32810  40.501  43.901  12.929
71357W        W32811   9.192  11.632  14.834
71358W        W32812  16.183  20.758  12.838
71359W        W32813  23.163  11.820   2.775
71360W        W32814  13.141   3.331   2.393
71361W        W32815   6.412  21.229  12.998
71362W        W32816  32.992  20.178  12.011
71363W        W32817   5.302   2.321   3.825
71364W        W32818  29.465  35.019   0.407
71365W        W32819  33.384  12.833  12.369
71366W        W32820  29.578  12.661  10.641
71367W        W32821  38.004  27.069   3.269
71368W        W32822  26.685   4.771   5.181
71369W        W32823  42.875   9.304  12.429
71370W        W32824  19.700  13.230  11.047
71371W        W32825  44.302  29.592  14.786
71372W        W32826  34.878  38.001  10.899
71373W        W32827   8.767  17.636   2.294
71374W        W32828  24.525   3.377   4.135
71375W        W32829  24.589  20.597  14.849
71376W        W32830  10.729   8.262  14.881
71377W        W32831  27.962  44.808  12.856
71378W        W32832  29.049  30.124   4.823
71379W        W32833   7.330  16.251  11.059
71380W        W32834  37.343  43.369   3.744
71381W        W32835  36.526   3.343  12.375
71382W        W32836  26.173  20.768   1.902
71383W        W32837  39.877  11.324   4.255
71384W        W32838  31.948  35.567  11.115
71385W        W32839  10.337  44.358  10.984
71386W        W32840  31.061   5.721   3.636
71387W        W32841  34.609   6.381  11.420
71388W        W32842  40.000   4.729  12.036
71389W        W32843  25.500  23.598  12.884
71390W        W32844  42.029  44.412  12.480
71391W        W32845  36.430  24.701  13.043
71392W        W32846  13.840  12.628   2.351
71393W        W32847  17.704  20.630  12.514
71394W        W32848  44.859  36.098  11.581
71395W        W32849  24.592  36.954   1.788
71396W        W32850  38.505  44.925   0.367
71397W        W32851  35.048   3.744  11.375
71398W        W32852  24.996  41.808  12.824
71399W        W32853  44.866  11.704   4.668
71400W        W32854  20.108  25.606  13.308
71401W        W32855  23.635  22.505   0.258
71402W        W32856   8.207  12.363  11.063
71403W        W32857  31.466   8.766  11.416
71404W        W32858  40.344  13.838  11.467
71405W        W32859   0.812  44.498  12.448
71406W        W32860  29.132  22.173  14.850
71407W        W32861  26.638   3.373   0.323
71408W        W32862  37.527  26.002  10.889
71409W        W32863  19.180  16.710   0.245
71410W        W32864  25.671  24.507   1.351
71411W        W32865  37.899   5.745  13.046
71412W        W32866  40.978  19.620  11.990
71413W        W32867  44.326  17.780  13.905
71414W        W32868  41.948  22.157   3.240
71415W        W32869  25.530  27.175   1.859
71416W        W32870   4.776  23.131  12.938
71417W        W32871  13.216  35.462   1.407
71418W        W32872  36.939  20.534   0.255
71419W        W32873   0.897   4.719  10.592
71420W        W32874  40.939   4.211  12.433
71421W        W32875   2.865   5.694  11.944
71422W        W32876  30.507  44.318   5.193
71423W        W32877   0.457  34.456  13.031
71424W        W32878  18.253  20.601  12.939
71425W        W32879  11.316  12.706  13.362
71426W        W32880  43.982  18.708  12.868
71427W        W32881  20.601  20.751  11.587
71428W        W32882  28.680   8.266  12.885
71429W        W32883   0.753  23.728   4.142
71430W        W32884   0.771  27.060  13.829
71431W        W32885  17.153  33.525   2.279
71432W        W32886  11.325  40.805  11.545
71433W        W32887  37.840   4.767  13.977
71434W        W32888   9.227  15.817  14.438
71435W        W32889  27.991   5.908  10.509
71436W        W32890   0.766   4.252  13.958
71437W        W32891  35.040  20.097  13.863
71438W        W32892   2.287  30.544  10.094
71439W        W32893   5.818   6.262  11.468
71440W        W32894  18.122   7.401   3.788
71441W        W32895  20.602  44.900  11.075
71442W        W32896  16.640   1.756  12.915
71443W        W32897  11.750  25.531   3.761
71444W        W32898  44.936  23.554  13.384
71445W        W32899   9.247   7.298  13.912
71446W        W32900   5.307  35.889   3.254
71447W        W32901  19.639  15.581   0.317
71448W        W32902   7.911  43.286   4.819
71449W        W32903  30.581   0.282   0.246
71450W        W32904  25.629  43.289  13.348
71451W        W32905  18.279   1.317  11.019
71452W        W32906  43.480  26.150   1.325
71453W        W32907   6.885  11.794   0.771
71454W        W32908   2.853  35.876   3.743
71455W        W32909   0.948  26.488   3.741
71456W        W32910  30.478  13.184   0.425
71457W        W32911  33.102  14.653  13.027
71458W        W32912  30.959  25.706   2.891
71459W        W32913  25.093  42.934   3.227
71460W        W32914   7.780  39.923  11.077
71461W        W32915  43.413  22.181   2.292
71462W        W32916  15.581   3.331  13.396
71463W        W32917  35.482  43.021   2.739
71464W        W32918  24.989   2.241  11.874
71465W        W32919  12.664  12.665  12.006
71466W        W32920  29.135  18.079  14.491
71467W        W32921  31.560  20.225   4.707
71468W        W32922  38.328   8.702  12.517
71469W        W32923  32.592  29.602  13.981
71470W        W32924  18.688   0.322  11.537
71471W        W32925  34.587   0.275  12.534
71472W        W32926  32.013  40.845  14.934
71473W        W32927  18.609  34.423  14.369
71474W        W32928  28.094  24.047   3.644
71475W        W32929  38.904  44.368   2.806
71476W        W32930   0.858  26.677   0.268
71477W        W32931   4.357  40.321   4.621
71478W        W32932  34.042  15.823  14.899
71479W        W32933  28.078  11.158  10.596
71480W        W32934  27.651  37.968  11.439
71481W        W32935   2.263   9.820  12.489
71482W        W32936   8.739  21.067  11.082
71483W        W32937  35.907  13.149   3.373
71484W        W32938   7.380  36.389   3.217
71485W        W32939   8.748  36.439   1.393
71486W        W32940  36.482   2.281   0.449
71487W        W32941  22.189   1.337  13.895
71488W        W32942   7.367  14.760   0.732
71489W        W32943  41.478  30.149   2.269
71490W        W32944  32.426  23.141  13.812
71491W        W32945  30.649  32.979   4.159
71492W        W32946  41.991  17.752  12.563
71493W        W32947   7.824  41.498   4.684
71494W        W32948   6.240  21.131  13.378
71495W        W32949   1.257  20.047  11.091
71496W        W32950  13.217   0.266  12.537
71497W        W32951   4.761   0.829   4.641
71498W        W32952  35.497   9.379   4.601
71499W        W32953   7.321   2.371   1.332
71500W        W32954  20.582   0.762   4.258
71501W        W32955  31.004  13.300  14.946
71502W        W32956  18.632  37.568  10.057
71503W        W32957  28.985  31.949  12.943
71504W        W32958  41.821  22.509   1.241
71505W        W32959   8.291  15.702  12.377
71506W        W32960  24.130  44.765   1.235
71507W        W32961  19.574  41.820  11.946
71508W        W32962  15.664  32.584   4.785
71509W        W32963  21.613  11.839   3.674
71510W        W32964  37.512  11.356  10.957
71511W        W32965  25.106  39.947   2.196
71512W        W32966  31.487  17.178   0.471
71513W        W32967  30.492  10.721   2.833
71514W        W32968  28.647  26.187   1.700
71515W        W32969  27.952  31.979  14.829
71516W        W32970  34.949  20.073   1.437
71517W        W32971  17.735  42.340   2.798
71518W        W32972  38.939  21.562  10.538
71519W        W32973  43.294   8.210   3.340
71520W        W32974  26.145  18.117   2.399
71521W        W32975  18.106   1.925  10.423
71522W        W32976  23.188  36.519  13.941
71523W        W32977  39.931   4.242  14.820
71524W        W32978  35.566   0.251   0.435
71525W        W32979  44.475  20.032  11.547
71526W        W32980  17.763  13.718  10.569
71527W        W32981  21.586   4.405   4.683
71528W        W32982  31.603  43.009  13.439
71529W        W32983   6.267  14.777   2.317
71530W        W32984  19.240  21.727   0.871
71531W        W32985  19.633  25.038  12.364
71532W        W32986   3.366  29.954  10.491
71533W        W32987  31.513  22.515   4.229
71534W        W32988  29.585  42.290  13.319
71535W        W32989  37.987  11.845   0.394
71536W        W32990  41.005   1.435   0.868
71537W        W32991  41.875  18.169  14.948
71538W        W32992  15.192  26.046  11.476
71539W        W32993  31.042  28.952   2.275
71540W        W32994   0.328   9.719   2.753
71541W        W32995  18.076  32.046  13.996
71542W        W32996  28.982  13.618   3.739
71543W        W32997  29.623  34.029   9.598
71544W        W32998  30.587   7.363  12.433
71545W        W32999  10.836  10.722   4.352
71546W        W33000   4.902  35.428  10.551
71547W        W33001  28.181   3.351  12.546
71548W        W33002  17.175  41.316  12.536
71549W        W33003  10.694  16.317  14.880
71550W        W33004  17.194  15.584   2.867
71551W        W33005  35.892  31.572  13.469
71552W        W33006   2.302  32.614   0.414
71553W        W33007  20.665  10.155   2.796
71554W        W33008  33.460   9.153   3.712
71555W        W33009  14.738  42.813   0.452
71556W        W33010  32.446  23.208  14.387
71557W        W33011  21.594  19.158   4.268
71558W        W33012  34.018   7.843  10.553
71559W        W33013  16.090   0.891   3.148
71560W        W33014  25.501  33.517   3.192
71561W        W33015  24.650  33.128  13.792
71562W        W33016  16.629   6.824  11.417
71563W        W33017  17.714  41.348  11.581
71564W        W33018  26.556   5.720   2.375
71565W        W33019  39.361  12.220  10.995
71566W        W33020  10.261  20.672   1.930
71567W        W33021  19.130  31.541  10.623
71568W        W33022  39.909  28.464   1.880
71569W        W33023  22.161   1.912   3.815
71570W        W33024  36.533   7.376  11.588
71571W        W33025  40.966  18.163   0.353
71572W        W33026  34.057  36.487   1.215
71573W        W33027  23.699  13.257   1.386
71574W        W33028   4.854  11.322   2.832
71575W        W33029  24.658  22.223  13.801
71576W        W33030   1.392  18.284   0.815
71577W        W33031  23.165   5.691  12.394
71578W        W33032  22.574  38.475   0.335
71579W        W33033   2.861  26.174  14.013
71580W        W33034  26.535  36.459  12.346
71581W        W33035  33.880  39.877  11.927
71582W        W33036  35.899  37.372   1.881
71583W        W33037  43.432  38.063   1.916
71584W        W33038  31.136  17.299   3.274
71585W        W33039  19.536  27.160   2.799
71586W        W33040  26.693  22.596   2.683
71587W        W33041  14.760  35.550   3.838
71588W        W33042  18.657   3.425  14.406
71589W        W33043  32.014  24.551   3.380
71590W        W33044  27.102   8.784   2.764
71591W        W33045   3.333   2.948   1.931
71592W        W33046  31.582  37.036  10.630
71593W        W33047   0.378  30.649   1.431
71594W        W33048  13.274  18.256  13.047
71595W        W33049  10.674  28.609  12.509
71596W        W33050  12.847   7.188  10.644
71597W        W33051  21.230   4.932  10.470
71598W        W33052  12.217  19.573  14.482
71599W        W33053  17.239   1.836   2.774
71600W        W33054  17.657   1.266   4.325
71601W        W33055  40.421  24.027  14.872
71602W        W33056  20.186  29.499  13.470
71603W        W33057  11.258  17.687   1.720
71604W        W33058  13.693  35.875   4.257
71605W        W33059  36.018  27.688   0.337
71606W        W33060  15.735  25.563  11.090
71607W        W33061  20.765  37.959   4.337
71608W        W33062  11.712  31.593   5.161
71609W        W33063  33.607  18.101   5.311
71610W        W33064  12.149  31.483   4.837
71611W        W33065   1.779  34.397  13.474
71612W        W33066   4.773  23.543   3.354
71613W        W33067   6.316  41.787  13.014
71614W        W33068  15.673   6.415  14.926
71615W        W33069   8.397  25.485   3.743
71616W        W33070  15.707  37.507  12.354
71617W        W33071  35.396  25.688   2.707
71618W        W33072   2.830  21.097   5.312
71619W        W33073  27.096  32.015   0.325
71620W        W33074  33.428  44.390   3.227
71621W        W33075  12.344  37.023   3.776
71622W        W33076  17.089  14.653   4.762
71623W        W33077  42.359  42.471   4.651
71624W        W33078  42.398  20.589  12.347
71625W        W33079  12.712  35.986  14.790
71626W        W33080   6.885   0.305   3.147
71627W        W33081   4.701  12.686   3.753
71628W        W33082  41.319   3.255   0.301
71629W        W33083  33.507  19.728  13.460
71630W        W33084   7.898   2.304   3.346
71631W        W33085  22.512   8.709  13.475
71632W        W33086  16.703  44.993   3.696
71633W        W33087   2.397  29.611   2.827
71634W        W33088  32.494  44.969   0.870
71635W        W33089  18.615  44.757   3.635
71636W        W33090   1.379  21.045  14.766
71637W        W33091   6.364  35.861  13.061
71638W        W33092  23.034  33.384  12.993
71639W        W33093  24.059  29.452  11.475
71640W        W33094  41.402   5.854  13.041
71641W        W33095  14.818  13.132  11.541
71642W        W33096   7.828  12.644  10.586
71643W        W33097  35.469  34.986   3.771
71644W        W33098  24.203  18.755   3.298
71645W        W33099  43.335  32.573   1.886
71646W        W33100  16.722   1.842  14.482
71647W        W33101   3.406  30.069  11.884
71648W        W33102  33.922   8.290  14.922
71649W        W33103  10.633   5.237   4.784
71650W        W33104  27.023  36.460  14.958
71651W        W33105  12.139  22.050   3.355
71652W        W33106  27.177  41.492  14.397
71653W        W33107  29.134  40.014   1.377
71654W        W33108   1.468   1.751  11.387
71655W        W33109  18.126  39.444  14.414
71656W        W33110  28.491   1.851   2.695
71657W        W33111   6.310  34.434   0.454
71658W        W33112   0.411  21.062   0.810
71659W        W33113  13.192   9.741  10.915
71660W        W33114  24.676  31.643   0.774
71661W        W33115  17.629  29.946  10.938
71662W        W33116   6.715  40.020  10.924
71663W        W33117   7.728  11.218  11.432
71664W        W33118  38.388  26.475  14.826
71665W        W33119  41.436  35.879  11.533
71666W        W33120  38.891   8.312  14.796
71667W        W33121  33.394  40.347  13.975
71668W        W33122  40.446  20.081   3.658
71669W        W33123  38.878   8.758  12.032
71670W        W33124  27.569  37.505  11.462
71671W        W33125  39.841  32.547   0.421
71672W        W33126  35.893  29.503   0.868
71673W        W33127  29.033   5.271   3.760
71674W        W33128  20.089  42.373   0.373
71675W        W33129   4.266  39.871   3.381
71676W        W33130  22.602  26.651  13.328
71677W        W33131  11.301  15.753  13.797
71678W        W33132  21.642  36.878  11.035
71679W        W33133  35.016  12.139   3.712
71680W        W33134  34.499  12.692  11.060
71681W        W33135  18.252   9.335  14.925
71682W        W33136   8.840  13.760   1.348
71683W        W33137  20.679   0.832   3.831
71684W        W33138  19.694  37.532  11.973
71685W        W33139   4.775   2.450  11.401
71686W        W33140  19.714  12.239  10.507
71687W        W33141   9.239  41.466  11.921
71688W        W33142  28.481  43.883   0.893
71689W        W33143  31.150  21.123  13.810
71690W        W33144  20.203  15.667  14.786
71691W        W33145   3.954  44.269   3.307
71692W        W33146  42.318  21.518   3.784
71693W        W33147  19.212  10.691  12.980
71694W        W33148   1.754   8.770  13.423
71695W        W33149  14.281  32.514  12.408
71696W        W33150  39.398  40.388  14.005
71697W        W33151   6.836  25.704   4.720
71698W        W33152   2.922  17.685   0.787
71699W        W33153   2.785  31.425   0.267
71700W        W33154  25.677   9.165   5.699
71701W        W33155   7.712  40.494  13.821
71702W        W33156  31.134   2.881   4.765
71703W        W33157   0.811  16.705  11.886
71704W        W33158  15.169   9.221  14.453
71705W        W33159  22.637  32.580  14.313
71706W        W33160  16.591  12.821   2.366
71707W        W33161   9.358   8.662   1.859
71708W        W33162  42.526   2.409  14.417
71709W        W33163   5.822   4.207  11.875
71710W        W33164  28.043   2.772   0.419
71711W        W33165  43.914  35.511   0.321
71712W        W33166  15.179  42.961  14.001
71713W        W33167  15.228   1.826  12.050
71714W        W33168  37.568  43.352   3.376
71715W        W33169   3.413   1.912  11.396
71716W        W33170  35.038  28.156   0.923
71717W        W33171  13.744  24.105   2.780
71718W        W33172  38.523  14.779  13.384
71719W        W33173   8.310  24.017  13.001
71720W        W33174  40.962  28.455   1.906
71721W        W33175  28.179  13.278   5.178
71722W        W33176  33.424  34.392   0.898
71723W        W33177  40.983  17.718  12.069
71724W        W33178   0.473  16.199   3.180
71725W        W33179  34.404  22.731  12.347
71726W        W33180  29.468  27.180  10.435
71727W        W33181  38.356  25.629  14.798
71728W        W33182  42.802  11.670   0.875
71729W        W33183  30.948   4.830   0.816
71730W        W33184  12.831  25.602  14.992
71731W        W33185   9.674  33.979   0.453
71732W        W33186  14.278  29.615  12.545
71733W        W33187   5.722   3.228  10.467
71734W        W33188  12.720  34.919   1.300
71735W        W33189  38.393   3.722   4.684
71736W        W33190  35.108  27.510  11.030
71737W        W33191  37.945  39.554  11.543
71738W        W33192  24.723  39.956   4.686
71739W        W33193  15.777  37.378   4.763
71740W        W33194   3.902   3.447   3.321
71741W        W33195  33.477  16.285   0.335
71742W        W33196  30.129   8.764   1.389
71743W        W33197   1.401  28.935  12.353
71744W        W33198  42.316  27.972  11.532
71745W        W33199  36.991  42.329   0.943
71746W        W33200  10.325  26.567  14.000
71747W        W33201   5.766  39.922   0.944
71748W        W33202  18.054  36.401  11.002
71749W        W33203  38.494   7.322  13.829
71750W        W33204  10.787  41.485   3.666
71751W        W33205  17.751  41.995  10.958
71752W        W33206   1.881   5.390   0.450
71753W        W33207  33.082   7.686  12.000
71754W        W33208  21.743   9.692   4.800
71755W        W33209   1.839   8.695   2.706
71756W        W33210  17.800  22.049  10.968
71757W        W33211  36.007  41.354  13.938
71758W        W33212  23.078  34.056  10.914
71759W        W33213  31.946  23.016   1.431
71760W        W33214  32.420  42.297  13.515
71761W        W33215  38.341  23.682  11.090
71762W        W33216  37.945   5.260   1.907
71763W        W33217   0.358  39.463   1.760
71764W        W33218  30.136   7.258   4.179
71765W        W33219   7.722  35.917  11.397
71766W        W33220   5.892   3.785  13.939
71767W        W33221  34.969   8.309  14.872
71768W        W33222  27.587  15.788   2.255
71769W        W33223  44.491  23.206  11.379
71770W        W33224   9.381   9.864   4.340
71771W        W33225   8.875  32.013  13.408
71772W        W33226   8.218   7.826   4.808
71773W        W33227  20.165  37.451  10.429
71774W        W33228   0.863  35.863  11.976
71775W        W33229   8.292   1.480   0.301
71776W        W33230  17.285  27.447   3.255
71777W        W33231   9.661   7.198   2.859
71778W        W33232  33.565   6.250  12.394
71779W        W33233  44.466  11.865  12.973
71780W        W33234  23.999  39.558   4.313
71781W        W33235  31.002  38.343  13.495
71782W        W33236  24.213  38.955   1.708
71783W        W33237  40.044  15.274  11.473
71784W        W33238   2.753  32.079   3.681
71785W        W33239  16.099  38.980   4.684
71786W        W33240   5.834  35.524  10.508
71787W        W33241  14.283  18.678  13.025
71788W        W33242   9.691  27.536   2.353
71789W        W33243  32.498  17.240  10.540
71790W        W33244   7.713   7.413  13.951
71791W        W33245  12.333   1.896  11.058
71792W        W33246   8.186  22.202   3.680
71793W        W33247  40.001  24.977  12.884
71794W        W33248  18.124  42.407  12.031
71795W        W33249   7.749   6.747  10.643
71796W        W33250  27.190  28.575  12.376
71797W        W33251   2.421   1.430   4.186
71798W        W33252   3.759  15.115  13.479
71799W        W33253  14.614  10.171  12.469
71800W        W33254   5.332  33.550  10.055
71801W        W33255  38.484  37.085  10.446
71802W        W33256  35.875  28.637  12.087
71803W        W33257   7.290  17.067  11.462
71804W        W33258  40.371  23.682   2.826
71805W        W33259  44.455  41.410  11.874
71806W        W33260  35.965  29.657  11.483
71807W        W33261   8.309  18.650   1.229
71808W        W33262   9.310  21.722   4.652
71809W        W33263  35.596  28.068  12.035
71810W        W33264  17.618  22.680  13.032
71811W        W33265  43.505  42.527  12.351
71812W        W33266  29.512  37.019  14.786
71813W        W33267   8.294  29.119  14.947
71814W        W33268   1.873  15.664  13.374
71815W        W33269  35.511   0.351   2.342
71816W        W33270   6.279  20.220   1.887
71817W        W33271   1.449  36.457   4.643
71818W        W33272  26.024  28.556  12.054
71819W        W33273  36.051  36.870  11.545
71820W        W33274   1.904  34.889  12.827
71821W        W33275  42.858   6.701  13.465
71822W        W33276  43.943  10.201   2.381
71823W        W33277   8.221   0.795   1.889
71824W        W33278  43.470   3.372  12.520
71825W        W33279  36.033  41.337   3.277
71826W        W33280  16.291  27.181  12.870
71827W        W33281  38.971  43.327   0.417
71828W        W33282  17.229  43.516   1.728
71829W        W33283  20.170  26.522   3.639
71830W        W33284  37.351  31.612  12.931
71831W        W33285  20.750   0.365  14.284
71832W        W33286   8.233  34.513   0.813
71833W        W33287   2.834  33.048   2.349
71834W        W33288  10.171  39.505  13.437
71835W        W33289  34.075  13.742  13.839
71836W        W33290  35.957  13.345   2.768
71837W        W33291  25.475  37.478   4.332
71838W        W33292  37.340  15.275  14.780
71839W        W33293  29.164  23.609  12.929
71840W        W33294  33.596  38.007  13.545
71841W        W33295  21.587   0.425  13.953
71842W        W33296   7.823  29.084   2.297
71843W        W33297  42.404  29.013  13.993
71844W        W33298  24.086  43.002   0.398
71845W        W33299  33.884   1.386  10.975
71846W        W33300  19.148  33.478   0.243
71847W        W33301   6.377   6.290  13.014
71848W        W33302  24.646   9.179  13.893
71849W        W33303  32.906  17.144  13.514
71850W        W33304  35.061  39.423   1.849
71851W        W33305   6.840  36.512   2.263
71852W        W33306  19.058  40.973   3.644
71853W        W33307  10.208  29.020  11.429
71854W        W33308  12.767  14.794   3.164
71855W        W33309   6.866  29.569  11.570
71856W        W33310  22.548  36.488  12.913
71857W        W33311  38.536  26.120   1.919
71858W        W33312   3.744   9.181  13.911
71859W        W33313  41.997  15.581  12.895
71860W        W33314  14.254  23.514  11.909
71861W        W33315  43.846  18.087  14.514
71862W        W33316  32.111  30.041   4.344
71863W        W33317  44.836   3.389  11.387
71864W        W33318  19.770  16.718  11.977
71865W        W33319  35.464  23.599  11.010
71866W        W33320  39.813  24.667   1.254
71867W        W33321  29.089  26.586  14.460
71868W        W33322   6.351  37.977   3.237
71869W        W33323   5.856  43.437  13.397
71870W        W33324  38.985  38.054  14.322
71871W        W33325  12.331  12.216  11.016
71872W        W33326  20.690  35.469  11.452
71873W        W33327   4.906  18.731   1.805
71874W        W33328  19.259  43.953  12.065
71875W        W33329   4.218  27.466  13.900
71876W        W33330  41.384  10.293   1.906
71877W        W33331  19.108  34.989  13.062
71878W        W33332  38.429  14.679   3.746
71879W        W33333  15.119  20.225  14.873
71880W        W33334  30.544  42.286   2.809
71881W        W33335  12.274   4.788   1.921
71882W        W33336  39.924  13.218   3.363
71883W        W33337   3.408  12.140  12.525
71884W        W33338   4.223   6.865   1.376
71885W        W33339  19.183  11.334   0.396
71886W        W33340   1.282  43.293  12.537
71887W        W33341  24.218   2.929  12.517
71888W        W33342  15.105  18.093  10.414
71889W        W33343  15.142  38.492  12.846
71890W        W33344   8.797  24.197  11.518
71891W        W33345   9.711  20.696   3.839
71892W        W33346  36.398  43.883  10.442
71893W        W33347  33.538  35.430  10.430
71894W        W33348  33.497   0.908  14.766
71895W        W33349  24.977   4.443  10.634
71896W        W33350   8.668   4.300   1.310
71897W        W33351  25.675  19.283  14.345
71898W        W33352  32.509  40.999  11.928
71899W        W33353   5.248   7.724   1.903
71900W        W33354  37.993   6.287  11.582
71901W        W33355  15.583  13.343   9.501
71902W        W33356  37.372  10.865  13.426
71903W        W33357  34.532   8.262   0.755
71904W        W33358  43.783  33.891   2.263
71905W        W33359  35.547  29.069   0.758
71906W        W33360  37.488  34.939  12.580
71907W        W33361  44.274   6.737  12.073
71908W        W33362  35.587  39.498  12.918
71909W        W33363  40.976   4.838  10.619
71910W        W33364  27.587  34.938   1.775
71911W        W33365  22.048  12.673  12.517
71912W        W33366   3.218   0.751  14.363
71913W        W33367   6.253  32.046  14.495
71914W        W33368  23.091  19.203  13.044
71915W        W33369   6.226  19.739  14.958
71916W        W33370  34.035  28.173  11.023
71917W        W33371   1.282  41.912   2.388
71918W        W33372  37.440  26.078   0.371
71919W        W33373  25.040  12.668  12.547
71920W        W33374   2.858  44.270  14.329
71921W        W33375  26.196   6.811   4.776
71922W        W33376  39.989   6.319  13.464
71923W        W33377   8.659   5.245  13.378
71924W        W33378  19.780   9.746  13.317
71925W        W33379  13.813  12.163  14.414
71926W        W33380  31.033   9.154  11.871
71927W        W33381  40.947   3.865   3.194
71928W        W33382  12.342  36.357  11.056
71929W        W33383  30.587   3.447  14.858
71930W        W33384   4.742   6.862  12.833
71931W        W33385  19.185  17.663  12.474
71932W        W33386  10.698  31.576   3.847
71933W        W33387   5.798  20.057  11.470
71934W        W33388   6.732   2.743  10.641
71935W        W33389  31.001   9.285  14.293
71936W        W33390  31.135  11.634  10.940
71937W        W33391   9.715  22.680   4.284
71938W        W33392  30.611  42.807  14.423
71939W        W33393  10.811   1.820   5.306
71940W        W33394   7.723  28.631  13.393
71941W        W33395   1.276  11.742  13.408
71942W        W33396   2.869   0.376   1.434
71943W        W33397   7.223  37.449  13.449
71944W        W33398  41.330  30.971   3.852
71945W        W33399  32.592  31.566  12.001
71946W        W33400   5.325   6.843  12.002
71947W        W33401  26.108  21.230  13.476
71948W        W33402   1.756  25.147  14.011
71949W        W33403   2.315  14.740   0.796
71950W        W33404  44.447  42.900  10.590
71951W        W33405  36.090  22.683  13.368
71952W        W33406  20.221  24.485  13.387
71953W        W33407  17.218  40.827   1.220
71954W        W33408   7.193  31.989  12.827
71955W        W33409   1.791   0.268   1.340
71956W        W33410  24.119  11.659   4.281
71957W        W33411  21.041  30.976  14.489
71958W        W33412  14.647   7.292  12.861
71959W        W33413  39.063   1.763  12.366
71960W        W33414  13.260  22.116   5.124
71961W        W33415  29.427  25.652   4.695
71962W        W33416  41.413   9.285   0.304
71963W        W33417   0.352   1.410   2.206
71964W        W33418   0.283  34.092  11.443
71965W        W33419  42.515  28.006  14.483
71966W        W33420  33.423  11.251   1.219
71967W        W33421  29.981   1.346  12.964
71968W        W33422  29.543  26.690   1.737
71969W        W33423  29.028  14.677  13.837
71970W        W33424  42.452  19.200   4.723
71971W        W33425  42.448  28.581   2.276
71972W        W33426  16.574  23.173   3.299
71973W        W33427   6.334   2.833   2.845
71974W        W33428  10.856   1.890   3.288
71975W        W33429  41.923  42.002   3.199
71976W        W33430  19.541  14.782  14.919
71977W        W33431  27.071   4.444   2.692
71978W        W33432  26.491  27.502  12.900
71979W        W33433  36.453  39.036   1.779
71980W        W33434  35.482  17.629   1.908
71981W        W33435  22.172  43.004  14.396
71982W        W33436  38.823  21.186  12.852
71983W        W33437  16.813  21.566   0.446
71984W        W33438  39.553  11.360   4.285
71985W        W33439  38.963  26.135  11.918
71986W        W33440  16.226  36.568   3.217
71987W        W33441  30.428   7.330   2.708
71988W        W33442   7.352  43.845  13.488
71989W        W33443   2.834  20.675  11.110
71990W        W33444  24.558  41.867  13.864
71991W        W33445   5.235  42.480   1.872
71992W        W33446  32.922  37.546   3.286
71993W        W33447  26.995  14.294   0.922
71994W        W33448   2.876  17.225   1.897
71995W        W33449   3.365  29.582   0.422
71996W        W33450  33.443  11.672   3.170
71997W        W33451  20.694  23.068  11.467
71998W        W33452  12.815  10.236   0.869
71999W        W33453   7.689  38.392   3.243
72000W        W33454  38.419   4.712   0.374
72001W        W33455  14.619  33.923   4.145
72002W        W33456  44.470  15.736  12.476
72003W        W33457   9.765  10.263   0.928
72004W        W33458  19.275  27.142   2.799
72005W        W33459  44.490  32.113   3.704
72006W        W33460  18.758   9.874   1.694
72007W        W33461  11.718  27.671  14.512
72008W        W33462  31.082  28.475  11.101
72009W        W33463  43.818   6.798   1.440
72010W        W33464  33.526   3.797   0.395
72011W        W33465  11.308  16.311   3.178
72012W        W33466  20.609  26.568   4.810
72013W        W33467  23.633  23.057  12.549
72014W        W33468   0.807  38.486  12.009
72015W        W33469  22.229  24.196  13.032
72016W        W33470  22.614  18.098   1.390
72017W        W33471   2.786  41.834  11.594
72018W        W33472  15.121  33.058   4.810
72019W        W33473  11.277  13.624  14.880
72020W        W33474   1.310  24.079  13.886
72021W        W33475  17.100  41.324   1.872
72022W        W33476  28.999  44.291  10.125
72023W        W33477  25.632   6.390   0.342
72024W        W33478   7.333  41.467   3.731
72025W        W33479  14.674  42.800   4.255
72026W        W33480  20.111   6.264  10.913
72027W        W33481  27.176  15.219   2.673
72028W        W33482   5.276  25.677  11.410
72029W        W33483  35.946  33.089  10.438
72030W        W33484  20.245  42.880   4.266
72031W        W33485  15.754  18.118  12.009
72032W        W33486  28.456  44.907  11.128
72033W        W33487  27.445  16.290  10.499
72034W        W33488  41.809  22.106   0.913
72035W        W33489  15.722   4.334  12.089
72036W        W33490   1.771   6.394  14.503
72037W        W33491   4.922  11.631   2.338
72038W        W33492  39.848  26.023   4.300
72039W        W33493  44.944  18.247   3.664
72040W        W33494   6.293  24.696  11.024
72041W        W33495  43.895  28.461   1.262
72042W        W33496  37.063  24.724   2.838
72043W        W33497   7.231  19.737   2.833
72044W        W33498  23.709  12.789  14.778
72045W        W33499  16.671  16.292   4.158
72046W        W33500  13.275  10.251  14.828
72047W        W33501  10.726   3.760  14.834
72048W        W33502   2.237  23.711   1.707
72049W        W33503  23.540  32.028  14.028
72050W        W33504  33.564  22.618   3.193
72051W        W33505  12.137  43.986  12.368
72052W        W33506  37.005  16.092   3.269
72053W        W33507  17.770   6.262  14.813
72054W        W33508  38.049   8.239   4.203
72055W        W33509  19.073  23.490   4.727
72056W        W33510  18.663  35.966   9.935
72057W        W33511   2.242  23.051   4.245
72058W        W33512  25.197  23.561   4.184
72059W        W33513  12.223  30.533  10.610
72060W        W33514  44.770  38.850   0.402
72061W        W33515  26.193  11.328  14.856
72062W        W33516   4.313  20.255  14.986
72063W        W33517   1.818  25.199   1.438
72064W        W33518  28.672  17.679  13.799
72065W        W33519  31.958   0.269  11.916
72066W        W33520  37.017   0.963  12.535
72067W        W33521  21.697  11.240   1.244
72068W        W33522  36.383   0.853   1.876
72069W        W33523   6.382   8.164  13.034
72070W        W33524  24.170  40.396   1.314
72071W        W33525   9.783  29.562  11.995
72072W        W33526   4.906  41.917  14.914
72073W        W33527  10.285  32.422   2.777
72074W        W33528  18.563  31.407   1.313
72075W        W33529  14.812   4.357  13.361
72076W        W33530  29.918  43.865   1.308
72077W        W33531  38.959   2.933  13.967
72078W        W33532  13.648  12.355  14.764
72079W        W33533  38.363   5.706  10.482
72080W        W33534  40.821  30.120   2.750
72081W        W33535   5.729   2.312   3.171
72082W        W33536  16.647   5.193   3.639
72083W        W33537  38.478   2.307  11.015
72084W        W33538   2.865   0.487  11.382
72085W        W33539  18.665  28.570   4.693
72086W        W33540  27.688  15.682   0.321
72087W        W33541  42.852  25.494  13.340
72088W        W33542  36.518  39.383   5.299
72089W        W33543  40.803   2.295  10.458
72090W        W33544  13.283  43.361   4.188
72091W        W33545   6.693  25.211   4.677
72092W        W33546  30.497  16.645  13.496
72093W        W33547  17.253  33.953  13.349
72094W        W33548  17.708  28.567  14.342
72095W        W33549  26.674  18.653   1.301
72096W        W33550   4.885  21.073   2.360
72097W        W33551   3.334  25.535  13.402
72098W        W33552  31.108   1.925  11.568
72099W        W33553  33.495  28.098   0.378
72100W        W33554  15.685   7.347   1.831
72101W        W33555  30.050  18.293  13.949
72102W        W33556  17.615  18.738   4.814
72103W        W33557  25.964  13.777   3.305
72104W        W33558  20.597   4.232   4.650
72105W        W33559  29.106  34.527  12.967
72106W        W33560  28.503   2.880   2.820
72107W        W33561  12.824  18.064   0.734
72108W        W33562   9.794  25.551  13.038
72109W        W33563   8.349  29.021  11.411
72110W        W33564   5.329  18.243  10.952
72111W        W33565  34.918  18.744  13.906
72112W        W33566  32.620  38.915  14.028
72113W        W33567  31.589  34.113  14.831
72114W        W33568  11.687  23.722  10.034
72115W        W33569  14.722  14.274  13.861
72116W        W33570   8.404  44.505  11.062
72117W        W33571  14.763  22.670  14.864
72118W        W33572  41.863  11.164   3.724
72119W        W33573   9.872  42.945   3.867
72120W        W33574  23.675  11.792   1.220
72121W        W33575  42.829  14.236  10.551
72122W        W33576  39.927  27.580  13.893
72123W        W33577   3.373  22.719   1.751
72124W        W33578  28.639  14.834   0.955
72125W        W33579   0.762  12.356  13.951
72126W        W33580  34.041  20.673   4.662
72127W        W33581  20.258  41.496   2.179
72128W        W33582   6.261  36.914   1.308
72129W        W33583   1.378   3.886   3.718
72130W        W33584  31.541   8.363   0.322
72131W        W33585  38.964   1.731  12.073
72132W        W33586  40.847  17.113   2.734
72133W        W33587   6.804  43.357  14.441
72134W        W33588   3.232  33.903   0.412
72135W        W33589  32.919  19.697   1.431
72136W        W33590  30.482  40.432   3.734
72137W        W33591  32.015  20.230  12.395
72138W        W33592  38.062  43.492   3.257
72139W        W33593   1.333  37.884  14.463
72140W        W33594  15.137  16.566   2.192
72141W        W33595  14.327   3.860   3.325
72142W        W33596  36.938  40.319   0.781
72143W        W33597  29.535  15.781   1.826
72144W        W33598  17.141  28.566   0.473
72145W        W33599  26.571  27.494  12.558
72146W        W33600  18.647  25.501  13.827
72147W        W33601  31.499  38.867  14.405
72148W        W33602  39.461   6.421  11.113
72149W        W33603  11.352  18.597   0.776
72150W        W33604   5.348  39.368   0.882
72151W        W33605  31.563  15.640   4.756
72152W        W33606  31.634  26.657  11.918
72153W        W33607  42.411   0.861  11.448
72154W        W33608  20.034  43.477   2.225
72155W        W33609   9.174   1.884   2.265
72156W        W33610   1.474   4.931   2.773
72157W        W33611  25.713  40.805  11.432
72158W        W33612  32.517  41.017  13.533
72159W        W33613  25.534  23.522   0.813
72160W        W33614   0.878  29.036   3.225
72161W        W33615  18.130  13.629  13.381
72162W        W33616  28.090  10.218  12.505
72163W        W33617  13.212  31.056   4.646
72164W        W33618   1.389  30.980   4.323
72165W        W33619  13.603  31.628   3.257
72166W        W33620  32.006  37.498  13.917
72167W        W33621   4.709  21.609  11.438
72168W        W33622  34.439  23.723   4.269
72169W        W33623   2.898   7.677   2.794
72170W        W33624  33.567  36.367  12.003
72171W        W33625   8.381  16.661   2.289
72172W        W33626  35.481  40.487  14.976
72173W        W33627  27.163  38.027   1.766
72174W        W33628  29.037   0.335   3.845
72175W        W33629  38.327  19.684   1.887
72176W        W33630  16.690  10.251  12.873
72177W        W33631  16.311  33.431   9.958
72178W        W33632  18.693  39.520  13.487
72179W        W33633  42.973  33.606  12.029
72180W        W33634  41.407   1.467  10.568
72181W        W33635  34.118  27.003  13.313
72182W        W33636  22.047   1.951   2.738
72183W        W33637  13.326   5.731  12.015
72184W        W33638   5.854  42.891  12.390
72185W        W33639  23.613  34.966   0.809
72186W        W33640  20.268  19.147   0.360
72187W        W33641   1.317  14.311   4.311
72188W        W33642   9.380  10.366   1.444
72189W        W33643   0.271   8.258   2.355
72190W        W33644  16.291  22.129  11.598
72191W        W33645  34.381  42.447   2.791
72192W        W33646   5.357   8.273  13.485
72193W        W33647   8.764  34.022   1.736
72194W        W33648  23.070  24.181   0.399
72195W        W33649  23.622  30.135  13.454
72196W        W33650  35.527  11.231  11.986
72197W        W33651   5.255  32.582  14.315
72198W        W33652  18.636  30.965   0.805
72199W        W33653   8.788  24.181  13.406
72200W        W33654   4.817  24.573   4.342
72201W        W33655  35.865  11.164  11.450
72202W        W33656  41.312  27.066   4.228
72203W        W33657  17.068  15.673   0.332
72204W        W33658  31.473   8.205   1.281
72205W        W33659   7.773  43.941  13.893
72206W        W33660   4.935  13.211   1.317
72207W        W33661  13.844  14.137  14.452
72208W        W33662  40.837  27.612  10.441
72209W        W33663  24.223  24.071   2.744
72210W        W33664  12.821  19.221  14.459
72211W        W33665  40.428  32.073   4.275
72212W        W33666  14.831  29.658  12.375
72213W        W33667  29.444  13.795   2.305
72214W        W33668  32.004  22.047  13.406
72215W        W33669  43.317  18.625  14.337
72216W        W33670  14.669  33.937  13.344
72217W        W33671  14.666  19.739   1.261
72218W        W33672  28.445  43.419  11.980
72219W        W33673  10.861   4.768  10.975
72220W        W33674   9.736  39.383   4.714
72221W        W33675  10.648  39.442  11.532
72222W        W33676   6.865  43.460   3.680
72223W        W33677  22.160  16.100   2.214
72224W        W33678  30.447  22.683   4.277
72225W        W33679  36.962  33.977  12.359
72226W        W33680  29.975   8.297   0.438
72227W        W33681  33.891   5.918   3.718
72228W        W33682  12.288  39.836   0.441
72229W        W33683   2.301  11.811   1.408
72230W        W33684  34.588  33.478  13.814
72231W        W33685  18.293  13.709  11.571
72232W        W33686  18.696  27.571  12.886
72233W        W33687  44.888  18.598  14.515
72234W        W33688  39.893  31.545  13.331
72235W        W33689  34.582   1.380   4.173
72236W        W33690  31.613  19.591   1.816
72237W        W33691  10.294  12.743   0.377
72238W        W33692  21.697   3.351   2.398
72239W        W33693  23.077   4.363   3.645
72240W        W33694  13.300  43.295  13.531
72241W        W33695  34.587  16.568   4.215
72242W        W33696  39.412  25.041   0.764
72243W        W33697   2.957   7.196  14.901
72244W        W33698  12.283   4.748   4.617
72245W        W33699  14.684  36.853   3.693
72246W        W33700  14.612  16.126  13.318
72247W        W33701   8.384   9.211   0.851
72248W        W33702  29.017  35.575  12.376
72249W        W33703  17.580  37.392  13.543
72250W        W33704  18.253  23.183  10.574
72251W        W33705  19.568  39.421  14.284
72252W        W33706  20.569  17.062   3.684
72253W        W33707   6.300  35.513   3.377
72254W        W33708  41.871  37.410  10.077
72255W        W33709  21.068  16.277   4.159
72256W        W33710  44.913  31.530   4.327
72257W        W33711  25.049   7.313  13.031
72258W        W33712  19.270  11.771   3.372
72259W        W33713  39.967  33.937   4.167
72260W        W33714  42.367  44.905  14.290
72261W        W33715   6.895   4.284  11.023
72262W        W33716   9.352  16.271   4.170
72263W        W33717  17.068  19.763  13.927
72264W        W33718  25.140  24.997  14.320
72265W        W33719   4.248  21.020   1.301
72266W        W33720   7.283  18.153   4.716
72267W        W33721  43.897   8.316   4.814
72268W        W33722  27.065  18.160   3.748
72269W        W33723  10.638  24.588   4.265
72270W        W33724  14.164  37.065   4.294
72271W        W33725  18.699  34.952   1.881
72272W        W33726  41.422  23.529   3.257
72273W        W33727  11.140  10.760   1.811
72274W        W33728   9.810  28.019  14.392
72275W        W33729  42.019   5.877  12.478
72276W        W33730  36.540  38.346  11.389
72277W        W33731   0.918   6.720  10.491
72278W        W33732   5.814  23.571   2.749
72279W        W33733  15.609   1.978  11.926
72280W        W33734  16.638  23.096   3.831
72281W        W33735  14.792   7.842   1.792
72282W        W33736  32.125  11.169   1.919
72283W        W33737  14.318  10.146  13.904
72284W        W33738  19.252  28.015  12.571
72285W        W33739  34.514  10.193   1.866
72286W        W33740  44.390  13.305  10.951
72287W        W33741  44.971  18.207  12.485
72288W        W33742   7.391  19.551   3.632
72289W        W33743  26.960  38.898   2.413
72290W        W33744  24.521   8.248  12.039
72291W        W33745   6.682   7.891  11.536
72292W        W33746  10.198  42.384   9.938
72293W        W33747  27.608  30.136   0.935
72294W        W33748   7.811  34.527   3.162
72295W        W33749  36.976  10.347   4.167
72296W        W33750  29.138  34.887   4.760
72297W        W33751   1.270   2.868  11.095
72298W        W33752  37.432  33.975  14.282
72299W        W33753  10.184  15.297   4.729
72300W        W33754   2.839   6.202  10.613
72301W        W33755  27.446  20.643   2.800
72302W        W33756  22.087  32.478  14.306
72303W        W33757   8.777  42.482   1.243
72304W        W33758  40.956  36.417   0.838
72305W        W33759  41.861  14.195   9.943
72306W        W33760   2.735   4.846  10.486
72307W        W33761  38.975  36.562   2.259
72308W        W33762   6.745  40.331   4.129
72309W        W33763  13.144  35.413   0.844
72310W        W33764   3.891  12.322  10.619
72311W        W33765  32.126  14.115   3.684
72312W        W33766  36.410  29.617   1.231
72313W        W33767  42.290  12.634   2.869
72314W        W33768   2.849   7.415  12.069
72315W        W33769  14.261   9.330  12.980
72316W        W33770  19.547  12.248  12.990
72317W        W33771  12.256  42.006  14.988
72318W        W33772   4.759  32.970   1.872
72319W        W33773  20.075  27.559   2.354
72320W        W33774  34.031  18.285  12.516
72321W        W33775   4.713  26.055   1.774
72322W        W33776  44.273  31.412   1.236
72323W        W33777  21.173  37.019   2.790
72324W        W33778  44.941  43.492   0.465
72325W        W33779  10.709  20.270  14.999
72326W        W33780  11.138  17.094  10.555
72327W        W33781  21.546  44.005  12.483
72328W        W33782  23.536  28.085  14.456
72329W        W33783  40.896  12.191   1.250
72330W        W33784  41.945   8.755  13.457
72331W        W33785  20.588  36.916   3.191
72332W        W33786  33.028   7.206   4.327
72333W        W33787  30.637  39.421  14.511
72334W        W33788  24.685  41.026  11.913
72335W        W33789  21.757  32.134  14.772
72336W        W33790  33.109  43.016  14.794
72337W        W33791  11.624  15.764   4.208
72338W        W33792  25.608  41.008  11.112
72339W        W33793  23.546  24.663  12.461
72340W        W33794  12.686  17.574  11.473
72341W        W33795   6.914  36.906   0.395
72342W        W33796   7.352  18.264   0.250
72343W        W33797   9.884  25.502  11.948
72344W        W33798  32.084  18.235   0.740
72345W        W33799  33.017  19.204  11.957
72346W        W33800   7.296  38.951   1.445
72347W        W33801  26.064   9.327  13.825
72348W        W33802   4.237  27.986  11.382
72349W        W33803  21.527   5.831  14.479
72350W        W33804  17.126  24.670   3.837
72351W        W33805  43.883  38.415   4.716
72352W        W33806   5.291  16.187   2.271
72353W        W33807  28.606  18.119   3.364
72354W        W33808  34.461  19.626  13.052
72355W        W33809  39.395  10.371   0.415
72356W        W33810  28.936  16.697  12.385
72357W        W33811  15.582  38.023  12.011
72358W        W33812  33.497   5.199  13.470
72359W        W33813  17.788   2.833   2.298
72360W        W33814   4.700  22.651  14.814
72361W        W33815  28.129  16.313  13.928
72362W        W33816  10.828   0.305   4.159
72363W        W33817   8.224  11.719  12.075
72364W        W33818  37.020  44.380   0.850
72365W        W33819  20.671  28.551  11.866
72366W        W33820  13.711  17.708  13.424
72367W        W33821  34.568  19.246  13.350
72368W        W33822   8.664  24.978  10.916
72369W        W33823  21.094   7.367   1.851
72370W        W33824  21.620  42.902  14.807
72371W        W33825   4.741  27.635   2.351
72372W        W33826  24.045   0.327   2.355
72373W        W33827  42.920  16.753   3.198
72374W        W33828  12.633  20.592  10.941
72375W        W33829  25.680  26.013   1.434
72376W        W33830  33.068  38.463  12.472
72377W        W33831  34.927  21.206   3.276
72378W        W33832  16.197   3.387  11.992
72379W        W33833  20.177   4.831  13.005
72380W        W33834   8.275  39.556   3.151
72381W        W33835  41.956  18.566  11.869
72382W        W33836  33.482  44.348  14.421
72383W        W33837   1.965   5.787   0.276
72384W        W33838  22.705   9.263  13.059
72385W        W33839   9.701  31.073  10.056
72386W        W33840  11.229   9.667  14.514
72387W        W33841  11.161  27.565  14.932
72388W        W33842  22.722  29.937   3.261
72389W        W33843  44.266  39.392  12.003
72390W        W33844  35.922  43.894  12.006
72391W        W33845  26.082  25.158  11.561
72392W        W33846  33.418  34.570   4.319
72393W        W33847  33.929  12.139   3.671
72394W        W33848  16.762  39.954   4.207
72395W        W33849  35.386  42.825  14.881
72396W        W33850   7.340   7.745  13.004
72397W        W33851  28.592  28.137   0.935
72398W        W33852   5.297   4.238  14.023
72399W        W33853   4.298   1.875  12.919
72400W        W33854  34.485  16.801  10.567
72401W        W33855   8.372   8.663   1.211
72402W        W33856   5.688  25.181  12.390
72403W        W33857  18.158  41.338  14.762
72404W        W33858   7.382  44.351   4.163
72405W        W33859   9.801  18.134  11.486
72406W        W33860  24.142   8.377  13.048
72407W        W33861  14.691   3.734  11.933
72408W        W33862  40.467  28.037  10.915
72409W        W33863   6.909   2.407   2.322
72410W        W33864  26.008  39.924   1.325
72411W        W33865  10.159  27.017  10.439
72412W        W33866  32.498  44.433   3.237
72413W        W33867  26.583  32.907   0.817
72414W        W33868  28.152  38.841  14.928
72415W        W33869   5.808  36.352  13.061
72416W        W33870  36.022  38.923  12.902
72417W        W33871   2.964   9.149   4.832
72418W        W33872  12.127  32.077  10.501
72419W        W33873   2.933  15.244  12.918
72420W        W33874  21.589  21.651   0.343
72421W        W33875   4.323  39.039   0.869
72422W        W33876  33.470   8.253  14.447
72423W        W33877  15.690  35.357  10.433
72424W        W33878  27.515  18.619  11.856
72425W        W33879  27.056  35.542  12.828
72426W        W33880  25.189  25.690   0.428
72427W        W33881  39.822   4.925   4.281
72428W        W33882  18.597  25.620  10.540
72429W        W33883  31.900  12.301   0.926
72430W        W33884   5.750  31.533  12.399
72431W        W33885  27.522  20.246  10.624
72432W        W33886   1.870  10.632  13.329
72433W        W33887   1.829  39.922  14.031
72434W        W33888  39.452   0.915  13.980
72435W        W33889  29.918   2.350  12.082
72436W        W33890  42.863  32.888   3.292
72437W        W33891  15.667  40.366   3.770
72438W        W33892   8.340  42.405   2.224
72439W        W33893   8.288   1.868   1.369
72440W        W33894  24.705  41.486  14.331
72441W        W33895  36.563   3.272   3.645
72442W        W33896  13.224  43.890  12.046
72443W        W33897   0.745  11.200  10.035
72444W        W33898  28.454  21.044   3.229
72445W        W33899   1.285  25.077  11.586
72446W        W33900  22.152   8.278  11.596
72447W        W33901  36.412   3.218   4.183
72448W        W33902  13.638  12.683   0.289
72449W        W33903   0.770  22.139  13.478
72450W        W33904  21.201  40.546   4.714
72451W        W33905  12.752  10.856   4.262
72452W        W33906  40.958   3.872   0.730
72453W        W33907  15.225  40.445   4.252
72454W        W33908  27.456  10.741  13.832
72455W        W33909  29.506  32.021   0.774
72456W        W33910   4.393  42.849   3.316
72457W        W33911  30.465  38.510  13.496
72458W        W33912  41.030  27.646   0.736
72459W        W33913  13.220  21.667  14.962
72460W        W33914   3.730  41.893  10.911
72461W        W33915   6.879  39.528   0.898
72462W        W33916   9.786  34.925  14.342
72463W        W33917   6.856  16.194  10.635
72464W        W33918   2.241  32.449  11.079
72465W        W33919   4.449   2.463   2.882
72466W        W33920   2.352  13.342   4.277
72467W        W33921  28.028  44.458   4.354
72468W        W33922   9.749   4.923  14.399
72469W        W33923  23.035  43.413  11.036
72470W        W33924  30.579  44.373  10.627
72471W        W33925   9.746  33.906  14.917
72472W        W33926   9.278   9.757   3.341
72473W        W33927  29.446   5.765  14.445
72474W        W33928  26.668  44.290  12.004
72475W        W33929  23.162   4.432  11.928
72476W        W33930  23.063  30.020  14.303
72477W        W33931  30.991  16.715  11.511
72478W        W33932  31.965   6.424   4.201
72479W        W33933  26.044  40.343   4.680
72480W        W33934  18.776  16.732  12.830
72481W        W33935  19.653  28.982   2.847
72482W        W33936   9.293  17.665  14.433
72483W        W33937   9.781  44.481  12.570
72484W        W33938  38.336  34.033   3.780
72485W        W33939  25.510  36.430   1.337
72486W        W33940  15.807  22.164   4.679
72487W        W33941  17.727  15.709   2.363
72488W        W33942  19.648  30.070  12.909
72489W        W33943  41.788  18.573  11.544
72490W        W33944  28.083  14.605   4.743
72491W        W33945  11.180   8.176  11.459
72492W        W33946  29.602   0.936  11.407
72493W        W33947  37.072  24.576   2.254
72494W        W33948   5.306  10.650  11.392
72495W        W33949  35.462  11.235   4.834
72496W        W33950  34.867   8.686   1.813
72497W        W33951  30.554  40.356   4.757
72498W        W33952  22.734  34.485  11.461
72499W        W33953   4.232  24.722   3.157
72500W        W33954  22.086  30.935   4.606
72501W        W33955  24.201   3.874  13.972
72502W        W33956  17.092  10.776   3.825
72503W        W33957  20.138  22.566   4.639
72504W        W33958  38.857  10.216  14.510
72505W        W33959  30.077  44.915   0.285
72506W        W33960   4.889  25.542  13.968
72507W        W33961  32.940  36.930  14.766
72508W        W33962  32.399   4.341  13.958
72509W        W33963  16.231  41.327   4.659
72510W        W33964   0.957   3.384  11.538
72511W        W33965  36.937  33.389  12.377
72512W        W33966  14.755  26.171   0.806
72513W        W33967  22.505  44.842   3.840
72514W        W33968   9.163  12.817   3.150
72515W        W33969  27.089  12.653  14.927
72516W        W33970  42.976  30.492  11.061
72517W        W33971  11.726  16.118   0.781
72518W        W33972  24.628  34.950   3.847
72519W        W33973  17.629   1.471   3.639
72520W        W33974  28.455  12.246  13.471
72521W        W33975   1.276   9.820   2.418
72522W        W33976  41.885  25.628   4.233
72523W        W33977  44.339  29.994  14.887
72524W        W33978  25.032  20.703  13.980
72525W        W33979  39.848  20.686   0.279
72526W        W33980  44.494  37.977   1.855
72527W        W33981  43.774  12.633  11.478
72528W        W33982  44.471  14.824  11.107
72529W        W33983   9.791  39.460  11.427
72530W        W33984  43.957   4.275   2.805
72531W        W33985   6.699  19.164   4.823
72532W        W33986   1.762  13.277  14.323
72533W        W33987  27.088  42.960   1.443
72534W        W33988  28.580  35.480  11.989
72535W        W33989  37.540  28.091  14.909
72536W        W33990  44.502  41.893  14.793
72537W        W33991  22.709  36.396   1.852
72538W        W33992  37.997  12.635  13.811
72539W        W33993  27.608  14.757  13.478
72540W        W33994   4.431   6.275   1.921
72541W        W33995   0.959  39.469   1.433
72542W        W33996  28.119   7.400  13.869
72543W        W33997  18.681  31.544  14.029
72544W        W33998  28.586  19.091   0.291
72545W        W33999  39.423  39.993  11.964
72546W        W34000  43.416  29.580   0.394
72547W        W34001  41.951  38.934  10.928
72548W        W34002   2.309   8.237  10.474
72549W        W34003   2.785   6.890  11.083
72550W        W34004  41.806  39.051   2.268
72551W        W34005  42.784  34.054   3.813
72552W        W34006  24.510  27.655   2.288
72553W        W34007  26.141   2.947   3.812
72554W        W34008  42.875  41.494   1.378
72555W        W34009  32.506  14.191   1.856
72556W        W34010   7.323  19.040   3.188
72557W        W34011  25.172  32.564  13.460
72558W        W34012   5.844  21.564   0.734
72559W        W34013  30.048  20.246   1.925
72560W        W34014  25.047   0.299  13.470
72561W        W34015   7.177   4.382   4.806
72562W        W34016  22.037  10.856   4.161
72563W        W34017   8.719  31.537   4.158
72564W        W34018  32.538  38.374   2.778
72565W        W34019  44.808  23.608  11.047
72566W        W34020  23.048  25.150   2.387
72567W        W34021  20.139   7.239  10.468
72568W        W34022   8.289   7.679   0.448
72569W        W34023  26.502  22.650   5.105
72570W        W34024   7.190  13.226  11.449
72571W        W34025  18.231  26.530  13.048
72572W        W34026  24.086  40.946  10.570
72573W        W34027  12.660  32.080  12.370
72574W        W34028  10.788  16.794  11.057
72575W        W34029  27.071   7.260  13.045
72576W        W34030  29.110   2.290   4.786
72577W        W34031  43.930  29.116  12.913
72578W        W34032   1.881   9.717  14.282
72579W        W34033  19.765   8.744  10.533
72580W        W34034  23.607  28.465   3.666
72581W        W34035  31.033   0.945  14.431
72582W        W34036  30.483  20.247  13.530
72583W        W34037  33.624  36.593  13.346
72584W        W34038  34.379  38.911  12.010
72585W        W34039  11.274  32.983  13.927
72586W        W34040  40.459   4.763   1.882
72587W        W34041  12.196  31.632  11.874
72588W        W34042  16.158  20.177   0.926
72589W        W34043  17.594  18.211   1.304
72590W        W34044  15.092  16.148   1.273
72591W        W34045  14.694  14.192   1.814
72592W        W34046  38.913  23.231   2.384
72593W        W34047   1.824   2.241  11.937
72594W        W34048   5.895   8.177  11.562
72595W        W34049   1.334   0.988  14.506
72596W        W34050  13.117  27.663  13.350
72597W        W34051  23.105  29.545  12.491
72598W        W34052  21.070   6.216  11.914
72599W        W34053  41.992  18.117   2.693
72600W        W34054  16.627  12.734  14.473
72601W        W34055  34.012  20.655  11.610
72602W        W34056  15.110  28.458   1.387
72603W        W34057  33.893  33.054   3.220
72604W        W34058  41.024  41.980  13.452
72605W        W34059   4.896   0.257   0.277
72606W        W34060  35.917  24.051  14.945
72607W        W34061  30.658  21.216   0.945
72608W        W34062  26.520  35.012   3.815
72609W        W34063  29.544  41.476   5.289
72610W        W34064  11.787  20.708   3.717
72611W        W34065  10.217  27.171   2.212
72612W        W34066  41.848  44.404  11.043
72613W        W34067  33.930  29.152  13.909
72614W        W34068  22.672  38.377  12.858
72615W        W34069  43.989  40.051   1.734
72616W        W34070  24.584  37.014   3.683
72617W        W34071   1.776  27.959  12.359
72618W        W34072  27.196  30.608   1.824
72619W        W34073  28.467  11.768   1.839
72620W        W34074  28.576   7.380   5.792
72621W        W34075  16.788  31.632  14.004
72622W        W34076  24.201  37.364   0.940
72623W        W34077  16.770  17.121  14.304
72624W        W34078   6.768  27.015  13.490
72625W        W34079   0.802  32.559  14.488
72626W        W34080  39.555   8.207   0.339
72627W        W34081  20.192  39.934   2.840
72628W        W34082  15.268  10.847   2.214
72629W        W34083   1.476  17.258   0.331
72630W        W34084  41.995  26.548   1.409
72631W        W34085  36.361  38.376   3.166
72632W        W34086  39.848  33.983  13.528
72633W        W34087   6.245  32.534  14.359
72634W        W34088  23.611  22.053  10.562
72635W        W34089   5.226  17.767  10.991
72636W        W34090  41.042  42.946   4.278
72637W        W34091  37.023   6.328   4.132
72638W        W34092  14.311  38.395  10.542
72639W        W34093  10.869   0.820   4.667
72640W        W34094  24.612  32.927   0.402
72641W        W34095  20.052   8.368   0.249
72642W        W34096  15.700  15.087  14.290
72643W        W34097  25.485  30.591   0.817
72644W        W34098  44.830  34.056   0.445
72645W        W34099  38.042  37.902  14.401
72646W        W34100  14.098  30.533  13.526
72647W        W34101  16.114   5.416  13.959
72648W        W34102  41.343  24.588   4.161
72649W        W34103  35.925  39.371   9.929
72650W        W34104  16.577  18.764  14.993
72651W        W34105  21.578  24.609   2.787
72652W        W34106  38.970  28.141   0.366
72653W        W34107  20.733   5.306   4.319
72654W        W34108  11.146   9.267   2.901
72655W        W34109   2.232   0.459  10.522
72656W        W34110  26.150  28.491   2.830
72657W        W34111  40.544  34.402  10.449
72658W        W34112  42.447  29.939   1.310
72659W        W34113  28.611  33.044  14.323
72660W        W34114   3.940   1.481   2.351
72661W        W34115  10.721   5.771   1.420
72662W        W34116   8.828  35.950   2.751
72663W        W34117  27.997  31.141  10.500
72664W        W34118   1.812  22.607   4.635
72665W        W34119  13.841   3.322   2.365
72666W        W34120  36.385   2.866  10.593
72667W        W34121  11.162  18.695   2.363
72668W        W34122  11.830  35.461  10.486
72669W        W34123  14.338  18.202   5.147
72670W        W34124  29.024  21.690  10.459
72671W        W34125  39.358  18.749  14.820
72672W        W34126  22.542  39.426  10.594
72673W        W34127  43.982   5.862  14.853
72674W        W34128   4.220   2.739   4.242
72675W        W34129  19.615   3.829   1.406
72676W        W34130  13.662  26.986   0.751
72677W        W34131  22.088  38.539   1.817
72678W        W34132  35.931  22.640   4.650
72679W        W34133   4.858  10.781   2.351
72680W        W34134  19.191  14.828   0.331
72681W        W34135  13.602  44.808   2.829
72682W        W34136   7.726  15.151   3.745
72683W        W34137  11.340  38.492   1.432
72684W        W34138   4.754   4.238  14.290
72685W        W34139  13.321  35.495   0.335
72686W        W34140  26.679  43.402  12.557
72687W        W34141  29.930  13.679   3.819
72688W        W34142  38.850  18.594   2.400
72689W        W34143   6.293   4.204  11.393
72690W        W34144   6.350   1.301  11.988
72691W        W34145   6.299   4.757  11.479
72692W        W34146  39.999   8.800  14.281
72693W        W34147   2.916   8.276   3.374
72694W        W34148  35.012   3.366  10.997
72695W        W34149  27.544  27.517  11.937
72696W        W34150  25.081   4.753  14.817
72697W        W34151   9.322  14.327   0.284
72698W        W34152  39.994  41.978  14.314
72699W        W34153   3.252  19.636   5.315
72700W        W34154  11.793  30.140   1.222
72701W        W34155  44.854   1.814   2.279
72702W        W34156   9.667  23.049  11.020
72703W        W34157  39.470   7.811  12.521
72704W        W34158  20.274  30.114   2.828
72705W        W34159  26.501  23.671  14.419
72706W        W34160  30.130  33.593   9.660
72707W        W34161  13.201  32.412   2.284
72708W        W34162  28.643   9.392  13.057
72709W        W34163   8.784  38.901   1.923
72710W        W34164  27.646  15.613  11.941
72711W        W34165  13.625  10.653  11.523
72712W        W34166   2.826   2.821   4.674
72713W        W34167  37.951  19.748  12.002
72714W        W34168  25.031  24.978  10.974
72715W        W34169  43.011  42.343  13.426
72716W        W34170  44.979  31.026  11.973
72717W        W34171  36.541  23.009   1.225
72718W        W34172  16.083  12.188  13.800
72719W        W34173  22.153  22.611  11.514
72720W        W34174  25.188  32.474  13.923
72721W        W34175  22.604  34.107   0.282
72722W        W34176  10.335   7.874   1.399
72723W        W34177  43.477  23.236  11.548
72724W        W34178  26.464   5.756  14.346
72725W        W34179  39.425   4.216  10.914
72726W        W34180  41.326  19.536  10.507
72727W        W34181  28.671  31.576  12.865
72728W        W34182  44.851   6.919   0.379
72729W        W34183   9.176   3.763   1.796
72730W        W34184  34.382  37.077  11.087
72731W        W34185  11.848  10.292  11.106
72732W        W34186  10.384  32.625  11.112
72733W        W34187  12.270  33.556  14.359
72734W        W34188  16.655  39.394   9.540
72735W        W34189  21.102  33.469   4.301
72736W        W34190   3.830  21.115  10.644
72737W        W34191  34.494   4.743  14.499
72738W        W34192  16.234  19.147   3.155
72739W        W34193  43.818  19.766   2.845
72740W        W34194  36.533  15.597   1.846
72741W        W34195  24.070  33.515  10.026
72742W        W34196   6.759  28.515   3.296
72743W        W34197   9.644  30.045   4.681
72744W        W34198  26.131  25.039  14.931
72745W        W34199  30.570  23.058  13.327
72746W        W34200   0.409  11.734  13.460
72747W        W34201  36.403  40.897  10.973
72748W        W34202  25.185  13.280  10.404
72749W        W34203  10.645  26.991  10.900
72750W        W34204  16.765  19.706  12.524
72751W        W34205  16.765   8.398  14.994
72752W        W34206  31.446  35.446   3.769
72753W        W34207  17.213  23.991   3.212
72754W        W34208  18.569   0.742   0.368
72755W        W34209  13.128  43.294   2.343
72756W        W34210  22.640  20.120  14.993
72757W        W34211  18.550  39.408  11.413
72758W        W34212  15.095  20.114  12.827
72759W        W34213  39.538   4.727  14.966
72760W        W34214  29.493  35.067  13.886
72761W        W34215   8.685  34.005  11.562
72762W        W34216  33.967  31.022  14.337
72763W        W34217  43.818  21.666   0.316
72764W        W34218  33.040  23.054   4.345
72765W        W34219  41.794  29.961  14.916
72766W        W34220   6.678  22.690   4.165
72767W        W34221   4.709  29.038   0.779
72768W        W34222  29.593  25.979   1.259
72769W        W34223   3.799  25.647  11.577
72770W        W34224  13.673  20.040   2.279
72771W        W34225  44.835  19.620  12.058
72772W        W34226   8.373   6.192   3.168
72773W        W34227   2.410  13.689  12.060
72774W        W34228  13.216  34.585   3.660
72775W        W34229  40.952   2.431   2.304
72776W        W34230  33.948  17.617  12.090
72777W        W34231  27.644  17.213   4.340
72778W        W34232   2.924  18.132  12.909
72779W        W34233  40.374  18.242  12.826
72780W        W34234  22.995  44.482  14.395
72781W        W34235  27.675  23.019  12.902
72782W        W34236   2.779  18.614   1.214
72783W        W34237  35.935  42.776  14.489
72784W        W34238  38.424  35.101   1.696
72785W        W34239  21.084  32.490  11.481
72786W        W34240  11.827  35.919   1.758
72787W        W34241  10.806  41.980   1.747
72788W        W34242  32.076  22.699   4.662
72789W        W34243  43.370  25.483  11.083
72790W        W34244  25.582  20.228   1.891
72791W        W34245   4.444  35.513   0.915
72792W        W34246  28.494  39.538   0.805
72793W        W34247  13.139   0.306   1.919
72794W        W34248  15.092   0.416  12.017
72795W        W34249  43.421  12.665  13.048
72796W        W34250   6.198  25.099  10.489
72797W        W34251  15.267  17.697  11.934
72798W        W34252  40.893  24.652  13.426
72799W        W34253   1.904  19.583  13.831
72800W        W34254  22.681  38.401  12.536
72801W        W34255  37.451  27.506  13.464
72802W        W34256  15.240  21.188   3.316
72803W        W34257  27.967  17.774   1.391
72804W        W34258  37.844  18.688  12.926
72805W        W34259  10.380   5.799   3.259
72806W        W34260  17.797  40.368  12.394
72807W        W34261   9.167  35.047  14.418
72808W        W34262   6.419  26.506   1.751
72809W        W34263  17.150  38.357  13.455
72810W        W34264   5.285   9.869  11.940
72811W        W34265  33.961  22.124   0.880
72812W        W34266  22.685   5.234   1.427
72813W        W34267  29.014  22.070   1.403
72814W        W34268  43.898  31.919  10.592
72815W        W34269  26.074  16.295   0.958
72816W        W34270  36.941  25.707   0.265
72817W        W34271  16.185  22.509  12.567
72818W        W34272  23.175  17.062   0.461
72819W        W34273  30.024   5.744   1.246
72820W        W34274  32.577   1.813  14.301
72821W        W34275  14.692  25.508  14.418
72822W        W34276  33.550   6.775   3.703
72823W        W34277  23.105   8.189   0.872
72824W        W34278  23.077  35.359   1.836
72825W        W34279   5.196  43.459   2.308
72826W        W34280  12.685  17.595  14.362
72827W        W34281  12.736  19.073  13.974
72828W        W34282  42.341  39.059  13.401
72829W        W34283  26.062  23.197   0.326
72830W        W34284  27.475  43.018   0.363
72831W        W34285  30.974  20.535  14.759
72832W        W34286  42.803  22.007   3.268
72833W        W34287   7.761  31.106   2.802
72834W        W34288  17.605  10.317  11.093
72835W        W34289  16.756  13.275  11.388
72836W        W34290  38.385  18.748   2.372
72837W        W34291   2.347  27.152   2.304
72838W        W34292   7.811  37.915  14.904
72839W        W34293   6.199   5.257   4.811
72840W        W34294  13.346  27.611   1.915
72841W        W34295  16.103  28.533  10.531
72842W        W34296  19.153  30.531   1.264
72843W        W34297   6.729  42.426  13.928
72844W        W34298   8.808  36.988  14.831
72845W        W34299  33.448  24.628  11.952
72846W        W34300   0.945  26.086  14.776
72847W        W34301  36.992  14.132   0.303
72848W        W34302  12.209  28.175  10.594
72849W        W34303   2.347  27.567   2.178
72850W        W34304  29.621  27.070   5.224
72851W        W34305  15.584   7.380  11.385
72852W        W34306   7.909  24.128  11.546
72853W        W34307  23.083  28.618  10.978
72854W        W34308  39.436  18.162   4.183
72855W        W34309  34.424   0.916   4.289
72856W        W34310  17.642  33.992  10.469
72857W        W34311  27.485  36.005   5.127
72858W        W34312   4.447  30.633  10.512
72859W        W34313  32.021  43.370  14.286
72860W        W34314  44.895  42.025  14.465
72861W        W34315  20.097  19.643   0.775
72862W        W34316  24.222  26.651   2.897
72863W        W34317  19.084  38.432   3.201
72864W        W34318   1.249   4.397   0.478
72865W        W34319  22.501  36.897  14.286
72866W        W34320  39.841  22.035  13.379
72867W        W34321   4.208  26.183   3.653
72868W        W34322   7.817  15.691   3.737
72869W        W34323  28.118  25.599   0.756
72870W        W34324  10.797  28.148  13.879
72871W        W34325  38.466  11.348  10.546
72872W        W34326  19.725   1.765   0.445
72873W        W34327   4.409  29.557  13.047
72874W        W34328   1.759  34.428   2.797
72875W        W34329  27.654  33.420   0.384
72876W        W34330  44.349  28.086   1.853
72877W        W34331  24.594  44.920  12.831
72878W        W34332  37.834  14.810   3.770
72879W        W34333   2.421  22.067  14.804
72880W        W34334  18.058   2.853  12.046
72881W        W34335  37.982  33.526  12.829
72882W        W34336   5.810  30.652   1.856
72883W        W34337  30.506  31.134   3.861
72884W        W34338  35.047  44.777  11.503
72885W        W34339   2.379  13.207  11.989
72886W        W34340  26.488  42.526  10.568
72887W        W34341  33.537  32.586   1.932
72888W        W34342   7.766  32.633  13.343
72889W        W34343  14.332   7.813   1.248
72890W        W34344  40.527   9.378  13.018
72891W        W34345  30.535   4.783  12.943
72892W        W34346   3.715  21.186   9.957
72893W        W34347  35.462  30.936  10.962
72894W        W34348  22.662   8.867   3.261
72895W        W34349  13.797  23.103   0.342
72896W        W34350   4.367  18.749   3.169
72897W        W34351  42.514  25.033  10.405
72898W        W34352  15.793  16.805  10.122
72899W        W34353   5.386  29.079  13.817
72900W        W34354   4.300  19.722   3.245
72901W        W34355   1.965  38.001  11.529
72902W        W34356  10.156  31.530   2.769
72903W        W34357  23.055  38.971  11.389
72904W        W34358   1.402  25.659  10.965
72905W        W34359  31.017  36.583   1.235
72906W        W34360  32.108  28.087   4.830
72907W        W34361   7.174   8.668   1.700
72908W        W34362  23.547  13.755  14.885
72909W        W34363  33.918   9.711  12.998
72910W        W34364  14.329  12.641  14.424
72911W        W34365  31.589  13.781  11.539
72912W        W34366  20.693  36.912  11.888
72913W        W34367   9.191  23.071  11.050
72914W        W34368  43.443  24.098   1.892
72915W        W34369   8.299  29.585  12.038
72916W        W34370  11.143  36.415   0.355
72917W        W34371  12.766   2.450   3.332
72918W        W34372  20.661  17.686   2.731
72919W        W34373  37.928   6.817  10.613
72920W        W34374  40.419  10.765   0.312
72921W        W34375  42.340  26.604   4.214
72922W        W34376  41.526  42.002   1.238
72923W        W34377  18.080  14.696   2.712
72924W        W34378  13.830  40.468   1.702
72925W        W34379  35.904  43.821   4.795
72926W        W34380  38.460  26.601   3.662
72927W        W34381  18.577  24.567  12.038
72928W        W34382  17.123  35.940   0.410
72929W        W34383  28.560  34.916  13.948
72930W        W34384  26.058  36.893  12.093
72931W        W34385   6.245   0.849  13.344
72932W        W34386  13.172  10.668  13.896
72933W        W34387  40.857  30.481  12.914
72934W        W34388  15.228  14.598  13.810
72935W        W34389  41.937  33.386  13.335
72936W        W34390  35.393  43.775  14.805
72937W        W34391  37.482  12.803   4.120
72938W        W34392   7.710  29.634   4.670
72939W        W34393  23.000  15.165   0.467
72940W        W34394  35.451  39.020   9.985
72941W        W34395  35.098  25.073   3.188
72942W        W34396  27.584  29.919  12.455
72943W        W34397  43.437  12.856  14.900
72944W        W34398  29.541  24.483  11.501
72945W        W34399  30.025  32.613  13.011
72946W        W34400   3.302  44.454  14.845
72947W        W34401  34.946  14.695  12.083
72948W        W34402  18.706  41.005   1.353
72949W        W34403  27.446  44.004  11.916
72950W        W34404  12.263  24.974  14.445
72951W        W34405  22.646  22.247   0.469
72952W        W34406  26.588  16.240  13.351
72953W        W34407   3.890  12.653  14.294
72954W        W34408  33.482   5.718   2.683
72955W        W34409   4.403  38.998  13.831
72956W        W34410  24.103   2.789   4.335
72957W        W34411  28.126  12.792   2.725
72958W        W34412  39.844  42.929   0.941
72959W        W34413  32.069  37.967   2.357
72960W        W34414  42.830  20.715   2.736
72961W        W34415  22.664   6.688   2.676
72962W        W34416   0.274  24.565  13.362
72963W        W34417  34.385  18.671   0.343
72964W        W34418  23.177  42.006  12.902
72965W        W34419  37.400   1.889  12.985
72966W        W34420  22.705  38.559   1.438
72967W        W34421  40.919  39.554  14.284
72968W        W34422  33.012   4.324   4.718
72969W        W34423  25.063  12.800  12.059
72970W        W34424  10.828  17.686   2.865
72971W        W34425   4.709  24.002   4.333
72972W        W34426  32.421  30.972   2.393
72973W        W34427  19.130   0.361   4.795
72974W        W34428  17.676  40.896   2.892
72975W        W34429  11.667  18.100  12.856
72976W        W34430  44.262  34.957   2.314
72977W        W34431  39.454  10.287   3.323
72978W        W34432  31.612  13.319  11.914
72979W        W34433  31.631  14.618  14.008
72980W        W34434   5.790  30.116   1.842
72981W        W34435   8.257  13.754  11.484
72982W        W34436  26.124  14.155  13.497
72983W        W34437  27.450  18.674   1.259
72984W        W34438   7.848  38.393  11.584
72985W        W34439  20.148  17.254   2.665
72986W        W34440  18.685   1.843  13.314
72987W        W34441  10.323  43.794   2.269
72988W        W34442   5.707  23.559  10.897
72989W        W34443  39.412   5.775  11.108
72990W        W34444  34.935  22.556  10.059
72991W        W34445  36.527  36.042  14.999
72992W        W34446  37.876  33.126  13.379
72993W        W34447  26.481  26.974  12.042
72994W        W34448  15.601  34.034   3.218
72995W        W34449   3.247  36.963   0.330
72996W        W34450  24.987  22.597   1.344
72997W        W34451  38.952   6.878   2.795
72998W        W34452  26.687  17.790  14.480
72999W        W34453  11.150  30.469   0.332
73000W        W34454  34.377   3.739  13.383
73001W        W34455  40.548  10.662  14.939
73002W        W34456  43.382   3.300   5.165
73003W        W34457  12.702  19.171  10.051
73004W        W34458  41.871  13.649   1.827
73005W        W34459  11.243   1.839  11.023
73006W        W34460  26.629  43.931   1.239
73007W        W34461  20.690  21.514  14.794
73008W        W34462  28.570  35.103   3.280
73009W        W34463  40.303  31.633  11.943
73010W        W34464   0.480  40.510   2.379
73011W        W34465  24.074  42.440  13.446
73012W        W34466  11.730  35.597   1.784
73013W        W34467  16.719  37.015  12.375
73014W        W34468   9.243  12.647  11.989
73015W        W34469  27.196   6.745   4.655
73016W        W34470  27.956   8.309   3.660
73017W        W34471  41.941   5.245   0.783
73018W        W34472  14.288   7.226  10.645
73019W        W34473  28.544   1.451  14.283
73020W        W34474  41.403  41.536   1.335
73021W        W34475   6.350  15.594   4.804
73022W        W34476  41.388  22.020  12.877
73023W        W34477  36.529  10.172  10.119
73024W        W34478  28.597   2.861   3.706
73025W        W34479   6.319   5.395   3.832
73026W        W34480  12.773   2.244   4.634
73027W        W34481  13.200  27.119  14.418
73028W        W34482  18.682  27.175   0.741
73029W        W34483  20.654  28.587   0.358
73030W        W34484  21.070  27.197  10.416
73031W        W34485  17.607   3.401  13.915
73032W        W34486  42.874  13.831  10.564
73033W        W34487   0.370   7.871  11.998
73034W        W34488  27.046  11.775  12.868
73035W        W34489   3.736   9.705  12.981
73036W        W34490  38.431  41.426   4.624
73037W        W34491  36.411  36.092  11.052
73038W        W34492  40.825  18.196  11.599
73039W        W34493  41.898   3.864  11.054
73040W        W34494  43.821   5.844  12.339
73041W        W34495   9.376  41.800  13.531
73042W        W34496   8.767  43.514  10.597
73043W        W34497  36.393  12.174   3.825
73044W        W34498   0.386  20.576   4.345
73045W        W34499  20.210  27.691  12.972
73046W        W34500   5.823  29.470  10.929
73047W        W34501  14.666   8.166   0.821
73048W        W34502  18.673  16.776  12.519
73049W        W34503  15.757  21.527   4.768
73050W        W34504  36.411   0.434   3.693
73051W        W34505  23.507  24.121  14.846
73052W        W34506   5.274  30.088  14.449
73053W        W34507  34.909   7.891   4.685
73054W        W34508  20.697  22.711  13.425
73055W        W34509  43.775  18.736   4.332
73056W        W34510  33.080  29.597  12.530
73057W        W34511   5.855  30.049   1.403
73058W        W34512   1.289  27.680  10.981
73059W        W34513  23.622  31.976   1.811
73060W        W34514  44.381  19.711   1.377
73061W        W34515  39.459  25.967   3.689
73062W        W34516  15.713  18.729   0.859
73063W        W34517  36.587  10.727   0.344
73064W        W34518  21.244  21.257  10.429
73065W        W34519   7.399  28.982  14.412
73066W        W34520   2.260   7.217  13.389
73067W        W34521  39.458  39.350   0.892
73068W        W34522  16.122  22.615   0.291
73069W        W34523  26.007  40.798   4.323
73070W        W34524   8.709  20.563   0.760
73071W        W34525  21.673   1.745  12.444
73072W        W34526  31.576  34.429  12.458
73073W        W34527  40.521   3.911   2.369
73074W        W34528   6.868   2.948  14.286
73075W        W34529  42.304  13.607   2.877
73076W        W34530  12.678  35.524   1.902
73077W        W34531  23.700  37.394  14.006
73078W        W34532  16.728   9.298   3.842
73079W        W34533  22.195  34.098   1.907
73080W        W34534  29.483  19.155   0.343
73081W        W34535   4.926  18.610  12.528
73082W        W34536  30.145  44.869  11.921
73083W        W34537  44.469  26.468  11.381
73084W        W34538  36.542   9.175   0.925
73085W        W34539   3.767   6.355   1.915
73086W        W34540  15.205  11.836  14.385
73087W        W34541  11.672  14.252  12.562
73088W        W34542   4.800   9.761   2.265
73089W        W34543  38.512  24.064  13.319
73090W        W34544  40.826  17.279  14.421
73091W        W34545  13.799  43.432   2.295
73092W        W34546  23.561  38.874   4.284
73093W        W34547  13.114  16.705   2.341
73094W        W34548  44.802  17.070  11.878
73095W        W34549  21.087  43.844  11.479
73096W        W34550   6.309  22.109   0.409
73097W        W34551  33.453  30.142  12.372
73098W        W34552  37.960  42.869  13.405
73099W        W34553  26.034  29.654   4.818
73100W        W34554  37.544  33.410  13.474
73101W        W34555  24.048  26.546   0.934
73102W        W34556  26.109  18.184  11.937
73103W        W34557  20.632  19.180  13.897
73104W        W34558  28.673   8.351   4.739
73105W        W34559  27.192  17.269   1.268
73106W        W34560   7.175  37.384  12.886
73107W        W34561  16.245  12.130   3.799
73108W        W34562  24.537  42.479   3.147
73109W        W34563  10.274  43.390  11.547
73110W        W34564   1.245  12.212  12.472
73111W        W34565  11.287  27.599  11.000
73112W        W34566  32.131   6.228  12.055
73113W        W34567  42.977  25.040  12.473
73114W        W34568  41.867  35.551   0.892
73115W        W34569  20.109  42.806  12.010
73116W        W34570  10.770  24.204   2.671
73117W        W34571  28.649  18.261  13.800
73118W        W34572   2.311  10.157  13.531
73119W        W34573  40.453  37.968  10.526
73120W        W34574  34.893   0.426   2.879
73121W        W34575  42.442  30.974   3.846
73122W        W34576  27.481  26.492  11.433
73123W        W34577   7.263  24.100  13.486
73124W        W34578  32.036   5.225   1.299
73125W        W34579  24.601  28.027  14.996
73126W        W34580  34.987  37.438  11.464
73127W        W34581  37.022  43.338  11.018
73128W        W34582   4.920  38.533  13.528
73129W        W34583  40.525  17.634   3.182
73130W        W34584  31.055  20.160   1.363
73131W        W34585  29.489  18.717  14.476
73132W        W34586   1.832  26.014   4.233
73133W        W34587  20.137  27.017  13.979
73134W        W34588  27.670   1.400  12.520
73135W        W34589   6.877  30.438   0.864
73136W        W34590  16.749  41.307  10.934
73137W        W34591   7.681  35.419  13.540
73138W        W34592  10.332  10.244  11.459
73139W        W34593  26.058  10.140   2.785
73140W        W34594  41.038  14.665  11.097
73141W        W34595  18.715  21.150   4.715
73142W        W34596   8.825  26.170  14.982
73143W        W34597  14.186  27.528  10.485
73144W        W34598  37.528  19.119  14.998
73145W        W34599   3.888  37.062   2.383
73146W        W34600  11.709  17.089  11.086
73147W        W34601  24.067  27.449  14.937
73148W        W34602  13.156   3.246  13.527
73149W        W34603  38.339  11.321  11.479
73150W        W34604  39.471  37.847   4.113
73151W        W34605  42.450  21.676  14.405
73152W        W34606  28.071  31.637   5.271
73153W        W34607   9.886   0.867  14.484
73154W        W34608  22.650  31.922  13.385
73155W        W34609  10.178  28.472  13.985
73156W        W34610  11.672  38.399   0.916
73157W        W34611  32.048  12.166  12.564
73158W        W34612  27.169   9.251   2.378
73159W        W34613  42.993   6.227  11.021
73160W        W34614   8.896   1.822  11.372
73161W        W34615  15.156  22.053  13.524
73162W        W34616  31.540  17.583  13.816
73163W        W34617  41.788  42.472   0.433
73164W        W34618  31.505  43.805   1.327
73165W        W34619  18.549  27.596   0.789
73166W        W34620  23.199  20.608  11.016
73167W        W34621  15.640  31.426  10.524
73168W        W34622  27.184  22.538   4.794
73169W        W34623  28.529  10.218   2.325
73170W        W34624  27.947  44.300  11.108
73171W        W34625  28.597   4.242  12.036
73172W        W34626   7.345  25.128   0.255
73173W        W34627  28.461  10.188   1.834
73174W        W34628   5.293  10.254  11.016
73175W        W34629  14.291  32.013  10.999
73176W        W34630  17.292   8.744   1.223
73177W        W34631   5.732  31.426   3.341
73178W        W34632   9.696  18.286  11.879
73179W        W34633  25.104  22.180  11.887
73180W        W34634   1.294  15.095   3.330
73181W        W34635  33.064   1.886  13.496
73182W        W34636   1.830  15.173  13.975
73183W        W34637   4.394   1.879  14.457
73184W        W34638  38.971  35.105  13.805
73185W        W34639  11.664  37.410   2.341
73186W        W34640   5.837  12.279   1.794
73187W        W34641  37.482   7.239  10.897
73188W        W34642  25.473  20.101  13.026
73189W        W34643  16.296  16.709   0.441
73190W        W34644  17.234  41.824   0.254
73191W        W34645   4.437  42.976  11.373
73192W        W34646   9.666  22.175  12.366
73193W        W34647   8.698  34.883  10.598
73194W        W34648  39.955  35.931  11.067
73195W        W34649  12.272   8.722   5.119
73196W        W34650  30.503   4.411  12.352
73197W        W34651  42.806  21.669   3.176
73198W        W34652  31.517  11.217  14.855
73199W        W34653  40.389  17.719   0.777
73200W        W34654   0.427  28.104  14.358
73201W        W34655  25.970  40.909   3.801
73202W        W34656  11.340  36.066  14.371
73203W        W34657  18.094  26.608  11.094
73204W        W34658  23.528  22.696  11.584
73205W        W34659  18.685  12.699   4.720
73206W        W34660  31.566  11.850  13.043
73207W        W34661  44.852   2.300   4.240
73208W        W34662  13.652  43.386  14.285
73209W        W34663  24.711  35.499   3.211
73210W        W34664   8.660  39.009  13.033
73211W        W34665  19.741  43.791  14.886
73212W        W34666  43.370  29.568  12.990
73213W        W34667   2.375  23.565  12.825
73214W        W34668  10.255  32.532   1.354
73215W        W34669  35.012  25.983  10.463
73216W        W34670  15.635  28.665  12.570
73217W        W34671  40.435  24.167   0.779
73218W        W34672  27.078  24.062  13.846
73219W        W34673  27.149  23.213   0.397
73220W        W34674   3.248  23.577   4.255
73221W        W34675  26.005  38.546  11.900
73222W        W34676  32.093  37.838  14.305
73223W        W34677  39.940   6.307   2.805
73224W        W34678  16.625  28.131  14.328
73225W        W34679   5.752  28.641  12.465
73226W        W34680  37.959  14.683   3.168
73227W        W34681  42.868   8.666  10.430
73228W        W34682  34.506  31.606   4.193
73229W        W34683  39.473  40.999   2.378
73230W        W34684  38.570   5.439   4.820
73231W        W34685  44.503  36.435  11.886
73232W        W34686  10.857   4.209  13.312
73233W        W34687  33.893  10.208   4.144
73234W        W34688  18.690  21.066  11.536
73235W        W34689  32.129  32.012   0.774
73236W        W34690  41.431   8.330   4.811
73237W        W34691  19.600  40.543  11.089
73238W        W34692  42.917   7.887  14.355
73239W        W34693   4.840  43.865  11.493
73240W        W34694  13.203  13.605  11.104
73241W        W34695  15.814  44.801  13.328
73242W        W34696  41.024  28.166   1.382
73243W        W34697   2.404  23.118  13.856
73244W        W34698  36.358  35.009  12.947
73245W        W34699  17.715   5.355  10.618
73246W        W34700   6.185  38.547  12.576
73247W        W34701   9.647  44.404   2.746
73248W        W34702  13.650  28.605   4.210
73249W        W34703   7.197  21.057  12.468
73250W        W34704   0.986  18.281   2.281
73251W        W34705   6.851  28.977   4.231
73252W        W34706  29.069   7.218  12.456
73253W        W34707  12.217  27.447  13.901
73254W        W34708   7.761  41.816   3.658
73255W        W34709  11.222  40.819  11.912
73256W        W34710  43.286  39.061  13.907
73257W        W34711   1.439  38.038   1.847
73258W        W34712  16.264  23.054   3.747
73259W        W34713  25.109  33.942   1.893
73260W        W34714   9.683  11.289   1.359
73261W        W34715   1.461  30.577  14.455
73262W        W34716  30.912  37.036   3.356
73263W        W34717  34.537  28.441   4.714
73264W        W34718  14.151  17.190  10.953
73265W        W34719  43.464  38.368  11.954
73266W        W34720  29.118  30.461  14.778
73267W        W34721  34.377  40.828  10.510
73268W        W34722  27.005  42.917   3.156
73269W        W34723  32.604  26.998  14.955
73270W        W34724  38.400  10.763   3.769
73271W        W34725  11.368   8.275   0.304
73272W        W34726  43.897  21.711   4.720
73273W        W34727  11.320   2.815  11.090
73274W        W34728  23.577  44.778   2.888
73275W        W34729   1.854   5.354   2.690
73276W        W34730  14.130  27.602  13.013
73277W        W34731  19.764  27.622  12.011
73278W        W34732   8.814  32.121   1.749
73279W        W34733  14.822  33.581   0.405
73280W        W34734  41.538  35.480   2.364
73281W        W34735  42.993  39.323   1.885
73282W        W34736  42.461  32.030   4.736
73283W        W34737  34.569  38.024  10.530
73284W        W34738  24.640   7.733   9.451
73285W        W34739  16.128  44.921   1.371
73286W        W34740  13.151  43.789  10.416
73287W        W34741  20.181  33.902  11.587
73288W        W34742  42.517  14.725   4.633
73289W        W34743  38.475  33.486   4.181
73290W        W34744  31.508  12.823  13.376
73291W        W34745   4.381   9.780  12.508
73292W        W34746   8.401  17.292   3.164
73293W        W34747  18.194   7.243   2.872
73294W        W34748  15.767  17.596  11.976
73295W        W34749  34.517   7.217  12.359
73296W        W34750   3.861  27.061   2.787
73297W        W34751   1.252  33.571  14.407
73298W        W34752  26.971  13.339   3.711
73299W        W34753  30.479  40.042   1.762
73300W        W34754  14.285   4.776  14.380
73301W        W34755  16.762  11.170   5.664
73302W        W34756  43.513  13.197   2.203
73303W        W34757   6.340  31.529   2.853
73304W        W34758   2.752  26.656  14.498
73305W        W34759  22.606  18.702  14.458
73306W        W34760  31.549  12.360  13.327
73307W        W34761  16.725  38.919  14.002
73308W        W34762  28.643  32.972  14.862
73309W        W34763  37.414  36.000   2.665
73310W        W34764   4.229  13.284  11.602
73311W        W34765  11.228  23.014   2.671
73312W        W34766   4.204  22.713   4.244
73313W        W34767  20.714  17.582  12.841
73314W        W34768  25.215  34.056   0.315
73315W        W34769  16.690  27.595   3.860
73316W        W34770  21.739  37.429   3.196
73317W        W34771  21.628  34.905  12.995
73318W        W34772  23.723  11.699   4.326
73319W        W34773   2.730   9.787  14.439
73320W        W34774  42.957   7.177  14.778
73321W        W34775  31.405   8.870   2.812
73322W        W34776  33.054   7.737   4.647
73323W        W34777  30.423  24.158  12.425
73324W        W34778  39.955   9.874   3.156
73325W        W34779  33.423  21.602  10.465
73326W        W34780  22.587  41.791  12.371
73327W        W34781  39.399  18.591   2.787
73328W        W34782  18.218  17.190   1.356
73329W        W34783  26.560  26.584   1.308
73330W        W34784  19.149  14.735   3.767
73331W        W34785  41.877  25.556   4.618
73332W        W34786  11.661   8.344  12.472
73333W        W34787   9.881  17.162   0.852
73334W        W34788  12.184  28.542  13.384
73335W        W34789  32.617  31.621   1.843
73336W        W34790  22.137  18.198  13.945
73337W        W34791  16.781   1.764   3.832
73338W        W34792  14.780   1.860   1.240
73339W        W34793   4.408  32.984  12.451
73340W        W34794  11.651  37.521   4.301
73341W        W34795   2.896  27.672  10.546
73342W        W34796  27.185  19.094  14.469
73343W        W34797  32.104   5.725  13.942
73344W        W34798  15.670   1.411  14.365
73345W        W34799  12.651  26.470  13.859
73346W        W34800   7.329  20.231  12.476
73347W        W34801  26.514  42.004  12.386
73348W        W34802  35.043   0.248   2.285
73349W        W34803   7.830  25.092   4.302
73350W        W34804  39.058  39.467   0.461
73351W        W34805  43.826  24.689  13.507
73352W        W34806   3.293   9.367  10.990
73353W        W34807   4.794  34.925   1.704
73354W        W34808   9.814  44.984   4.738
73355W        W34809  35.445  37.897   4.625
73356W        W34810   6.909  44.442  12.445
73357W        W34811  14.622  34.080  14.800
73358W        W34812  10.877  11.272   3.721
73359W        W34813  14.833  40.909   1.393
73360W        W34814  26.612  16.676   0.362
73361W        W34815   9.188   7.223  11.508
73362W        W34816  35.593  11.806  14.854
73363W        W34817  44.990  33.438   0.784
73364W        W34818  27.124  37.472   9.938
73365W        W34819  38.071  43.907   4.753
73366W        W34820   4.329  10.866   2.389
73367W        W34821  43.939  21.226  13.360
73368W        W34822  42.517   6.383  13.489
73369W        W34823   9.344  33.604  11.376
73370W        W34824  14.230  39.494  13.365
73371W        W34825  34.476  19.257  13.865
73372W        W34826  19.168   5.365   3.742
73373W        W34827  23.504  19.546  12.368
73374W        W34828  20.030  43.380   0.739
73375W        W34829  40.007  29.605   0.727
73376W        W34830  21.556  20.221   3.233
73377W        W34831  43.806   7.246  14.498
73378W        W34832  25.519  29.978  12.010
73379W        W34833   7.273   7.694  13.380
73380W        W34834  39.056  38.366  11.050
73381W        W34835  41.890  31.436  12.477
73382W        W34836  11.174  37.968  13.964
73383W        W34837  38.374   3.449  12.509
73384W        W34838  36.028  17.185  13.397
73385W        W34839   6.822   1.278  11.589
73386W        W34840  17.125  37.401  10.077
73387W        W34841   9.831  28.964  13.941
73388W        W34842  30.102   8.676  11.546
73389W        W34843  37.501  30.979   1.875
73390W        W34844  44.427  35.383  13.904
73391W        W34845  34.549  40.025   4.715
73392W        W34846   1.763  21.593  11.903
73393W        W34847  33.088  17.267   0.361
73394W        W34848   8.233  19.547   3.733
73395W        W34849  34.052  19.552  13.976
73396W        W34850   5.235  21.190  14.989
73397W        W34851  43.796  42.830   3.278
73398W        W34852  43.883  21.627  13.531
73399W        W34853  36.973  20.765  11.426
73400W        W34854   8.356  12.671  13.354
73401W        W34855  18.095  39.816  11.126
73402W        W34856   0.291  12.274  12.028
73403W        W34857  43.502  44.963  14.800
73404W        W34858  20.210  21.049  11.549
73405W        W34859  38.464  20.227   0.751
73406W        W34860  18.673  30.420  13.003
73407W        W34861   9.166  11.279  11.379
73408W        W34862  21.227  17.655  10.428
73409W        W34863  26.090  37.030  10.573
73410W        W34864  13.799  30.127  11.437
73411W        W34865  14.162  26.505  12.577
73412W        W34866  14.305  26.116   3.184
73413W        W34867  16.249  32.608  12.359
73414W        W34868  33.459  23.601  13.972
73415W        W34869  25.215  18.764   5.143
73416W        W34870  30.569   9.349   4.721
73417W        W34871  42.522  24.721   3.650
73418W        W34872  23.127  16.105   0.280
73419W        W34873  17.274   2.927   1.219
73420W        W34874  23.549  10.739   2.728
73421W        W34875  33.908  33.886   2.715
73422W        W34876  14.656  23.518   5.154
73423W        W34877  42.358   4.870  12.505
73424W        W34878   7.278  38.336   4.238
73425W        W34879  24.178   3.436   3.218
73426W        W34880  28.025   2.271  11.553
73427W        W34881  14.155  14.780  13.418
73428W        W34882  34.570  35.084   3.239
73429W        W34883  34.546  26.076   4.645
73430W        W34884  19.596  33.624   0.815
73431W        W34885  11.287  23.016  13.015
73432W        W34886  40.914   7.216  12.958
73433W        W34887  14.163  28.579   1.267
73434W        W34888  37.447  27.663   0.407
73435W        W34889   0.985  16.698  12.998
73436W        W34890  44.410  22.693  14.439
73437W        W34891  19.039  41.516  12.835
73438W        W34892  35.047  42.794   5.199
73439W        W34893  22.504  41.408   0.424
73440W        W34894  21.715  21.152  10.467
73441W        W34895  29.477  40.375   9.997
73442W        W34896  18.577   2.226  13.013
73443W        W34897  30.589  33.475   1.337
73444W        W34898   3.868  17.103   2.358
73445W        W34899  22.710  39.015   3.729
73446W        W34900   8.167   1.415   0.793
73447W        W34901  39.909  17.655  13.052
73448W        W34902  14.308  29.928  12.474
73449W        W34903  38.960  29.611   0.828
73450W        W34904  31.420  37.407  14.022
73451W        W34905  15.127  26.071  12.984
73452W        W34906  27.108  41.042  12.065
73453W        W34907  10.636  37.516   4.244
73454W        W34908   7.691  28.030   4.808
73455W        W34909   6.813  27.119   0.878
73456W        W34910   9.672  42.860   2.345
73457W        W34911  20.149  41.912   0.824
73458W        W34912   1.914   2.905  12.407
73459W        W34913  13.278   0.273   1.339
73460W        W34914   5.902  42.020   4.788
73461W        W34915  29.438  23.579  14.385
73462W        W34916  27.148  20.755  14.488
73463W        W34917  35.475   9.786  10.918
73464W        W34918  18.588   7.760   2.839
73465W        W34919  13.624   1.330  13.412
73466W        W34920  19.196  21.605   2.229
73467W        W34921  27.672  32.396   2.406
73468W        W34922  19.075  35.862  14.327
73469W        W34923  22.640  13.685  12.576
73470W        W34924   7.704   4.296  11.906
73471W        W34925  13.740   4.731  14.770
73472W        W34926  31.411   1.745   1.280
73473W        W34927  27.609   0.872  13.975
73474W        W34928  33.564  34.039  11.070
73475W        W34929   5.879  19.052  12.965
73476W        W34930  44.450  31.419   0.340
73477W        W34931  27.070   6.392   2.753
73478W        W34932  14.673  15.583   2.321
73479W        W34933  21.603  14.237   2.235
73480W        W34934   6.420  38.534  14.497
73481W        W34935  27.453  12.778   3.798
73482W        W34936  17.199  42.956  10.107
73483W        W34937  11.841  24.072  12.985
73484W        W34938   8.322  20.727  14.770
73485W        W34939  14.115  13.727  14.505
73486W        W34940  11.308   1.361   4.166
73487W        W34941  23.505   4.929   4.758
73488W        W34942   0.323   5.864  12.007
73489W        W34943   8.168  31.113   2.252
73490W        W34944  41.345  32.116  10.968
73491W        W34945  28.624  35.586   9.514
73492W        W34946  41.848  11.257   2.772
73493W        W34947  31.905  43.460   1.404
73494W        W34948  35.456   4.836   0.832
73495W        W34949   4.795  42.829   2.766
73496W        W34950   4.346   0.311   2.856
73497W        W34951  39.016   0.916   0.796
73498W        W34952  26.523   2.955   0.959
73499W        W34953  25.968  27.187   0.290
73500W        W34954  22.612  25.647  12.017
73501W        W34955  25.133  20.741  10.905
73502W        W34956  30.164  10.809   0.930
73503W        W34957  34.979   1.842   2.308
73504W        W34958   4.865  38.394   3.310
73505W        W34959   3.928  24.517   1.252
73506W        W34960  17.147  37.386   1.413
73507W        W34961  32.108  16.710  10.589
73508W        W34962  13.681  24.597  11.024
73509W        W34963  17.709   7.281  14.451
73510W        W34964  15.115  18.162  14.336
73511W        W34965  14.285  16.210  11.425
73512W        W34966  30.554  28.930  13.879
73513W        W34967  13.734  26.185   4.624
73514W        W34968  20.172  18.775  14.766
73515W        W34969  22.047  10.830  14.993
73516W        W34970  37.484  24.066   3.710
73517W        W34971   7.381  20.605   1.873
73518W        W34972  28.646  38.374  12.575
73519W        W34973  21.663  44.995  14.306
73520W        W34974  31.593  15.717  13.007
73521W        W34975   7.272  28.994   4.718
73522W        W34976  44.399   5.417   2.845
73523W        W34977  11.286  18.057   0.807
73524W        W34978   9.290  41.448   4.618
73525W        W34979  28.457   6.226  14.849
73526W        W34980  30.516   1.348   3.202
73527W        W34981  29.645  38.983   3.735
73528W        W34982  18.701  20.638  14.489
73529W        W34983  12.168  28.518  14.830
73530W        W34984  13.122  22.129   3.297
73531W        W34985  38.467  41.324   9.511
73532W        W34986   6.364  19.121  14.414
73533W        W34987  22.034  35.002   0.769
73534W        W34988  42.447  25.139   1.935
73535W        W34989  32.480  42.365  10.481
73536W        W34990  12.666  23.088   4.730
73537W        W34991  39.418  10.373  11.029
73538W        W34992  18.274   4.827  11.915
73539W        W34993  38.499  38.408   9.633
73540W        W34994   5.718  17.112   2.746
73541W        W34995  41.388  28.050   4.600
73542W        W34996  15.643  43.872   4.297
73543W        W34997  23.520  34.543  10.589
73544W        W34998  43.893  31.599   2.212
73545W        W34999  15.798  28.596  12.032
73546W        W35000  36.370  28.496   3.382
73547W        W35001  19.675  18.123  11.944
73548W        W35002  23.999  35.572  11.875
73549W        W35003  29.155   1.864  11.910
73550W        W35004  24.500  17.101   2.680
73551W        W35005  13.305   4.876   4.652
73552W        W35006  37.535  23.676   4.269
73553W        W35007   7.706  30.439   0.782
73554W        W35008  26.693  11.341  11.063
73555W        W35009  22.153  31.441  13.020
73556W        W35010  39.865  17.153   2.393
73557W        W35011  38.535  40.388   3.739
73558W        W35012  24.593  10.721   4.232
73559W        W35013  26.171  23.074   4.836
73560W        W35014   9.260  19.614   0.339
73561W        W35015  21.181  30.549  12.923
73562W        W35016  23.063  44.277   2.871
73563W        W35017  44.978  22.732   3.658
73564W        W35018  17.754  30.594   0.760
73565W        W35019   0.293   6.351   0.260
73566W        W35020  21.561  43.891   4.741
73567W        W35021  19.627   6.223  13.503
73568W        W35022   5.864  17.596  13.337
73569W        W35023   1.331  29.110   4.834
73570W        W35024  41.497  17.784   0.917
73571W        W35025  14.655  31.612  13.322
73572W        W35026   3.783   5.436   3.362
73573W        W35027  38.029  34.561  12.857
73574W        W35028  17.639  14.801  14.292
73575W        W35029  33.512  38.425   0.317
73576W        W35030  34.968  29.666   0.308
73577W        W35031  10.281  37.907  12.412
73578W        W35032  11.802  24.214  11.860
73579W        W35033  33.041  43.839  14.940
73580W        W35034  28.042  23.097  14.415
73581W        W35035  40.809  12.319  14.840
73582W        W35036  23.119   6.391   0.747
73583W        W35037  33.911   4.354   0.802
73584W        W35038  19.249  37.341   2.795
73585W        W35039  28.995  34.606   3.734
73586W        W35040  27.193  35.012  13.884
73587W        W35041   9.829   9.177   4.634
73588W        W35042  35.923   3.903  12.406
73589W        W35043  29.930  29.041   3.730
73590W        W35044  25.211  24.182  13.940
73591W        W35045  21.678  26.201   0.283
73592W        W35046  41.372  14.152  11.522
73593W        W35047  24.033  26.523   3.760
73594W        W35048  30.157  30.585  12.052
73595W        W35049   5.427  18.172   0.779
73596W        W35050   0.783  11.260   4.808
73597W        W35051  11.260  38.418  11.592
73598W        W35052  23.543  26.569   4.833
73599W        W35053   6.702  25.533   0.337
73600W        W35054   1.936  43.769   1.697
73601W        W35055  25.115  15.087   0.952
73602W        W35056   7.306  32.039  13.970
73603W        W35057  31.952  41.865  11.109
73604W        W35058  33.896   5.363   1.817
73605W        W35059  24.025  21.606   4.270
73606W        W35060  22.114  44.795   2.665
73607W        W35061  17.595  41.880  12.435
73608W        W35062  37.580   5.285   1.345
73609W        W35063  44.880  14.303   3.828
73610W        W35064  20.087  24.564   3.847
73611W        W35065  24.118  21.211  11.515
73612W        W35066  27.158  21.163   1.382
73613W        W35067  42.000  29.039   0.927
73614W        W35068  40.855  36.494  14.031
73615W        W35069  38.061   3.808   0.410
73616W        W35070  18.762  25.985  14.503
73617W        W35071  36.452  25.603   1.728
73618W        W35072  14.316  12.181  11.893
73619W        W35073  22.042  41.954   2.397
73620W        W35074  30.479  27.548   3.376
73621W        W35075  26.004  16.697   4.244
73622W        W35076   3.228  21.714   1.911
73623W        W35077  35.396  22.737  13.418
73624W        W35078  31.145   6.268   2.671
73625W        W35079   3.882   1.816   3.145
73626W        W35080  16.801  18.706   2.875
73627W        W35081  22.648  19.755   1.442
73628W        W35082   9.370   2.818  14.471
73629W        W35083  33.044  41.950  11.929
73630W        W35084   6.896  13.629  13.799
73631W        W35085   6.680  39.384   2.351
73632W        W35086  33.878  30.591   1.359
73633W        W35087   4.337  34.390   3.701
73634W        W35088  12.215  25.543   4.338
73635W        W35089  20.764  32.957   4.171
73636W        W35090  33.612   9.226   5.232
73637W        W35091   9.694   4.699  13.464
73638W        W35092  40.515  10.204  14.479
73639W        W35093   0.789   6.801   0.955
73640W        W35094  14.246  37.010   0.741
73641W        W35095  42.456   4.390   3.637
73642W        W35096  43.903  43.489  11.581
73643W        W35097  26.609  38.051  11.074
73644W        W35098  38.956  40.929   2.887
73645W        W35099  41.786   9.252  11.404
73646W        W35100  21.734  23.584   2.377
73647W        W35101  34.396  24.027   2.758
73648W        W35102   5.211  12.130  13.395
73649W        W35103  26.631  19.541   2.761
73650W        W35104  11.815   5.286  11.018
73651W        W35105  43.888  31.131  11.997
73652W        W35106  23.043  32.458  13.403
73653W        W35107  30.968  23.502  12.404
73654W        W35108  25.095  42.890  12.839
73655W        W35109  15.781  38.542   2.208
73656W        W35110  24.129  11.636   0.402
73657W        W35111  12.225  16.272   0.821
73658W        W35112  26.640   0.762   4.159
73659W        W35113  44.364  37.420  13.980
73660W        W35114   3.249  19.185   2.708
73661W        W35115  15.609  13.175   0.374
73662W        W35116  23.001  41.502   0.727
73663W        W35117  27.624  33.511  13.814
73664W        W35118  17.284   0.790   1.910
73665W        W35119  26.198  38.408  10.988
73666W        W35120  12.734  24.592   0.960
73667W        W35121   7.817  21.025  11.502
73668W        W35122   6.400  12.819   9.959
73669W        W35123  15.708  27.124  12.490
73670W        W35124  23.559  10.824   4.793
73671W        W35125  29.467  19.253   2.234
73672W        W35126  33.880  13.140  13.456
73673W        W35127  17.288  43.429   4.820
73674W        W35128  22.507  11.800  11.966
73675W        W35129   3.827  30.945   1.414
73676W        W35130   4.767  18.188   4.619
73677W        W35131  11.803  23.596  12.555
73678W        W35132   9.360  29.522  14.876
73679W        W35133  38.048  28.681   2.318
73680W        W35134  12.238   5.703  13.817
73681W        W35135  31.608  11.367  12.418
73682W        W35136   3.428  41.447  10.413
73683W        W35137  44.470  14.296  11.101
73684W        W35138  34.531  17.241   0.417
73685W        W35139  19.543  15.613  14.499
73686W        W35140  10.725   2.957  14.427
73687W        W35141  34.502   9.238   3.697
73688W        W35142  23.573  43.485   0.248
73689W        W35143  44.444  19.684  10.448
73690W        W35144  42.895  27.687   4.671
73691W        W35145  39.497  14.608   4.113
73692W        W35146  35.922  20.254   1.858
73693W        W35147  30.978  31.917   4.817
73694W        W35148  21.038  28.109  10.937
73695W        W35149  24.223  30.143  11.013
73696W        W35150  18.601  24.057  12.096
73697W        W35151  36.911  13.748  13.841
73698W        W35152  33.104  36.573  10.980
73699W        W35153   4.876  16.079   4.694
73700W        W35154  26.142   2.955   3.319
73701W        W35155  24.619  42.463  14.843
73702W        W35156  13.229  13.108  13.347
73703W        W35157  38.064  28.956   2.373
73704W        W35158  43.421  18.791  13.350
73705W        W35159  44.406  28.058  10.523
73706W        W35160  25.076  21.072  10.930
73707W        W35161  44.823  25.485  11.868
73708W        W35162  23.091  20.177   2.249
73709W        W35163  29.639  19.224  13.990
73710W        W35164  25.600  16.179  12.433
73711W        W35165  19.599  36.588  11.050
73712W        W35166  17.600  40.529   4.784
73713W        W35167   8.840   2.260   4.144
73714W        W35168   8.864  19.059  11.110
73715W        W35169   5.348  24.999   2.326
73716W        W35170  37.495  14.775  13.490
73717W        W35171  14.606   0.966  11.894
73718W        W35172   9.843  29.142  11.382
73719W        W35173  27.066   0.440   1.828
73720W        W35174  36.431   2.955  12.847
73721W        W35175  36.489  19.069   1.923
73722W        W35176  30.157  32.933  12.975
73723W        W35177  35.858  38.512  11.547
73724W        W35178  38.363  33.074   3.150
73725W        W35179  34.049  36.403  10.890
73726W        W35180  24.632  18.142  11.865
73727W        W35181  43.922   5.381   4.612
73728W        W35182  32.968   1.421   0.766
73729W        W35183   6.223   9.303  14.911
73730W        W35184  26.191  33.444   1.223
73731W        W35185  34.959  15.668  12.349
73732W        W35186  30.948  14.605   4.796
73733W        W35187  43.789  37.337   1.789
73734W        W35188  30.133  36.494  10.462
73735W        W35189  29.530  24.991  11.485
73736W        W35190  41.296  15.582  10.029
73737W        W35191  41.299  43.964  14.796
73738W        W35192  14.329  39.941  13.822
73739W        W35193  38.950  42.343   5.113
73740W        W35194   6.420  38.021  11.567
73741W        W35195  38.017  32.963   2.231
73742W        W35196  24.148  34.080   2.723
73743W        W35197  33.472  30.438   0.257
73744W        W35198  22.217  11.855  11.944
73745W        W35199  28.137  35.417  13.889
73746W        W35200  39.425  27.164  14.314
73747W        W35201  25.217   7.738   2.709
73748W        W35202  20.048  33.023   1.827
73749W        W35203  17.161  35.516   3.303
73750W        W35204  27.051  29.658  10.504
73751W        W35205  32.624  33.955  10.471
73752W        W35206  31.072  39.353   4.602
73753W        W35207  42.344   7.734   2.827
73754W        W35208  10.329  28.487   0.926
73755W        W35209  34.937  10.652   1.799
73756W        W35210  44.761  31.494   1.235
73757W        W35211   1.827  18.642  10.564
73758W        W35212   0.768  17.684   2.192
73759W        W35213  37.065  12.779   3.807
73760W        W35214  25.569   0.839  14.389
73761W        W35215  37.487  29.103  11.480
73762W        W35216  39.332   9.336   4.820
73763W        W35217  22.600  19.702   2.189
73764W        W35218  33.579   7.833  12.577
73765W        W35219  31.593  11.207   3.646
73766W        W35220  39.970  19.053   2.381
73767W        W35221   5.919  10.759   2.901
73768W        W35222   9.660  40.878  11.594
73769W        W35223  22.632  31.971   5.313
73770W        W35224  44.986  35.522  13.924
73771W        W35225   6.273  18.280  11.450
73772W        W35226  39.486  33.560   2.279
73773W        W35227  37.930  34.550   2.884
73774W        W35228  36.933  43.777   4.600
73775W        W35229  25.086   2.876   2.837
73776W        W35230  19.243  13.288   3.747
73777W        W35231  33.957   7.271  13.440
73778W        W35232  14.684   7.862   2.307
73779W        W35233  44.369  31.077  13.794
73780W        W35234  14.654  32.987   3.794
73781W        W35235  32.045   3.323   0.733
73782W        W35236   0.304  30.622  10.963
73783W        W35237  26.181  41.870  11.410
73784W        W35238  40.511  19.104   4.735
73785W        W35239  11.731  25.596   1.730
73786W        W35240  13.332  11.788  11.444
73787W        W35241  26.614  11.197  11.933
73788W        W35242  11.736  44.358   2.663
73789W        W35243  27.133  35.934   1.280
73790W        W35244   7.896  16.774  13.031
73791W        W35245  27.117   9.727   1.892
73792W        W35246  32.608  28.089  14.031
73793W        W35247  41.836  30.925   2.898
73794W        W35248  11.851   5.230  11.558
73795W        W35249  32.140  36.969   2.392
73796W        W35250  34.534  16.768  10.975
73797W        W35251  37.895  42.941  14.277
73798W        W35252  35.960  32.885  13.907
73799W        W35253   1.242   0.276   2.335
73800W        W35254   9.161   6.830   1.870
73801W        W35255  13.670  22.174   0.864
73802W        W35256  34.916   3.352   3.633
73803W        W35257  27.482   6.894  13.527
73804W        W35258  25.053  16.263   0.769
73805W        W35259  10.189  40.387  13.859
73806W        W35260  10.164  31.902  11.442
73807W        W35261  22.120  16.193   2.785
73808W        W35262  44.992  24.088  12.463
73809W        W35263  26.586  21.684   0.262
73810W        W35264  21.643  15.091  12.564
73811W        W35265  40.456  37.971   4.255
73812W        W35266   5.821  32.588  11.928
73813W        W35267  11.729  44.969   0.742
73814W        W35268  39.039   9.335  11.386
73815W        W35269  43.305   0.940  13.359
73816W        W35270  24.987  10.644   2.769
73817W        W35271  21.736  16.715   3.353
73818W        W35272  44.310  31.905   0.767
73819W        W35273  44.827  17.263  13.001
73820W        W35274  18.643  34.955   5.265
73821W        W35275  18.758  44.790   4.677
73822W        W35276  33.126  36.086   3.150
73823W        W35277   2.795  11.717  11.903
73824W        W35278  36.923   3.870   2.324
73825W        W35279  31.900  14.640   4.139
73826W        W35280  40.476   0.323   2.338
73827W        W35281  12.157  27.493   2.705
73828W        W35282  24.565   2.914   4.222
73829W        W35283  31.645  35.052  12.365
73830W        W35284  40.941  13.218   2.345
73831W        W35285  39.498  28.661  12.374
73832W        W35286  14.260   7.709  10.640
73833W        W35287   4.802  18.076   1.745
73834W        W35288  37.521   9.168   0.936
73835W        W35289   6.391  33.999   2.897
73836W        W35290   6.326   0.285   3.258
73837W        W35291  26.113  31.926  12.840
73838W        W35292  31.138  20.611   3.857
73839W        W35293  11.671   1.427  14.456
73840W        W35294   8.849  19.674   3.264
73841W        W35295  22.144  38.491  14.382
73842W        W35296  17.580   0.392   2.723
73843W        W35297  19.580  13.670   0.765
73844W        W35298  41.806  30.129   2.385
73845W        W35299  27.609  21.137   4.115
73846W        W35300  28.630   8.784  13.995
73847W        W35301   6.712  28.169   4.175
73848W        W35302   8.243  33.961  13.320
73849W        W35303  25.203  41.340  10.904
73850W        W35304  39.515  35.067  12.527
73851W        W35305   9.664   9.201  14.822
73852W        W35306   7.267  25.043  11.604
73853W        W35307  10.639  30.952   0.798
73854W        W35308   5.426  13.276  14.986
73855W        W35309  21.699   9.241   2.329
73856W        W35310  44.801  15.122   3.239
73857W        W35311  18.064  17.240   2.335
73858W        W35312  44.773  33.928   3.250
73859W        W35313   5.329  31.062  14.927
73860W        W35314   9.269  20.169  13.505
73861W        W35315  29.527  38.002  10.478
73862W        W35316   1.738   3.721   1.819
73863W        W35317  36.996  34.097   1.869
73864W        W35318   6.797  29.077  10.615
73865W        W35319  20.554   9.274   3.312
73866W        W35320   1.739  11.253  11.878
73867W        W35321  15.701  16.198  10.970
73868W        W35322  37.043  32.095  13.961
73869W        W35323  39.359  37.017   3.717
73870W        W35324  36.921   5.694  12.854
73871W        W35325   0.988  24.094  13.799
73872W        W35326  26.504   3.219  12.564
73873W        W35327  25.102   2.887   2.319
73874W        W35328  13.201  42.391  13.401
73875W        W35329  24.487  24.200  13.999
73876W        W35330  11.178  29.638  14.285
73877W        W35331  27.043  42.307  13.376
73878W        W35332  13.714   1.856  11.951
73879W        W35333  16.158  30.469   0.315
73880W        W35334  17.147  34.957  10.428
73881W        W35335  44.935  16.717   1.379
73882W        W35336  11.658  37.026  13.940
73883W        W35337   1.773  29.064  12.055
73884W        W35338  44.955  28.955  14.862
73885W        W35339  22.712  32.606   4.290
73886W        W35340  28.618   9.808   2.744
73887W        W35341  38.462   5.860   3.738
73888W        W35342  21.198  33.049  11.613
73889W        W35343  19.769   4.207   0.379
73890W        W35344  36.973  21.119  14.856
73891W        W35345  42.343  28.534   4.159
73892W        W35346   1.463  13.773   2.809
73893W        W35347   7.235  18.112  12.420
73894W        W35348  20.216  27.973   2.730
73895W        W35349  34.436  10.233   4.731
73896W        W35350  32.938   9.210  10.998
73897W        W35351  36.849   5.324   4.630
73898W        W35352  41.444  29.135   1.779
73899W        W35353  37.947  15.779   0.756
73900W        W35354  21.568  24.721   0.275
73901W        W35355  29.458  38.398  11.448
73902W        W35356  25.084   0.805  14.363
73903W        W35357  19.567  39.425   4.767
73904W        W35358  40.950   0.303  13.830
73905W        W35359   6.794  20.189  11.011
73906W        W35360  35.472  25.636  10.961
73907W        W35361  18.700  24.084   1.779
73908W        W35362  31.134  33.968   5.250
73909W        W35363   2.843  25.078   4.273
73910W        W35364  31.052  21.548   1.236
73911W        W35365   1.322  18.568  11.073
73912W        W35366  32.066   8.369   3.245
73913W        W35367  31.607  18.228  11.468
73914W        W35368  23.189   1.758   1.364
73915W        W35369  30.098   6.326  14.821
73916W        W35370  32.067  15.204   4.146
73917W        W35371  36.498  13.314   2.795
73918W        W35372  20.220   5.873   1.429
73919W        W35373  16.107  13.730  14.383
73920W        W35374  36.492  24.488   1.903
73921W        W35375  39.549  41.985   3.772
73922W        W35376   0.285  12.270  10.910
73923W        W35377  40.335  38.861  14.828
73924W        W35378  10.300  12.786  13.472
73925W        W35379  22.637  16.095   3.742
73926W        W35380   3.743   9.378   3.842
73927W        W35381  29.138  22.025   1.823
73928W        W35382  34.923  41.899   1.771
73929W        W35383  42.414  13.795  14.375
73930W        W35384  31.592  18.625   4.637
73931W        W35385  29.540  41.958   2.257
73932W        W35386  37.873   5.775   3.242
73933W        W35387   2.953  20.093   1.729
73934W        W35388  37.965  14.125  12.432
73935W        W35389  18.661  42.314  14.916
73936W        W35390  36.869  30.007   4.242
73937W        W35391  39.965  13.259  10.915
73938W        W35392  23.998   1.751  10.445
73939W        W35393  14.272  35.933   2.263
73940W        W35394  28.561  15.212  14.982
73941W        W35395   6.399  11.713  14.846
73942W        W35396  13.347  26.572  13.943
73943W        W35397   7.235  19.743  11.480
73944W        W35398  29.170  28.678   2.769
73945W        W35399  35.446  30.083  11.378
73946W        W35400  44.279  41.808   3.330
73947W        W35401  26.015   4.779   3.840
73948W        W35402   1.463  12.833  12.564
73949W        W35403  27.079  10.153  12.471
73950W        W35404  34.066  37.544   1.805
73951W        W35405   4.226  24.658  14.451
73952W        W35406  13.348   0.264  14.401
73953W        W35407  28.987  35.870   3.638
73954W        W35408  18.165   5.389   2.669
73955W        W35409  29.062  29.498   0.412
73956W        W35410  37.399  25.006  14.860
73957W        W35411  29.115  38.373  10.571
73958W        W35412   1.812  18.286  13.531
73959W        W35413  11.178  16.787   0.842
73960W        W35414  27.512  33.577   3.307
73961W        W35415  13.249  23.181  12.002
73962W        W35416   7.862  22.535  10.534
73963W        W35417   1.254  10.731   4.165
73964W        W35418   1.902   3.339   1.773
73965W        W35419  17.724  21.584   2.190
73966W        W35420  34.454  10.754  12.908
73967W        W35421  32.556   3.745  14.492
73968W        W35422  43.014  10.688   2.302
73969W        W35423  20.577  16.710  14.798
73970W        W35424  27.476  36.859   5.107
73971W        W35425  42.866  41.356  14.337
73972W        W35426  30.023  10.852   3.698
73973W        W35427  31.457   1.436   1.262
73974W        W35428  29.600  20.645   3.386
73975W        W35429  30.118  42.344   3.711
73976W        W35430  39.494  21.081  11.409
73977W        W35431  17.626  23.051  10.510
73978W        W35432   0.836  33.958   0.837
73979W        W35433  12.765  16.586  12.572
73980W        W35434  39.936   8.663  13.969
73981W        W35435  41.932  13.647   2.275
73982W        W35436  27.996  22.607   3.287
73983W        W35437  17.099  20.225  13.414
73984W        W35438  18.770  23.691   2.227
73985W        W35439  38.360  27.972  11.933
73986W        W35440  30.152  28.609   1.358
73987W        W35441  11.195  29.597   3.705
73988W        W35442   2.925  32.107  12.066
73989W        W35443   9.152  35.958   1.416
73990W        W35444  39.838  37.513   2.849
73991W        W35445  23.184  42.320   4.704
73992W        W35446  26.201  35.890  10.556
73993W        W35447  29.562   1.412   3.290
73994W        W35448  33.091  34.055   4.825
73995W        W35449  14.833   5.809   3.254
73996W        W35450  12.170  22.233   2.245
73997W        W35451   0.915  11.630   2.376
73998W        W35452  29.618  36.069  12.363
73999W        W35453  31.468  16.608   4.691
74000W        W35454  10.249  20.679   3.163
74001W        W35455  18.662   8.825   5.246
74002W        W35456  13.151  17.094   1.845
74003W        W35457  33.553  26.041   0.958
74004W        W35458  33.569  14.336  11.481
74005W        W35459  41.474  21.191   3.821
74006W        W35460  36.889  39.941   2.745
74007W        W35461   7.826  32.954   0.269
74008W        W35462  28.187  31.911  13.372
74009W        W35463  44.326  27.044   4.690
74010W        W35464  34.001  20.214   0.392
74011W        W35465  28.994  42.492  14.828
74012W        W35466  31.572  39.852   4.219
74013W        W35467  33.124  22.236   3.828
74014W        W35468   1.357  38.425   1.701
74015W        W35469   7.906  34.489  14.808
74016W        W35470  38.408  39.541   2.264
74017W        W35471  39.977   5.386  13.007
74018W        W35472  18.789  25.581   2.408
74019W        W35473  30.996  12.785  12.363
74020W        W35474  21.654  39.390   1.367
74021W        W35475  17.616   3.369  12.857
74022W        W35476   1.394  36.446   4.279
74023W        W35477  43.323  35.500   2.828
74024W        W35478   6.800  37.872   0.319
74025W        W35479   2.877  28.140  13.832
74026W        W35480  26.517  30.432  12.035
74027W        W35481  20.541  44.879   0.761
74028W        W35482  14.641  20.686   2.375
74029W        W35483   3.294  28.005   1.800
74030W        W35484   5.332   1.777  11.556
74031W        W35485  14.759   8.663   1.736
74032W        W35486  10.309  44.501   1.860
74033W        W35487  21.154   0.276  12.564
74034W        W35488  37.568  28.554   3.322
74035W        W35489  26.482   5.422  11.108
74036W        W35490  43.423  27.639  13.380
74037W        W35491  39.492  16.794   0.763
74038W        W35492  19.250  23.148  14.805
74039W        W35493  20.714  21.719  10.514
74040W        W35494  41.993  42.350  13.548
74041W        W35495  31.557  13.129   1.727
74042W        W35496   4.824  31.645   3.843
74043W        W35497  32.483  32.068   2.202
74044W        W35498  24.170  25.504   3.741
74045W        W35499  21.573  36.432   1.789
74046W        W35500   5.231  27.187  11.408
74047W        W35501  20.533  23.064   1.732
74048W        W35502  44.402  17.281   3.723
74049W        W35503  29.609  37.528   2.275
74050W        W35504   5.392   9.818  14.810
74051W        W35505  21.156  16.765   1.735
74052W        W35506  33.924  43.367   3.705
74053W        W35507  15.208  21.240  10.582
74054W        W35508  30.154  13.781  11.858
74055W        W35509  13.697  14.212   0.393
74056W        W35510   6.334  12.320   3.162
74057W        W35511  43.317  38.857   0.928
74058W        W35512  38.852  16.214  10.409
74059W        W35513  22.535  27.488  10.597
74060W        W35514   2.423  25.489  12.829
74061W        W35515  19.768   0.264  10.911
74062W        W35516   5.334  25.614   3.146
74063W        W35517  32.029  18.626   2.293
74064W        W35518  16.092  36.478  10.922
74065W        W35519   5.778  11.263  14.828
74066W        W35520  27.521  26.032   3.209
74067W        W35521  34.549  14.323  13.394
74068W        W35522  36.357  24.579   1.298
74069W        W35523  21.038  20.179  13.939
74070W        W35524   5.908  41.312   1.317
74071W        W35525  42.370   6.835  14.944
74072W        W35526   2.767  38.413  11.996
74073W        W35527   9.706  24.661  12.497
74074W        W35528  29.081  36.010   1.782
74075W        W35529  12.808  12.767   0.280
74076W        W35530   2.231   8.244   2.742
74077W        W35531  40.951  17.271  10.908
74078W        W35532  14.143   9.709   3.785
74079W        W35533  39.976  10.241  12.515
74080W        W35534  40.405   5.860  11.107
74081W        W35535   4.879  11.223  13.506
74082W        W35536   5.340  17.110   1.406
74083W        W35537   0.796   8.695  10.960
74084W        W35538  30.146  40.445   3.173
74085W        W35539  12.688  21.604  12.017
74086W        W35540  38.460  24.015   1.247
74087W        W35541  30.057  33.385  14.981
74088W        W35542  28.946  30.613   4.627
74089W        W35543  10.341  40.907   5.598
74090W        W35544  42.318  39.994   0.394
74091W        W35545   0.376  44.375   1.801
74092W        W35546  32.948  38.941  10.611
74093W        W35547  16.801   6.395  12.451
74094W        W35548  13.818   3.402  11.420
74095W        W35549   5.754  17.156   2.272
74096W        W35550  30.100  13.756  10.898
74097W        W35551  33.435  22.066  12.513
74098W        W35552  32.636  42.850   5.221
74099W        W35553   2.358  13.834   2.291
74100W        W35554  32.908  20.273   4.786
74101W        W35555  39.811  34.875   1.812
74102W        W35556  30.624   3.424  12.529
74103W        W35557  14.175  31.947   4.291
74104W        W35558   7.394  32.922   1.762
74105W        W35559  37.043  39.509  10.021
74106W        W35560  23.707  21.551  12.412
74107W        W35561  15.651   7.746  10.549
74108W        W35562  24.570  12.782  13.946
74109W        W35563  32.565  31.573   0.320
74110W        W35564   7.304  17.199   3.305
74111W        W35565  21.636  43.982   1.244
74112W        W35566  30.443  22.008  14.975
74113W        W35567  32.507   7.337   3.279
74114W        W35568  43.341  13.684   2.217
74115W        W35569  29.158  41.355   4.622
74116W        W35570  28.148  23.191  10.422
74117W        W35571  11.790  35.525   3.160
74118W        W35572   4.820   6.797  13.799
74119W        W35573  26.142   6.757  14.395
74120W        W35574  32.020  42.526   1.373
74121W        W35575   7.831  10.265   4.141
74122W        W35576   6.775  11.640  14.917
74123W        W35577  18.243  38.927  13.449
74124W        W35578  20.580   0.372  10.414
74125W        W35579  20.192   0.921   3.673
74126W        W35580  21.096  13.832   3.312
74127W        W35581  32.483  21.243  14.398
74128W        W35582  30.120  39.922   2.789
74129W        W35583  14.612  38.377  13.456
74130W        W35584  22.629   2.256   0.478
74131W        W35585   4.751  40.970   2.399
74132W        W35586  10.734  26.487  13.511
74133W        W35587  10.634  39.533  13.064
74134W        W35588   8.836   9.729  13.513
74135W        W35589  43.929  17.114  10.613
74136W        W35590  26.585  24.125   5.659
74137W        W35591   0.898  20.703  14.414
74138W        W35592   5.741   6.915   3.714
74139W        W35593   8.299  43.295  12.929
74140W        W35594  26.101  26.693  11.891
74141W        W35595  24.635  18.606   2.750
74142W        W35596  16.122  31.029   1.887
74143W        W35597  16.250  33.028  10.603
74144W        W35598  36.883  11.764  11.504
74145W        W35599  19.548   7.821  10.053
74146W        W35600   9.807  41.015   0.385
74147W        W35601   5.857  44.396  10.077
74148W        W35602  18.216  11.275   4.624
74149W        W35603   9.704  10.240  12.849
74150W        W35604  44.396  34.892  14.320
74151W        W35605  34.869  40.840   3.679
74152W        W35606  42.852  15.096   1.426
74153W        W35607  32.467  17.798  11.378
74154W        W35608   7.774   5.782   4.830
74155W        W35609  35.397  39.057  14.315
74156W        W35610  11.731  26.685   4.177
74157W        W35611  28.455  21.078  10.609
74158W        W35612  10.342  40.408   3.268
74159W        W35613  43.368  27.650  12.448
74160W        W35614   9.197  11.801   2.763
74161W        W35615  11.264  37.484  12.931
74162W        W35616  36.996  38.896  14.993
74163W        W35617  29.657   2.941  11.534
74164W        W35618   9.841  13.677   1.264
74165W        W35619  21.069  22.240  11.573
74166W        W35620  31.909  42.351  12.026
74167W        W35621  22.678  37.057  13.425
74168W        W35622  34.594   6.865  14.444
74169W        W35623  13.671  39.388  14.397
74170W        W35624  15.614  27.129   4.648
74171W        W35625  10.648  44.989  12.468
74172W        W35626   2.232   5.716  14.777
74173W        W35627   0.829  24.514   0.474
74174W        W35628  20.142  42.401   4.807
74175W        W35629   6.853  25.185  11.503
74176W        W35630  38.950   1.453  10.524
74177W        W35631  19.548  37.417  14.772
74178W        W35632  29.080  31.585   2.407
74179W        W35633   3.353  20.541  12.881
74180W        W35634   9.776  11.352  11.393
74181W        W35635  27.057  30.117  10.934
74182W        W35636  43.915   7.826   4.726
74183W        W35637  16.206  40.953  10.075
74184W        W35638  27.147  13.763  11.475
74185W        W35639  44.352  32.901   2.386
74186W        W35640  23.536  32.460  14.293
74187W        W35641  34.608  41.461  14.793
74188W        W35642  42.400  29.585  12.565
74189W        W35643   1.754  27.053   3.706
74190W        W35644  25.087   6.688  13.936
74191W        W35645  10.197  39.911   2.836
74192W        W35646   3.745   9.215   3.241
74193W        W35647   3.786   9.214  14.867
74194W        W35648  37.942  30.941   1.420
74195W        W35649  23.174  23.596  10.607
74196W        W35650   5.422  35.404   4.635
74197W        W35651  30.914  35.969   9.956
74198W        W35652  35.518   3.814  14.792
74199W        W35653  34.938   7.341   3.248
74200W        W35654  25.073   2.395   4.235
74201W        W35655  36.920   7.873  11.500
74202W        W35656  26.516  36.872  13.014
74203W        W35657   3.229   1.439  10.898
74204W        W35658  14.202  26.485  13.958
74205W        W35659   9.294  42.985   3.871
74206W        W35660  27.628   4.270   0.252
74207W        W35661  19.164  18.637   2.308
74208W        W35662   9.224  37.975  11.932
74209W        W35663  32.543  18.679   2.395
74210W        W35664   6.387  27.502  12.388
74211W        W35665   4.356  39.436  10.430
74212W        W35666   0.836   8.356   2.863
74213W        W35667  13.765  13.114   4.257
74214W        W35668  37.371  18.138  14.977
74215W        W35669  30.139  12.654   1.831
74216W        W35670  24.140  38.973   4.712
74217W        W35671  41.431  23.722  11.515
74218W        W35672  25.972  41.444  13.463
74219W        W35673  26.957  15.311   0.477
74220W        W35674   7.220  17.565   4.678
74221W        W35675  25.694   5.286   3.755
74222W        W35676   6.340  32.964   1.790
74223W        W35677   3.368  20.634  13.323
74224W        W35678   6.246  16.243  13.024
74225W        W35679  22.176  32.444  14.986
74226W        W35680  44.299  28.568  12.486
74227W        W35681  42.407  37.918  13.816
74228W        W35682  14.687  20.640   0.751
74229W        W35683  37.852   4.851  12.832
74230W        W35684  26.530  36.355   2.208
74231W        W35685  40.352  35.406  11.073
74232W        W35686  37.978  12.846  14.841
74233W        W35687   0.858  38.463   1.733
74234W        W35688   2.804   8.773  11.518
74235W        W35689   7.399   1.243   4.303
74236W        W35690   0.368  10.269   1.726
74237W        W35691  37.009  10.830   4.213
74238W        W35692  21.646  18.633   2.792
74239W        W35693  24.656   9.794   0.952
74240W        W35694   2.397   3.252   0.257
74241W        W35695  18.627  29.140  12.521
74242W        W35696   3.893  34.934  11.498
74243W        W35697  30.434  15.653  14.386
74244W        W35698   1.820   0.774   0.259
74245W        W35699   8.176  24.495  10.544
74246W        W35700  19.656  41.312  10.937
74247W        W35701  43.404  21.611  14.457
74248W        W35702   9.253   7.337  12.932
74249W        W35703  15.747   7.219   2.292
74250W        W35704  35.995  30.106  12.463
74251W        W35705   6.818  39.015  14.417
74252W        W35706   7.901  29.557  11.127
74253W        W35707  18.102  11.247  11.082
74254W        W35708   3.832  19.246   4.156
74255W        W35709   6.899  21.721  12.994
74256W        W35710  35.538   8.285  10.455
74257W        W35711  10.707  36.536   3.339
74258W        W35712  27.452  29.176  11.492
74259W        W35713  17.740  37.938   0.763
74260W        W35714  24.670  28.041   1.789
74261W        W35715  28.111  38.043   2.665
74262W        W35716  11.336  38.500  12.931
74263W        W35717  14.179  42.422  14.363
74264W        W35718   5.298  18.723   2.838
74265W        W35719  43.779  29.980   2.234
74266W        W35720  18.716   2.736  12.399
74267W        W35721   3.374   3.760  13.856
74268W        W35722  31.962  30.023   2.850
74269W        W35723  43.423   9.644   0.780
74270W        W35724  36.979  10.341  11.857
74271W        W35725  23.541   3.770  14.511
74272W        W35726  32.980  33.037   1.388
74273W        W35727   6.796  26.655  12.885
74274W        W35728   7.400  13.753  14.507
74275W        W35729   8.866  33.601  13.358
74276W        W35730  35.881   0.374  13.380
74277W        W35731  18.699  30.616  14.467
74278W        W35732  39.327  20.147  10.911
74279W        W35733   0.321   0.927   0.773
74280W        W35734  39.475   1.476  14.409
74281W        W35735  25.630  19.672   3.721
74282W        W35736   8.682  44.436  10.412
74283W        W35737   0.871  20.190   0.339
74284W        W35738  32.110  15.746   3.387
74285W        W35739  26.527  38.335  11.463
74286W        W35740  26.662  25.713   4.780
74287W        W35741  23.157  14.671   2.374
74288W        W35742  25.988  39.433  12.353
74289W        W35743  33.446   6.338  10.644
74290W        W35744  10.175  31.641   4.667
74291W        W35745  35.872   7.761   2.845
74292W        W35746  39.551  20.111   2.665
74293W        W35747   9.710   1.797   3.826
74294W        W35748  29.974  27.616   1.390
74295W        W35749  34.057  35.557   0.965
74296W        W35750   3.745   2.447  12.018
74297W        W35751  19.684   0.808  12.389
74298W        W35752  44.300  40.001  10.033
74299W        W35753  16.768  16.123  13.056
74300W        W35754   6.243  31.409  13.042
74301W        W35755  41.966  20.648   0.752
74302W        W35756   8.852  23.571   0.826
74303W        W35757  21.717  27.982   3.271
74304W        W35758  16.274  33.003   2.893
74305W        W35759  43.898  24.066  12.408
74306W        W35760  39.508  10.730  14.791
74307W        W35761  21.742  17.148   1.372
74308W        W35762  41.340  10.639   1.762
74309W        W35763  43.993   7.718  12.981
74310W        W35764  12.135  30.423   3.746
74311W        W35765  26.069   4.827   1.248
74312W        W35766  43.002  18.709   4.642
74313W        W35767  20.609  11.366   4.749
74314W        W35768  26.205  42.993   2.386
74315W        W35769  15.215  43.873  11.533
74316W        W35770  27.976  37.054   3.182
74317W        W35771  35.983  28.513   3.800
74318W        W35772  15.097   9.172  13.495
74319W        W35773  35.364   5.224  11.481
74320W        W35774  13.747  44.353   2.360
74321W        W35775   8.316  21.642  14.378
74322W        W35776  37.088  13.289   3.320
74323W        W35777  39.500  20.597  10.634
74324W        W35778  24.596   0.292   3.377
74325W        W35779  20.621  39.946   2.767
74326W        W35780  42.822  31.065   5.156
74327W        W35781  27.194  18.161   1.427
74328W        W35782   8.228   3.888   3.799
74329W        W35783  24.619  11.743  10.634
74330W        W35784  10.333   7.344   0.455
74331W        W35785  33.445   5.819   1.233
74332W        W35786  19.190  31.464   0.456
74333W        W35787  34.406  20.209  11.038
74334W        W35788  39.000  17.697   1.360
74335W        W35789  38.885   5.207   1.740
74336W        W35790  33.485  22.558  10.995
74337W        W35791   4.714   9.358  11.540
74338W        W35792  16.648   5.918   4.740
74339W        W35793  15.620  25.015   4.767
74340W        W35794  10.832  20.718   1.383
74341W        W35795  15.119  34.904   0.824
74342W        W35796  29.935  36.018   2.839
74343W        W35797  15.763  15.237  12.378
74344W        W35798  43.289  19.193   3.740
74345W        W35799  26.655  28.129   2.869
74346W        W35800  15.194  21.596   1.358
74347W        W35801  17.728   7.340  11.494
74348W        W35802  23.040  23.703   3.385
74349W        W35803  20.715  37.877  14.988
74350W        W35804  13.731  38.915  13.967
74351W        W35805   3.412  17.558  13.386
74352W        W35806   4.725  18.125  10.022
74353W        W35807   8.739  11.168  14.804
74354W        W35808   1.751  27.179  11.456
74355W        W35809  15.730  36.022   4.331
74356W        W35810  25.142  24.145  11.885
74357W        W35811  28.014   4.421   2.379
74358W        W35812  36.085  14.192  14.002
74359W        W35813  36.886  20.222   1.711
74360W        W35814  13.685  24.703  11.914
74361W        W35815  34.903  42.281   1.337
74362W        W35816  36.384  33.492   1.291
74363W        W35817  40.307  10.220  11.022
74364W        W35818  27.078  27.973   0.797
74365W        W35819   3.832   9.762   3.157
74366W        W35820  23.228  28.679   3.221
74367W        W35821  23.008  31.481   2.403
74368W        W35822   6.815  18.717   0.776
74369W        W35823  32.492  41.318  11.982
74370W        W35824   5.315  26.461   3.767
74371W        W35825  42.825  32.012  14.018
74372W        W35826   8.860  30.164  10.003
74373W        W35827  30.004  21.162   5.277
74374W        W35828  15.239  15.272  14.431
74375W        W35829  43.963  20.549  12.095
74376W        W35830  37.372  22.691   0.784
74377W        W35831  41.795   3.430  13.410
74378W        W35832  35.940  24.074  12.063
74379W        W35833   6.283   9.199   0.265
74380W        W35834   5.755  11.197  10.953
74381W        W35835  29.926  32.508  14.999
74382W        W35836  27.134  26.117   2.874
74383W        W35837  21.238  17.194   1.878
74384W        W35838  13.772  29.948   4.633
74385W        W35839  34.420  26.627  11.943
74386W        W35840   3.256  24.714  14.811
74387W        W35841  34.104  19.619  11.525
74388W        W35842  37.029   7.719  12.457
74389W        W35843  35.930  41.382   0.318
74390W        W35844  39.505  19.765  14.794
74391W        W35845  10.178  10.659   2.202
74392W        W35846  29.489  23.623  14.944
74393W        W35847  36.395  27.077  14.468
74394W        W35848  34.546  34.437  13.342
74395W        W35849   6.826  22.666  11.074
74396W        W35850   8.230   6.347   2.199
74397W        W35851  18.162  42.517   0.318
74398W        W35852  35.461  15.762  10.043
74399W        W35853  11.277  42.816  12.856
74400W        W35854  18.582  25.641   3.713
74401W        W35855   0.818   0.345   2.776
74402W        W35856  31.944  22.007   1.439
74403W        W35857   6.875  43.805   4.251
74404W        W35858  27.472   8.837   0.388
74405W        W35859   2.764  30.450  12.959
74406W        W35860  38.422  14.830  10.538
74407W        W35861   7.402  16.799  13.412
74408W        W35862   4.448  22.074  12.378
74409W        W35863  34.888   1.751   2.849
74410W        W35864  17.568   0.768  11.574
74411W        W35865  10.149  32.886   0.300
74412W        W35866   6.772  19.765   1.387
74413W        W35867  36.371  37.464  14.876
74414W        W35868  41.488  31.581  14.509
74415W        W35869  26.677   4.728   9.976
74416W        W35870  36.533  19.555  11.091
74417W        W35871  17.190   0.333   9.952
74418W        W35872  25.690  40.528  13.463
74419W        W35873  27.077  30.624  10.083
74420W        W35874  27.157  12.729  12.343
74421W        W35875   5.318  23.634  13.987
74422W        W35876  19.200  22.709   2.674
74423W        W35877  24.222  24.080   3.147
74424W        W35878  17.238  40.319  12.369
74425W        W35879  12.790  29.453   2.771
74426W        W35880   2.363  27.669  13.424
74427W        W35881  41.363  16.263   3.804
74428W        W35882  40.944  37.422  13.484
74429W        W35883  42.005  28.023  13.398
74430W        W35884  42.364  12.285  13.320
74431W        W35885   5.426  10.763   4.686
74432W        W35886   6.917  23.038  12.890
74433W        W35887  15.314  35.888  12.479
74434W        W35888  29.589  21.700   2.664
74435W        W35889  24.206  14.158  11.052
74436W        W35890   9.797  14.724  14.470
74437W        W35891   9.805  33.470  14.502
74438W        W35892  22.680  28.968  13.457
74439W        W35893  32.537  20.182   2.352
74440W        W35894  10.803  24.085  14.330
74441W        W35895   2.915  25.624   3.672
74442W        W35896  20.663  21.707   2.867
74443W        W35897  10.252  28.660   4.228
74444W        W35898  10.154  32.014   0.752
74445W        W35899   2.298  43.390  10.527
74446W        W35900  20.058  10.759   3.271
74447W        W35901   3.430   3.364   0.431
74448W        W35902  19.593  36.565   0.844
74449W        W35903  30.536   6.834  11.393
74450W        W35904  24.022  34.479   3.299
74451W        W35905  37.471  13.341  11.580
74452W        W35906  16.567  26.550   5.103
74453W        W35907  18.162  20.084   0.765
74454W        W35908  37.345   7.236   1.358
74455W        W35909   0.429  44.383  11.870
74456W        W35910  24.526   8.252   4.675
74457W        W35911   9.795  34.575   4.256
74458W        W35912  19.772  12.809   3.630
74459W        W35913  34.988   5.374  12.018
74460W        W35914  44.980  24.027   0.875
74461W        W35915  30.451  13.761  12.834
74462W        W35916  30.915  23.206  11.936
74463W        W35917  33.583  12.647  10.538
74464W        W35918  34.929  32.113   2.307
74465W        W35919  34.092  13.134   1.799
74466W        W35920  31.558  40.519  11.005
74467W        W35921  11.213  40.864   4.694
74468W        W35922  40.539   3.315  10.918
74469W        W35923  16.720  35.556  11.555
74470W        W35924   4.295  16.249   4.692
74471W        W35925  23.523  42.941  11.899
74472W        W35926   3.426  33.426   1.894
74473W        W35927  18.781  18.749   2.382
74474W        W35928  28.062  35.098   3.759
74475W        W35929  39.872  30.962  14.906
74476W        W35930  22.096  34.061   0.902
74477W        W35931   2.445  41.519  13.434
74478W        W35932  33.946  26.457   2.776
74479W        W35933  16.681  30.487   0.892
74480W        W35934  10.363  26.190   0.750
74481W        W35935   2.794  39.318  10.989
74482W        W35936  18.645  27.979   2.838
74483W        W35937  33.897  29.445  13.803
74484W        W35938   6.790  39.968   1.393
74485W        W35939  31.530  18.099   0.889
74486W        W35940  27.143   2.933   1.900
74487W        W35941  23.032  41.950  10.939
74488W        W35942  16.087   7.212  13.996
74489W        W35943  24.575  11.856   1.226
74490W        W35944   0.867  22.601   3.239
74491W        W35945  33.588  38.925   0.924
74492W        W35946   9.870  32.918  12.060
74493W        W35947   3.409  22.069   3.255
74494W        W35948  33.523  40.463  12.983
74495W        W35949  16.181  37.343  13.360
74496W        W35950   6.719  12.303  13.925
74497W        W35951  18.784  21.197   4.265
74498W        W35952  38.959  42.978  14.354
74499W        W35953  31.009   7.862   0.256
74500W        W35954  36.860   9.269  10.586
74501W        W35955  11.622  40.377  13.799
74502W        W35956  12.240  18.771   1.356
74503W        W35957  44.482  29.035  10.114
74504W        W35958  36.466  29.084   5.171
74505W        W35959  39.402  33.569  11.945
74506W        W35960   9.666  22.532   4.600
74507W        W35961  39.822  32.395  13.845
74508W        W35962   7.406  17.744   1.437
74509W        W35963  22.242  33.993   4.728
74510W        W35964  35.417  17.630   3.319
74511W        W35965   1.865  29.604   1.443
74512W        W35966   7.728  19.129  12.507
74513W        W35967  36.872  21.183   4.796
74514W        W35968  38.533  27.467   4.276
74515W        W35969  36.393  28.166  12.540
74516W        W35970  43.909  18.064  12.844
74517W        W35971  13.123  28.638  14.301
74518W        W35972  43.997  36.522   3.707
74519W        W35973  20.159  15.636   2.745
74520W        W35974  33.516  21.571  12.863
74521W        W35975   6.748  22.137   3.264
74522W        W35976   9.311  20.613   2.857
74523W        W35977  35.391  15.790  13.865
74524W        W35978  14.741  13.258   1.706
74525W        W35979  12.279  34.077  11.860
74526W        W35980  34.589  38.867  11.101
74527W        W35981   9.716  16.796  10.558
74528W        W35982  37.485  18.759   1.855
74529W        W35983  39.422  12.789   4.771
74530W        W35984  26.968  26.468   1.438
74531W        W35985  28.981  43.013  10.944
74532W        W35986  41.929  40.366   1.390
74533W        W35987  39.893   7.267   4.664
74534W        W35988  29.961   2.722   4.687
74535W        W35989   0.780  43.953  12.423
74536W        W35990   6.241  36.520  10.900
74537W        W35991  16.705  35.554   1.827
74538W        W35992  24.544   6.319  10.504
74539W        W35993   5.727  29.424  13.921
74540W        W35994  41.529  20.594   2.729
74541W        W35995  38.043  31.465  10.606
74542W        W35996  28.038  14.330   2.728
74543W        W35997  40.403  12.301  12.935
74544W        W35998  35.868   9.205   3.665
74545W        W35999  21.236  43.290   3.701
74546W        W36000  22.713  33.034  10.953
74547W        W36001  14.146   5.825   0.909
74548W        W36002  13.271  24.132   4.643
74549W        W36003  37.554  32.948  13.834
74550W        W36004  24.073  18.621  10.956
74551W        W36005  42.332  21.565   2.815
74552W        W36006  33.027  25.180  14.503
74553W        W36007  25.139  28.972   4.120
74554W        W36008  19.274   4.835  11.496
74555W        W36009   0.291  13.608   4.721
74556W        W36010  27.144  13.312   4.628
74557W        W36011  41.424  30.419   2.257
74558W        W36012   5.805  21.177   2.676
74559W        W36013  15.653  19.121  10.945
74560W        W36014  23.710  36.042   0.868
74561W        W36015  20.635   2.822   2.373
74562W        W36016  12.318  13.176  14.463
74563W        W36017  27.598  20.556   4.349
74564W        W36018  24.515  35.396  13.526
74565W        W36019  23.520  11.779   1.934
74566W        W36020  34.107  17.174   0.892
74567W        W36021   6.900  11.144   1.835
74568W        W36022   1.344   2.322   1.917
74569W        W36023  42.417  29.521   3.279
74570W        W36024   4.872  40.374   5.190
74571W        W36025  43.290  12.636  12.388
74572W        W36026   9.865  21.065  13.530
74573W        W36027  17.667  38.850  14.309
74574W        W36028  38.060  31.476  12.387
74575W        W36029  36.513   7.253   1.885
74576W        W36030  25.556  26.647   3.649
74577W        W36031  37.477  26.164  12.456
74578W        W36032  14.787  32.042  11.893
74579W        W36033   7.839  44.864  11.468
74580W        W36034  29.565  31.594  14.386
74581W        W36035  27.481  13.724  11.969
74582W        W36036  22.196  19.588   1.234
74583W        W36037  12.147   3.939   0.876
74584W        W36038  31.940  13.294  11.913
74585W        W36039  35.013   4.446   2.741
74586W        W36040  33.613  20.735  12.015
74587W        W36041  41.453  22.209  12.565
74588W        W36042  33.580  27.114  13.503
74589W        W36043  29.536  10.336  13.317
74590W        W36044  13.805  33.480   1.386
74591W        W36045  28.962  31.528  14.923
74592W        W36046  34.554  18.112  14.821
74593W        W36047   0.761   2.778   2.902
74594W        W36048  32.578  26.490  14.768
74595W        W36049   6.187  42.427   0.334
74596W        W36050  27.944  25.170  12.857
74597W        W36051  10.676  25.559   0.376
74598W        W36052  36.551  37.881  11.907
74599W        W36053  38.356  24.638  12.972
74600W        W36054  12.627  35.022  13.921
74601W        W36055  34.976  29.084   2.400
74602W        W36056   0.770  43.315  11.989
74603W        W36057  10.238  18.780   3.177
74604W        W36058  33.099  44.393   0.755
74605W        W36059  34.613   3.777   0.400
74606W        W36060  22.650  25.686  13.359
74607W        W36061  29.173  12.767   1.362
74608W        W36062   5.213  11.158  11.468
74609W        W36063  22.531   6.282   0.856
74610W        W36064   0.988   1.822   0.942
74611W        W36065  11.738  29.059  13.541
74612W        W36066  10.188  12.217   1.317
74613W        W36067  44.451  12.184   3.870
74614W        W36068  11.368   1.335  11.113
74615W        W36069   9.171  38.933   2.801
74616W        W36070  41.022  17.651  10.967
74617W        W36071  13.709   7.290   4.700
74618W        W36072  42.320   0.415  12.986
74619W        W36073  22.613   1.799   4.185
74620W        W36074   4.834   4.289  11.395
74621W        W36075  29.991  37.071   1.258
74622W        W36076  11.733  11.179   0.918
74623W        W36077  13.210  20.038  13.906
74624W        W36078   0.257   4.698   0.451
74625W        W36079   8.295  40.399   1.392
74626W        W36080   7.758  19.749   2.755
74627W        W36081  34.460   4.877  14.831
74628W        W36082  16.235  36.443   1.822
74629W        W36083  32.461  41.788  13.943
74630W        W36084  41.454  39.824  11.603
74631W        W36085   6.813   4.787   3.712
74632W        W36086  29.536  29.131   2.831
74633W        W36087  35.032  42.382   0.297
74634W        W36088  28.976  38.386   4.312
74635W        W36089  38.508  20.556   4.256
74636W        W36090  44.904  41.517  12.881
74637W        W36091  17.677  14.715   1.919
74638W        W36092  10.290  34.550   1.396
74639W        W36093  21.027   8.306   2.187
74640W        W36094  26.104  12.211  12.485
74641W        W36095  21.142  39.883  10.966
74642W        W36096  20.231  24.579   4.119
74643W        W36097  26.164   8.312  11.478
74644W        W36098   8.799  21.542   0.457
74645W        W36099  28.098  23.736  10.642
74646W        W36100  16.635  43.823  12.872
74647W        W36101  15.255  17.075  13.505
74648W        W36102  13.157  24.002  12.895
74649W        W36103  38.432  25.571  12.915
74650W        W36104  26.983  35.361  11.948
74651W        W36105  23.579  26.049   3.311
74652W        W36106   7.205  12.267  12.839
74653W        W36107  23.638  35.378  14.496
74654W        W36108  14.591   9.267   0.399
74655W        W36109  39.366  24.995  13.877
74656W        W36110  31.989  38.986  14.836
74657W        W36111   0.297   4.435   0.326
74658W        W36112  13.344   5.766   0.915
74659W        W36113   4.845  34.073  12.421
74660W        W36114  38.861  31.896   2.727
74661W        W36115  13.250   8.780   2.400
74662W        W36116  36.053  23.709  14.471
74663W        W36117  26.032  35.888  12.538
74664W        W36118   9.216  15.809  11.465
74665W        W36119  37.547  22.648   2.398
74666W        W36120  15.806  25.027   2.298
74667W        W36121  31.046  13.623  10.488
74668W        W36122  11.160   9.192  11.004
74669W        W36123  37.964   0.440  10.966
74670W        W36124  22.172  42.281  11.925
74671W        W36125  44.847  16.641  14.840
74672W        W36126   0.760   9.696   3.848
74673W        W36127  21.055  26.086   4.121
74674W        W36128  43.845  29.526   4.198
74675W        W36129  19.267  27.549   2.819
74676W        W36130  17.128   5.397  14.852
74677W        W36131  23.500   2.850   2.784
74678W        W36132  24.185  28.592   1.403
74679W        W36133   2.742  18.640   0.381
74680W        W36134  13.798  23.711   2.773
74681W        W36135  19.611   7.282   2.233
74682W        W36136  16.295   3.795   4.276
74683W        W36137  38.335  23.613  13.011
74684W        W36138  18.704  38.931  10.406
74685W        W36139  28.549  44.429   2.284
74686W        W36140  29.451  28.644  14.996
74687W        W36141  39.888   2.784   0.939
74688W        W36142  10.664  19.145   1.873
74689W        W36143  27.058  32.003   5.184
74690W        W36144   9.682   3.795   1.749
74691W        W36145  17.296   8.355  10.502
74692W        W36146  43.855  21.209   0.843
74693W        W36147  28.014   9.299  13.895
74694W        W36148  37.449  34.451  12.427
74695W        W36149  14.797  14.770  12.086
74696W        W36150  26.520  25.031  11.904
74697W        W36151  16.284  27.133   4.636
74698W        W36152  33.972  29.432   0.395
74699W        W36153  10.243  13.114  12.418
74700W        W36154  40.445  17.155   0.351
74701W        W36155  44.782  44.277  10.023
74702W        W36156  21.087  22.126   1.813
74703W        W36157  33.454  37.965   4.242
74704W        W36158  38.387  16.172   3.690
74705W        W36159  35.909  20.527   2.816
74706W        W36160  10.869  37.523  12.567
74707W        W36161  38.375  21.582   3.782
74708W        W36162  26.565  40.893   4.272
74709W        W36163   6.279  42.915   1.870
74710W        W36164   0.783  11.655  14.981
74711W        W36165  41.307  39.380  14.327
74712W        W36166  33.076   7.404   2.282
74713W        W36167  14.773   4.376   0.967
74714W        W36168   0.870  23.138  14.512
74715W        W36169  36.581  34.949   1.796
74716W        W36170  32.446  35.419   1.368
74717W        W36171  13.275  38.523   2.408
74718W        W36172  14.120  12.782   0.326
74719W        W36173  13.809  28.458  11.592
74720W        W36174  17.302  43.368   4.118
74721W        W36175  36.003  41.535   2.700
74722W        W36176  39.475  42.873  13.974
74723W        W36177   6.751  38.075  10.633
74724W        W36178   8.740  14.828  14.383
74725W        W36179  11.239  35.889   2.874
74726W        W36180  39.861  16.141   3.643
74727W        W36181  26.683  32.096  10.517
74728W        W36182  14.728  33.553   0.931
74729W        W36183   8.349  38.495  10.982
74730W        W36184  37.391   5.783  13.897
74731W        W36185  44.755  19.237  11.977
74732W        W36186  13.293  44.841  13.363
74733W        W36187  24.132  20.742  10.974
74734W        W36188  27.050  11.202   2.754
74735W        W36189   4.439  43.867   2.898
74736W        W36190  37.843   9.844   1.305
74737W        W36191  32.478  15.239  12.397
74738W        W36192   3.758  32.081   2.837
74739W        W36193   1.849   0.477  10.490
74740W        W36194  38.564  44.346   4.786
74741W        W36195  15.088  11.862  11.455
74742W        W36196  41.962   5.798   3.294
74743W        W36197  21.599   1.281  13.346
74744W        W36198  12.143  17.776  13.917
74745W        W36199  33.626  23.558  10.969
74746W        W36200  31.589  12.810   0.451
74747W        W36201  17.272  44.372   2.860
74748W        W36202   7.725  43.498   2.681
74749W        W36203  39.055  19.632   3.330
74750W        W36204  29.924  36.868   0.768
74751W        W36205  19.776  42.484  11.883
74752W        W36206  16.267   8.277  12.971
74753W        W36207  44.322  14.195   1.820
74754W        W36208   3.765  22.007   1.727
74755W        W36209  42.877  25.001  14.325
74756W        W36210  44.269  25.563  10.125
74757W        W36211  40.934   4.281   3.829
74758W        W36212   2.836  28.679   3.292
74759W        W36213  11.177  42.880   2.403
74760W        W36214  19.715  44.907  14.277
74761W        W36215   2.298  16.713   2.310
74762W        W36216  19.680  35.393   2.664
74763W        W36217   1.376  38.044   2.281
74764W        W36218   4.752  26.633  14.498
74765W        W36219  38.964  12.250  10.430
74766W        W36220  36.477  28.004   4.191
74767W        W36221   0.864   9.346   3.687
74768W        W36222  11.623  21.147  12.020
74769W        W36223  15.695  22.532   2.753
74770W        W36224  10.845  28.978   3.297
74771W        W36225  14.640  20.614  12.377
74772W        W36226  39.413  10.758  13.456
74773W        W36227  32.403   5.293   2.375
74774W        W36228  22.060  35.426  10.908
74775W        W36229   9.771  26.973   3.844
74776W        W36230  25.703  30.557  12.574
74777W        W36231  12.354  20.721  12.885
74778W        W36232  18.221   2.331   2.179
74779W        W36233  43.926   1.938  11.042
74780W        W36234  35.064  22.083   3.180
74781W        W36235  35.554  20.717  14.326
74782W        W36236  30.046   6.234   0.748
74783W        W36237  39.912  44.975   1.841
74784W        W36238   3.743  35.484   3.791
74785W        W36239  33.483   1.760   2.708
74786W        W36240  21.710   9.696   0.442
74787W        W36241   6.213   8.285   2.341
74788W        W36242  38.498  42.493   3.336
74789W        W36243   5.434   0.783  13.451
74790W        W36244  19.690  30.045  11.527
74791W        W36245  36.869  16.089   2.778
74792W        W36246   0.915  26.635   1.896
74793W        W36247  27.061  42.445   1.704
74794W        W36248  15.239   2.763  13.430
74795W        W36249   0.956  15.310   4.255
74796W        W36250  24.187  14.330  13.536
74797W        W36251  37.430  26.961  12.975
74798W        W36252  23.111  27.048  11.377
74799W        W36253  43.889  32.892   0.275
74800W        W36254  43.387  38.478  12.546
74801W        W36255  31.641  27.185  10.497
74802W        W36256  21.664  24.627   4.355
74803W        W36257  10.832  21.147  13.041
74804W        W36258  16.652  16.666  14.838
74805W        W36259   5.845  15.775   4.704
74806W        W36260  15.624  16.671  11.098
74807W        W36261   5.774  26.475  11.443
74808W        W36262  44.427   0.317  12.983
74809W        W36263   3.861   5.903   2.666
74810W        W36264  25.217  16.611  13.886
74811W        W36265   5.921  37.943  11.528
74812W        W36266  32.942  43.881  11.571
74813W        W36267  34.120  12.649  10.958
74814W        W36268  21.263  12.657   2.272
74815W        W36269  29.435  10.834  12.997
74816W        W36270  36.482  33.414  11.019
74817W        W36271  24.998  10.639  11.874
74818W        W36272  44.416  27.485  10.637
74819W        W36273   6.313  23.009  12.968
74820W        W36274   4.262  31.018  13.461
74821W        W36275  27.656  38.539   4.601
74822W        W36276   4.257   4.311   1.796
74823W        W36277  28.511  19.609  14.875
74824W        W36278  28.628   9.289  14.831
74825W        W36279  16.582   1.897  10.945
74826W        W36280   0.268  29.033  12.833
74827W        W36281   5.733   4.253  12.548
74828W        W36282   1.870  24.221  14.297
74829W        W36283  40.494   0.254  10.060
74830W        W36284  24.036  34.465  10.038
74831W        W36285  15.319  17.158  11.971
74832W        W36286   0.473   9.278   3.829
74833W        W36287   3.915   7.310   1.828
74834W        W36288  33.906   2.326   1.835
74835W        W36289  20.274  29.928   4.203
74836W        W36290  28.649  22.566   1.835
74837W        W36291  32.044   7.410   2.381
74838W        W36292  37.522  42.800  11.572
74839W        W36293  41.519  43.948   2.289
74840W        W36294   4.874  27.681   4.238
74841W        W36295  25.581  30.108   3.704
74842W        W36296  36.063   2.748   3.664
74843W        W36297   9.649  12.241  10.487
74844W        W36298  17.204  15.769  14.961
74845W        W36299   0.269  16.586  14.993
74846W        W36300  19.630  16.760   1.434
74847W        W36301  32.426  26.965   4.257
74848W        W36302   8.886  42.478   3.241
74849W        W36303  11.223  11.850   4.350
74850W        W36304   6.753  29.030   1.894
74851W        W36305  33.391  20.555   0.443
74852W        W36306  18.091  13.135   1.779
74853W        W36307  13.283   9.202   1.754
74854W        W36308  18.756  19.637   2.694
74855W        W36309  10.695  27.604  12.535
74856W        W36310   5.831  40.909   0.329
74857W        W36311  42.284  17.643  12.487
74858W        W36312  27.162  17.076  11.491
74859W        W36313   4.316  18.276  12.827
74860W        W36314  14.272  19.535  11.588
74861W        W36315  30.924  36.572   2.868
74862W        W36316  40.381  44.847   1.401
74863W        W36317  15.596  23.532   4.297
74864W        W36318  21.618  26.031   3.640
74865W        W36319  40.954  16.801   4.261
74866W        W36320  31.558   7.676   1.222
74867W        W36321   9.332   0.253   0.968
74868W        W36322  10.247  25.056   2.895
74869W        W36323  23.512  44.890   0.899
74870W        W36324   7.825  44.845   3.317
74871W        W36325  43.991   8.798  11.552
74872W        W36326  23.140  38.324  12.552
74873W        W36327  11.273  42.864  11.532
74874W        W36328  39.836  43.878  11.513
74875W        W36329  29.469   1.256  11.125
74876W        W36330  31.462   6.772   4.700
74877W        W36331  27.983  15.211   2.211
74878W        W36332   7.732  37.506   0.754
74879W        W36333  41.451  21.140   3.225
74880W        W36334  28.562  12.738   1.826
74881W        W36335  27.524  15.111   3.298
74882W        W36336   4.218  25.203  10.577
74883W        W36337  13.697  15.193  11.064
74884W        W36338   8.703  38.056   1.280
74885W        W36339  18.216  14.100   4.338
74886W        W36340   7.389  20.179   4.719
74887W        W36341  12.637  14.602   2.406
74888W        W36342   7.864   7.840   3.661
74889W        W36343  10.765   3.720  14.368
74890W        W36344  35.046  14.109   3.333
74891W        W36345  43.970  21.017  12.356
74892W        W36346  24.058   2.931   2.824
74893W        W36347   5.698  17.683  11.935
74894W        W36348  33.418  41.419  12.917
74895W        W36349   4.834  12.229   4.775
74896W        W36350   3.459  20.621   0.372
74897W        W36351  15.141  16.198   2.872
74898W        W36352  38.370  11.346   0.336
74899W        W36353  27.550  16.122  10.962
74900W        W36354   2.229  22.130   3.217
74901W        W36355  34.562  33.932   2.417
74902W        W36356  31.144  41.446   0.907
74903W        W36357   4.221  39.855  12.553
74904W        W36358  39.992  21.055   0.729
74905W        W36359  27.567  13.157  12.380
74906W        W36360  37.872  13.286  11.903
74907W        W36361  29.017  30.954   1.246
74908W        W36362   4.314   1.237   0.765
74909W        W36363  36.563  36.012   4.351
74910W        W36364  20.228  22.085   4.245
74911W        W36365  36.937  40.868  12.087
74912W        W36366  27.550  42.944  12.399
74913W        W36367  41.491  26.678   4.824
74914W        W36368  17.163   1.907   1.395
74915W        W36369   8.670  33.021  13.495
74916W        W36370   9.661   0.405  11.082
74917W        W36371  16.753  36.490  11.947
74918W        W36372  32.122  42.307   3.800
74919W        W36373  34.384  24.618   0.316
74920W        W36374  24.481  27.036   3.282
74921W        W36375  37.887  37.394   0.363
74922W        W36376  22.042  28.933   3.861
74923W        W36377  16.182  28.166   3.194
74924W        W36378  25.708   7.358  12.961
74925W        W36379  32.490   7.173  12.554
74926W        W36380  17.747  25.574   0.755
74927W        W36381  14.828  18.092   2.409
74928W        W36382  14.310  12.157  13.481
74929W        W36383  13.730  14.225  14.804
74930W        W36384   7.322  44.456  14.795
74931W        W36385  17.742   9.180   2.733
74932W        W36386   4.316  30.079  12.081
74933W        W36387   1.306   5.784  11.568
74934W        W36388  11.142  41.928   2.705
74935W        W36389  35.601  20.083  11.930
74936W        W36390  38.934  42.787   4.705
74937W        W36391  31.630  38.410  13.345
74938W        W36392  38.428  30.618  11.117
74939W        W36393  43.848  29.069  13.362
74940W        W36394  13.339   5.401  14.838
74941W        W36395  24.663  36.357  11.383
74942W        W36396  16.193  16.198   4.349
74943W        W36397  20.148  42.295   2.308
74944W        W36398  42.921  38.043  14.821
74945W        W36399  27.479  30.619   0.947
74946W        W36400  32.494  20.544  12.079
74947W        W36401  16.128   5.740  12.430
74948W        W36402  16.257  25.647   0.759
74949W        W36403  24.023  25.077  12.885
74950W        W36404  34.482  18.774   4.730
74951W        W36405  31.912  36.504   2.310
74952W        W36406  23.570   4.848   4.125
74953W        W36407  12.717  36.958  10.444
74954W        W36408  14.258  21.728   0.470
74955W        W36409  25.064   7.844  12.016
74956W        W36410   9.202  39.473   2.789
74957W        W36411  24.631  38.048  11.402
74958W        W36412  13.301   9.864   0.854
74959W        W36413  39.455  26.002  11.500
74960W        W36414  18.763  39.982   4.742
74961W        W36415  40.482  32.620   2.395
74962W        W36416  42.425  10.170  12.362
74963W        W36417  27.195  10.165  10.969
74964W        W36418  22.743  44.996   1.882
74965W        W36419  27.043  43.996  10.582
74966W        W36420  10.649  16.649   3.227
74967W        W36421  37.471  28.063   0.424
74968W        W36422  13.839   0.281   0.303
74969W        W36423  43.840  27.147   4.218
74970W        W36424   8.840  13.139   3.818
74971W        W36425  28.109  16.104   3.745
74972W        W36426   5.890  15.113  10.964
74973W        W36427   3.863  40.427   1.300
74974W        W36428  24.524  25.523   1.818
74975W        W36429  34.583  37.538  11.119
74976W        W36430  40.921  11.834   3.234
74977W        W36431  30.965  38.964   2.903
74978W        W36432  15.100   5.736   4.150
74979W        W36433   8.797  39.514   2.897
74980W        W36434   8.718  39.048  14.914
74981W        W36435  23.063  15.267  12.827
74982W        W36436  40.434  21.216   0.900
74983W        W36437  16.230   3.858   1.356
74984W        W36438  36.008  27.513   1.379
74985W        W36439  19.097  19.653   4.179
74986W        W36440  20.238  11.668  11.113
74987W        W36441   6.685  17.117  11.067
74988W        W36442  41.461  37.876  11.557
74989W        W36443  39.035   7.887   2.836
74990W        W36444   5.842  31.962  11.043
74991W        W36445  33.564  32.417   4.809
74992W        W36446  34.076  38.872  10.440
74993W        W36447   2.805  13.217  12.840
74994W        W36448   1.289  25.209  14.937
74995W        W36449   0.897  40.417  11.407
74996W        W36450  21.023  18.675   3.660
74997W        W36451  31.527  17.244  13.888
74998W        W36452  29.080  16.288   1.252
74999W        W36453   9.764  30.071  13.375
75000W        W36454   1.785   3.871   0.828
75001W        W36455  27.453   9.188  10.915
75002W        W36456  28.991  11.184  13.450
75003W        W36457  41.839   5.385  14.848
75004W        W36458  30.972  35.101   4.809
75005W        W36459  42.837   7.848   2.410
75006W        W36460  15.142   4.359  13.891
75007W        W36461  21.131  35.997   0.851
75008W        W36462  40.515  18.691   0.840
75009W        W36463   5.818  31.067  11.124
75010W        W36464  43.812  24.662  14.787
75011W        W36465  17.302   1.417   3.293
75012W        W36466  27.679  19.232   3.366
75013W        W36467   8.873  28.634   1.733
75014W        W36468  19.539  31.625  12.951
75015W        W36469  22.675   4.928   3.338
75016W        W36470   2.781  30.605   0.426
75017W        W36471  43.943   8.203   2.207
75018W        W36472  34.934  29.552  11.877
75019W        W36473   9.392  10.719  14.496
75020W        W36474  41.846   8.346  13.950
75021W        W36475  36.879   7.226   4.139
75022W        W36476  35.981  30.446   4.633
75023W        W36477  42.284  37.508   2.860
75024W        W36478  20.635  12.196  12.472
75025W        W36479  18.656  20.639  11.018
75026W        W36480   0.289  14.763   2.206
75027W        W36481  11.156  22.690   2.209
75028W        W36482  17.659   3.954   4.758
75029W        W36483  23.099  11.195  11.403
75030W        W36484  20.208  33.592   1.924
75031W        W36485   6.751   9.327  12.927
75032W        W36486   1.885  21.677   0.379
75033W        W36487  16.792  18.218  10.902
75034W        W36488  42.790  11.357  11.411
75035W        W36489  42.951   2.303  12.072
75036W        W36490   1.369   5.319   2.418
75037W        W36491  19.591   0.342   3.368
75038W        W36492  43.902  28.972   1.783
75039W        W36493   8.383  12.693  14.329
75040W        W36494  26.466  27.086  13.495
75041W        W36495  18.592   8.174  11.060
75042W        W36496  12.304  33.614   5.107
75043W        W36497  35.088  19.738   2.191
75044W        W36498  23.212   4.912  11.566
75045W        W36499  28.639  31.105  11.523
75046W        W36500  27.107   1.475  10.493
75047W        W36501   8.216  14.629   2.353
75048W        W36502  35.473  13.693  10.909
75049W        W36503  12.220   0.373   1.359
75050W        W36504   6.320  33.468  10.417
75051W        W36505  38.921  21.048   3.709
75052W        W36506  32.471  28.569   2.394
75053W        W36507  17.798  29.984   1.893
75054W        W36508   1.941  42.783  12.368
75055W        W36509  21.693  22.079  12.088
75056W        W36510  25.629  38.947  12.378
75057W        W36511  22.535  13.619  11.956
75058W        W36512  41.442   5.253  12.490
75059W        W36513  10.789  27.584   3.772
75060W        W36514  41.002  33.017   2.835
75061W        W36515  15.084  12.656   1.398
75062W        W36516  41.456   5.369  13.522
75063W        W36517  11.257   4.701  10.007
75064W        W36518  18.237   0.850   4.273
75065W        W36519  14.162   8.754  11.028
75066W        W36520  44.876  37.042   4.310
75067W        W36521  19.157  43.449  11.949
75068W        W36522  13.317   3.843  13.360
75069W        W36523  27.454  36.356  14.385
75070W        W36524  21.180  24.584  11.601
75071W        W36525  16.794  30.962  14.461
75072W        W36526  21.153   9.795  10.567
75073W        W36527  12.697  39.864  12.419
75074W        W36528  30.637  32.635  11.605
75075W        W36529  13.787  22.677  10.620
75076W        W36530  43.415  19.634   1.349
75077W        W36531  39.344  44.460   0.339
75078W        W36532  34.965  22.583  12.849
75079W        W36533  11.365  38.950   1.451
75080W        W36534  41.470   8.342  11.587
75081W        W36535   1.844   5.396   0.795
75082W        W36536  40.829  43.860   3.212
75083W        W36537  10.140  43.828  13.944
75084W        W36538  18.742  14.258  11.935
75085W        W36539  12.817  30.127  11.581
75086W        W36540   6.243  19.769  13.888
75087W        W36541  35.977   1.418   2.397
75088W        W36542  35.398  24.591  13.824
75089W        W36543  30.961  14.301   0.850
75090W        W36544  29.105   9.725   1.389
75091W        W36545  13.767  43.908  13.962
75092W        W36546  35.859   7.844  13.314
75093W        W36547  13.739  18.224   5.281
75094W        W36548  26.648  40.008  13.059
75095W        W36549  16.745  31.504   4.602
75096W        W36550  42.387  30.560   4.762
75097W        W36551  15.691   9.266  11.908
75098W        W36552  20.656  28.133  13.875
75099W        W36553  17.584  41.015   0.803
75100W        W36554  31.976  30.012  12.452
75101W        W36555  32.123  29.140  12.461
75102W        W36556  10.738  12.670  12.513
75103W        W36557  25.202  26.138  13.837
75104W        W36558  20.564  31.452  11.454
75105W        W36559  38.956   0.984  11.511
75106W        W36560  37.884  14.187  12.021
75107W        W36561  40.402  35.094   0.331
75108W        W36562  39.893  17.254  14.431
75109W        W36563  34.099  42.900  13.339
75110W        W36564  30.534   6.326  11.030
75111W        W36565  14.192  32.613  13.407
75112W        W36566  12.625  10.765  10.610
75113W        W36567  41.817   0.926  10.442
75114W        W36568  29.077  37.427   2.214
75115W        W36569  29.471  37.411   5.187
75116W        W36570  13.297  19.594  13.348
75117W        W36571   9.367  44.983  13.898
75118W        W36572  38.008  43.909   0.366
75119W        W36573   8.359  32.131   0.397
75120W        W36574  33.075  14.335  12.459
75121W        W36575   2.966  41.809  14.868
75122W        W36576  30.485   7.703  14.400
75123W        W36577  32.609  36.375   0.274
75124W        W36578  20.188  35.903  11.067
75125W        W36579   3.798  13.167  14.030
75126W        W36580   7.414   9.363  12.445
75127W        W36581   4.817  37.907  13.391
75128W        W36582  42.294  26.590   0.816
75129W        W36583   7.799  31.407   3.635
75130W        W36584  14.681   6.396   4.755
75131W        W36585  30.019   2.897  14.835
75132W        W36586  21.210  37.520  13.809
75133W        W36587   0.305   7.254  11.423
75134W        W36588   0.398  36.355   0.928
75135W        W36589  39.358  36.531   0.295
75136W        W36590  34.571  24.647   3.734
75137W        W36591  10.262  25.141   3.369
75138W        W36592  25.627  34.371  11.911
75139W        W36593  27.148  22.238  12.441
75140W        W36594  39.888  17.219  14.877
75141W        W36595  24.990  44.261   2.733
75142W        W36596   7.693  17.176   3.177
75143W        W36597  11.242  32.533  12.546
75144W        W36598   0.372  12.802  14.892
75145W        W36599  18.713  40.976  14.806
75146W        W36600  42.303   9.335  14.837
75147W        W36601  28.507  40.371   2.418
75148W        W36602  41.890   8.821  12.408
75149W        W36603   7.817  30.440  12.972
75150W        W36604   8.776  40.877  12.947
75151W        W36605   0.763  14.305   3.235
75152W        W36606  34.535  10.178  11.952
75153W        W36607  33.431  24.677  13.870
75154W        W36608  12.230  39.325   0.961
75155W        W36609  19.255   1.427   3.214
75156W        W36610   7.745   5.232  12.016
75157W        W36611   4.714  22.713   1.841
75158W        W36612  42.031   5.241   2.402
75159W        W36613  14.096  21.594  11.914
75160W        W36614   5.828  32.966  14.349
75161W        W36615  41.505  28.021  13.971
75162W        W36616   9.835  36.376  12.872
75163W        W36617  30.053  25.532   4.146
75164W        W36618  26.528   0.858   1.700
75165W        W36619  36.885   1.376   2.219
75166W        W36620  25.018  42.882   5.180
75167W        W36621   7.874  37.363   3.375
75168W        W36622  12.346  34.047  14.388
75169W        W36623  13.725  22.065  12.836
75170W        W36624  39.932  13.705   3.822
75171W        W36625   2.911   8.378  14.938
75172W        W36626  27.584   8.381  13.857
75173W        W36627  42.975   5.760  10.559
75174W        W36628  14.623  14.328  12.892
75175W        W36629  14.692  27.985  13.806
75176W        W36630  36.919  31.053   2.224
75177W        W36631   5.916  42.799   4.175
75178W        W36632  40.346  43.989  14.003
75179W        W36633  30.515   2.247  14.385
75180W        W36634  39.979   2.885  12.055
75181W        W36635  17.691  28.601  10.486
75182W        W36636  26.104  35.955  12.088
75183W        W36637   9.352   4.277  11.391
75184W        W36638  26.032  43.893   4.788
75185W        W36639  43.328  22.645   1.381
75186W        W36640  25.641  11.813   1.305
75187W        W36641  13.791  23.128  12.577
75188W        W36642   6.366  40.811  14.950
75189W        W36643  24.554  21.687  12.838
75190W        W36644  44.454  42.877  11.934
75191W        W36645   5.283  36.980   4.645
75192W        W36646  23.114   1.847   0.264
75193W        W36647  18.087  24.695   4.613
75194W        W36648  30.973  15.802   1.278
75195W        W36649  21.176  16.092  11.489
75196W        W36650  23.153  31.020   0.399
75197W        W36651   8.836  35.424   0.962
75198W        W36652  39.024  42.377   2.311
75199W        W36653  17.148  18.548  11.942
75200W        W36654  26.571   6.316   1.380
75201W        W36655  12.821  13.163   0.444
75202W        W36656  17.087  10.785   4.301
75203W        W36657  41.357  22.532   4.639
75204W        W36658  15.771  14.278  13.530
75205W        W36659   7.343   1.834  12.977
75206W        W36660   6.894   4.241  13.887
75207W        W36661  16.757  28.131  11.455
75208W        W36662  28.990  37.915  11.438
75209W        W36663  44.398  12.346   4.631
75210W        W36664  40.828  43.421   2.704
75211W        W36665  41.865  21.702   2.749
75212W        W36666  27.956  28.166   4.272
75213W        W36667  44.402   5.776  13.888
75214W        W36668   2.853  14.665   3.792
75215W        W36669   7.330  16.708  14.398
75216W        W36670  16.159  32.625   4.705
75217W        W36671  43.005   3.398  10.083
75218W        W36672   1.805  33.000  13.961
75219W        W36673  41.335  28.101  13.544
75220W        W36674  29.967  39.354  13.359
75221W        W36675   5.769  43.920  10.585
75222W        W36676  18.143  26.084   2.419
75223W        W36677   0.799   7.340   4.332
75224W        W36678  35.563  36.897  12.461
75225W        W36679  18.678   0.977  12.481
75226W        W36680  40.042  24.689  10.447
75227W        W36681   2.919  13.748   2.692
75228W        W36682  32.893   8.276  12.454
75229W        W36683  28.649  24.985   4.746
75230W        W36684   9.215  11.358  13.455
75231W        W36685  31.514  23.719  11.552
75232W        W36686  43.297   9.809   4.116
75233W        W36687  38.352  19.042   0.812
75234W        W36688  26.528  21.018  12.565
75235W        W36689  11.731  18.636   0.429
75236W        W36690   8.718   4.744   1.729
75237W        W36691  21.601  30.506   1.405
75238W        W36692  28.187  22.082  11.404
75239W        W36693   1.945   0.796   3.176
75240W        W36694  14.705   6.791  14.809
75241W        W36695  19.727  31.036   4.674
75242W        W36696  20.763  14.729  13.056
75243W        W36697  36.371  20.662  11.608
75244W        W36698   0.485  41.823  11.575
75245W        W36699  32.893  10.146   3.371
75246W        W36700   0.787  18.147   4.191
75247W        W36701  26.161  25.685   1.448
75248W        W36702  31.127  38.904  12.973
75249W        W36703  13.705  38.838  14.511
75250W        W36704  10.849  34.535   4.180
75251W        W36705  20.694  25.705   3.161
75252W        W36706  14.807  23.736   9.987
75253W        W36707  17.183  38.899  11.516
75254W        W36708  38.019  37.555   4.150
75255W        W36709   8.229  15.273   0.851
75256W        W36710  17.714   0.873  14.974
75257W        W36711  12.786  14.726   0.366
75258W        W36712  37.340  32.558  13.418
75259W        W36713   1.309  28.665  12.983
75260W        W36714  32.568   6.392   4.340
75261W        W36715   1.258   0.837  14.924
75262W        W36716  32.026  43.440  11.974
75263W        W36717  12.828  20.741   4.712
75264W        W36718  27.660  35.978  12.960
75265W        W36719  20.221  35.561   1.445
75266W        W36720  17.618  17.729  13.455
75267W        W36721  43.002  39.498  10.608
75268W        W36722  32.014   6.823   1.366
75269W        W36723  17.664  38.029   0.375
75270W        W36724   2.796   1.295   4.151
75271W        W36725  10.682  15.716  11.373
75272W        W36726  25.689  37.459   9.961
75273W        W36727  11.739  26.474  13.320
75274W        W36728  34.943  35.869   2.728
75275W        W36729  26.552  13.638  11.889
75276W        W36730  10.688  39.410  12.566
75277W        W36731   2.335  12.218   0.468
75278W        W36732  30.442  37.381  11.050
75279W        W36733  40.483  43.869   1.341
75280W        W36734  43.360  34.515  13.890
75281W        W36735   3.723   1.815   3.629
75282W        W36736  23.121   8.657   0.936
75283W        W36737  18.779  22.075  14.431
75284W        W36738  29.485  13.106   1.870
75285W        W36739  16.246  11.817   0.356
75286W        W36740   6.836  36.521  12.945
75287W        W36741  21.555  42.843   0.762
75288W        W36742  29.987  19.129   0.940
75289W        W36743   2.433  20.653  14.836
75290W        W36744  15.817  26.977  11.912
75291W        W36745  41.489  19.555  13.517
75292W        W36746  24.560  34.467   1.767
75293W        W36747  34.033  20.759  10.994
75294W        W36748   4.432  39.446  14.783
75295W        W36749   8.788  15.662  12.437
75296W        W36750   1.416  23.088   2.878
75297W        W36751   2.374  42.870   1.813
75298W        W36752   4.391  33.051  12.848
75299W        W36753  13.167   7.824  12.430
75300W        W36754  17.210  14.312  11.952
75301W        W36755  21.706  28.040  13.918
75302W        W36756  24.575  17.721   0.329
75303W        W36757  20.595  27.987  11.423
75304W        W36758  31.934  27.525  10.441
75305W        W36759   5.344  32.581   4.719
75306W        W36760  21.026   2.412   2.270
75307W        W36761  23.208  19.088   0.935
75308W        W36762  28.938   6.418   0.938
75309W        W36763  42.300  44.406   3.732
75310W        W36764  13.697   1.823  10.561
75311W        W36765  43.003  25.608  11.884
75312W        W36766   8.351  18.173  13.055
75313W        W36767  11.366  17.699  14.908
75314W        W36768  32.636  12.695   5.134
75315W        W36769  23.113  13.106   1.923
75316W        W36770   0.449  26.145   1.259
75317W        W36771  39.350  36.842   3.354
75318W        W36772   2.278   2.919  13.521
75319W        W36773   1.343  11.217   3.314
75320W        W36774  41.512   8.762  14.511
75321W        W36775  36.392  40.021  13.320
75322W        W36776  17.203   3.352  12.948
75323W        W36777  39.492  38.528  11.959
75324W        W36778  29.666  38.500  14.837
75325W        W36779  23.700  28.080   1.287
75326W        W36780   0.767  18.651   0.481
75327W        W36781  42.941  15.604  13.806
75328W        W36782  24.618  36.877  10.914
75329W        W36783   7.414  34.920   3.668
75330W        W36784  31.598  42.423   2.817
75331W        W36785   2.895  13.331  11.910
75332W        W36786  42.839   9.236  13.432
75333W        W36787  17.648   0.440  12.446
75334W        W36788  18.061  40.418  13.452
75335W        W36789  25.661  42.845   2.841
75336W        W36790   2.377  41.797   0.331
75337W        W36791  38.893  10.201  11.404
75338W        W36792  13.757   1.955   2.701
75339W        W36793   5.896  26.184   1.859
75340W        W36794  39.465  13.818  14.484
75341W        W36795   6.725  25.640   1.379
75342W        W36796   7.319  14.305  10.888
75343W        W36797  25.558  31.538  11.029
75344W        W36798  30.958   3.294  13.464
75345W        W36799  15.305  34.422   4.133
75346W        W36800  40.039  33.421   3.729
75347W        W36801   0.340  24.034  12.370
75348W        W36802  28.966  21.171   1.854
75349W        W36803  39.382  31.975  14.801
75350W        W36804  17.568  41.967   0.786
75351W        W36805  20.664   7.251  14.779
75352W        W36806  39.934  11.678  11.076
75353W        W36807  13.268  33.523  13.024
75354W        W36808  14.220  18.143  12.927
75355W        W36809  22.074  18.677   1.257
75356W        W36810  22.568  20.742  11.862
75357W        W36811  40.021  15.811  11.023
75358W        W36812   0.255   4.329   1.375
75359W        W36813   8.842  23.009   3.816
75360W        W36814   8.702   5.377  11.102
75361W        W36815  32.456  12.750   9.927
75362W        W36816  18.155  18.200   1.447
75363W        W36817   0.433  22.056   0.824
75364W        W36818  20.696  26.194  13.318
75365W        W36819   3.239  16.098   2.888
75366W        W36820  32.128  16.303  14.354
75367W        W36821  22.126  34.436  11.992
75368W        W36822   8.666  40.376  13.457
75369W        W36823  17.247  38.042  11.990
75370W        W36824  36.494  43.418  12.078
75371W        W36825  43.279  13.607  13.023
75372W        W36826  35.391   3.400   2.227
75373W        W36827  25.580   1.290  12.928
75374W        W36828   4.879  26.497  13.986
75375W        W36829  35.965  14.282   3.810
75376W        W36830  43.968  33.916  12.399
75377W        W36831   5.928   2.361   0.843
75378W        W36832  38.565  21.245  11.381
75379W        W36833  20.718  36.969   2.370
75380W        W36834  26.600  13.733   4.119
75381W        W36835  26.092  30.435  11.088
75382W        W36836  13.793  43.380   2.816
75383W        W36837  20.203  15.260  11.864
75384W        W36838  19.682  29.612  12.522
75385W        W36839  10.326  22.083  13.013
75386W        W36840  33.491  24.162   0.921
75387W        W36841  32.519  23.152   0.749
75388W        W36842   3.409  41.956   0.409
75389W        W36843  38.510  31.613   0.281
75390W        W36844  32.056   7.759  13.458
75391W        W36845  17.254  16.166   0.800
75392W        W36846  16.780  31.508   4.208
75393W        W36847  17.779  13.327  11.107
75394W        W36848  15.189  20.258   3.826
75395W        W36849  25.648  44.858  14.870
75396W        W36850   6.386  37.994  10.933
75397W        W36851   8.655  19.070   1.275
75398W        W36852  19.145  33.972  11.960
75399W        W36853  32.919  38.903   3.757
75400W        W36854  43.380  13.329  14.794
75401W        W36855  18.076   6.855  13.985
75402W        W36856  25.191  19.188  11.063
75403W        W36857  41.400  18.099  14.391
75404W        W36858  10.149  25.539   3.270
75405W        W36859   6.722  28.931  14.503
75406W        W36860  34.870   8.374  11.506
75407W        W36861  24.059  17.221   0.815
75408W        W36862   7.200  27.545   2.700
75409W        W36863  43.375   5.934   3.276
75410W        W36864   7.207  14.102   3.697
75411W        W36865  30.586  22.125  11.925
75412W        W36866  28.083  42.527   2.295
75413W        W36867  11.826  33.092   4.113
75414W        W36868  18.095   5.875   3.212
75415W        W36869   0.395  27.019   1.809
75416W        W36870  34.958  41.893  10.516
75417W        W36871  12.126  42.326  12.875
75418W        W36872   2.895  20.060   0.323
75419W        W36873  30.489  42.438  14.493
75420W        W36874  19.744  15.740   1.274
75421W        W36875  31.568  30.468   0.799
75422W        W36876  44.265  13.310   5.203
75423W        W36877  34.054  42.837  10.583
75424W        W36878   9.859  11.319  13.995
75425W        W36879  15.689   1.865  10.574
75426W        W36880   0.443   7.708  12.391
75427W        W36881   6.270  42.874   4.276
75428W        W36882   5.842  28.002   4.292
75429W        W36883  38.515  19.204  11.857
75430W        W36884  27.641   1.835   0.867
75431W        W36885  39.035  29.632   4.234
75432W        W36886   2.913  35.469   1.912
75433W        W36887  23.169  31.028  12.040
75434W        W36888  15.212  37.891  10.924
75435W        W36889   3.359  12.349   4.132
75436W        W36890  11.136   9.192  13.359
75437W        W36891  20.178   1.772  13.866
75438W        W36892   7.312   4.851   1.430
75439W        W36893  22.745  34.433  12.053
75440W        W36894   5.222  34.598  12.908
75441W        W36895   4.220  35.099  10.489
75442W        W36896  39.056   2.445   0.392
75443W        W36897  12.155   8.680  11.532
75444W        W36898  14.826  28.047   1.322
75445W        W36899   0.834  35.543  12.891
75446W        W36900  41.415  14.637   0.775
75447W        W36901  18.781  15.150   4.632
75448W        W36902  26.485  11.286   0.963
75449W        W36903   4.396   7.292  14.809
75450W        W36904  38.058  34.042   4.822
75451W        W36905  43.782  41.455   2.273
75452W        W36906  36.003  23.993  12.358
75453W        W36907  37.367  22.619   4.236
75454W        W36908  32.910  18.634  13.381
75455W        W36909   8.286  29.510  14.310
75456W        W36910   4.806  19.085   1.383
75457W        W36911  27.451   7.688  11.565
75458W        W36912   1.849  35.498  13.012
75459W        W36913   9.207  29.950  14.500
75460W        W36914  10.778  12.187  14.380
75461W        W36915  21.720   6.857   2.338
75462W        W36916  23.117  32.575   1.244
75463W        W36917  33.895   7.867  12.412
75464W        W36918   0.361  11.705  13.895
75465W        W36919  15.223   6.252  10.961
75466W        W36920  30.960  20.720   2.185
75467W        W36921   1.865   0.781   1.320
75468W        W36922  26.671   1.244  12.931
75469W        W36923  23.107  30.049  10.577
75470W        W36924   8.174  25.574  13.319
75471W        W36925  15.620  12.799   2.787
75472W        W36926   8.171  36.475  14.884
75473W        W36927  27.059   0.430   3.803
75474W        W36928  19.557  14.785   4.638
75475W        W36929  38.859  31.475  10.979
75476W        W36930  40.460   1.903  12.386
75477W        W36931   6.200  26.078  10.529
75478W        W36932  36.415  21.180   9.928
75479W        W36933   2.922   0.874  11.595
75480W        W36934   7.681  17.611   0.304
75481W        W36935  34.059   4.745   0.393
75482W        W36936  30.626  26.126   2.685
75483W        W36937  30.961  42.825   5.200
75484W        W36938   4.292  18.614   0.810
75485W        W36939   4.821  37.405   0.912
75486W        W36940  42.472  19.108  12.559
75487W        W36941  28.062   8.674   2.402
75488W        W36942   0.341   5.821  12.394
75489W        W36943   3.246  31.580  11.066
75490W        W36944  24.135  37.346  14.812
75491W        W36945  12.268  16.745  14.507
75492W        W36946  25.107   6.765   9.510
75493W        W36947  24.102  37.003   1.381
75494W        W36948   5.331  12.853   0.425
75495W        W36949  16.302  31.060   4.230
75496W        W36950  33.946  18.151   1.861
75497W        W36951   7.393  26.623  14.804
75498W        W36952  30.126   5.741  12.460
75499W        W36953  40.937   9.768   3.363
75500W        W36954  41.952  34.501   3.768
75501W        W36955  24.180  26.655  12.907
75502W        W36956  20.630  10.750  12.875
75503W        W36957  32.894  22.228  13.495
75504W        W36958  41.420   3.341  13.518
75505W        W36959  27.478  20.566   5.617
75506W        W36960  20.241  32.906   0.744
75507W        W36961   7.309  16.598  13.909
75508W        W36962  27.021   3.250   1.224
75509W        W36963   5.691   8.819   2.758
75510W        W36964  29.600  32.487  13.996
75511W        W36965  11.697  19.662   0.387
75512W        W36966   0.347  29.489  11.587
75513W        W36967  18.189  31.105   0.360
75514W        W36968  24.483  25.210   4.270
75515W        W36969  32.935  10.371   1.430
75516W        W36970  41.408  14.788   4.199
75517W        W36971   8.171  40.342  10.600
75518W        W36972   0.955  21.149  14.441
75519W        W36973  32.576  15.660  11.899
75520W        W36974  13.117  31.074  13.897
75521W        W36975   9.671  41.484  11.120
75522W        W36976  22.728  20.611  11.451
75523W        W36977  11.813  35.363  11.469
75524W        W36978   9.720  25.985   1.838
75525W        W36979   0.348  40.302  13.516
75526W        W36980  27.508  10.366  11.543
75527W        W36981   7.672  20.182  12.882
75528W        W36982  14.219   3.272   4.243
75529W        W36983   6.352  17.206   1.220
75530W        W36984  17.695  10.825   4.650
75531W        W36985  33.521   7.734   2.779
75532W        W36986  19.073  16.768   2.236
75533W        W36987  37.336  44.895   1.292
75534W        W36988  15.226  10.652   2.845
75535W        W36989   2.383  19.689   0.752
75536W        W36990   8.844  27.642  11.419
75537W        W36991   1.410  34.117   1.794
75538W        W36992  12.281  40.801  11.598
75539W        W36993  27.153   2.436   5.599
75540W        W36994  10.691  29.123  12.569
75541W        W36995   5.900  26.621   2.369
75542W        W36996   9.829  16.095  11.407
75543W        W36997  10.205   9.323  12.396
75544W        W36998  12.696  15.582   3.193
75545W        W36999   3.740  37.403   2.323
75546W        W37000  14.333  43.775  14.943
75547W        W37001   1.476   7.410  14.761
75548W        W37002  31.541  19.156   4.202
75549W        W37003  25.563   8.794  13.978
75550W        W37004   7.335  38.050   3.658
75551W        W37005  17.199  10.206  13.888
75552W        W37006  31.629  33.918  12.440
75553W        W37007  33.451  38.357  10.953
75554W        W37008  31.004  19.152  13.804
75555W        W37009   3.240  21.090   3.286
75556W        W37010  26.958  23.131   0.959
75557W        W37011  19.715  40.871  14.016
75558W        W37012  35.380  27.991  10.412
75559W        W37013  21.071   6.796   3.818
75560W        W37014  42.995  12.316   0.899
75561W        W37015  25.554  35.422  10.631
75562W        W37016  26.654   4.289   0.396
75563W        W37017  36.438  11.791  14.019
75564W        W37018  29.526  42.785  14.997
75565W        W37019  39.887  33.409   4.751
75566W        W37020   7.300  17.179   1.400
75567W        W37021  24.128  33.584   4.613
75568W        W37022  22.114  38.388   2.838
75569W        W37023   0.967   2.831  12.940
75570W        W37024  39.392  20.602   4.625
75571W        W37025  15.606   6.189   5.227
75572W        W37026   3.324  32.595   0.930
75573W        W37027  39.891  18.143   3.299
75574W        W37028   9.215  27.149   1.805
75575W        W37029  12.722  19.101   1.245
75576W        W37030   9.767  39.556  12.016
75577W        W37031  10.855  41.432  11.393
75578W        W37032  10.719  12.251   2.772
75579W        W37033  28.439   2.799  13.374
75580W        W37034   0.840  15.276  11.093
75581W        W37035  33.948  41.334   1.219
75582W        W37036  17.695   3.267  14.292
75583W        W37037  14.109   4.861  14.783
75584W        W37038   8.680   0.927   2.877
75585W        W37039   3.348   1.971  12.466
75586W        W37040  23.723  42.451  10.512
75587W        W37041  36.010  19.052   1.854
75588W        W37042  35.489  41.992  12.843
75589W        W37043   4.244   1.428   2.688
75590W        W37044   2.438   4.378   0.897
75591W        W37045  12.325  14.315   3.714
75592W        W37046  27.551  40.851   3.340
75593W        W37047  14.655  33.104  12.871
75594W        W37048  30.455  26.618   4.126
75595W        W37049  28.989   2.226   3.376
75596W        W37050  44.847  30.940   0.841
75597W        W37051  12.254  37.533   1.253
75598W        W37052  41.422   2.233   3.325
75599W        W37053  22.042  23.659  12.467
75600W        W37054  27.979  36.025  11.416
75601W        W37055  44.278  44.898  11.547
75602W        W37056  21.649   9.724   0.831
75603W        W37057  28.668  24.095  14.409
75604W        W37058   1.856  27.574  12.387
75605W        W37059   3.940  17.109   0.471
75606W        W37060  18.740  23.085   2.289
75607W        W37061  23.149   3.411  11.886
75608W        W37062  32.499  19.614   0.923
75609W        W37063   9.727   3.231   0.737
75610W        W37064  14.589  44.394   2.347
75611W        W37065  16.579   3.904   4.315
75612W        W37066  36.568  13.639   2.202
75613W        W37067  24.510  33.922   0.328
75614W        W37068  29.109  27.113   0.881
75615W        W37069  23.525  17.669   3.737
75616W        W37070  44.824  25.479   0.758
75617W        W37071   8.374  32.447   0.345
75618W        W37072   5.203   3.405   1.723
75619W        W37073  38.978  22.077   2.834
75620W        W37074   4.251  22.710  13.922
75621W        W37075  26.197  11.138  12.995
75622W        W37076  27.107  12.752  13.497
75623W        W37077  33.022  26.954  11.914
75624W        W37078   4.849  28.179  10.959
75625W        W37079  24.200  19.055  12.427
75626W        W37080  36.959  19.137  14.027
75627W        W37081  12.736  12.222  12.082
75628W        W37082  19.106  13.683   2.799
75629W        W37083  21.206  16.234   3.324
75630W        W37084  42.904  16.109   4.764
75631W        W37085  36.894  19.259  11.459
75632W        W37086   8.398  21.188   3.716
75633W        W37087  21.674  33.920  12.513
75634W        W37088  35.586   2.389   1.405
75635W        W37089   4.255  15.731   1.749
75636W        W37090  36.586   7.844  14.845
75637W        W37091  35.416  31.940   1.414
75638W        W37092  24.485  39.369   3.303
75639W        W37093  15.094  17.282  14.297
75640W        W37094  22.181  44.383   1.269
75641W        W37095  32.494  22.575  11.462
75642W        W37096  29.599  43.847  13.313
75643W        W37097  21.754  41.407  13.456
75644W        W37098  21.031   8.664   2.780
75645W        W37099  14.123  11.721   3.363
75646W        W37100  31.031  15.259   4.737
75647W        W37101  17.110  43.483  10.603
75648W        W37102   7.297  31.438  11.978
75649W        W37103  13.290   0.306   4.283
75650W        W37104   3.427  23.708   9.936
75651W        W37105  32.401   1.481   2.187
75652W        W37106   8.282  14.140  13.917
75653W        W37107  41.438   2.399  14.320
75654W        W37108  23.718   0.465  13.463
75655W        W37109  23.204  32.012   4.321
75656W        W37110  20.652  33.034  14.918
75657W        W37111   2.367  12.298  13.524
75658W        W37112   4.916  44.467  11.589
75659W        W37113  43.814   1.450   0.952
75660W        W37114  26.656  39.051  14.953
75661W        W37115   2.312  22.721   0.885
75662W        W37116  31.578  43.971   0.385
75663W        W37117  22.047  21.591  11.953
75664W        W37118   9.358  37.002   3.779
75665W        W37119  27.177  15.247  12.948
75666W        W37120  11.666  38.848   0.872
75667W        W37121  21.244  18.659   2.697
75668W        W37122   1.771  19.718  14.990
75669W        W37123  39.953  30.919  10.577
75670W        W37124  10.874  11.718   4.662
75671W        W37125  16.566  15.083  11.482
75672W        W37126   6.292   1.923   4.709
75673W        W37127  19.252  40.828  13.493
75674W        W37128  22.601  23.152  10.891
75675W        W37129  25.157  17.189   4.802
75676W        W37130  40.399   0.458  12.026
75677W        W37131  35.386  34.441   4.271
75678W        W37132  20.264  15.223   4.819
75679W        W37133  21.590   8.161  12.509
75680W        W37134  29.494  38.829  12.526
75681W        W37135   6.745  17.284   3.631
75682W        W37136  25.472  40.949  14.279
75683W        W37137   8.227   6.251  14.856
75684W        W37138  17.627  11.260  13.413
75685W        W37139  35.602  26.109  11.865
75686W        W37140  42.942  20.175  12.396
75687W        W37141   3.455   2.909   4.787
75688W        W37142  33.963   7.865  13.511
75689W        W37143  30.471   7.786  13.519
75690W        W37144   6.321  30.575   4.141
75691W        W37145  44.871  13.769   4.642
75692W        W37146  39.866  31.605  11.541
75693W        W37147  12.140   3.915   3.811
75694W        W37148   5.226  33.589  12.936
75695W        W37149   0.944  19.082   4.785
75696W        W37150  39.546   5.860   3.704
75697W        W37151  39.977  35.959   0.850
75698W        W37152  15.638  36.964  14.993
75699W        W37153  26.183  12.229  14.980
75700W        W37154  34.591   8.370   2.177
75701W        W37155  13.695  29.603  12.580
75702W        W37156   1.752  10.696   2.671
75703W        W37157  20.642  14.728  11.860
75704W        W37158   0.761  15.190  13.824
75705W        W37159  20.204   5.874   0.958
75706W        W37160   0.450  44.957   1.766
75707W        W37161  29.153   4.865   5.263
75708W        W37162   8.330  19.157   3.243
75709W        W37163   8.238   8.243   3.259
75710W        W37164  37.502  10.236   4.300
75711W        W37165  27.596   1.268   9.931
75712W        W37166  29.993  36.564   5.279
75713W        W37167   9.696  38.913  11.908
75714W        W37168   8.300  11.311  12.824
75715W        W37169  20.127  33.490  10.156
75716W        W37170  43.489  36.873   2.852
75717W        W37171   9.660   9.160  11.532
75718W        W37172  38.915   3.303  12.000
75719W        W37173  20.627  28.462   2.735
75720W        W37174  30.588  28.179   3.772
75721W        W37175   8.666   7.907   2.287
75722W        W37176  35.039  43.009  13.849
75723W        W37177  33.975   5.691  13.437
75724W        W37178  42.474  19.238  13.044
75725W        W37179  13.809  27.062   4.155
75726W        W37180  37.858  18.132   0.344
75727W        W37181  43.925  43.352  14.445
75728W        W37182  42.807  32.596   5.315
75729W        W37183  14.776  35.371  14.400
75730W        W37184  13.841  42.899  13.975
75731W        W37185  13.289  44.945   2.754
75732W        W37186  41.402  29.473  11.074
75733W        W37187  34.591  32.143   1.407
75734W        W37188  32.091   8.340  12.566
75735W        W37189  23.585  15.287  12.408
75736W        W37190  40.813  30.916   0.460
75737W        W37191  28.933   4.242  11.060
75738W        W37192  22.587  29.439   3.307
75739W        W37193  30.970  25.525   2.226
75740W        W37194  27.533  19.590  12.354
75741W        W37195  12.638  29.650  14.932
75742W        W37196  33.517  31.508  11.081
75743W        W37197   9.734  14.629  10.497
75744W        W37198   6.260  36.004   0.752
75745W        W37199  20.767  37.059  10.629
75746W        W37200  37.420  23.136   1.216
75747W        W37201   6.818  10.212   0.316
75748W        W37202  18.654   6.228   4.353
75749W        W37203  24.561   4.239  14.949
75750W        W37204  18.544  35.047  10.933
75751W        W37205  40.016  38.472  11.061
75752W        W37206  29.619  22.173   1.864
75753W        W37207  37.071   4.339  12.038
75754W        W37208  20.230  32.610  10.972
75755W        W37209   1.910  31.558   2.256
75756W        W37210  43.852  43.817   1.896
75757W        W37211  15.114   0.760  10.453
75758W        W37212   9.359  35.969   2.310
75759W        W37213  33.619  35.886  14.930
75760W        W37214   0.828  17.297  11.439
75761W        W37215  13.112  41.516   5.789
75762W        W37216   0.901  31.917   3.187
75763W        W37217   6.889  30.488  12.002
75764W        W37218  43.775  11.263  14.946
75765W        W37219   2.461  15.314  13.427
75766W        W37220  15.161  20.560  11.976
75767W        W37221  31.020  30.654   0.882
75768W        W37222  26.121  36.519  10.421
75769W        W37223  21.194  11.755  13.483
75770W        W37224  10.696  43.770   1.883
75771W        W37225  23.724  24.513  12.854
75772W        W37226  13.674  22.073  13.397
75773W        W37227  35.358  10.742  10.911
75774W        W37228   2.749  15.113   0.300
75775W        W37229  25.976  17.779  13.332
75776W        W37230  30.577  43.020   3.793
75777W        W37231   8.895  28.952   4.249
75778W        W37232  39.868  30.157  13.510
75779W        W37233  19.618   9.281   2.284
75780W        W37234  40.884  15.599   3.154
75781W        W37235   0.407  37.355  14.884
75782W        W37236   1.249  24.088   3.647
75783W        W37237  28.648  44.278   1.879
75784W        W37238  37.545  36.368  14.952
75785W        W37239  34.506  37.832  14.497
75786W        W37240  41.368  31.533   0.883
75787W        W37241  40.038  16.088  10.451
75788W        W37242  29.546  13.124   2.837
75789W        W37243  17.166  33.519   4.830
75790W        W37244  44.798  14.706   1.879
75791W        W37245  30.000   1.353   1.886
75792W        W37246  21.113  35.543  13.826
75793W        W37247   2.872  31.552  12.419
75794W        W37248  34.047  23.651  11.402
75795W        W37249  23.571  24.525   4.783
75796W        W37250   4.922  28.158   3.767
75797W        W37251  39.970  15.281  13.543
75798W        W37252  25.117  12.748   1.706
75799W        W37253  40.379  42.894  12.883
75800W        W37254  21.138  15.149   2.812
75801W        W37255   0.419  27.477  11.539
75802W        W37256   1.434  32.491  12.063
75803W        W37257  16.681  42.329   1.300
75804W        W37258  29.046  37.947   4.210
75805W        W37259  44.395  20.596   1.375
75806W        W37260  14.750   9.689  12.387
75807W        W37261   8.676   7.810   0.833
75808W        W37262  17.270  10.683  12.076
75809W        W37263  13.289  33.979  12.457
75810W        W37264  27.592   6.234   3.869
75811W        W37265  36.924  25.042   1.770
75812W        W37266   3.404  21.072   0.416
75813W        W37267  32.953  24.182  11.872
75814W        W37268  15.250  30.640   2.798
75815W        W37269  21.722  24.486  13.412
75816W        W37270  30.088  38.524  14.767
75817W        W37271  16.723  20.121   3.233
75818W        W37272  24.677  20.140  12.503
75819W        W37273  25.489  40.392  11.071
75820W        W37274   7.813   0.413   2.667
75821W        W37275  13.705  44.354  12.973
75822W        W37276  39.987   5.710   2.239
75823W        W37277  23.584  31.456   4.672
75824W        W37278   7.821  33.888   1.851
75825W        W37279  39.824   9.803  11.031
75826W        W37280   5.776  35.875  12.436
75827W        W37281  12.612  41.030   0.739
75828W        W37282  10.795  22.111  13.047
75829W        W37283  17.281  42.461  13.940
75830W        W37284  38.492  34.116  13.417
75831W        W37285  36.865  43.432   9.940
75832W        W37286  34.597  32.522  11.877
75833W        W37287   5.313  44.803   3.204
75834W        W37288  27.099  13.788  10.548
75835W        W37289   6.743  34.059  14.882
75836W        W37290  22.555  10.711   2.339
75837W        W37291  43.477  44.386   1.762
75838W        W37292   6.311   8.677   5.180
75839W        W37293   6.348  31.964   9.951
75840W        W37294  20.583  13.636  13.963
75841W        W37295   9.735  10.789   3.730
75842W        W37296  30.939  26.665   0.849
75843W        W37297  43.283  42.873   0.346
75844W        W37298  22.230  33.556  11.590
75845W        W37299   9.682   3.459   2.364
75846W        W37300  15.167   0.764   3.308
75847W        W37301  36.472  28.143  14.923
75848W        W37302   0.485   1.784  11.380
75849W        W37303   2.281  15.672   0.313
75850W        W37304  14.781   5.275   3.218
75851W        W37305  20.088  12.761   0.326
75852W        W37306  31.074  23.634   3.314
75853W        W37307   3.291   0.927   3.151
75854W        W37308  17.185  38.476   0.259
75855W        W37309   0.391  19.044  13.968
75856W        W37310   7.217  40.830   1.738
75857W        W37311   7.189  25.111   2.769
75858W        W37312  18.125  44.956   3.814
75859W        W37313  19.153  39.997  11.546
75860W        W37314   0.423  16.639   4.162
75861W        W37315  11.189  39.364   2.882
75862W        W37316  10.718  11.307   4.155
75863W        W37317   5.208  26.639  14.399
75864W        W37318  13.778   1.328  11.473
75865W        W37319  15.812  22.516   3.759
75866W        W37320  33.484  25.497  12.356
75867W        W37321  17.739  19.573   2.761
75868W        W37322   4.729  37.380  10.960
75869W        W37323  41.007   8.240  10.428
75870W        W37324  14.680   5.817   1.861
75871W        W37325  27.085   1.920  12.506
75872W        W37326   7.383   9.807  14.768
75873W        W37327  44.888   2.916   2.740
75874W        W37328  39.362  17.260   4.278
75875W        W37329  11.824  43.477  11.589
75876W        W37330   5.404  26.158   2.330
75877W        W37331  12.812  35.474  12.902
75878W        W37332  33.997  28.652  12.368
75879W        W37333  25.573   3.772  13.383
75880W        W37334   8.712  33.570  10.912
75881W        W37335  18.075  42.434  14.837
75882W        W37336  21.678  13.606   4.308
75883W        W37337  14.185  18.182   1.836
75884W        W37338  30.552   2.802  10.507
75885W        W37339  10.241  38.422  12.933
75886W        W37340  15.793  19.283  13.049
75887W        W37341   0.855  30.573   3.755
75888W        W37342  32.562  29.918   4.615
75889W        W37343  22.127  41.929   3.643
75890W        W37344  18.646   0.320  10.464
75891W        W37345  32.974  30.922   1.297
75892W        W37346  23.678   0.806  11.427
75893W        W37347  19.171  38.855   0.820
75894W        W37348   4.411  33.538  13.447
75895W        W37349  43.464  17.182   4.254
75896W        W37350  32.065  32.900  12.417
75897W        W37351   0.960  26.580  11.077
75898W        W37352   3.809  27.533   1.358
75899W        W37353  17.072  24.724   1.876
75900W        W37354  16.764   7.256   4.626
75901W        W37355  30.463  25.983  13.512
75902W        W37356  33.568  15.219   0.936
75903W        W37357  38.533  15.603  13.541
75904W        W37358  27.489  24.149   0.471
75905W        W37359  15.220  15.177   0.891
75906W        W37360  44.456  38.852  11.876
75907W        W37361   3.783  13.647   0.862
75908W        W37362  29.487  21.136   2.272
75909W        W37363   7.872  15.181  10.435
75910W        W37364  20.686  43.932  11.044
75911W        W37365  38.416  28.998  14.453
75912W        W37366  16.174  39.552  14.423
75913W        W37367   9.786  34.881   0.934
75914W        W37368   8.389  25.537  10.618
75915W        W37369  41.351  14.826   3.652
75916W        W37370  21.713  22.561   4.621
75917W        W37371  32.578  39.994  12.374
75918W        W37372  21.218  30.061   1.723
75919W        W37373  33.621   3.428   3.741
75920W        W37374  28.028  44.919  14.367
75921W        W37375  24.000  31.107  13.474
75922W        W37376  34.441  39.952  11.612
75923W        W37377  25.526  20.141  12.041
75924W        W37378  16.195  12.614   3.374
75925W        W37379  31.477  14.213  14.430
75926W        W37380   5.346  30.533  12.063
75927W        W37381  43.330  38.902   3.159
75928W        W37382  21.608  29.096   3.337
75929W        W37383  19.230   4.442   3.817
75930W        W37384  23.554  29.658  12.867
75931W        W37385  15.168   2.875   4.610
75932W        W37386  34.444  10.379   3.688
75933W        W37387  13.717  40.338  14.928
75934W        W37388  41.984  37.834  13.958
75935W        W37389  41.466  39.050   2.848
75936W        W37390   9.159  44.500   3.779
75937W        W37391   1.455  36.090   0.799
75938W        W37392  20.251  13.244   2.227
75939W        W37393  22.591  26.670   0.900
75940W        W37394   1.332  25.608  14.970
75941W        W37395  25.991  28.028   0.259
75942W        W37396  29.071  12.231  13.926
75943W        W37397   2.927  24.720   0.326
75944W        W37398  14.268  33.556  10.896
75945W        W37399  20.037  27.961   2.226
75946W        W37400  20.569   5.892  13.896
75947W        W37401  10.638  21.581  12.030
75948W        W37402  38.839  42.290   4.264
75949W        W37403  30.917  17.177   0.292
75950W        W37404  30.562  25.058  11.864
75951W        W37405   7.177   4.728  11.496
75952W        W37406  26.521  22.158  11.122
75953W        W37407  32.504  21.096  10.442
75954W        W37408  11.174  39.025   0.795
75955W        W37409  14.128   4.814  11.899
75956W        W37410   8.235  27.553  14.416
75957W        W37411   8.692  38.069  14.001
75958W        W37412   6.889  43.484   4.765
75959W        W37413  43.888  20.261  13.002
75960W        W37414  28.962   0.755   0.368
75961W        W37415   9.863  25.060  12.904
75962W        W37416  26.591  12.245  11.520
75963W        W37417  23.667  29.442  14.406
75964W        W37418   8.357  39.350   0.328
75965W        W37419  31.069   4.317   5.567
75966W        W37420  19.625   1.857   0.884
75967W        W37421   1.916  17.688   2.849
75968W        W37422  44.488  21.739  14.820
75969W        W37423  15.621  44.440  10.613
75970W        W37424  25.166  38.002  11.869
75971W        W37425  41.410  29.127   4.724
75972W        W37426  28.003  20.078   0.321
75973W        W37427   4.304   3.372   0.915
75974W        W37428  29.479  38.889   0.966
75975W        W37429  15.298  20.614   2.701
75976W        W37430  22.687  24.608   2.274
75977W        W37431  11.714   8.781   4.754
75978W        W37432  31.913  43.399  13.895
75979W        W37433  35.560  32.112  10.928
75980W        W37434  44.265  39.930  13.462
75981W        W37435  16.147  40.933   0.956
75982W        W37436  20.655  31.035  10.622
75983W        W37437  44.492  12.340   1.332
75984W        W37438  40.918  18.621   0.387
75985W        W37439  12.678  13.654   0.419
75986W        W37440   0.406  32.619  12.945
75987W        W37441   1.941  36.996   4.605
75988W        W37442  35.403  38.033  13.884
75989W        W37443  32.983  14.106   3.334
75990W        W37444   1.295  11.323  13.911
75991W        W37445  42.347  14.770   0.891
75992W        W37446   8.306  32.043  13.903
75993W        W37447  29.112  25.543   4.763
75994W        W37448  20.228   1.882  10.596
75995W        W37449   5.215  36.964   0.833
75996W        W37450  14.735  14.718   3.378
75997W        W37451  24.220  28.003  10.415
75998W        W37452  15.176   6.313   1.292
75999W        W37453  17.690  33.487   4.801
76000W        W37454  44.914  19.089   0.853
76001W        W37455   6.750  14.284   2.292
76002W        W37456   7.743  32.596   2.357
76003W        W37457   3.345  22.507  10.529
76004W        W37458  19.136   6.883  14.312
76005W        W37459   6.265  34.930   2.394
76006W        W37460  40.949   0.434  10.968
76007W        W37461  43.308  29.609   2.377
76008W        W37462  44.288  24.020  11.925
76009W        W37463  11.710   8.749   1.276
76010W        W37464  16.226   8.344   4.225
76011W        W37465  21.082   2.283   5.194
76012W        W37466  43.894  30.089   4.697
76013W        W37467   0.765  24.517  11.983
76014W        W37468  15.730   5.726  11.075
76015W        W37469  43.873  11.341   2.415
76016W        W37470   8.727  23.629   1.867
76017W        W37471  41.009  27.679  14.489
76018W        W37472  38.835  22.074  11.051
76019W        W37473  31.969   9.166  11.988
76020W        W37474   2.888  14.277   4.344
76021W        W37475   6.722  23.104   4.603
76022W        W37476  19.160  29.009   1.915
76023W        W37477  31.030   5.379   2.280
76024W        W37478  29.117   5.227   4.296
76025W        W37479  43.897  28.445   4.618
76026W        W37480  39.988  16.228   0.827
76027W        W37481  37.492  33.121   1.451
76028W        W37482  28.942  26.122  14.428
76029W        W37483  21.071  25.710  12.074
76030W        W37484   7.813  19.691   2.312
76031W        W37485  12.123  31.939  12.453
76032W        W37486   7.786   3.301   2.203
76033W        W37487  24.171  18.617  14.759
76034W        W37488  16.663  44.873   0.825
76035W        W37489  19.128  12.127  11.519
76036W        W37490  41.799   5.212   1.783
76037W        W37491  27.533  34.908   0.794
76038W        W37492  20.202  24.168  12.974
76039W        W37493   8.242  26.057   0.774
76040W        W37494  19.709   7.894   1.890
76041W        W37495  40.910  32.923   0.769
76042W        W37496  11.220  19.229   3.720
76043W        W37497  33.027  27.167  13.366
76044W        W37498   3.763  24.602  12.828
76045W        W37499  14.647  30.568  12.008
76046W        W37500  16.290   6.217   1.818
76047W        W37501  43.855  26.136  12.567
76048W        W37502  26.610  16.087  12.870
76049W        W37503  35.499  11.865   3.706
76050W        W37504  40.945  16.188   0.761
76051W        W37505  29.118  38.944  11.387
76052W        W37506  28.620  39.513   2.302
76053W        W37507  26.634  27.947  14.938
76054W        W37508  25.128  19.242  13.437
76055W        W37509  18.280  43.885   1.802
76056W        W37510  16.808  16.682  12.070
76057W        W37511  25.210   3.418  14.343
76058W        W37512  26.680  34.013  12.880
76059W        W37513  27.593  42.421  14.445
76060W        W37514   0.370  26.601   1.419
76061W        W37515  29.926  29.045   4.611
76062W        W37516  39.477  40.018  13.828
76063W        W37517   3.360   3.790   0.305
76064W        W37518  35.550   8.804   0.351
76065W        W37519  30.131   9.268   1.335
76066W        W37520  25.642   7.285   4.834
76067W        W37521  17.585  36.858   3.769
76068W        W37522  18.738   1.284   2.677
76069W        W37523   3.333  20.205  13.796
76070W        W37524  44.915  29.520  10.509
76071W        W37525  13.144  42.318   2.225
76072W        W37526  44.897  37.378   1.828
76073W        W37527  44.306  13.296  13.394
76074W        W37528  34.434  32.015  11.063
76075W        W37529  27.664  37.581  14.009
76076W        W37530  38.459  10.145  13.422
76077W        W37531   6.836  43.379   0.780
76078W        W37532  26.493  14.262  13.885
76079W        W37533  27.113  39.406   0.788
76080W        W37534   7.196  31.459   4.131
76081W        W37535  28.517  10.689   0.818
76082W        W37536  35.042  44.336  13.545
76083W        W37537  14.647  18.715   4.117
76084W        W37538  16.754  13.725  13.394
76085W        W37539  40.497   7.712  13.859
76086W        W37540  32.035   5.751   1.215
76087W        W37541  11.847  33.496  13.955
76088W        W37542  36.943  28.624  10.511
76089W        W37543  18.094   3.282   2.236
76090W        W37544  20.240   8.185  13.891
76091W        W37545  32.509  28.056  14.843
76092W        W37546  11.760  35.597  13.805
76093W        W37547  36.864  36.845   1.368
76094W        W37548  11.145   4.870  13.464
76095W        W37549  35.969  16.119   4.293
76096W        W37550  33.605  41.397  11.546
76097W        W37551  39.896   1.750   0.879
76098W        W37552  25.056  32.047   3.795
76099W        W37553  17.146  33.414   0.330
76100W        W37554  18.086   6.707  14.404
76101W        W37555  27.067  42.377   0.952
76102W        W37556  27.580  39.938   2.190
76103W        W37557  41.410   3.781   4.299
76104W        W37558  20.549  34.460  11.521
76105W        W37559  17.557  38.364  13.534
76106W        W37560  35.904  13.631   0.443
76107W        W37561   5.835   3.739  13.382
76108W        W37562  14.751  21.215   4.267
76109W        W37563  33.588   3.252  11.449
76110W        W37564   0.483   8.770  13.529
76111W        W37565   3.920  14.228   2.329
76112W        W37566  29.566  13.183  11.428
76113W        W37567  22.178   9.249   9.939
76114W        W37568  37.067  14.711   4.825
76115W        W37569  30.914   0.896   4.207
76116W        W37570  14.798  36.592  11.500
76117W        W37571   1.957  10.647  14.393
76118W        W37572  11.187  29.111  12.837
76119W        W37573  37.042  23.990   1.332
76120W        W37574  18.218  23.573   1.402
76121W        W37575  25.642  22.032   4.838
76122W        W37576  33.112   5.270  10.641
76123W        W37577   8.217  24.674   4.285
76124W        W37578  44.830  13.130   3.295
76125W        W37579   5.305  42.356  11.917
76126W        W37580  42.793   8.900  11.506
76127W        W37581  11.266  17.076   0.781
76128W        W37582  36.395  10.774  13.322
76129W        W37583   6.860  18.107   2.404
76130W        W37584  15.807  42.410   1.788
76131W        W37585  32.555  36.999  12.935
76132W        W37586  23.010  18.285  12.523
76133W        W37587  40.549  24.146   1.281
76134W        W37588   5.757   8.660  13.946
76135W        W37589  13.712  42.512  14.941
76136W        W37590  38.339   3.302   0.730
76137W        W37591  26.114  14.119   3.370
76138W        W37592  29.152  11.624  13.456
76139W        W37593  43.832  33.042   2.278
76140W        W37594  12.135  18.104  10.963
76141W        W37595  30.014  30.965   4.229
76142W        W37596  29.021  31.920  12.007
76143W        W37597  37.489  10.216  13.408
76144W        W37598  22.126   2.885   4.353
76145W        W37599  25.201  26.680  10.066
76146W        W37600  17.674  35.598   2.688
76147W        W37601  40.414   7.308   3.834
76148W        W37602  20.670   4.358   2.182
76149W        W37603  27.491  35.522   4.612
76150W        W37604  10.717  13.288   1.869
76151W        W37605  33.515  16.245   3.273
76152W        W37606  38.046  29.088  12.554
76153W        W37607  16.271   5.750  11.569
76154W        W37608  39.362  21.539  14.314
76155W        W37609  30.082  39.961   0.453
76156W        W37610  11.211  31.433  12.443
76157W        W37611  27.452  36.937  12.501
76158W        W37612  39.035  41.486   3.319
76159W        W37613   6.782  14.335  12.038
76160W        W37614  38.494   0.800  14.999
76161W        W37615   7.322  32.941  10.530
76162W        W37616  14.222  27.957   0.328
76163W        W37617  26.559  10.302  13.918
76164W        W37618  15.674   8.271   3.188
76165W        W37619   4.328   2.312  13.968
76166W        W37620  29.133  29.443   1.731
76167W        W37621  13.168  27.566   4.312
76168W        W37622  39.872  41.850  13.821
76169W        W37623   3.755  42.291   1.822
76170W        W37624   9.215  15.819  13.850
76171W        W37625  42.443   2.754   1.900
76172W        W37626  19.077  19.285   3.793
76173W        W37627  10.212  35.869   0.377
76174W        W37628  36.374   2.261   0.932
76175W        W37629  16.078  35.559   3.339
76176W        W37630  38.379  27.637   2.809
76177W        W37631  42.465  30.421  11.462
76178W        W37632  19.129  40.376  14.976
76179W        W37633   8.801  17.591  13.793
76180W        W37634   6.759  30.523   3.268
76181W        W37635  29.097  20.636  12.090
76182W        W37636  24.078  13.150  14.900
76183W        W37637  26.055  28.080   1.374
76184W        W37638  33.895  19.772  12.899
76185W        W37639  32.968  33.552   4.799
76186W        W37640  37.069  31.050   2.871
76187W        W37641  22.662   0.468  10.471
76188W        W37642   4.399   1.891   0.437
76189W        W37643   4.351  18.202   1.363
76190W        W37644  20.677  13.124  11.063
76191W        W37645  14.180   5.752   0.288
76192W        W37646   4.385  35.476  12.399
76193W        W37647  26.610  37.872  14.896
76194W        W37648  39.458   8.294  13.823
76195W        W37649   6.730  11.694  12.951
76196W        W37650  28.142  13.168  14.283
76197W        W37651  38.850   4.313   2.293
76198W        W37652  17.651  13.206  13.931
76199W        W37653  31.502  29.554   0.926
76200W        W37654  37.926  31.899  12.498
76201W        W37655  39.374   9.702  10.527
76202W        W37656  17.078  10.341  14.882
76203W        W37657  41.329   9.657  14.915
76204W        W37658  34.045  30.016   4.825
76205W        W37659   3.306  43.355   4.202
76206W        W37660  32.427  20.672   1.265
76207W        W37661   7.398  22.537  12.892
76208W        W37662  39.943  24.169  13.909
76209W        W37663  24.070  41.938  13.844
76210W        W37664   1.311  35.593  13.903
76211W        W37665  35.058   5.239   3.316
76212W        W37666  39.006  18.754  11.982
76213W        W37667  31.460   1.869  11.490
76214W        W37668  30.492   4.338  10.037
76215W        W37669  30.601   9.754   0.870
76216W        W37670  31.108  44.967  12.852
76217W        W37671  43.380   2.314   3.347
76218W        W37672  37.916  34.475   4.764
76219W        W37673   3.335   0.849   4.602
76220W        W37674   7.298  37.355  10.923
76221W        W37675  29.011  31.549  11.101
76222W        W37676  26.130   2.446  11.398
76223W        W37677  13.607  10.867  10.134
76224W        W37678  27.115  25.130   2.770
76225W        W37679  41.341   6.723  12.037
76226W        W37680   1.258  14.648  14.343
76227W        W37681  41.945  25.681   1.316
76228W        W37682  17.611  30.107  13.005
76229W        W37683  10.730   0.335  13.313
76230W        W37684  13.657   5.844   2.723
76231W        W37685  28.510   3.915  14.908
76232W        W37686  19.679  23.551   0.765
76233W        W37687   0.744  18.562  11.937
76234W        W37688  18.144  29.074  10.568
76235W        W37689  16.588   5.320  14.953
76236W        W37690  35.404  31.624   0.727
76237W        W37691  22.105   8.717   4.669
76238W        W37692  42.517   7.177  11.448
76239W        W37693   8.802  17.124  10.426
76240W        W37694  31.060  25.702   1.330
76241W        W37695   1.959   3.810   0.452
76242W        W37696  12.139  16.145  12.418
76243W        W37697  24.725  25.690   2.750
76244W        W37698  34.523  12.623   1.421
76245W        W37699  30.946  34.867   0.390
76246W        W37700  41.533  21.223   5.306
76247W        W37701   6.274   2.771   1.791
76248W        W37702  16.166   1.453   2.829
76249W        W37703  29.929   3.423  14.468
76250W        W37704  34.523  19.769  14.984
76251W        W37705   5.876  12.652   4.270
76252W        W37706  24.198  37.045   2.804
76253W        W37707   2.912  11.148  10.964
76254W        W37708  31.543   2.863  12.904
76255W        W37709  13.253   8.672   0.854
76256W        W37710  28.071  22.728  10.033
76257W        W37711  16.158  18.765  10.481
76258W        W37712   3.433  30.980   3.685
76259W        W37713   4.769  19.149   3.753
76260W        W37714   2.901  10.779   2.403
76261W        W37715  34.532   1.888   3.170
76262W        W37716  31.024   3.768   0.398
76263W        W37717   3.835  28.649  13.541
76264W        W37718   1.761  26.544   3.779
76265W        W37719  19.688   3.326  10.991
76266W        W37720   7.363  20.187   0.364
76267W        W37721  30.626  21.234   0.460
76268W        W37722  12.231  44.499   1.722
76269W        W37723   8.774  41.301   1.898
76270W        W37724  30.472   6.827   3.788
76271W        W37725  36.537  25.006  11.395
76272W        W37726   8.896  32.049  10.439
76273W        W37727  35.026  16.119  12.370
76274W        W37728  13.109   9.750   3.285
76275W        W37729  11.763  42.320   3.734
76276W        W37730  10.832  33.410  14.005
76277W        W37731  28.592  22.116   0.942
76278W        W37732  26.672  32.494   1.309
76279W        W37733  42.798  36.414  11.897
76280W        W37734  44.911   7.366   0.855
76281W        W37735   0.326  34.965  12.083
76282W        W37736  10.171  39.064   3.765
76283W        W37737  15.315  10.867  12.525
76284W        W37738  31.915  10.373   2.874
76285W        W37739  11.154  15.097  13.479
76286W        W37740   3.245  41.861  10.630
76287W        W37741  26.516  20.196  10.436
76288W        W37742  12.612  33.058   0.953
76289W        W37743  40.531  18.745  14.916
76290W        W37744  43.316   0.433  12.091
76291W        W37745   1.311  39.329   3.635
76292W        W37746   1.801   3.338  13.384
76293W        W37747   7.234  15.103   3.773
76294W        W37748  12.164  35.490  10.974
76295W        W37749   0.861   7.874  14.461
76296W        W37750  25.492  22.083  10.103
76297W        W37751  28.095  12.137  14.845
76298W        W37752  20.203  23.605  12.361
76299W        W37753  15.665  32.591  14.765
76300W        W37754  29.077  36.865   0.921
76301W        W37755  14.135   5.196  13.515
76302W        W37756  37.933  37.487  13.984
76303W        W37757  27.583  31.941  11.454
76304W        W37758  19.227  26.495  11.856
76305W        W37759  10.209  14.736   2.305
76306W        W37760   7.831  10.793   2.844
76307W        W37761   3.345  14.313  11.543
76308W        W37762  18.267  10.746  12.895
76309W        W37763  22.107   5.349   2.783
76310W        W37764  42.374  19.151   2.810
76311W        W37765  22.584  21.191  12.994
76312W        W37766  18.129  23.062  14.904
76313W        W37767  26.954   7.322   5.244
76314W        W37768  15.307  29.481   3.786
76315W        W37769  36.046  32.971   1.301
76316W        W37770   9.715  37.988   1.933
76317W        W37771   0.961  29.118  11.904
76318W        W37772  40.805  38.560   3.336
76319W        W37773  31.084  29.514   4.807
76320W        W37774  12.715  37.543   0.743
76321W        W37775  25.981  40.917   2.739
76322W        W37776  29.150  38.884  12.827
76323W        W37777   2.772  23.571  11.603
76324W        W37778  12.676  35.026  14.325
76325W        W37779  36.955  29.053  12.009
76326W        W37780  10.226  21.263   4.741
76327W        W37781  20.765  37.532  13.362
76328W        W37782  38.559   9.251  12.829
76329W        W37783  35.408  40.333   2.396
76330W        W37784  40.000  31.475   4.648
76331W        W37785  26.164  21.139  11.412
76332W        W37786  27.027  41.311  10.604
76333W        W37787   2.724  41.380   4.191
76334W        W37788  39.020  33.594  12.566
76335W        W37789  29.515  12.246   1.925
76336W        W37790  35.536  30.044   3.784
76337W        W37791  22.062   1.758  14.959
76338W        W37792  23.717  43.869   0.392
76339W        W37793  23.623  25.609   1.899
76340W        W37794  41.518  28.097  14.971
76341W        W37795   7.176  20.650   4.730
76342W        W37796  18.129  42.804   4.601
76343W        W37797  25.141  19.684   4.673
76344W        W37798  33.103  14.597  12.407
76345W        W37799  38.419  23.179   0.371
76346W        W37800  43.885  40.040   1.368
76347W        W37801  13.284  11.159  13.808
76348W        W37802   5.307  17.126   4.281
76349W        W37803  27.606  39.360   2.709
76350W        W37804   4.706  40.989   4.602
76351W        W37805  30.631   0.386  13.922
76352W        W37806  13.730  12.768  13.941
76353W        W37807   5.307  15.248   0.936
76354W        W37808  14.610  39.326   0.869
76355W        W37809  36.879  17.759  14.508
76356W        W37810  26.499  38.383   3.364
76357W        W37811  43.960  23.643   3.384
76358W        W37812  22.064   2.771   4.834
76359W        W37813  39.989  34.555  12.922
76360W        W37814   6.212   2.775  13.938
76361W        W37815  12.642  17.710   2.385
76362W        W37816   6.330  24.058   1.247
76363W        W37817   6.405  15.623  11.109
76364W        W37818  22.074  42.793  11.409
76365W        W37819  23.016   0.421  10.508
76366W        W37820  33.077  38.016   4.807
76367W        W37821  27.064  36.014   4.635
76368W        W37822  17.675  43.924   3.758
76369W        W37823   3.384   3.276  12.970
76370W        W37824  41.356  28.600  11.114
76371W        W37825  15.578   5.825  14.874
76372W        W37826   7.254  33.876   0.748
76373W        W37827  11.350  44.326   4.348
76374W        W37828  37.365  13.278   2.727
76375W        W37829   5.925  32.589   3.175
76376W        W37830   5.764  44.008   0.436
76377W        W37831  13.637   7.176   2.707
76378W        W37832  33.442  39.049  10.160
76379W        W37833  40.806  43.914  14.428
76380W        W37834  43.915  27.942  13.375
76381W        W37835   7.881   5.360  11.555
76382W        W37836   2.424  24.649   3.636
76383W        W37837  13.846   4.936  12.047
76384W        W37838  21.649  22.502   3.754
76385W        W37839  38.837  42.887   0.413
76386W        W37840  32.029  44.272   2.727
76387W        W37841  43.940  30.604   2.778
76388W        W37842  39.922  38.935   1.238
76389W        W37843  19.607  10.318  11.099
76390W        W37844  43.964  43.881  12.462
76391W        W37845  39.323  17.771   2.831
76392W        W37846  15.293  10.333  12.970
76393W        W37847  30.059  10.326  12.997
76394W        W37848  14.806  44.266  13.870
76395W        W37849  23.143   5.326  13.473
76396W        W37850  29.136  14.755  12.929
76397W        W37851  44.352  36.572  13.064
76398W        W37852  17.168  19.598  11.903
76399W        W37853  30.136  28.951   1.242
76400W        W37854  33.081  21.757   0.412
76401W        W37855  23.666  23.590   1.220
76402W        W37856  38.549  19.762   4.186
76403W        W37857  35.392  11.783   0.786
76404W        W37858  16.296  14.781   4.352
76405W        W37859   9.862  39.553  12.973
76406W        W37860  22.162  23.137   2.692
76407W        W37861  20.048   0.372  14.853
76408W        W37862  28.076   9.197   0.289
76409W        W37863   4.810  19.557  14.279
76410W        W37864  40.991  18.783   3.197
76411W        W37865   6.832  30.111   9.574
76412W        W37866  11.684  31.109   1.447
76413W        W37867  28.516  11.637  14.766
76414W        W37868  38.430  15.802   4.784
76415W        W37869  41.487  28.674  12.504
76416W        W37870  14.153  18.243   1.306
76417W        W37871  26.543  25.705  12.441
76418W        W37872  35.050  20.581  14.366
76419W        W37873   9.166   0.294  10.447
76420W        W37874  31.994  33.561   4.334
76421W        W37875  10.264  36.946  12.866
76422W        W37876  43.512   5.786   2.686
76423W        W37877   5.881  43.872   1.337
76424W        W37878  16.753  36.507   0.747
76425W        W37879  23.986  19.089  14.027
76426W        W37880   7.838   5.837  14.505
76427W        W37881  14.264  39.461   2.899
76428W        W37882  25.663  29.056   3.163
76429W        W37883  42.860   5.280  14.791
76430W        W37884  21.097  16.278   5.266
76431W        W37885  29.468  40.977   1.723
76432W        W37886  18.233  42.479  11.395
76433W        W37887  10.657  30.918  11.101
76434W        W37888   9.860  13.247  12.949
76435W        W37889  24.076  32.535   1.416
76436W        W37890  24.000  36.355   1.278
76437W        W37891  17.112  17.257   2.816
76438W        W37892  30.448   9.159   5.162
76439W        W37893  34.465   6.305   3.238
76440W        W37894   1.386  40.546   3.353
76441W        W37895  39.013   5.327   4.296
76442W        W37896   7.237  36.385   2.348
76443W        W37897  41.857  10.142   4.124
76444W        W37898   3.911  21.531  10.546
76445W        W37899  21.732  39.825   0.327
76446W        W37900  40.866   2.730   3.189
76447W        W37901  41.003   5.422   1.908
76448W        W37902  12.849  28.052   0.894
76449W        W37903  32.065  28.116  11.939
76450W        W37904   5.932  31.581   0.962
76451W        W37905  24.709   6.325  13.059
76452W        W37906  18.658  20.132   2.794
76453W        W37907  15.730  20.214  12.864
76454W        W37908   5.245  37.377   2.722
76455W        W37909   9.392  34.455  14.010
76456W        W37910  40.880  40.416  13.843
76457W        W37911  28.093   0.255   5.127
76458W        W37912  25.709  24.623   2.674
76459W        W37913  30.463  36.476   0.409
76460W        W37914  17.609  42.942  12.439
76461W        W37915  31.531  25.141   1.836
76462W        W37916  38.464   1.876   2.282
76463W        W37917  29.530  37.081  10.899
76464W        W37918  44.861  27.001   3.826
76465W        W37919  21.075  11.838   4.606
76466W        W37920  20.037  14.331  13.447
76467W        W37921  15.209  41.823  12.887
76468W        W37922   8.257  31.034  10.600
76469W        W37923   1.858   5.710   2.860
76470W        W37924   5.808  23.005   4.762
76471W        W37925   9.869  36.979  12.885
76472W        W37926  38.516   0.383  11.052
76473W        W37927  35.035  10.830  10.502
76474W        W37928  16.704   5.378  12.927
76475W        W37929   1.833  26.593  10.955
76476W        W37930  36.363   8.713  10.024
76477W        W37931  44.390  33.093  13.905
76478W        W37932   4.313   9.735  14.791
76479W        W37933  37.905  38.913  13.824
76480W        W37934  29.952  43.824   0.371
76481W        W37935   6.200  27.455   2.680
76482W        W37936  26.206  27.516   3.772
76483W        W37937  42.955  14.222  14.949
76484W        W37938  35.892   9.236  13.795
76485W        W37939  41.922  40.536   2.884
76486W        W37940  35.104  27.447   0.300
76487W        W37941  24.196  24.614  13.423
76488W        W37942  18.783  11.368   1.818
76489W        W37943  24.602   6.763  11.538
76490W        W37944  15.228   8.203   4.168
76491W        W37945  42.799  34.060  14.027
76492W        W37946   4.233  41.972  14.783
76493W        W37947  29.033  19.102  10.924
76494W        W37948   4.277  32.407  12.521
76495W        W37949   1.466   4.339   3.270
76496W        W37950  28.652  11.343  14.799
76497W        W37951  44.960  32.003  10.920
76498W        W37952  13.327  32.589   1.851
76499W        W37953  36.086  21.072   1.368
76500W        W37954  27.504  36.842  13.386
76501W        W37955  40.030  30.456  11.487
76502W        W37956  38.000  22.062  11.609
76503W        W37957  32.569   0.287   0.863
76504W        W37958  16.776   1.301   2.336
76505W        W37959   2.275  22.585   4.147
76506W        W37960  24.126  32.925  13.335
76507W        W37961  30.092  36.428   1.898
76508W        W37962  15.245  18.050  11.524
76509W        W37963  33.044  12.715  14.328
76510W        W37964  44.961  23.241   4.708
76511W        W37965  24.528  27.004  13.035
76512W        W37966  11.725  38.945   0.312
76513W        W37967   7.209  22.053   2.211
76514W        W37968   7.714  39.446  14.026
76515W        W37969   0.953  36.576  13.921
76516W        W37970   2.330   0.930   1.358
76517W        W37971  18.725  18.095   4.230
76518W        W37972  36.442  20.185   4.118
76519W        W37973  35.380  39.339  13.447
76520W        W37974   4.701  19.247  12.482
76521W        W37975  40.824   0.319   1.754
76522W        W37976  25.178  12.780  13.852
76523W        W37977  13.750  27.990  13.799
76524W        W37978  44.314  22.205   2.751
76525W        W37979  25.674   0.401   0.940
76526W        W37980  34.107  32.097  11.054
76527W        W37981  14.709  28.048  14.413
76528W        W37982  37.521   6.386  11.901
76529W        W37983  17.776  42.347  11.886
76530W        W37984  11.846  15.208  10.443
76531W        W37985  35.923  24.620   4.241
76532W        W37986   6.302  20.117  13.347
76533W        W37987   7.791  29.141   3.797
76534W        W37988  23.605   4.712  13.363
76535W        W37989   4.880  28.171  10.593
76536W        W37990   5.722  12.668   1.760
76537W        W37991  30.032   1.767   4.194
76538W        W37992  34.049  33.939   4.303
76539W        W37993  37.833  18.175  11.081
76540W        W37994   2.939  23.090   4.184
76541W        W37995  40.345  42.341   3.743
76542W        W37996  14.241  27.574  13.366
76543W        W37997  14.162  12.823   1.306
76544W        W37998   3.950  10.254   9.928
76545W        W37999  28.611   3.383   0.427
76546W        W38000  23.989  12.251   0.385
76547W        W38001  41.823  40.022   2.793
76548W        W38002  16.286  29.107   1.379
76549W        W38003  39.951  23.550   0.921
76550W        W38004  17.184   9.224  13.959
76551W        W38005  20.150   8.809  13.024
76552W        W38006  19.266  37.530  13.488
76553W        W38007  23.659  12.740  11.929
76554W        W38008  18.737  31.097  11.473
76555W        W38009   3.252  44.275   3.157
76556W        W38010  35.867  36.433   2.739
76557W        W38011   0.908  33.982  12.501
76558W        W38012  18.664  19.096   3.722
76559W        W38013   6.774   6.786  11.513
76560W        W38014  25.216  14.295  14.451
76561W        W38015  42.840   5.421  13.525
76562W        W38016  27.578  44.438   0.261
76563W        W38017  30.505  10.865  12.902
76564W        W38018  18.553  43.330  14.777
76565W        W38019   7.381  31.477  12.880
76566W        W38020  40.842   3.458   1.872
76567W        W38021  30.101   3.756  14.942
76568W        W38022  43.297  25.572  11.394
76569W        W38023  20.172  43.350   4.262
76570W        W38024   0.986  17.166  10.033
76571W        W38025  19.276  34.528  11.499
76572W        W38026  12.154  23.025  11.397
76573W        W38027  23.610   7.377  12.031
76574W        W38028  43.353  17.596  14.997
76575W        W38029  17.789  27.126  12.977
76576W        W38030   4.927   2.392   2.217
76577W        W38031  19.595  29.099   2.272
76578W        W38032  13.801  37.570  12.573
76579W        W38033  26.952  41.940  12.047
76580W        W38034  39.043   2.299   4.689
76581W        W38035  28.673  35.966  11.895
76582W        W38036   8.364  23.188  11.934
76583W        W38037   1.362   9.747  14.921
76584W        W38038  16.305   2.249   2.808
76585W        W38039  17.715  22.056   4.656
76586W        W38040   2.316  26.194   4.657
76587W        W38041  13.195  38.981   0.897
76588W        W38042  35.599  12.647   4.340
76589W        W38043  30.933  36.585  13.791
76590W        W38044  25.065   7.179   9.634
76591W        W38045   0.957  39.014   3.301
76592W        W38046  24.018  18.158  11.857
76593W        W38047  34.894  19.047  14.381
76594W        W38048   7.319  17.306  12.977
76595W        W38049  13.816  29.048   3.657
76596W        W38050   8.299   4.728  11.066
76597W        W38051  38.024   9.228   2.866
76598W        W38052  33.957  22.007  13.006
76599W        W38053   1.934  30.954   0.454
76600W        W38054  16.707   7.384   3.670
76601W        W38055  24.157  16.710  12.483
76602W        W38056  11.372  34.944  13.533
76603W        W38057  14.300   7.331  13.348
76604W        W38058  24.673  35.530  13.861
76605W        W38059  39.850  34.887   3.848
76606W        W38060  38.066  26.029   3.259
76607W        W38061  12.817  17.212  10.493
76608W        W38062  16.692  15.756   5.125
76609W        W38063  15.688  38.835   1.262
76610W        W38064   9.164  43.507  13.528
76611W        W38065  23.593   3.351   5.109
76612W        W38066  26.017   3.824   2.323
76613W        W38067  13.775  29.041   2.868
76614W        W38068   3.821  11.745  10.120
76615W        W38069  24.087  28.122  13.311
76616W        W38070  44.471  39.883  14.464
76617W        W38071   8.871   6.183   5.319
76618W        W38072   3.283  37.848   2.205
76619W        W38073  35.459  23.986   1.337
76620W        W38074   8.836  16.238   2.291
76621W        W38075   0.866  12.751   0.817
76622W        W38076   3.710  13.305  11.987
76623W        W38077   4.260  13.662  14.005
76624W        W38078  27.998  24.713   0.753
76625W        W38079  26.526  26.679   2.254
76626W        W38080   7.266  34.907   2.756
76627W        W38081  22.043  17.153   1.871
76628W        W38082   2.372  22.186   1.821
76629W        W38083   5.739  37.881  12.826
76630W        W38084   9.835   7.897   4.253
76631W        W38085   4.804  43.390  10.530
76632W        W38086   8.183  20.591   0.901
76633W        W38087  15.682  34.049   0.321
76634W        W38088  34.968  25.021   3.844
76635W        W38089  25.677  37.557   2.201
76636W        W38090  21.166  33.499  14.866
76637W        W38091   6.183  28.143  11.977
76638W        W38092   7.366   7.408   0.434
76639W        W38093  40.419  12.118  14.961
76640W        W38094  32.404  38.025  13.871
76641W        W38095  31.419   0.851  10.510
76642W        W38096   5.373  40.944   0.753
76643W        W38097  32.465  12.232   5.778
76644W        W38098  15.602  32.479  11.602
76645W        W38099  32.522   0.445  14.295
76646W        W38100  11.212  22.647   3.643
76647W        W38101  26.997  37.996   1.285
76648W        W38102  14.642   1.432  10.611
76649W        W38103  30.976  36.971  14.406
76650W        W38104  16.670   3.778  11.500
76651W        W38105   0.811  33.960  13.794
76652W        W38106  44.474  13.256   3.327
76653W        W38107  43.403   2.841  13.408
76654W        W38108  30.063  41.359   0.858
76655W        W38109  42.488  22.090  11.887
76656W        W38110  19.080  42.915   0.358
76657W        W38111  18.137   4.366  10.530
76658W        W38112  12.855  22.178  10.037
76659W        W38113   8.799  20.262   2.355
76660W        W38114   5.717   8.676  14.466
76661W        W38115   0.827   1.266   3.328
76662W        W38116  32.629  14.134  14.810
76663W        W38117  25.188  36.884   2.394
76664W        W38118  39.364   4.345   0.342
76665W        W38119  36.912  43.367  11.450
76666W        W38120  41.479  22.143   3.700
76667W        W38121   1.433  13.279  12.060
76668W        W38122  10.791   0.297   1.296
76669W        W38123  36.563  23.613  13.986
76670W        W38124  38.546  32.132   3.193
76671W        W38125   9.381  26.015   3.262
76672W        W38126  31.600  36.566  10.992
76673W        W38127  28.080  37.997  13.325
76674W        W38128  42.923   6.197  11.499
76675W        W38129  17.144  37.942  13.343
76676W        W38130   6.718  29.064  11.949
76677W        W38131   6.916  15.325  13.534
76678W        W38132  23.734  21.642  11.022
76679W        W38133  14.179  42.810  14.866
76680W        W38134   4.877  10.319  10.591
76681W        W38135  44.007  33.001   3.848
76682W        W38136  29.479  10.848   1.436
76683W        W38137   0.353  18.554  12.823
76684W        W38138  20.595  36.033  13.473
76685W        W38139  23.618  40.411  14.326
76686W        W38140  15.166  26.010  13.860
76687W        W38141  38.337  26.131  13.412
76688W        W38142   2.786  39.018  14.958
76689W        W38143  24.553  44.265   3.339
76690W        W38144  16.142  37.939  13.361
76691W        W38145  42.505  34.075  12.067
76692W        W38146  15.812   4.450   0.308
76693W        W38147  43.402  31.403  13.000
76694W        W38148  40.036  11.327   1.223
76695W        W38149  31.538  33.392   0.803
76696W        W38150  29.058   5.212   4.820
76697W        W38151  23.148  38.027  10.534
76698W        W38152  42.383   7.226  11.073
76699W        W38153  42.411   6.248   3.294
76700W        W38154  13.145  14.640  10.048
76701W        W38155   3.267  38.561   0.380
76702W        W38156  26.102  19.662   0.387
76703W        W38157  23.689   3.739  11.393
76704W        W38158  20.697  10.270  12.566
76705W        W38159   5.851   3.893  14.820
76706W        W38160  32.064  10.700  13.006
76707W        W38161  25.177  39.887   0.257
76708W        W38162   5.920  32.129   0.897
76709W        W38163   3.248  16.654  14.308
76710W        W38164  16.237  12.646  11.067
76711W        W38165   3.815  20.739   1.866
76712W        W38166  18.276   1.373  12.011
76713W        W38167  16.285  18.772  14.871
76714W        W38168  17.647  39.474  14.277
76715W        W38169  26.047  41.307  14.466
76716W        W38170  31.099  16.109  14.995
76717W        W38171  40.030   2.316  12.996
76718W        W38172  18.627  32.996  14.487
76719W        W38173  29.606  35.853   4.137
76720W        W38174  43.888   5.255   4.130
76721W        W38175  33.944  27.641   1.327
76722W        W38176  36.397  17.784   1.251
76723W        W38177  25.990  44.946   3.863
76724W        W38178  13.175  34.494  11.917
76725W        W38179  42.031   9.210  14.283
76726W        W38180  39.921  32.989  13.826
76727W        W38181   6.794   8.281   4.303
76728W        W38182   5.802  25.051  11.000
76729W        W38183  28.632   6.245  12.875
76730W        W38184  37.860   5.854   4.761
76731W        W38185   8.184  37.026   2.189
76732W        W38186   9.874  36.502   0.283
76733W        W38187  27.111  25.620   2.201
76734W        W38188  32.438  11.838   1.819
76735W        W38189  29.100  41.363  14.999
76736W        W38190  30.644  36.515   1.298
76737W        W38191  41.518   9.343  13.443
76738W        W38192  39.513   7.747  11.935
76739W        W38193  18.657  41.993   4.261
76740W        W38194  11.867  34.528  10.593
76741W        W38195  40.892  32.504  12.882
76742W        W38196  14.102  27.015  12.840
76743W        W38197  41.901   7.261   5.108
76744W        W38198   9.181  31.996   3.738
76745W        W38199  21.176   7.825   2.244
76746W        W38200  12.288  35.542  11.556
76747W        W38201   5.347  18.617  11.987
76748W        W38202  33.508  34.543   3.684
76749W        W38203   6.680  33.090   4.311
76750W        W38204  17.673  13.707  11.965
76751W        W38205   8.813  30.031   0.320
76752W        W38206   3.935  34.113   0.469
76753W        W38207  17.738   4.801  13.000
76754W        W38208  31.967  37.894   0.771
76755W        W38209  13.614   8.666   0.478
76756W        W38210  27.468  26.636  13.853
76757W        W38211  22.660  10.351   1.709
76758W        W38212   5.336  20.228  12.530
76759W        W38213  38.968   1.352   3.754
76760W        W38214  24.020   7.904   2.316
76761W        W38215   0.482   0.892  12.550
76762W        W38216  24.059  37.538  12.988
76763W        W38217   1.325  41.966   0.917
76764W        W38218  18.611   6.852  14.958
76765W        W38219  31.122  35.999   1.869
76766W        W38220  30.160  33.466  13.794
76767W        W38221  44.291  39.405  10.940
76768W        W38222  41.315   3.415  12.009
76769W        W38223  41.366  11.354  13.037
76770W        W38224  15.734  26.457   2.289
76771W        W38225   4.921  11.371  10.093
76772W        W38226  39.907  37.445  12.895
76773W        W38227  37.558  30.032   4.258
76774W        W38228  29.549  43.919   3.775
76775W        W38229  40.470  17.600  12.892
76776W        W38230  18.672  25.009  12.869
76777W        W38231  37.554  23.565  10.895
76778W        W38232  23.646  13.221  11.929
76779W        W38233  15.254  12.128  13.319
76780W        W38234  26.650  17.764  14.961
76781W        W38235  32.105  42.854   0.300
76782W        W38236  33.875  28.042   2.807
76783W        W38237  19.209  37.370   0.805
76784W        W38238  19.654  10.228   1.749
76785W        W38239  37.865  39.413   1.318
76786W        W38240  41.028  20.562   4.629
76787W        W38241  42.899  35.997   1.409
76788W        W38242  26.667  17.590   0.922
76789W        W38243  17.734  25.604   0.288
76790W        W38244   2.874  16.675  12.994
76791W        W38245  22.213  32.054   2.676
76792W        W38246  29.485  31.121  12.095
76793W        W38247  19.673  24.128   3.177
76794W        W38248  15.276  13.157   5.211
76795W        W38249   0.362  38.514  10.987
76796W        W38250   8.870   0.887  11.495
76797W        W38251  35.905  10.827  12.948
76798W        W38252  19.709   4.243  12.388
76799W        W38253  27.054   9.878  10.405
76800W        W38254  30.450   6.387  14.846
76801W        W38255  33.431   2.432   4.838
76802W        W38256  15.206  34.406   1.751
76803W        W38257  20.230   8.899  12.369
76804W        W38258   8.866  28.951  11.054
76805W        W38259  41.800  37.576   3.318
76806W        W38260  24.032  44.361   3.736
76807W        W38261   0.409  14.758   3.726
76808W        W38262  20.217  42.459  11.422
76809W        W38263   4.866  36.072  12.926
76810W        W38264   0.955   9.657   0.895
76811W        W38265  35.013  17.267   1.293
76812W        W38266  17.635   6.269   0.957
76813W        W38267  17.574  20.737  11.488
76814W        W38268  41.872  44.496  12.834
76815W        W38269   8.351  40.509  12.477
76816W        W38270  41.929  29.546   1.742
76817W        W38271  20.562  27.059   4.338
76818W        W38272  28.978  14.150   3.781
76819W        W38273   4.224  27.189   4.163
76820W        W38274  27.467  30.925   4.618
76821W        W38275  23.107  15.646   4.601
76822W        W38276  21.540  30.601  10.525
76823W        W38277  16.297  19.776  13.377
76824W        W38278  35.013  27.137  13.021
76825W        W38279  32.400  33.062   4.707
76826W        W38280  35.569   4.352  11.563
76827W        W38281  38.041   6.819   0.885
76828W        W38282  19.278  26.171  11.082
76829W        W38283  13.817  41.528   3.234
76830W        W38284  40.387  27.514  10.923
76831W        W38285  43.514  12.810  13.535
76832W        W38286  22.551  19.678   4.770
76833W        W38287  33.540  19.661   0.423
76834W        W38288  39.446  18.106  12.995
76835W        W38289  16.625  41.797  12.399
76836W        W38290  36.510  31.898   0.313
76837W        W38291   6.737   7.828  14.957
76838W        W38292  34.391  26.508   1.747
76839W        W38293  14.706  15.313  12.073
76840W        W38294  31.053  34.389   5.238
76841W        W38295  24.644  29.967   2.877
76842W        W38296  17.748  13.819  14.856
76843W        W38297  43.800  24.588  11.051
76844W        W38298  11.236  12.362  11.869
76845W        W38299  24.100  37.920   1.247
76846W        W38300  39.357  31.132   3.369
76847W        W38301   4.217   2.467  13.462
76848W        W38302  40.314  33.613   4.258
76849W        W38303  10.635  43.415  12.955
76850W        W38304   5.892  24.120  11.939
76851W        W38305  29.620  35.917  13.368
76852W        W38306  26.528  13.752   0.766
76853W        W38307  34.515   6.339   2.403
76854W        W38308  40.403  34.563   0.263
76855W        W38309  31.424  22.587  12.998
76856W        W38310  16.710   2.738  12.863
76857W        W38311  15.761  26.002   0.396
76858W        W38312  27.544   6.715  14.022
76859W        W38313  22.018  33.592   2.402
76860W        W38314  40.533   5.236  10.565
76861W        W38315  25.686  31.140  14.836
76862W        W38316  22.046  21.650  14.515
76863W        W38317   7.831   6.405  14.366
76864W        W38318  39.883   7.341  11.128
76865W        W38319  14.310  30.059  10.425
76866W        W38320  19.614  39.928  12.580
76867W        W38321  16.293   1.300   2.287
76868W        W38322  17.182  11.798   0.399
76869W        W38323  24.691  22.015  13.454
76870W        W38324  11.654   1.447  12.994
76871W        W38325  38.327   4.392  13.869
76872W        W38326  19.201  19.094   2.231
76873W        W38327  35.532  27.675   0.422
76874W        W38328  36.378  42.320  14.496
76875W        W38329  25.635  35.564  13.384
76876W        W38330   4.331   3.717   1.424
76877W        W38331  14.100  12.680  13.532
76878W        W38332  36.076   1.875   1.761
76879W        W38333  11.184  30.090  12.928
76880W        W38334  29.978  24.160   0.469
76881W        W38335  17.302  13.621  14.874
76882W        W38336  13.298   6.348   1.337
76883W        W38337   0.923  38.073   4.184
76884W        W38338   2.350  14.596   2.825
76885W        W38339  33.070  14.706  13.330
76886W        W38340  25.193  13.822   0.482
76887W        W38341  29.036   2.727  12.856
76888W        W38342   1.913  27.943   3.662
76889W        W38343  38.571   6.335  10.585
76890W        W38344  24.191  38.848  10.002
76891W        W38345   4.759   7.827  12.416
76892W        W38346  31.566  28.006   1.296
76893W        W38347   2.259  14.207   1.876
76894W        W38348  38.436  15.258  11.371
76895W        W38349  23.236  28.506   1.774
76896W        W38350  40.047  17.596  11.046
76897W        W38351  18.160  44.418   2.780
76898W        W38352  25.613   8.264  14.369
76899W        W38353  35.358  21.587  13.006
76900W        W38354  41.457  30.414   3.646
76901W        W38355  24.095  26.179   2.321
76902W        W38356   5.842  22.036   1.777
76903W        W38357  13.141  26.161  11.437
76904W        W38358  27.479  37.374  11.116
76905W        W38359  19.549  25.114   2.820
76906W        W38360  19.604  40.006  12.896
76907W        W38361   4.767  14.589  13.522
76908W        W38362  22.048  16.180  11.863
76909W        W38363  22.225  40.804   0.249
76910W        W38364  36.997   0.819   2.342
76911W        W38365  24.613   1.856  11.938
76912W        W38366  36.990  22.727  10.997
76913W        W38367  43.414  16.749  14.780
76914W        W38368   6.330  35.548   4.142
76915W        W38369  39.916  12.155   3.268
76916W        W38370  27.140  33.036  11.901
76917W        W38371  11.166  15.605  11.453
76918W        W38372  30.069   5.425  14.494
76919W        W38373   5.700   2.265   3.854
76920W        W38374  28.059   3.716  12.432
76921W        W38375  31.143  43.483  11.526
76922W        W38376  10.375  37.398   0.783
76923W        W38377  21.053  18.122  13.974
76924W        W38378  19.622  29.598  11.076
76925W        W38379  23.534   4.770  13.050
76926W        W38380  23.624  22.583   2.725
76927W        W38381  13.322  16.188  12.863
76928W        W38382  16.157  22.660   2.337
76929W        W38383  19.176  11.346   3.865
76930W        W38384  18.279   5.407  11.376
76931W        W38385  23.083  20.151   3.796
76932W        W38386  28.438  27.478   2.741
76933W        W38387   6.195  17.266   3.682
76934W        W38388  30.111  26.083  13.014
76935W        W38389  25.969  35.894   2.347
76936W        W38390  29.635  39.437   1.760
76937W        W38391   4.849   4.300   2.848
76938W        W38392   3.902   1.426   2.802
76939W        W38393   7.380  32.570   1.377
76940W        W38394  13.228  16.110  10.914
76941W        W38395  39.988   9.766  11.999
76942W        W38396   5.415   8.215   2.335
76943W        W38397  42.342  33.582  10.928
76944W        W38398  32.970  34.920   3.302
76945W        W38399  29.453   8.886  14.879
76946W        W38400  26.558   2.889  13.385
76947W        W38401   4.742  35.868  10.061
76948W        W38402  40.942  36.897  14.785
76949W        W38403   3.312  24.551  13.012
76950W        W38404  17.177   4.437  13.841
76951W        W38405  34.952  24.532  10.455
76952W        W38406  23.662  27.941   3.356
76953W        W38407   3.433  29.446  10.476
76954W        W38408  27.062  21.200  12.983
76955W        W38409  43.273  43.945   3.292
76956W        W38410  33.597  11.130   1.927
76957W        W38411  38.331  37.475  13.972
76958W        W38412  23.995  28.116  10.928
76959W        W38413  26.017  16.792   2.762
76960W        W38414  37.013  23.598   1.406
76961W        W38415  27.090   0.853   3.187
76962W        W38416  14.777  40.820  13.379
76963W        W38417  26.495  43.992   2.669
76964W        W38418  30.431  10.164   1.929
76965W        W38419  33.115  33.129   1.811
76966W        W38420  11.224  13.813  12.558
76967W        W38421  17.730   5.740   3.303
76968W        W38422  23.069  32.050   2.351
76969W        W38423  29.479   2.836   1.777
76970W        W38424  16.095   0.365  11.016
76971W        W38425  35.484  27.508  10.996
76972W        W38426  12.632  29.016   0.292
76973W        W38427   8.241  14.709  12.449
76974W        W38428  41.523  11.824  11.541
76975W        W38429  21.257   9.676  13.519
76976W        W38430  33.601  19.760   3.355
76977W        W38431  28.152  38.504   0.892
76978W        W38432  36.529  37.575   3.253
76979W        W38433  33.494  33.910   2.256
76980W        W38434   8.324  18.089  14.844
76981W        W38435  27.055  44.502   1.821
76982W        W38436  44.394  27.691   1.727
76983W        W38437  28.083  15.296   0.372
76984W        W38438   0.810  41.535  13.383
76985W        W38439  14.318  42.313   2.266
76986W        W38440   3.866   8.404  12.916
76987W        W38441  13.166  21.260  12.878
76988W        W38442  15.759  26.633   4.229
76989W        W38443  30.147   2.347   4.312
76990W        W38444  38.339  39.889  13.943
76991W        W38445  17.156  15.089  13.399
76992W        W38446   2.783  18.550   4.613
76993W        W38447  12.823   6.289  10.976
76994W        W38448  14.204   1.297  13.432
76995W        W38449  37.568  24.641   4.618
76996W        W38450  11.740  36.425  14.008
76997W        W38451  43.897  26.063  13.013
76998W        W38452  21.522  44.445  11.881
76999W        W38453  18.248   3.754  12.361
77000W        W38454  33.419  23.142  10.425
77001W        W38455   0.867  27.069  11.880
77002W        W38456  35.591  22.023  12.941
77003W        W38457  23.533  17.657  12.494
77004W        W38458  14.226  24.614   3.645
77005W        W38459  41.829  30.033   1.286
77006W        W38460  25.034   4.251   1.891
77007W        W38461  27.573  22.208  13.476
77008W        W38462  21.702  21.225  13.439
77009W        W38463  36.935  36.575  11.128
77010W        W38464  39.452  29.984   0.345
77011W        W38465   4.268   9.813   2.334
77012W        W38466  35.874  36.430  14.959
77013W        W38467  20.198  39.939   0.396
77014W        W38468  29.637   1.241   2.315
77015W        W38469  14.274  20.241  12.422
77016W        W38470  29.952   2.883  12.074
77017W        W38471  38.066  38.860   2.335
77018W        W38472  44.331  27.073  11.055
77019W        W38473  14.732  34.106   3.257
77020W        W38474  11.234  13.178  11.070
77021W        W38475  16.228  23.666  13.437
77022W        W38476  15.128  16.110   5.788
77023W        W38477  33.975  14.739  10.600
77024W        W38478   5.380   6.752   0.892
77025W        W38479   0.903  26.669  12.860
77026W        W38480   0.381  22.072  13.052
77027W        W38481   3.812  13.650   0.376
77028W        W38482  10.774  10.151  12.936
77029W        W38483  30.154  41.909  12.541
77030W        W38484  43.979  34.498  10.624
77031W        W38485  24.162  18.722   5.100
77032W        W38486   9.342  14.245  14.912
77033W        W38487   2.460  35.384  12.516
77034W        W38488   9.223   0.436   1.789
77035W        W38489  38.516  10.222   0.380
77036W        W38490   5.396   0.914  10.509
77037W        W38491  27.184  23.585  12.374
77038W        W38492  10.343  20.722  10.995
77039W        W38493  15.794   9.281  14.511
77040W        W38494  20.611   7.351   5.598
77041W        W38495  24.501   9.679   1.320
77042W        W38496  23.131  14.230  11.892
77043W        W38497  18.682  36.548   4.623
77044W        W38498  18.283  35.419  10.635
77045W        W38499  37.382  11.165   3.667
77046W        W38500  28.042  21.239  12.853
77047W        W38501  37.855  17.276  11.486
77048W        W38502  37.840  39.919  13.420
77049W        W38503  22.642  31.100   2.193
77050W        W38504  38.454  29.104   3.378
77051W        W38505  15.703  17.740   2.403
77052W        W38506  34.585  40.505  11.047
77053W        W38507  27.447  31.102  11.519
77054W        W38508  31.983  29.429  14.796
77055W        W38509   1.324  25.578  10.458
77056W        W38510  30.631  43.437   0.299
77057W        W38511   0.320  39.316  10.906
77058W        W38512  27.174  19.692  11.448
77059W        W38513  23.576  18.237   3.831
77060W        W38514  31.137   1.931   3.344
77061W        W38515  12.674   6.692  12.999
77062W        W38516  41.493  11.756   0.412
77063W        W38517  21.602  28.660   0.931
77064W        W38518  13.248  14.319   0.327
77065W        W38519  12.754   8.696   2.779
77066W        W38520  15.313  28.931   2.206
77067W        W38521  41.926  26.065   0.810
77068W        W38522  27.986  34.091   2.198
77069W        W38523  37.841   5.399  11.464
77070W        W38524  18.561  18.185  13.438
77071W        W38525   9.753   4.361   2.402
77072W        W38526  16.269  21.581  13.057
77073W        W38527  39.050  27.954  12.390
77074W        W38528  25.074  34.006   2.221
77075W        W38529  16.093  25.992   1.262
77076W        W38530  33.005  22.672   0.412
77077W        W38531  16.809  28.637   0.951
77078W        W38532   3.912  37.999   4.276
77079W        W38533  33.001  43.355   0.907
77080W        W38534  14.834   6.732  12.368
77081W        W38535  38.370  12.135  13.531
77082W        W38536  10.872  27.635  13.440
77083W        W38537  36.564   4.896  11.855
77084W        W38538  38.357  43.945   9.963
77085W        W38539  26.178  21.741   9.617
77086W        W38540  41.041  23.133   0.958
77087W        W38541  32.472  31.921  11.083
77088W        W38542  24.534   9.331   2.403
77089W        W38543   3.232   0.837  12.091
77090W        W38544  10.843   5.333   2.696
77091W        W38545  27.614  18.264   1.422
77092W        W38546  42.030  13.134  11.603
77093W        W38547   9.196  29.658   3.210
77094W        W38548  13.609  26.124  14.398
77095W        W38549  13.711  11.691  10.573
77096W        W38550  39.058  38.005  14.976
77097W        W38551  21.021   0.290  10.441
77098W        W38552   3.395  10.145  10.456
77099W        W38553  11.634  25.651  10.635
77100W        W38554  11.359  40.007   3.349
77101W        W38555  30.434  31.130   3.374
77102W        W38556  10.734   7.675  11.072
77103W        W38557  18.687   8.754   1.893
77104W        W38558  41.954  25.059  10.562
77105W        W38559  30.942  38.023  13.055
77106W        W38560  30.564  18.261  11.555
77107W        W38561  41.347   9.170   1.912
77108W        W38562  22.228  29.662   1.695
77109W        W38563   8.389  35.023  11.530
77110W        W38564  13.349  14.704  11.024
77111W        W38565  34.103  34.978   4.768
77112W        W38566   7.755  14.137   1.398
77113W        W38567  26.987   6.315   0.789
77114W        W38568  31.587  14.159   1.719
77115W        W38569  13.324  33.496  14.356
77116W        W38570  12.157  36.968   2.403
77117W        W38571  31.995  37.501   5.281
77118W        W38572  41.795  10.717  10.479
77119W        W38573  11.171   0.789   4.736
77120W        W38574  42.875  40.494  12.843
77121W        W38575   8.218  37.997   4.334
77122W        W38576  35.989  14.609  11.562
77123W        W38577   2.416  41.862  13.882
77124W        W38578  11.727   2.934   0.378
77125W        W38579  19.672   0.329   2.782
77126W        W38580  40.902  27.006   3.716
77127W        W38581   4.920  29.449   1.766
77128W        W38582  16.198  15.793  14.370
77129W        W38583  23.728  39.513   3.713
77130W        W38584  13.750  26.979  11.583
77131W        W38585   8.888  40.357   4.310
77132W        W38586  34.493  26.541   1.408
77133W        W38587  15.247  29.534   1.817
77134W        W38588  40.022   0.968   2.843
77135W        W38589  30.973  35.482   0.406
77136W        W38590  26.102  38.993   3.333
77137W        W38591  18.698   9.772   3.219
77138W        W38592  24.555  32.565   1.304
77139W        W38593  43.901  18.721   2.242
77140W        W38594  33.889   8.288   4.273
77141W        W38595   4.885  19.218   0.775
77142W        W38596  23.192  34.084   3.299
77143W        W38597  25.468  18.274  12.451
77144W        W38598  31.152  44.853  13.484
77145W        W38599   8.731  12.256   3.637
77146W        W38600  33.624   3.343   4.597
77147W        W38601   0.910  25.086  10.001
77148W        W38602  28.532  36.386   3.339
77149W        W38603  37.014  22.641  12.937
77150W        W38604  22.672   7.370  12.867
77151W        W38605   4.797  20.655  10.601
77152W        W38606  31.128   0.360   0.254
77153W        W38607  23.676  41.520   0.927
77154W        W38608  43.984   6.904  13.328
77155W        W38609  27.195   0.344   1.238
77156W        W38610   9.201  20.225  14.431
77157W        W38611  43.841  22.655  12.032
77158W        W38612   5.395   6.692  13.380
77159W        W38613  23.496  11.372   1.913
77160W        W38614  35.475  30.966   1.742
77161W        W38615  22.022  32.038   3.713
77162W        W38616   0.286  13.161  11.519
77163W        W38617  22.674  21.247   1.709
77164W        W38618   8.654  30.001  14.489
77165W        W38619  43.440  10.777  13.507
77166W        W38620  39.454  15.197   4.718
77167W        W38621  35.559  39.828   5.719
77168W        W38622  23.131   1.263  12.034
77169W        W38623  25.580  34.922  14.842
77170W        W38624  30.950  42.297  14.288
77171W        W38625  39.403  32.937   4.341
77172W        W38626  39.003  26.068  11.561
77173W        W38627  37.057  11.645  12.507
77174W        W38628  20.525  40.872   1.850
77175W        W38629  20.172  26.146   4.319
77176W        W38630  33.450  18.115   2.298
77177W        W38631  42.468  35.455   4.322
77178W        W38632  16.238  12.697   0.366
77179W        W38633   8.351  43.014  13.510
77180W        W38634   9.807   0.792   0.777
77181W        W38635  44.444  44.387   4.715
77182W        W38636  14.659  17.680  13.886
77183W        W38637  37.944  17.768  13.051
77184W        W38638  27.976  16.639  10.449
77185W        W38639  16.797  21.139   3.194
77186W        W38640   7.234  29.630   2.318
77187W        W38641  18.738  11.245   0.791
77188W        W38642  27.087  35.425   3.691
77189W        W38643  17.720  40.902   1.341
77190W        W38644   6.289  40.959  12.058
77191W        W38645  13.340  29.175   2.227
77192W        W38646   9.212   9.283   4.609
77193W        W38647  13.316  36.422  12.489
77194W        W38648  10.263   2.776  12.573
77195W        W38649  32.989  27.641   0.727
77196W        W38650  26.178  39.479   0.276
77197W        W38651  11.854  30.527   2.253
77198W        W38652   1.314   8.728  12.082
77199W        W38653   0.958   3.821   1.889
77200W        W38654  18.630   8.817   4.326
77201W        W38655  21.209   8.178  14.406
77202W        W38656   4.792   5.276   3.828
77203W        W38657  34.996   7.363  12.014
77204W        W38658  42.953  44.915   4.241
77205W        W38659   7.386  38.452   3.328
77206W        W38660   7.675  10.835  12.481
77207W        W38661  10.761  14.167  12.063
77208W        W38662   4.362  13.334  12.493
77209W        W38663  44.824   9.780   0.279
77210W        W38664  28.670  29.566   0.268
77211W        W38665  18.683  27.993  11.041
77212W        W38666  41.852  32.618   4.632
77213W        W38667  24.022  38.496  11.899
77214W        W38668  24.976  25.015   3.780
77215W        W38669   1.801   0.922   1.859
77216W        W38670  24.701  13.659   2.695
77217W        W38671   6.881  21.619   0.863
77218W        W38672  22.508   7.686  12.066
77219W        W38673  27.581  35.053   4.781
77220W        W38674  22.006  12.162   3.206
77221W        W38675  39.895  14.190   0.244
77222W        W38676   3.296  34.013   0.960
77223W        W38677   7.214  43.883   1.396
77224W        W38678  35.068  21.027  13.835
77225W        W38679  12.648  13.667   3.747
77226W        W38680  13.616  12.669  11.912
77227W        W38681  23.009  14.714   1.857
77228W        W38682  33.605  20.742  14.284
77229W        W38683  38.385   8.211  11.881
77230W        W38684   5.206  40.848  14.279
77231W        W38685  38.536  23.062   1.444
77232W        W38686  25.171  24.023   3.659
77233W        W38687   7.851  31.519   1.243
77234W        W38688   4.389  22.197   2.892
77235W        W38689  36.033  35.424   2.755
77236W        W38690   8.683  36.967   2.266
77237W        W38691   7.357  15.789   1.387
77238W        W38692  17.675  42.324   4.280
77239W        W38693   1.266  42.443  13.392
77240W        W38694  32.974  24.053   3.667
77241W        W38695   2.784  20.560   1.337
77242W        W38696  31.024  34.504   2.815
77243W        W38697  28.592  21.514   1.830
77244W        W38698  24.568   4.276   4.188
77245W        W38699  11.639  38.862  12.057
77246W        W38700  28.934  36.491  14.367
77247W        W38701  29.433  38.434  10.594
77248W        W38702  32.510  20.037  11.108
77249W        W38703  36.852   7.281   3.821
77250W        W38704   0.950   7.909   0.281
77251W        W38705  10.653  16.733   4.182
77252W        W38706   9.656   1.951  13.440
77253W        W38707  30.451  25.993  13.015
77254W        W38708  17.219  17.169   4.752
77255W        W38709  21.609   2.869   0.307
77256W        W38710  19.262  20.275   1.339
77257W        W38711  17.739  29.647  13.928
77258W        W38712  14.648   8.714  12.570
77259W        W38713  17.738  42.306   1.416
77260W        W38714  34.058  38.823  11.585
77261W        W38715  15.700  22.518  13.354
77262W        W38716  17.203  26.049   2.667
77263W        W38717  26.202  37.542   0.803
77264W        W38718  18.645  25.026  10.928
77265W        W38719  31.614  23.106  13.472
77266W        W38720  21.110  24.064   1.369
77267W        W38721  43.767  44.460   1.422
77268W        W38722  32.095  26.550  13.548
77269W        W38723  18.098  44.789   4.188
77270W        W38724  17.603  40.480  10.541
77271W        W38725   4.421   8.208  12.495
77272W        W38726  31.518   7.717   2.806
77273W        W38727  32.006  18.581  13.980
77274W        W38728  13.651  25.128   2.852
77275W        W38729  12.732  21.240  14.877
77276W        W38730  11.157   0.405   3.330
77277W        W38731  37.374  34.545  14.902
77278W        W38732  32.611  26.954   1.909
77279W        W38733   6.736   4.309   1.307
77280W        W38734  36.588   5.931  11.121
77281W        W38735   2.304   5.923   2.407
77282W        W38736  28.063  35.449  12.872
77283W        W38737   4.749   0.884  12.448
77284W        W38738   4.736  19.777  10.969
77285W        W38739  25.533  40.000   2.743
77286W        W38740   5.711  17.136   3.308
77287W        W38741  44.966  40.541   0.277
77288W        W38742   5.296   2.841   2.706
77289W        W38743  23.599   8.239  12.928
77290W        W38744  11.137  22.146   2.810
77291W        W38745  28.629  36.566   0.442
77292W        W38746   9.261  22.053  13.870
77293W        W38747  20.064  22.020   1.341
77294W        W38748  36.037  15.672  14.323
77295W        W38749  22.119  10.721  14.328
77296W        W38750  13.846  13.319  11.053
77297W        W38751  10.644  27.036  12.982
77298W        W38752  14.212  22.052   0.345
77299W        W38753  13.324   5.886   4.609
77300W        W38754  13.205  42.305  12.505
77301W        W38755  14.254  16.567  11.877
77302W        W38756  44.949  34.072   4.768
77303W        W38757  40.869  12.170   4.715
77304W        W38758   3.712  32.445   4.311
77305W        W38759  36.971  27.108   2.299
77306W        W38760  25.522  37.393  11.875
77307W        W38761  35.896  39.447  14.375
77308W        W38762  16.123  30.629  14.320
77309W        W38763  25.018  26.523  11.955
77310W        W38764   9.818  17.651   2.416
77311W        W38765   2.937  10.715  13.420
77312W        W38766   4.434  28.502   2.801
77313W        W38767  34.528  24.594   1.443
77314W        W38768  20.076  33.566   2.800
77315W        W38769  14.124  20.095  13.901
77316W        W38770  12.282  17.652  13.533
77317W        W38771  42.968  33.558   5.313
77318W        W38772  41.950   7.267  14.432
77319W        W38773  18.714  19.216   0.923
77320W        W38774  31.496  30.636  12.543
77321W        W38775  43.357  10.145  14.334
77322W        W38776  28.599  27.479  13.401
77323W        W38777  40.872  17.198  13.836
77324W        W38778   8.700   1.409  11.109
77325W        W38779   7.378  18.128  12.980
77326W        W38780  43.481  24.539   2.681
77327W        W38781  44.365  34.979   3.809
77328W        W38782   5.305  23.708  11.381
77329W        W38783   9.691  17.291   1.234
77330W        W38784  29.601   1.883  13.398
77331W        W38785  17.766  15.129  11.116
77332W        W38786  33.010  42.017   0.425
77333W        W38787  15.260  18.668  11.857
77334W        W38788  11.339  37.432  11.062
77335W        W38789   1.470  17.204  10.617
77336W        W38790  17.112  40.480  14.829
77337W        W38791  40.000  25.494   1.746
77338W        W38792  32.947  32.407  10.482
77339W        W38793  27.608  18.254   3.821
77340W        W38794  38.359  35.935  14.913
77341W        W38795   8.406  14.669   4.764
77342W        W38796  32.942  24.674   3.354
77343W        W38797  41.913   4.436  12.944
77344W        W38798  33.451   3.438  13.055
77345W        W38799   2.233  25.608   1.240
77346W        W38800  31.000  15.322  10.139
77347W        W38801  44.994  25.095   4.808
77348W        W38802  18.630  36.545  14.409
77349W        W38803  20.185   9.798   4.232
77350W        W38804  19.693  14.731   3.867
77351W        W38805  23.513  26.992  12.469
77352W        W38806  33.877  29.530  12.065
77353W        W38807  43.515  16.637  11.897
77354W        W38808  19.265  38.432   4.274
77355W        W38809  18.643  42.866  12.570
77356W        W38810  15.768  28.104  13.352
77357W        W38811  13.635   1.839  14.008
77358W        W38812  17.590  24.570  11.975
77359W        W38813  12.346  28.169   2.239
77360W        W38814   0.429  31.030  13.912
77361W        W38815  30.590  19.189   0.464
77362W        W38816  19.151  18.232   4.156
77363W        W38817  18.197  37.875   0.800
77364W        W38818  43.895  35.952   2.377
77365W        W38819  44.007   9.247  12.836
77366W        W38820  17.707  27.552  11.520
77367W        W38821  33.482  35.861   2.319
77368W        W38822  10.197  17.706  10.546
77369W        W38823  40.989  27.151   2.824
77370W        W38824  39.416  15.685  14.966
77371W        W38825  13.311  15.306   3.754
77372W        W38826  23.561  14.177   4.180
77373W        W38827   9.303  40.426  14.904
77374W        W38828   5.242  18.209  11.860
77375W        W38829  41.799  26.009  12.827
77376W        W38830  24.181  14.763   0.410
77377W        W38831   6.897   8.336   0.738
77378W        W38832  31.046   5.224  11.958
77379W        W38833  12.170  17.088  13.997
77380W        W38834  43.423  35.964   3.760
77381W        W38835   9.209  35.924  10.510
77382W        W38836  32.500  39.845   0.847
77383W        W38837  34.502   5.803   1.273
77384W        W38838  17.230   1.968  14.327
77385W        W38839  20.722  34.003   1.356
77386W        W38840  30.437   5.814   4.131
77387W        W38841   2.763   6.236  10.920
77388W        W38842   8.841  33.477   2.389
77389W        W38843  42.430   3.354   1.318
77390W        W38844  30.931   0.269  14.942
77391W        W38845  40.465  43.393   2.782
77392W        W38846  13.349  41.936  11.447
77393W        W38847  33.035  35.596  13.890
77394W        W38848  25.538   1.839   0.831
77395W        W38849  12.320   1.474   0.466
77396W        W38850  12.125  33.038   1.294
77397W        W38851   8.336  14.328   4.251
77398W        W38852   9.190  21.058  14.515
77399W        W38853  37.937  26.563  14.416
77400W        W38854  16.645  15.146   1.826
77401W        W38855  19.661   0.833  14.288
77402W        W38856  31.142  37.892  14.778
77403W        W38857   1.416   4.834  11.927
77404W        W38858  43.771   8.294   1.238
77405W        W38859   5.423  25.546   4.354
77406W        W38860  26.130  29.548  11.472
77407W        W38861  11.681   1.409   2.370
77408W        W38862  35.372   4.336   1.326
77409W        W38863  23.022  29.593  13.423
77410W        W38864  28.455  10.201  12.991
77411W        W38865  34.915  26.195  13.975
77412W        W38866   3.321   0.331  13.896
77413W        W38867  43.923  16.146  12.925
77414W        W38868  18.200  15.736  11.529
77415W        W38869  27.616  32.034   1.316
77416W        W38870  25.654  18.788   2.667
77417W        W38871   7.682  36.370   0.276
77418W        W38872  31.007  23.140   3.346
77419W        W38873  36.465   0.809  14.873
77420W        W38874   1.376  15.813   0.754
77421W        W38875   7.676  18.240  11.992
77422W        W38876  28.943  38.569   2.708
77423W        W38877  37.082  37.011   2.830
77424W        W38878  27.568  40.469  11.526
77425W        W38879  23.667  21.633  11.459
77426W        W38880  39.509   6.902   3.793
77427W        W38881   0.954  32.032   1.299
77428W        W38882  11.785  29.497  14.968
77429W        W38883  33.526  30.061   3.832
77430W        W38884  26.618  27.975   3.723
77431W        W38885  20.641  33.401   1.349
77432W        W38886  43.783   9.848  14.498
77433W        W38887  25.635   8.676   4.143
77434W        W38888  20.645  18.270   3.748
77435W        W38889  40.954   5.228  11.550
77436W        W38890   9.816  11.282  12.364
77437W        W38891  19.112  17.181   4.117
77438W        W38892  28.951  15.282   3.870
77439W        W38893  26.135  21.108  14.902
77440W        W38894   6.405  41.970   2.211
77441W        W38895   1.744   4.923  10.566
77442W        W38896  33.592  43.484  12.478
77443W        W38897  39.370  10.293  11.882
77444W        W38898  24.618   9.389  11.397
77445W        W38899   2.847  43.825  11.020
77446W        W38900   6.692  38.567   0.875
77447W        W38901  31.119  33.047   3.868
77448W        W38902  10.750   1.951  14.999
77449W        W38903  14.623  20.765  11.892
77450W        W38904  22.604  13.222  12.436
77451W        W38905  24.515  28.479   1.411
77452W        W38906  43.965  17.737   3.162
77453W        W38907  43.291  20.099   0.322
77454W        W38908  35.104   6.314  11.911
77455W        W38909  26.982  17.297  10.030
77456W        W38910  17.253  25.564  10.941
77457W        W38911  10.653  15.816   4.272
77458W        W38912  18.281  27.525  12.467
77459W        W38913   3.438  24.535  11.384
77460W        W38914  40.878  42.951   3.376
77461W        W38915  30.530  35.362   0.302
77462W        W38916  22.233  23.729  12.065
77463W        W38917   8.334  29.647  10.139
77464W        W38918   7.690   5.860  11.929
77465W        W38919  16.073   5.312   1.928
77466W        W38920  31.100  31.501   2.362
77467W        W38921  16.690  40.920   4.818
77468W        W38922  31.031  11.320   1.698
77469W        W38923  39.348   2.399  12.391
77470W        W38924  19.167   6.237  12.006
77471W        W38925  36.499   2.873   1.309
77472W        W38926   1.753  27.042  11.961
77473W        W38927  38.439   4.750   3.706
77474W        W38928   7.219  14.626   5.150
77475W        W38929  33.503  23.123  14.283
77476W        W38930  44.993  13.123   4.242
77477W        W38931   2.783   6.843  10.473
77478W        W38932  38.954   1.290   0.281
77479W        W38933  36.934  26.992   4.124
77480W        W38934  27.585  31.485   2.273
77481W        W38935  22.997   5.874  10.931
77482W        W38936  26.491  44.789   4.173
77483W        W38937  32.885  13.106  13.318
77484W        W38938  43.808  40.992  14.885
77485W        W38939  24.091  44.264  12.558
77486W        W38940  34.400  19.259   1.235
77487W        W38941  11.703  24.172  13.872
77488W        W38942  35.034   0.296   0.921
77489W        W38943  14.716  39.497  12.076
77490W        W38944  39.064   6.719  13.946
77491W        W38945   8.663  11.781   4.319
77492W        W38946  16.758  41.991   4.319
77493W        W38947   8.719  17.262   3.853
77494W        W38948  15.086  24.980   3.337
77495W        W38949  41.986  28.618  11.949
77496W        W38950  22.627  42.436  14.348
77497W        W38951  14.277  28.456  14.439
77498W        W38952  34.585  27.609  11.567
77499W        W38953  18.133  11.254  10.473
77500W        W38954  11.753  25.583  11.426
77501W        W38955  25.650   9.290  13.496
77502W        W38956  36.072   3.767   4.157
77503W        W38957  41.292  13.673  11.921
77504W        W38958  19.142  19.191   4.224
77505W        W38959   8.279  37.951  12.420
77506W        W38960   7.410  18.771   2.755
77507W        W38961  30.062  15.165   1.702
77508W        W38962  25.547  38.492   0.341
77509W        W38963  32.457  31.897  13.923
77510W        W38964  25.175  14.219   3.805
77511W        W38965   9.662  37.567   4.614
77512W        W38966  32.537  43.873   4.231
77513W        W38967   8.376   7.714  12.392
77514W        W38968   8.342  15.819   3.762
77515W        W38969  33.581  36.062   1.234
77516W        W38970  42.287  20.530  14.013
77517W        W38971  34.079  12.284  12.376
77518W        W38972  42.484   5.247  12.858
77519W        W38973   3.429   1.774   4.748
77520W        W38974  38.057   2.830   3.745
77521W        W38975  16.229  26.678  11.080
77522W        W38976  38.339  17.230  10.442
77523W        W38977  23.053  22.577  14.824
77524W        W38978   3.818  16.277  14.922
77525W        W38979   6.816  16.286   1.332
77526W        W38980  27.676  35.855   9.522
77527W        W38981  23.167   0.294  12.383
77528W        W38982  30.932  44.974  11.475
77529W        W38983  16.642   3.277   4.148
77530W        W38984  20.104  32.952  13.985
77531W        W38985  35.387  38.938  13.063
77532W        W38986   0.440  24.207  11.383
77533W        W38987  37.846   4.364  13.473
77534W        W38988   6.270  13.219   0.446
77535W        W38989  21.150   5.312   4.719
77536W        W38990  17.075  25.670   0.875
77537W        W38991  17.265  41.461   0.290
77538W        W38992  30.010  37.438   3.646
77539W        W38993  10.216   3.382   0.426
77540W        W38994  21.222  31.132  10.896
77541W        W38995   9.741  11.273  14.881
77542W        W38996  22.640  12.134  12.947
77543W        W38997   6.426  14.294   2.838
77544W        W38998  43.959  23.226  12.471
77545W        W38999   3.356  13.610  12.827
77546W        W39000  26.128  44.923  12.889
77547W        W39001  21.252  35.036   0.355
77548W        W39002  24.648  32.429  14.808
77549W        W39003  32.573  38.902   9.933
77550W        W39004  43.399  20.710   1.250
77551W        W39005  13.211  14.642   3.727
77552W        W39006  22.243   0.475  10.954
77553W        W39007  11.371  38.851   0.283
77554W        W39008  30.438   8.344  13.310
77555W        W39009  39.367  43.273   2.295
77556W        W39010  28.963  10.874  14.850
77557W        W39011  26.990  42.917  13.953
77558W        W39012   5.819  28.617  10.580
77559W        W39013   5.801   0.303   4.699
77560W        W39014  42.015  35.519   3.316
77561W        W39015  42.800  23.554   0.947
77562W        W39016  40.872  22.533  10.584
77563W        W39017   2.727   6.377   1.723
77564W        W39018  43.894  12.224   4.711
77565W        W39019  16.093  21.651   3.363
77566W        W39020  34.115   1.934  12.548
77567W        W39021   0.913  40.924   1.430
77568W        W39022   4.292  43.360  13.366
77569W        W39023  34.971  22.644   5.319
77570W        W39024  39.495  18.583   4.743
77571W        W39025  32.487  25.616  12.985
77572W        W39026  38.431  43.403  12.553
77573W        W39027  26.082  25.060  14.022
77574W        W39028   4.307   2.940   3.252
77575W        W39029  44.883  38.341   4.795
77576W        W39030  22.226   9.813   1.299
77577W        W39031   5.391  41.889   2.690
77578W        W39032   2.734  10.876  12.829
77579W        W39033  12.290  31.402   2.700
77580W        W39034   8.864  29.092  10.156
77581W        W39035  38.073  29.019   3.746
77582W        W39036  34.090  39.559   0.446
77583W        W39037  28.006   1.930  14.030
77584W        W39038  16.731  37.360   2.763
77585W        W39039  40.498   2.257   0.463
77586W        W39040  25.152   3.920   0.470
77587W        W39041  41.440  29.093   3.668
77588W        W39042  37.929  11.702   2.293
77589W        W39043  40.851  19.674   0.765
77590W        W39044   6.822  27.951   1.841
77591W        W39045  21.627  24.217  14.983
77592W        W39046  30.539   9.654  11.522
77593W        W39047  14.761  26.675  11.919
77594W        W39048  36.437  25.581   3.171
77595W        W39049  29.105  34.040  13.059
77596W        W39050  25.566  30.603   9.941
77597W        W39051  28.111  12.802  12.489
77598W        W39052  36.007  36.064   1.447
77599W        W39053  36.517  30.003  13.479
77600W        W39054   2.359   0.360  12.417
77601W        W39055  13.138  24.163   1.443
77602W        W39056  39.335   3.310  11.428
77603W        W39057  27.107  12.257   2.740
77604W        W39058   4.438   5.829  14.915
77605W        W39059  33.123  37.918  14.882
77606W        W39060  29.459  19.751   1.769
77607W        W39061   8.398  25.610   4.234
77608W        W39062  40.842  35.448  13.806
77609W        W39063  31.529  24.064   1.266
77610W        W39064   7.759  30.092  13.916
77611W        W39065   7.763  22.130  12.940
77612W        W39066  12.285  43.337   0.268
77613W        W39067  29.547   0.806   4.179
77614W        W39068  28.077  11.850   0.874
77615W        W39069  39.372  41.880  10.573
77616W        W39070  15.735   2.368  13.468
77617W        W39071   6.236  42.016  10.627
77618W        W39072  32.495  27.180  11.022
77619W        W39073  21.552  29.578  14.404
77620W        W39074  24.117  30.649   2.710
77621W        W39075  21.620  17.793  13.461
77622W        W39076  14.119   6.390  12.380
77623W        W39077   0.984  23.115   2.233
77624W        W39078  21.017  15.279   3.334
77625W        W39079  10.185   8.696   2.407
77626W        W39080  22.102  22.119   0.329
77627W        W39081  16.215  29.634  11.972
77628W        W39082  29.932  24.481  13.873
77629W        W39083  38.909  30.586  13.815
77630W        W39084  25.543  14.640   4.779
77631W        W39085  44.961  43.828   3.196
77632W        W39086  20.633  36.440  10.441
77633W        W39087  19.634  34.966   3.863
77634W        W39088  32.553  17.709  14.431
77635W        W39089   1.743   5.387  11.376
77636W        W39090  33.618  10.750   3.328
77637W        W39091  41.989  39.398  10.065
77638W        W39092  24.989  28.057  13.427
77639W        W39093  44.415  35.531  13.028
77640W        W39094  28.463   7.673  10.590
77641W        W39095  11.730  11.344  13.047
77642W        W39096  39.901  40.352   0.825
77643W        W39097  20.737  39.965   3.309
77644W        W39098  13.181  37.476  12.927
77645W        W39099  20.057   6.712   3.157
77646W        W39100  39.327  11.162  12.988
77647W        W39101  11.301  18.629  12.913
77648W        W39102  15.633  42.301   4.722
77649W        W39103   8.242  12.311  11.510
77650W        W39104  32.122   8.177  13.921
77651W        W39105   5.777  16.793   0.255
77652W        W39106  24.102  15.253   1.251
77653W        W39107  42.784  44.329   3.285
77654W        W39108   4.852   6.787   4.791
77655W        W39109  44.454  30.531  10.434
77656W        W39110  27.997   4.831   2.664
77657W        W39111   2.422  38.420   1.821
77658W        W39112  17.798  28.037  14.871
77659W        W39113  17.688  31.988   5.211
77660W        W39114  16.785  13.307  14.815
77661W        W39115  32.060   0.965  13.951
77662W        W39116  37.886  38.046   4.778
77663W        W39117  13.650  11.700   3.373
77664W        W39118   6.877  27.510  13.485
77665W        W39119   8.211  36.876  12.418
77666W        W39120  23.659  20.063   2.188
77667W        W39121  29.566  40.447  13.524
77668W        W39122   9.657  21.143  14.883
77669W        W39123   2.461  27.033  13.032
77670W        W39124  42.983  30.629  14.343
77671W        W39125  30.467  28.439  14.890
77672W        W39126  30.484   1.279  11.119
77673W        W39127  15.320   5.688  10.604
77674W        W39128   1.343  15.664   3.705
77675W        W39129   9.353   4.928   4.739
77676W        W39130  39.060  20.666  14.911
77677W        W39131   7.308  17.092   4.120
77678W        W39132  24.706   5.340   0.420
77679W        W39133  17.652  37.961  10.490
77680W        W39134  28.016  43.347   4.730
77681W        W39135   6.347  25.624  13.875
77682W        W39136  21.685  22.200   0.794
77683W        W39137  36.424  42.462   3.817
77684W        W39138  16.589  41.929   4.637
77685W        W39139  27.136   1.829   0.900
77686W        W39140   8.860  21.754   4.117
77687W        W39141  23.536  37.973  13.311
77688W        W39142  35.868   6.342  13.489
77689W        W39143  10.653   0.350   4.762
77690W        W39144  38.517   1.896  12.844
77691W        W39145   0.487  18.091  13.909
77692W        W39146  29.557  37.359  14.341
77693W        W39147   3.794  31.078  14.994
77694W        W39148   7.691   2.835   3.260
77695W        W39149   3.238   2.340   0.780
77696W        W39150   7.331  23.561  11.500
77697W        W39151  31.572  43.323   4.602
77698W        W39152   2.753  39.059   1.929
77699W        W39153  22.507  36.007  10.630
77700W        W39154   8.716  34.508  13.465
77701W        W39155  32.960  18.650  12.853
77702W        W39156  37.337  14.802  12.899
77703W        W39157  36.449   3.300  12.958
77704W        W39158   3.423  35.955   0.306
77705W        W39159   6.732  36.045   1.312
77706W        W39160  32.129  14.676  14.008
77707W        W39161  26.484  19.258  14.815
77708W        W39162  34.092  44.003  14.925
77709W        W39163  33.407  31.900  13.963
77710W        W39164   3.350  23.186  13.443
77711W        W39165  19.660  16.792   3.222
77712W        W39166  31.967  13.318   3.777
77713W        W39167  21.038   5.712   1.335
77714W        W39168  42.874   8.752   0.358
77715W        W39169  10.741  35.380   3.852
77716W        W39170  13.162  43.305  13.982
77717W        W39171  40.892   5.807  13.456
77718W        W39172   8.765  26.124  12.872
77719W        W39173  16.264  27.573  13.024
77720W        W39174  29.111   6.330  11.395
77721W        W39175  19.571  12.652   4.730
77722W        W39176  42.282  31.605   0.391
77723W        W39177   0.260  36.486   4.641
77724W        W39178   6.390  27.943  10.931
77725W        W39179  30.056   8.679   1.784
77726W        W39180   0.472   3.875  13.033
77727W        W39181  29.143   0.960   1.740
77728W        W39182  22.500  41.358  11.444
77729W        W39183  40.884   5.691   4.645
77730W        W39184  27.961  39.909   0.359
77731W        W39185   2.933  36.431   0.333
77732W        W39186  33.442   2.298  11.414
77733W        W39187  15.757  13.105   2.387
77734W        W39188   7.683   0.861   4.114
77735W        W39189  34.071  11.662   3.696
77736W        W39190  15.255  33.398  14.452
77737W        W39191  12.749  16.216   0.750
77738W        W39192  17.140  25.144   9.993
77739W        W39193  31.573  40.872  11.408
77740W        W39194  32.446  38.548   1.349
77741W        W39195  23.022  19.550  11.596
77742W        W39196  21.244  21.097  11.088
77743W        W39197  30.039  40.421  13.452
77744W        W39198  17.590   0.783   1.719
77745W        W39199  34.045  12.243   5.307
77746W        W39200   7.750  42.411   1.742
77747W        W39201  18.544  26.464   2.835
77748W        W39202  22.738  33.108  12.834
77749W        W39203   9.359  29.432   4.266
77750W        W39204  19.644  24.576  11.070
77751W        W39205  20.029   5.302   2.218
77752W        W39206  25.507   8.689   1.261
77753W        W39207   2.793  42.804   4.698
77754W        W39208  36.418  31.474   4.710
77755W        W39209  22.187  42.445   2.272
77756W        W39210  29.436  41.354   0.816
77757W        W39211  29.629   7.873  12.911
77758W        W39212   8.165  28.083   1.780
77759W        W39213  42.375  21.705  12.407
77760W        W39214  33.930   9.307  10.410
77761W        W39215  11.349  22.220  14.910
77762W        W39216  28.979  32.596  13.927
77763W        W39217  25.039  29.000   2.832
77764W        W39218   1.835  44.780  12.055
77765W        W39219  40.489  36.384   2.817
77766W        W39220  13.268  31.553  10.615
77767W        W39221  21.647  36.465   3.821
77768W        W39222  26.144  29.092  14.454
77769W        W39223  36.557  43.782  11.606
77770W        W39224  22.557   0.299  12.497
77771W        W39225   5.220  18.719   4.348
77772W        W39226  17.623  17.626  12.501
77773W        W39227  40.030  13.173  14.425
77774W        W39228   8.768   7.760   3.764
77775W        W39229  12.155   3.788  10.973
77776W        W39230  39.343  43.491   9.996
77777W        W39231  15.294  35.490   2.774
77778W        W39232   4.937  41.325   1.865
77779W        W39233   3.424  38.983  14.430
77780W        W39234   5.357  13.700  13.365
77781W        W39235   2.752  44.927  13.389
77782W        W39236   1.393  21.099   4.777
77783W        W39237   0.385   9.315   1.449
77784W        W39238  25.069  21.664   1.384
77785W        W39239   3.728  29.109  12.513
77786W        W39240  10.358  40.311  13.382
77787W        W39241  43.300  18.294  14.981
77788W        W39242  30.461  32.931   2.354
77789W        W39243  42.517  35.914   4.641
77790W        W39244  34.400  14.682   3.710
77791W        W39245  33.509  27.039   1.934
77792W        W39246  43.497   0.311   1.310
77793W        W39247   2.749  25.554   0.805
77794W        W39248  43.429  18.202  11.532
77795W        W39249  41.398   1.259   2.343
77796W        W39250  33.033  12.192   1.744
77797W        W39251  17.083  10.859   2.360
77798W        W39252  42.450  17.688   0.903
77799W        W39253  26.671  41.427   2.246
77800W        W39254  23.729  16.627   2.230
77801W        W39255  37.554  30.590  14.838
77802W        W39256  12.238   1.301  12.438
77803W        W39257  44.439  34.117   2.250
77804W        W39258  44.501  28.973   1.415
77805W        W39259  42.873   0.821   1.707
77806W        W39260  19.690  37.914   3.237
77807W        W39261  42.461  24.577   3.322
77808W        W39262  30.072  34.585  11.501
77809W        W39263  37.018  38.517   4.181
77810W        W39264  19.118   9.274   1.870
77811W        W39265  13.132  39.393  10.966
77812W        W39266  24.974  27.065   4.709
77813W        W39267  20.114  44.841  14.408
77814W        W39268  30.485   7.794   3.236
77815W        W39269  19.084  20.644   3.778
77816W        W39270  31.420  17.205  12.935
77817W        W39271  23.650   2.880  11.109
77818W        W39272   1.320  15.116   0.468
77819W        W39273  29.974  26.675   4.607
77820W        W39274  11.137  32.042   5.132
77821W        W39275  11.842   3.322   5.103
77822W        W39276  20.639  13.609   2.211
77823W        W39277  35.459  24.172   4.793
77824W        W39278  28.437  37.562   4.194
77825W        W39279  32.060  31.987   3.682
77826W        W39280  16.672  28.026  10.951
77827W        W39281  41.788  33.574   4.745
77828W        W39282   8.329  24.147   1.397
77829W        W39283  28.050  39.455  12.889
77830W        W39284  44.393   8.401  12.542
77831W        W39285  36.593   9.367   1.366
77832W        W39286  16.777  23.074   0.395
77833W        W39287  43.984  44.411  13.025
77834W        W39288  38.539  29.037  12.480
77835W        W39289   3.242  36.557  11.036
77836W        W39290  11.853  37.068   3.174
77837W        W39291  20.529   4.380  13.974
77838W        W39292  17.690  43.856  10.446
77839W        W39293   0.965  35.971  14.017
77840W        W39294  44.413  10.347   5.215
77841W        W39295   3.277  15.720   4.311
77842W        W39296   3.946  11.308  11.452
77843W        W39297   7.743  12.117  11.952
77844W        W39298   4.864  23.201  13.428
77845W        W39299   7.889  14.275   1.896
77846W        W39300  12.187   7.229   2.685
77847W        W39301  43.956  31.539   1.922
77848W        W39302   3.864  34.971   4.698
77849W        W39303  29.461  23.496  13.037
77850W        W39304  10.748  10.259   1.815
77851W        W39305  27.031  39.921  12.021
77852W        W39306  10.197   3.932   2.303
77853W        W39307  23.154  42.396   0.391
77854W        W39308  14.641   9.271  11.609
77855W        W39309  23.133   7.850   2.391
77856W        W39310  35.468  39.956  11.040
77857W        W39311  13.272   1.736   4.711
77858W        W39312  11.283   3.905   2.778
77859W        W39313  18.088   6.683   0.750
77860W        W39314  16.318  10.815  11.489
77861W        W39315  17.089  10.740  13.422
77862W        W39316   2.737  26.657  10.588
77863W        W39317   9.784  10.162   2.886
77864W        W39318  43.419  23.621   0.403
77865W        W39319  29.475  20.184   4.672
77866W        W39320  23.675  20.264  14.910
77867W        W39321   2.316  21.032   4.148
77868W        W39322  27.160  14.132  11.955
77869W        W39323   0.942  26.035  13.969
77870W        W39324  24.580  33.564   1.287
77871W        W39325   3.879  13.693  13.337
77872W        W39326   8.368  41.025   4.673
77873W        W39327  10.828   5.734  13.972
77874W        W39328  23.154  16.263   1.303
77875W        W39329   4.236  25.582  11.857
77876W        W39330  37.015   9.361   1.803
77877W        W39331  41.311  12.123  12.377
77878W        W39332  37.397  22.251   2.663
77879W        W39333  42.848  37.481  11.038
77880W        W39334   3.400  21.530   3.812
77881W        W39335  22.529   3.792  11.086
77882W        W39336  18.271   3.917   4.809
77883W        W39337  31.482  44.007  14.444
77884W        W39338  33.132   0.789   4.215
77885W        W39339  42.303  19.755  14.895
77886W        W39340  19.675   6.289  12.830
77887W        W39341   2.283  39.927   3.226
77888W        W39342  44.938  12.140   4.660
77889W        W39343   4.797   9.165   2.194
77890W        W39344  25.201  35.542  11.454
77891W        W39345  21.029  40.441   2.257
77892W        W39346  33.422   4.291  11.477
77893W        W39347  44.779  13.756   3.837
77894W        W39348  14.314  41.477  13.315
77895W        W39349  19.065   3.239  14.277
77896W        W39350  18.241  38.926   3.289
77897W        W39351  16.138  25.694   0.432
77898W        W39352  19.667  36.084  11.403
77899W        W39353   9.367  37.426   3.239
77900W        W39354   6.224  28.519  14.828
77901W        W39355  43.832  39.964   3.643
77902W        W39356  28.463   7.249  11.878
77903W        W39357  23.131  15.657   3.281
77904W        W39358  35.528  36.031  13.853
77905W        W39359  21.123  18.679  13.809
77906W        W39360  18.215  39.323  10.910
77907W        W39361   3.221  23.581  12.835
77908W        W39362  18.646  38.522   0.436
77909W        W39363  20.686  30.493   1.797
77910W        W39364   8.210  15.685   2.789
77911W        W39365   9.888   9.797  12.003
77912W        W39366   1.478  37.013  12.873
77913W        W39367  11.155   6.683   3.285
77914W        W39368  32.104   0.395  10.891
77915W        W39369  12.169  33.538  11.426
77916W        W39370   7.769  44.875  10.925
77917W        W39371  17.711  19.624  14.925
77918W        W39372  12.119  24.517   3.822
77919W        W39373  38.472   3.436  13.938
77920W        W39374   6.876  36.065   4.795
77921W        W39375   6.714  20.063   0.283
77922W        W39376  11.302  14.702   4.729
77923W        W39377  10.247  18.787   4.253
77924W        W39378  42.472  39.933  11.048
77925W        W39379   6.785   4.814   0.827
77926W        W39380  25.497  34.021  12.995
77927W        W39381  37.537  13.738  11.071
77928W        W39382  13.205  35.604  14.434
77929W        W39383   8.336  43.295  10.548
77930W        W39384  30.443  13.798  11.418
77931W        W39385  31.107  34.040   2.307
77932W        W39386  10.658  12.137  12.892
77933W        W39387   0.399  12.279  13.366
77934W        W39388  33.879   5.911  12.493
77935W        W39389   7.736   8.795  11.907
77936W        W39390  24.527  37.455  11.017
77937W        W39391  10.719  12.816   3.780
77938W        W39392  24.645  40.876   2.891
77939W        W39393   8.338   1.294   4.142
77940W        W39394  17.114  14.604  12.986
77941W        W39395  41.344  19.718  14.793
77942W        W39396  42.814  14.688   3.840
77943W        W39397  20.746   3.336   3.647
77944W        W39398  18.554   4.703   3.672
77945W        W39399   1.299  16.312   4.638
77946W        W39400  44.366  19.724   0.469
77947W        W39401  25.689  27.159  10.456
77948W        W39402  25.507  18.651  11.547
77949W        W39403  17.784  24.985  13.318
77950W        W39404  35.083   5.855  12.424
77951W        W39405  37.372   0.961   2.841
77952W        W39406  40.986  32.092   4.349
77953W        W39407  40.497   4.880   4.337
77954W        W39408  14.696  18.767  11.074
77955W        W39409   6.196  23.122  11.949
77956W        W39410   9.248  38.978   4.609
77957W        W39411  19.200  34.464   0.801
77958W        W39412  16.602  14.160   0.748
77959W        W39413  24.718   7.837  14.988
77960W        W39414  33.458   2.834  10.482
77961W        W39415  17.679  13.826   4.224
77962W        W39416  41.874  10.232  13.965
77963W        W39417  18.631   8.189   4.195
77964W        W39418  39.419  28.994  14.285
77965W        W39419  44.985  19.718  13.980
77966W        W39420  16.753   7.268  11.086
77967W        W39421  37.531  18.091  13.978
77968W        W39422  23.205  14.695  12.052
77969W        W39423  42.997  20.172  14.419
77970W        W39424   0.944  43.460  14.483
77971W        W39425  42.954   4.430  13.814
77972W        W39426  34.904  14.299  12.833
77973W        W39427  16.290   7.220  13.462
77974W        W39428  32.544   8.749   1.796
77975W        W39429  10.266  14.164   4.691
77976W        W39430  23.222  20.727  13.357
77977W        W39431  23.090  33.064  14.440
77978W        W39432  44.914  37.475   5.314
77979W        W39433  21.580   0.906  14.301
77980W        W39434  23.527  31.937  12.870
77981W        W39435  27.495  11.259   1.873
77982W        W39436  15.196  36.457  10.629
77983W        W39437  19.228  43.789   3.230
77984W        W39438  33.975  14.814  13.406
77985W        W39439  34.446  30.511  14.375
77986W        W39440  20.256   0.305   3.285
77987W        W39441   8.163  17.181   3.711
77988W        W39442   9.651   7.365  11.872
77989W        W39443  32.026  19.146  13.807
77990W        W39444  24.646  14.674   3.162
77991W        W39445  14.619  16.210   2.339
77992W        W39446  31.417  44.411   3.268
77993W        W39447  37.534  20.236  11.599
77994W        W39448  34.870  41.380   2.687
77995W        W39449   0.413  20.266   1.376
77996W        W39450  25.557  24.102  13.828
77997W        W39451  37.923  25.080   1.748
77998W        W39452  31.406  22.097   2.798
77999W        W39453  37.034  32.905  10.477
78000W        W39454   4.339  11.626  14.029
78001W        W39455  35.526   6.306   2.851
78002W        W39456  43.985  34.067  12.905
78003W        W39457   6.293   3.412  14.278
78004W        W39458   4.447  27.057  11.907
78005W        W39459  30.989   4.327  12.579
78006W        W39460  28.668   8.846  11.907
78007W        W39461   6.869   6.812   2.354
78008W        W39462   2.727  13.164  13.971
78009W        W39463  29.059  29.482  14.497
78010W        W39464   6.731  20.082   4.796
78011W        W39465  42.500  12.158   2.221
78012W        W39466  44.878  19.606   2.687
78013W        W39467  32.572  30.591  13.487
78014W        W39468  39.507  22.122  10.520
78015W        W39469  40.320  18.786  11.516
78016W        W39470  23.079  28.085   4.198
78017W        W39471  32.903  23.208   1.852
78018W        W39472  19.533   8.894   4.223
78019W        W39473  12.318  22.712  12.349
78020W        W39474  16.076  28.438   3.252
78021W        W39475  42.422  23.067   4.170
78022W        W39476  27.611  33.954   1.361
78023W        W39477  31.475  41.821   1.696
78024W        W39478   4.407  16.723  11.116
78025W        W39479  36.864   5.206  13.416
78026W        W39480  26.528  27.088   0.921
78027W        W39481  39.053   6.368   2.851
78028W        W39482  26.118  22.124   2.196
78029W        W39483  22.571  10.224   1.414
78030W        W39484  28.644  37.988  12.013
78031W        W39485   4.815  22.678   4.219
78032W        W39486  44.986  13.661  13.448
78033W        W39487  38.914  21.024   1.306
78034W        W39488  26.025  15.623   1.908
78035W        W39489  31.118  34.502  12.945
78036W        W39490  37.373  29.528  12.559
78037W        W39491   3.444  42.996  12.994
78038W        W39492  11.737  19.561   3.208
78039W        W39493  20.233  17.703  13.313
78040W        W39494  22.149  29.167  13.871
78041W        W39495  32.592  37.550  14.400
78042W        W39496  10.672  20.032   4.697
78043W        W39497  23.565  29.635   2.295
78044W        W39498  16.764  26.675  14.403
78045W        W39499  13.756  40.883  13.419
78046W        W39500  42.965  22.239  13.342
78047W        W39501  25.210  14.216  12.965
78048W        W39502  14.641  22.247   1.840
78049W        W39503   0.874  22.200  12.488
78050W        W39504  42.881  10.755   1.213
78051W        W39505  21.052  44.428  14.942
78052W        W39506  29.973  16.721   3.864
78053W        W39507  35.540  42.341   3.632
78054W        W39508   3.753   5.731  10.588
78055W        W39509  25.483  39.000  13.988
78056W        W39510   5.204  12.238   3.277
78057W        W39511  27.966  20.175   1.829
78058W        W39512  31.415   1.819   3.247
78059W        W39513  15.100  39.470  11.457
78060W        W39514  24.570  26.559   2.845
78061W        W39515  14.766  20.127  14.409
78062W        W39516  35.977  26.496   1.355
78063W        W39517   9.778  34.512  12.454
78064W        W39518  17.702  42.494   3.830
78065W        W39519  14.334   2.802   4.129
78066W        W39520   2.389  27.015  10.935
78067W        W39521   0.862  11.641  13.815
78068W        W39522   2.731  31.144   4.288
78069W        W39523  29.986  27.506   2.714
78070W        W39524  36.353  13.274  12.991
78071W        W39525  32.992   9.672   4.682
78072W        W39526  18.574  15.584  11.423
78073W        W39527   4.379  13.221   3.789
78074W        W39528  16.676  26.572   2.189
78075W        W39529  44.886   6.696   4.321
78076W        W39530  13.697  37.002  12.091
78077W        W39531  14.124   9.311   2.203
78078W        W39532   2.731   9.704  11.880
78079W        W39533  35.556  12.203   3.790
78080W        W39534   3.837  35.582   1.698
78081W        W39535  25.119  24.201   4.201
78082W        W39536  43.983  21.119   2.313
78083W        W39537  15.652  13.634   5.217
78084W        W39538  22.666   3.865   1.773
78085W        W39539  14.692  20.614  11.041
78086W        W39540   6.738  11.726  11.466
78087W        W39541  27.544  25.574  12.364
78088W        W39542  10.671  28.535   1.771
78089W        W39543  41.034  25.980   4.123
78090W        W39544  32.481  41.932  11.529
78091W        W39545  14.628  43.324  10.058
78092W        W39546  36.855  17.279  12.857
78093W        W39547  26.617   9.387   1.284
78094W        W39548   7.800  13.273   3.650
78095W        W39549  35.455  21.058  11.102
78096W        W39550  28.624  27.094   2.816
78097W        W39551  36.867  43.884  14.783
78098W        W39552  22.673  39.043   4.214
78099W        W39553  44.265  23.506   0.743
78100W        W39554   8.794  19.265   3.351
78101W        W39555  32.048  27.113   2.742
78102W        W39556  36.416  10.667   1.908
78103W        W39557  44.785   9.732   0.920
78104W        W39558  36.512  22.544   3.301
78105W        W39559  20.235  38.979  10.892
78106W        W39560  35.464  43.776  10.940
78107W        W39561  11.862  33.911   1.750
78108W        W39562  29.587  41.815  11.006
78109W        W39563   9.853  41.018   5.790
78110W        W39564  11.648  31.946  13.998
78111W        W39565  32.545   5.207  10.972
78112W        W39566   0.443  13.146  13.047
78113W        W39567  11.339  27.042  13.359
78114W        W39568  23.590  41.512   3.662
78115W        W39569  24.623  28.014   3.712
78116W        W39570  31.520  17.262  13.327
78117W        W39571  37.395  40.038   1.725
78118W        W39572  43.439  44.499   3.149
78119W        W39573  42.798  12.857   3.259
78120W        W39574  43.388  15.796  13.459
78121W        W39575  10.769  37.421   1.231
78122W        W39576  44.461  17.165   1.872
78123W        W39577  18.567  37.969  12.374
78124W        W39578  10.780  20.728   4.157
78125W        W39579  35.030   0.857  13.062
78126W        W39580  42.468  13.300   1.837
78127W        W39581  42.446  44.978  10.486
78128W        W39582  12.706  10.285  12.910
78129W        W39583  26.113  38.386   0.400
78130W        W39584  17.133  31.586   2.322
78131W        W39585  37.405  44.355   1.280
78132W        W39586   2.834  15.261   4.258
78133W        W39587  11.757  21.525  13.308
78134W        W39588  44.450  44.470   3.260
78135W        W39589   4.913   6.719  10.543
78136W        W39590  30.588   4.251   2.889
78137W        W39591  42.966  32.570  13.453
78138W        W39592  35.912   8.829   1.342
78139W        W39593  23.188  13.753   3.665
78140W        W39594  24.705  39.385  12.477
78141W        W39595  27.002  38.430   3.230
78142W        W39596  26.602  36.519   5.301
78143W        W39597  17.142  35.879  13.438
78144W        W39598   5.872  21.700   3.191
78145W        W39599   3.826  32.539   1.323
78146W        W39600  26.171  17.741   0.824
78147W        W39601  16.104  31.494  14.320
78148W        W39602  19.054   5.427  14.452
78149W        W39603   6.219  30.983  14.772
78150W        W39604  13.660  31.953  12.441
78151W        W39605  29.970   5.893   4.681
78152W        W39606  42.410  21.700  12.921
78153W        W39607   6.183  33.508   1.233
78154W        W39608  38.909   4.734   4.670
78155W        W39609  22.103  16.717   4.180
78156W        W39610  14.799   6.773   3.851
78157W        W39611  26.086  20.590   4.246
78158W        W39612  41.429  15.792   4.674
78159W        W39613  36.421  30.060   2.336
78160W        W39614  37.502   9.263   1.327
78161W        W39615  22.556   5.879   0.806
78162W        W39616  32.547  22.212   4.674
78163W        W39617  40.919  34.452   4.625
78164W        W39618  15.200  29.024  12.915
78165W        W39619  21.191   3.933   4.706
78166W        W39620  18.096  22.621   0.253
78167W        W39621  17.270   6.264   0.810
78168W        W39622  43.402   2.845   0.823
78169W        W39623  39.369  33.398   1.912
78170W        W39624  32.573  14.722   0.782
78171W        W39625  12.759  25.119   4.707
78172W        W39626  12.238  10.189   3.784
78173W        W39627  22.693   7.350   0.333
78174W        W39628   9.825   4.425  14.500
78175W        W39629   4.347  17.122  14.504
78176W        W39630   2.894  44.976  10.568
78177W        W39631  34.576   7.851  11.107
78178W        W39632  22.737   2.800  10.944
78179W        W39633  22.564  40.933  14.329
78180W        W39634   2.455  30.592   4.720
78181W        W39635  30.119   1.818  13.497
78182W        W39636  26.075   8.353   0.474
78183W        W39637  18.688  37.462  11.982
78184W        W39638  23.095   1.320  14.376
78185W        W39639   2.445  21.692   3.841
78186W        W39640   2.287  36.898  10.519
78187W        W39641  25.527  19.113   4.114
78188W        W39642  27.993  35.083   9.989
78189W        W39643   5.211  19.097   0.382
78190W        W39644  37.842  23.625  14.337
78191W        W39645   2.327   6.293  14.276
78192W        W39646  28.556  26.657  12.061
78193W        W39647  11.807  38.559   4.825
78194W        W39648  39.430  31.002  11.386
78195W        W39649   6.270  22.103  10.138
78196W        W39650  22.114   3.761   3.259
78197W        W39651  23.002  42.971  14.869
78198W        W39652  34.548  10.655   2.712
78199W        W39653  15.610   4.333  11.523
78200W        W39654  42.915  38.958   1.746
78201W        W39655  33.542  40.801  14.403
78202W        W39656  16.317  26.488   0.361
78203W        W39657  33.118   5.251  12.379
78204W        W39658  15.791   9.284   1.406
78205W        W39659  19.210   0.911   4.273
78206W        W39660  36.530  31.016  12.955
78207W        W39661  10.291  21.204   3.833
78208W        W39662  24.581   3.892   5.641
78209W        W39663   0.927   7.782   4.652
78210W        W39664  37.575  15.733   1.861
78211W        W39665  13.327  16.104  14.306
78212W        W39666   6.896  10.732   3.180
78213W        W39667  21.030  28.460  10.513
78214W        W39668  39.874  28.172   0.944
78215W        W39669  19.271  39.849  13.895
78216W        W39670   4.362  13.602   2.384
78217W        W39671  34.053  31.954  11.985
78218W        W39672  39.358  23.210   0.868
78219W        W39673   0.765   5.278   2.797
78220W        W39674  27.953   8.690  10.028
78221W        W39675   8.163  35.034   0.761
78222W        W39676  37.947   2.826   1.425
78223W        W39677   2.382  31.910   9.965
78224W        W39678  37.558  44.822   4.787
78225W        W39679  32.445  26.696  10.939
78226W        W39680  17.118  25.100  10.519
78227W        W39681  22.109  19.596   3.767
78228W        W39682  27.664   8.370   1.260
78229W        W39683  23.021  44.975  14.918
78230W        W39684  23.495  33.500   4.758
78231W        W39685  24.649  27.651   0.261
78232W        W39686  22.638  20.261  10.981
78233W        W39687  37.056  31.597   2.792
78234W        W39688  37.480  36.487  13.792
78235W        W39689  13.845  14.101  13.446
78236W        W39690  44.969  14.269  14.364
78237W        W39691  38.964   7.210  12.907
78238W        W39692   7.384   7.702   3.845
78239W        W39693  40.503  40.308  14.327
78240W        W39694  39.473  40.881   1.253
78241W        W39695   0.433  31.016  14.773
78242W        W39696  34.908  32.629  10.521
78243W        W39697  44.266   3.835  14.300
78244W        W39698  12.346  19.212   9.954
78245W        W39699   9.669  21.086  14.329
78246W        W39700   8.754  25.569  10.599
78247W        W39701   1.774  39.898  10.908
78248W        W39702  22.692   0.455  10.000
78249W        W39703   4.819  26.554  10.133
78250W        W39704  15.683  40.821   3.847
78251W        W39705  41.336  26.988  11.378
78252W        W39706  26.531  41.884  13.449
78253W        W39707  30.597  16.175  11.378
78254W        W39708  32.955  28.553   3.755
78255W        W39709  34.614  24.097  11.381
78256W        W39710  26.631   5.384   2.231
78257W        W39711  22.524   1.741   2.324
78258W        W39712  21.605   4.753   2.192
78259W        W39713  18.624  18.580   0.393
78260W        W39714   6.774  35.582  11.516
78261W        W39715   2.913  44.443   2.670
78262W        W39716   0.877  36.937   0.315
78263W        W39717  35.996  22.613  12.862
78264W        W39718  27.622  40.996  11.906
78265W        W39719  19.613  18.087   0.876
78266W        W39720  33.983   6.295  12.486
78267W        W39721  27.947  27.035  12.052
78268W        W39722  29.950   5.697  11.527
78269W        W39723  19.136  21.715  12.561
78270W        W39724  22.210   6.232  10.477
78271W        W39725  36.447  37.533   2.347
78272W        W39726  26.132  28.622  10.567
78273W        W39727  26.670  27.662  11.026
78274W        W39728  30.465  41.791   1.431
78275W        W39729  18.273   8.385   0.736
78276W        W39730  17.212  34.534   0.748
78277W        W39731  33.438  41.956  13.353
78278W        W39732   0.945  33.586  14.999
78279W        W39733  10.867  30.006   3.242
78280W        W39734  40.516  28.570  13.929
78281W        W39735  15.621   9.669   4.352
78282W        W39736  43.303   3.838   3.273
78283W        W39737   2.358  43.954   4.736
78284W        W39738   1.326   5.246  11.485
78285W        W39739  33.006   5.840  11.056
78286W        W39740  17.737  21.065  11.494
78287W        W39741  25.526  22.023  11.905
78288W        W39742  28.147   8.732  12.468
78289W        W39743   9.332  30.445   1.313
78290W        W39744  30.543  10.276  13.519
78291W        W39745  29.437  32.142   4.808
78292W        W39746   5.299  30.629  14.026
78293W        W39747  40.806  27.691  11.892
78294W        W39748  32.050  19.078   0.873
78295W        W39749   6.392  34.463   0.956
78296W        W39750   9.249  12.664  11.506
78297W        W39751  34.886  28.460  11.456
78298W        W39752   3.269  17.614   2.194
78299W        W39753  16.714  23.224  14.879
78300W        W39754  30.629  35.060  13.487
78301W        W39755   1.831  28.111  13.064
78302W        W39756  36.935  44.866   4.652
78303W        W39757   5.856  36.446   2.225
78304W        W39758  15.101  23.689   2.397
78305W        W39759  40.334  20.599   0.459
78306W        W39760  43.798   8.889  14.782
78307W        W39761  40.915   7.862   4.288
78308W        W39762  12.717  13.274  13.015
78309W        W39763  19.155  30.569  14.890
78310W        W39764  20.258   6.276   2.782
78311W        W39765  11.163  11.780  11.919
78312W        W39766  35.042   2.950  11.611
78313W        W39767  43.369  40.827  14.801
78314W        W39768  24.692  31.109   2.276
78315W        W39769  30.466   4.923   1.229
78316W        W39770  14.672  22.512   2.266
78317W        W39771  13.673  15.171   0.282
78318W        W39772  37.038  22.559   3.360
78319W        W39773  28.180  42.929   4.779
78320W        W39774  13.318  26.032  12.075
78321W        W39775  35.470  23.044   0.962
78322W        W39776   1.738  11.799   1.268
78323W        W39777   9.334  19.255   2.381
78324W        W39778  44.905  21.548  14.390
78325W        W39779  36.369  25.058   0.847
78326W        W39780  39.400  41.455   3.781
78327W        W39781  12.302  27.530   0.264
78328W        W39782  19.269   8.225  10.930
78329W        W39783  28.124  33.389  14.017
78330W        W39784  17.283  17.637  13.972
78331W        W39785  14.776   3.801   2.401
78332W        W39786  29.466  11.221  12.557
78333W        W39787  27.104  32.036  12.438
78334W        W39788  28.099  44.780   2.301
78335W        W39789  25.142  21.244   1.449
78336W        W39790  13.264  14.777   1.214
78337W        W39791  22.582   1.827   0.360
78338W        W39792  17.669  37.045   0.925
78339W        W39793  13.328  39.523   1.887
78340W        W39794  20.728  23.022  13.846
78341W        W39795   9.736  41.995   2.848
78342W        W39796  12.698  42.439   2.725
78343W        W39797  23.558  17.231  12.382
78344W        W39798  34.554  35.555  12.070
78345W        W39799  35.086  16.767   1.390
78346W        W39800   7.226  21.114  13.894
78347W        W39801  38.570  43.003  12.862
78348W        W39802  16.296  36.390  14.832
78349W        W39803  40.997  19.682  11.080
78350W        W39804  40.399  17.667  12.029
78351W        W39805  24.479  11.271   3.202
78352W        W39806  24.666  18.754  12.065
78353W        W39807  40.008   0.362   1.294
78354W        W39808  36.005  42.362   3.250
78355W        W39809   0.780  17.120  13.388
78356W        W39810  10.751   1.259   3.365
78357W        W39811   2.949   8.243   2.358
78358W        W39812   9.657  30.616   4.301
78359W        W39813  42.400  37.066   0.939
78360W        W39814  23.115  36.359  11.572
78361W        W39815  34.073  42.031   1.340
78362W        W39816  41.968   1.473  14.023
78363W        W39817  31.423  33.945  13.394
78364W        W39818  43.007  42.803   9.946
78365W        W39819  40.537  19.278  14.006
78366W        W39820   8.829  38.369  13.328
78367W        W39821  17.143   3.350   3.727
78368W        W39822  22.176  17.142   0.793
78369W        W39823  21.690  41.806  13.970
78370W        W39824  14.781  36.363  12.003
78371W        W39825  11.626  35.949   0.304
78372W        W39826  18.750  14.117   3.654
78373W        W39827  24.017  11.144  11.437
78374W        W39828  19.714  36.546   4.745
78375W        W39829  14.781  20.153  11.057
78376W        W39830   4.890  12.740   4.277
78377W        W39831  37.955  16.576  12.408
78378W        W39832  11.700  38.559   3.286
78379W        W39833  40.942  20.034  14.967
78380W        W39834  34.484  38.431  11.511
78381W        W39835  38.996  13.115  11.885
78382W        W39836   4.292  27.122   2.372
78383W        W39837  39.832  21.131   4.773
78384W        W39838  41.488  44.414  12.039
78385W        W39839   2.835  30.451   4.341
78386W        W39840  34.412  40.020  12.421
78387W        W39841  32.086  21.602  12.407
78388W        W39842  30.619  10.184  12.909
78389W        W39843  20.665  16.675  12.944
78390W        W39844  44.972  25.199   1.826
78391W        W39845  10.244  14.766  14.940
78392W        W39846  20.557  23.063   2.301
78393W        W39847  28.038  18.176  13.394
78394W        W39848  15.307  39.920  14.825
78395W        W39849  33.129  30.601  13.353
78396W        W39850  21.683  25.001   4.253
78397W        W39851  40.944  25.485  13.967
78398W        W39852  34.025  10.369   3.739
78399W        W39853  29.015  35.442  11.399
78400W        W39854   8.779  41.790  14.875
78401W        W39855  40.027  29.010  13.500
78402W        W39856   5.369  40.931   4.673
78403W        W39857  17.648  35.534   0.754
78404W        W39858  13.350  22.642  10.454
78405W        W39859   5.352  37.407   1.290
78406W        W39860  24.554   0.845  10.415
78407W        W39861   0.752  44.443   0.810
78408W        W39862  34.410  22.690   1.331
78409W        W39863  38.855  10.270   1.245
78410W        W39864  34.444  17.226  12.428
78411W        W39865  41.424  24.063   3.379
78412W        W39866  20.697  40.469  10.936
78413W        W39867   8.852  37.394   3.260
78414W        W39868  19.281  36.079   2.737
78415W        W39869  20.540  22.082  12.040
78416W        W39870  19.613  27.956   2.690
78417W        W39871  36.500  19.132   2.732
78418W        W39872  28.015  12.216   1.821
78419W        W39873  43.331   3.410   2.402
78420W        W39874  44.338  23.159   4.786
78421W        W39875  40.503   5.736   4.806
78422W        W39876  17.587  10.351  10.575
78423W        W39877  37.031  19.591   0.259
78424W        W39878   1.760  21.728  11.560
78425W        W39879  29.637  12.628   1.212
78426W        W39880  36.912   4.242  13.802
78427W        W39881   6.881   0.253  12.065
78428W        W39882  43.938   0.489   1.359
78429W        W39883  34.996  27.520  11.884
78430W        W39884   6.819   6.689   1.919
78431W        W39885   1.743  26.047   0.380
78432W        W39886   2.331  30.589   3.324
78433W        W39887  16.584  12.617   0.806
78434W        W39888  40.916  11.817  13.490
78435W        W39889  33.095  18.138  12.849
78436W        W39890  30.072  27.621  14.417
78437W        W39891  23.731   3.764   4.235
78438W        W39892  19.234  43.772  14.966
78439W        W39893  39.058  16.265  12.420
78440W        W39894  41.420   5.352   4.716
78441W        W39895  39.963  40.467   3.716
78442W        W39896  41.445  38.843  13.805
78443W        W39897  42.369  11.822  13.321
78444W        W39898   8.865  41.435   4.119
78445W        W39899  30.449  26.206   3.849
78446W        W39900  15.723  26.504   1.365
78447W        W39901  13.285  17.796   2.886
78448W        W39902   7.690  38.036  12.517
78449W        W39903  37.001  40.951   1.344
78450W        W39904   8.836  17.254  14.028
78451W        W39905  12.853  25.012   4.209
78452W        W39906  40.513   5.720  11.936
78453W        W39907  28.150  35.524   3.225
78454W        W39908  17.636  29.919   3.739
78455W        W39909  28.159   2.273   4.722
78456W        W39910  33.539   7.273  12.428
78457W        W39911  29.467  18.145   2.794
78458W        W39912  44.938  38.985  11.902
78459W        W39913  33.454  42.865  12.018
78460W        W39914  44.297  30.575  13.473
78461W        W39915   3.735  43.387   3.851
78462W        W39916  28.125   1.311   9.941
78463W        W39917  35.522  38.032  14.926
78464W        W39918   5.823  17.207  14.310
78465W        W39919   0.325  11.700   4.764
78466W        W39920  11.329   0.882  10.892
78467W        W39921  22.112  40.466   4.766
78468W        W39922  10.673  22.690  14.330
78469W        W39923  43.415   5.823  11.069
78470W        W39924  33.550  26.974  12.866
78471W        W39925  13.312   6.739   2.883
78472W        W39926  34.019  21.094  10.456
78473W        W39927  20.071  13.631  11.907
78474W        W39928  36.018  10.352  11.125
78475W        W39929  16.740   9.251  12.826
78476W        W39930  37.407  26.157   4.754
78477W        W39931  37.390  32.451   0.853
78478W        W39932   0.842  33.555  10.619
78479W        W39933  27.621  10.253  13.045
78480W        W39934  17.611  20.061  11.960
78481W        W39935  33.398  15.312   2.779
78482W        W39936   3.897  43.871   0.278
78483W        W39937   3.793  37.456   1.215
78484W        W39938  11.202  11.345   2.218
78485W        W39939  31.646   6.808   0.962
78486W        W39940  39.509  21.259  10.449
78487W        W39941  29.446  37.336   1.839
78488W        W39942  11.839  22.613  14.956
78489W        W39943  40.320   4.888   1.232
78490W        W39944  42.353  11.129   3.373
78491W        W39945  15.173  14.767   3.854
78492W        W39946  17.204  18.783  12.893
78493W        W39947   1.441  15.164   2.712
78494W        W39948   7.193  25.201  14.984
78495W        W39949  19.688   5.874  13.385
78496W        W39950  11.855  36.468  14.398
78497W        W39951  14.746  29.953  13.358
78498W        W39952  30.076   4.943  11.610
78499W        W39953  21.567  39.857  14.941
78500W        W39954  41.947   1.453   0.285
78501W        W39955  36.990   0.445   2.235
78502W        W39956  29.590  24.603   0.883
78503W        W39957  23.504  37.561   1.318
78504W        W39958  13.803  14.159  12.888
78505W        W39959  35.952  20.713   0.882
78506W        W39960  34.563   6.301   2.810
78507W        W39961  43.377  17.735  11.382
78508W        W39962   5.365  16.141  13.354
78509W        W39963   6.313  36.551   3.315
78510W        W39964   7.374  11.299  14.470
78511W        W39965  18.106  15.234   1.338
78512W        W39966  19.717   2.384   0.967
78513W        W39967  41.419   9.160  12.027
78514W        W39968  11.757  37.835  11.452
78515W        W39969  33.976  15.121  13.953
78516W        W39970   1.255   7.876   1.929
78517W        W39971  15.697  27.626  13.340
78518W        W39972   9.353  15.697   1.240
78519W        W39973  14.776  10.272   3.378
78520W        W39974  41.351  13.308  12.523
78521W        W39975  40.371  36.412  11.569
78522W        W39976   7.724   8.329  12.018
78523W        W39977  15.108  13.711  12.451
78524W        W39978  22.119  34.471   1.450
78525W        W39979   5.850  37.522   1.863
78526W        W39980  27.113  41.877  13.382
78527W        W39981  10.198  22.102  12.503
78528W        W39982   5.805   6.705  14.347
78529W        W39983  30.916  12.324   2.788
78530W        W39984  21.134  17.118  13.428
78531W        W39985  23.547  14.804   1.315
78532W        W39986  35.913  44.320   2.413
78533W        W39987  12.353  32.008   3.186
78534W        W39988  25.639  19.084   0.755
78535W        W39989  34.414  32.433  11.608
78536W        W39990  25.059  15.147   4.300
78537W        W39991  35.924   7.241   1.363
78538W        W39992  37.980   8.856   9.979
78539W        W39993  11.271  19.715   9.668
78540W        W39994   4.418  44.950  12.989
78541W        W39995  43.776  12.694  14.357
78542W        W39996  30.110  11.640  12.410
78543W        W39997  37.908   5.438   3.667
78544W        W39998  23.989   3.241   2.226
78545W        W39999  24.003  21.568   0.732
78546W        W40000  17.253  27.607  12.874
78547W        W40001   4.417  24.692  13.808
78548W        W40002  18.172  34.603   0.483
78549W        W40003  33.442   0.810   1.930
78550W        W40004  21.619  30.088   2.376
78551W        W40005  25.966   3.421   2.240
78552W        W40006  21.240  41.829  12.405
78553W        W40007  12.206  18.550   4.728
78554W        W40008  23.030  30.499  11.967
78555W        W40009  31.004  22.523   3.751
78556W        W40010   5.694  24.510   3.698
78557W        W40011  30.631  35.860  13.501
78558W        W40012  39.990  22.200   1.215
78559W        W40013   3.349  40.441   5.166
78560W        W40014  37.410  36.443   4.245
78561W        W40015  41.478  23.114  12.095
78562W        W40016  12.735   7.191  11.502
78563W        W40017  32.993  26.626  11.963
78564W        W40018  10.170  21.254  13.429
78565W        W40019  21.064  19.184  10.509
78566W        W40020  18.738   0.823  14.437
78567W        W40021  17.251  23.127  12.981
78568W        W40022  18.789  34.373   3.379
78569W        W40023   5.885  11.650  12.469
78570W        W40024  22.746   9.881   2.675
78571W        W40025  19.283   6.354   3.786
78572W        W40026  28.021  39.923  11.895
78573W        W40027  11.753  15.776  12.857
78574W        W40028  16.187  31.061   4.746
78575W        W40029  39.323  11.680   4.124
78576W        W40030   8.761  10.659   4.820
78577W        W40031  35.089  27.576  10.446
78578W        W40032   5.263   8.305   0.745
78579W        W40033  21.622   5.262   0.869
78580W        W40034  15.124  18.075  14.891
78581W        W40035  13.728   8.770  11.573
78582W        W40036  16.271  28.468  11.014
78583W        W40037  44.864  20.632  10.423
78584W        W40038  37.504  36.894  12.953
78585W        W40039  40.897  35.040   3.712
78586W        W40040  41.383  13.241  10.981
78587W        W40041  31.137  35.542  12.524
78588W        W40042   2.864  41.910  13.520
78589W        W40043  35.903   2.722  11.585
78590W        W40044  37.373   2.901   4.682
78591W        W40045   5.299   6.826   2.718
78592W        W40046  44.325  12.857  13.004
78593W        W40047  22.243  40.821  13.436
78594W        W40048   9.854  40.934  12.016
78595W        W40049  36.475  10.383  14.865
78596W        W40050   3.426  15.213  10.080
78597W        W40051  21.560   3.748  11.876
78598W        W40052  37.862  23.231   0.283
78599W        W40053  23.008  35.498  13.343
78600W        W40054  17.764  11.320   4.736
78601W        W40055  13.702  18.155   1.258
78602W        W40056   2.401  43.385  11.069
78603W        W40057  33.611  14.715  12.400
78604W        W40058  31.466  14.257  12.541
78605W        W40059   2.417  28.507   3.719
78606W        W40060   6.283  32.986   0.959
78607W        W40061  27.576  25.689   0.742
78608W        W40062  13.206   2.862   2.201
78609W        W40063   9.747  26.180   0.285
78610W        W40064   9.784   9.681  12.452
78611W        W40065   4.910  37.385  14.473
78612W        W40066   1.474  28.483  11.963
78613W        W40067  13.838  28.989  13.368
78614W        W40068  11.790  17.655  14.441
78615W        W40069  33.460   0.439   3.309
78616W        W40070  22.105  40.451   1.855
78617W        W40071  31.583  39.386   3.791
78618W        W40072  30.976  11.186   3.823
78619W        W40073  18.703  40.917   3.659
78620W        W40074  35.547  40.994   4.324
78621W        W40075   4.442  16.271   0.432
78622W        W40076  39.463   8.770   4.606
78623W        W40077  24.533   9.189   0.791
78624W        W40078  35.555  25.596  13.347
78625W        W40079  28.166  30.941  10.938
78626W        W40080  36.019  19.220  14.496
78627W        W40081  32.934   7.847   1.915
78628W        W40082  13.739  14.178   1.216
78629W        W40083   0.982  21.211   2.817
78630W        W40084  30.938  38.978  14.787
78631W        W40085  26.156  11.693   3.714
78632W        W40086  25.147   0.423   2.811
78633W        W40087  40.013  21.551  14.374
78634W        W40088  29.533  39.424   2.410
78635W        W40089  20.748  19.771  12.068
78636W        W40090  20.591   5.826  14.506
78637W        W40091  12.188  40.912   2.875
78638W        W40092  11.867  17.305   4.284
78639W        W40093   7.728  44.489  11.936
78640W        W40094  29.004   0.767   3.254
78641W        W40095   3.866  16.172   2.276
78642W        W40096  41.864  35.881   2.345
78643W        W40097  42.474  32.907  14.768
78644W        W40098  29.148  19.048  10.566
78645W        W40099  38.947  33.450   4.618
78646W        W40100   0.346  21.639   1.861
78647W        W40101  28.935  37.432   3.819
78648W        W40102  39.475  30.603  11.607
78649W        W40103   6.855  15.611  13.859
78650W        W40104  42.425  31.091   3.227
78651W        W40105  16.768  34.038   4.201
78652W        W40106   8.891  36.095   4.633
78653W        W40107  25.594  33.489  14.893
78654W        W40108  11.724   5.808  13.340
78655W        W40109  33.557  21.062   2.801
78656W        W40110   0.274  19.199   0.478
78657W        W40111  17.743   4.247   3.766
78658W        W40112  13.113  44.452   0.967
78659W        W40113   5.241  11.138   1.338
78660W        W40114  42.997   0.449   3.687
78661W        W40115  34.076  30.628  12.899
78662W        W40116  34.094  17.760  12.401
78663W        W40117   9.153  16.803  13.381
78664W        W40118  33.494  38.849  12.424
78665W        W40119  30.537  20.764   1.903
78666W        W40120  39.061   8.796   1.695
78667W        W40121  21.596  44.356   3.282
78668W        W40122   9.724  10.167  11.105
78669W        W40123  16.580   5.373  14.355
78670W        W40124   1.239  20.040  12.357
78671W        W40125  34.405   3.339   4.251
78672W        W40126  14.699  33.919  11.995
78673W        W40127  22.135  11.215   0.892
78674W        W40128  34.054  16.645   4.319
78675W        W40129   4.917  23.096  12.408
78676W        W40130  32.004  33.532   2.835
78677W        W40131  33.405  13.622  14.413
78678W        W40132   3.895   6.315   2.294
78679W        W40133  35.444  32.588   1.261
78680W        W40134  37.050   4.903   1.285
78681W        W40135  31.532   3.714   1.733
78682W        W40136  37.417   9.658  13.410
78683W        W40137  34.087   5.929   2.188
78684W        W40138  23.115  36.520   2.715
78685W        W40139   3.366   7.776   2.408
78686W        W40140  30.983   2.364  14.500
78687W        W40141  11.348  12.188  11.514
78688W        W40142  44.403   3.937  12.964
78689W        W40143  11.179  24.066  13.400
78690W        W40144   3.756  31.901   4.695
78691W        W40145  43.791  31.499  11.004
78692W        W40146  30.060  11.360  12.446
78693W        W40147  44.920  37.942  10.559
78694W        W40148  12.651   6.905  13.538
78695W        W40149   0.751  23.678  12.453
78696W        W40150  35.584   1.796   1.309
78697W        W40151  30.619   5.276   1.291
78698W        W40152  42.373  39.332  13.014
78699W        W40153  29.494   2.341  14.357
78700W        W40154  18.546  24.097   3.242
78701W        W40155   2.384  26.177   3.353
78702W        W40156   1.263   4.725  12.556
78703W        W40157  41.359  41.326  10.943
78704W        W40158  14.323  13.131   4.242
78705W        W40159   7.897   0.335   3.276
78706W        W40160  32.048  44.373   2.278
78707W        W40161  17.184   6.389   1.343
78708W        W40162  14.230  19.756   5.223
78709W        W40163  41.526  33.981   4.126
78710W        W40164  32.541   9.237  14.440
78711W        W40165   0.446  12.236   0.900
78712W        W40166  18.673  40.410   0.789
78713W        W40167  40.890  27.117  11.435
78714W        W40168  18.558   6.321   1.755
78715W        W40169  14.589  24.132  11.444
78716W        W40170   6.277  44.985   4.802
78717W        W40171  32.612  33.590   0.255
78718W        W40172  42.806  16.212   3.187
78719W        W40173  37.962  32.417   3.371
78720W        W40174  24.167   9.170   1.434
78721W        W40175  42.487  41.421  14.358
78722W        W40176   6.261  39.845   0.831
78723W        W40177  27.147  39.937   4.182
78724W        W40178   8.341   4.257   4.270
78725W        W40179  20.055   9.253   1.833
78726W        W40180  16.306  35.087   0.941
78727W        W40181  29.141   5.220  11.459
78728W        W40182  14.722  20.093   4.723
78729W        W40183  28.080  36.012   3.217
78730W        W40184   2.884  36.494   0.761
78731W        W40185  19.090  40.933  11.515
78732W        W40186  24.663  40.493  12.092
78733W        W40187  27.066  13.606   3.858
78734W        W40188  29.108  43.422   0.254
78735W        W40189  28.115   5.922  13.918
78736W        W40190  17.649  27.519   1.842
78737W        W40191  37.569   3.420   3.356
78738W        W40192  35.019   5.896   2.707
78739W        W40193   8.656  34.561  14.922
78740W        W40194  35.054  17.228  12.443
78741W        W40195  37.406  23.662  13.348
78742W        W40196  39.365  34.570  12.054
78743W        W40197  31.406  32.445  11.888
78744W        W40198   7.894  40.866   0.727
78745W        W40199  35.022  42.957  10.109
78746W        W40200  30.583  23.215  11.610
78747W        W40201  38.888  15.807  14.293
78748W        W40202  18.703  13.279   3.174
78749W        W40203  35.449  13.768   4.673
78750W        W40204  28.597  11.771   1.255
78751W        W40205  41.474  13.620  10.413
78752W        W40206  24.198   3.936   0.791
78753W        W40207  43.008  30.655   0.356
78754W        W40208  24.108  29.995  12.076
78755W        W40209   5.315  20.269  10.968
78756W        W40210  39.004  18.058   3.195
78757W        W40211  27.662  24.515  11.905
78758W        W40212  33.421   3.424  14.976
78759W        W40213  13.154  29.168  12.399
78760W        W40214  15.233  40.505   1.868
78761W        W40215  11.769  35.966   0.819
78762W        W40216  23.197  17.698   0.284
78763W        W40217  39.394  35.047   3.178
78764W        W40218   4.880  28.121   1.373
78765W        W40219   7.417  38.431  14.784
78766W        W40220   1.776   1.889   3.696
78767W        W40221  35.604  26.045   4.776
78768W        W40222  42.476   3.844   2.332
78769W        W40223  14.161  22.118  14.330
78770W        W40224  41.518  25.692  10.555
78771W        W40225  32.040  20.621   3.198
78772W        W40226  16.793  39.910  13.530
78773W        W40227   9.697  29.463  13.801
78774W        W40228  18.218  19.602   1.352
78775W        W40229   0.947  12.184  11.987
78776W        W40230  32.121   2.327  11.564
78777W        W40231  21.108  23.547   2.739
78778W        W40232  14.246  17.137  14.828
78779W        W40233   0.810  10.712   1.813
78780W        W40234   7.294  24.706  10.438
78781W        W40235  35.000  24.116  11.611
78782W        W40236  33.399  37.429   1.755
78783W        W40237  12.311  39.014   0.404
78784W        W40238  10.338  20.275  14.814
78785W        W40239   6.315  25.634   0.267
78786W        W40240  42.328  43.964   2.280
78787W        W40241  22.581  34.563   3.296
78788W        W40242  12.808   0.343  12.372
78789W        W40243  21.245  36.523  12.078
78790W        W40244  18.282  33.442   0.361
78791W        W40245  40.992  19.226  12.867
78792W        W40246  28.969  21.097   3.193
78793W        W40247  23.673   5.391   3.238
78794W        W40248  38.839  37.938   4.670
78795W        W40249  39.550  34.389  14.963
78796W        W40250  20.692   4.806   1.443
78797W        W40251  25.489  44.804  12.468
78798W        W40252   9.305  11.199  14.487
78799W        W40253  27.027   0.948  13.969
78800W        W40254  18.102  22.055  12.095
78801W        W40255   4.290   8.882   3.793
78802W        W40256   2.427  29.021  11.607
78803W        W40257  32.914   3.885   3.235
78804W        W40258  35.076   8.783  12.963
78805W        W40259   5.891  24.546   3.245
78806W        W40260   5.890  26.484  12.963
78807W        W40261   7.398  38.441  10.605
78808W        W40262  19.157  10.641   4.277
78809W        W40263  20.679  22.137   1.298
78810W        W40264  24.639  14.176  13.840
78811W        W40265  22.022  23.010  11.536
78812W        W40266  30.145  25.491  13.342
78813W        W40267  11.649   8.378  11.542
78814W        W40268  33.455  38.053  12.377
78815W        W40269  28.153  42.523   2.732
78816W        W40270  35.914  26.018   0.917
78817W        W40271  27.055  11.272   4.321
78818W        W40272  36.850  35.422  11.461
78819W        W40273  43.306  43.270   3.705
78820W        W40274   1.862   2.247  12.856
78821W        W40275  15.638  35.531  13.438
78822W        W40276  10.179  40.924  10.415
78823W        W40277  23.213  10.770  11.527
78824W        W40278  10.236   8.186   2.709
78825W        W40279  42.429  30.497  10.587
78826W        W40280  40.803  28.000  12.386
78827W        W40281  11.789  27.690   0.402
78828W        W40282   0.401  29.101   0.962
78829W        W40283   8.285  31.127   0.796
78830W        W40284  22.598  42.814   0.782
78831W        W40285  27.503   1.879   3.768
78832W        W40286  24.058   0.781  14.933
78833W        W40287   1.481   6.416  11.988
78834W        W40288  20.555   2.959  10.550
78835W        W40289  41.312  44.356  14.378
78836W        W40290  32.430   0.268  11.920
78837W        W40291  34.455  28.614   0.455
78838W        W40292  26.532  21.520   4.161
78839W        W40293   4.733  12.785  11.579
78840W        W40294  37.015  16.758  14.758
78841W        W40295  27.942  17.681  11.459
78842W        W40296   2.353  21.243   2.197
78843W        W40297  38.040  14.659  12.455
78844W        W40298  39.417   1.911   1.357
78845W        W40299  35.487  26.596  12.927
78846W        W40300  40.422  42.495   0.255
78847W        W40301  31.914  28.532  11.498
78848W        W40302  18.242   3.726  11.588
78849W        W40303  43.426  13.713   0.330
78850W        W40304  20.599  25.574   0.763
78851W        W40305  17.248   9.164   4.337
78852W        W40306   6.242  34.413   1.777
78853W        W40307   9.746  22.107  14.345
78854W        W40308  32.012  26.066   3.644
78855W        W40309   0.769  20.170   4.684
78856W        W40310   3.935  40.862   1.733
78857W        W40311   8.380  14.141   0.327
78858W        W40312   8.831  18.253   3.819
78859W        W40313  16.141  36.014  14.916
78860W        W40314  19.550   7.203  13.405
78861W        W40315  30.997  41.035   0.917
78862W        W40316  31.083  33.951  12.972
78863W        W40317  37.992   3.800  12.398
78864W        W40318  25.509  33.029  13.381
78865W        W40319  29.111  18.741  10.893
78866W        W40320   4.807  16.689  10.549
78867W        W40321   4.282  34.922  12.845
78868W        W40322  26.008  44.480  12.488
78869W        W40323  21.259  32.074   2.254
78870W        W40324  44.360   6.792  14.470
78871W        W40325  42.790  40.516   4.300
78872W        W40326  12.198  42.471   2.377
78873W        W40327  13.625  38.007   4.809
78874W        W40328  29.961  22.194  14.388
78875W        W40329  19.552  27.000   4.763
78876W        W40330  17.688   1.890  14.348
78877W        W40331  29.047  28.492  12.033
78878W        W40332  24.548  27.974   2.740
78879W        W40333  13.114  22.652  11.555
78880W        W40334  16.096  17.655   3.703
78881W        W40335  25.079  30.564   2.357
78882W        W40336  25.190  24.009  14.434
78883W        W40337  24.707  33.062   4.237
78884W        W40338  24.676  14.726   2.741
78885W        W40339  29.525  31.030   1.255
78886W        W40340  22.627  25.610   0.286
78887W        W40341  20.138   8.325  14.515
78888W        W40342  36.013  33.622  12.077
78889W        W40343  23.094  39.425  11.456
78890W        W40344  31.482   4.801   1.808
78891W        W40345  15.204  38.884   3.271
78892W        W40346   5.898  10.731   1.888
78893W        W40347  36.571  36.094   1.309
78894W        W40348  37.906  42.782   4.301
78895W        W40349  41.495  20.193  12.455
78896W        W40350  28.529  42.481  12.826
78897W        W40351  19.110  19.576  14.347
78898W        W40352   2.271  26.096   2.329
78899W        W40353  11.646  39.386   0.887
78900W        W40354   5.211   5.300   3.663
78901W        W40355  13.816  26.457  13.440
78902W        W40356  35.559   9.181   1.790
78903W        W40357  18.197  22.170  13.038
78904W        W40358  38.552  20.071   1.325
78905W        W40359  40.804  43.889   1.378
78906W        W40360   2.927  42.949   2.412
78907W        W40361   0.351   0.283   4.702
78908W        W40362  31.555  25.124  13.931
78909W        W40363  31.909  21.137  12.527
78910W        W40364  26.141  40.432  14.297
78911W        W40365  23.054  37.049   0.837
78912W        W40366  21.248  40.012  11.558
78913W        W40367  18.259  44.804   2.785
78914W        W40368  37.548  23.692  14.872
78915W        W40369   3.222  18.694  14.275
78916W        W40370  33.401  23.589  13.524
78917W        W40371  31.426  26.568  13.496
78918W        W40372  31.096  33.125  11.434
78919W        W40373  24.153  15.099  13.395
78920W        W40374  12.706  36.525   4.270
78921W        W40375  15.261  43.326   1.374
78922W        W40376  38.016   8.173   3.257
78923W        W40377   4.772  37.452   5.293
78924W        W40378  19.279   4.440   4.185
78925W        W40379  36.422  42.915   1.844
78926W        W40380   2.899  26.090   4.759
78927W        W40381  28.008  33.046   5.252
78928W        W40382  37.850  18.736   3.761
78929W        W40383  29.081   7.833  12.045
78930W        W40384  23.666  25.169   2.218
78931W        W40385  31.151  20.675  13.493
78932W        W40386  18.584  14.617   1.916
78933W        W40387  40.958   4.944   1.909
78934W        W40388  25.514  13.805   2.409
78935W        W40389  28.081  20.591  12.495
78936W        W40390   9.676  41.364  11.940
78937W        W40391   4.216  21.750  11.396
78938W        W40392   6.692  25.187   0.739
78939W        W40393  22.682  30.491   3.817
78940W        W40394  27.588   4.390  13.520
78941W        W40395   6.320  13.650  12.552
78942W        W40396   4.431  39.055   2.711
78943W        W40397  23.594  19.744  10.947
78944W        W40398  12.139   4.795   2.319
78945W        W40399  42.472  13.658   0.802
78946W        W40400  38.989   8.884  10.592
78947W        W40401  43.839  22.107   2.272
78948W        W40402  40.984   8.231  11.867
78949W        W40403  29.012  12.847  11.453
78950W        W40404  15.199  13.338  12.864
78951W        W40405  10.363   6.292   1.218
78952W        W40406   8.667   3.887   1.732
78953W        W40407  17.164  24.493  14.464
78954W        W40408   3.861  24.115  11.401
78955W        W40409   2.780  35.061   4.312
78956W        W40410  31.483  34.998  14.506
78957W        W40411  23.651  38.949   2.245
78958W        W40412  23.200  31.100  12.429
78959W        W40413  21.033  29.934  10.909
78960W        W40414  14.815  42.988   5.744
78961W        W40415  22.586  42.442   2.390
78962W        W40416  12.136  10.785  13.505
78963W        W40417  41.988  14.687  11.546
78964W        W40418   0.962  35.947  10.507
78965W        W40419  41.328  39.339   3.766
78966W        W40420  39.508  13.282  11.914
78967W        W40421  30.513  11.352   1.929
78968W        W40422  33.923  19.726  11.907
78969W        W40423  16.178  35.871   4.770
78970W        W40424  11.770  20.689   2.219
78971W        W40425  32.526  13.744  11.449
78972W        W40426  25.124  30.433  12.516
78973W        W40427  34.006  17.566   4.154
78974W        W40428  18.647  35.576   0.387
78975W        W40429  41.312  20.162  12.957
78976W        W40430  10.346  40.991   9.615
78977W        W40431   9.333  19.264   2.823
78978W        W40432  24.050  12.169  14.466
78979W        W40433  34.485  39.537  11.972
78980W        W40434   6.322   8.718   4.724
78981W        W40435   7.909  32.896  10.063
78982W        W40436  20.579  35.942   0.934
78983W        W40437  36.483  44.386   1.381
78984W        W40438  42.282  42.314   3.786
78985W        W40439  24.146   6.810  14.394
78986W        W40440  32.529  13.346  12.034
78987W        W40441  14.161  35.439  12.847
78988W        W40442  40.436  26.702   3.334
78989W        W40443  40.953  34.401  12.509
78990W        W40444  35.430  38.416   0.327
78991W        W40445  42.504  16.258   1.282
78992W        W40446  17.677  31.608   0.812
78993W        W40447  20.110  36.055  14.997
78994W        W40448  34.012  10.705   9.469
78995W        W40449   2.309   5.781  14.394
78996W        W40450  12.814  40.842  11.610
78997W        W40451  35.996  39.938   3.834
78998W        W40452  31.408   4.313   1.854
78999W        W40453  37.992   8.175  13.412
79000W        W40454  38.542  25.215  14.484
79001W        W40455  14.741  22.049   3.859
79002W        W40456  18.617  12.821   0.460
79003W        W40457  42.320  22.105   3.213
79004W        W40458  36.409  43.016   3.689
79005W        W40459  37.889  13.309   2.282
79006W        W40460  20.692  37.871   2.693
79007W        W40461  24.997  21.161  14.852
79008W        W40462  11.223  29.175   3.710
79009W        W40463   8.273  28.023  10.971
79010W        W40464  18.784   4.369  13.387
79011W        W40465  38.003  33.903  14.936
79012W        W40466  25.491   9.346   3.255
79013W        W40467  10.809  22.145   1.325
79014W        W40468  16.645  19.742  10.491
79015W        W40469  23.583   0.365   1.387
79016W        W40470  38.424  17.556   4.200
79017W        W40471   1.784  21.740   4.282
79018W        W40472  36.484  43.283  10.953
79019W        W40473  44.283  41.297  11.576
79020W        W40474  34.526  41.338   2.215
79021W        W40475  41.485   6.240   2.394
79022W        W40476   1.358  42.394  14.998
79023W        W40477  14.278  17.572   4.192
79024W        W40478   7.848  15.791   2.198
79025W        W40479  23.992  34.060  11.596
79026W        W40480  22.742  37.460  11.510
79027W        W40481  14.268  40.895   0.926
79028W        W40482   5.821   3.216  12.020
79029W        W40483  18.785  27.103  14.853
79030W        W40484  18.591   9.750  14.971
79031W        W40485  34.057  40.526  13.483
79032W        W40486  21.074  11.177  12.891
79033W        W40487  33.394  10.684  11.991
79034W        W40488  43.835   8.687   0.367
79035W        W40489  16.198  22.125   0.325
79036W        W40490  31.478  27.496  10.544
79037W        W40491   9.212  17.618  14.812
79038W        W40492   6.230  34.021  14.023
79039W        W40493  23.587   9.749  11.017
79040W        W40494  32.118  43.309  12.347
79041W        W40495  18.097  25.198   1.845
79042W        W40496   9.798  30.558   4.759
79043W        W40497  30.006  18.604   2.837
79044W        W40498  37.416   9.833  12.513
79045W        W40499  25.600  30.535  14.311
79046W        W40500  21.555   2.782   3.207
79047W        W40501  11.843  32.106   9.946
79048W        W40502   5.319  38.334  13.832
79049W        W40503  40.339   8.873   0.298
79050W        W40504   9.236  37.536   4.727
79051W        W40505  42.913  21.114   3.154
79052W        W40506  31.988   1.932   3.750
79053W        W40507  28.442   2.444  10.919
79054W        W40508  13.608  27.039   1.711
79055W        W40509  35.586  21.667  10.548
79056W        W40510  29.999  13.803   2.296
79057W        W40511  21.752  24.153  12.864
79058W        W40512  34.612  14.296   2.239
79059W        W40513  42.824  18.742   5.187
79060W        W40514  18.191  37.367  11.376
79061W        W40515  36.933  13.688  14.801
79062W        W40516  36.888  11.190   4.674
79063W        W40517   3.415   7.831  13.854
79064W        W40518  14.337  16.223  12.893
79065W        W40519  28.522  14.826  12.933
79066W        W40520  44.886  33.060  11.514
79067W        W40521  29.608   5.716  11.890
79068W        W40522  17.616  21.648   0.389
79069W        W40523  28.569   6.196   3.716
79070W        W40524  32.557   3.734   4.731
79071W        W40525   5.307  25.201  14.020
79072W        W40526   6.332  12.354  11.882
79073W        W40527  12.671   2.727  13.063
79074W        W40528   4.436  17.222   0.244
79075W        W40529  42.446  23.511   4.641
79076W        W40530  28.516  39.005   1.800
79077W        W40531  26.493   5.370   2.803
79078W        W40532  16.233  37.050  11.861
79079W        W40533  24.016  18.680   0.463
79080W        W40534  40.321  23.142   0.948
79081W        W40535  29.026  44.452  13.471
79082W        W40536   5.253  40.806  11.444
79083W        W40537  24.574  28.647   2.768
79084W        W40538  36.078  37.973   1.747
79085W        W40539  12.354  17.740  10.002
79086W        W40540  16.766  17.627   0.404
79087W        W40541  43.019  28.517  14.964
79088W        W40542  21.045   8.398   1.892
79089W        W40543  42.342  26.560   4.600
79090W        W40544  44.852  26.977  11.120
79091W        W40545  36.453  40.883  14.768
79092W        W40546  35.532  24.206   0.322
79093W        W40547  42.937   8.325   4.783
79094W        W40548  12.231  13.669   1.851
79095W        W40549  43.838  31.136  14.323
79096W        W40550  14.150  27.190   2.879
79097W        W40551  43.977   4.931   0.936
79098W        W40552  25.979  32.084  11.441
79099W        W40553  15.815  12.846   1.314
79100W        W40554  36.534  41.348  11.556
79101W        W40555  25.100  33.002  13.955
79102W        W40556   7.250  39.925  13.836
79103W        W40557  42.378   8.818   0.895
79104W        W40558  25.213   8.889   0.360
79105W        W40559   4.258   6.701   3.817
79106W        W40560  33.926  12.787  12.937
79107W        W40561  28.102  28.514  14.927
79108W        W40562  15.749  37.563   1.338
79109W        W40563  44.432  31.930   5.114
79110W        W40564  24.575  39.060   3.242
79111W        W40565  34.405  15.696  10.101
79112W        W40566  36.482  36.553   3.828
79113W        W40567  14.647  36.452  13.002
79114W        W40568  22.521  29.542  12.979
79115W        W40569  36.060  38.544   3.157
79116W        W40570  30.597  21.666   3.284
79117W        W40571  21.104  33.501   0.340
79118W        W40572  36.545  20.028   0.877
79119W        W40573   5.768  37.425   4.619
79120W        W40574  30.415   4.776   1.918
79121W        W40575   4.249  39.861   4.722
79122W        W40576  17.134  40.865  13.818
79123W        W40577  30.624  30.024   3.167
79124W        W40578  27.147  38.057  12.456
79125W        W40579  43.475  19.064  11.606
79126W        W40580  36.080  22.130  13.063
79127W        W40581   3.894  15.767  14.382
79128W        W40582  15.191  32.502   1.798
79129W        W40583  42.990  40.548   0.341
79130W        W40584  27.691   6.238   5.189
79131W        W40585  28.560   3.324  13.003
79132W        W40586  22.587  43.875   1.355
79133W        W40587  33.611  28.435   2.302
79134W        W40588  43.868  43.862  13.467
79135W        W40589   1.952   9.197   1.423
79136W        W40590   1.359  18.782   0.966
79137W        W40591  11.763  17.082  11.384
79138W        W40592  37.419  25.581   1.245
79139W        W40593  10.695  32.141   1.734
79140W        W40594  19.086  19.636   1.854
79141W        W40595  21.672  37.519   4.754
79142W        W40596  14.780  43.018   2.389
79143W        W40597  23.995  25.568   3.175
79144W        W40598  21.624  33.007   1.311
79145W        W40599  30.046  20.691   3.636
79146W        W40600  24.187  41.425  11.888
79147W        W40601   0.371   3.897   0.456
79148W        W40602  39.415   6.830   2.212
79149W        W40603  28.941  12.831  12.443
79150W        W40604   9.326  24.646   3.221
79151W        W40605   9.838  35.491   5.627
79152W        W40606  26.568  25.524   4.281
79153W        W40607   7.823  16.172   1.835
79154W        W40608  28.946  30.040  13.908
79155W        W40609  15.094  32.998   2.215
79156W        W40610   5.702  44.456  12.415
79157W        W40611  41.869  38.475  14.930
79158W        W40612  36.420   3.755   4.278
79159W        W40613  17.584  21.636  10.453
79160W        W40614  10.812  20.132  10.035
79161W        W40615  29.494   3.216   0.874
79162W        W40616  14.759  34.510  11.412
79163W        W40617  29.937  26.014   0.839
79164W        W40618   2.314  15.097  14.017
79165W        W40619  23.217  14.824  13.880
79166W        W40620   5.244  36.961  13.818
79167W        W40621  28.979  10.841  13.397
79168W        W40622  37.436   5.264  14.814
79169W        W40623   1.842  17.698   3.181
79170W        W40624   3.845  31.403  14.445
79171W        W40625  42.029  33.037  12.512
79172W        W40626  20.699   6.797  11.446
79173W        W40627  43.446  11.824  12.934
79174W        W40628  30.573  41.451  11.875
79175W        W40629  25.183  29.529  12.424
79176W        W40630  21.099  14.828  11.911
79177W        W40631  40.884  38.910  12.840
79178W        W40632  19.058  25.173   2.190
79179W        W40633  42.777  42.402   0.425
79180W        W40634  41.812  38.512  12.378
79181W        W40635  30.574  40.441   4.211
79182W        W40636  16.673  27.195  12.431
79183W        W40637  11.760   3.865   1.211
79184W        W40638  19.146  25.044  14.367
79185W        W40639  27.599  24.976   1.242
79186W        W40640  39.951  35.462   1.297
79187W        W40641  24.717  15.744   4.184
79188W        W40642  16.086  14.119   3.650
79189W        W40643  44.282  14.832   3.649
79190W        W40644   3.320  35.090  12.392
79191W        W40645  41.379  23.111  12.567
79192W        W40646  19.077  31.592   2.286
79193W        W40647  37.357  43.954  14.318
79194W        W40648  32.401   6.259  10.913
79195W        W40649   6.717  19.107   0.847
79196W        W40650  36.941  30.016  11.412
79197W        W40651  25.687   1.376  12.542
79198W        W40652  17.120  21.030  12.974
79199W        W40653   8.320   7.221   0.760
79200W        W40654  40.399  21.083  11.894
79201W        W40655  31.474  30.939  10.923
79202W        W40656  20.622  35.894   3.149
79203W        W40657  31.524   9.675   5.223
79204W        W40658   5.788   5.338   4.756
79205W        W40659  18.274   4.258  13.018
79206W        W40660  28.025  36.030  12.049
79207W        W40661  18.176   8.170   1.860
79208W        W40662  25.469  19.208   1.741
79209W        W40663  24.204  37.975   0.456
79210W        W40664   5.746   2.316   1.741
79211W        W40665   8.190  25.681   0.314
79212W        W40666  43.799  29.594  11.100
79213W        W40667   8.717  23.582  11.400
79214W        W40668   9.717  38.870  13.830
79215W        W40669  19.687  36.465  11.542
79216W        W40670  42.884   0.764   3.374
79217W        W40671  31.430  42.346  14.817
79218W        W40672   2.794  38.893  11.070
79219W        W40673  26.978  31.984  10.582
79220W        W40674  34.581  27.579   1.830
79221W        W40675  23.149  37.362   0.406
79222W        W40676  26.172  29.961   0.371
79223W        W40677  31.906  24.996  11.051
79224W        W40678  28.048  13.830   2.669
79225W        W40679   0.892   1.375  14.327
79226W        W40680  23.164  23.051   4.248
79227W        W40681  27.197  35.894  14.343
79228W        W40682   0.753  17.274   3.855
79229W        W40683  40.849  24.078  11.084
79230W        W40684   0.339  42.413  10.482
79231W        W40685  43.320  41.028   4.740
79232W        W40686  43.378   1.296  12.027
79233W        W40687  38.441   9.260  13.995
79234W        W40688  14.827   5.322  11.496
79235W        W40689   2.850  41.981   3.668
79236W        W40690  22.106  21.248  12.557
79237W        W40691  32.619  16.734   2.703
79238W        W40692  39.953  19.120  12.893
79239W        W40693  42.894  10.201  12.930
79240W        W40694   1.461   1.286  14.954
79241W        W40695  37.950  43.788  14.985
79242W        W40696  25.497  21.252  13.877
79243W        W40697  29.426  43.009   2.200
79244W        W40698   3.350  37.532  12.059
79245W        W40699  10.814  12.252   0.253
79246W        W40700   0.850   0.315  10.147
79247W        W40701  20.119   0.290   9.947
79248W        W40702   8.694   4.876  14.780
79249W        W40703  42.447  38.360  11.982
79250W        W40704  40.363   8.818  14.781
79251W        W40705   8.278  35.370   9.975
79252W        W40706  23.577  29.644   4.248
79253W        W40707  24.171  15.686  11.910
79254W        W40708  40.310  42.871   0.900
79255W        W40709  39.822  25.117  11.402
79256W        W40710   0.960   5.430  11.417
79257W        W40711  11.265   7.806   2.730
79258W        W40712   2.320   6.232   0.943
79259W        W40713  12.316   0.255  13.410
79260W        W40714  12.714  30.072   4.736
79261W        W40715  44.463  14.722   2.250
79262W        W40716  34.093   0.260   4.606
79263W        W40717  18.787  19.204   4.309
79264W        W40718   4.877  34.949   3.862
79265W        W40719  25.216  20.736  12.066
79266W        W40720  25.184  11.136   4.828
79267W        W40721  26.955  27.943   4.766
79268W        W40722   7.772  33.616   2.728
79269W        W40723  36.889   8.193   1.791
79270W        W40724  12.626  33.018  11.605
79271W        W40725  25.217  20.065  13.814
79272W        W40726  32.081  16.264  10.952
79273W        W40727  23.024  33.565   0.391
79274W        W40728  23.574  44.786  10.963
79275W        W40729  40.988   7.401   0.396
79276W        W40730  27.515  20.523   4.616
79277W        W40731  17.146  35.080   2.769
79278W        W40732  27.154  22.207   4.638
79279W        W40733  40.422  36.957  13.532
79280W        W40734  14.153  24.711  13.343
79281W        W40735   2.810  24.675  12.941
79282W        W40736  36.932  21.614   3.740
79283W        W40737  19.220  32.613  10.440
79284W        W40738  40.424  26.166   0.395
79285W        W40739  44.381  22.510   0.270
79286W        W40740   1.858  19.667  10.925
79287W        W40741  11.228   9.877  10.622
79288W        W40742  36.560  27.542   3.686
79289W        W40743  17.305   6.691   2.694
79290W        W40744  18.636  26.146   4.229
79291W        W40745   3.902   4.281   0.332
79292W        W40746  21.049   6.187   0.835
79293W        W40747  17.763  14.794  13.504
79294W        W40748  21.531  24.634  13.861
79295W        W40749  19.237  35.473   0.739
79296W        W40750   6.183  19.578  12.498
79297W        W40751   9.348  37.878  12.386
79298W        W40752  33.491   8.808  13.025
79299W        W40753   5.914   1.258  10.601
79300W        W40754  23.616  14.330   1.769
79301W        W40755  30.968  34.409  10.485
79302W        W40756   7.906   7.321  12.072
79303W        W40757  12.127  14.814  10.405
79304W        W40758   2.891   2.778   2.371
79305W        W40759  35.074   9.351   2.245
79306W        W40760   0.249  18.295   2.364
79307W        W40761   8.370  44.867   2.408
79308W        W40762   8.361  13.656   3.784
79309W        W40763   8.257  33.953   3.724
79310W        W40764  40.898  25.093   0.244
79311W        W40765  14.622  38.940  12.849
79312W        W40766  19.054   5.261   1.699
79313W        W40767  34.562  37.935   4.345
79314W        W40768  15.761   4.927  12.018
79315W        W40769  28.947  18.275  13.963
79316W        W40770  38.332  32.976  13.349
79317W        W40771  20.672  15.086   2.673
79318W        W40772  44.467  42.509  13.810
79319W        W40773  41.991   2.316  13.855
79320W        W40774   2.910  10.241  12.480
79321W        W40775  14.804  11.184  13.515
79322W        W40776  31.587  16.666  12.374
79323W        W40777  13.660  31.132   1.785
79324W        W40778  41.873  33.879   1.270
79325W        W40779  15.270  26.604  13.543
79326W        W40780  31.406  40.849   0.864
79327W        W40781  10.781   9.216   4.698
79328W        W40782  11.365  22.033   4.256
79329W        W40783  16.689  37.918   2.346
79330W        W40784  27.083  22.641   3.267
79331W        W40785  22.142  10.805  13.486
79332W        W40786  32.601  23.500  11.940
79333W        W40787  21.058   6.873  10.992
79334W        W40788   8.248   7.182   1.741
79335W        W40789  17.256  32.961  12.509
79336W        W40790  43.303  19.766  10.567
79337W        W40791  16.634   0.864   0.783
79338W        W40792  37.961   0.326   2.339
79339W        W40793  22.659  12.272   1.712
79340W        W40794  19.080  32.021  11.430
79341W        W40795  19.589   7.261   3.235
79342W        W40796  31.441   3.724  10.971
79343W        W40797  27.036  30.138   0.745
79344W        W40798  33.965  10.205   3.356
79345W        W40799  24.647  12.856   1.451
79346W        W40800  25.627  42.888   5.248
79347W        W40801  15.155  15.138   2.771
79348W        W40802  28.002  34.948   4.609
79349W        W40803   3.328  10.250  13.507
79350W        W40804  37.442  15.273  14.505
79351W        W40805  12.826  43.269  14.787
79352W        W40806   8.349   6.345   0.428
79353W        W40807  44.322  41.832   1.404
79354W        W40808  43.284  21.688   0.748
79355W        W40809  26.595  29.620  14.010
79356W        W40810   1.407  36.412  11.491
79357W        W40811   6.863  18.718  11.041
79358W        W40812  14.755  28.066   9.932
79359W        W40813  41.849   2.236  10.641
79360W        W40814  23.544   8.392   1.788
79361W        W40815  16.710  38.864   0.466
79362W        W40816  44.434  35.924  10.037
79363W        W40817  24.100  19.188  10.999
79364W        W40818  11.138  43.950  11.858
79365W        W40819  44.378  29.659   0.844
79366W        W40820  20.130  18.764  14.383
79367W        W40821   5.196  29.493   3.818
79368W        W40822  18.069   0.455  11.888
79369W        W40823  25.566  40.937   3.345
79370W        W40824  34.493   4.316  10.583
79371W        W40825  26.962  29.072   1.779
79372W        W40826  39.498  15.218   4.206
79373W        W40827  34.894  33.390   9.934
79374W        W40828  21.696  39.516   0.733
79375W        W40829  36.368  25.644  10.966
79376W        W40830  32.530   0.433   4.627
79377W        W40831  32.982  20.690   4.347
79378W        W40832   8.807  31.579  10.623
79379W        W40833  11.317  15.208   4.184
79380W        W40834  41.822  25.498   3.196
79381W        W40835  43.920   9.355   2.257
79382W        W40836  25.118   4.321  14.512
79383W        W40837  27.097  34.503   0.922
79384W        W40838  21.686  24.537   0.897
79385W        W40839  24.045  33.609   4.202
79386W        W40840  17.202  19.702   2.849
79387W        W40841  36.419  22.591   3.843
79388W        W40842  13.228   9.756   4.212
79389W        W40843  35.012  43.450   2.341
79390W        W40844  14.593  42.909   5.215
79391W        W40845  25.582   4.827   5.225
79392W        W40846  37.540  20.711   0.470
79393W        W40847   3.364  16.181   4.163
79394W        W40848  21.139  35.880   1.745
79395W        W40849  42.480  17.105  12.928
79396W        W40850  18.667   0.795   3.202
79397W        W40851  24.215  25.160  12.437
79398W        W40852   3.906  42.436  14.325
79399W        W40853  12.692  19.272   0.291
79400W        W40854   0.890  10.189   5.124
79401W        W40855   3.738   6.264  14.309
79402W        W40856  41.821  19.563  12.915
79403W        W40857  31.423  29.424  14.892
79404W        W40858  44.487  41.351   3.379
79405W        W40859  36.097   4.799   4.601
79406W        W40860   8.284  36.391   0.459
79407W        W40861  43.336  42.900   1.426
79408W        W40862  32.005  11.241   2.881
79409W        W40863  41.447  18.771  10.904
79410W        W40864  32.571  34.015   4.304
79411W        W40865  43.352   9.868  11.509
79412W        W40866  12.172  44.318  10.149
79413W        W40867  21.106  17.267   2.313
79414W        W40868  21.546  17.722   1.769
79415W        W40869  31.074  32.459   0.398
79416W        W40870  21.664   3.821  10.459
79417W        W40871  24.103  32.583   3.351
79418W        W40872  39.809  24.178   1.346
79419W        W40873   0.254  26.002   0.864
79420W        W40874  11.760  25.136   4.678
79421W        W40875  25.542   8.658  12.058
79422W        W40876  37.067  37.369   5.249
79423W        W40877  43.789  10.188   0.864
79424W        W40878  24.120  30.427   3.276
79425W        W40879  33.387  35.904  11.605
79426W        W40880  30.440  31.035  13.806
79427W        W40881  22.092  32.565  11.905
79428W        W40882  11.321   1.419   1.733
79429W        W40883  17.691  32.572  12.997
79430W        W40884  14.729  44.449  12.960
79431W        W40885   9.818   0.876   4.600
79432W        W40886  44.279  19.624  12.990
79433W        W40887  34.049  26.107   1.750
79434W        W40888   6.736   6.884   4.698
79435W        W40889  29.166   6.196   4.241
79436W        W40890  18.769  29.934  14.412
79437W        W40891  30.420  44.799   2.251
79438W        W40892  13.697  31.443   3.788
79439W        W40893  26.515  35.454  11.445
79440W        W40894   9.868  21.681   1.264
79441W        W40895  20.657  35.376   0.461
79442W        W40896  34.431  28.626  14.816
79443W        W40897  28.051  22.238   0.415
79444W        W40898  16.109   5.245   2.292
79445W        W40899  43.497  40.474  12.383
79446W        W40900  39.420   0.831  13.307
79447W        W40901  37.052  19.088   2.412
79448W        W40902  43.390   5.337  14.935
79449W        W40903   7.258  42.912   3.148
79450W        W40904  32.071  31.980  11.010
79451W        W40905  10.302  38.007  12.950
79452W        W40906   6.883  24.661   4.230
79453W        W40907  30.535  21.611  13.487
79454W        W40908  13.625  35.421   1.237
79455W        W40909  16.691  38.882  10.920
79456W        W40910  13.806  16.319   4.818
79457W        W40911  17.701  11.273   0.400
79458W        W40912  24.161  15.278  10.554
79459W        W40913  33.598  42.511  14.001
79460W        W40914  16.281  41.499  11.971
79461W        W40915   4.239  26.611   1.756
79462W        W40916  33.585  10.780  11.000
79463W        W40917   5.907   8.378   4.755
79464W        W40918  36.038  21.205  10.415
79465W        W40919  25.537   2.244   0.858
79466W        W40920  34.053   1.245   4.690
79467W        W40921   0.948   2.426   3.250
79468W        W40922  13.229  39.960  14.430
79469W        W40923  28.675   6.385  11.598
79470W        W40924  22.165  26.642  13.472
79471W        W40925   7.821  36.886   0.825
79472W        W40926  17.695  17.599   3.342
79473W        W40927  23.611  32.630  14.786
79474W        W40928  40.867  43.841   2.787
79475W        W40929   4.757  17.573   4.115
79476W        W40930  40.341  28.660   1.336
79477W        W40931  16.078  14.305   9.995
79478W        W40932  42.468  26.070   4.191
79479W        W40933  14.813   1.826  12.525
79480W        W40934  31.154   8.329  11.458
79481W        W40935  39.437  40.388  10.951
79482W        W40936   8.265   2.438  14.802
79483W        W40937  27.951  31.639  10.556
79484W        W40938   3.369  18.281   3.350
79485W        W40939  39.044  17.658  13.883
79486W        W40940  12.225  34.888   4.290
79487W        W40941  15.085  18.261  13.468
79488W        W40942   9.377  30.981   2.406
79489W        W40943  19.148   6.783  12.504
79490W        W40944  28.098  17.563   2.412
79491W        W40945  19.193  35.486  14.378
79492W        W40946   5.315   7.228   1.761
79493W        W40947   9.239  30.148  12.521
79494W        W40948  25.633  26.567   4.673
79495W        W40949  25.559  35.537  14.502
79496W        W40950   2.766  33.566   1.219
79497W        W40951   4.384   8.693  14.851
79498W        W40952  25.557  17.640   1.912
79499W        W40953  39.878  37.456   0.296
79500W        W40954   3.385  40.974   1.398
79501W        W40955  33.910  27.589   0.738
79502W        W40956  15.213  21.040  14.778
79503W        W40957   0.463  31.005   2.315
79504W        W40958  41.340   6.710   2.823
79505W        W40959  35.978  22.008  14.434
79506W        W40960   4.275  22.578  11.933
79507W        W40961  44.335  29.120   2.743
79508W        W40962   9.160   7.218   3.200
79509W        W40963  14.635  31.970   2.250
79510W        W40964   9.811  19.717   9.456
79511W        W40965  11.374  12.256  14.397
79512W        W40966  24.666  34.513  10.035
79513W        W40967   1.470  11.217   0.268
79514W        W40968   5.219  43.480   3.169
79515W        W40969  22.019  24.001   2.419
79516W        W40970  27.191  44.900   1.734
79517W        W40971   1.921  33.383   0.422
79518W        W40972   2.321  31.407   3.310
79519W        W40973  24.137   6.286   2.770
79520W        W40974  33.024  20.595  12.924
79521W        W40975  16.631  13.178   1.786
79522W        W40976  27.540  20.747   3.283
79523W        W40977   6.742  43.342   4.173
79524W        W40978  14.215  18.700  11.932
79525W        W40979   6.369   9.216   0.770
79526W        W40980  21.227  44.877   0.770
79527W        W40981   0.424   8.685  12.433
79528W        W40982  34.950  17.202  10.608
79529W        W40983   4.766  44.833  14.928
79530W        W40984  25.641  29.499  10.106
79531W        W40985  43.277  10.210  12.856
79532W        W40986  14.668  17.686  10.573
79533W        W40987  15.791  39.878  11.434
79534W        W40988  26.065  18.728   0.463
79535W        W40989  16.180  10.154   9.579
79536W        W40990  15.691  39.380  13.922
79537W        W40991  18.283  36.994  14.762
79538W        W40992  38.426  38.832  10.932
79539W        W40993  44.858  32.065   2.261
79540W        W40994  14.652  39.422  11.412
79541W        W40995  33.897  19.226  10.407
79542W        W40996  12.851  27.971  12.417
79543W        W40997  32.585  36.973   4.192
79544W        W40998  26.104  34.579  12.912
79545W        W40999  16.731  10.867   3.200
79546W        W41000   1.358  12.647   1.253
79547W        W41001  38.888  12.806  12.414
79548W        W41002  18.252  43.308   0.380
79549W        W41003   6.257  31.557   3.301
79550W        W41004  15.313   8.867   3.674
79551W        W41005  31.135  11.215  14.939
79552W        W41006  33.383  23.173  11.559
79553W        W41007  32.002  37.501   3.241
79554W        W41008  43.507  29.985  13.804
79555W        W41009  17.248  27.616  14.814
79556W        W41010  44.283  37.373  12.952
79557W        W41011  31.957  16.304   1.776
79558W        W41012  29.975  23.027   9.938
79559W        W41013  30.941  16.806  14.860
79560W        W41014  41.309  16.110  11.607
79561W        W41015  43.873  43.338  13.538
79562W        W41016  10.303   8.213  11.094
79563W        W41017  37.429  32.986   3.280
79564W        W41018   7.394  39.415  11.887
79565W        W41019  20.667  18.241  11.560
79566W        W41020  21.683  34.913   3.301
79567W        W41021  19.169   3.280   3.770
79568W        W41022   1.475   2.285  11.861
79569W        W41023  41.869  16.092   2.666
79570W        W41024   4.847  38.980   1.299
79571W        W41025   2.283  23.630  11.593
79572W        W41026  11.633  11.225   4.659
79573W        W41027   3.357  17.764  14.458
79574W        W41028  32.540   8.887   3.654
79575W        W41029  10.332  42.777   2.362
79576W        W41030   1.236  30.101  11.971
79577W        W41031  39.479   9.262   1.762
79578W        W41032  28.474  44.309  12.397
79579W        W41033  25.543  34.493   2.745
79580W        W41034  35.983  17.065  10.436
79581W        W41035  27.552  11.293   4.610
79582W        W41036  15.241   0.352   1.870
79583W        W41037  10.278  27.106  13.841
79584W        W41038  13.846   9.711  12.050
79585W        W41039  16.114  35.494  13.331
79586W        W41040   4.745  13.195  14.883
79587W        W41041  32.589  29.588  11.878
79588W        W41042  18.680  35.399   4.634
79589W        W41043  31.433  36.998  14.425
79590W        W41044  28.147   9.785   3.178
79591W        W41045   0.911  24.218  14.297
79592W        W41046   4.734  23.556   0.945
79593W        W41047  30.916  37.372  14.431
79594W        W41048  21.730  13.212   3.740
79595W        W41049  15.618  14.102  13.914
79596W        W41050   4.393  28.025   3.690
79597W        W41051  17.247  32.443   0.422
79598W        W41052  14.125   9.755   3.308
79599W        W41053   3.739  27.062  13.445
79600W        W41054  16.139  27.132  10.449
79601W        W41055   4.445   2.380   3.286
79602W        W41056  17.082   2.937   2.898
79603W        W41057   3.286   8.198   0.329
79604W        W41058  33.592  34.394   1.424
79605W        W41059  18.138   3.854   3.761
79606W        W41060  41.486  28.984  13.054
79607W        W41061  10.161  26.672  13.545
79608W        W41062  18.762  11.668   2.716
79609W        W41063  32.012   9.311  14.843
79610W        W41064  22.193  37.064   1.324
79611W        W41065   3.947  36.940   1.343
79612W        W41066  23.990  15.087   3.184
79613W        W41067  30.478  22.587   2.250
79614W        W41068  39.924   5.912  10.514
79615W        W41069  33.420  39.849  11.578
79616W        W41070  33.569   0.755   5.292
79617W        W41071  27.641  17.765  10.642
79618W        W41072  38.483  39.524  10.129
79619W        W41073  18.684  41.961   0.941
79620W        W41074  42.494  33.439  12.907
79621W        W41075  10.366  40.964   0.947
79622W        W41076  39.866   8.707   1.390
79623W        W41077  15.808   9.711  10.902
79624W        W41078  31.613  33.994   1.769
79625W        W41079  24.532  15.600   1.228
79626W        W41080  11.344  27.484   0.381
79627W        W41081   0.912  10.666  13.994
79628W        W41082  44.394  11.722   2.413
79629W        W41083  43.913  27.602  13.528
79630W        W41084  42.021  21.737  10.478
79631W        W41085  15.311   1.265   0.930
79632W        W41086  36.358   7.192  11.104
79633W        W41087  22.534  15.263  11.442
79634W        W41088  40.958  37.518  14.881
79635W        W41089  36.415  36.868  13.331
79636W        W41090  33.476  40.436   0.369
79637W        W41091   0.785  15.687   2.316
79638W        W41092   1.797  41.323  13.895
79639W        W41093   5.358  11.250   2.401
79640W        W41094   7.850  32.614  14.392
79641W        W41095   4.782  14.732   4.329
79642W        W41096  24.712  42.478   4.258
79643W        W41097  35.043  41.494  12.371
79644W        W41098   2.450  40.008  12.852
79645W        W41099  28.079  30.591  11.390
79646W        W41100  36.963   1.832   0.896
79647W        W41101  26.597   0.924   3.734
79648W        W41102  29.603   1.404  13.968
79649W        W41103  33.131  16.715  14.379
79650W        W41104  29.503  11.777  12.835
79651W        W41105  32.101  44.450   1.786
79652W        W41106  19.551   2.872  14.872
79653W        W41107   5.215   5.193  12.472
79654W        W41108  44.501   4.429   3.217
79655W        W41109  17.731  40.476  14.302
79656W        W41110   3.418  35.554   4.600
79657W        W41111  23.997  22.719  13.410
79658W        W41112  14.120  43.952   4.623
79659W        W41113  35.885  21.032   1.888
79660W        W41114   7.218  35.385   3.212
79661W        W41115   2.786   1.856  14.285
79662W        W41116  30.979  12.314   5.140
79663W        W41117  28.016  22.192  11.887
79664W        W41118  18.696  15.824   1.736
79665W        W41119  31.987   6.813  10.457
79666W        W41120  39.517  17.617  13.424
79667W        W41121  41.523  34.479   0.901
79668W        W41122  40.329   7.695   2.227
79669W        W41123  44.378  26.057  11.599
79670W        W41124  18.554   4.816   5.106
79671W        W41125  24.995   3.394  10.590
79672W        W41126  34.872   8.846   4.342
79673W        W41127  10.714  36.046   1.349
79674W        W41128  17.633   5.329   0.769
79675W        W41129  43.782   8.843  13.849
79676W        W41130  15.776  21.032   3.656
79677W        W41131  34.548  31.135   2.718
79678W        W41132   8.216  29.105   3.855
79679W        W41133  28.598  14.779  11.920
79680W        W41134  39.856  26.967  10.615
79681W        W41135   9.368  18.074  14.900
79682W        W41136   6.277  29.577  12.573
79683W        W41137   0.905   0.976   4.612
79684W        W41138  23.200  17.704  10.477
79685W        W41139  25.985  17.192  13.952
79686W        W41140   5.277  15.693  11.100
79687W        W41141  10.293  13.818  11.949
79688W        W41142  43.325  37.349   5.096
79689W        W41143  39.863   0.314  12.084
79690W        W41144  12.713  43.317  11.579
79691W        W41145   1.923  36.868   3.172
79692W        W41146  34.951  30.909   2.368
79693W        W41147   6.823   5.792  10.476
79694W        W41148  34.550   8.886   1.270
79695W        W41149   4.300  15.655  11.891
79696W        W41150  18.097  31.493   0.831
79697W        W41151  19.586   3.259   1.381
79698W        W41152  30.628  41.825  14.503
79699W        W41153  17.086  37.834  10.950
79700W        W41154  15.600  27.538  11.421
79701W        W41155  21.028  27.487  10.552
79702W        W41156  37.888  23.502   3.350
79703W        W41157  44.355  11.708   3.796
79704W        W41158  22.675  29.159   1.846
79705W        W41159  30.423   0.942  14.926
79706W        W41160  14.653   4.320  11.076
79707W        W41161  23.698  30.497   3.300
79708W        W41162  31.423  15.636  11.455
79709W        W41163  32.970  28.452   1.855
79710W        W41164  37.864  37.492   1.788
79711W        W41165  15.231  13.217  12.058
79712W        W41166   8.848  17.756   1.775
79713W        W41167   0.272  30.971   1.395
79714W        W41168  33.965  27.451   3.158
79715W        W41169  28.136  39.440  11.542
79716W        W41170  42.837  31.096  14.284
79717W        W41171   3.275  10.653   2.279
79718W        W41172  32.887   1.400   4.160
79719W        W41173  30.947  17.770  14.794
79720W        W41174  22.213   9.260   3.290
79721W        W41175  14.292  22.727   4.220
79722W        W41176  14.764   2.919   4.748
79723W        W41177   6.232  29.555  14.835
79724W        W41178  17.068   4.232   2.772
79725W        W41179   1.306  37.350   3.731
79726W        W41180  10.848   8.296  12.485
79727W        W41181  34.086  26.002   3.678
79728W        W41182  26.166  31.925  14.417
79729W        W41183  23.988   9.283   1.772
79730W        W41184  31.614  14.823   1.743
79731W        W41185   5.286  20.122  11.525
79732W        W41186   2.752  32.570  11.496
79733W        W41187   1.756  36.893  13.839
79734W        W41188  28.647  33.523   3.283
79735W        W41189  25.203  34.903  10.632
79736W        W41190  35.984  36.068  13.326
79737W        W41191   9.703  40.486  14.845
79738W        W41192  18.128  33.058  11.507
79739W        W41193  22.707  40.402   2.216
79740W        W41194  10.270  42.503   2.839
79741W        W41195  32.964  36.508  11.904
79742W        W41196   5.337  29.135   4.245
79743W        W41197  27.162   0.803  11.943
79744W        W41198  30.152  21.552   2.220
79745W        W41199  15.102   7.391  13.509
79746W        W41200  37.567  16.669   1.700
79747W        W41201   9.349   7.319   2.274
79748W        W41202  33.406   8.751   3.226
79749W        W41203  34.114  38.443   4.194
79750W        W41204  23.076  38.048   4.705
79751W        W41205  35.902  44.353  14.334
79752W        W41206  11.748   0.414  11.558
79753W        W41207  11.188  25.693  11.572
79754W        W41208  16.079  14.813  14.894
79755W        W41209  40.479  38.451  10.603
79756W        W41210  21.210  42.474   3.241
79757W        W41211  22.138  36.398  10.473
79758W        W41212  44.778  42.908   4.764
79759W        W41213  36.953  36.994   3.197
79760W        W41214  25.612  28.494   2.294
79761W        W41215  32.404  34.462   4.152
79762W        W41216  24.597  25.078   0.748
79763W        W41217  42.448  34.107   2.746
79764W        W41218  28.082   8.256  10.586
79765W        W41219  30.655  18.575   3.293
79766W        W41220  36.919   9.703   4.634
79767W        W41221   0.743   0.827   4.217
79768W        W41222  39.029   6.810  12.981
79769W        W41223  18.214  30.162  12.372
79770W        W41224  36.849  22.504  14.966
79771W        W41225  31.121  21.514  13.927
79772W        W41226  10.781  12.661   1.725
79773W        W41227  16.792   0.322   1.867
79774W        W41228  19.620  35.544   4.141
79775W        W41229  31.136  41.906   2.408
79776W        W41230   9.351  23.572  11.454
79777W        W41231  40.877   1.958  10.430
79778W        W41232  28.972   3.247  11.606
79779W        W41233  33.572  31.474   0.397
79780W        W41234  14.307  27.533   4.738
79781W        W41235  33.032  44.324  14.936
79782W        W41236  14.111  41.786   1.451
79783W        W41237   4.944  33.039   1.245
79784W        W41238  39.467  20.592  11.044
79785W        W41239  22.721   1.325  11.987
79786W        W41240  27.661  44.829  12.440
79787W        W41241  43.879   2.390  12.995
79788W        W41242  26.161  14.206   4.128
79789W        W41243   3.928  16.719   0.920
79790W        W41244  29.092  12.249  10.906
79791W        W41245   4.445   0.750  12.468
79792W        W41246  42.425  32.462  10.502
79793W        W41247   5.779   9.373   3.816
79794W        W41248  18.101   3.936  11.895
79795W        W41249  41.898  17.708  10.988
79796W        W41250  25.707  43.341   1.237
79797W        W41251   7.762  23.645   3.792
79798W        W41252   4.802  19.182  12.007
79799W        W41253  27.001  21.225   4.774
79800W        W41254  27.017  27.058   4.674
79801W        W41255  26.663   1.959   0.888
79802W        W41256  28.079  34.921  10.493
79803W        W41257   6.204  22.069   2.774
79804W        W41258  14.152  23.041  13.931
79805W        W41259  41.815   6.738  11.410
79806W        W41260  37.932  41.349   4.113
79807W        W41261  30.472   4.393   1.887
79808W        W41262   4.357   2.760  14.893
79809W        W41263  30.536  19.668  11.408
79810W        W41264  43.335  37.013   3.815
79811W        W41265  39.422   8.324   1.446
79812W        W41266  20.243  10.299   1.351
79813W        W41267   8.826  24.981   3.676
79814W        W41268  31.969  13.152   4.828
79815W        W41269  40.893   0.475   4.817
79816W        W41270  17.201  37.580  14.799
79817W        W41271  24.064  40.333  12.474
79818W        W41272  30.994  30.627  10.942
79819W        W41273  28.109  35.987  10.491
79820W        W41274  31.558  43.372   1.395
79821W        W41275  20.746  27.629   0.775
79822W        W41276  37.926  32.997   2.805
79823W        W41277  39.419  36.897  10.112
79824W        W41278  26.558   8.349   4.215
79825W        W41279  31.644   7.404   4.789
79826W        W41280  43.365   5.392   2.808
79827W        W41281   7.668  20.751  13.950
79828W        W41282  44.323  12.647   4.348
79829W        W41283   0.314  34.073  14.460
79830W        W41284  36.062  21.610   2.336
79831W        W41285  28.049  37.038   2.679
79832W        W41286   1.257   9.380  10.920
79833W        W41287  35.870  24.635   1.444
79834W        W41288  43.458   5.741  10.538
79835W        W41289  24.118   1.871   4.761
79836W        W41290  20.543  22.175   3.739
79837W        W41291  22.175  41.936   0.297
79838W        W41292  20.066  34.593  14.828
79839W        W41293   0.404   1.811  11.006
79840W        W41294  20.535  29.440   2.728
79841W        W41295   6.207  14.192   2.234
79842W        W41296  23.175  34.033   0.300
79843W        W41297  29.429  12.260  14.432
79844W        W41298  11.672  13.821   0.390
79845W        W41299  30.993  42.857   1.321
79846W        W41300  42.865  33.528  14.469
79847W        W41301  29.452   6.316  10.906
79848W        W41302   3.451  42.493  14.910
79849W        W41303  10.139   5.419  10.898
79850W        W41304  40.918  10.203   0.454
79851W        W41305  30.451  17.663   0.406
79852W        W41306  15.633  17.302   5.318
79853W        W41307   2.804   7.863  14.961
79854W        W41308  28.116  10.852   3.809
79855W        W41309  36.918   9.330   3.225
79856W        W41310  26.683  11.633   3.735
79857W        W41311  35.396  24.160   4.312
79858W        W41312  27.968  40.954   4.615
79859W        W41313  39.007  29.519  13.971
79860W        W41314  22.124  10.159  12.398
79861W        W41315   7.228  11.157   1.350
79862W        W41316  37.037  28.105  12.067
79863W        W41317   1.382  35.016   3.353
79864W        W41318  19.071  41.826   0.949
79865W        W41319   4.384  40.021   1.328
79866W        W41320  17.758  40.376  11.923
79867W        W41321  34.508  33.046  14.904
79868W        W41322  40.932  27.072  14.892
79869W        W41323  30.088   4.407  10.925
79870W        W41324  23.223  39.480   3.753
79871W        W41325  33.086   2.931  14.987
79872W        W41326  32.429  21.538  10.899
79873W        W41327  26.202  18.602  10.997
79874W        W41328  28.112  14.339   0.429
79875W        W41329   6.788  37.948  12.342
79876W        W41330   9.263  18.681  11.069
79877W        W41331  44.409  35.929  12.047
79878W        W41332  14.680  32.429   2.697
79879W        W41333  22.520  13.215  12.868
79880W        W41334  24.689  12.777  13.502
79881W        W41335  31.081   8.777  14.031
79882W        W41336  25.554  42.359   4.334
79883W        W41337  24.642  22.045   0.822
79884W        W41338  12.311  19.146  10.978
79885W        W41339  16.568  41.341  14.940
79886W        W41340   2.448  16.100  14.287
79887W        W41341   6.211  33.095   2.677
79888W        W41342  11.743  42.886   2.305
79889W        W41343  13.806  20.162   2.705
79890W        W41344  25.647  10.763   1.824
79891W        W41345   0.850   2.399   1.383
79892W        W41346   5.303  24.207  11.880
79893W        W41347  30.968   5.814   9.928
79894W        W41348  11.808  22.512   0.751
79895W        W41349  15.745  33.528  12.340
79896W        W41350  34.120  15.149   2.292
79897W        W41351   5.194  40.448   4.813
79898W        W41352  30.445  14.741   4.349
79899W        W41353  10.791  22.570   3.771
79900W        W41354   1.861  16.648   0.290
79901W        W41355  36.397  40.426  14.371
79902W        W41356  40.915  19.135  13.357
79903W        W41357  43.811   8.195  11.098
79904W        W41358  10.283  41.882   0.811
79905W        W41359  39.976   0.949  11.480
79906W        W41360   8.675  36.530  11.504
79907W        W41361  20.712  42.294   4.678
79908W        W41362  31.082  42.782  10.545
79909W        W41363  20.652  19.285   3.156
79910W        W41364  38.049  10.230  14.509
79911W        W41365  11.641  30.478   0.464
79912W        W41366  22.542   7.296   3.186
79913W        W41367  10.140  38.395  11.607
79914W        W41368  28.435   8.207   0.906
79915W        W41369   3.318  30.439  12.463
79916W        W41370  20.070  42.506  10.535
79917W        W41371  27.068  29.138  13.458
79918W        W41372  32.019  10.695   1.699
79919W        W41373  39.968   2.440  14.935
79920W        W41374  20.580   4.400  11.954
79921W        W41375  10.866   2.469   2.684
79922W        W41376  27.038   6.865  12.019
79923W        W41377  35.046  20.758   3.818
79924W        W41378  37.970  43.299   1.350
79925W        W41379  14.757  30.590  11.591
79926W        W41380  18.294  27.551   3.713
79927W        W41381  19.215  24.682   3.838
79928W        W41382  33.959  36.578   0.886
79929W        W41383  21.244  14.239   3.680
79930W        W41384  31.454   1.743  10.430
79931W        W41385  27.944  19.165   0.369
79932W        W41386   4.386  37.987  13.001
79933W        W41387  27.123  13.344  11.533
79934W        W41388  12.353  10.847  14.378
79935W        W41389   0.911  12.132   2.717
79936W        W41390  39.892  12.856   3.682
79937W        W41391   0.307  23.020   1.451
79938W        W41392  32.957   6.337  11.483
79939W        W41393  30.591  22.675  11.576
79940W        W41394  15.183  16.760   4.700
79941W        W41395  31.642  30.153  10.952
79942W        W41396  19.255  11.303   0.915
79943W        W41397  22.642  20.233   3.866
79944W        W41398   9.232  30.968  10.591
79945W        W41399   2.882   3.393  14.025
79946W        W41400  16.093  31.929   2.331
79947W        W41401  30.058  12.674  14.317
79948W        W41402  33.934   3.928  13.342
79949W        W41403   7.667  26.119  12.446
79950W        W41404  34.528  38.352   3.836
79951W        W41405  43.850  14.127   3.213
79952W        W41406   8.205  39.886   2.804
79953W        W41407  14.299   4.912   0.809
79954W        W41408  25.656  11.665  14.512
79955W        W41409  14.316  23.599   0.384
79956W        W41410  24.688  21.667  14.937
79957W        W41411   3.952  32.113   1.923
79958W        W41412  27.989  21.662   4.176
79959W        W41413  37.918   6.221  13.890
79960W        W41414  12.751  18.587  13.341
79961W        W41415  32.598  28.140   1.779
79962W        W41416  41.811  17.575   1.813
79963W        W41417  10.836  33.886   0.266
79964W        W41418  24.698  34.979  14.961
79965W        W41419  13.719   1.898  14.504
79966W        W41420   7.861  40.037  12.877
79967W        W41421  26.200  37.455  10.067
79968W        W41422  42.348   2.963   1.237
79969W        W41423  18.694  21.259  13.343
79970W        W41424  43.873  14.689  14.896
79971W        W41425  11.831  36.001  10.109
79972W        W41426  20.249   6.246  10.458
79973W        W41427  31.049  21.754   2.306
79974W        W41428   4.314  20.108  12.039
79975W        W41429   6.856  18.563   0.277
79976W        W41430  40.319   7.782   2.896
79977W        W41431  33.927   4.315  14.880
79978W        W41432   8.875   3.253  10.529
79979W        W41433  10.160  22.190   5.234
79980W        W41434  21.244  26.050   3.699
79981W        W41435  13.331   0.827  11.542
79982W        W41436  41.844  12.183  11.019
79983W        W41437  11.260  40.873  12.382
79984W        W41438  21.227  19.609   2.408
79985W        W41439  12.157  13.614   1.238
79986W        W41440  24.681   2.967   5.102
79987W        W41441   9.371  44.997   0.831
79988W        W41442   1.880  11.266   4.224
79989W        W41443   1.899  39.960   4.812
79990W        W41444   9.831  15.237   2.419
79991W        W41445  40.500  10.817   2.408
79992W        W41446  11.812  38.373   1.776
79993W        W41447  23.062  42.927   1.850
79994W        W41448  29.124  28.557  10.423
79995W        W41449  10.149  10.290   9.995
79996W        W41450  17.715  21.205   1.720
79997W        W41451   5.895  17.748  14.812
79998W        W41452  11.252  30.586  14.394
79999W        W41453  38.981   5.860   4.832
80000W        W41454   4.400  40.816  14.430
80001W        W41455  44.777  16.693   2.803
80002W        W41456  36.535  16.269  11.414
80003W        W41457  37.028  36.529  12.059
80004W        W41458  43.341   1.412   4.653
80005W        W41459  15.183  20.602   4.169
80006W        W41460  19.217   8.242  13.058
80007W        W41461  30.932  40.397  14.833
80008W        W41462   5.235   7.193  12.960
80009W        W41463  43.347  20.744   2.361
80010W        W41464  13.159  37.433   2.262
80011W        W41465  20.099  40.455   1.271
80012W        W41466  23.528  42.391  14.919
80013W        W41467  21.174   0.326   4.329
80014W        W41468  24.990  44.338   1.448
80015W        W41469  22.519  42.423  13.438
80016W        W41470  26.483  15.705  11.907
80017W        W41471   2.952  24.996  11.881
80018W        W41472  15.132  39.869   1.798
80019W        W41473   5.852  33.421  12.368
80020W        W41474   9.643  30.533  11.471
80021W        W41475   1.761  31.020  13.474
80022W        W41476   8.839  24.537  14.455
80023W        W41477  30.447   7.398   0.832
80024W        W41478  26.592  34.565   1.801
80025W        W41479   7.342  10.780  11.496
80026W        W41480   2.946   0.812   3.162
80027W        W41481  30.955  11.148   4.263
80028W        W41482  42.791   1.290  11.056
80029W        W41483   8.261  39.973  12.929
80030W        W41484  41.952  42.330  12.995
80031W        W41485  33.939  24.544  14.350
80032W        W41486  19.264  28.666   0.830
80033W        W41487  39.991   7.738   2.754
80034W        W41488  39.900  24.630   4.730
80035W        W41489  37.398  31.931  14.849
80036W        W41490  32.978  41.813   4.792
80037W        W41491   5.846   9.280  14.900
80038W        W41492  15.296   0.766  13.802
80039W        W41493  34.110  11.857   1.923
80040W        W41494  43.009  42.925  13.459
80041W        W41495  35.381  27.181   0.249
80042W        W41496  10.851  14.210   3.715
80043W        W41497   9.735   4.415   3.158
80044W        W41498  29.120  35.861   0.276
80045W        W41499  16.580  34.096   4.694
80046W        W41500  11.769  32.939  13.060
80047W        W41501  13.822  32.086   2.787
80048W        W41502  15.101  39.947   3.253
80049W        W41503  40.499  22.013   0.734
80050W        W41504  25.687  28.127  10.072
80051W        W41505  42.816  16.595   3.754
80052W        W41506   6.274   2.842   4.628
80053W        W41507   5.832  21.200  12.556
80054W        W41508  33.381  15.641   1.251
80055W        W41509  39.445  21.219   0.873
80056W        W41510  28.183  12.671   2.381
80057W        W41511  37.830  22.606  14.858
80058W        W41512  41.450  44.467   4.132
80059W        W41513  41.817  17.773  12.012
80060W        W41514  37.488   1.349  14.284
80061W        W41515  40.874  32.068   0.270
80062W        W41516  40.346  30.056  10.450
80063W        W41517  40.466  22.179   1.355
80064W        W41518  26.694  25.637  10.570
80065W        W41519  33.540  39.973   3.712
80066W        W41520   0.329  27.997   0.415
80067W        W41521   9.322  26.168   1.276
80068W        W41522  30.978  22.686  13.855
80069W        W41523  36.994  18.636  11.009
80070W        W41524  39.054  21.566   0.246
80071W        W41525   6.912  27.672   2.219
80072W        W41526  27.022  43.381  14.776
80073W        W41527  40.369  42.918  12.056
80074W        W41528  23.496   9.303   0.885
80075W        W41529  34.542   5.392  13.420
80076W        W41530   8.824  34.968  14.278
80077W        W41531  22.664  27.128  14.393
80078W        W41532  16.266  40.346   4.288
80079W        W41533  30.597  19.623  10.913
80080W        W41534  13.749  42.873   4.667
80081W        W41535  29.526  26.993   1.286
80082W        W41536  27.654  13.208  11.999
80083W        W41537  44.282  26.974   3.283
80084W        W41538   7.268   0.855  11.954
80085W        W41539  24.580   4.253   3.268
80086W        W41540  21.114  14.818   2.717
80087W        W41541   9.202  31.644   0.762
80088W        W41542   5.397  36.959  10.624
80089W        W41543   4.882  15.739  14.389
80090W        W41544  21.675  15.767  11.010
80091W        W41545  26.627   3.843   2.727
80092W        W41546  21.646  38.338  12.036
80093W        W41547   6.418  31.100   0.890
80094W        W41548  18.755   6.860   1.218
80095W        W41549  11.236  10.339  14.983
80096W        W41550  26.162  39.425   4.265
80097W        W41551  42.286   3.914  12.349
80098W        W41552  27.160  10.150   0.961
80099W        W41553  24.177  34.105  12.028
80100W        W41554  21.513   9.674  13.967
80101W        W41555   4.923   7.388   2.267
80102W        W41556  25.178  43.445   1.396
80103W        W41557  19.645  19.554  11.949
80104W        W41558  19.277  31.525  13.475
80105W        W41559  21.219  10.673  13.465
80106W        W41560  26.663  25.015   3.850
80107W        W41561  17.728  44.961   4.294
80108W        W41562  22.600  12.724   2.375
80109W        W41563  23.682  14.796   3.642
80110W        W41564   5.363  26.197   1.924
80111W        W41565  40.534   4.868   2.218
80112W        W41566  28.656   6.711  14.879
80113W        W41567   2.846  43.888   0.440
80114W        W41568   0.405  37.345  11.421
80115W        W41569  22.525   8.212   9.478
80116W        W41570  10.783  44.948  10.946
80117W        W41571  34.608  12.337  11.887
80118W        W41572  29.660  24.026  13.821
80119W        W41573  30.981  39.048  13.968
80120W        W41574  43.787   2.316   0.762
80121W        W41575   4.269  27.467   1.264
80122W        W41576  32.519  12.689  12.928
80123W        W41577  38.886  44.493  12.823
80124W        W41578  13.824   7.294   4.135
80125W        W41579  25.129  15.221  13.936
80126W        W41580  11.262  29.931  12.025
80127W        W41581  42.894  38.982   3.261
80128W        W41582   8.344  31.522   0.294
80129W        W41583  16.701  26.154  10.580
80130W        W41584  16.711  27.050   1.813
80131W        W41585   1.301  39.923   0.776
80132W        W41586  44.991  12.852  11.979
80133W        W41587  33.455  11.833   0.950
80134W        W41588  42.989  26.954  11.429
80135W        W41589  12.355   0.865  13.798
80136W        W41590   9.361  23.648   0.259
80137W        W41591  23.191  31.908  11.590
80138W        W41592  41.434  27.668  14.950
80139W        W41593  31.569   4.740   2.389
80140W        W41594   8.775  38.915  13.411
80141W        W41595  28.436  19.114  12.493
80142W        W41596  43.828  33.419   0.751
80143W        W41597  28.482  26.532  12.975
80144W        W41598  34.094  38.461   2.773
80145W        W41599   8.895  35.573   3.714
80146W        W41600  17.242  30.099   2.312
80147W        W41601  35.021  28.084   2.354
80148W        W41602  31.080  13.124   2.818
80149W        W41603  27.650   8.772  12.928
80150W        W41604  21.590   4.873   4.771
80151W        W41605  35.562  42.798  13.965
80152W        W41606  24.072  27.527  10.443
80153W        W41607  17.213  35.497   2.228
80154W        W41608  13.710  17.286  11.996
80155W        W41609  40.837  20.610  11.482
80156W        W41610  22.056   2.441  12.856
80157W        W41611   8.708  35.554  13.938
80158W        W41612  33.523  35.096   4.248
80159W        W41613  37.547  33.622   4.263
80160W        W41614  35.551  21.141  12.009
80161W        W41615  16.676  40.386  10.575
80162W        W41616  17.121  11.284   1.298
80163W        W41617  43.888  43.314   2.903
80164W        W41618  35.071  29.566  11.072
80165W        W41619  11.260  20.758  12.888
80166W        W41620   5.838  41.012  10.959
80167W        W41621  43.985  28.967  14.761
80168W        W41622   1.959  32.061   1.311
80169W        W41623   2.441  33.983   3.323
80170W        W41624  21.586  10.813  14.400
80171W        W41625   2.265  41.461  13.900
80172W        W41626  27.539  30.417  14.512
80173W        W41627  24.725  43.882  11.890
80174W        W41628  37.354  28.457   0.326
80175W        W41629   9.731  30.936   0.251
80176W        W41630  36.027  11.705   2.677
80177W        W41631   7.178   3.267  11.904
80178W        W41632  13.345  14.310  11.452
80179W        W41633  39.505  34.991  11.949
80180W        W41634   2.798   8.703   4.225
80181W        W41635   0.922  26.075  11.429
80182W        W41636  42.339  20.040  10.639
80183W        W41637  44.421   2.859  11.926
80184W        W41638   7.823  10.767  11.914
80185W        W41639  35.519  17.254  13.430
80186W        W41640  27.077   4.238   2.252
80187W        W41641  42.525   4.437  10.893
80188W        W41642   9.316  37.537  14.515
80189W        W41643  39.044  10.316   0.856
80190W        W41644   1.973  21.566   2.901
80191W        W41645  43.513   4.739   1.711
80192W        W41646   5.259  28.149   0.835
80193W        W41647  43.451  41.862   1.430
80194W        W41648  33.516  36.403  14.845
80195W        W41649  14.170  15.764  11.464
80196W        W41650  10.864   6.710  13.013
80197W        W41651  33.581  31.053   4.269
80198W        W41652  12.294   2.252   2.861
80199W        W41653  31.585  25.101  14.332
80200W        W41654  17.773   2.454   1.847
80201W        W41655  40.418   5.354  11.065
80202W        W41656  31.527   7.191  14.476
80203W        W41657   1.410  27.446  12.473
80204W        W41658  25.639  23.173   0.752
80205W        W41659   8.773  10.179   3.206
80206W        W41660  24.499  42.319  11.483
80207W        W41661  41.833  16.085   3.800
80208W        W41662  43.785  44.338  12.413
80209W        W41663   8.360   1.818   4.736
80210W        W41664  40.374  15.325   1.752
80211W        W41665  27.585   0.869   2.373
80212W        W41666  40.405  26.591  12.841
80213W        W41667  11.141  32.891   3.677
80214W        W41668  27.149  35.993   0.295
80215W        W41669  41.044  20.532  13.381
80216W        W41670  20.107  44.859   1.343
80217W        W41671  31.097  12.682  11.052
80218W        W41672   3.283   1.899  14.968
80219W        W41673  25.663  28.043  13.373
80220W        W41674  18.130  15.776   4.223
80221W        W41675  35.994   8.668  12.576
80222W        W41676  34.033   3.454   3.247
80223W        W41677  34.981  10.766   3.304
80224W        W41678  30.981   5.702  13.360
80225W        W41679  14.659  19.742  13.487
80226W        W41680  30.109  11.153   1.826
80227W        W41681  24.723  11.262   1.303
80228W        W41682  42.816  35.456  12.069
80229W        W41683   2.837  14.625  14.824
80230W        W41684   3.226  40.812   0.759
80231W        W41685  19.697   6.326   4.117
80232W        W41686   4.804  35.599   1.280
80233W        W41687  10.180   0.280  14.759
80234W        W41688   1.820  19.079  13.409
80235W        W41689   2.243  24.592  13.050
80236W        W41690  28.596  35.481   2.238
80237W        W41691  27.668   1.965  14.362
80238W        W41692  20.208   3.305  13.850
80239W        W41693  21.622   5.353  12.498
80240W        W41694   7.738  29.605   2.241
80241W        W41695  12.822  21.688  10.947
80242W        W41696  31.478  35.072  13.329
80243W        W41697  18.703   3.307  13.438
80244W        W41698   6.323  31.140   1.868
80245W        W41699  27.999  26.997  13.797
80246W        W41700  17.096  16.112  11.378
80247W        W41701  33.059  10.256  12.456
80248W        W41702  40.484  31.560  11.083
80249W        W41703  38.855  43.277  10.891
80250W        W41704   7.239  11.266   4.188
80251W        W41705  26.999  22.506  12.530
80252W        W41706  29.609   6.818  10.408
80253W        W41707  18.155   9.863  12.578
80254W        W41708  30.084  23.028  13.433
80255W        W41709  22.026   9.784   2.705
80256W        W41710  16.767  18.634  12.409
80257W        W41711  31.063  20.740   1.422
80258W        W41712  26.605  11.837   1.260
80259W        W41713  35.038   2.372  14.795
80260W        W41714  42.316  35.871  13.917
80261W        W41715  42.510  28.479   3.203
80262W        W41716  21.075  33.883  13.847
80263W        W41717  16.684  15.775  13.445
80264W        W41718  34.111  34.981   0.894
80265W        W41719  33.547  43.492   2.417
80266W        W41720  36.063  40.489   1.215
80267W        W41721   5.382  28.613  13.825
80268W        W41722  32.541  12.615   1.843
80269W        W41723   2.920   8.203   4.792
80270W        W41724  23.505   0.825   4.695
80271W        W41725  23.081  44.946   0.902
80272W        W41726  13.259  24.639   3.647
80273W        W41727  37.969   8.324  14.506
80274W        W41728  32.444   9.176   4.794
80275W        W41729  27.685  29.159  12.546
80276W        W41730  28.628  31.098   5.639
80277W        W41731  22.639   5.847  12.988
80278W        W41732  13.649  28.634   3.177
80279W        W41733  18.783   4.809  13.926
80280W        W41734  34.865  34.611   2.731
80281W        W41735  24.644  34.055  14.372
80282W        W41736   1.451  43.836  12.342
80283W        W41737  35.051  12.753  12.556
80284W        W41738  31.108  12.657   3.858
80285W        W41739  21.128  27.576  12.070
80286W        W41740  37.576  39.999  14.981
80287W        W41741  23.709  33.541  13.797
80288W        W41742  11.760  33.123  10.147
80289W        W41743   2.787  33.920  12.546
80290W        W41744  10.180   5.826  12.452
80291W        W41745   4.826   5.758  11.978
80292W        W41746  29.627  20.733   1.807
80293W        W41747  43.887   8.380  11.900
80294W        W41748  26.552  42.808  12.548
80295W        W41749  26.548   2.917  11.384
80296W        W41750  15.667  30.947  13.478
80297W        W41751  41.379  15.691  14.975
80298W        W41752   9.663  28.144  10.434
80299W        W41753  28.094  25.525   1.804
80300W        W41754  19.541  19.742   5.231
80301W        W41755  29.150   2.823   2.412
80302W        W41756  22.109   5.845  10.923
80303W        W41757  14.704  22.104  13.983
80304W        W41758  41.817   1.889  13.911
80305W        W41759  25.977  40.523  10.568
80306W        W41760  41.334   7.722   0.349
80307W        W41761  33.562  14.119  13.399
80308W        W41762  41.891   7.349   4.656
80309W        W41763  38.533  32.417   4.125
80310W        W41764  41.381   4.774   4.760
80311W        W41765  31.578   2.419  14.342
80312W        W41766   6.729   7.407   1.366
80313W        W41767  22.170  24.679   2.870
80314W        W41768  23.038  17.656  10.904
80315W        W41769  39.015   1.767   0.743
80316W        W41770  36.496   9.206  13.054
80317W        W41771   2.857  21.558  13.892
80318W        W41772  14.104   3.736   3.669
80319W        W41773  37.070  33.980  13.862
80320W        W41774  11.296   0.874  11.875
80321W        W41775  26.148   0.987   1.279
80322W        W41776  43.994  19.196  12.451
80323W        W41777  39.933  41.520  12.962
80324W        W41778  44.448   6.191   5.168
80325W        W41779  10.756  10.234   2.822
80326W        W41780   1.830  15.150   4.124
80327W        W41781  15.164  42.334   2.395
80328W        W41782  12.325  19.124   5.086
80329W        W41783   3.408  29.650  11.000
80330W        W41784   8.330  22.242   0.383
80331W        W41785  21.545  39.981  11.128
80332W        W41786   0.417   4.759  13.485
80333W        W41787  20.523  14.318   4.676
80334W        W41788  43.827  27.045  12.023
80335W        W41789   9.289  42.990  12.574
80336W        W41790  31.946   6.321  11.552
80337W        W41791   3.726  15.721  14.001
80338W        W41792  33.587  19.692   0.889
80339W        W41793  30.474  40.963   2.403
80340W        W41794  41.962   9.205   3.189
80341W        W41795   9.653  36.553   4.707
80342W        W41796   8.245   6.820  12.886
80343W        W41797  43.281  20.096  10.921
80344W        W41798  11.775  20.525   2.664
80345W        W41799  21.727  24.166   1.905
80346W        W41800  41.443  39.368   5.729
80347W        W41801  18.658  20.072   4.236
80348W        W41802  39.471  12.649   5.233
80349W        W41803  38.892   6.825   0.883
80350W        W41804   8.681  26.535   1.753
80351W        W41805  26.129  20.608  10.992
80352W        W41806  33.012   9.223  11.902
80353W        W41807  20.216  38.348  12.825
80354W        W41808  42.377  15.668   2.192
80355W        W41809  28.594  40.931   4.799
80356W        W41810  13.156  22.167  11.021
80357W        W41811  20.686  42.350   0.918
80358W        W41812   9.825   5.355   4.674
80359W        W41813   5.211  27.523   4.300
80360W        W41814  30.945  33.584  11.605
80361W        W41815  40.350  39.431   0.267
80362W        W41816  41.410  43.361  12.446
80363W        W41817  38.548  27.987  11.421
80364W        W41818  15.124  34.017  13.049
80365W        W41819   4.852  40.829   3.335
80366W        W41820  39.050  32.114  11.473
80367W        W41821   0.475  39.532   2.882
80368W        W41822  18.097  11.820  14.867
80369W        W41823  43.310  10.811  10.971
80370W        W41824  38.336  20.145  11.484
80371W        W41825  33.996  41.962  13.379
80372W        W41826  18.052  23.696  14.831
80373W        W41827  40.339  39.389   3.167
80374W        W41828   1.759  33.957  14.022
80375W        W41829   0.882   9.320   3.174
80376W        W41830  17.183   6.842   3.817
80377W        W41831  43.820  26.959   1.340
80378W        W41832  24.519   4.822   2.231
80379W        W41833  30.423  25.555   2.834
80380W        W41834   3.411  30.932   4.735
80381W        W41835   4.845  33.441  10.643
80382W        W41836  40.831  33.586   0.260
80383W        W41837  10.204  29.459   4.726
80384W        W41838  17.266  11.801   1.787
80385W        W41839  19.658  32.079  11.985
80386W        W41840  16.728  12.777   0.414
80387W        W41841  17.106   5.706  12.047
80388W        W41842  22.025   5.280  13.342
80389W        W41843  25.104   6.246  10.631
80390W        W41844  27.591  10.215   4.258
80391W        W41845  37.916  18.144  13.855
80392W        W41846  10.209   9.168   4.162
80393W        W41847  30.533  21.521   0.362
80394W        W41848  14.596  42.788   4.830
80395W        W41849   5.819  39.423   2.817
80396W        W41850   7.249  16.164   4.196
80397W        W41851  39.852   2.788   0.346
80398W        W41852  15.087  22.682   3.645
80399W        W41853   4.920  38.913  11.380
80400W        W41854  15.629  15.211  12.025
80401W        W41855   8.734  44.829   0.840
80402W        W41856  15.150   1.864  13.032
80403W        W41857  21.681  21.057  10.993
80404W        W41858  25.648  26.072  11.860
80405W        W41859  34.534  35.861  11.024
80406W        W41860  42.883  11.854  10.473
80407W        W41861  11.248  22.642   4.825
80408W        W41862   7.671  41.942   0.445
80409W        W41863   8.283  40.967  13.815
80410W        W41864  21.182  32.021   2.777
80411W        W41865  33.508  20.153  13.809
80412W        W41866  27.965   5.220   4.731
80413W        W41867  19.665   5.300  10.940
80414W        W41868  42.809  23.211   2.351
80415W        W41869  18.764   3.402   1.752
80416W        W41870   0.342  16.769  11.468
80417W        W41871  40.519  37.836   0.839
80418W        W41872  31.043   4.782   4.823
80419W        W41873  23.094  30.514   3.717
80420W        W41874  27.474  36.494  10.103
80421W        W41875   0.745  19.746  14.407
80422W        W41876  34.005  29.497  10.537
80423W        W41877  20.080  22.021   4.741
80424W        W41878  19.268  30.011   2.864
80425W        W41879  15.326  31.440   4.214
80426W        W41880  34.956  24.693  11.612
80427W        W41881  36.367  42.978  11.952
80428W        W41882  13.124   1.935  11.564
80429W        W41883  28.459  22.163  13.008
80430W        W41884  23.025  36.870   2.310
80431W        W41885   0.960  12.123  14.996
80432W        W41886  18.236  16.604   1.798
80433W        W41887  17.599  11.756  13.899
80434W        W41888  33.955  32.906   4.665
80435W        W41889  13.131  21.625  10.563
80436W        W41890  30.632  39.478   4.748
80437W        W41891   8.685   3.714  10.600
80438W        W41892   7.289  37.993   1.324
80439W        W41893  26.627  40.515  12.847
80440W        W41894   6.230  30.071   4.257
80441W        W41895  16.573   9.814   3.294
80442W        W41896   7.284  44.331  14.444
80443W        W41897  11.189  29.162   1.807
80444W        W41898  36.894  38.883   3.266
80445W        W41899   0.476   6.826   0.881
80446W        W41900   6.348  24.682   2.335
80447W        W41901  28.518  11.288  11.912
80448W        W41902  29.581  12.236   2.900
80449W        W41903  22.038  36.372  13.317
80450W        W41904  22.669   3.390   4.650
80451W        W41905  24.212  30.046   2.677
80452W        W41906  12.735   1.873  10.602
80453W        W41907  10.840   8.401  13.843
80454W        W41908  28.460  27.670   0.463
80455W        W41909   6.387  21.224  13.875
80456W        W41910  31.525  21.561   0.426
80457W        W41911  32.097  17.642  11.453
80458W        W41912  44.375  32.551  12.460
80459W        W41913  30.044  26.526  14.510
80460W        W41914   3.832  19.204  14.965
80461W        W41915  21.097  38.006   1.236
80462W        W41916  12.211  40.042  12.903
80463W        W41917  25.115  31.442  14.915
80464W        W41918  12.146  15.664   1.709
80465W        W41919  25.685  29.134  13.044
80466W        W41920  24.522   5.388  14.905
80467W        W41921  30.508  37.060   0.380
80468W        W41922  26.036  39.847  12.556
80469W        W41923  12.794  40.019   2.840
80470W        W41924  25.973  12.361   4.328
80471W        W41925  41.962  27.487  14.928
80472W        W41926  15.591   3.884  10.493
80473W        W41927  12.795  31.521   2.882
80474W        W41928  41.350   0.798  11.461
80475W        W41929   2.764   2.951  13.015
80476W        W41930  24.515  11.323  11.448
80477W        W41931  23.536   6.408  12.972
80478W        W41932  28.027  29.074  12.907
80479W        W41933  11.773  21.598   5.217
80480W        W41934  19.617  32.038  11.458
80481W        W41935  41.485  26.512   0.958
80482W        W41936  34.435  43.819   1.301
80483W        W41937  30.994   9.161   1.933
80484W        W41938   0.790   5.379  13.367
80485W        W41939  42.440  18.065  10.548
80486W        W41940  32.124  12.217  13.858
80487W        W41941  24.077  38.410   2.841
80488W        W41942   7.223  40.535  13.809
80489W        W41943  33.959   3.279   1.349
80490W        W41944  20.035  21.751  14.490
80491W        W41945   3.301  20.110  12.981
80492W        W41946  32.399  17.081  14.957
80493W        W41947   8.784  37.841   4.823
80494W        W41948  11.791  16.799   2.317
80495W        W41949  44.005  17.612  13.414
80496W        W41950  30.605  32.063  11.460
80497W        W41951   2.356  41.955   2.261
80498W        W41952   4.751  24.135   3.675
80499W        W41953   7.262  41.937  14.843
80500W        W41954   3.395  43.883   3.209
80501W        W41955  16.212  21.653  11.030
80502W        W41956  18.750  32.627  13.916
80503W        W41957   8.874   1.444   3.649
80504W        W41958  36.054   9.238   2.399
80505W        W41959  11.854   6.274   2.695
80506W        W41960  22.661  21.608   3.696
80507W        W41961  25.163  20.153   4.335
80508W        W41962   6.740  22.669   3.853
80509W        W41963  19.734  21.550  11.933
80510W        W41964  32.037   4.383  10.937
80511W        W41965   3.808  25.126   1.786
80512W        W41966  44.489  19.129   3.309
80513W        W41967  10.749  33.890  14.303
80514W        W41968  35.519  31.620   3.764
80515W        W41969   6.186  39.879  10.023
80516W        W41970  32.586  40.503   2.350
80517W        W41971  13.236   5.365   1.237
80518W        W41972   7.332  28.997  13.909
80519W        W41973  32.590  15.763   2.806
80520W        W41974  40.033   1.398  10.924
80521W        W41975  14.806  16.641  13.997
80522W        W41976  36.066  22.027   1.354
80523W        W41977   9.215   1.930  11.470
80524W        W41978  35.532  41.402   0.732
80525W        W41979  42.284  27.999   3.760
80526W        W41980  21.515  31.472   1.736
80527W        W41981  40.502   1.437   3.686
80528W        W41982   5.222  21.757   2.239
80529W        W41983  12.675  31.085   2.349
80530W        W41984  11.755  19.163  11.591
80531W        W41985  27.093  24.603   9.998
80532W        W41986  43.438  26.164  14.292
80533W        W41987  37.029  38.967  11.980
80534W        W41988  31.595  37.900   3.248
80535W        W41989  44.885  33.541  14.794
80536W        W41990   1.356  13.186  10.406
80537W        W41991  34.402  32.072   2.874
80538W        W41992  35.400  26.162  10.604
80539W        W41993   7.675  23.493   1.221
80540W        W41994  30.977  26.530   2.307
80541W        W41995  31.535  23.067  13.859
80542W        W41996  22.082   6.733  12.949
80543W        W41997   8.707  41.511  11.998
80544W        W41998   9.314  29.066   0.411
80545W        W41999  39.912  31.095  11.595
80546W        W42000  29.173   9.798   3.283
80547W        W42001  16.190   6.236   3.267
80548W        W42002  12.831  18.191   2.799
80549W        W42003  42.306   0.459   2.840
80550W        W42004  44.827  38.875   1.823
80551W        W42005  13.304   7.282  11.982
80552W        W42006  24.178  23.226   2.770
80553W        W42007  29.027  33.567  12.532
80554W        W42008  21.680   4.445  10.428
80555W        W42009  38.072  37.083  14.404
80556W        W42010  15.122  22.674   1.838
80557W        W42011  30.006  25.651  13.984
80558W        W42012   0.411  24.711  12.035
80559W        W42013   7.752   3.863   4.680
80560W        W42014  31.929  29.556   3.693
80561W        W42015  10.849  17.096  12.514
80562W        W42016   7.227  25.579  11.968
80563W        W42017  41.450  11.765   2.354
80564W        W42018  28.107  20.085   3.299
80565W        W42019  28.592  38.435   2.305
80566W        W42020  10.852  32.060  11.489
80567W        W42021  37.340  36.447   2.876
80568W        W42022  14.332   3.934  12.514
80569W        W42023  13.239   4.310   1.287
80570W        W42024  14.213  27.561   1.437
80571W        W42025  38.990  35.481  12.045
80572W        W42026  27.050   1.412   9.586
80573W        W42027  16.607  25.631   0.924
80574W        W42028  35.603  19.762   3.236
80575W        W42029  15.188  41.980   3.364
80576W        W42030   7.275  21.567   3.164
80577W        W42031  28.479  23.692  13.990
80578W        W42032   2.248   2.811  10.516
80579W        W42033  16.623  14.715  13.845
80580W        W42034  23.547   9.274  10.082
80581W        W42035  11.797  31.086   1.737
80582W        W42036  22.228  27.052  13.349
80583W        W42037   6.698  18.695  14.874
80584W        W42038   9.277  25.173   1.331
80585W        W42039   3.887  29.439   1.747
80586W        W42040  32.012  37.566   4.247
80587W        W42041  14.669  22.678  10.495
80588W        W42042   0.376   6.380   0.785
80589W        W42043  35.442   2.338   3.773
80590W        W42044  34.056  36.051   0.436
80591W        W42045  35.953  13.130  13.841
80592W        W42046   3.420   5.932   4.166
80593W        W42047  43.832  11.354   4.602
80594W        W42048   0.797  41.461   0.792
80595W        W42049  38.870   6.749   3.690
80596W        W42050   5.219  43.969  11.613
80597W        W42051  18.599  16.619   1.248
80598W        W42052   5.757  43.997  14.762
80599W        W42053  40.528   7.859  12.956
80600W        W42054   3.278   5.788   0.376
80601W        W42055   1.475   7.364  10.578
80602W        W42056  44.754  10.237   0.301
80603W        W42057  38.466  28.029   2.758
80604W        W42058  26.611  32.999   0.403
80605W        W42059  11.708  16.166  11.118
80606W        W42060  31.027  25.676  11.101
80607W        W42061  16.626  39.850  10.561
80608W        W42062   2.913  28.515   2.718
80609W        W42063   3.369  17.276  14.284
80610W        W42064  37.964  22.013   1.218
80611W        W42065  31.465  15.796  14.453
80612W        W42066  26.607  13.259  10.904
80613W        W42067   7.187  12.151  14.781
80614W        W42068   6.286  41.967  11.088
80615W        W42069  34.038  20.683  14.463
80616W        W42070  28.936  21.126  10.497
80617W        W42071  39.890  42.032  11.966
80618W        W42072  23.610  26.699  13.314
80619W        W42073   4.419  44.311  11.479
80620W        W42074  13.713  17.220   0.259
80621W        W42075   0.988   1.905   0.465
80622W        W42076  33.937   8.877  11.120
80623W        W42077   6.298  20.547  13.315
80624W        W42078  27.997  13.220  12.833
80625W        W42079  25.218  44.915  11.445
80626W        W42080  36.449  15.301   1.702
80627W        W42081  29.425  44.461   4.646
80628W        W42082   6.734  23.599  14.834
80629W        W42083  42.510  10.666  14.480
80630W        W42084  25.968  19.709   0.813
80631W        W42085  30.521  20.183   3.822
80632W        W42086  10.160  24.984  11.458
80633W        W42087   7.186   4.795   0.836
80634W        W42088  11.834   9.801  10.553
80635W        W42089   0.928  15.209  13.544
80636W        W42090   1.757  12.301   1.927
80637W        W42091  23.534   4.321   4.834
80638W        W42092  11.621   5.395  12.347
80639W        W42093  17.584  21.644  13.321
80640W        W42094  34.382   8.901   1.840
80641W        W42095  39.457  13.301   0.405
80642W        W42096  33.453  26.700  14.027
80643W        W42097  15.739  18.121   5.182
80644W        W42098   3.928  21.571   3.871
80645W        W42099  37.877   1.396   0.738
80646W        W42100  17.720  32.067   0.857
80647W        W42101   8.673   6.889   4.620
80648W        W42102  39.929  21.614   0.842
80649W        W42103  43.931  32.604   1.778
80650W        W42104  23.241   7.348  12.863
80651W        W42105  15.723  12.273   2.302
80652W        W42106  11.756  39.911  14.951
80653W        W42107  36.060  30.087  12.960
80654W        W42108  16.151  16.680  13.323
80655W        W42109  18.124  19.275  11.374
80656W        W42110  25.680  11.130  13.541
80657W        W42111  43.982  20.262   1.271
80658W        W42112  34.564  42.481   1.219
80659W        W42113  37.338  29.978   0.779
80660W        W42114   3.716   5.400   4.651
80661W        W42115  13.652  10.749   1.213
80662W        W42116  29.537  14.826  14.880
80663W        W42117  37.416  18.685   2.734
80664W        W42118  18.112  14.200   0.749
80665W        W42119   2.736  41.516  11.953
80666W        W42120   9.658  16.201  11.043
80667W        W42121  27.188  36.962  11.373
80668W        W42122   5.357  16.776   2.688
80669W        W42123  43.942   1.353  13.024
80670W        W42124   3.424  28.093   2.305
80671W        W42125  13.197  26.582  12.891
80672W        W42126   1.273   1.325   2.873
80673W        W42127  23.130  31.927   1.893
80674W        W42128  21.177  23.132   2.815
80675W        W42129  37.468   5.267  13.814
80676W        W42130  43.942  14.150   0.836
80677W        W42131  31.435  30.522   4.715
80678W        W42132  25.562   3.714  11.900
80679W        W42133  42.859  25.127  13.052
80680W        W42134  31.918  40.936  12.421
80681W        W42135  15.655   6.899  14.806
80682W        W42136  27.495  38.413   3.644
80683W        W42137  41.524  20.273  13.874
80684W        W42138  33.975  32.475  12.927
80685W        W42139  20.098   6.198  14.487
80686W        W42140  41.450  19.772  13.962
80687W        W42141  35.952  19.107   4.825
80688W        W42142  10.180  12.181  10.922
80689W        W42143   3.837  23.541   4.151
80690W        W42144  16.290  15.287   4.341
80691W        W42145   0.873  14.805   2.200
80692W        W42146  34.408  15.202   2.772
80693W        W42147  12.653   6.225   3.702
80694W        W42148  36.951  39.448  12.880
80695W        W42149  10.361   7.380   3.298
80696W        W42150  26.063  35.591  12.890
80697W        W42151   8.325   6.288   0.762
80698W        W42152  14.621   5.402   2.805
80699W        W42153   7.847   3.817  14.355
80700W        W42154  21.586   3.228   5.146
80701W        W42155  17.295  31.903  11.890
80702W        W42156  28.983  43.900   1.858
80703W        W42157  35.580  39.435  13.924
80704W        W42158  21.073  17.575   3.255
80705W        W42159   6.784  22.089   1.861
80706W        W42160  11.281  40.002   2.254
80707W        W42161  18.236   5.425   4.788
80708W        W42162  22.009   4.879  10.965
80709W        W42163   4.422  16.144  10.991
80710W        W42164  44.984  24.702   4.737
80711W        W42165   5.925  20.186  14.895
80712W        W42166  15.158  40.988   3.340
80713W        W42167  14.175  20.592   4.706
80714W        W42168  33.983  35.927  13.916
80715W        W42169  26.201  22.163   2.860
80716W        W42170   3.811   1.374   0.836
80717W        W42171  15.578  21.086   4.612
80718W        W42172   0.437  40.408  10.463
80719W        W42173  35.486  44.365  10.533
80720W        W42174   5.199  15.601   5.299
80721W        W42175  20.139  34.579  13.334
80722W        W42176  29.161  39.471   4.795
80723W        W42177  11.232  27.940  11.947
80724W        W42178   9.679   6.268  12.897
80725W        W42179  11.823  41.862  14.406
80726W        W42180  24.682  34.889  11.505
80727W        W42181  44.406  32.970   2.696
80728W        W42182  37.832  28.178  14.933
80729W        W42183  41.918  15.186   2.273
80730W        W42184  28.931  18.241  11.051
80731W        W42185  26.053  10.254  11.903
80732W        W42186   1.259  35.025  12.080
80733W        W42187   2.435   7.291   3.722
80734W        W42188   5.846  24.629  12.554
80735W        W42189  22.060  42.849   2.838
80736W        W42190  11.319  23.618  14.326
80737W        W42191  24.509  38.888  13.507
80738W        W42192  32.499  28.068   2.854
80739W        W42193  29.615  34.042   5.740
80740W        W42194   4.781   7.393  11.477
80741W        W42195  32.461  37.019  10.519
80742W        W42196   5.778   6.339   3.798
80743W        W42197  23.693  15.223   3.362
80744W        W42198  17.797  27.471   0.382
80745W        W42199   1.883  37.036  12.006
80746W        W42200  36.585   9.364   2.882
80747W        W42201  11.276  25.067   1.357
80748W        W42202  38.935   5.776  12.455
80749W        W42203  10.250  28.077   3.173
80750W        W42204  11.781  40.866   0.246
80751W        W42205   3.791  27.028   3.692
80752W        W42206  24.183  13.113  13.358
80753W        W42207  10.351   1.852  13.514
80754W        W42208   5.352  17.253  13.844
80755W        W42209  32.992   6.407  14.821
80756W        W42210  38.545  21.060  12.088
80757W        W42211   0.749  11.140  11.118
80758W        W42212  40.532  12.830  12.426
80759W        W42213  38.332   6.274  14.846
80760W        W42214  21.084  44.768  13.436
80761W        W42215   7.872  28.937  13.501
80762W        W42216  37.041  11.728   0.280
80763W        W42217  19.628  28.445  14.908
80764W        W42218   0.746   9.206  10.489
80765W        W42219  38.483  42.471   9.933
80766W        W42220  17.792  11.730   0.298
80767W        W42221  18.153  38.058  10.611
80768W        W42222  19.548  15.644   0.814
80769W        W42223   8.161  40.844   3.176
80770W        W42224  43.505  30.000  10.463
80771W        W42225  10.280  43.449  14.420
80772W        W42226  42.345   8.775   0.276
80773W        W42227  38.878   9.336  14.964
80774W        W42228  13.166  40.347  11.997
80775W        W42229   1.287   5.926   3.304
80776W        W42230   6.815  11.753  14.277
80777W        W42231   4.846  44.468  13.063
80778W        W42232   5.688  24.721   1.727
80779W        W42233  29.127  26.088   1.797
80780W        W42234   9.779  34.997   4.752
80781W        W42235   1.951  14.246   4.203
80782W        W42236  15.176  30.050  13.853
80783W        W42237  18.677  16.748   3.270
80784W        W42238  36.507   6.398  11.440
80785W        W42239  23.208   8.685   1.783
80786W        W42240  13.235  16.695   2.770
80787W        W42241   7.224  43.332   0.437
80788W        W42242  37.390  41.998   1.325
80789W        W42243  35.532   3.884   2.323
80790W        W42244  33.621  19.644   5.246
80791W        W42245  15.590  17.676   5.118
80792W        W42246  27.662  43.336  13.978
80793W        W42247  27.465   5.697   1.364
80794W        W42248  29.032  23.000   1.826
80795W        W42249   8.389  12.282  11.887
80796W        W42250  24.502   4.426   0.253
80797W        W42251  21.090  44.837   3.768
80798W        W42252  40.855  28.097  14.990
80799W        W42253  10.224  28.070   4.288
80800W        W42254  30.095   1.777  11.988
80801W        W42255  14.338  26.062   1.406
80802W        W42256  13.603  17.580   3.311
80803W        W42257   2.737  26.130   1.388
80804W        W42258  29.050  33.013   2.399
80805W        W42259  20.162  24.661  12.552
80806W        W42260  12.318   1.797  11.426
80807W        W42261  37.989  16.113   0.377
80808W        W42262  38.508  21.616  13.019
80809W        W42263  18.050   1.440   1.888
80810W        W42264   2.364  36.087   4.178
80811W        W42265  18.130  24.591  11.927
80812W        W42266   5.689   4.870  13.908
80813W        W42267   1.751  40.028  12.926
80814W        W42268  12.362  31.922  11.406
80815W        W42269   8.201  21.587  13.043
80816W        W42270  33.023  22.666   3.642
80817W        W42271  17.147  26.534  13.999
80818W        W42272  20.060  40.968   3.204
80819W        W42273  41.925  20.605   4.304
80820W        W42274  13.349  36.469   4.681
80821W        W42275  26.671  35.916   2.686
80822W        W42276  44.424  14.245  13.961
80823W        W42277  14.610  19.779   0.801
80824W        W42278  18.646  10.823   3.234
80825W        W42279  17.131  33.115  14.921
80826W        W42280   0.409  31.993   4.261
80827W        W42281   0.902  26.054   3.756
80828W        W42282  30.589  29.984   1.446
80829W        W42283  16.160  15.157   1.427
80830W        W42284   9.154  36.946  11.008
80831W        W42285  30.421  17.169   1.712
80832W        W42286   6.266  32.634  12.090
80833W        W42287  24.170  44.259  13.951
80834W        W42288  38.486  29.620   3.668
80835W        W42289   5.426  41.292  11.906
80836W        W42290   2.368  40.952  12.574
80837W        W42291  21.167  38.834   0.397
80838W        W42292  11.369  16.192  13.534
80839W        W42293   5.779  28.652   0.811
80840W        W42294  23.503   8.685  14.860
80841W        W42295  22.745  40.844  12.462
80842W        W42296   4.349   8.698  14.414
80843W        W42297   7.708  36.060  11.953
80844W        W42298  10.818   8.897  14.958
80845W        W42299  20.595  41.042  12.904
80846W        W42300  39.880   0.351  13.424
80847W        W42301   9.152   4.729   1.852
80848W        W42302   4.744   7.667   2.676
80849W        W42303  44.010   6.775   0.426
80850W        W42304   5.204  29.561  11.925
80851W        W42305   9.764   1.276   3.652
80852W        W42306  19.623  22.618   2.296
80853W        W42307  44.899  37.963  12.961
80854W        W42308  11.355  22.229   1.702
80855W        W42309   0.366   8.328  14.025
80856W        W42310  27.689   7.749   1.387
80857W        W42311  13.840  43.922  11.034
80858W        W42312  34.492   3.342  14.343
80859W        W42313  25.034  21.149  13.357
80860W        W42314  38.564  22.081   0.861
80861W        W42315  20.559   7.388   0.253
80862W        W42316   4.343  19.259   2.376
80863W        W42317  31.972  28.565  12.497
80864W        W42318  26.133  35.954   3.387
80865W        W42319  24.550   9.646  13.428
80866W        W42320   8.763  12.212   1.890
80867W        W42321  28.651  24.107  11.880
80868W        W42322  21.737  38.552  14.481
80869W        W42323  39.365  11.306   2.415
80870W        W42324   3.219  44.446  11.394
80871W        W42325  36.925  44.452   3.369
80872W        W42326  17.127  24.567  13.464
80873W        W42327  39.942  16.658  14.349
80874W        W42328  27.048   1.930  11.062
80875W        W42329  25.113  23.020   1.310
80876W        W42330  12.679  28.163   0.321
80877W        W42331  23.527  10.874   1.696
80878W        W42332   2.458  28.496   2.360
80879W        W42333  43.811  40.512  12.090
80880W        W42334  17.220  20.238  10.990
80881W        W42335  40.472  21.056   4.632
80882W        W42336  27.949  19.086   4.217
80883W        W42337  42.357   2.394  11.101
80884W        W42338  15.698  43.360  13.852
80885W        W42339  11.222  38.856  12.455
80886W        W42340  27.166   4.859   1.328
80887W        W42341  40.924  40.385   4.285
80888W        W42342  33.517  11.730  12.908
80889W        W42343  22.556  22.095  10.572
80890W        W42344  42.403  24.141   4.271
80891W        W42345  32.065  23.081  13.791
80892W        W42346  43.284   9.819   3.379
80893W        W42347  16.718  41.997   1.752
80894W        W42348  21.228  14.233  13.352
80895W        W42349  26.462   3.725  12.465
80896W        W42350  29.453   2.342  13.028
80897W        W42351  33.389  31.525   4.148
80898W        W42352  37.052  20.580  12.080
80899W        W42353  26.598  25.115  10.638
80900W        W42354  20.618   6.850   1.268
80901W        W42355  35.364   5.417   4.717
80902W        W42356   0.933  25.681  10.513
80903W        W42357   2.953  14.336   2.407
80904W        W42358  19.752   0.458   1.405
80905W        W42359  42.836  22.126   1.428
80906W        W42360  28.488  41.978   2.769
80907W        W42361  31.059  23.735   9.936
80908W        W42362  43.833  16.672  12.834
80909W        W42363  11.822  15.181  13.977
80910W        W42364  40.474  42.820   0.389
80911W        W42365  13.780  44.925  11.433
80912W        W42366  19.737  30.427   2.299
80913W        W42367   8.895  13.807  14.777
80914W        W42368   5.812  39.474   2.276
80915W        W42369  12.695   1.248  13.476
80916W        W42370  41.479   9.186   2.418
80917W        W42371  23.998  25.562   4.735
80918W        W42372  20.698  17.219  13.005
80919W        W42373  23.516  33.571   0.928
80920W        W42374  34.470   1.283  12.064
80921W        W42375  17.247   8.675   4.698
80922W        W42376  13.655  33.582  13.444
80923W        W42377  25.175   9.833   4.340
80924W        W42378  19.055  18.592   3.189
80925W        W42379  34.033   1.348  13.541
80926W        W42380  32.969  39.829   3.797
80927W        W42381  36.005   5.383  11.493
80928W        W42382   1.914  16.635  11.438
80929W        W42383  14.336  35.941  13.479
80930W        W42384  34.497  12.230  14.499
80931W        W42385   3.788   3.782   2.348
80932W        W42386  37.351  37.902   2.831
80933W        W42387   4.299  13.336   2.806
80934W        W42388  18.634   9.763  11.996
80935W        W42389  36.561   9.257  14.439
80936W        W42390  40.053  26.468   0.313
80937W        W42391  18.203   2.348  14.443
80938W        W42392  19.568  19.136  13.923
80939W        W42393  20.721   2.842  14.855
80940W        W42394   1.766   4.792  14.425
80941W        W42395  26.206   0.307   3.814
80942W        W42396  15.729  37.374   5.207
80943W        W42397  11.650  36.364   2.315
80944W        W42398   6.324  39.418  14.999
80945W        W42399   9.787  32.510  10.106
80946W        W42400  12.638  24.222  13.943
80947W        W42401  31.581   9.364   1.759
80948W        W42402  21.026   2.911  14.861
80949W        W42403  10.203  35.982   5.108
80950W        W42404  30.075  37.517   2.746
80951W        W42405  39.462  22.563  13.940
80952W        W42406  25.011   6.707   1.228
80953W        W42407   4.280  21.102   1.699
80954W        W42408  20.576  28.129  12.994
80955W        W42409   2.766  31.906  14.799
80956W        W42410   4.705  37.533   1.834
80957W        W42411   1.327  35.410   2.891
80958W        W42412  27.050  40.918   3.245
80959W        W42413  39.895  27.140   1.258
80960W        W42414  44.386   5.298   3.247
80961W        W42415   5.311  26.992  11.083
80962W        W42416  12.704  41.370   1.330
80963W        W42417  34.989  22.533  14.888
80964W        W42418  38.860  17.605   2.866
80965W        W42419  12.300  11.278  12.854
80966W        W42420  23.549  24.995   4.807
80967W        W42421   9.697  40.491   2.412
80968W        W42422  20.561  35.072  12.399
80969W        W42423  21.637  27.952  14.435
80970W        W42424   3.403  42.305  12.562
80971W        W42425  16.181  34.090  13.901
80972W        W42426  13.284   1.309   4.204
80973W        W42427  18.547  15.584  10.977
80974W        W42428  24.690  23.648  11.875
80975W        W42429  28.648  24.028  13.334
80976W        W42430  26.080  25.636  10.519
80977W        W42431  29.623  39.538  14.465
80978W        W42432  17.119   2.470  11.609
80979W        W42433  41.404  12.245  11.898
80980W        W42434   0.895  10.289   4.334
80981W        W42435  20.688   7.194  12.349
80982W        W42436  11.815  40.013   1.808
80983W        W42437  29.085  16.220   1.763
80984W        W42438   8.832   0.329   1.811
80985W        W42439  36.593  27.161   2.683
80986W        W42440  20.688  29.498  13.486
80987W        W42441  43.327  11.630   0.423
80988W        W42442  28.552   2.449  12.468
80989W        W42443   4.700  15.302  12.990
80990W        W42444  12.283  40.877   0.375
80991W        W42445  25.585  36.881   3.222
80992W        W42446  28.653   8.259  10.999
80993W        W42447  37.900   6.900  13.816
80994W        W42448  43.950  15.590   4.249
80995W        W42449  10.283  29.022   1.809
80996W        W42450   7.769  11.702   1.426
80997W        W42451  20.168   1.367  11.023
80998W        W42452  37.852  10.848  14.398
80999W        W42453  20.731  16.671   1.355
81000W        W42454  11.640  37.011  12.449
81001W        W42455  44.273  13.688   0.362
81002W        W42456  25.609  35.369   2.230
81003W        W42457  43.425   5.309  12.530
81004W        W42458   3.793  18.677  12.413
81005W        W42459   8.845   6.894   4.217
81006W        W42460  39.827  26.549   3.310
81007W        W42461  28.950  16.674  14.312
81008W        W42462  33.103  19.566  10.521
81009W        W42463  31.128  41.980  11.963
81010W        W42464  34.998   6.848  12.911
81011W        W42465  16.235   1.860  14.889
81012W        W42466  25.081  35.526   0.960
81013W        W42467  33.078  36.517  14.926
81014W        W42468  12.165  40.493  13.515
81015W        W42469  17.738  36.878  11.411
81016W        W42470  36.069  16.310  12.482
81017W        W42471   2.813  21.160  10.445
81018W        W42472  30.966  13.332   3.337
81019W        W42473  16.122  14.195   1.794
81020W        W42474   5.433  23.521   2.324
81021W        W42475   2.344  25.696  11.392
81022W        W42476   2.874  40.344  13.007
81023W        W42477  18.784  30.020   2.753
81024W        W42478   3.350  39.948   0.729
81025W        W42479  36.851  26.057   1.841
81026W        W42480  26.143  43.297  11.517
81027W        W42481   6.880  19.711   1.827
81028W        W42482  31.542   9.754   3.326
81029W        W42483  34.419  21.043   3.754
81030W        W42484  24.004   6.850  10.908
81031W        W42485  32.050  18.063  10.943
81032W        W42486  37.839  15.177  10.567
81033W        W42487  25.070  10.240  12.449
81034W        W42488  15.634  20.689  10.574
81035W        W42489   4.449  34.898   1.879
81036W        W42490  28.610  17.128  12.405
81037W        W42491   0.434  21.117  12.890
81038W        W42492  34.606  43.359  10.560
81039W        W42493   4.430  14.800  14.938
81040W        W42494  31.901  24.158  12.988
81041W        W42495  35.967  19.704   5.198
81042W        W42496   6.282  41.922   1.931
81043W        W42497  24.023  22.039   0.904
81044W        W42498  36.051  32.600   2.817
81045W        W42499  43.301  35.900   3.348
81046W        W42500  11.660   9.871  10.097
81047W        W42501   2.370  18.625  12.513
81048W        W42502  15.729   4.222  13.983
81049W        W42503   7.410  13.152   3.222
81050W        W42504  42.359  12.794  14.402
81051W        W42505   6.812  43.294  10.480
81052W        W42506  40.389  14.739   0.309
81053W        W42507  31.064  23.989   3.281
81054W        W42508  38.895  30.148  12.981
81055W        W42509  24.547   5.414  10.071
81056W        W42510  14.229  10.242  11.543
81057W        W42511  44.806  40.391   3.281
81058W        W42512   3.839  16.676  11.541
81059W        W42513  20.666   4.342   3.257
81060W        W42514   6.687  39.897  10.476
81061W        W42515  39.033  24.708   4.690
81062W        W42516  17.632   5.691  11.872
81063W        W42517   3.282   9.862   4.636
81064W        W42518   5.907   8.303   4.265
81065W        W42519  36.873  23.002   2.795
81066W        W42520  29.489  17.304  14.408
81067W        W42521   3.352  43.277   0.926
81068W        W42522  27.129  34.925   3.728
81069W        W42523  34.081  11.318   1.285
81070W        W42524  20.191  10.381  10.490
81071W        W42525  29.126   1.962  12.891
81072W        W42526  43.020  23.199  12.371
81073W        W42527  31.069   2.910  12.576
81074W        W42528  18.248  37.853   1.392
81075W        W42529  11.362   8.296  12.893
81076W        W42530  35.370  19.138   4.771
81077W        W42531  25.591  23.081   1.382
81078W        W42532  30.963  12.207   4.658
81079W        W42533   1.279  14.666  12.843
81080W        W42534  40.353   9.356  14.772
81081W        W42535  26.640  10.783   2.756
81082W        W42536  17.286   5.773  10.449
81083W        W42537  10.839  26.633   1.328
81084W        W42538  37.917  16.707   0.761
81085W        W42539  42.896  13.772   4.654
81086W        W42540  14.275   7.693  11.957
81087W        W42541  15.756  42.904  14.849
81088W        W42542   9.869  10.678  11.519
81089W        W42543  41.472  20.659   1.231
81090W        W42544  40.003   4.371   4.703
81091W        W42545  37.990  38.048  13.433
81092W        W42546  20.700   4.296   1.740
81093W        W42547  44.939  35.370   3.646
81094W        W42548  21.160  25.475   0.320
81095W        W42549  44.842   0.340   4.643
81096W        W42550  20.210  42.957   0.479
81097W        W42551  32.968  37.561  13.025
81098W        W42552  28.042  36.028  12.872
81099W        W42553  43.928  42.857  14.402
81100W        W42554  37.045  22.737   1.352
81101W        W42555  43.314  29.048   3.653
81102W        W42556  31.568  32.917  11.432
81103W        W42557   9.768  10.870   0.771
81104W        W42558  21.060  44.487   1.231
81105W        W42559  29.146  17.612   4.146
81106W        W42560  11.660   8.369  13.818
81107W        W42561  42.303   0.418   1.294
81108W        W42562  32.893  15.680   2.215
81109W        W42563  16.762  30.575   4.793
81110W        W42564  25.662  11.797  10.568
81111W        W42565  29.503   5.368   0.812
81112W        W42566  44.930  39.885  12.422
81113W        W42567  37.862  17.139  10.917
81114W        W42568  10.647  32.929  13.487
81115W        W42569   0.975  32.107  14.914
81116W        W42570  44.273   1.262   1.417
81117W        W42571  22.115  14.630  12.498
81118W        W42572  43.014  27.586   1.861
81119W        W42573  25.544  35.907   3.340
81120W        W42574   5.395  41.865   4.343
81121W        W42575  14.235  21.540  11.439
81122W        W42576  41.403   8.346  12.362
81123W        W42577  19.083  35.591  12.513
81124W        W42578  35.071  28.941  13.345
81125W        W42579  25.975  21.116   3.802
81126W        W42580  41.850  36.527   3.838
81127W        W42581  34.891  14.263   4.117
81128W        W42582   3.893  25.626   4.260
81129W        W42583   8.768  40.940  11.918
81130W        W42584  19.124  11.352  13.379
81131W        W42585  29.522  40.418  11.016
81132W        W42586  29.111  43.314   2.303
81133W        W42587   7.364  24.539  13.982
81134W        W42588   2.235  35.028   0.399
81135W        W42589  14.750  36.986  12.006
81136W        W42590   5.757  11.248   2.799
81137W        W42591  32.606  15.192   0.257
81138W        W42592  27.454  23.109   3.714
81139W        W42593  34.958  43.770  14.447
81140W        W42594  20.665   6.274   4.808
81141W        W42595   2.858   5.263  14.015
81142W        W42596  10.318  27.549  13.488
81143W        W42597   0.960   1.251  10.014
81144W        W42598  24.570  22.672  14.824
81145W        W42599  16.770  27.949   4.604
81146W        W42600   5.733  36.893  12.965
81147W        W42601  22.230  38.333   0.278
81148W        W42602  33.504   9.828  14.458
81149W        W42603  44.869  34.473  14.313
81150W        W42604  24.637  13.273  11.402
81151W        W42605  39.900  39.035   9.937
81152W        W42606  29.172  33.023  14.883
81153W        W42607  26.484  23.642  13.957
81154W        W42608  31.045  20.141   0.354
81155W        W42609  27.584   7.764   4.130
81156W        W42610  33.045   5.689  14.766
81157W        W42611  34.046   7.897   2.392
81158W        W42612  11.134  22.691   2.838
81159W        W42613  40.508  38.337  12.033
81160W        W42614  28.629  21.513   5.649
81161W        W42615  37.004  40.932  12.884
81162W        W42616  25.204  22.224  12.837
81163W        W42617  27.071  17.163   0.833
81164W        W42618  15.678  18.281  12.828
81165W        W42619  16.127  40.009  11.975
81166W        W42620  10.185  12.161  10.406
81167W        W42621   8.333  39.390   3.646
81168W        W42622   6.809   0.812   0.438
81169W        W42623  14.281  30.989  12.543
81170W        W42624   7.292  21.059   2.274
81171W        W42625  12.626   0.850   2.688
81172W        W42626  44.906   4.354   4.162
81173W        W42627   9.199  27.082   4.619
81174W        W42628  32.401  26.104  13.500
81175W        W42629  43.504   4.716   9.954
81176W        W42630  12.854  16.629   1.392
81177W        W42631   4.416  42.368  13.309
81178W        W42632  32.618  44.796   4.689
81179W        W42633  39.929  38.426   3.322
81180W        W42634  13.699  22.180  14.005
81181W        W42635  13.156  10.179   1.449
81182W        W42636   4.350  21.199   5.307
81183W        W42637  23.650   7.186   4.793
81184W        W42638  37.503  37.540  12.969
81185W        W42639   4.745  21.195  11.540
81186W        W42640  31.608  36.387   1.825
81187W        W42641  33.580  28.611   1.811
81188W        W42642  43.472  16.228   2.192
81189W        W42643  44.841  32.557  14.877
81190W        W42644  42.364  43.338   3.239
81191W        W42645  13.609  28.085  10.643
81192W        W42646   3.760  21.108   1.853
81193W        W42647  24.649   7.775   4.745
81194W        W42648  38.372  27.626   3.192
81195W        W42649   2.465  24.680   1.771
81196W        W42650  17.072  31.614   4.675
81197W        W42651  27.064   3.896   3.637
81198W        W42652  27.668   4.768  13.531
81199W        W42653  34.102  19.040   0.250
81200W        W42654  21.027  33.544   1.393
81201W        W42655  44.879  30.002  14.863
81202W        W42656  14.670  16.295   4.135
81203W        W42657  27.048   3.221   2.241
81204W        W42658  31.456  24.975   1.439
81205W        W42659   4.935   5.338  10.596
81206W        W42660  16.124  21.124  10.443
81207W        W42661  29.973  18.068  13.489
81208W        W42662  44.451  44.850  14.354
81209W        W42663  16.224  39.436   5.129
81210W        W42664  25.202   4.374   3.172
81211W        W42665  19.155  17.231  12.944
81212W        W42666  15.329  10.729  13.529
81213W        W42667  16.700  38.439   3.154
81214W        W42668  34.969  22.565   0.749
81215W        W42669  37.919  18.141   4.168
81216W        W42670   7.216  11.785  14.979
81217W        W42671  19.055   8.694   1.296
81218W        W42672  11.660  32.630   0.890
81219W        W42673  16.152  18.740   3.306
81220W        W42674  19.222  13.269  12.044
81221W        W42675  11.658  28.641  10.590
81222W        W42676  39.536  41.008  12.999
81223W        W42677  35.445   8.733   4.799
81224W        W42678   0.797  38.970  13.826
81225W        W42679  35.545  24.705   2.391
81226W        W42680  27.001  32.624  14.341
81227W        W42681   1.381  21.652   1.423
81228W        W42682  39.402   5.305   1.337
81229W        W42683  14.721  15.698   9.947
81230W        W42684  40.486  36.481  10.495
81231W        W42685   4.442  18.081   2.417
81232W        W42686  13.338  34.395   0.927
81233W        W42687   1.940  24.199  11.439
81234W        W42688  27.615  33.069   0.750
81235W        W42689  44.826  20.272   3.647
81236W        W42690  28.600   4.730   5.171
81237W        W42691  30.554  35.363  13.024
81238W        W42692   5.702   1.297   0.870
81239W        W42693  17.121  33.573   5.291
81240W        W42694   5.897  35.547   4.622
81241W        W42695   6.832  41.961  12.421
81242W        W42696   4.204  23.703  10.907
81243W        W42697   4.927  37.013  14.413
81244W        W42698  42.793  11.809  11.384
81245W        W42699  18.164  41.894  11.127
81246W        W42700  33.409   4.861  11.602
81247W        W42701  44.422   8.843   0.863
81248W        W42702  41.912  35.093   1.768
81249W        W42703  14.277  16.142  10.918
81250W        W42704  17.298  26.505   3.650
81251W        W42705  39.840   2.385  13.532
81252W        W42706  35.583  13.323  14.996
81253W        W42707  35.949  18.652   2.398
81254W        W42708  11.733   0.784  14.341
81255W        W42709  19.645  26.521  11.508
81256W        W42710  38.834  30.998   3.277
81257W        W42711  44.398  12.117  11.066
81258W        W42712  40.376  35.084  13.921
81259W        W42713  25.979   2.419   2.734
81260W        W42714  38.935  16.684  13.334
81261W        W42715  44.808  27.168  13.810
81262W        W42716  43.973  38.061  13.422
81263W        W42717  41.340  13.614   1.775
81264W        W42718  17.763  13.286  10.005
81265W        W42719  42.784   0.845  13.316
81266W        W42720  34.606  33.957   0.882
81267W        W42721  22.069  27.188   4.763
81268W        W42722   1.367   6.746  14.455
81269W        W42723   4.843  31.131  12.416
81270W        W42724  15.598  17.142  11.602
81271W        W42725  31.560  18.284   3.809
81272W        W42726  25.543   5.322  11.123
81273W        W42727  18.723  33.477  13.539
81274W        W42728  26.208  18.723   4.270
81275W        W42729  13.260  42.394  14.957
81276W        W42730  43.774  20.079   4.624
81277W        W42731  30.472   4.282  13.980
81278W        W42732   7.730  12.248  12.459
81279W        W42733   0.834  29.569   2.381
81280W        W42734  13.705  15.776  12.953
81281W        W42735  34.098  24.488   2.692
81282W        W42736  44.997  11.845  11.554
81283W        W42737  12.222   7.672  13.810
81284W        W42738  24.527  10.148  11.512
81285W        W42739  13.614  16.714   1.364
81286W        W42740  11.795  37.337  11.555
81287W        W42741  33.879  42.994  14.355
81288W        W42742  40.846  15.277  12.481
81289W        W42743  28.160  36.541   2.228
81290W        W42744  19.210   3.220  13.465
81291W        W42745  43.772  28.127  11.930
81292W        W42746  15.212  17.638   0.890
81293W        W42747  27.190  27.090   4.338
81294W        W42748   0.985  27.057   1.729
81295W        W42749  12.686  24.709  11.608
81296W        W42750   5.275   8.280  13.911
81297W        W42751  13.772   9.150   0.318
81298W        W42752  22.058  28.467  11.100
81299W        W42753  36.847  25.984  13.993
81300W        W42754  18.630  33.512  14.953
81301W        W42755  15.182  12.173  12.480
81302W        W42756  36.038  32.093   2.273
81303W        W42757  40.989  19.169   0.772
81304W        W42758  10.835  42.004   3.303
81305W        W42759  15.788  30.136  13.053
81306W        W42760  25.202   5.339  12.505
81307W        W42761  19.086  32.135  13.821
81308W        W42762   2.842   4.365  13.864
81309W        W42763   4.751  40.309  10.606
81310W        W42764  20.104  14.603   0.476
81311W        W42765   5.368  38.058  11.469
81312W        W42766  39.431  31.505   3.798
81313W        W42767  35.988  25.090  14.470
81314W        W42768  41.444  39.478  12.513
81315W        W42769  32.103   5.262   0.809
81316W        W42770  19.146  44.814  11.882
81317W        W42771  25.092   9.775  12.082
81318W        W42772  19.091  19.233  11.583
81319W        W42773  38.548  39.453  11.585
81320W        W42774  35.078   1.843   3.168
81321W        W42775  17.225  30.103   0.818
81322W        W42776   2.931  21.648  10.517
81323W        W42777  23.677  15.126  14.894
81324W        W42778   2.359  10.268  11.520
81325W        W42779  44.797  40.951  11.953
81326W        W42780  27.109  35.909   2.870
81327W        W42781  37.998  39.552  12.980
81328W        W42782   6.254  22.056   0.799
81329W        W42783  25.641  22.666  13.014
81330W        W42784  14.752   7.239  13.890
81331W        W42785  27.975  20.684  13.408
81332W        W42786  40.391   3.898  12.045
81333W        W42787   2.815  43.968  11.383
81334W        W42788  23.059  36.527   0.466
81335W        W42789  21.664  14.257   0.451
81336W        W42790  32.906   7.803  10.510
81337W        W42791  30.109  34.400  11.896
81338W        W42792  33.469  36.986  14.879
81339W        W42793  25.618  13.254   4.810
81340W        W42794  38.340  26.085  14.014
81341W        W42795  41.381  36.367   3.274
81342W        W42796  10.818  20.611  11.408
81343W        W42797  27.559  37.421   1.381
81344W        W42798  22.088   7.836   0.249
81345W        W42799  14.133  29.640   3.785
81346W        W42800   2.236  30.657  14.368
81347W        W42801  36.035  29.599   4.616
81348W        W42802  30.522  20.725  14.298
81349W        W42803   5.850  35.559  13.057
81350W        W42804  31.908  19.689   4.605
81351W        W42805  13.703  36.379  10.521
81352W        W42806  20.727  38.550  14.791
81353W        W42807  33.502  44.299   1.420
81354W        W42808  42.352  37.442  14.999
81355W        W42809  18.155   5.860   0.916
81356W        W42810  33.995   9.837   9.651
81357W        W42811  20.631  34.916  13.400
81358W        W42812  29.011  24.607   2.889
81359W        W42813  42.472  34.593   3.870
81360W        W42814  42.420  21.053  11.925
81361W        W42815  14.767  11.214  13.033
81362W        W42816  11.668  16.786   0.742
81363W        W42817   1.893  36.066   1.377
81364W        W42818  43.458  17.763   0.300
81365W        W42819  19.270  10.771   1.287
81366W        W42820  23.610  24.197  11.093
81367W        W42821  29.924   9.189   0.474
81368W        W42822   7.397  37.453  13.985
81369W        W42823  23.078  24.709  14.872
81370W        W42824  23.693  32.455   1.389
81371W        W42825   6.306  15.129   1.791
81372W        W42826  30.494  23.602  12.070
81373W        W42827  19.743   7.791  10.536
81374W        W42828  43.874  25.151  11.859
81375W        W42829  18.745  29.444   1.834
81376W        W42830  12.329  31.551   2.284
81377W        W42831  14.139  26.523   4.221
81378W        W42832  40.429  31.141   3.866
81379W        W42833  17.152  19.736   4.738
81380W        W42834  43.394  15.624   2.825
81381W        W42835  26.133  36.077   1.697
81382W        W42836  21.701   9.360   1.279
81383W        W42837  33.447  43.926   2.745
81384W        W42838  27.512  15.578   3.272
81385W        W42839   6.743  31.999  13.429
81386W        W42840  27.592   6.898   1.900
81387W        W42841  44.451  37.063  13.324
81388W        W42842  12.195  35.908  13.516
81389W        W42843   6.191  34.889  10.560
81390W        W42844  11.215   7.218  12.374
81391W        W42845  26.605   8.836  11.018
81392W        W42846  26.984  22.106  10.521
81393W        W42847  18.621   7.885   0.768
81394W        W42848   9.277  10.221  10.908
81395W        W42849   6.283  32.490  12.952
81396W        W42850  14.675  24.123   2.901
81397W        W42851  26.105  36.428  13.038
81398W        W42852  41.012   3.865   4.248
81399W        W42853  21.709  19.600  13.426
81400W        W42854   2.763  38.004  14.953
81401W        W42855  24.481  33.069   4.772
81402W        W42856  32.627  29.050   1.403
81403W        W42857  33.900   2.312   2.708
81404W        W42858  21.263   2.796   4.669
81405W        W42859  11.866   1.247   1.779
81406W        W42860  26.652   0.962  11.609
81407W        W42861   8.218  41.441   4.195
81408W        W42862  24.511  29.512   0.808
81409W        W42863  36.432   4.227  13.040
81410W        W42864  37.477  32.026  14.372
81411W        W42865  41.842  31.566   0.369
81412W        W42866  37.960   0.447   2.726
81413W        W42867  28.456   5.232   1.891
81414W        W42868  32.485  19.674   3.819
81415W        W42869  22.043  20.692   2.852
81416W        W42870  32.972  23.015  12.968
81417W        W42871   2.919  31.045   4.766
81418W        W42872  26.961  32.520  13.408
81419W        W42873   5.354  29.950   3.653
81420W        W42874   3.405  18.295  14.361
81421W        W42875   3.836  22.247   0.363
81422W        W42876  38.347  38.902   1.808
81423W        W42877  32.044  10.145   1.253
81424W        W42878  33.905  13.200   0.816
81425W        W42879  21.188   1.888  12.871
81426W        W42880  12.640  14.272  10.967
81427W        W42881   8.811   2.751   2.749
81428W        W42882  22.715  24.067  12.002
81429W        W42883  27.941  34.102   3.208
81430W        W42884  27.960  18.715   1.694
81431W        W42885  39.966  38.394   4.643
81432W        W42886   0.305  36.570   2.708
81433W        W42887  18.599   2.271   3.854
81434W        W42888  13.620   3.250  14.964
81435W        W42889  24.979  12.184  12.516
81436W        W42890  36.056  43.978   1.214
81437W        W42891  31.508  39.980  13.397
81438W        W42892  16.632  40.832   4.130
81439W        W42893  11.633   8.222   1.268
81440W        W42894   6.802  19.181  11.045
81441W        W42895  10.782  28.035   1.339
81442W        W42896  27.041   3.412   0.318
81443W        W42897   1.442  11.154  15.000
81444W        W42898  15.809  39.421  11.871
81445W        W42899  16.634  37.973  14.368
81446W        W42900  43.378  28.076   1.226
81447W        W42901  19.088  23.691   3.222
81448W        W42902  38.898  42.786   4.197
81449W        W42903  25.562   7.715  12.070
81450W        W42904  14.215  30.571  12.371
81451W        W42905  41.015   7.345   3.185
81452W        W42906  19.213  25.034   1.211
81453W        W42907   0.253  43.504  14.312
81454W        W42908  21.514  39.001   0.406
81455W        W42909  43.328  19.106  12.976
81456W        W42910  38.340  33.104  14.285
81457W        W42911  35.033   7.734   3.194
81458W        W42912  30.117  27.448  12.886
81459W        W42913  11.175  41.989  11.984
81460W        W42914  27.955   6.217  13.919
81461W        W42915  15.188  33.414   1.816
81462W        W42916  21.173   9.853   3.178
81463W        W42917  43.492  17.073  10.912
81464W        W42918  33.621  29.452   0.769
81465W        W42919   2.815  38.469  12.481
81466W        W42920  23.234  44.929   2.860
81467W        W42921  33.122  35.980   4.249
81468W        W42922   3.418   5.694  13.812
81469W        W42923  29.937  36.365   2.223
81470W        W42924  37.452  34.381   4.288
81471W        W42925   6.680   4.899  12.492
81472W        W42926  36.924  12.318  10.570
81473W        W42927  29.508   3.951   1.442
81474W        W42928  11.309  11.630   1.396
81475W        W42929  35.502  10.840   3.671
81476W        W42930  34.430   5.807   1.719
81477W        W42931  44.464  21.623  13.430
81478W        W42932  40.428  27.646   2.744
81479W        W42933  35.564   8.165  10.957
81480W        W42934   2.735  27.663   3.709
81481W        W42935  32.094  17.740  11.902
81482W        W42936   3.217  36.098   0.769
81483W        W42937   7.678  30.610  14.926
81484W        W42938  28.129  15.659   3.671
81485W        W42939  34.424  38.964  11.479
81486W        W42940  10.664  15.221  11.467
81487W        W42941  25.628  25.191   1.818
81488W        W42942   3.885  36.949   1.806
81489W        W42943  22.010  10.731   1.890
81490W        W42944  44.451  37.340   2.720
81491W        W42945  35.048  13.295   2.414
81492W        W42946  15.295  15.781   3.250
81493W        W42947  39.977  14.753   2.253
81494W        W42948  19.568   4.423  11.043
81495W        W42949  38.949  39.909   4.339
81496W        W42950  22.657  22.650   2.184
81497W        W42951  37.962   7.776   1.849
81498W        W42952  15.133  42.907   3.868
81499W        W42953   0.353  32.549  10.950
81500W        W42954  27.098  21.062   0.279
81501W        W42955   5.803  31.482   1.443
81502W        W42956  24.096  30.974   3.694
81503W        W42957  39.365  29.009   4.730
81504W        W42958  13.242  43.959   1.251
81505W        W42959  38.434  34.509  13.389
81506W        W42960  26.167  40.008   0.925
81507W        W42961  26.616  18.782  14.997
81508W        W42962  43.295  42.416   0.910
81509W        W42963  13.636  39.980  14.001
81510W        W42964   4.871  27.595  11.442
81511W        W42965  19.552  14.688  11.989
81512W        W42966  28.097  11.699   0.328
81513W        W42967  22.726  30.612   4.746
81514W        W42968   8.179  43.961  10.503
81515W        W42969  27.506   4.328  12.963
81516W        W42970  12.708  12.324   5.208
81517W        W42971   3.726  26.563  12.396
81518W        W42972  39.536   3.288   1.404
81519W        W42973  16.142   4.809   1.231
81520W        W42974  17.715   7.795  11.873
81521W        W42975  44.914  27.943  14.808
81522W        W42976   5.725  31.022   4.277
81523W        W42977  33.067  17.129  12.578
81524W        W42978  29.571   8.829   0.345
81525W        W42979   6.273  21.126  14.936
81526W        W42980  12.241  33.961  13.542
81527W        W42981  18.245  21.525  12.450
81528W        W42982  13.670   7.709   0.921
81529W        W42983   1.795   4.892  11.017
81530W        W42984  44.417   7.764  12.951
81531W        W42985  18.746  44.348   3.225
81532W        W42986  23.057  16.805   3.175
81533W        W42987  19.219   1.303  13.864
81534W        W42988  22.606  19.608   0.911
81535W        W42989  11.843   5.738   3.256
81536W        W42990  44.272  23.683   2.388
81537W        W42991  34.898  43.021  12.906
81538W        W42992   0.379  38.880   1.228
81539W        W42993  12.642  24.491  13.498
81540W        W42994  44.002  44.846   3.196
81541W        W42995  39.534  12.349  14.405
81542W        W42996  43.850  18.725  13.968
81543W        W42997  12.352  37.057   4.762
81544W        W42998  22.716   2.900   4.326
81545W        W42999  10.753  27.135  11.917
81546W        W43000  17.787  36.084   1.804
81547W        W43001  29.161   4.944   2.883
81548W        W43002  18.234   0.345   2.702
81549W        W43003   2.931  15.737  14.471
81550W        W43004  27.638  34.583  11.862
81551W        W43005  33.599  23.510   3.764
81552W        W43006  37.502  37.926   0.909
81553W        W43007   2.736  21.040   4.287
81554W        W43008  26.114  21.546  12.923
81555W        W43009   0.477  12.710  11.024
81556W        W43010  32.094  27.076   4.211
81557W        W43011  37.858  39.375   3.370
81558W        W43012  15.701  22.128   2.725
81559W        W43013  17.667  39.999  14.004
81560W        W43014  22.666   6.741   1.823
81561W        W43015  30.922  28.034  14.939
81562W        W43016  17.289  32.035   0.305
81563W        W43017   0.320  21.078   3.198
81564W        W43018  14.684  33.882  10.925
81565W        W43019  37.526  42.919  12.372
81566W        W43020  18.257  12.243   2.266
81567W        W43021  36.565  17.661  10.970
81568W        W43022   9.265  40.861  11.073
81569W        W43023  43.814  24.569  13.848
81570W        W43024  34.048   1.405   3.191
81571W        W43025  40.507  38.821  10.537
81572W        W43026  21.654  24.984  11.948
81573W        W43027  37.890  37.001  10.534
81574W        W43028  24.133  36.378   2.692
81575W        W43029  17.081   9.834   0.258
81576W        W43030  41.945   1.739   1.857
81577W        W43031  25.704   6.875   4.339
81578W        W43032  14.146   3.764  10.479
81579W        W43033  20.225  39.886   1.393
81580W        W43034  38.532  34.995   4.829
81581W        W43035  38.871  18.632  10.434
81582W        W43036  15.699  25.964  10.427
81583W        W43037   9.357  22.032   0.283
81584W        W43038  16.111  43.916  14.781
81585W        W43039  12.307   0.888  14.399
81586W        W43040  23.628  22.123  13.390
81587W        W43041   3.791  29.537  14.336
81588W        W43042  27.536  42.500   3.778
81589W        W43043  11.205  27.669   2.330
81590W        W43044  24.496  20.082   2.338
81591W        W43045   4.739  27.491  14.394
81592W        W43046  37.029  25.696  10.454
81593W        W43047   4.325  34.537   2.321
81594W        W43048  21.668   0.248   3.237
81595W        W43049  34.099  42.394  13.955
81596W        W43050   0.357  16.764  12.081
81597W        W43051  13.787  18.149  12.471
81598W        W43052  31.550  38.407  14.326
81599W        W43053  40.808  38.473   1.419
81600W        W43054  22.679  36.455  14.882
81601W        W43055  22.554  13.256  11.125
81602W        W43056   7.846  39.945   3.690
81603W        W43057   7.244   1.447   2.741
81604W        W43058   3.734  28.521   3.755
81605W        W43059  21.675  10.684   0.479
81606W        W43060  26.148  19.217   0.939
81607W        W43061  30.978  36.986  12.928
81608W        W43062  34.497   4.725   3.845
81609W        W43063  13.785  35.403   3.158
81610W        W43064  18.063   6.349   2.187
81611W        W43065   5.701  34.921   1.814
81612W        W43066  23.198   7.236  13.416
81613W        W43067  34.404  44.339   1.395
81614W        W43068  40.361  19.692  12.429
81615W        W43069  19.534  40.317   5.260
81616W        W43070   6.299  36.537  14.430
81617W        W43071  24.058  22.614   3.809
81618W        W43072   4.940  41.844  13.540
81619W        W43073  39.878  18.652   4.267
81620W        W43074  24.523  15.171  14.315
81621W        W43075  11.798  36.521  10.404
81622W        W43076  24.670  44.360  12.404
81623W        W43077  43.465  17.795  11.105
81624W        W43078  33.403   5.836   3.762
81625W        W43079  15.759   8.401   2.706
81626W        W43080  39.393  14.809  14.779
81627W        W43081   7.769  35.988  14.896
81628W        W43082   7.821  23.563  10.555
81629W        W43083  21.754  33.384   2.825
81630W        W43084   6.867  20.173   0.879
81631W        W43085  18.631  15.632   4.798
81632W        W43086  36.438   3.265   0.416
81633W        W43087  43.868  40.008  10.613
81634W        W43088  22.007  24.973   1.857
81635W        W43089  27.665  12.332  11.594
81636W        W43090  20.586  11.299  10.908
81637W        W43091  42.405   1.372   1.779
81638W        W43092  43.917  14.691   3.718
81639W        W43093  15.766   3.945   4.711
81640W        W43094  30.120   6.336   9.941
81641W        W43095  14.820  36.858  11.067
81642W        W43096  20.061   7.328   0.276
81643W        W43097   0.373  39.445  13.326
81644W        W43098   8.205   3.732  11.483
81645W        W43099  23.528  22.170   1.226
81646W        W43100   7.718   0.398  14.809
81647W        W43101  35.992  15.083  13.800
81648W        W43102  37.477  11.679   0.356
81649W        W43103  27.455   5.435  12.946
81650W        W43104  30.112  33.116  14.384
81651W        W43105  22.708  35.863  10.101
81652W        W43106   4.724  17.270  14.425
81653W        W43107  23.611   3.400   1.294
81654W        W43108   0.888   8.171  11.995
81655W        W43109  35.967  13.675   3.318
81656W        W43110  30.568  28.454  11.499
81657W        W43111  10.713  25.094  14.964
81658W        W43112  22.595  17.691  13.525
81659W        W43113  26.535   6.680  11.577
81660W        W43114  31.532  13.807  14.787
81661W        W43115   7.383  44.352   1.704
81662W        W43116   4.814   2.913  11.581
81663W        W43117  33.099  37.494   4.605
81664W        W43118   7.353  15.223  14.373
81665W        W43119   6.296  36.913  11.442
81666W        W43120  10.153  19.104   0.754
81667W        W43121  14.603  16.700   4.121
81668W        W43122  22.198  20.202   4.676
81669W        W43123   0.270  29.935   3.206
81670W        W43124   6.909  35.569  12.471
81671W        W43125   6.918  23.135  13.328
81672W        W43126  15.194  30.912   1.859
81673W        W43127  37.361  21.068  11.493
81674W        W43128  34.439  39.379  12.576
81675W        W43129  21.595  39.414   2.663
81676W        W43130  10.220  21.175   2.330
81677W        W43131  43.383  31.020  13.442
81678W        W43132  31.919  18.569   3.830
81679W        W43133  29.573  10.148   1.858
81680W        W43134  35.555   6.289  14.850
81681W        W43135  13.289   3.242  10.480
81682W        W43136  14.776  16.671   0.288
81683W        W43137  25.167  43.333   4.599
81684W        W43138  43.456  24.214  14.440
81685W        W43139  25.165  14.590   2.283
81686W        W43140  21.237   1.274   2.408
81687W        W43141  30.604   9.822  10.522
81688W        W43142  44.331  33.425   0.278
81689W        W43143  34.563  28.635  10.491
81690W        W43144  20.656  22.062   3.154
81691W        W43145  24.644  25.582  12.529
81692W        W43146  25.491  15.725  14.823
81693W        W43147  33.024  38.527   3.310
81694W        W43148  11.137  24.655   1.368
81695W        W43149   5.758  19.269   3.247
81696W        W43150  40.405  44.395   1.799
81697W        W43151   0.324  26.664   2.293
81698W        W43152   2.296  33.956   3.745
81699W        W43153  11.734   7.794   2.215
81700W        W43154  36.409  44.295  14.994
81701W        W43155  25.510  31.549   2.186
81702W        W43156  34.495  20.644  10.952
81703W        W43157  35.033  11.683   5.188
81704W        W43158  10.711  36.545   4.749
81705W        W43159  11.178  16.303   4.607
81706W        W43160  18.262  39.332   2.901
81707W        W43161   4.328  40.944   3.162
81708W        W43162  40.530   2.400  14.779
81709W        W43163  40.528  42.971   2.184
81710W        W43164  22.215   9.187   3.859
81711W        W43165  10.238  13.118  11.593
81712W        W43166  26.206  42.993   1.869
81713W        W43167   1.402   2.944   1.805
81714W        W43168  39.430   6.792  10.596
81715W        W43169  24.653   2.399   0.407
81716W        W43170  19.254  30.015   1.251
81717W        W43171  20.684   5.241   2.257
81718W        W43172  38.831   6.230   3.641
81719W        W43173  40.911  28.558  12.580
81720W        W43174  23.152   2.906   1.899
81721W        W43175  43.425  26.624   4.690
81722W        W43176  18.262  39.322   3.314
81723W        W43177  26.970  17.167   4.793
81724W        W43178  43.477  19.704  14.792
81725W        W43179   4.940  40.967  14.369
81726W        W43180  42.319  18.074   4.819
81727W        W43181  19.545  36.477   2.228
81728W        W43182  31.018  40.498  12.534
81729W        W43183  40.516   4.258  10.904
81730W        W43184  44.453  18.235   2.232
81731W        W43185  13.756  39.883  12.411
81732W        W43186  35.988  16.688   1.877
81733W        W43187   2.367  10.240   3.789
81734W        W43188   8.854   7.758  11.033
81735W        W43189  32.588   0.352  12.570
81736W        W43190  21.725   1.336  12.079
81737W        W43191  35.457  38.370   3.187
81738W        W43192   8.387   3.803   1.773
81739W        W43193  18.209  36.055  13.041
81740W        W43194  24.054  18.208  13.899
81741W        W43195   3.762  25.570  12.986
81742W        W43196  10.166  42.789   1.741
81743W        W43197  39.008  18.221  10.537
81744W        W43198   6.902   6.396  14.840
81745W        W43199  26.695  35.362   0.783
81746W        W43200  31.899  11.305  14.910
81747W        W43201  37.366  44.472   0.426
81748W        W43202   3.911  29.020  10.556
81749W        W43203  37.033  20.041  10.980
81750W        W43204  40.989  44.921   4.196
81751W        W43205   5.919  41.853   3.742
81752W        W43206  30.523  44.446  11.988
81753W        W43207  18.071   3.427   0.894
81754W        W43208  24.707  15.218  10.956
81755W        W43209  31.106  26.977   4.751
81756W        W43210  32.887  15.593  11.032
81757W        W43211  15.788   4.376  14.914
81758W        W43212  12.633  15.630  14.515
81759W        W43213  23.595  24.186   4.598
81760W        W43214  36.352  34.410   2.257
81761W        W43215  35.501  15.754  12.480
81762W        W43216  43.320  31.119  12.035
81763W        W43217  22.041  14.603   3.242
81764W        W43218   3.260  41.949   2.309
81765W        W43219  11.643   4.858  14.387
81766W        W43220  43.353   2.947  12.384
81767W        W43221  23.508  18.629   1.237
81768W        W43222  42.967   9.868   0.736
81769W        W43223  23.018   4.809   2.867
81770W        W43224  12.685  17.613  13.998
81771W        W43225  28.066  32.550  11.602
81772W        W43226  28.141  23.127   2.225
81773W        W43227  22.685  12.139  11.443
81774W        W43228  35.883  18.249  14.861
81775W        W43229  29.129  30.956  11.612
81776W        W43230  23.201  10.796   2.346
81777W        W43231  37.574  24.074  10.624
81778W        W43232   0.293  12.234   3.356
81779W        W43233  21.240  20.599   0.309
81780W        W43234   9.207  36.872   2.281
81781W        W43235  34.374  17.288   1.387
81782W        W43236  32.097  43.879  14.821
81783W        W43237  19.649  20.602   2.889
81784W        W43238  38.852  23.736   4.709
81785W        W43239  12.242   9.294  11.583
81786W        W43240   3.797  13.250   0.897
81787W        W43241   3.394  10.729  13.347
81788W        W43242  31.076  18.699   1.745
81789W        W43243  15.797  36.370   0.368
81790W        W43244   5.849   7.343   0.359
81791W        W43245   3.855  18.642  14.867
81792W        W43246  41.925   1.244  11.529
81793W        W43247  36.043   9.744  11.598
81794W        W43248  18.582  30.112   1.804
81795W        W43249   8.234  29.938  12.487
81796W        W43250  11.737  31.639   1.403
81797W        W43251  38.048  23.026  13.840
81798W        W43252  21.090  33.014   1.249
81799W        W43253  43.788  39.339  13.465
81800W        W43254  36.900   1.293  14.984
81801W        W43255   7.806  42.854   3.290
81802W        W43256  19.587  12.258   1.333
81803W        W43257  41.357  23.591  12.358
81804W        W43258  27.529   0.985  10.598
81805W        W43259  17.153   5.779  10.121
81806W        W43260  20.077   9.345  11.393
81807W        W43261  22.157  18.159   4.294
81808W        W43262  17.724  27.681  13.018
81809W        W43263  18.604  25.035  10.132
81810W        W43264  44.350  22.233   1.785
81811W        W43265  15.277  35.368   1.229
81812W        W43266  37.546   5.268  12.549
81813W        W43267  28.531  22.019   3.635
81814W        W43268  44.888  35.580   0.757
81815W        W43269   2.826  10.867   4.706
81816W        W43270   8.870   8.754   3.783
81817W        W43271  40.997   8.250   0.825
81818W        W43272   3.459  19.070  11.558
81819W        W43273  11.310  29.925  13.502
81820W        W43274  35.049  20.531   2.411
81821W        W43275  26.199  26.205  14.439
81822W        W43276  15.248  37.989  14.864
81823W        W43277  17.555  24.626   4.750
81824W        W43278  41.996  36.934  12.965
81825W        W43279  42.804  42.011  10.624
81826W        W43280  29.465  27.148  10.109
81827W        W43281  27.452  29.493  13.409
81828W        W43282  24.569  29.448   1.932
81829W        W43283   1.766  22.649  12.990
81830W        W43284  26.487  16.225  12.441
81831W        W43285  32.039  33.111  10.554
81832W        W43286  26.465  25.187  11.377
81833W        W43287   5.246  35.898  12.996
81834W        W43288  19.274  25.982   2.793
81835W        W43289   7.742   7.817   0.322
81836W        W43290  36.049  43.332  12.523
81837W        W43291  27.499   0.402  14.816
81838W        W43292   8.765  14.261   1.336
81839W        W43293  16.710  33.881   1.846
81840W        W43294  43.902  42.016  10.908
81841W        W43295   9.184   2.304  11.971
81842W        W43296  17.236  42.478   0.952
81843W        W43297   4.289   6.306  12.024
81844W        W43298  37.939  38.035  12.020
81845W        W43299   2.384   0.430   2.372
81846W        W43300   5.265  30.910  13.471
81847W        W43301   8.370  12.698   0.387
81848W        W43302  39.896  16.137   4.598
81849W        W43303  36.351  26.066   2.814
81850W        W43304  19.205  30.562  11.076
81851W        W43305  22.609  16.300  14.866
81852W        W43306  25.168  40.818  12.091
81853W        W43307  11.233  33.601   1.385
81854W        W43308  42.934  41.967  13.425
81855W        W43309  13.338  18.546   3.735
81856W        W43310  19.185  23.991   1.812
81857W        W43311   8.238  34.395   4.128
81858W        W43312  14.327  17.750   2.196
81859W        W43313  37.888  11.356   3.210
81860W        W43314  14.234  44.479   4.119
81861W        W43315  41.500  25.663  11.012
81862W        W43316  39.347  13.695  12.473
81863W        W43317  16.276  12.631  13.363
81864W        W43318  38.547  42.807  11.479
81865W        W43319   6.794  43.958  12.022
81866W        W43320   5.252  19.280  10.517
81867W        W43321   0.880  38.386  14.965
81868W        W43322  27.036   1.247  13.479
81869W        W43323  36.986  33.982   1.252
81870W        W43324  10.774   9.686  13.397
81871W        W43325  18.251  16.708   2.185
81872W        W43326  23.700   4.216   0.407
81873W        W43327  39.486   8.815   1.905
81874W        W43328  39.811  33.384  11.126
81875W        W43329  19.681  15.125   2.841
81876W        W43330  37.385  43.279  10.640
81877W        W43331   2.895  10.350   3.856
81878W        W43332  18.789   5.895  13.836
81879W        W43333  36.429  44.472  12.890
81880W        W43334  44.826   4.814  13.032
81881W        W43335  15.099   4.826   1.293
81882W        W43336  32.480   7.884  14.762
81883W        W43337  18.713  31.999  11.923
81884W        W43338  26.001  23.677   3.709
81885W        W43339  15.197  18.620   0.755
81886W        W43340   9.822  25.166  12.089
81887W        W43341  44.916  29.072   1.213
81888W        W43342  31.981  33.622  14.841
81889W        W43343  16.140   0.424  12.055
81890W        W43344  37.909  24.552  11.104
81891W        W43345  25.542  42.810   2.368
81892W        W43346   1.375  22.538  13.798
81893W        W43347  11.735   1.384  13.432
81894W        W43348  35.923  25.532  12.557
81895W        W43349  38.342   9.276   1.233
81896W        W43350  13.784  26.986  13.407
81897W        W43351  21.551  43.502  14.435
81898W        W43352  29.667  44.468   3.737
81899W        W43353  43.933  38.032  12.872
81900W        W43354  27.456  13.774  10.408
81901W        W43355  20.525  34.969   0.822
81902W        W43356  39.052  12.360  11.569
81903W        W43357  17.259   0.797   0.471
81904W        W43358   0.947  40.921   3.648
81905W        W43359   9.864  41.989   3.680
81906W        W43360  24.526   7.175   4.753
81907W        W43361   2.258  34.035   2.850
81908W        W43362  31.593  18.136  11.871
81909W        W43363  40.973   9.870  11.973
81910W        W43364  18.677  22.541   5.225
81911W        W43365  25.172  24.062  10.448
81912W        W43366  29.058   8.336  12.426
81913W        W43367  20.134  12.633  13.855
81914W        W43368  24.689   4.862  11.459
81915W        W43369  36.974  21.148  12.892
81916W        W43370  14.687   3.346  13.964
81917W        W43371  21.161  16.096   1.749
81918W        W43372  31.461   0.798  12.058
81919W        W43373  14.692  19.279  12.022
81920W        W43374  43.273  29.668  10.566
81921W        W43375   0.249  34.101  14.769
81922W        W43376  34.547  40.841   3.255
81923W        W43377  29.617  17.765   2.851
81924W        W43378  42.907  35.930  10.945
81925W        W43379   4.788  24.698   1.238
81926W        W43380  22.068  35.450   2.252
81927W        W43381  19.051   0.433   1.245
81928W        W43382  19.643  27.528   1.908
81929W        W43383  32.416   9.150  12.029
81930W        W43384   0.367  17.303  14.012
81931W        W43385  32.596   3.379   4.172
81932W        W43386  33.425  23.171   0.259
81933W        W43387  40.457  17.254  13.398
81934W        W43388  44.850  20.195  11.920
81935W        W43389  24.192  28.490  11.504
81936W        W43390  41.848   5.725  13.961
81937W        W43391  32.914  13.143   1.286
81938W        W43392  43.792  39.497   1.313
81939W        W43393  15.091  20.032   1.333
81940W        W43394  12.715  17.291   3.154
81941W        W43395   5.704   7.899   3.324
81942W        W43396  32.914  18.086  13.969
81943W        W43397  17.210   9.687   1.717
81944W        W43398   0.370  29.970  12.541
81945W        W43399   7.327  11.815  13.935
81946W        W43400  28.008  13.678   9.970
81947W        W43401  15.672  38.912   3.667
81948W        W43402  24.011  23.603   4.796
81949W        W43403  25.153  16.666   4.703
81950W        W43404  14.768   9.327  12.824
81951W        W43405  44.416  33.573   4.618
81952W        W43406  28.065  31.486   3.705
81953W        W43407  13.829   8.176   3.166
81954W        W43408  43.473  41.299   4.700
81955W        W43409  29.630  42.375  12.823
81956W        W43410  42.795  11.826  10.947
81957W        W43411   9.837  16.274   1.912
81958W        W43412  12.246  13.142   1.721
81959W        W43413   1.330  23.496   2.891
81960W        W43414  15.628  21.553   4.237
81961W        W43415  31.036   1.752   9.949
81962W        W43416  43.472   9.358  12.080
81963W        W43417  34.542  41.869   2.676
81964W        W43418  19.658  33.468  13.856
81965W        W43419  11.128  20.175   9.956
81966W        W43420  14.595  39.832   0.449
81967W        W43421  31.632   9.750   1.893
81968W        W43422   4.372  11.659   2.236
81969W        W43423  41.834  41.424   9.960
81970W        W43424  42.295  31.960   3.869
81971W        W43425  21.514  26.023  14.923
81972W        W43426  29.960  41.432   3.783
81973W        W43427  23.195   0.895  11.031
81974W        W43428   5.831  16.279  10.966
81975W        W43429  32.951  27.095  13.003
81976W        W43430   7.789  15.222   4.240
81977W        W43431  35.534   2.740  10.977
81978W        W43432  16.726  43.393   2.676
81979W        W43433  35.537  23.145  13.829
81980W        W43434   0.415  20.171   0.831
81981W        W43435  24.037  30.615   5.293
81982W        W43436  12.290  35.382  12.078
81983W        W43437  20.271   1.411  12.406
81984W        W43438  12.142  18.603  11.859
81985W        W43439  17.168  44.475  12.561
81986W        W43440  16.786   1.859   2.325
81987W        W43441  17.666  35.083  11.473
81988W        W43442  26.139  13.723  10.631
81989W        W43443   4.272  23.108   0.963
81990W        W43444  39.486   1.249  11.102
81991W        W43445  36.902   8.878   1.301
81992W        W43446  30.622  13.160  14.901
81993W        W43447  33.911  12.638   1.754
81994W        W43448   6.394   5.783   3.701
81995W        W43449  12.647   2.241  10.552
81996W        W43450  32.029  36.572  14.956
81997W        W43451  23.710   2.282  11.074
81998W        W43452  14.763  36.992   0.828
81999W        W43453  44.420  40.465  12.926
82000W        W43454  37.458  29.565  11.021
82001W        W43455  11.294  10.821  14.795
82002W        W43456   9.824   5.808  14.503
82003W        W43457  15.195  29.468   0.272
82004W        W43458  14.821  11.819   1.425
82005W        W43459  18.216   6.682   4.619
82006W        W43460  21.244   6.724  10.146
82007W        W43461   9.749  19.634  11.876
82008W        W43462  15.793  18.547  12.997
82009W        W43463  11.231  38.052   4.772
82010W        W43464   5.924   9.807   4.715
82011W        W43465  35.571   1.914  10.456
82012W        W43466  27.990   0.803  13.950
82013W        W43467  10.303  17.703  10.964
82014W        W43468  14.733  26.503   4.695
82015W        W43469  11.313  39.979  14.962
82016W        W43470  42.332  33.099   0.920
82017W        W43471   7.724   6.373  13.517
82018W        W43472  10.746  32.088  13.474
82019W        W43473  29.140   0.900  14.514
82020W        W43474  16.299  38.946  10.598
82021W        W43475   9.205  15.191  13.499
82022W        W43476  34.103  10.636   4.311
82023W        W43477  40.820  30.432  11.033
82024W        W43478   1.282  43.017  12.985
82025W        W43479   1.319  31.124   0.242
82026W        W43480  28.987  12.320  12.860
82027W        W43481   3.831   1.955   2.292
82028W        W43482  31.614   8.776   1.836
82029W        W43483  20.532   4.886  13.413
82030W        W43484  37.887  10.783   1.315
82031W        W43485  31.495   3.795   2.777
82032W        W43486  18.674  17.572   1.827
82033W        W43487  42.501   3.769  11.014
82034W        W43488  17.065  25.500   1.291
82035W        W43489   4.238  11.152   0.733
82036W        W43490   0.260   5.336  12.849
82037W        W43491   5.786  42.937   4.803
82038W        W43492   9.662  11.156  11.968
82039W        W43493   7.395  22.657   4.643
82040W        W43494  44.311  19.083  12.558
82041W        W43495   0.825   3.906  12.431
82042W        W43496  30.480  16.282  12.480
82043W        W43497  37.370  37.516  13.913
82044W        W43498  41.454  33.622   3.383
82045W        W43499  21.670  25.517   1.831
82046W        W43500  23.031  39.957   4.247
82047W        W43501  37.517   8.780   1.397
82048W        W43502  37.363  44.832  12.982
82049W        W43503  44.893  28.137   1.843
82050W        W43504   5.724  36.416  11.073
82051W        W43505  31.017  44.425  12.851
82052W        W43506  22.225  28.574   4.601
82053W        W43507  39.914  33.497   1.268
82054W        W43508   7.797  18.557   0.244
82055W        W43509  22.201   1.787   1.367
82056W        W43510  10.730  23.052  14.302
82057W        W43511   8.211   5.416   2.885
82058W        W43512   0.946  42.000   4.646
82059W        W43513   1.283  37.895  13.888
82060W        W43514  43.852  10.290  13.956
82061W        W43515  37.474  24.559  11.462
82062W        W43516  24.520  24.703  13.441
82063W        W43517   6.733  15.104   1.324
82064W        W43518   7.393  15.177  13.999
82065W        W43519  13.699  23.584  11.042
82066W        W43520  40.499  12.755   1.400
82067W        W43521  39.007  24.512  13.022
82068W        W43522   5.291   5.761  11.550
82069W        W43523  17.300  30.566  10.553
82070W        W43524  29.980   0.436   0.361
82071W        W43525  25.970  43.318   2.396
82072W        W43526   1.286   2.911   2.676
82073W        W43527  20.039   8.355  12.910
82074W        W43528  30.042  39.049  13.412
82075W        W43529  21.071  35.002  11.920
82076W        W43530   8.867  30.514   3.787
82077W        W43531  40.378  34.454  11.944
82078W        W43532  35.071  44.406  14.365
82079W        W43533  32.394  36.405  14.398
82080W        W43534  23.721   7.369  12.483
82081W        W43535  26.063  26.163   5.640
82082W        W43536  36.872   2.357  10.542
82083W        W43537  15.819  36.983  14.406
82084W        W43538  21.050   2.416  11.496
82085W        W43539   7.405   3.816  11.477
82086W        W43540  16.761  29.988   0.811
82087W        W43541  32.059  11.288  14.415
82088W        W43542   8.869  28.930  11.478
82089W        W43543  41.383   4.405   2.412
82090W        W43544  44.301  39.365   1.922
82091W        W43545   0.792  38.408   3.147
82092W        W43546   6.290  44.370  12.087
82093W        W43547  18.774  26.472   1.733
82094W        W43548   3.451   4.824   1.900
82095W        W43549   1.442  13.632  10.615
82096W        W43550  33.573  37.564  10.514
82097W        W43551  26.955  41.804   2.882
82098W        W43552  12.216  38.502   1.427
82099W        W43553  23.122  13.197  13.935
82100W        W43554  15.751  30.470  10.097
82101W        W43555   6.405  11.627  11.457
82102W        W43556  19.660  27.468  12.396
82103W        W43557  34.928  28.118  13.341
82104W        W43558  43.283   6.271   2.333
82105W        W43559   2.251   1.790   2.377
82106W        W43560  33.918   4.935  12.357
82107W        W43561  23.702  22.240   0.421
82108W        W43562   3.223   9.299  12.382
82109W        W43563  34.948  23.159   4.146
82110W        W43564  28.940  26.089  13.835
82111W        W43565  40.878   7.193   0.947
82112W        W43566  37.842  13.234   0.822
82113W        W43567   5.416  14.248  14.032
82114W        W43568  27.574  24.672   3.328
82115W        W43569  31.538  30.648  12.901
82116W        W43570  25.196  31.631   2.413
82117W        W43571  26.473  37.870   1.288
82118W        W43572  32.575   7.739  11.569
82119W        W43573  23.113  38.859  10.596
82120W        W43574  30.558  44.844   0.906
82121W        W43575  18.551  10.816  11.052
82122W        W43576  42.523  16.250   2.763
82123W        W43577  21.133  37.463  10.943
82124W        W43578  35.913   1.446   0.842
82125W        W43579   7.299   6.841   0.800
82126W        W43580  10.187  30.917   4.165
82127W        W43581  26.496   1.855   1.781
82128W        W43582  19.675  12.677   0.420
82129W        W43583  33.422  33.966   5.123
82130W        W43584  32.926  14.613   2.757
82131W        W43585  10.744  24.539   4.654
82132W        W43586  35.979   0.466  13.928
82133W        W43587   6.800  16.120   1.835
82134W        W43588  35.392  36.417   0.268
82135W        W43589  10.254   7.820  14.879
82136W        W43590   6.740  11.217  14.356
82137W        W43591  32.900   4.931  11.979
82138W        W43592  16.570  21.178   2.846
82139W        W43593  28.101  41.942   0.264
82140W        W43594  14.749  38.926   4.142
82141W        W43595   5.400  20.111  10.421
82142W        W43596  14.260   1.907   4.649
82143W        W43597  34.866  37.023  12.514
82144W        W43598   7.303  44.433  13.486
82145W        W43599  28.073  10.145  13.420
82146W        W43600  44.974   8.318  14.898
82147W        W43601  39.973  19.211   4.755
82148W        W43602   2.295   3.765   1.296
82149W        W43603  24.015  35.460   4.268
82150W        W43604  11.845  27.150   1.394
82151W        W43605   2.759  22.129  14.906
82152W        W43606  37.493  10.682  12.971
82153W        W43607  36.030  40.369  12.390
82154W        W43608   6.861  36.883  12.823
82155W        W43609   9.266   5.369  13.043
82156W        W43610  24.034  14.271   4.662
82157W        W43611  27.182  17.130   0.262
82158W        W43612  16.318  14.604  13.830
82159W        W43613   3.401   5.803   4.761
82160W        W43614  10.289   4.832   3.725
82161W        W43615  18.286  23.109   3.843
82162W        W43616  39.020  30.097   4.693
82163W        W43617  31.592   4.723  10.889
82164W        W43618   9.355  35.878  14.880
82165W        W43619  23.091  25.711   3.674
82166W        W43620  20.642  16.655   0.474
82167W        W43621  30.972  39.321   1.231
82168W        W43622  22.662  32.434   3.854
82169W        W43623  36.592   2.932  14.878
82170W        W43624  35.562  36.063   2.820
82171W        W43625  41.914  39.478   1.286
82172W        W43626  43.433  14.234   2.734
82173W        W43627  32.954  14.332   4.267
82174W        W43628  19.059  24.565  13.437
82175W        W43629  30.050  33.593   0.940
82176W        W43630  34.408  33.931   4.328
82177W        W43631  31.572   8.879   0.352
82178W        W43632   1.935  44.498   5.319
82179W        W43633  28.674  27.018  12.556
82180W        W43634  21.162  35.018  13.477
82181W        W43635  22.728   8.801   0.965
82182W        W43636  10.797  26.605  11.858
82183W        W43637  24.572  39.535   4.626
82184W        W43638  10.782  29.613  12.979
82185W        W43639  42.526  12.297  14.377
82186W        W43640  41.029  24.493  13.888
82187W        W43641  27.155  12.764   1.798
82188W        W43642  32.417  39.940  14.015
82189W        W43643  26.195  20.174   1.884
82190W        W43644   3.254   6.323   5.287
82191W        W43645   2.240  37.934   0.803
82192W        W43646  25.160   1.462  10.506
82193W        W43647  14.290  24.703   0.412
82194W        W43648  38.551  11.753  13.850
82195W        W43649   4.707  24.212   1.411
82196W        W43650  11.295  37.858  14.333
82197W        W43651  10.257   7.834   3.737
82198W        W43652  26.167  43.476   3.633
82199W        W43653  41.843  26.131   3.276
82200W        W43654  27.645  13.167   1.434
82201W        W43655  13.792   2.786   1.893
82202W        W43656   0.760  37.924   1.240
82203W        W43657  18.080   9.674  13.451
82204W        W43658   1.830   2.349  14.505
82205W        W43659  15.649  42.299  10.537
82206W        W43660  33.043  42.480  13.850
82207W        W43661  39.010  31.569   4.631
82208W        W43662  34.082  13.802   1.382
82209W        W43663  39.017  38.566  14.505
82210W        W43664  24.693  32.399   1.856
82211W        W43665  11.227  12.686   2.695
82212W        W43666   8.869  16.088   2.827
82213W        W43667  17.279   4.227  11.531
82214W        W43668  12.657  32.589  10.616
82215W        W43669  25.605   5.752  13.051
82216W        W43670   3.303  32.505   5.284
82217W        W43671  36.576  39.460  12.054
82218W        W43672  26.061  22.110   0.321
82219W        W43673   2.435   3.263  10.541
82220W        W43674   1.752  11.639   0.957
82221W        W43675  10.160  44.941  11.879
82222W        W43676  29.503  13.767  14.773
82223W        W43677  16.094   9.220   5.299
82224W        W43678  16.725  32.579   1.916
82225W        W43679  29.926  19.147   3.247
82226W        W43680  38.916  13.332   3.751
82227W        W43681   1.733  25.988   1.281
82228W        W43682   0.421  41.500  14.346
82229W        W43683  17.221  41.883  10.957
82230W        W43684  39.996  32.952   2.853
82231W        W43685  20.652  31.476   2.328
82232W        W43686  35.481   0.450   4.255
82233W        W43687  23.033   3.388   2.203
82234W        W43688  43.824   4.364  11.037
82235W        W43689  42.420  25.189  14.516
82236W        W43690  30.157   0.761   3.326
82237W        W43691  13.662  37.948   9.451
82238W        W43692  15.152   9.827   9.600
82239W        W43693  19.767  38.538   2.875
82240W        W43694   2.821  35.926   1.915
82241W        W43695  36.406  33.086  13.527
82242W        W43696   5.904  22.700  10.425
82243W        W43697  12.777  18.572   1.798
82244W        W43698  20.540  43.356  12.551
82245W        W43699  20.598   5.287   3.664
82246W        W43700  20.737   0.275   0.949
82247W        W43701   9.354  41.526  13.466
82248W        W43702  43.997  14.700  14.280
82249W        W43703  21.635  17.067   0.295
82250W        W43704   4.413  27.108   1.295
82251W        W43705  11.253  39.444  10.922
82252W        W43706  36.975  14.811  10.617
82253W        W43707  15.583  17.192   1.313
82254W        W43708  40.922  43.817  13.375
82255W        W43709  38.002  10.756  10.621
82256W        W43710  20.265  10.167  13.899
82257W        W43711  17.172  32.051  14.789
82258W        W43712   2.781  33.529   4.282
82259W        W43713  30.966  36.946   4.676
82260W        W43714   6.854   3.252   1.404
82261W        W43715  14.832  16.676  12.372
82262W        W43716  40.445  26.188  11.435
82263W        W43717  37.045  14.302   3.326
82264W        W43718  16.279  40.977   5.592
82265W        W43719  41.371  42.448  11.536
82266W        W43720   4.290  35.510  13.988
82267W        W43721   0.392   9.836  13.419
82268W        W43722  10.327   3.354  11.892
82269W        W43723  42.488  13.212   4.795
82270W        W43724   8.304   9.328  13.537
82271W        W43725   0.296  44.296  11.050
82272W        W43726  26.029   6.307   2.289
82273W        W43727  41.350   7.374  14.998
82274W        W43728   5.764  30.450  14.284
82275W        W43729  40.038  21.636   0.343
82276W        W43730  37.938  12.799  12.083
82277W        W43731  22.563  27.952  12.839
82278W        W43732  25.475  14.332   2.789
82279W        W43733   1.253  30.430   1.225
82280W        W43734  21.018  39.387   0.283
82281W        W43735   3.300  38.845   0.854
82282W        W43736  13.211  29.527   0.454
82283W        W43737  11.789  19.571  12.548
82284W        W43738  31.051  11.824   3.662
82285W        W43739   5.373  27.005   1.810
82286W        W43740  24.997  18.708  13.432
82287W        W43741  39.824  31.053   1.815
82288W        W43742   1.771  28.555   0.753
82289W        W43743  18.779   0.824   3.694
82290W        W43744  31.073  21.702   0.782
82291W        W43745   6.297   8.183  10.556
82292W        W43746  36.993   8.160  12.387
82293W        W43747  31.551  43.470  11.921
82294W        W43748  30.967  35.015  10.431
82295W        W43749  36.922  39.871  14.919
82296W        W43750  39.558  17.062   1.234
82297W        W43751  40.464  23.658   4.132
82298W        W43752   3.891  27.048  11.486
82299W        W43753  26.602  43.291   3.734
82300W        W43754   0.748  43.831   4.248
82301W        W43755  23.124  42.901  11.407
82302W        W43756  18.079   8.689  13.377
82303W        W43757   7.699   1.242  11.065
82304W        W43758  31.600   1.342   3.209
82305W        W43759  40.027  41.042   3.759
82306W        W43760  37.054   4.760   4.687
82307W        W43761  31.150  20.121  14.476
82308W        W43762  41.836  40.940  12.438
82309W        W43763  27.534   1.967  13.805
82310W        W43764  16.196  23.132  12.415
82311W        W43765   8.300  13.657   4.290
82312W        W43766   4.740  22.689  11.516
82313W        W43767  26.627  34.454   0.483
82314W        W43768  22.712  15.759   2.265
82315W        W43769  19.574  44.347  10.925
82316W        W43770  13.109  11.332  10.953
82317W        W43771  16.129  44.846   0.920
82318W        W43772   8.837  40.320  10.891
82319W        W43773  42.029  13.801  14.982
82320W        W43774  36.488  44.362   4.184
82321W        W43775  28.114  18.242   2.735
82322W        W43776  35.020  22.196  12.079
82323W        W43777  39.968  17.304  13.836
82324W        W43778   2.328  23.049   3.647
82325W        W43779  25.584   9.782  12.942
82326W        W43780  14.597  35.572   0.393
82327W        W43781   4.268  39.991   4.140
82328W        W43782   7.782   8.231  13.327
82329W        W43783   6.230  16.090  11.503
82330W        W43784  41.834  41.300   1.779
82331W        W43785  41.824  38.348   1.221
82332W        W43786  14.338   4.446   0.404
82333W        W43787  43.361  13.723  10.901
82334W        W43788  13.652  16.122   1.734
82335W        W43789  15.168  29.950   2.246
82336W        W43790  18.221  44.998  14.307
82337W        W43791  33.911  41.009  13.942
82338W        W43792   9.712   1.945  14.490
82339W        W43793   3.331  16.798  14.887
82340W        W43794  28.638  14.834   3.807
82341W        W43795  39.961  36.415   0.382
82342W        W43796  32.629  27.458  13.886
82343W        W43797  27.471  40.380   4.230
82344W        W43798   1.335  40.351  11.591
82345W        W43799  22.177  11.231   3.801
82346W        W43800  17.140  20.031   2.246
82347W        W43801  11.157  39.017   2.213
82348W        W43802  41.409  37.367   4.624
82349W        W43803   7.746  16.095   0.865
82350W        W43804  21.608  33.075  12.513
82351W        W43805  18.124  10.199   0.422
82352W        W43806  31.136  21.600  13.516
82353W        W43807   2.873  31.564   3.359
82354W        W43808  33.600  20.123  10.971
82355W        W43809  21.063  38.488  11.099
82356W        W43810  15.633  19.728  12.023
82357W        W43811  26.182  10.244  14.365
82358W        W43812   5.227  28.651   0.959
82359W        W43813   6.842   7.210   3.281
82360W        W43814   6.694   1.335   4.640
82361W        W43815   2.767  21.090   1.401
82362W        W43816  44.954   3.233   4.796
82363W        W43817  27.005   5.700   1.730
82364W        W43818  37.366   7.175   9.922
82365W        W43819   1.250  17.730  14.867
82366W        W43820  34.053  15.083   4.142
82367W        W43821  35.083  14.720   1.313
82368W        W43822   0.913  17.788   3.826
82369W        W43823  37.969   8.891  10.917
82370W        W43824  16.298  17.192   0.870
82371W        W43825  14.179  34.900   5.234
82372W        W43826   6.837   5.229   3.205
82373W        W43827  11.668  21.558  13.989
82374W        W43828  17.134  39.535   0.295
82375W        W43829  37.909  41.475  11.856
82376W        W43830  43.329  21.217   1.843
82377W        W43831  33.128  20.149  14.453
82378W        W43832   9.874  10.185  12.368
82379W        W43833   0.299  42.894   3.159
82380W        W43834  41.302  19.582  11.513
82381W        W43835  39.932  36.015  11.461
82382W        W43836  36.051  11.662   1.864
82383W        W43837  31.142   6.874  14.977
82384W        W43838  24.200  21.208   1.298
82385W        W43839  11.628  32.580  14.778
82386W        W43840   1.474  17.709   4.184
82387W        W43841  42.424   1.866  13.333
82388W        W43842  14.778  30.010   1.433
82389W        W43843  44.772   9.295  13.910
82390W        W43844  32.503   9.294  14.951
82391W        W43845  21.056  18.745   0.805
82392W        W43846  44.871  36.523   2.313
82393W        W43847  10.219   4.205  10.413
82394W        W43848  13.181   7.282  14.781
82395W        W43849  26.002  19.176   1.933
82396W        W43850   4.408  28.625  12.411
82397W        W43851   4.240  26.192   3.308
82398W        W43852  29.507  34.460  11.883
82399W        W43853   7.735  29.591  13.341
82400W        W43854  36.359  19.770   2.789
82401W        W43855  20.581  28.983   4.261
82402W        W43856   9.175  26.656   4.599
82403W        W43857  38.832   9.809   3.317
82404W        W43858  17.669  25.545  11.969
82405W        W43859  44.311   3.912  13.533
82406W        W43860   1.320  25.603   1.331
82407W        W43861  20.258  28.056  11.865
82408W        W43862  36.432   7.318   2.775
82409W        W43863  33.971  15.216   0.257
82410W        W43864  42.360  37.966   2.891
82411W        W43865  44.829  16.799  11.048
82412W        W43866  39.953  13.208  13.405
82413W        W43867  38.511  21.590  14.362
82414W        W43868  37.839   4.346   0.318
82415W        W43869  16.163  39.903   1.334
82416W        W43870  10.306   3.835   4.668
82417W        W43871  18.675  26.648  12.049
82418W        W43872   9.221  22.176   2.780
82419W        W43873  25.211  16.630  11.562
82420W        W43874  15.617  44.467  11.560
82421W        W43875  29.628  13.343   1.283
82422W        W43876  16.580  17.150   4.296
82423W        W43877  38.420   0.354  14.900
82424W        W43878  10.315   8.689  11.896
82425W        W43879  39.055  36.929   4.821
82426W        W43880  12.154  28.634   2.332
82427W        W43881  25.101   0.296   1.421
82428W        W43882  27.547   2.470   1.335
82429W        W43883   0.349  12.814  12.579
82430W        W43884  26.952  28.503  11.053
82431W        W43885  38.858  34.559  10.413
82432W        W43886  10.813  17.219  13.535
82433W        W43887  23.988  11.737  14.511
82434W        W43888  31.484   9.222  12.933
82435W        W43889   6.684  41.326   4.168
82436W        W43890   9.309  14.744  11.543
82437W        W43891   2.460  39.904  12.511
82438W        W43892   5.202  21.603  11.881
82439W        W43893   7.403  40.357   3.782
82440W        W43894  18.580  34.916   2.694
82441W        W43895  25.631  34.475  13.907
82442W        W43896  30.467  20.118   2.226
82443W        W43897  10.170   7.358   1.895
82444W        W43898  19.133   6.891   2.891
82445W        W43899  23.677  14.660  10.433
82446W        W43900  19.623   4.844   2.412
82447W        W43901   0.404   5.869  10.463
82448W        W43902  38.345  39.555   2.852
82449W        W43903  24.639  20.028  13.884
82450W        W43904   9.660  16.653   3.645
82451W        W43905  17.268  12.626  11.022
82452W        W43906  18.601  20.726   3.766
82453W        W43907  35.062  22.667  12.038
82454W        W43908  22.532  36.074   1.357
82455W        W43909  12.801  12.241   1.310
82456W        W43910  41.859  29.149   2.702
82457W        W43911  17.303  15.198  10.013
82458W        W43912  33.928  19.627   2.841
82459W        W43913  28.484  24.103   0.746
82460W        W43914  21.245  28.028   3.268
82461W        W43915  29.609  18.194  12.404
82462W        W43916  23.583   5.709  14.918
82463W        W43917  44.997  33.594   3.738
82464W        W43918   8.687  11.766  10.911
82465W        W43919  36.012  14.153  14.886
82466W        W43920  27.578  21.121  14.929
82467W        W43921   1.397  18.549   1.327
82468W        W43922  33.901  12.218   1.711
82469W        W43923  29.143  37.436  13.335
82470W        W43924  38.542  32.476   2.841
82471W        W43925  35.411  10.240   3.869
82472W        W43926  24.484   3.899  12.535
82473W        W43927   5.772  40.305   1.330
82474W        W43928  14.648  15.584   2.683
82475W        W43929  36.981   3.882  14.850
82476W        W43930  11.823  41.419   3.812
82477W        W43931   4.849   2.385  14.450
82478W        W43932  13.135  18.122  13.337
82479W        W43933  15.184  28.632   3.232
82480W        W43934   7.782  34.047  13.334
82481W        W43935  17.178  15.651  13.420
82482W        W43936   6.226  27.530   2.404
82483W        W43937   5.853  28.617   3.280
82484W        W43938  34.936   2.296   4.172
82485W        W43939  11.196  39.432  11.936
82486W        W43940  17.159  17.264  12.858
82487W        W43941  35.401  29.950   4.635
82488W        W43942   2.919  35.106  14.769
82489W        W43943   2.371  22.713   3.369
82490W        W43944  29.979  13.754   0.861
82491W        W43945  10.326  24.219   3.221
82492W        W43946  34.935  10.138  14.292
82493W        W43947  30.959   1.457   1.755
82494W        W43948  18.716  29.036  11.982
82495W        W43949  34.514  23.601  13.871
82496W        W43950  13.609  13.827   2.791
82497W        W43951  42.434  27.069  11.523
82498W        W43952   2.756  29.607   3.657
82499W        W43953  31.559  17.090   3.822
82500W        W43954  25.096  13.291  12.574
82501W        W43955  18.630  21.170   3.774
82502W        W43956  22.706   8.287   4.295
82503W        W43957  35.907   3.733   2.329
82504W        W43958  17.202   0.944   3.712
82505W        W43959  29.516   9.687  14.433
82506W        W43960  28.056  19.054   2.717
82507W        W43961  32.631  40.367  10.632
82508W        W43962  10.331  36.424  10.555
82509W        W43963  44.950  36.032  14.822
82510W        W43964   0.987   2.787   4.827
82511W        W43965  28.966  17.717  12.533
82512W        W43966  33.491   5.922  11.980
82513W        W43967   2.960  18.653   3.705
82514W        W43968  31.088   6.737  11.462
82515W        W43969  29.425  15.195  14.777
82516W        W43970  22.719  32.036  14.002
82517W        W43971  11.820  24.673  13.854
82518W        W43972   4.822  36.850  12.402
82519W        W43973  34.595   2.457   1.389
82520W        W43974  23.522  18.090   2.674
82521W        W43975  39.502  21.116  10.082
82522W        W43976  43.876   8.388   3.286
82523W        W43977  38.820   0.434  10.982
82524W        W43978   5.856  21.095   9.980
82525W        W43979  35.529  27.541   1.258
82526W        W43980  19.677  15.099   1.800
82527W        W43981  35.014  29.026   4.623
82528W        W43982  32.538  38.443  12.079
82529W        W43983   5.256   3.411  11.012
82530W        W43984  38.037  29.648   0.288
82531W        W43985  33.946   6.324   0.832
82532W        W43986   7.814   4.314   4.119
82533W        W43987  16.094  12.622  14.401
82534W        W43988  22.041  35.870  11.969
82535W        W43989   1.783  25.617  13.884
82536W        W43990  44.432   4.238   1.339
82537W        W43991  42.986  42.374   3.358
82538W        W43992  25.632  40.368   0.881
82539W        W43993  37.477  43.340   0.881
82540W        W43994  11.656  11.726   2.745
82541W        W43995  38.029  17.597   2.768
82542W        W43996  24.622   0.892  10.955
82543W        W43997  14.244  31.136   1.819
82544W        W43998  21.129  18.738  12.554
82545W        W43999  43.016  20.033  13.944
82546W        W44000  43.864  22.208  13.925
82547W        W44001   5.377  36.423  11.413
82548W        W44002  34.606   0.805  13.485
82549W        W44003  28.673  34.562   0.435
82550W        W44004   5.267  35.368  13.850
82551W        W44005   4.421  28.104  10.621
82552W        W44006   6.188  10.867  14.770
82553W        W44007  10.336  24.523  11.439
82554W        W44008  19.549   6.695   1.910
82555W        W44009  36.534  13.824   4.690
82556W        W44010  37.454  39.436  11.592
82557W        W44011   5.733  40.914   1.751
82558W        W44012   6.230  15.214  13.899
82559W        W44013  38.374  33.449  11.017
82560W        W44014  33.888  19.158   3.864
82561W        W44015  44.857  37.555  14.834
82562W        W44016   6.788  34.450  14.774
82563W        W44017  22.161   8.880  11.927
82564W        W44018   2.914  40.885  11.939
82565W        W44019  30.953   9.867   0.297
82566W        W44020  11.786  24.217  12.392
82567W        W44021  25.549   9.730  14.512
82568W        W44022  27.956  15.112   3.254
82569W        W44023  29.939   2.254   2.818
82570W        W44024   1.302  19.679   2.255
82571W        W44025  41.334  29.633  14.408
82572W        W44026  19.662  22.527  12.016
82573W        W44027  43.863   6.406  10.526
82574W        W44028  12.221   4.274   0.423
82575W        W44029  31.097  25.677   1.854
82576W        W44030  33.127   3.248  12.897
82577W        W44031  23.098  20.547   0.335
82578W        W44032  13.774  33.029  11.072
82579W        W44033  20.245  17.070   4.353
82580W        W44034   1.857  11.731  12.482
82581W        W44035  15.581  34.992  13.913
82582W        W44036  18.652  43.467  11.920
82583W        W44037  20.571  44.857  12.370
82584W        W44038  39.876   5.866   1.315
82585W        W44039  35.869  23.675  12.861
82586W        W44040  40.387   1.457   1.850
82587W        W44041  27.099   1.260  11.125
82588W        W44042   7.218  44.303   2.213
82589W        W44043  28.621   0.436  14.030
82590W        W44044  31.968  21.157   5.292
82591W        W44045  26.146  21.578   0.329
82592W        W44046  21.139   5.403  10.572
82593W        W44047  34.895   5.744   1.340
82594W        W44048  39.930  24.723  13.360
82595W        W44049  11.144  24.074  11.121
82596W        W44050  33.509   7.668  14.431
82597W        W44051   1.782   9.219  12.495
82598W        W44052  15.793   0.338   9.948
82599W        W44053  14.199  38.010  12.378
82600W        W44054  42.786  38.561   3.302
82601W        W44055  36.373  35.960  10.545
82602W        W44056  26.477  24.080  14.339
82603W        W44057  22.172  28.098  13.005
82604W        W44058  22.619  41.538  10.999
82605W        W44059   1.337  11.366  12.426
82606W        W44060  22.063  11.286   4.278
82607W        W44061  29.573   1.319   3.634
82608W        W44062  38.518   6.922   4.295
82609W        W44063   3.936  21.118  12.474
82610W        W44064  33.927  29.985  14.483
82611W        W44065  25.091  38.563  13.866
82612W        W44066  11.281  11.649  10.619
82613W        W44067   9.370   5.719  11.032
82614W        W44068   0.315  36.024   3.637
82615W        W44069  42.463  15.321  11.450
82616W        W44070  24.129  31.491  12.413
82617W        W44071  10.688   7.256   2.178
82618W        W44072  34.388  40.033  14.015
82619W        W44073  35.496  23.559   3.838
82620W        W44074  30.055  39.528  12.052
82621W        W44075  41.507  44.443  13.022
82622W        W44076  17.773  16.667   3.635
82623W        W44077  35.534  31.974  14.277
82624W        W44078  32.933  40.979  10.565
82625W        W44079  16.762   8.287  10.555
82626W        W44080   6.900  43.420   0.440
82627W        W44081  37.968  22.596   2.417
82628W        W44082  39.952   3.780   4.670
82629W        W44083  44.423   9.807   2.777
82630W        W44084  27.575  10.858  14.851
82631W        W44085  37.057  36.522   2.304
82632W        W44086   2.799  18.178  13.958
82633W        W44087   0.753  33.569   4.307
82634W        W44088  42.510  38.963   0.907
82635W        W44089  32.093  26.638   2.210
82636W        W44090  24.540  40.914  13.345
82637W        W44091  36.931   9.202  13.521
82638W        W44092  23.103  18.073   1.433
82639W        W44093  33.506  37.567   4.312
82640W        W44094  39.550   1.417  14.789
82641W        W44095  13.649  15.737  11.913
82642W        W44096  42.902  42.521   0.770
82643W        W44097   6.851  36.490  11.977
82644W        W44098   2.465  16.303  10.919
82645W        W44099   5.786  25.633   3.285
82646W        W44100  10.194   0.477   4.125
82647W        W44101  17.729  31.138  10.406
82648W        W44102  44.825  32.438  10.526
82649W        W44103  39.534  27.587  13.844
82650W        W44104  37.867  29.152   0.452
82651W        W44105  10.792  33.591  14.877
82652W        W44106   8.705  34.940  10.979
82653W        W44107  19.599   6.385   1.861
82654W        W44108  10.188  27.091   3.745
82655W        W44109  25.040  26.689  11.076
82656W        W44110   4.800  42.784  13.308
82657W        W44111  29.443  39.540   0.384
82658W        W44112  26.495  10.343   2.332
82659W        W44113  43.971  37.934  10.887
82660W        W44114  30.913  18.737  12.002
82661W        W44115  20.264  27.034  13.021
82662W        W44116  41.410  26.134   4.251
82663W        W44117  10.342  22.149   1.901
82664W        W44118  30.527  10.673  11.410
82665W        W44119   0.326  40.849   2.206
82666W        W44120  20.642  38.016  13.836
82667W        W44121  41.003  16.686   1.743
82668W        W44122   3.450  15.581   2.404
82669W        W44123  39.541  36.556  12.549
82670W        W44124  38.467  14.675   0.470
82671W        W44125  14.301  41.895  11.897
82672W        W44126   8.397  40.331  12.916
82673W        W44127   9.349   3.721   4.158
82674W        W44128  24.514  13.221   3.275
82675W        W44129  21.542  31.589  14.343
82676W        W44130  16.231  18.148   1.706
82677W        W44131  41.975  24.052  10.916
82678W        W44132  40.546  30.498  14.304
82679W        W44133  11.318  28.938   2.824
82680W        W44134  27.020  24.183  14.511
82681W        W44135  27.013  20.221  11.541
82682W        W44136   0.837  37.031   0.870
82683W        W44137  10.804  14.780  14.405
82684W        W44138  26.065  27.608   2.290
82685W        W44139   3.731  39.997   2.299
82686W        W44140   4.223  22.678  10.545
82687W        W44141  22.160  16.163   0.418
82688W        W44142  15.789  31.475   1.714
82689W        W44143  17.151  39.046   9.979
82690W        W44144  16.746   4.293   2.322
82691W        W44145  18.752  22.519   4.647
82692W        W44146  41.350  42.383  13.984
82693W        W44147   7.868  20.651   3.725
82694W        W44148  37.894  37.866  12.506
82695W        W44149  44.807  19.217   0.450
82696W        W44150  28.123  39.521   1.724
82697W        W44151  19.691   5.354  12.842
82698W        W44152   1.273  43.994   4.601
82699W        W44153   8.770   6.753   1.792
82700W        W44154  21.669  26.526   0.920
82701W        W44155  39.065   3.445  10.145
82702W        W44156  19.139  15.612  12.343
82703W        W44157  12.347  36.047   1.216
82704W        W44158  24.675   4.382   4.691
82705W        W44159   5.384   1.926  11.045
82706W        W44160  44.831  13.190  14.394
82707W        W44161  18.154   1.283   4.805
82708W        W44162  32.610  22.074  10.413
82709W        W44163   5.221  32.533  13.910
82710W        W44164  19.610  37.046   1.383
82711W        W44165  44.428  16.240   0.728
82712W        W44166  24.701  19.215  12.428
82713W        W44167  42.859   8.660  13.516
82714W        W44168  34.546  13.658  12.357
82715W        W44169  31.491   6.287  12.474
82716W        W44170   5.914   0.294  11.956
82717W        W44171   3.846  33.472  11.963
82718W        W44172  21.669  34.559   3.794
82719W        W44173  30.029   1.327  10.458
82720W        W44174  42.344  18.275  14.497
82721W        W44175   6.902  38.969   2.745
82722W        W44176   1.274   3.384   4.220
82723W        W44177  18.226  29.575  10.513
82724W        W44178  43.467  19.608  12.973
82725W        W44179   1.381  15.279   4.113
82726W        W44180  26.148   0.867   3.168
82727W        W44181  37.885  17.244  12.823
82728W        W44182   4.848  28.949  11.031
82729W        W44183  18.148  12.731  11.536
82730W        W44184  17.758   5.864   4.192
82731W        W44185  15.785   7.911  13.523
82732W        W44186   3.933   4.222  13.469
82733W        W44187  35.965  32.427  10.457
82734W        W44188  17.655  24.070  10.920
82735W        W44189  43.301  12.642   0.443
82736W        W44190  43.407  32.927  12.418
82737W        W44191  21.682   3.764   2.383
82738W        W44192  22.112  43.368  14.018
82739W        W44193  44.853  18.647  11.405
82740W        W44194  17.682  42.812   2.287
82741W        W44195  14.623  32.081  11.394
82742W        W44196  25.594   6.264   5.222
82743W        W44197  16.301  36.862   1.825
82744W        W44198  38.880  32.426   3.747
82745W        W44199  21.638   2.763  11.876
82746W        W44200  15.198   2.265  10.917
82747W        W44201   1.295  25.590   2.192
82748W        W44202  16.702  37.989  13.827
82749W        W44203   3.316  43.903   0.752
82750W        W44204   1.424   0.904  11.609
82751W        W44205  31.062  22.145   3.657
82752W        W44206   6.878  42.026  13.846
82753W        W44207  33.959  43.509  10.627
82754W        W44208  22.096  20.764   4.613
82755W        W44209   0.835  34.476   0.804
82756W        W44210  23.717  17.227  14.977
82757W        W44211  32.445  42.388  14.828
82758W        W44212   6.374  24.008   2.376
82759W        W44213  33.604  37.865   2.217
82760W        W44214  14.730  20.210   5.138
82761W        W44215  32.959  32.521   2.379
82762W        W44216  10.372  34.080   2.754
82763W        W44217  11.163  14.821  12.510
82764W        W44218  26.005  34.024   2.885
82765W        W44219  43.774  33.433  14.365
82766W        W44220  32.106  39.032   0.482
82767W        W44221  10.208  37.035  11.388
82768W        W44222   0.461  32.000   0.838
82769W        W44223  17.616  39.450   0.895
82770W        W44224  14.152   9.368   0.433
82771W        W44225   5.277  44.263  10.933
82772W        W44226   3.377  21.104   2.878
82773W        W44227  37.888  14.794   1.747
82774W        W44228  22.152   1.376  12.497
82775W        W44229  33.624   9.263   1.899
82776W        W44230  27.153  27.445  14.419
82777W        W44231  25.646  41.017   4.328
82778W        W44232  35.094  17.246  13.016
82779W        W44233  17.178  44.306  13.500
82780W        W44234  27.095  12.838   3.804
82781W        W44235  33.617  21.046   0.431
82782W        W44236  39.393  37.354   0.960
82783W        W44237  11.234  27.617   4.807
82784W        W44238  35.413  23.695   2.179
82785W        W44239   8.164   6.185   3.636
82786W        W44240  44.474  38.978  14.833
82787W        W44241  11.144  44.847   4.795
82788W        W44242  30.974   8.822  10.410
82789W        W44243  28.512  33.086  13.008
82790W        W44244  31.499  41.330  10.632
82791W        W44245  12.853  27.546  13.938
82792W        W44246  23.590   6.750   1.351
82793W        W44247  25.491  14.677  11.490
82794W        W44248  40.813  28.980   3.210
82795W        W44249  28.155  13.105  11.439
82796W        W44250  15.254   6.344   0.956
82797W        W44251  29.470  26.475  11.605
82798W        W44252  37.523  32.446   2.399
82799W        W44253  14.160  36.014   2.745
82800W        W44254   3.283  25.545  13.931
82801W        W44255   7.300  11.821   0.471
82802W        W44256  21.711  22.654  10.541
82803W        W44257  24.176  27.533   4.611
82804W        W44258  39.034  27.495   4.302
82805W        W44259  32.001  22.087  11.043
82806W        W44260   7.363   2.737   3.236
82807W        W44261   0.289  29.501   4.664
82808W        W44262   0.839  14.781  12.910
82809W        W44263  40.502  42.014  11.400
82810W        W44264  21.601  40.826  11.932
82811W        W44265  22.697   6.754  11.490
82812W        W44266  34.109  27.543   0.345
82813W        W44267   9.287  24.702   2.733
82814W        W44268  24.551  34.066  13.945
82815W        W44269   0.349  14.293   4.776
82816W        W44270  34.615   8.857   2.265
82817W        W44271  19.566  43.281  12.364
82818W        W44272  21.144  13.147   0.406
82819W        W44273  40.323  41.971   0.823
82820W        W44274  38.363  16.745   0.429
82821W        W44275   3.314  25.681   3.783
82822W        W44276  24.669   7.681  11.524
82823W        W44277  15.281  43.502  14.928
82824W        W44278   4.301  40.965  11.976
82825W        W44279  17.638  16.263   1.213
82826W        W44280  30.579   9.385   2.341
82827W        W44281   6.719  28.097  14.433
82828W        W44282  21.720   9.875   1.362
82829W        W44283  38.075  20.596  14.280
82830W        W44284  20.265  18.687  11.017
82831W        W44285  24.600  19.232   2.694
82832W        W44286  19.741   0.828   4.164
82833W        W44287  14.161  41.027  12.345
82834W        W44288  25.677   5.300   2.290
82835W        W44289   4.846  44.381   1.818
82836W        W44290  25.181  16.577  14.944
82837W        W44291   8.839   2.374   0.876
82838W        W44292  29.652   8.186   4.273
82839W        W44293  34.061  42.890   5.137
82840W        W44294  13.284  24.147   4.128
82841W        W44295  40.843  27.128  12.912
82842W        W44296   8.749  31.470  14.427
82843W        W44297  16.129  29.431   3.722
82844W        W44298  24.153  21.733  10.960
82845W        W44299   1.310  33.035  11.602
82846W        W44300   0.258  21.620  12.384
82847W        W44301  34.573  20.565  13.329
82848W        W44302   9.723  39.526   2.263
82849W        W44303  34.488   4.708  11.963
82850W        W44304  36.458  17.248   3.834
82851W        W44305  31.504  35.972  13.960
82852W        W44306   5.430  26.061  13.036
82853W        W44307   8.193   4.891   3.745
82854W        W44308  18.689  22.718   3.213
82855W        W44309  29.448  30.422   4.821
82856W        W44310  28.962  30.014  13.426
82857W        W44311  31.088   0.381  12.384
82858W        W44312  36.506  27.130   3.685
82859W        W44313   5.913  35.380  12.470
82860W        W44314  22.597  32.889  13.309
82861W        W44315  26.512  14.241   4.802
82862W        W44316   4.379  23.622  12.481
82863W        W44317  19.055  44.860   3.682
82864W        W44318  43.397  26.508   2.687
82865W        W44319   8.272  29.522  10.591
82866W        W44320  33.470  27.555   1.882
82867W        W44321  19.593  33.561  14.974
82868W        W44322  28.030   6.701   2.750
82869W        W44323   2.466   1.342  10.568
82870W        W44324  17.155  35.463   2.796
82871W        W44325  18.680   3.856  11.523
82872W        W44326  29.048  12.853   4.257
82873W        W44327  12.855  10.308  11.377
82874W        W44328  44.006  37.413   0.363
82875W        W44329   9.794  24.068  14.399
82876W        W44330  40.312  40.460   0.876
82877W        W44331  25.160  14.716   0.482
82878W        W44332  40.843   3.711   0.466
82879W        W44333  44.755  35.444  14.781
82880W        W44334  21.714  36.584  12.090
82881W        W44335  22.163  26.108   4.242
82882W        W44336  14.817   8.869  13.318
82883W        W44337   0.767  28.120  14.373
82884W        W44338  10.783  36.082   1.709
82885W        W44339  17.761  32.626  11.488
82886W        W44340  12.159  10.319   2.410
82887W        W44341  13.616   9.302   0.852
82888W        W44342  36.999   2.830  12.834
82889W        W44343  17.246   4.776  10.588
82890W        W44344  12.308  12.673   4.712
82891W        W44345  31.901  25.016   0.737
82892W        W44346  14.223  16.804   0.755
82893W        W44347  20.146  27.190  10.515
82894W        W44348   3.745  18.784   0.437
82895W        W44349  32.537   7.318  10.066
82896W        W44350  12.128  26.579  11.995
82897W        W44351   5.304  33.929  12.841
82898W        W44352  37.531  36.381   3.661
82899W        W44353  30.939  17.657   0.458
82900W        W44354   3.756  12.841  11.612
82901W        W44355  42.938  41.838  14.473
82902W        W44356  22.547  22.589  11.389
82903W        W44357  32.435   8.804  12.508
82904W        W44358  15.593  23.025   1.214
82905W        W44359  18.192   5.275  10.569
82906W        W44360  38.021  37.436  11.402
82907W        W44361  10.211  33.556  14.992
82908W        W44362  29.464  25.608  13.867
82909W        W44363  37.489   2.807  13.919
82910W        W44364  16.629   3.290  11.036
82911W        W44365  30.600  29.983   2.687
82912W        W44366  42.455  43.295   4.802
82913W        W44367  33.440  38.866   5.098
82914W        W44368   8.870  18.717   4.225
82915W        W44369  20.712  31.431   0.763
82916W        W44370  13.287   8.677   0.286
82917W        W44371  34.015   0.467   4.203
82918W        W44372   1.767  37.899   0.242
82919W        W44373  44.816   8.249  11.059
82920W        W44374  15.634  26.048  12.429
82921W        W44375  30.933   3.838  14.310
82922W        W44376  16.278   3.294  13.404
82923W        W44377  26.692  31.099  12.884
82924W        W44378  17.797  30.578  14.953
82925W        W44379   3.333   4.359   0.784
82926W        W44380  11.128   6.279   4.808
82927W        W44381  30.655   1.783   2.352
82928W        W44382  18.745   4.221   4.739
82929W        W44383  42.015  42.848  13.413
82930W        W44384   6.913  21.257   9.921
82931W        W44385  34.429   7.865  13.510
82932W        W44386  34.890  15.802  10.431
82933W        W44387   7.245  12.207   4.235
82934W        W44388   8.234   8.856  13.934
82935W        W44389  21.580  37.344  12.434
82936W        W44390  10.644  27.181   0.368
82937W        W44391   0.448  26.643   4.698
82938W        W44392  19.222  15.241   4.354
82939W        W44393  36.488  35.859   0.334
82940W        W44394   4.746  22.550  13.902
82941W        W44395  12.322  12.786   4.342
82942W        W44396  37.853  18.572   4.713
82943W        W44397  18.737   8.238   0.242
82944W        W44398  34.405  18.559  13.001
82945W        W44399   5.264   2.908   1.838
82946W        W44400  16.793  11.851   1.773
82947W        W44401   1.464  39.904   1.324
82948W        W44402  27.132  37.858  14.857
82949W        W44403  33.454  29.033   1.767
82950W        W44404  10.832   4.418  10.911
82951W        W44405   7.407   8.186   0.370
82952W        W44406  35.005  42.465  13.477
82953W        W44407  15.165  39.437   1.375
82954W        W44408  12.633   1.849  12.483
82955W        W44409  14.193   8.224   3.704
82956W        W44410   9.771  13.665   3.755
82957W        W44411   2.323  16.785  13.468
82958W        W44412  19.763   8.729   0.726
82959W        W44413  30.002  10.845   9.524
82960W        W44414   0.322   8.842   3.832
82961W        W44415  19.757  38.509  12.075
82962W        W44416  21.712  36.954  14.876
82963W        W44417  25.109   2.818   1.893
82964W        W44418  41.487  19.562   3.688
82965W        W44419   2.906  37.373  14.938
82966W        W44420  43.366  35.590  12.393
82967W        W44421  35.045  24.004   0.941
82968W        W44422  26.954  16.095  11.991
82969W        W44423  40.463  18.270  14.478
82970W        W44424  21.517  33.957   2.282
82971W        W44425  41.434   3.394   4.123
82972W        W44426   1.412  22.243  11.097
82973W        W44427  41.296   2.347  10.888
82974W        W44428  12.323  40.428   3.711
82975W        W44429   3.414  35.567   3.168
82976W        W44430   7.793  40.529   0.412
82977W        W44431   6.873   4.242  14.778
82978W        W44432  19.767  39.996   0.252
82979W        W44433   6.241  24.990   4.785
82980W        W44434   2.295  20.667  13.316
82981W        W44435  32.402  33.106  14.408
82982W        W44436  23.704  40.349  12.026
82983W        W44437  41.402   9.805   4.130
82984W        W44438  43.308  25.525  10.522
82985W        W44439  34.446   8.729  13.503
82986W        W44440  44.885  21.093   3.309
82987W        W44441   9.247  13.690   3.177
82988W        W44442  31.974  17.555   0.815
82989W        W44443  13.729  26.526   4.195
82990W        W44444   9.293  17.107  13.441
82991W        W44445   7.669   9.328  10.947
82992W        W44446  34.903  22.671   3.186
82993W        W44447  18.780  10.651   1.410
82994W        W44448  32.932  32.629  11.595
82995W        W44449  33.548  16.233   3.684
82996W        W44450  24.220  19.089   2.690
82997W        W44451  29.959  15.631   2.405
82998W        W44452  13.629  29.632   1.267
82999W        W44453  32.401  39.466  14.365
83000W        W44454  19.553  20.704   4.192
83001W        W44455  21.259   7.877   2.774
83002W        W44456  10.250  34.478  14.009
83003W        W44457   8.294  13.164   0.275
83004W        W44458  22.234  35.997   3.826
83005W        W44459  39.924  12.613  12.933
83006W        W44460  28.083  28.525   0.953
83007W        W44461  14.298  27.963   2.679
83008W        W44462  20.762  39.857   0.374
83009W        W44463   7.257  42.418  13.350
83010W        W44464  20.729  21.165   3.338
83011W        W44465  13.213  34.046   4.266
83012W        W44466  35.017  41.463  12.911
83013W        W44467   8.704  17.194  12.080
83014W        W44468  14.304   9.736  14.437
83015W        W44469  29.632  23.586   2.845
83016W        W44470  35.092   5.692  13.043
83017W        W44471   0.363  21.587  11.109
83018W        W44472  24.975  35.998   0.835
83019W        W44473  21.173  23.734   1.237
83020W        W44474   8.281   6.714   2.776
83021W        W44475  22.202   2.953  10.485
83022W        W44476  32.508  35.049   1.895
83023W        W44477  38.862  19.669   1.705
83024W        W44478  36.060  31.947   1.774
83025W        W44479  22.645  11.632   1.709
83026W        W44480  34.919  23.588   3.852
83027W        W44481  22.194  14.338  11.065
83028W        W44482  10.269  26.140  12.949
83029W        W44483   2.451   7.254   0.362
83030W        W44484  29.621  37.432   4.732
83031W        W44485  19.772   8.352  14.870
83032W        W44486  13.774  26.030   3.354
83033W        W44487  26.488  37.405   2.331
83034W        W44488   8.803  41.458   2.250
83035W        W44489  30.627  13.290   2.196
83036W        W44490  41.381   0.962  10.997
83037W        W44491   5.867  11.673  12.919
83038W        W44492   6.791  29.530  13.394
83039W        W44493   5.839  38.452  10.630
83040W        W44494   9.342  33.467   5.605
83041W        W44495  15.644   6.266   2.215
83042W        W44496  38.464  33.514  12.092
83043W        W44497   4.364  12.766  13.926
83044W        W44498  14.729  10.298   4.284
83045W        W44499  28.967   2.884   5.616
83046W        W44500  35.080  20.111   2.807
83047W        W44501  35.430  18.618   3.238
83048W        W44502  36.550   1.939  13.320
83049W        W44503   4.408  19.128   3.695
83050W        W44504  32.032  25.545   0.427
83051W        W44505  38.069  41.888   0.256
83052W        W44506  15.635  13.314   4.352
83053W        W44507  17.289  44.444   1.850
83054W        W44508  22.107  14.104  13.826
83055W        W44509   4.917  37.023  10.987
83056W        W44510   3.865  22.626   3.736
83057W        W44511  31.978  31.914   1.843
83058W        W44512   8.897   5.266   3.845
83059W        W44513  26.055  20.203  14.888
83060W        W44514   3.294  35.397   2.337
83061W        W44515  21.557  29.608  11.974
83062W        W44516  38.533  26.560   2.876
83063W        W44517  28.619  12.313  11.426
83064W        W44518  26.045   5.933   3.787
83065W        W44519   4.263  41.449   3.171
83066W        W44520   9.888   0.960   1.748
83067W        W44521  36.398   5.231   2.282
83068W        W44522  20.601  42.348   1.322
83069W        W44523  32.074  22.173  12.003
83070W        W44524  27.456  43.981  13.056
83071W        W44525  28.152  39.923  10.450
83072W        W44526  11.841  37.903   0.323
83073W        W44527   2.895  16.254  14.772
83074W        W44528  28.503  10.871   4.727
83075W        W44529  14.645   4.405   0.363
83076W        W44530  18.166  16.663   0.929
83077W        W44531  16.154   9.209   2.700
83078W        W44532   5.927  18.760  13.905
83079W        W44533  31.145  22.023  12.372
83080W        W44534   7.385  37.838  14.421
83081W        W44535  29.989  16.287   2.204
83082W        W44536  23.043  43.462  11.885
83083W        W44537  43.496  10.173   3.373
83084W        W44538  30.598  23.203   1.823
83085W        W44539  13.772  43.447  13.915
83086W        W44540  12.781  26.574  11.860
83087W        W44541  15.666  19.104  14.836
83088W        W44542  31.087  15.703  12.423
83089W        W44543  36.002  14.190  14.333
83090W        W44544  21.165  44.402   3.363
83091W        W44545   7.693  18.059   1.384
83092W        W44546   8.777   7.821   0.285
83093W        W44547  16.651  29.986  12.513
83094W        W44548   0.769   2.908  14.920
83095W        W44549  27.112   2.300   3.841
83096W        W44550   9.296  26.569   3.687
83097W        W44551  13.153  29.577  11.960
83098W        W44552  44.828  35.452  11.607
83099W        W44553   3.890  19.610   0.311
83100W        W44554   8.202   4.800  14.495
83101W        W44555  29.622   3.325  11.525
83102W        W44556   7.410  43.401  10.545
83103W        W44557  22.724  44.409   0.332
83104W        W44558  25.038   0.911  10.407
83105W        W44559  11.348  10.181  13.387
83106W        W44560  20.753  14.723  11.486
83107W        W44561  22.509   3.787  12.339
83108W        W44562  15.712  40.053  10.068
83109W        W44563  23.999   9.285  13.841
83110W        W44564   9.716   8.267  10.486
83111W        W44565  34.996  15.261  14.908
83112W        W44566  39.470  34.987  11.452
83113W        W44567  18.599  10.263   3.699
83114W        W44568  14.806  42.988  13.057
83115W        W44569  40.927   7.776   2.761
83116W        W44570  32.527   7.897  14.466
83117W        W44571  27.536   1.423  11.403
83118W        W44572  31.620   2.278   1.368
83119W        W44573  15.776  42.497   3.751
83120W        W44574  33.493  15.213  13.921
83121W        W44575  31.518   7.409  11.579
83122W        W44576  31.595  21.519   2.225
83123W        W44577  15.170  13.211   1.353
83124W        W44578  24.681  26.138  11.483
83125W        W44579  38.006  30.659   3.155
83126W        W44580  36.880  44.349  14.873
83127W        W44581  17.137  30.441  13.044
83128W        W44582  36.996  26.662   5.185
83129W        W44583  28.135  10.273  14.966
83130W        W44584  34.593  41.800  12.984
83131W        W44585   0.865   8.669   9.996
83132W        W44586   8.780   5.882   4.244
83133W        W44587   0.927  44.874   1.730
83134W        W44588  43.426   0.403  11.454
83135W        W44589   1.467  24.148  10.439
83136W        W44590  32.129  32.953   3.766
83137W        W44591  12.281  44.793  11.005
83138W        W44592  36.044   6.771   3.709
83139W        W44593  20.643  18.552  12.970
83140W        W44594  27.531  29.575   2.222
83141W        W44595  29.564  43.830  14.029
83142W        W44596  37.506   9.656   4.261
83143W        W44597  25.536  34.556  14.445
83144W        W44598  26.478  34.991  14.506
83145W        W44599   9.793  44.308   0.954
83146W        W44600  18.203   6.813   1.927
83147W        W44601  44.451  30.961   1.246
83148W        W44602  27.184  44.481   4.644
83149W        W44603  30.539  23.599   1.290
83150W        W44604   4.390  25.596  12.903
83151W        W44605  27.974  37.442   3.704
83152W        W44606  13.295   2.954   2.719
83153W        W44607   3.350  19.612  13.814
83154W        W44608   8.879  24.587   0.349
83155W        W44609   2.891   9.296   1.876
83156W        W44610  10.172  15.205   0.451
83157W        W44611  34.865  19.046  10.410
83158W        W44612  12.735  28.964  13.325
83159W        W44613   4.419  15.203  12.388
83160W        W44614  26.187  33.598  11.980
83161W        W44615  30.917  35.023  14.770
83162W        W44616  43.378  30.062  11.446
83163W        W44617  17.255  38.373   1.877
83164W        W44618  38.828  11.315   4.159
83165W        W44619  12.237  16.219  11.098
83166W        W44620  29.543  37.404  13.426
83167W        W44621  18.218  13.216  13.909
83168W        W44622   3.887  19.078  11.391
83169W        W44623  18.199  16.267   3.724
83170W        W44624  24.060  23.675   2.411
83171W        W44625  37.570  43.784   0.740
83172W        W44626  35.957  18.607   5.213
83173W        W44627  17.643  37.563  14.976
83174W        W44628  23.087  25.973   0.448
83175W        W44629   8.276  43.319   2.277
83176W        W44630  38.427  33.063   1.876
83177W        W44631   3.782   1.295  13.461
83178W        W44632  12.644  10.816   3.662
83179W        W44633  27.955  36.545  14.875
83180W        W44634   1.973   3.460   0.817
83181W        W44635  41.365  10.223  10.611
83182W        W44636   1.833  21.100   4.607
83183W        W44637  30.940   9.216   2.860
83184W        W44638  25.520  37.546  13.043
83185W        W44639   0.854   6.309  14.915
83186W        W44640  20.244  12.302   4.183
83187W        W44641  11.819  14.116   4.252
83188W        W44642   9.749  14.781  10.953
83189W        W44643  40.377   8.370  11.508
83190W        W44644  25.632   0.773   3.702
83191W        W44645  18.685  12.820  14.348
83192W        W44646  11.279  36.589  14.014
83193W        W44647  36.383  20.263   0.289
83194W        W44648  44.450   1.425  10.552
83195W        W44649  39.858   3.450   2.372
83196W        W44650  16.145   9.389   3.789
83197W        W44651  14.789  41.297  12.067
83198W        W44652   1.946  22.565   0.244
83199W        W44653  35.458  30.089  11.985
83200W        W44654  29.130   7.799   1.813
83201W        W44655  28.043   9.758  13.371
83202W        W44656   0.978   5.707   1.247
83203W        W44657   0.815  17.574  14.318
83204W        W44658  21.199  38.968   0.936
83205W        W44659  22.145   8.270   0.459
83206W        W44660  41.346  24.066   4.199
83207W        W44661   2.285   2.879   1.298
83208W        W44662  43.468  37.060   2.359
83209W        W44663  34.019  38.388  10.518
83210W        W44664   4.809  23.113   4.648
83211W        W44665  15.280   7.783   2.296
83212W        W44666  36.445   9.219  11.041
83213W        W44667  36.093  14.645   2.294
83214W        W44668  34.444   2.302   0.401
83215W        W44669  41.878  35.916   0.458
83216W        W44670  28.111  44.414  12.528
83217W        W44671  17.652   4.755  12.016
83218W        W44672   1.735  33.457  14.292
83219W        W44673  27.486  14.180   1.397
83220W        W44674  34.395  16.713   1.725
83221W        W44675  24.666   3.905  10.132
83222W        W44676  26.507  23.076   9.638
83223W        W44677  17.586  10.205  11.503
83224W        W44678  28.006  23.192   0.407
83225W        W44679  20.051   1.410   2.260
83226W        W44680  39.421  19.575   3.167
83227W        W44681  12.264  10.858  13.026
83228W        W44682  35.029  40.547  10.518
83229W        W44683  24.126  16.244  14.027
83230W        W44684  19.230   1.911   4.816
83231W        W44685  40.931  35.482   4.114
83232W        W44686  13.660  34.053   0.421
83233W        W44687  27.545  14.284  10.615
83234W        W44688   8.724  32.895   2.237
83235W        W44689   7.751   4.245   2.251
83236W        W44690  11.313  24.126   0.286
83237W        W44691   2.275  11.174  12.382
83238W        W44692  24.599  42.973  11.021
83239W        W44693  19.687  21.105  14.463
83240W        W44694  42.833   7.357   0.922
83241W        W44695   1.344  40.437  10.594
83242W        W44696  29.077  15.119   1.916
83243W        W44697  23.582   6.706  12.569
83244W        W44698  22.593   7.377  14.505
83245W        W44699  38.846   8.776   1.442
83246W        W44700  24.985   2.846   1.263
83247W        W44701   5.384   9.785  10.577
83248W        W44702  11.697  17.583   5.767
83249W        W44703   5.912  25.502   2.281
83250W        W44704  41.304  30.131  13.961
83251W        W44705  18.170   3.438   2.800
83252W        W44706  14.153  17.218   1.404
83253W        W44707  24.072   8.734   4.310
83254W        W44708  18.095  42.017   1.270
83255W        W44709   3.889  30.414  14.403
83256W        W44710  18.743  41.360  11.475
83257W        W44711  16.811  31.591   0.856
83258W        W44712  20.604  37.353   4.346
83259W        W44713  22.639  10.708  10.063
83260W        W44714   2.910   8.684   4.611
83261W        W44715  12.137  19.572  12.433
83262W        W44716  32.432  40.306  10.934
83263W        W44717  12.781   4.745  10.980
83264W        W44718  40.458  31.001  11.102
83265W        W44719  27.996  34.556  12.978
83266W        W44720  16.571  22.056  14.817
83267W        W44721   7.880  33.018  13.957
83268W        W44722  15.739  18.269  12.369
83269W        W44723  27.457  40.906  12.912
83270W        W44724   4.326  28.950  14.904
83271W        W44725  41.801  41.509   2.343
83272W        W44726  12.613  12.614  14.015
83273W        W44727  12.644  37.500   1.352
83274W        W44728  19.103  17.752   4.686
83275W        W44729   7.265   9.769  13.486
83276W        W44730  39.912  41.873   0.767
83277W        W44731   1.867  36.040  11.567
83278W        W44732  36.583  35.374   3.772
83279W        W44733  33.407   8.790   5.317
83280W        W44734  13.700   2.358  13.423
83281W        W44735  30.634  36.528   2.401
83282W        W44736   1.336   7.410   0.409
83283W        W44737   9.156   6.842   4.348
83284W        W44738  44.309   1.932   5.233
83285W        W44739   0.479  21.040  14.867
83286W        W44740  37.830  12.845   2.781
83287W        W44741  43.907   4.932  14.923
83288W        W44742  20.733  19.075   4.617
83289W        W44743  19.630  43.960   4.273
83290W        W44744  43.845   1.325  12.351
83291W        W44745  28.990   0.444   2.304
83292W        W44746   3.770  35.994   3.742
83293W        W44747  17.087  11.298  12.358
83294W        W44748   0.816  19.554  14.905
83295W        W44749  39.994  23.114   1.394
83296W        W44750  21.632  29.622   1.293
83297W        W44751   2.226  11.210   0.319
83298W        W44752  19.616  44.310   3.224
83299W        W44753  23.546  26.158  12.499
83300W        W44754   2.366  17.569  12.460
83301W        W44755  42.514  18.188   2.773
83302W        W44756  21.524  36.371   2.225
83303W        W44757  40.008  36.868  12.456
83304W        W44758  32.910  17.204   1.214
83305W        W44759  20.567  31.041  12.481
83306W        W44760  24.682  44.280   2.862
83307W        W44761  23.690  27.022   4.617
83308W        W44762  29.050  31.464  12.860
83309W        W44763  32.039   6.880  13.526
83310W        W44764  24.516  40.953   4.304
83311W        W44765  21.699  25.599   2.765
83312W        W44766  34.913  10.299  11.485
83313W        W44767   5.417   2.425   1.260
83314W        W44768  35.482   7.905  12.557
83315W        W44769  19.666  29.519  14.883
83316W        W44770  10.263  25.025  11.864
83317W        W44771   7.203  18.252   3.831
83318W        W44772  40.480  21.634  10.471
83319W        W44773  20.259  34.040   3.322
83320W        W44774  15.771  42.451   0.850
83321W        W44775  32.441  10.378  10.991
83322W        W44776  18.681  35.927  12.390
83323W        W44777  17.270  13.723   3.340
83324W        W44778  41.417  43.011  12.488
83325W        W44779  28.997  13.308   0.420
83326W        W44780  29.583  40.916  13.950
83327W        W44781  42.450  19.701  10.540
83328W        W44782  24.039  32.558  12.460
83329W        W44783   7.226  20.563   2.839
83330W        W44784  18.175  33.941   1.434
83331W        W44785  36.475   2.820  13.823
83332W        W44786   5.908  33.612   0.832
83333W        W44787  17.090  33.487  11.484
83334W        W44788  16.578   8.307  14.478
83335W        W44789  18.195  20.135  14.852
83336W        W44790  14.122  43.432   0.731
83337W        W44791  18.703   3.940   1.295
83338W        W44792   8.759  27.119   1.739
83339W        W44793   4.890  10.645  11.901
83340W        W44794  17.637  41.445  12.040
83341W        W44795  25.101  32.062  14.005
83342W        W44796  25.161   0.807   2.403
83343W        W44797  38.824  37.015   3.159
83344W        W44798  20.760  18.699   0.296
83345W        W44799  15.093  29.627  12.935
83346W        W44800   7.325  30.122  10.991
83347W        W44801   7.680  33.098   3.755
83348W        W44802  32.516  24.174   4.122
83349W        W44803  21.195  16.576  12.969
83350W        W44804  21.577  14.173   4.665
83351W        W44805   1.466  14.171   2.221
83352W        W44806  36.006  12.851   2.716
83353W        W44807  43.787  29.053   0.452
83354W        W44808  30.958  19.556  13.503
83355W        W44809  41.835   2.345   0.470
83356W        W44810  44.388  38.481   4.158
83357W        W44811  41.380  23.555  11.122
83358W        W44812  40.380  27.462  12.828
83359W        W44813   8.761  40.382   1.865
83360W        W44814  11.204   0.777   0.368
83361W        W44815  25.545   3.347   2.901
83362W        W44816  31.483   9.847  14.352
83363W        W44817  20.159  34.548   0.945
83364W        W44818  40.954   9.885  10.915
83365W        W44819  31.026  24.535  13.963
83366W        W44820  42.968  17.610   0.262
83367W        W44821  20.139  36.580   3.353
83368W        W44822  15.618   6.263   1.245
83369W        W44823  34.874  42.297   1.727
83370W        W44824  35.083  33.962   1.242
83371W        W44825  31.983  31.906  14.824
83372W        W44826  18.131  37.975  14.990
83373W        W44827   5.320  11.351   0.316
83374W        W44828   8.726  32.029   2.730
83375W        W44829  14.645  41.477  14.511
83376W        W44830  14.773   7.344  11.499
83377W        W44831   4.717  40.821  12.399
83378W        W44832  30.571  36.847   1.261
83379W        W44833  37.454  12.249   4.731
83380W        W44834  13.775   7.269  10.435
83381W        W44835   0.408  24.132   3.362
83382W        W44836  43.797  25.470   4.149
83383W        W44837  22.563  21.088  10.524
83384W        W44838  18.632  21.126   3.368
83385W        W44839  35.469  44.388   1.232
83386W        W44840   0.319  31.551   4.228
83387W        W44841  11.687  23.164  12.488
83388W        W44842  37.953  26.689   0.362
83389W        W44843   9.776   6.255   3.826
83390W        W44844  11.154  36.009  13.981
83391W        W44845  25.484  40.498   2.896
83392W        W44846  15.599   4.746   3.685
83393W        W44847   5.797  41.303   1.792
83394W        W44848  42.384  34.044   1.804
83395W        W44849   9.358  19.138   0.288
83396W        W44850  29.130  26.962  10.477
83397W        W44851  26.993  40.445   1.359
83398W        W44852  17.637  32.528  11.870
83399W        W44853  14.698   2.924  11.915
83400W        W44854  35.900  13.733  12.481
83401W        W44855  13.665   2.374  10.595
83402W        W44856   2.961  24.982   5.217
83403W        W44857  35.022  27.655   2.209
83404W        W44858  41.865  27.616   0.428
83405W        W44859  41.032   0.378  12.498
83406W        W44860  43.887  41.415   0.307
83407W        W44861  15.328  14.678   1.847
83408W        W44862   3.857  25.501   2.851
83409W        W44863  32.928  38.968  14.799
83410W        W44864  43.410  22.568   1.879
83411W        W44865  40.451  32.053  11.459
83412W        W44866   8.301  22.554   4.731
83413W        W44867  44.808   5.809   1.799
83414W        W44868  10.368   3.432  12.985
83415W        W44869  11.865  33.504   1.703
83416W        W44870   5.812  30.587  11.459
83417W        W44871  15.627  24.551   2.289
83418W        W44872  32.479   1.791  13.878
83419W        W44873  25.154  25.158  13.497
83420W        W44874  41.847  41.797  11.582
83421W        W44875   8.657  28.025  14.300
83422W        W44876  24.586   9.801  14.423
83423W        W44877  19.649  18.584   2.848
83424W        W44878  42.983   9.663  11.553
83425W        W44879  28.572  32.444  13.895
83426W        W44880  23.510  24.988   0.840
83427W        W44881   8.186  39.544   0.792
83428W        W44882  33.513  21.742   4.745
83429W        W44883  11.653  36.370   4.311
83430W        W44884  41.413  35.097   3.765
83431W        W44885  38.847  38.015  12.920
83432W        W44886  38.507  39.828   2.379
83433W        W44887  20.262  24.058  10.043
83434W        W44888  30.161  18.741   0.476
83435W        W44889  28.174  36.896   0.824
83436W        W44890  20.699  13.327   4.735
83437W        W44891   6.710  14.135   2.878
83438W        W44892  28.080   8.790  12.873
83439W        W44893  10.789  37.903  13.308
83440W        W44894  13.188  25.220   3.770
83441W        W44895  12.657  19.146  11.860
83442W        W44896  40.455  19.628   4.166
83443W        W44897  35.373  27.060  10.442
83444W        W44898  15.653  18.068   0.391
83445W        W44899  28.650   2.426  11.940
83446W        W44900  18.731  27.038   4.127
83447W        W44901  43.297  27.943   3.840
83448W        W44902   0.792  29.151  14.372
83449W        W44903  38.515   2.438   4.721
83450W        W44904  23.719  39.549  14.410
83451W        W44905  41.933  35.491  11.872
83452W        W44906   6.403  19.777   5.112
83453W        W44907  12.308  24.224  11.029
83454W        W44908  36.489  18.157  12.382
83455W        W44909   5.324  20.650  13.856
83456W        W44910  17.702  31.502  13.929
83457W        W44911  35.386  13.337  13.920
83458W        W44912  17.291  15.206   5.118
83459W        W44913  16.089   4.921  14.337
83460W        W44914   9.725  17.286  11.956
83461W        W44915  22.509  33.550   1.929
83462W        W44916  35.885  27.182   0.855
83463W        W44917  20.702  19.650   4.808
83464W        W44918  21.244  36.536   4.776
83465W        W44919  38.861   5.388   2.316
83466W        W44920  19.183  31.941   5.092
83467W        W44921  19.549  23.644   3.819
83468W        W44922  24.625  13.788   1.340
83469W        W44923  34.509  21.515  13.347
83470W        W44924  16.809  44.797   2.885
83471W        W44925  31.575  39.868  12.942
83472W        W44926  31.139   7.756   2.250
83473W        W44927  16.311  39.473   0.268
83474W        W44928  44.489  18.668  14.456
83475W        W44929   0.873  43.882  11.873
83476W        W44930   5.807   0.835  12.465
83477W        W44931  28.072  18.743  14.980
83478W        W44932  31.539  17.732   3.690
83479W        W44933  39.428  18.238  14.939
83480W        W44934  19.277   0.913  13.537
83481W        W44935  16.650  42.886  13.955
83482W        W44936  17.632  33.495  11.874
83483W        W44937  10.810  31.609   0.837
83484W        W44938  17.575  20.580   3.174
83485W        W44939  20.637  41.515  14.858
83486W        W44940  14.199  39.464   3.220
83487W        W44941  37.897  43.498   4.353
83488W        W44942   3.313  27.011   3.292
83489W        W44943  32.916  35.962   1.813
83490W        W44944  43.294   0.981   0.780
83491W        W44945   5.370   1.883   2.807
83492W        W44946  26.656  31.527   4.315
83493W        W44947  44.498  37.887   4.149
83494W        W44948  38.489  11.221   4.658
83495W        W44949  24.620  36.994  13.962
83496W        W44950   7.377   5.730  12.536
83497W        W44951  29.972  24.064  13.896
83498W        W44952  19.042  36.927   3.767
83499W        W44953  12.773  35.071  12.911
83500W        W44954  26.962  35.084  14.765
83501W        W44955   9.262  30.603   0.820
83502W        W44956  11.208  25.123  14.904
83503W        W44957  27.178  30.440  12.569
83504W        W44958  24.611  41.368  14.929
83505W        W44959   5.382  24.133  13.321
83506W        W44960   5.408  21.093   1.411
83507W        W44961  23.084  18.727  11.897
83508W        W44962  30.566   1.802   0.464
83509W        W44963  41.863  39.976  13.809
83510W        W44964  40.408  10.781   3.253
83511W        W44965  22.697  30.026   3.859
83512W        W44966  27.100  27.105  12.532
83513W        W44967  33.022  22.633  11.047
83514W        W44968  44.261  26.601   0.957
83515W        W44969  15.724  33.613   4.711
83516W        W44970   4.322  12.258   1.830
83517W        W44971  39.978  39.056   0.937
83518W        W44972   5.419   9.208   0.846
83519W        W44973  26.648  22.997   3.359
83520W        W44974   6.793   8.402   1.377
83521W        W44975  28.559  13.201  11.605
83522W        W44976  15.816  28.988  11.060
83523W        W44977  28.056  35.476   4.665
83524W        W44978  27.540  30.554   1.778
83525W        W44979  25.145  40.522  13.950
83526W        W44980  11.136  19.167   1.797
83527W        W44981  29.086  11.154  11.382
83528W        W44982  42.969   6.181   4.636
83529W        W44983  32.488  26.619  14.323
83530W        W44984  10.831  27.528  10.475
83531W        W44985   4.356  26.155  14.780
83532W        W44986  22.248  25.480  10.472
83533W        W44987  38.455   6.868  12.534
83534W        W44988  18.111  37.865  12.398
83535W        W44989   9.276  19.568  11.061
83536W        W44990  37.877  15.751   0.296
83537W        W44991  34.378   3.241   0.382
83538W        W44992  41.998  29.031   1.255
83539W        W44993  15.312  27.605   0.865
83540W        W44994  15.695  44.853   0.769
83541W        W44995  24.083  10.723  12.464
83542W        W44996  13.249  35.457  10.512
83543W        W44997  17.167  12.213  11.952
83544W        W44998  43.818   4.449   4.299
83545W        W44999  34.889  26.540   4.231
83546W        W45000   9.760  10.276   0.393
83547W        W45001  28.541  12.720   0.260
83548W        W45002  32.978  44.404  11.077
83549W        W45003  10.662  22.107   4.815
83550W        W45004  40.418  41.025  13.461
83551W        W45005  34.459  30.439  11.024
83552W        W45006  24.628  10.231  13.938
83553W        W45007  43.472  29.626   3.665
83554W        W45008  41.396  11.815   3.330
83555W        W45009  22.251   9.326   4.198
83556W        W45010   7.905   8.209   2.368
83557W        W45011  34.486  10.653   0.870
83558W        W45012  30.461   1.318  14.482
83559W        W45013  36.074  42.444  11.939
83560W        W45014  25.666  29.092  13.512
83561W        W45015  19.706   0.386   1.876
83562W        W45016  14.692  21.696   2.333
83563W        W45017  41.315   5.690  10.531
83564W        W45018   8.867  14.095   5.163
83565W        W45019  38.914   2.243  11.899
83566W        W45020   8.200   3.716   0.758
83567W        W45021  13.151  17.161  10.426
83568W        W45022  28.496  37.561   4.597
83569W        W45023  32.391  14.180   4.223
83570W        W45024  29.063  13.299   4.646
83571W        W45025  19.544  13.740   1.778
83572W        W45026  36.369   4.382   2.773
83573W        W45027  11.643  37.018  12.088
83574W        W45028  40.506  18.081  11.931
83575W        W45029  19.276   9.840  13.414
83576W        W45030   9.162   4.403  13.841
83577W        W45031  12.661  38.418  14.303
83578W        W45032  32.085  15.811  13.850
83579W        W45033  21.586   6.366   5.204
83580W        W45034   7.842  36.479  12.024
83581W        W45035   4.796  16.637   0.748
83582W        W45036  13.184  22.723   2.667
83583W        W45037   5.287   1.870  13.047
83584W        W45038  11.651   1.885   0.270
83585W        W45039  34.082  32.495  11.979
83586W        W45040  31.971  43.297   0.810
83587W        W45041  44.337  25.616  10.409
83588W        W45042  16.227  13.213  14.401
83589W        W45043  37.895   5.872  14.020
83590W        W45044  41.890  36.086   4.774
83591W        W45045   2.955   1.897  12.362
83592W        W45046  34.883  32.560  12.452
83593W        W45047  11.323  16.161   5.718
83594W        W45048  29.040   0.817  11.926
83595W        W45049  13.191  16.276   1.249
83596W        W45050   1.406  21.532  11.600
83597W        W45051  34.371  41.831  14.493
83598W        W45052   4.898  15.587   3.644
83599W        W45053  13.273  15.284  14.801
83600W        W45054  41.453  38.966  13.350
83601W        W45055  14.603  26.979   0.898
83602W        W45056  23.705  17.170  13.022
83603W        W45057  43.279  15.741  13.856
83604W        W45058  31.109  22.155  11.516
83605W        W45059  13.731  43.893  11.420
83606W        W45060   5.386   0.903   1.346
83607W        W45061  18.705  30.092   3.711
83608W        W45062   0.782  16.629   2.741
83609W        W45063   2.266  34.540   3.267
83610W        W45064  18.773  27.597  14.962
83611W        W45065  10.807  12.121  13.801
83612W        W45066  37.940  35.057  14.319
83613W        W45067  24.581  14.600   2.360
83614W        W45068   1.281  28.661   3.838
83615W        W45069  20.700  31.904  10.055
83616W        W45070   8.882   0.979   3.771
83617W        W45071  27.972  18.210   3.288
83618W        W45072  27.625  39.811  10.911
83619W        W45073  34.949  21.072  11.457
83620W        W45074   5.219   1.269  11.882
83621W        W45075   4.259   3.371  11.864
83622W        W45076  38.365  16.207  12.948
83623W        W45077  18.687   2.829  12.891
83624W        W45078  32.598  36.360  12.953
83625W        W45079  13.665  38.527  14.988
83626W        W45080  35.576  16.610  13.351
83627W        W45081   6.401  11.816   0.332
83628W        W45082  26.589  32.953  12.380
83629W        W45083  26.465  31.120   0.773
83630W        W45084  35.884  13.267  14.827
83631W        W45085  22.111  38.052   4.722
83632W        W45086  39.480  25.561   2.710
83633W        W45087  21.261   7.879  14.425
83634W        W45088  36.569  19.079  11.108
83635W        W45089  44.383  16.204   1.283
83636W        W45090   2.245   9.202   2.730
83637W        W45091  42.399   5.853  12.998
83638W        W45092   0.252  20.552  13.333
83639W        W45093  19.130  32.562   0.421
83640W        W45094  28.571  18.195  13.317
83641W        W45095  36.586  42.905   2.396
83642W        W45096  33.997  39.009  14.380
83643W        W45097  22.727  16.605   3.678
83644W        W45098  18.564  13.766  10.595
83645W        W45099  14.315   0.918   3.371
83646W        W45100   9.377  23.076   1.777
83647W        W45101  34.595  30.133  11.045
83648W        W45102  28.083  33.993   9.970
83649W        W45103  16.161  34.414   3.662
83650W        W45104   8.375  11.727   4.778
83651W        W45105   7.881   3.321   1.788
83652W        W45106  18.110  29.030  12.443
83653W        W45107  37.029   3.418   0.845
83654W        W45108  17.663  35.014  13.032
83655W        W45109  44.328  10.336  14.856
83656W        W45110  11.725  34.385  14.335
83657W        W45111  10.722  33.988  11.046
83658W        W45112   2.235   5.395  11.520
83659W        W45113  25.133  41.426  10.448
83660W        W45114  26.130  36.438  14.794
83661W        W45115  10.853  35.422  10.599
83662W        W45116  31.519  24.168   2.673
83663W        W45117   4.801  42.990  11.102
83664W        W45118  19.181  11.630   1.419
83665W        W45119  32.573  14.816  13.835
83666W        W45120  39.981  44.768   0.803
83667W        W45121   7.279  23.986   0.961
83668W        W45122  33.383   9.380  10.492
83669W        W45123  15.757  41.376   4.339
83670W        W45124  15.139   6.187  14.376
83671W        W45125   2.356  20.269  13.311
83672W        W45126  34.522  18.088   3.315
83673W        W45127   7.844  35.398  11.041
83674W        W45128  42.871  44.280   2.350
83675W        W45129   9.777   3.430   1.905
83676W        W45130  38.832  37.952  13.855
83677W        W45131  39.402  12.342   2.808
83678W        W45132  27.501  21.745   2.213
83679W        W45133   2.239  30.136  14.813
83680W        W45134  32.453  19.673   1.775
83681W        W45135  31.128   7.392  11.906
83682W        W45136  16.800  36.913  11.032
83683W        W45137  26.069  31.461   0.891
83684W        W45138  30.093  42.943   4.666
83685W        W45139  26.506  27.639  11.613
83686W        W45140   6.255   7.336   0.761
83687W        W45141  14.272  22.507  13.439
83688W        W45142   8.381  17.710  14.393
83689W        W45143   6.759  39.341   3.251
83690W        W45144   2.392  39.898  10.008
83691W        W45145   5.745  38.519  11.555
83692W        W45146  26.632  40.353  14.772
83693W        W45147  29.014  39.936  14.869
83694W        W45148  41.038  39.809  11.092
83695W        W45149  38.409   1.760   1.835
83696W        W45150  16.808   7.721  11.477
83697W        W45151   6.793  19.086   2.718
83698W        W45152  21.716  37.474   2.333
83699W        W45153   7.763  32.976   1.858
83700W        W45154   3.247   6.756   0.276
83701W        W45155  19.279  11.621  12.465
83702W        W45156  37.513   1.961  12.013
83703W        W45157  29.458  44.968   4.630
83704W        W45158   5.199   5.379   1.296
83705W        W45159   9.316  30.492  13.941
83706W        W45160  20.581   7.833  13.411
83707W        W45161  16.780   3.735  13.346
83708W        W45162  35.106  29.646  14.770
83709W        W45163  43.490  27.185  11.922
83710W        W45164   0.849   4.800  12.414
83711W        W45165  30.558  15.238   4.339
83712W        W45166  14.780   5.385  12.539
83713W        W45167  16.789   5.902   4.264
83714W        W45168  39.957  32.090  10.452
83715W        W45169   9.781  14.230   0.951
83716W        W45170  38.359  29.441  12.825
83717W        W45171   3.407   0.266   2.301
83718W        W45172  43.927  34.031   0.822
83719W        W45173  42.990   8.782  12.897
83720W        W45174  12.354  20.134   9.938
83721W        W45175  31.100   2.841  14.929
83722W        W45176  27.005   1.862   4.631
83723W        W45177  39.825  12.358   2.387
83724W        W45178  44.429  10.184   0.955
83725W        W45179  42.801  44.435   0.347
83726W        W45180  21.103  28.163  13.390
83727W        W45181  37.344  15.255   0.245
83728W        W45182   2.938  24.995  13.021
83729W        W45183  18.666  22.660   0.750
83730W        W45184  30.632  31.136  11.867
83731W        W45185  38.486  27.539  14.017
83732W        W45186  34.050  39.482   4.713
83733W        W45187   2.825   1.895  13.842
83734W        W45188   4.301  38.937   2.411
83735W        W45189   3.855  26.141   3.381
83736W        W45190  26.139  19.177   4.221
83737W        W45191  28.132  22.527   9.664
83738W        W45192   6.259  19.759  11.116
83739W        W45193  17.566   3.316  14.825
83740W        W45194  32.130  17.610   3.351
83741W        W45195  31.455  12.315  14.376
83742W        W45196  40.957  14.703   4.228
83743W        W45197  26.107   6.254  11.909
83744W        W45198   1.258  36.545   0.319
83745W        W45199  37.991  23.567  12.828
83746W        W45200  37.839  33.435   4.676
83747W        W45201  13.639  28.506   2.250
83748W        W45202  21.542  15.609  11.378
83749W        W45203  31.524  23.110   3.239
83750W        W45204  43.786   3.244   2.698
83751W        W45205  19.255  37.535  14.820
83752W        W45206   7.288   9.723   0.459
83753W        W45207  23.093   2.407  14.412
83754W        W45208  11.234   5.860  14.411
83755W        W45209   3.270   2.945   2.669
83756W        W45210  12.187  28.126   4.254
83757W        W45211  44.791  16.599   3.352
83758W        W45212   4.221  39.538  13.042
83759W        W45213   3.409  28.640   1.724
83760W        W45214  27.039  23.695  14.475
83761W        W45215  13.222  28.662   3.659
83762W        W45216  16.310  39.534   3.266
83763W        W45217  11.337  21.554  12.045
83764W        W45218   1.413   6.193   2.386
83765W        W45219   3.770  12.322   3.673
83766W        W45220  44.932  44.966   0.456
83767W        W45221  41.328  14.666   1.225
83768W        W45222  14.305  15.644  14.948
83769W        W45223   1.469  31.607  12.838
83770W        W45224  12.142  21.749  11.488
83771W        W45225  39.460   0.420   0.332
83772W        W45226  44.875  18.566   3.842
83773W        W45227  43.444   5.261  12.987
83774W        W45228   6.312  23.020   0.429
83775W        W45229  14.123  19.251  12.923
83776W        W45230   0.417   9.883   3.243
83777W        W45231  28.098  37.996  13.958
83778W        W45232  25.142  18.729   4.314
83779W        W45233  23.076  35.955  12.502
83780W        W45234  10.660   6.320  11.516
83781W        W45235  12.290   3.905   4.672
83782W        W45236  14.781   2.817  12.577
83783W        W45237  21.072  41.485   3.733
83784W        W45238  31.106  16.801  10.438
83785W        W45239  16.638  20.619  14.931
83786W        W45240  19.751  32.889  10.421
83787W        W45241  42.799  44.273  11.532
83788W        W45242  35.483  17.796  10.483
83789W        W45243  30.462  22.583  10.609
83790W        W45244  25.676  10.638   1.224
83791W        W45245  15.133  21.147  12.440
83792W        W45246  44.907  12.627  10.550
83793W        W45247  39.845  23.683  14.770
83794W        W45248  27.941  11.688   4.749
83795W        W45249   0.298   5.336  14.822
83796W        W45250  15.661  17.633  13.920
83797W        W45251  29.079  35.359   1.804
83798W        W45252  18.062   9.320   2.688
83799W        W45253  42.438  28.609  12.577
83800W        W45254  33.132  35.003  10.529
83801W        W45255  44.919  26.974  14.376
83802W        W45256  12.202   3.722   1.333
83803W        W45257  17.121   9.174   2.179
83804W        W45258  10.865  41.317  13.348
83805W        W45259  20.564  30.619  13.800
83806W        W45260  43.336  14.589  11.092
83807W        W45261   2.272   9.167  11.921
83808W        W45262  37.901  11.163   1.812
83809W        W45263  24.553   6.904   1.345
83810W        W45264  17.602  32.990  12.476
83811W        W45265  42.333  28.970   4.713
83812W        W45266   4.233  35.936  12.417
83813W        W45267  15.622  42.915   3.212
83814W        W45268  36.375   2.866   0.902
83815W        W45269  11.286  39.531   1.748
83816W        W45270  39.485   0.861   4.186
83817W        W45271  23.714  41.906  12.965
83818W        W45272   1.810  30.572  11.105
83819W        W45273   7.888   1.250   2.238
83820W        W45274  30.952  41.357   2.737
83821W        W45275  28.572  29.092  10.538
83822W        W45276  38.398  31.606   2.816
83823W        W45277  30.069  44.326  13.923
83824W        W45278  41.385  42.959   3.679
83825W        W45279  11.706  25.540  13.348
83826W        W45280  28.565  25.620   1.320
83827W        W45281  11.356   9.804  13.443
83828W        W45282  10.379  24.621  11.110
83829W        W45283   8.165  44.946  11.126
83830W        W45284   9.648   7.694   0.951
83831W        W45285  40.027  44.377   4.302
83832W        W45286  14.328   4.411   1.261
83833W        W45287   6.290  34.975  11.447
83834W        W45288  27.529   0.436   1.888
83835W        W45289  11.656  15.163   3.203
83836W        W45290  26.970  15.757  14.962
83837W        W45291  38.955   0.957  10.593
83838W        W45292  24.601  17.100   3.196
83839W        W45293  30.548   7.218  12.914
83840W        W45294  14.301  10.861  12.886
83841W        W45295  33.397  34.960   1.375
83842W        W45296  40.479   2.878  10.579
83843W        W45297   4.247  20.682  12.488
83844W        W45298   3.943   2.227   3.774
83845W        W45299  14.788  41.864  11.445
83846W        W45300  10.840  22.510  11.596
83847W        W45301  14.776  35.051  10.905
83848W        W45302  37.404   3.360  11.035
83849W        W45303  23.633   7.206  14.462
83850W        W45304  16.700  29.590  12.037
83851W        W45305  14.666  43.906   0.797
83852W        W45306   5.842  34.412   1.415
83853W        W45307   7.396  24.080  11.474
83854W        W45308   5.915  15.323   3.754
83855W        W45309  10.868  33.421   1.912
83856W        W45310  43.446  23.205   3.263
83857W        W45311  19.623  14.136  11.936
83858W        W45312   0.453  17.159  13.532
83859W        W45313  32.414  20.751   1.791
83860W        W45314  27.083  15.209  14.323
83861W        W45315   1.879  17.171  11.571
83862W        W45316  40.970  21.178  13.482
83863W        W45317  24.091  23.176  11.057
83864W        W45318  13.342   0.371  13.392
83865W        W45319  23.608   6.399  12.423
83866W        W45320  32.547   2.859   2.897
83867W        W45321  11.357  24.169  11.575
83868W        W45322  32.035  39.944  11.415
83869W        W45323   6.784  34.983   3.172
83870W        W45324   1.403  44.864   1.266
83871W        W45325   7.719   1.957  14.456
83872W        W45326  37.435  41.506   1.352
83873W        W45327  18.178  10.721   2.799
83874W        W45328  40.886  38.367  14.415
83875W        W45329  10.841  29.566  14.439
83876W        W45330  35.379   3.305  14.999
83877W        W45331  18.113  42.351   4.306
83878W        W45332  34.475  37.379  10.503
83879W        W45333  36.371  18.587  13.519
83880W        W45334  25.688  21.101   0.443
83881W        W45335  22.712   5.868   1.293
83882W        W45336   2.732  21.094  10.036
83883W        W45337  20.681  15.598   4.783
83884W        W45338  30.565  30.152   1.870
83885W        W45339  15.217  22.646  13.798
83886W        W45340  41.854  14.327  12.949
83887W        W45341  35.385  32.508   4.178
83888W        W45342  39.016  43.838   0.896
83889W        W45343  21.668   7.260   3.671
83890W        W45344  38.358  18.165  12.506
83891W        W45345  23.515   2.322  14.004
83892W        W45346  17.778  22.157  11.979
83893W        W45347  18.273  21.598  12.093
83894W        W45348  25.654  39.825   1.860
83895W        W45349   3.369  23.225  11.909
83896W        W45350   4.323  43.003  12.020
83897W        W45351  42.880   6.870   3.714
83898W        W45352  34.556  18.294  11.523
83899W        W45353  29.437  40.500   0.401
83900W        W45354  32.525   9.363   1.816
83901W        W45355  42.824   1.289  11.893
83902W        W45356   6.332  21.142   4.678
83903W        W45357   0.489  28.605   0.755
83904W        W45358   7.182  21.206   0.437
83905W        W45359  31.526  16.733  14.445
83906W        W45360  22.185  15.677  10.982
83907W        W45361  26.589  19.601  10.090
83908W        W45362   7.326  28.989   0.392
83909W        W45363  34.016  34.940   0.468
83910W        W45364  10.340   7.238   0.801
83911W        W45365  15.199  12.120  13.830
83912W        W45366   6.807  24.998   2.232
83913W        W45367  42.406  10.201   4.620
83914W        W45368  20.204  20.028  12.462
83915W        W45369  26.697  32.498  11.125
83916W        W45370  32.422  17.659  12.884
83917W        W45371  12.150  23.721  11.949
83918W        W45372  30.465   7.252  14.938
83919W        W45373   6.910  32.004   1.255
83920W        W45374   5.217  17.689   2.811
83921W        W45375  15.247  30.548   0.468
83922W        W45376   2.963  36.422  11.076
83923W        W45377  17.714  30.970  11.897
83924W        W45378  24.002   6.259  10.033
83925W        W45379  25.665   2.818   4.254
83926W        W45380   8.829  33.620  12.878
83927W        W45381  16.133  21.189  13.455
83928W        W45382  15.246  10.313   3.653
83929W        W45383  18.772  43.001   2.327
83930W        W45384  24.601  42.362  11.889
83931W        W45385  29.524  24.562  13.476
83932W        W45386  24.989  15.769   2.741
83933W        W45387  42.866  14.684   1.767
83934W        W45388   2.304  40.002   2.232
83935W        W45389  12.316  11.246  10.534
83936W        W45390  15.159  26.038  10.471
83937W        W45391   3.436  23.152   0.437
83938W        W45392  19.279  28.084   2.796
83939W        W45393   2.959   0.335   1.808
83940W        W45394  21.679  31.112  12.087
83941W        W45395  37.916  19.274   0.272
83942W        W45396  31.604  35.919  10.563
83943W        W45397  35.062  13.211  13.337
83944W        W45398  35.547   0.899  12.436
83945W        W45399  15.317  44.992   3.221
83946W        W45400  36.373  25.642  11.477
83947W        W45401  42.896   1.937  12.427
83948W        W45402  31.062  24.708   0.319
83949W        W45403  12.715  30.552  13.454
83950W        W45404  24.133  10.699   3.172
83951W        W45405  34.487  22.633  12.921
83952W        W45406  33.045  38.990  12.040
83953W        W45407  30.536  32.889  10.040
83954W        W45408  24.093  27.563   3.157
83955W        W45409  11.715   1.888   3.811
83956W        W45410  36.526  34.900   0.851
83957W        W45411   2.439   3.454   5.231
83958W        W45412  10.299  43.317   1.802
83959W        W45413  24.617   1.883   3.809
83960W        W45414  18.261  25.704   0.394
83961W        W45415  17.620   0.745  12.568
83962W        W45416  34.369  28.987  14.798
83963W        W45417   3.908   0.974   2.696
83964W        W45418  18.166  42.989   3.347
83965W        W45419   1.436  42.945  12.366
83966W        W45420   6.384  42.927  10.618
83967W        W45421   3.224  26.115  14.400
83968W        W45422  20.734   0.345  13.471
83969W        W45423  38.965  23.178   2.765
83970W        W45424   3.828  15.150  14.837
83971W        W45425  34.425  27.478   2.886
83972W        W45426  43.768  39.865   4.729
83973W        W45427  21.542  28.942  10.915
83974W        W45428   2.388  39.861   4.677
83975W        W45429  32.594  23.003   2.676
83976W        W45430  21.732  10.671  10.510
83977W        W45431  21.056   0.276  13.847
83978W        W45432  21.087  39.014  10.459
83979W        W45433   7.907  18.694   1.350
83980W        W45434  37.961   8.270  11.462
83981W        W45435   4.340   3.450  13.375
83982W        W45436  26.162  26.516  10.929
83983W        W45437   5.434  39.902   4.337
83984W        W45438  18.558  44.367   0.922
83985W        W45439  28.594  26.007  12.342
83986W        W45440  16.083  28.957  11.058
83987W        W45441  36.977  26.105   0.868
83988W        W45442   2.264  28.485  12.374
83989W        W45443  16.147  16.092   2.859
83990W        W45444  18.706  40.387   1.883
83991W        W45445   5.852  36.447   1.849
83992W        W45446  10.337  26.953   0.856
83993W        W45447  20.705  32.108  11.092
83994W        W45448  12.319  15.822  14.769
83995W        W45449  16.694   8.756   1.417
83996W        W45450  42.850  31.640   1.362
83997W        W45451  14.191  38.362   0.388
83998W        W45452   7.403  23.117  14.865
83999W        W45453  39.855  29.532   3.184
84000W        W45454   1.401  42.519   0.473
84001W        W45455  25.582   7.821  12.339
84002W        W45456  26.567   9.373  12.051
84003W        W45457   4.816  11.162  12.979
84004W        W45458  17.079   5.422   2.663
84005W        W45459  42.408  18.715   2.800
84006W        W45460  35.867  18.096  11.467
84007W        W45461  21.070  12.339   1.228
84008W        W45462  31.454  18.748   0.965
84009W        W45463  25.649  43.393  14.006
84010W        W45464   0.317  22.216   1.392
84011W        W45465  15.146  31.082  14.784
84012W        W45466  21.732  32.410  13.030
84013W        W45467   8.264   9.284   4.744
84014W        W45468   0.350  11.187  12.051
84015W        W45469   4.859  31.042  11.987
84016W        W45470   9.306   2.900   2.889
84017W        W45471   6.876  36.861  10.935
84018W        W45472  42.393  17.707   1.754
84019W        W45473  42.802  36.581  10.606
84020W        W45474  23.495  15.727  11.069
84021W        W45475  13.765  40.522  14.310
84022W        W45476  12.791   9.685  12.471
84023W        W45477  32.059  20.627  14.475
84024W        W45478  19.280  27.961  13.375
84025W        W45479  22.697  21.167   4.644
84026W        W45480  25.499  16.280  13.865
84027W        W45481  43.963  16.801  14.963
84028W        W45482   7.707  11.754  12.843
84029W        W45483  37.992  29.601   2.217
84030W        W45484  34.583  43.907  11.396
84031W        W45485  24.207   4.450   4.125
84032W        W45486   6.298  20.237  12.579
84033W        W45487   8.316  38.987  14.331
84034W        W45488  37.022   7.262  11.404
84035W        W45489  43.933  16.135  13.508
84036W        W45490  18.768  41.965   3.291
84037W        W45491  44.361   4.839   0.387
84038W        W45492  41.000  37.921   2.708
84039W        W45493  11.727   6.377  11.437
84040W        W45494  25.705  12.279  13.448
84041W        W45495   2.925  43.956   2.244
84042W        W45496  40.869  39.471  11.391
84043W        W45497  30.496   9.858  11.872
84044W        W45498  19.227  12.182  11.080
84045W        W45499  18.730  39.930  11.987
84046W        W45500  11.779  23.132   1.722
84047W        W45501  17.751  30.048   4.148
84048W        W45502  19.676  29.537   4.127
84049W        W45503  14.721  23.236  12.976
84050W        W45504  17.715  10.759  12.514
84051W        W45505  10.727   3.410  12.938
84052W        W45506  22.732  34.501  13.412
84053W        W45507  19.712  19.597  11.601
84054W        W45508  44.988  21.550   3.328
84055W        W45509  17.746  34.373   1.412
84056W        W45510  35.870   2.821  14.027
84057W        W45511  40.984  44.430  10.101
84058W        W45512  43.425  21.190  10.146
84059W        W45513  11.831   4.868   5.276
84060W        W45514   6.236  35.497  13.883
84061W        W45515  10.304  13.205   3.795
84062W        W45516   3.232  35.069  12.011
84063W        W45517  40.867   7.689  13.883
84064W        W45518   9.678  28.159   3.266
84065W        W45519  31.482  14.616  13.061
84066W        W45520  17.753  19.561  13.795
84067W        W45521   3.312  33.045  13.356
84068W        W45522  25.506  42.918   1.861
84069W        W45523  12.850  13.163   3.249
84070W        W45524  10.734  38.938  13.319
84071W        W45525  24.575  40.854   0.309
84072W        W45526  25.564  17.715   3.853
84073W        W45527  25.210   8.780   1.275
84074W        W45528   9.817   0.363  13.977
84075W        W45529  35.021  17.704   2.674
84076W        W45530  28.664  17.168  13.325
84077W        W45531   8.854  30.542  13.060
84078W        W45532  18.757   9.307   4.708
84079W        W45533  17.626  15.661   3.295
84080W        W45534   8.321  29.472  14.888
84081W        W45535   9.878  14.627   4.183
84082W        W45536  16.597  27.139  13.362
84083W        W45537  29.924  32.119   3.719
84084W        W45538  35.362  10.181  12.438
84085W        W45539  43.453   8.725   1.216
84086W        W45540  34.089   2.369  13.058
84087W        W45541  26.106  15.320  14.834
84088W        W45542  44.318  33.004  10.412
84089W        W45543  24.147  40.491  14.865
84090W        W45544   2.326  10.647  14.279
84091W        W45545  28.177   9.705   4.754
84092W        W45546  32.940  44.834  13.867
84093W        W45547  13.201  44.502  10.960
84094W        W45548  26.176  43.513   0.889
84095W        W45549  13.254  38.003   0.293
84096W        W45550   0.424   9.376  14.291
84097W        W45551  25.613  33.998   4.748
84098W        W45552  25.643   3.819   0.729
84099W        W45553  10.217  12.318   2.405
84100W        W45554  29.952  19.081   3.822
84101W        W45555  22.113  18.168   4.653
84102W        W45556   6.692   7.896   0.391
84103W        W45557  43.416  10.261  13.542
84104W        W45558  30.604  41.973   0.436
84105W        W45559  16.709  33.454  13.948
84106W        W45560   1.974   6.896   3.770
84107W        W45561  39.812   5.892  13.799
84108W        W45562  35.488  30.070  10.434
84109W        W45563  35.471  27.494   2.365
84110W        W45564  13.760  25.570  12.924
84111W        W45565  26.077   5.375   2.305
84112W        W45566   4.901  11.724  12.943
84113W        W45567  11.663  35.550   2.341
84114W        W45568  17.114  24.508   2.246
84115W        W45569  32.009  26.019  12.578
84116W        W45570  18.062   8.206   4.650
84117W        W45571  42.333  12.182  13.056
84118W        W45572  26.043   1.377  14.021
84119W        W45573  42.778   0.939  11.932
84120W        W45574  16.103  40.994  14.876
84121W        W45575  25.478   9.168   4.690
84122W        W45576   7.313   5.417   4.689
84123W        W45577  31.575  21.135  14.339
84124W        W45578  36.953  44.387   1.850
84125W        W45579   2.902  33.465  14.889
84126W        W45580  28.043  27.021  11.419
84127W        W45581  42.340  36.439  13.482
84128W        W45582  33.467  34.958  11.527
84129W        W45583  31.997   8.386  14.760
84130W        W45584  32.555  22.671  14.935
84131W        W45585   9.673  17.080  13.944
84132W        W45586  24.196  20.553  14.009
84133W        W45587  43.796  36.557  14.439
84134W        W45588  25.972  43.477  12.944
84135W        W45589  36.565  33.490   3.834
84136W        W45590  23.108  19.705  13.841
84137W        W45591  33.590  37.442   2.227
84138W        W45592  24.051  39.947   3.752
84139W        W45593  26.482   9.767  10.534
84140W        W45594  23.705  36.590  10.554
84141W        W45595  23.169  28.669   4.709
84142W        W45596  43.841  44.351   0.320
84143W        W45597  40.018   0.289   2.186
84144W        W45598  23.640  29.152  11.091
84145W        W45599  18.160  13.106  12.035
84146W        W45600  18.628  14.821  14.974
84147W        W45601  28.514   1.754  14.957
84148W        W45602  31.089   8.736   3.263
84149W        W45603   5.246   5.265  10.905
84150W        W45604  10.821  22.668   2.396
84151W        W45605  29.641  27.145   2.267
84152W        W45606  36.552   6.861  14.407
84153W        W45607  31.940   8.878  10.904
84154W        W45608  13.611  32.523   1.357
84155W        W45609   6.823   9.699  11.607
84156W        W45610  43.515  38.823   9.950
84157W        W45611  26.075   9.227  13.530
84158W        W45612  37.574  11.140  10.614
84159W        W45613   8.685  11.796   0.299
84160W        W45614  12.170  21.740  11.906
84161W        W45615  37.531   6.884  12.059
84162W        W45616  37.362   6.780   2.231
84163W        W45617  18.176  33.930   4.764
84164W        W45618  38.408  44.305   3.764
84165W        W45619  23.496  26.001   2.810
84166W        W45620  22.025   8.395  11.046
84167W        W45621   9.651  12.271  12.053
84168W        W45622  13.322  24.005   2.895
84169W        W45623  42.471  30.571  14.790
84170W        W45624  23.533   9.817  14.425
84171W        W45625  14.286  34.418   3.637
84172W        W45626  20.592   9.187   1.880
84173W        W45627  42.367  23.574  13.403
84174W        W45628  21.164  31.602   0.875
84175W        W45629  32.108   0.797   0.261
84176W        W45630  41.848  30.586  10.602
84177W        W45631  36.978   9.191   3.757
84178W        W45632  33.547  29.475   2.271
84179W        W45633  21.018  36.036   2.676
84180W        W45634  38.539  34.587  12.941
84181W        W45635  11.314  15.721  11.087
84182W        W45636   6.290  13.794  14.503
84183W        W45637  35.395  31.619   0.355
84184W        W45638  30.639   5.884  11.954
84185W        W45639   5.437  16.285   0.892
84186W        W45640  26.115   0.790   4.658
84187W        W45641  23.024   2.423   3.858
84188W        W45642  24.977  11.778   1.793
84189W        W45643   5.262  14.762  14.438
84190W        W45644  22.621   4.921   1.387
84191W        W45645  16.136  19.186   3.656
84192W        W45646   1.918  42.474  12.391
84193W        W45647   7.379  34.015  13.424
84194W        W45648  24.624  32.952   2.881
84195W        W45649  29.485  41.971  12.892
84196W        W45650  34.409  25.712   0.319
84197W        W45651   5.723   4.430  11.502
84198W        W45652  29.639  30.589   2.203
84199W        W45653  23.992   9.189  10.447
84200W        W45654   6.290   7.719  11.513
84201W        W45655  31.559  38.472  12.499
84202W        W45656  14.095  40.397  11.868
84203W        W45657  12.204  23.125   5.634
84204W        W45658  27.989  12.650   5.212
84205W        W45659  36.938  27.593   3.815
84206W        W45660   5.224  17.127  10.906
84207W        W45661  21.188  24.500   2.226
84208W        W45662   5.325   2.898  13.035
84209W        W45663  36.929   7.729   1.731
84210W        W45664  38.035  35.532  11.476
84211W        W45665  37.865  13.646  14.375
84212W        W45666  34.898  39.338   3.300
84213W        W45667  27.088  38.354   4.184
84214W        W45668   6.391   4.807   1.869
84215W        W45669  21.046  16.678   4.805
84216W        W45670  24.010  42.501  10.613
84217W        W45671  28.178  19.740   5.235
84218W        W45672  20.221   3.762  13.410
84219W        W45673  25.082   7.744   5.781
84220W        W45674   9.194  30.159  14.996
84221W        W45675  32.494  44.754  13.456
84222W        W45676  24.514  25.667   0.355
84223W        W45677   4.854  16.161  12.461
84224W        W45678  19.154   8.336  13.839
84225W        W45679  29.475  34.442   3.644
84226W        W45680  21.651  12.726   5.162
84227W        W45681  16.078  29.527  13.063
84228W        W45682   0.974   8.779   0.845
84229W        W45683  12.762   2.779   4.158
84230W        W45684  13.150   9.345   4.131
84231W        W45685   5.226   3.252   3.785
84232W        W45686  26.189   0.357  13.902
84233W        W45687   2.779  10.293   0.924
84234W        W45688  22.180  25.975   1.287
84235W        W45689   7.204  31.121  11.544
84236W        W45690  41.954   3.216  11.530
84237W        W45691  20.098  37.886  13.027
84238W        W45692   2.750  32.011   2.383
84239W        W45693  40.872   0.888  13.852
84240W        W45694  40.912  27.179  11.061
84241W        W45695  24.196  31.002  11.492
84242W        W45696  40.875  43.310  14.996
84243W        W45697  36.891  41.443  12.385
84244W        W45698   7.867  33.455   4.150
84245W        W45699  21.644   4.862  14.454
84246W        W45700  25.010  21.109   0.758
84247W        W45701  34.428  16.641  12.057
84248W        W45702   4.367  18.781  14.764
84249W        W45703  32.037  34.520   1.699
84250W        W45704  26.692  13.623  10.465
84251W        W45705  22.249  15.191   2.791
84252W        W45706  31.044  43.823  11.942
84253W        W45707   4.440  28.046   4.173
84254W        W45708  42.788  14.644   4.810
84255W        W45709   3.811  24.206  12.536
84256W        W45710  24.489  19.601  13.504
84257W        W45711  17.136  25.012   0.410
84258W        W45712  18.556  16.289   1.412
84259W        W45713  19.760  11.347   1.219
84260W        W45714   2.935  44.451  12.014
84261W        W45715   3.820   0.429  10.479
84262W        W45716   0.879  15.766   1.244
84263W        W45717  23.083  20.710   3.356
84264W        W45718  41.824  43.489   2.846
84265W        W45719  43.888  14.672   4.626
84266W        W45720  34.588   1.444   2.781
84267W        W45721  35.892  32.029   0.886
84268W        W45722   6.423  44.503   4.691
84269W        W45723  10.705  17.086  10.558
84270W        W45724  27.509  40.546   4.614
84271W        W45725  36.969  15.185   2.695
84272W        W45726  40.343  11.689   0.263
84273W        W45727   4.847  27.620   0.429
84274W        W45728  15.148  28.620  14.833
84275W        W45729  41.511   6.773   1.370
84276W        W45730  15.129  36.464  10.986
84277W        W45731   0.398  31.944  14.461
84278W        W45732   3.930  30.618   2.855
84279W        W45733  28.593  22.648  11.031
84280W        W45734  13.678  29.052   1.767
84281W        W45735  20.723  25.582   1.309
84282W        W45736   8.798  21.685  14.431
84283W        W45737  37.346  34.544   2.245
84284W        W45738  16.135  38.054  11.071
84285W        W45739  22.217   6.903  11.867
84286W        W45740  29.457  16.120  11.011
84287W        W45741  14.127   6.742  12.512
84288W        W45742  16.588  22.249   0.745
84289W        W45743  25.107  36.398   0.424
84290W        W45744   5.728  44.444  13.896
84291W        W45745  23.057  16.691   3.853
84292W        W45746  25.542  12.203  11.533
84293W        W45747  34.929  40.519   0.789
84294W        W45748  32.072  32.947   2.817
84295W        W45749  10.227  11.256  12.009
84296W        W45750  12.763  33.023   1.816
84297W        W45751  23.236  10.790  12.836
84298W        W45752  22.512  23.200   0.297
84299W        W45753  33.032  14.279   2.724
84300W        W45754   4.262  40.839   4.669
84301W        W45755  10.152  41.001   3.171
84302W        W45756   0.414   1.446   3.318
84303W        W45757   5.268  31.610   3.782
84304W        W45758  30.481   2.357   0.434
84305W        W45759  17.110  31.043   4.669
84306W        W45760  28.105  34.604  11.518
84307W        W45761  17.767  37.485   4.787
84308W        W45762  20.596  37.343   3.379
84309W        W45763  16.811  12.158   1.229
84310W        W45764  10.307   7.782   2.357
84311W        W45765  20.187  13.736   2.673
84312W        W45766  31.021  40.366  10.530
84313W        W45767  26.077  41.862  13.969
84314W        W45768  11.128   1.326   1.430
84315W        W45769  44.907   0.790  13.918
84316W        W45770  32.564   4.413   0.828
84317W        W45771   5.901   0.272  14.856
84318W        W45772  13.134  41.914  12.557
84319W        W45773  14.736  15.788  11.557
84320W        W45774  22.995  15.711   2.257
84321W        W45775   1.469  21.702   4.720
84322W        W45776  38.988   5.826  11.092
84323W        W45777  44.008  34.546   0.949
84324W        W45778  11.623   5.424   0.857
84325W        W45779  26.018  12.689   1.755
84326W        W45780  11.185  15.577   1.394
84327W        W45781  24.210   7.222  14.287
84328W        W45782  37.351   5.781   2.212
84329W        W45783   9.703  34.416  10.922
84330W        W45784   9.673   9.356   2.326
84331W        W45785  26.999  44.423  12.390
84332W        W45786  32.464  39.430   0.256
84333W        W45787  26.161  19.672   4.635
84334W        W45788  38.068  13.143   3.315
84335W        W45789  42.395  38.043  10.598
84336W        W45790   4.767  21.536   0.452
84337W        W45791  24.532   9.828   3.309
84338W        W45792   9.775  41.464   3.356
84339W        W45793   4.414   9.772  10.414
84340W        W45794  27.596   0.861  14.434
84341W        W45795  31.605  42.826   1.725
84342W        W45796  21.551  11.236  11.866
84343W        W45797   3.918  25.079   3.166
84344W        W45798  34.071  42.023  12.395
84345W        W45799  41.486  40.824   2.735
84346W        W45800  33.037  28.086  11.088
84347W        W45801  23.110  40.338   2.902
84348W        W45802  27.957  25.593   1.358
84349W        W45803  10.371   5.287  11.610
84350W        W45804   3.363  17.292   2.736
84351W        W45805   2.742   4.894  11.106
84352W        W45806   3.274  38.917   2.365
84353W        W45807  36.575   7.385  14.442
84354W        W45808  10.783  32.987  12.381
84355W        W45809   9.809  23.650  14.950
84356W        W45810  13.810  37.916  11.387
84357W        W45811   3.435  36.483  13.018
84358W        W45812   7.837   6.209   3.319
84359W        W45813  27.033  29.628  14.469
84360W        W45814  23.200   1.925  13.548
84361W        W45815  38.883  28.603  10.417
84362W        W45816  28.611  33.592  14.831
84363W        W45817  10.686  35.484   0.445
84364W        W45818  44.383  29.107   5.097
84365W        W45819  21.716   9.716   3.323
84366W        W45820  27.132   0.432  11.978
84367W        W45821  16.258  16.094   1.297
84368W        W45822   7.332  33.602  11.982
84369W        W45823  34.901  24.614   3.277
84370W        W45824   0.392  32.634  14.830
84371W        W45825  30.016   6.303   3.840
84372W        W45826  22.559  39.372   2.410
84373W        W45827  17.219  25.667  12.398
84374W        W45828   5.324  28.529   0.450
84375W        W45829  40.864  41.464  11.402
84376W        W45830  33.556   7.191  11.123
84377W        W45831  30.110  36.384   1.423
84378W        W45832  29.005   4.879  14.004
84379W        W45833  24.170  42.824   3.842
84380W        W45834  35.565   3.376   4.298
84381W        W45835  39.469   7.793  13.391
84382W        W45836  21.019  22.513  11.003
84383W        W45837   0.981  22.550   2.192
84384W        W45838  41.422  30.141   0.437
84385W        W45839   5.848  39.463   4.208
84386W        W45840  10.865  41.347  13.809
84387W        W45841   4.734  15.163  11.939
84388W        W45842  12.353  44.362   0.842
84389W        W45843  25.060   1.940  14.871
84390W        W45844  15.633   0.474  10.918
84391W        W45845   5.276  26.607  11.506
84392W        W45846   7.230  28.468   1.878
84393W        W45847   5.727  21.613  11.569
84394W        W45848  13.288  39.027   3.668
84395W        W45849  36.404  43.429   1.791
84396W        W45850  27.114  15.791  11.463
84397W        W45851  40.370   3.405   5.307
84398W        W45852  29.491   3.401   2.680
84399W        W45853   0.452  33.104  10.959
84400W        W45854  44.887  23.989   2.293
84401W        W45855  14.667  20.074  11.917
84402W        W45856  39.004  16.318  12.075
84403W        W45857   2.826  42.484  11.046
84404W        W45858   1.768   2.953  13.908
84405W        W45859  40.870  23.719  13.522
84406W        W45860  31.426  23.695  13.796
84407W        W45861   7.300  25.700   1.696
84408W        W45862   5.226  20.035  14.427
84409W        W45863  18.790  17.766  13.347
84410W        W45864   3.723   7.836  10.444
84411W        W45865   8.315  39.337   2.248
84412W        W45866  40.531  39.394  11.522
84413W        W45867  23.173  32.486  14.427
84414W        W45868   8.388  38.831   1.232
84415W        W45869   3.347   3.891   2.683
84416W        W45870  28.593  23.002  13.519
84417W        W45871   7.843   4.408  13.466
84418W        W45872   9.740  30.146   1.213
84419W        W45873   0.357  10.707   3.200
84420W        W45874  20.592  19.665  12.952
84421W        W45875  16.317  17.711  10.485
84422W        W45876  17.290  24.624   3.235
84423W        W45877  22.046  43.483   2.812
84424W        W45878   0.305  36.000  14.985
84425W        W45879  31.564   3.279  12.990
84426W        W45880  37.356  15.278  11.057
84427W        W45881  14.291  11.272   5.097
84428W        W45882   2.280  14.226  10.033
84429W        W45883  43.938  24.062   2.207
84430W        W45884  12.659  16.315  10.018
84431W        W45885  26.483   3.416   1.357
84432W        W45886  38.020   1.326  10.546
84433W        W45887  29.632  39.482  14.981
84434W        W45888  10.181  16.651   1.888
84435W        W45889  44.462  38.365  13.430
84436W        W45890  27.979   0.271   2.264
84437W        W45891   3.786  37.936  12.373
84438W        W45892  25.170  33.394   0.369
84439W        W45893   3.712  21.072  13.054
84440W        W45894  39.854  18.282  12.089
84441W        W45895  26.991  12.637   3.380
84442W        W45896  41.365  21.206   4.810
84443W        W45897  27.090  10.346   0.340
84444W        W45898  27.980  18.655   4.168
84445W        W45899  19.041  31.036   0.937
84446W        W45900  13.676   0.461  13.900
84447W        W45901   2.293   4.732  10.946
84448W        W45902  13.341  37.928   9.629
84449W        W45903   6.358  24.581  14.467
84450W        W45904  28.476  21.709  14.776
84451W        W45905   4.754  30.451  10.562
84452W        W45906  12.351  13.689  12.044
84453W        W45907  29.010  18.720  12.080
84454W        W45908  17.683  17.626   4.775
84455W        W45909  14.814  25.586  10.571
84456W        W45910  34.451  12.695  14.775
84457W        W45911  16.073  22.612  13.881
84458W        W45912  10.864  44.490   1.252
84459W        W45913  17.609   3.229  11.902
84460W        W45914  19.055  12.196  13.373
84461W        W45915   3.804   7.831  13.055
84462W        W45916  34.992  34.383   9.997
84463W        W45917  23.206   6.784   1.323
84464W        W45918  36.953   3.261  14.298
84465W        W45919   9.773  22.643  11.993
84466W        W45920   1.465  39.349  12.362
84467W        W45921  41.322  31.444  11.436
84468W        W45922  13.219  32.998  11.575
84469W        W45923  42.821   5.752  14.990
84470W        W45924   2.939  20.719  14.494
84471W        W45925   7.877  22.606  14.018
84472W        W45926  23.496  24.984  13.528
84473W        W45927  35.597   5.765  13.327
84474W        W45928   8.689   7.824  14.979
84475W        W45929  14.807  43.397   1.372
84476W        W45930  26.965   1.953   5.138
84477W        W45931  42.878   4.925   4.176
84478W        W45932  31.470  18.559   3.193
84479W        W45933  29.054  34.974  13.928
84480W        W45934  39.891  19.222   0.965
84481W        W45935  16.177  26.519   1.221
84482W        W45936  22.686  43.322   0.253
84483W        W45937  12.622  31.509   0.340
84484W        W45938   3.796  34.973   3.151
84485W        W45939  20.070  10.698   4.715
84486W        W45940  21.603  19.135  12.507
84487W        W45941   0.982  44.830   4.113
84488W        W45942   4.746  22.624   0.870
84489W        W45943  28.531  14.122   2.689
84490W        W45944  34.873  29.520  13.827
84491W        W45945  30.536  30.436  13.875
84492W        W45946  15.641  31.933   2.672
84493W        W45947  14.191   6.732  11.951
84494W        W45948  25.661  11.753   4.322
84495W        W45949  36.474  25.516  14.831
84496W        W45950   5.786  22.196   4.226
84497W        W45951  28.558  34.973   0.731
84498W        W45952  30.431  14.301  12.901
84499W        W45953  41.883  29.608  11.458
84500W        W45954  17.129  26.692  14.327
84501W        W45955  21.674  18.717   0.791
84502W        W45956  22.080  32.462  10.611
84503W        W45957   1.834  27.500   2.877
84504W        W45958  44.903   2.816   1.450
84505W        W45959  13.743   9.671  14.864
84506W        W45960  19.689  29.132   1.396
84507W        W45961   5.326  42.821   4.187
84508W        W45962  37.084  33.619  10.517
84509W        W45963  23.568  27.492  12.911
84510W        W45964  29.115  17.234  13.538
84511W        W45965  29.427  40.042   3.864
84512W        W45966  27.168  22.559  13.929
84513W        W45967  13.260  33.583   1.879
84514W        W45968  22.014  27.447  11.060
84515W        W45969  21.555  23.152   2.827
84516W        W45970  22.599  11.200  10.143
84517W        W45971  36.397  23.696   3.793
84518W        W45972  29.566  25.098   0.386
84519W        W45973   3.219  27.489  13.826
84520W        W45974   4.764  13.610   0.902
84521W        W45975  39.319  12.218  12.061
84522W        W45976  36.002  17.125   1.933
84523W        W45977  20.230  38.874  11.876
84524W        W45978  30.566  26.105   5.146
84525W        W45979   4.932  28.681   4.181
84526W        W45980  25.095  13.171   0.418
84527W        W45981  32.540  39.032   4.286
84528W        W45982  22.726  36.886   1.408
84529W        W45983   9.701  24.654   4.633
84530W        W45984  24.699   4.940   3.380
84531W        W45985  10.258  28.184   2.250
84532W        W45986  39.406  27.071   0.960
84533W        W45987   2.946  18.710  12.886
84534W        W45988  23.664  28.017  14.768
84535W        W45989  24.126  10.696   0.451
84536W        W45990  19.639  36.017  11.878
84537W        W45991  39.811  14.751  11.081
84538W        W45992  38.499  35.995   3.846
84539W        W45993  43.496  29.613  11.116
84540W        W45994  41.845  30.945  12.472
84541W        W45995  41.343  13.602  11.566
84542W        W45996  38.072  23.121  14.826
84543W        W45997  38.436  10.742  13.839
84544W        W45998  27.610   6.817  12.420
84545W        W45999  44.953   2.404   2.264
84546W        W46000   4.771  13.708   0.341
84547W        W46001  12.316   6.202   2.812
84548W        W46002   5.344   8.872  11.050
84549W        W46003  18.652   4.942   0.396
84550W        W46004  37.932  28.009   1.830
84551W        W46005  32.107  32.572  12.824
84552W        W46006  20.202  25.179  14.934
84553W        W46007  15.666  21.221   3.262
84554W        W46008   8.193   4.214   0.959
84555W        W46009   8.657  35.883  14.488
84556W        W46010   6.230  42.872  11.371
84557W        W46011  44.357  27.678   2.404
84558W        W46012  26.475  43.940   2.357
84559W        W46013  32.452   3.378  14.399
84560W        W46014  19.280  27.449  14.402
84561W        W46015  35.103   7.690   4.155
84562W        W46016   8.296  36.961  10.414
84563W        W46017  35.978  14.705   1.710
84564W        W46018  25.180  42.788  14.380
84565W        W46019  14.661  32.593  13.992
84566W        W46020  13.320  32.886   4.751
84567W        W46021  31.124  21.018  12.042
84568W        W46022  13.180  15.128   2.840
84569W        W46023  31.413  28.036  10.419
84570W        W46024  42.345   0.791   3.372
84571W        W46025  44.985  21.556  10.596
84572W        W46026   6.246   5.922   1.302
84573W        W46027  18.605  44.874   0.825
84574W        W46028  44.437  29.105  12.545
84575W        W46029   1.317  31.436  10.893
84576W        W46030  34.084  25.090  14.964
84577W        W46031  14.228  42.018   4.720
84578W        W46032  10.851   5.231  12.841
84579W        W46033  12.621  21.745   1.286
84580W        W46034  18.168  35.582  13.365
84581W        W46035  38.502  41.932  13.044
84582W        W46036   0.288  17.195  12.829
84583W        W46037   5.314  44.276   2.867
84584W        W46038  37.952  35.984   4.625
84585W        W46039  13.138  44.301  11.567
84586W        W46040   8.243  33.417   3.845
84587W        W46041  24.184  20.249  11.474
84588W        W46042  24.212  20.639   4.201
84589W        W46043  25.516  38.950   1.451
84590W        W46044  22.015  41.466  13.801
84591W        W46045  41.427  18.283   3.789
84592W        W46046  32.435  20.234   4.807
84593W        W46047  23.649  39.317   1.780
84594W        W46048   4.727  16.240  14.997
84595W        W46049  14.205  41.377  14.799
84596W        W46050  39.969   3.868  11.486
84597W        W46051  44.329   1.957  13.908
84598W        W46052  36.581  12.672  11.895
84599W        W46053  11.764  15.288  12.961
84600W        W46054  16.573  10.833   1.309
84601W        W46055  20.179  28.596  14.425
84602W        W46056  11.655  26.046   1.334
84603W        W46057  35.855  44.345  13.401
84604W        W46058   4.404  38.972   3.825
84605W        W46059  44.988  43.800  10.567
84606W        W46060  12.610  36.384  14.344
84607W        W46061  31.991  42.510  10.609
84608W        W46062  37.963  22.654  11.120
84609W        W46063  27.966  24.203  14.497
84610W        W46064   9.659  39.958   4.119
84611W        W46065  33.983  11.265  13.822
84612W        W46066  13.259  41.427  13.339
84613W        W46067  28.163   4.412   1.746
84614W        W46068  15.234  39.017  10.920
84615W        W46069  29.023  17.793   3.369
84616W        W46070  36.456   3.365  14.961
84617W        W46071  39.522  29.054   2.307
84618W        W46072   7.844  11.302   1.376
84619W        W46073  31.975   5.909  10.527
84620W        W46074  21.116  39.043  13.935
84621W        W46075  38.845  29.164   3.673
84622W        W46076  20.680  40.421   3.843
84623W        W46077  28.184   1.885  13.448
84624W        W46078   4.762  36.388   0.426
84625W        W46079  19.049  44.992   0.887
84626W        W46080  20.219   4.362  14.882
84627W        W46081  38.442  34.058   4.135
84628W        W46082  39.973  21.211   1.780
84629W        W46083   3.292   5.240   0.914
84630W        W46084  11.166  34.387   4.666
84631W        W46085  15.292  15.209  13.383
84632W        W46086   5.408  35.407  11.888
84633W        W46087  15.190  34.107  13.323
84634W        W46088  10.797  24.583  10.503
84635W        W46089   3.744   2.906  12.363
84636W        W46090  23.175  26.478   1.880
84637W        W46091  15.206  19.182  13.343
84638W        W46092  38.468  21.742  10.988
84639W        W46093  16.702  19.717  12.068
84640W        W46094  20.675  22.571  10.430
84641W        W46095  22.703  33.581  13.356
84642W        W46096  28.033  28.007  13.492
84643W        W46097  21.259  17.087  11.923
84644W        W46098   2.790  11.132  12.921
84645W        W46099   1.938  36.505   3.738
84646W        W46100  40.935  28.452  11.386
84647W        W46101  32.562   5.211   4.249
84648W        W46102  40.406  20.548   4.752
84649W        W46103  29.606  18.664   2.760
84650W        W46104  15.763   7.171   0.446
84651W        W46105  12.196  32.896  11.557
84652W        W46106  40.316   7.850   4.117
84653W        W46107  35.503  24.650  14.374
84654W        W46108   1.754  21.062  10.093
84655W        W46109  34.523  41.469   0.473
84656W        W46110  24.000  44.946  14.424
84657W        W46111   5.723  37.053   1.858
84658W        W46112  38.953  35.920   2.716
84659W        W46113   5.265  11.818  10.478
84660W        W46114  42.991  12.661   2.224
84661W        W46115   4.267  19.684  13.370
84662W        W46116  44.357  29.612  10.991
84663W        W46117  16.224  38.971   1.412
84664W        W46118  43.844   4.936   1.377
84665W        W46119  36.543  19.583  10.493
84666W        W46120  17.764  37.985  12.579
84667W        W46121   4.779  32.120  14.010
84668W        W46122  40.349  17.289   5.283
84669W        W46123  10.343  33.910   0.747
84670W        W46124  20.632  36.512  13.368
84671W        W46125  28.061  39.824   2.409
84672W        W46126  33.404  32.931  11.494
84673W        W46127  26.129  21.734  13.814
84674W        W46128  10.258   3.871  11.887
84675W        W46129  17.628  19.707  12.490
84676W        W46130  20.183  28.645   3.279
84677W        W46131   2.922  22.071  14.027
84678W        W46132  23.490  44.370   2.224
84679W        W46133   2.262  21.187   0.869
84680W        W46134  36.449  29.977   4.792
84681W        W46135  34.940  43.953  12.525
84682W        W46136  15.649  31.573  10.119
84683W        W46137  25.634  10.232  10.024
84684W        W46138   9.693   2.925  13.901
84685W        W46139   1.405  22.669  11.489
84686W        W46140  29.037  17.559  13.312
84687W        W46141   5.319   6.389  13.469
84688W        W46142  38.448   1.380   2.766
84689W        W46143   6.331  29.019   4.241
84690W        W46144   4.796   6.245  10.444
84691W        W46145  26.082  19.551  13.318
84692W        W46146   1.931  32.949   3.300
84693W        W46147  28.438  42.902  12.078
84694W        W46148  31.435   6.280  11.592
84695W        W46149  33.385  18.192  13.957
84696W        W46150  14.729  29.041  13.963
84697W        W46151  21.589  18.594  13.456
84698W        W46152  37.545  18.113  12.442
84699W        W46153  27.511  15.239  13.486
84700W        W46154  21.756   1.257   0.945
84701W        W46155  26.184  35.403   2.299
84702W        W46156   3.328   9.738  12.948
84703W        W46157  25.616  30.987   4.702
84704W        W46158   3.240  30.588  13.932
84705W        W46159  23.663  21.221  11.437
84706W        W46160  41.489   7.814  14.424
84707W        W46161  38.975  21.070  12.515
84708W        W46162   9.373  35.076   3.188
84709W        W46163  33.023  11.786   3.727
84710W        W46164  19.542  41.353   0.277
84711W        W46165   9.705  35.435   0.888
84712W        W46166   2.877  18.753  12.047
84713W        W46167  11.863  23.150   4.160
84714W        W46168  16.738  14.295  10.454
84715W        W46169  29.635  18.760  12.079
84716W        W46170  18.599  13.323   2.312
84717W        W46171   0.448   3.727   3.218
84718W        W46172  29.526  21.233   1.808
84719W        W46173  21.156  18.759  11.396
84720W        W46174  36.503   3.404  13.508
84721W        W46175   3.851  26.112   3.712
84722W        W46176  12.662  23.161  11.412
84723W        W46177  10.253  12.610  10.118
84724W        W46178  43.398  20.545   2.824
84725W        W46179  26.052  34.992   3.814
84726W        W46180  14.747  35.036  14.279
84727W        W46181  19.266   9.746   2.325
84728W        W46182  12.198  27.053   3.640
84729W        W46183   2.806  39.861   3.789
84730W        W46184   9.671  36.407  12.514
84731W        W46185  19.534   5.733  12.093
84732W        W46186   3.315  23.047   1.787
84733W        W46187  13.230  20.090   5.104
84734W        W46188  19.227  42.295  14.442
84735W        W46189  22.222  17.651   1.834
84736W        W46190  11.158  12.784   4.226
84737W        W46191  38.960  23.233   5.133
84738W        W46192   2.421  35.962   5.107
84739W        W46193  26.544   5.247  14.971
84740W        W46194  17.279  36.014   1.867
84741W        W46195   8.247   8.279  14.496
84742W        W46196  36.080   7.819   4.230
84743W        W46197  28.996  30.547   2.416
84744W        W46198  41.966  34.908  13.475
84745W        W46199  33.996  18.055   4.342
84746W        W46200   6.677  17.778  13.529
84747W        W46201  41.443  17.731   2.274
84748W        W46202  11.706  33.015  11.112
84749W        W46203  17.750  27.001   1.872
84750W        W46204  15.284   1.824   4.763
84751W        W46205  42.518  15.660   0.333
84752W        W46206   2.734  29.119   0.401
84753W        W46207  25.704  21.121  12.001
84754W        W46208  24.565  33.428  13.308
84755W        W46209  16.647  19.566  11.407
84756W        W46210  35.384  37.033  14.014
84757W        W46211   7.286  28.446  11.449
84758W        W46212  24.056  24.516  12.469
84759W        W46213  39.879   9.701  14.975
84760W        W46214  13.724  40.921  12.074
84761W        W46215  42.841   4.750   1.276
84762W        W46216  31.057  21.511   1.839
84763W        W46217  32.560  11.265   1.292
84764W        W46218  22.202  30.969   1.333
84765W        W46219  28.043  36.511  12.398
84766W        W46220  12.759  29.065   1.921
84767W        W46221  40.340  34.111  12.024
84768W        W46222  27.118  25.202  14.979
84769W        W46223  11.165  17.103   5.143
84770W        W46224  24.530   4.228  10.471
84771W        W46225  27.643  37.899   4.239
84772W        W46226  17.769  11.309   5.148
84773W        W46227  31.109  33.900   9.461
84774W        W46228  12.135   8.866   4.219
84775W        W46229  12.614  23.194  13.845
84776W        W46230  39.040  30.033  10.009
84777W        W46231   0.255  44.820  12.012
84778W        W46232  35.590   1.412  14.441
84779W        W46233   3.433  17.194   0.355
84780W        W46234  39.986  22.145   0.386
84781W        W46235  23.080   8.194  11.099
84782W        W46236  44.401  33.447   3.284
84783W        W46237   9.359  25.495   0.242
84784W        W46238  28.119  13.159  10.426
84785W        W46239   5.907  19.231   4.749
84786W        W46240  43.764  40.537   2.314
84787W        W46241  13.721  18.155  10.071
84788W        W46242   7.912   9.664  11.507
84789W        W46243  33.561   2.865   9.952
84790W        W46244  12.204  36.028   4.697
84791W        W46245   1.320  22.213  11.551
84792W        W46246  40.876   4.423   0.480
84793W        W46247  19.679  15.117  12.060
84794W        W46248   0.759   3.889   3.333
84795W        W46249  37.566  40.541   1.934
84796W        W46250  12.362  23.161   3.307
84797W        W46251  33.496  20.548   5.223
84798W        W46252  11.692  17.303  12.402
84799W        W46253  37.573  35.876   4.795
84800W        W46254  17.734  17.103   3.762
84801W        W46255  14.810   3.822   3.355
84802W        W46256  38.053  38.365  12.056
84803W        W46257  25.161  25.474  12.968
84804W        W46258   0.864   3.365  13.808
84805W        W46259  39.389  10.155  12.410
84806W        W46260  10.778  20.086  10.412
84807W        W46261  36.940   1.761  13.539
84808W        W46262  16.696  24.563  12.516
84809W        W46263   9.292  43.895  13.356
84810W        W46264  10.818  23.646   1.922
84811W        W46265  17.766  43.352   2.209
84812W        W46266  40.950  26.637  11.077
84813W        W46267   2.273   0.409   0.370
84814W        W46268  16.084  31.967  11.603
84815W        W46269  10.356  22.620   1.437
84816W        W46270   4.771  21.613   1.260
84817W        W46271  26.675   7.317   0.257
84818W        W46272  33.998  36.933   4.749
84819W        W46273  42.301  33.907  12.545
84820W        W46274  29.571  13.652  11.593
84821W        W46275  19.166  28.594   3.209
84822W        W46276  37.906  17.716   3.291
84823W        W46277  21.629   6.749   0.401
84824W        W46278  21.511  14.782   2.299
84825W        W46279  14.715   6.297   9.983
84826W        W46280   5.876  34.876   0.831
84827W        W46281   0.798  37.575   4.160
84828W        W46282  33.974  20.763  14.989
84829W        W46283  37.984  31.436  13.477
84830W        W46284   0.359  24.621  12.346
84831W        W46285  43.382  16.808   4.758
84832W        W46286  27.968  29.045   0.268
84833W        W46287  41.537  39.970  13.052
84834W        W46288  23.695  32.456  10.524
84835W        W46289   0.299  18.171   1.396
84836W        W46290  12.849   5.228  13.840
84837W        W46291  23.167   8.703  14.894
84838W        W46292  44.940  17.215  11.552
84839W        W46293   3.762   8.667   0.305
84840W        W46294  18.676   5.294  14.341
84841W        W46295  31.065   3.932   4.173
84842W        W46296  17.064  18.164  14.018
84843W        W46297  30.997  14.654  14.992
84844W        W46298  30.645  24.501  12.394
84845W        W46299   1.269  42.818   5.315
84846W        W46300   4.760   5.313   1.446
84847W        W46301  17.612   8.812   4.261
84848W        W46302   3.358   0.769   1.789
84849W        W46303  27.087  38.506   0.395
84850W        W46304  27.543  29.989  13.796
84851W        W46305  11.857  25.180   3.846
84852W        W46306  35.868  43.374  11.373
84853W        W46307   0.833  44.918   0.748
84854W        W46308  43.885   2.362  10.608
84855W        W46309  11.629  31.094   4.202
84856W        W46310   1.860   7.313  11.435
84857W        W46311  42.314  11.661  12.953
84858W        W46312  40.438  11.252   3.682
84859W        W46313   9.762  32.573   2.406
84860W        W46314  17.136  43.462   0.341
84861W        W46315  42.010  32.999   3.769
84862W        W46316  31.515  22.206   1.297
84863W        W46317   1.450   8.899   4.146
84864W        W46318   5.269   1.883  13.986
84865W        W46319   7.339  36.443  10.514
84866W        W46320   6.725  27.488   4.249
84867W        W46321  10.321  22.089  14.331
84868W        W46322  25.112  14.272   2.719
84869W        W46323  27.537   7.384  10.038
84870W        W46324  36.080  25.579  11.999
84871W        W46325   7.335  43.905  10.405
84872W        W46326   3.915  26.147   0.432
84873W        W46327  18.606  43.840  12.928
84874W        W46328   2.417  22.576   4.613
84875W        W46329  35.088  43.906   0.808
84876W        W46330  33.997   9.658  11.091
84877W        W46331  12.856   0.854   4.344
84878W        W46332   9.288  22.215   2.406
84879W        W46333  30.956  29.952  12.046
84880W        W46334  13.761  43.000   2.189
84881W        W46335   6.712  27.134  14.820
84882W        W46336  23.629  41.493  13.999
84883W        W46337  44.423  16.625  12.916
84884W        W46338  16.248  19.263   1.225
84885W        W46339   6.192  19.575   2.408
84886W        W46340  23.122  15.162   3.311
84887W        W46341  20.611  16.134  14.394
84888W        W46342  31.147  15.121   5.131
84889W        W46343  14.154  10.738  12.366
84890W        W46344  19.713  10.351   1.330
84891W        W46345  24.616  33.079  10.578
84892W        W46346  18.733   2.468   5.097
84893W        W46347  41.435   6.791   2.215
84894W        W46348  21.749  19.739   1.823
84895W        W46349  44.776  39.556   2.363
84896W        W46350  22.530  39.003  14.772
84897W        W46351  22.527  21.669  11.983
84898W        W46352  19.195  24.607  13.839
84899W        W46353  26.492  21.593   3.654
84900W        W46354  17.238  17.298  14.949
84901W        W46355  35.021  32.082  14.855
84902W        W46356  33.404   3.750   1.334
84903W        W46357  19.207  14.134   4.610
84904W        W46358  15.688  14.756  10.983
84905W        W46359  27.958  24.547   1.748
84906W        W46360  15.184   1.355   4.689
84907W        W46361  26.068  37.493  11.106
84908W        W46362  10.647  44.954   2.214
84909W        W46363  27.091  26.493  11.449
84910W        W46364   8.896   7.395  14.448
84911W        W46365  22.652  34.929   2.260
84912W        W46366  26.116  44.391   4.281
84913W        W46367  21.589  18.296   3.254
84914W        W46368  24.673  40.378  13.910
84915W        W46369  41.806  38.474   1.725
84916W        W46370  31.078   3.455   3.675
84917W        W46371  18.744   6.860  12.096
84918W        W46372  25.066  29.140  14.886
84919W        W46373  34.048  10.359  12.947
84920W        W46374  25.102  34.022   0.907
84921W        W46375  23.718   8.344  13.854
84922W        W46376   8.789  22.619  12.467
84923W        W46377  44.471  28.004  12.888
84924W        W46378  30.562  43.769   1.273
84925W        W46379  22.585  14.811  14.371
84926W        W46380  31.933  30.152   1.900
84927W        W46381   1.844   2.865  11.889
84928W        W46382  41.472  41.847   4.836
84929W        W46383  34.971   2.235  10.945
84930W        W46384  17.802  42.933   3.670
84931W        W46385  33.088  40.036  10.482
84932W        W46386   4.440   6.694   1.702
84933W        W46387  42.346  39.854  12.339
84934W        W46388  12.653  14.652   2.865
84935W        W46389  43.364   0.370  14.954
84936W        W46390  26.148  44.428  13.513
84937W        W46391  11.801  10.797   4.726
84938W        W46392  23.128  25.054   4.682
84939W        W46393  11.743  26.683  14.009
84940W        W46394  31.412   2.422   0.872
84941W        W46395  31.590   8.187   0.847
84942W        W46396  25.500  24.229   2.247
84943W        W46397  36.854   4.944   0.838
84944W        W46398   8.775  13.729  12.833
84945W        W46399  12.672  17.581  12.909
84946W        W46400  20.047   2.776   3.174
84947W        W46401  32.082  44.458   4.678
84948W        W46402   2.305  33.411  13.399
84949W        W46403  10.171  40.983   0.287
84950W        W46404  34.460  33.445  11.521
84951W        W46405  42.385  27.050   4.195
84952W        W46406   2.411   6.891  11.426
84953W        W46407  10.652  23.058  13.413
84954W        W46408  13.159   7.760   0.900
84955W        W46409  10.822  42.875  10.576
84956W        W46410  35.971  43.968  12.916
84957W        W46411  31.437  27.044   4.318
84958W        W46412   8.727  25.571  12.416
84959W        W46413   5.827  12.741  14.384
84960W        W46414  24.134   4.880  12.533
84961W        W46415  14.624   8.868   3.689
84962W        W46416  25.605  42.431  13.063
84963W        W46417  29.918  38.439   1.773
84964W        W46418  26.049  41.498  11.378
84965W        W46419  10.715  23.604   2.766
84966W        W46420   4.762   5.769   0.285
84967W        W46421   9.207  32.080   2.852
84968W        W46422  34.864  20.678  13.053
84969W        W46423  19.753  23.578   2.268
84970W        W46424  17.266  12.154   2.690
84971W        W46425  41.871  11.637  13.497
84972W        W46426  16.226  36.521   4.734
84973W        W46427   9.331   9.720  13.935
84974W        W46428  22.541  16.078  10.447
84975W        W46429  34.908   3.885  12.547
84976W        W46430  26.487  19.085  13.441
84977W        W46431  31.410  19.137  12.378
84978W        W46432  36.442  36.371  14.845
84979W        W46433   3.946  19.554  12.400
84980W        W46434  24.155  32.469  13.027
84981W        W46435  25.587  44.950  10.491
84982W        W46436  21.163  41.446   0.952
84983W        W46437  39.524  37.516  14.994
84984W        W46438  15.123  25.553  14.447
84985W        W46439  14.148  19.122   1.285
84986W        W46440  20.570  15.186  13.974
84987W        W46441  40.815   6.855  12.908
84988W        W46442   9.290  21.534  13.436
84989W        W46443  23.053   0.944   2.340
84990W        W46444  13.795  42.386  11.390
84991W        W46445  30.156  23.235   1.210
84992W        W46446   7.860  24.136   0.778
84993W        W46447   8.786  21.741   2.385
84994W        W46448  27.680  15.115  12.889
84995W        W46449  19.703  34.467   3.308
84996W        W46450  27.529  41.496   2.413
84997W        W46451  21.586  20.087  12.456
84998W        W46452  43.449  39.861   4.804
84999W        W46453   9.796  15.686  14.931
85000W        W46454  25.518  11.867  13.989
85001W        W46455  21.028  26.695   9.980
85002W        W46456  34.439   5.839  11.422
85003W        W46457  15.619  13.662   4.291
85004W        W46458  10.202  42.347  12.893
85005W        W46459  14.607  11.846   3.760
85006W        W46460   8.299  33.611   4.752
85007W        W46461  40.987  39.411   9.955
85008W        W46462  43.394  12.719   1.340
85009W        W46463   9.234   6.700  12.417
85010W        W46464  13.709   9.777  11.425
85011W        W46465  38.508  15.658   2.340
85012W        W46466  32.963  25.022   1.749
85013W        W46467  44.285  33.468  11.534
85014W        W46468  14.115  30.461   4.795
85015W        W46469  39.839  25.703   3.327
85016W        W46470  30.647  21.263  13.012
85017W        W46471  31.421   3.365   1.889
85018W        W46472  21.232   9.288  10.532
85019W        W46473   5.377  36.403  10.981
85020W        W46474  15.097  41.973  12.530
85021W        W46475  26.511  12.685   2.764
85022W        W46476  32.970  24.559  11.461
85023W        W46477  24.047  31.546  11.951
85024W        W46478  19.213  17.645   0.282
85025W        W46479  40.892  37.084   4.733
85026W        W46480  31.472  24.579   9.601
85027W        W46481  13.129   3.447   1.250
85028W        W46482  15.277  12.282   3.244
85029W        W46483  42.789  29.563   0.862
85030W        W46484  30.608  11.686  12.437
85031W        W46485  35.585  30.422   2.317
85032W        W46486  39.048  20.636  13.830
85033W        W46487  15.194   6.279  12.424
85034W        W46488  22.147  40.922  10.932
85035W        W46489  21.085  20.273  12.577
85036W        W46490  14.294  41.031   3.804
85037W        W46491  30.572  21.529  10.514
85038W        W46492  41.455   0.962  13.420
85039W        W46493  27.634  23.587   1.718
85040W        W46494  11.230   9.363   0.814
85041W        W46495  23.215  38.836   1.923
85042W        W46496  24.636  19.165  14.884
85043W        W46497   0.780  13.673  10.527
85044W        W46498  21.529  31.520   4.710
85045W        W46499  33.420  13.133   1.296
85046W        W46500  14.233  33.029  14.818
85047W        W46501  27.957   1.455   3.766
85048W        W46502  11.701  28.453  14.325
85049W        W46503  44.461  31.603  12.414
85050W        W46504  41.916  25.042   3.295
85051W        W46505  26.204  41.947   2.806
85052W        W46506  25.047  37.482  11.500
85053W        W46507  20.744   8.789   0.274
85054W        W46508  22.045  25.526   1.375
85055W        W46509  25.521  27.450  10.404
85056W        W46510  18.703   1.971   2.675
85057W        W46511  31.509   3.737   4.303
85058W        W46512  12.314  20.079  13.454
85059W        W46513  27.169   6.252  11.986
85060W        W46514  39.466   1.865   1.707
85061W        W46515  23.192  19.268   1.897
85062W        W46516  33.062  41.388   1.800
85063W        W46517  26.597  35.059  13.864
85064W        W46518  21.091   3.413   3.385
85065W        W46519   2.921  24.596   3.812
85066W        W46520  44.334  36.946  13.800
85067W        W46521   2.298  11.271  12.992
85068W        W46522  38.996  25.552  12.838
85069W        W46523  22.085  19.598   5.258
85070W        W46524  36.082  26.631  14.816
85071W        W46525  29.061  14.185   1.291
85072W        W46526   1.297   1.820   4.799
85073W        W46527  42.944  31.457   1.753
85074W        W46528   3.338  16.269  11.010
85075W        W46529  15.125   0.484   0.847
85076W        W46530   8.655   8.331  11.586
85077W        W46531   2.953   7.804   0.334
85078W        W46532  16.784  27.021   4.670
85079W        W46533  37.023  42.475   1.698
85080W        W46534  20.148   3.458  13.482
85081W        W46535   9.315  39.388   4.715
85082W        W46536  18.599  37.075   2.782
85083W        W46537   1.458  12.811   2.416
85084W        W46538  12.311   7.840  13.458
85085W        W46539  33.015  20.722  14.002
85086W        W46540  27.159  34.426   3.771
85087W        W46541   7.382  28.639  11.935
85088W        W46542  26.526  34.088   1.765
85089W        W46543  30.106  27.137  14.923
85090W        W46544   8.256  30.483  11.114
85091W        W46545  37.872   4.232  14.276
85092W        W46546   1.887   8.294  14.446
85093W        W46547  11.821   0.794   4.642
85094W        W46548   8.182  29.589   4.624
85095W        W46549  17.231  21.145  12.434
85096W        W46550  30.106  28.063   0.764
85097W        W46551   9.384  23.552   0.885
85098W        W46552   1.817  26.489  12.863
85099W        W46553  37.010  31.478  12.418
85100W        W46554  44.313  24.516   1.810
85101W        W46555  12.243  25.041   2.730
85102W        W46556  15.810  36.381   1.700
85103W        W46557  15.303  35.855  11.860
85104W        W46558  24.679   0.457  11.441
85105W        W46559  18.789   9.822  13.961
85106W        W46560   5.344  39.842   1.735
85107W        W46561  27.143  14.195   1.926
85108W        W46562   8.743  33.570   3.157
85109W        W46563  33.095  37.443  10.629
85110W        W46564  14.252  13.114  12.090
85111W        W46565   2.335  28.507   3.218
85112W        W46566  17.105  23.182   2.309
85113W        W46567  37.064  17.243   0.333
85114W        W46568  34.020  11.363   1.698
85115W        W46569   2.877  40.342  12.010
85116W        W46570   5.300   0.249   4.708
85117W        W46571   1.241  22.524   1.925
85118W        W46572  29.505   4.767   4.181
85119W        W46573  12.162  26.699   3.365
85120W        W46574   5.828  42.488  12.043
85121W        W46575   8.323  34.921   4.642
85122W        W46576  44.896  20.740   1.863
85123W        W46577  21.666  35.520  12.923
85124W        W46578  13.347  11.754   4.627
85125W        W46579  32.075  22.664  14.396
85126W        W46580   5.920  44.283   1.254
85127W        W46581  42.375  10.183  12.057
85128W        W46582  32.034   1.908   5.289
85129W        W46583  40.049  36.495  14.507
85130W        W46584  44.809  14.112   4.222
85131W        W46585   8.686  43.319   1.803
85132W        W46586  15.306   3.375  12.557
85133W        W46587  13.737  18.623   3.818
85134W        W46588  35.048   0.334  12.918
85135W        W46589  34.871  12.726   4.266
85136W        W46590  25.172  40.910  14.508
85137W        W46591  20.247  26.520   1.718
85138W        W46592  12.259   4.364  10.908
85139W        W46593   9.380   7.850  14.805
85140W        W46594   1.469  34.614   2.242
85141W        W46595  20.165  22.649   2.809
85142W        W46596  42.524  32.999   2.792
85143W        W46597  10.189  16.254  10.594
85144W        W46598   3.799  34.458   3.780
85145W        W46599  37.428  34.608   1.856
85146W        W46600  21.519  33.118   2.226
85147W        W46601  31.963  32.087  10.596
85148W        W46602   4.872   6.312   1.413
85149W        W46603  23.529   4.349  12.939
85150W        W46604  38.537  39.493   5.235
85151W        W46605  19.689   4.914  10.934
85152W        W46606  33.885   9.257  11.973
85153W        W46607   0.964  42.419  13.929
85154W        W46608  17.792   9.310  11.446
85155W        W46609  34.490  33.423   2.731
85156W        W46610  17.800  15.586  10.430
85157W        W46611   0.959  39.065   4.340
85158W        W46612  12.700  33.586  14.988
85159W        W46613  37.880  13.803   2.708
85160W        W46614  35.520  12.812   1.382
85161W        W46615  21.519  12.851   3.348
85162W        W46616   3.740  18.153  10.994
85163W        W46617  30.630  36.427  12.443
85164W        W46618   4.204   5.317  14.877
85165W        W46619  12.327  10.747  13.889
85166W        W46620  38.891  28.931  13.320
85167W        W46621  35.412  12.297   3.209
85168W        W46622   0.766  19.066   1.833
85169W        W46623  44.333  26.106   1.767
85170W        W46624  39.917  25.111   4.195
85171W        W46625  26.643   7.676   0.950
85172W        W46626   1.468  30.619  13.911
85173W        W46627  33.421   3.343  12.539
85174W        W46628  11.333  14.314  12.414
85175W        W46629  20.175  36.085   0.773
85176W        W46630   9.778  16.757  13.792
85177W        W46631  25.079  30.008   3.676
85178W        W46632  23.648   8.397  14.413
85179W        W46633  37.576   8.264  14.305
85180W        W46634  39.840  42.382  12.894
85181W        W46635  20.764   8.210  11.454
85182W        W46636  26.460  16.077  11.377
85183W        W46637  44.380  10.205  12.907
85184W        W46638  29.024  43.430  12.404
85185W        W46639  40.338  24.143   2.335
85186W        W46640  20.753  29.022   1.835
85187W        W46641  38.332  32.006   4.334
85188W        W46642  41.836  10.726   1.427
85189W        W46643  32.973  41.986  14.389
85190W        W46644  40.836   9.339  14.512
85191W        W46645  40.331   1.809  11.589
85192W        W46646  20.682  34.021  10.941
85193W        W46647  26.625  34.102  13.998
85194W        W46648  20.683   4.255   0.790
85195W        W46649   6.394  34.891   0.333
85196W        W46650  33.531  18.577   2.859
85197W        W46651  14.319  24.524   4.733
85198W        W46652  37.505  39.956  11.585
85199W        W46653  14.749  34.877  10.635
85200W        W46654   6.827  33.130   5.095
85201W        W46655  11.688  31.589   2.184
85202W        W46656  26.067   1.424  11.427
85203W        W46657   9.696  19.724   3.694
85204W        W46658  40.305  32.132   1.263
85205W        W46659  20.270  44.798  11.404
85206W        W46660  13.162  40.537   0.475
85207W        W46661  38.840  20.582   3.173
85208W        W46662  35.470  33.602  11.869
85209W        W46663  17.738  20.645   0.762
85210W        W46664  42.390   4.420  12.480
85211W        W46665  21.715  30.436  13.405
85212W        W46666   1.731  40.838  13.979
85213W        W46667  31.647  42.815  13.810
85214W        W46668  31.953  24.195  10.422
85215W        W46669  31.047  30.636  13.919
85216W        W46670  25.152  15.740  11.536
85217W        W46671   2.946  20.140   4.600
85218W        W46672  41.011   8.378  11.589
85219W        W46673  41.474   9.670   3.348
85220W        W46674  40.010  33.417  13.339
85221W        W46675   8.760  34.976   3.301
85222W        W46676   3.308  13.781   1.273
85223W        W46677  36.410  26.021  11.012
85224W        W46678  27.048  31.468  12.508
85225W        W46679  19.073  25.513   3.816
85226W        W46680   9.382   0.919   4.346
85227W        W46681  24.523  22.646  12.509
85228W        W46682  35.552   0.759  13.889
85229W        W46683  36.081   2.862   1.423
85230W        W46684  34.492  37.952  11.889
85231W        W46685  38.994   8.767   0.367
85232W        W46686  29.968  19.727  14.015
85233W        W46687   8.869  26.132  13.363
85234W        W46688  21.571  29.106  13.322
85235W        W46689  29.568  12.811   0.481
85236W        W46690   6.257  25.197   2.187
85237W        W46691  43.394  13.175  11.009
85238W        W46692  28.138   4.391  12.867
85239W        W46693  28.000  20.592  14.916
85240W        W46694  25.537   4.439   0.792
85241W        W46695   1.757   0.463  12.437
85242W        W46696  29.620  36.468   1.810
85243W        W46697  21.060   5.262   2.349
85244W        W46698   3.314  42.307  12.082
85245W        W46699  18.089   1.433  11.426
85246W        W46700  23.106  40.484  12.945
85247W        W46701   2.261  11.344  11.587
85248W        W46702  18.128  35.571   1.445
85249W        W46703  21.210   0.280   0.461
85250W        W46704  20.251  35.020  14.496
85251W        W46705  22.228  37.906  13.371
85252W        W46706   2.226   0.863   5.182
85253W        W46707  20.591  33.129   1.741
85254W        W46708   7.831  25.004   2.720
85255W        W46709   1.419  37.065  13.396
85256W        W46710  30.548  23.022  13.837
85257W        W46711  37.834  41.907  10.898
85258W        W46712  34.513  21.699   4.287
85259W        W46713  37.393  41.406   3.304
85260W        W46714  39.019  25.969   0.430
85261W        W46715  11.363  11.801   2.742
85262W        W46716  27.689  14.112  13.477
85263W        W46717  15.292  21.703  11.430
85264W        W46718  12.628   4.223   4.632
85265W        W46719  35.584   8.835  14.911
85266W        W46720  12.293  20.146   4.343
85267W        W46721   1.282  15.142  10.980
85268W        W46722  36.025   3.274   4.767
85269W        W46723  35.860  23.733   4.772
85270W        W46724   7.249   7.742  14.938
85271W        W46725  42.397  15.191   1.267
85272W        W46726  11.129  26.975   2.244
85273W        W46727  28.170  34.960  14.969
85274W        W46728   5.308  27.047   3.675
85275W        W46729  39.558  16.282   2.775
85276W        W46730   3.382  12.225  10.510
85277W        W46731  42.474   5.874   0.956
85278W        W46732  35.864  19.741  10.543
85279W        W46733  15.769   8.795  13.440
85280W        W46734  18.592  41.298   1.451
85281W        W46735  20.216  17.576   3.366
85282W        W46736  21.590  20.253  10.547
85283W        W46737  38.988   8.785   4.771
85284W        W46738  20.255   2.814   2.251
85285W        W46739  31.480  43.946   0.798
85286W        W46740  41.041  40.014   1.834
85287W        W46741   0.742  34.581  13.403
85288W        W46742   9.788  21.160   3.381
85289W        W46743  32.893  44.772  12.966
85290W        W46744  40.494  10.207   0.938
85291W        W46745   8.362  44.942   2.772
85292W        W46746  29.120  14.783   3.815
85293W        W46747  16.194  40.960   4.728
85294W        W46748  10.695   6.257  12.969
85295W        W46749  29.431  37.865   1.285
85296W        W46750  11.848  42.777  12.076
85297W        W46751   3.847   7.757   2.669
85298W        W46752  41.935   9.749  12.435
85299W        W46753  20.658  21.231  12.918
85300W        W46754  43.515  23.062   1.720
85301W        W46755  10.189  35.553   4.355
85302W        W46756   7.413  10.653  10.912
85303W        W46757   5.389  29.993  12.946
85304W        W46758  31.935   7.691   0.903
85305W        W46759   4.859  36.962   1.860
85306W        W46760  21.153  28.651  11.909
85307W        W46761   8.230  24.176  13.922
85308W        W46762   8.828  19.684   3.858
85309W        W46763  26.047  39.522   3.843
85310W        W46764   3.938  14.316  14.967
85311W        W46765  42.318  31.543  14.989
85312W        W46766  32.579  16.234  10.586
85313W        W46767   0.890  39.884   4.173
85314W        W46768   2.226  24.666  14.954
85315W        W46769  21.112  37.366  13.502
85316W        W46770  26.180  10.208  13.447
85317W        W46771  26.020  15.127   2.874
85318W        W46772   1.893  12.844  13.877
85319W        W46773   7.326  30.638  14.841
85320W        W46774  36.015  28.604   2.316
85321W        W46775   0.777  28.109  12.882
85322W        W46776  11.694   1.752  14.013
85323W        W46777  36.455  39.475  13.054
85324W        W46778  30.515  29.575  11.463
85325W        W46779  14.664  27.949   2.179
85326W        W46780  37.015  11.313  12.072
85327W        W46781  43.890   0.347  14.376
85328W        W46782  32.031  11.193   0.392
85329W        W46783  11.699  20.223   5.102
85330W        W46784  41.449  22.633   3.211
85331W        W46785   0.272  21.646   4.212
85332W        W46786   0.755   8.808   4.770
85333W        W46787  44.286   6.306   2.671
85334W        W46788  31.496  27.453   2.841
85335W        W46789  38.438  43.364   1.362
85336W        W46790  25.565  27.501  14.312
85337W        W46791  25.000  17.304   1.702
85338W        W46792  12.758  39.511  12.414
85339W        W46793   3.310  30.638   0.846
85340W        W46794   2.361   1.368   4.598
85341W        W46795   4.893  25.522   4.719
85342W        W46796  33.603  21.190   4.275
85343W        W46797  14.178  27.494   3.384
85344W        W46798  21.250  34.390   0.382
85345W        W46799  15.634  28.028  10.528
85346W        W46800  35.382   4.338   4.164
85347W        W46801  43.455  41.864   3.308
85348W        W46802  24.085   6.275   1.363
85349W        W46803  43.500  25.990   1.865
85350W        W46804  30.449  40.545   1.233
85351W        W46805  34.008  24.691  14.763
85352W        W46806  11.358  19.670   1.256
85353W        W46807  16.162   8.710   4.663
85354W        W46808  36.960  28.461  13.523
85355W        W46809  27.492  39.508   3.378
85356W        W46810  41.809  30.646   3.820
85357W        W46811  22.063  36.849  13.861
85358W        W46812  33.560  13.787  13.502
85359W        W46813  34.977  41.377   0.477
85360W        W46814  17.578  10.260  13.914
85361W        W46815  38.967  15.822  14.789
85362W        W46816   4.316  30.033  13.968
85363W        W46817   3.232  31.921  13.545
85364W        W46818   9.220  35.101  10.495
85365W        W46819  15.596  18.733  10.543
85366W        W46820  18.199  30.578  10.915
85367W        W46821  41.310  26.643  13.326
85368W        W46822  30.542  18.056   1.918
85369W        W46823  38.410  41.853  11.938
85370W        W46824  27.455  38.427  11.609
85371W        W46825  19.281  20.166   2.371
85372W        W46826   9.786  13.280   1.821
85373W        W46827  21.626  27.465  11.385
85374W        W46828  19.620  30.605   0.329
85375W        W46829  15.805  15.789  13.819
85376W        W46830  21.630  15.652   1.780
85377W        W46831  27.605  38.949  12.389
85378W        W46832  36.530  11.270   1.373
85379W        W46833  13.707  20.667   2.342
85380W        W46834   6.344  30.501  14.382
85381W        W46835  41.966  27.672   0.877
85382W        W46836  31.483  37.920  12.075
85383W        W46837   3.454  10.169  14.392
85384W        W46838   6.899  17.642  11.074
85385W        W46839  19.215   1.398  10.980
85386W        W46840  27.995  38.558   3.679
85387W        W46841  17.697  20.765  10.957
85388W        W46842  13.257  12.229   3.169
85389W        W46843  25.527   9.826  14.801
85390W        W46844  40.811  21.076   2.874
85391W        W46845  24.535  28.116  13.871
85392W        W46846  40.402  28.486   2.795
85393W        W46847  29.457  44.800  11.554
85394W        W46848  28.540  11.693  13.879
85395W        W46849  15.679  33.424   3.331
85396W        W46850   2.945  19.560   0.881
85397W        W46851  25.151  10.382  10.579
85398W        W46852  20.711  32.997   0.806
85399W        W46853  12.147  30.633   3.183
85400W        W46854   7.300  16.309   1.897
85401W        W46855  23.111   1.329   3.305
85402W        W46856  23.214   4.903   0.298
85403W        W46857  39.523  33.425   3.800
85404W        W46858  36.081  43.394  12.920
85405W        W46859  15.676  27.123   3.710
85406W        W46860  18.661  15.780   3.330
85407W        W46861  34.581  27.609  11.038
85408W        W46862  15.124  11.167   3.843
85409W        W46863  17.190  13.760   0.944
85410W        W46864  36.478  10.711  10.642
85411W        W46865  39.982  33.511   3.265
85412W        W46866   5.703   4.890   1.781
85413W        W46867  11.300  13.716   2.395
85414W        W46868  36.558  22.171   3.338
85415W        W46869   6.823  38.851  13.845
85416W        W46870  22.662   3.800  13.835
85417W        W46871  23.118  42.455   3.714
85418W        W46872   0.916  21.533   3.761
85419W        W46873  21.540   5.821  10.068
85420W        W46874  16.670  20.062   0.243
85421W        W46875  16.631   4.390   4.186
85422W        W46876  41.464  37.936  12.422
85423W        W46877  12.651  38.468   9.494
85424W        W46878  27.138  19.597   2.224
85425W        W46879  25.122  23.584  11.102
85426W        W46880  14.665  15.628  13.932
85427W        W46881  17.589   9.785   2.870
85428W        W46882  35.982  11.661  14.472
85429W        W46883  21.533   9.810  14.948
85430W        W46884   2.371   7.196  10.535
85431W        W46885   6.736   7.313   2.231
85432W        W46886  33.538  42.407   1.924
85433W        W46887  29.615  32.587  14.977
85434W        W46888  26.040  20.682  10.518
85435W        W46889  36.540  42.301   3.341
85436W        W46890   2.300  29.657  12.823
85437W        W46891   9.201   8.272  14.377
85438W        W46892  38.528  38.925  13.326
85439W        W46893  35.034   2.426  12.560
85440W        W46894  23.147   2.406   2.819
85441W        W46895  12.687  11.685   3.823
85442W        W46896  39.824   2.827  14.831
85443W        W46897  21.118  28.972  10.935
85444W        W46898  24.497   7.855   5.314
85445W        W46899  40.957  32.402  10.526
85446W        W46900   1.396  31.909   2.198
85447W        W46901  18.207  17.626   3.728
85448W        W46902  24.561  19.729  11.473
85449W        W46903  26.640  39.457   1.825
85450W        W46904   8.900   6.382  13.883
85451W        W46905   9.843  35.960   2.740
85452W        W46906  19.184  43.374  10.564
85453W        W46907  40.006  40.472  14.370
85454W        W46908  36.975  21.724  14.866
85455W        W46909  13.671  43.938   3.312
85456W        W46910  12.628  13.162  13.427
85457W        W46911  29.944  38.484  11.389
85458W        W46912  33.477   9.201  12.887
85459W        W46913   7.843  43.502  13.994
85460W        W46914  10.249   1.298  14.424
85461W        W46915  16.773  17.569  14.935
85462W        W46916   9.678  31.518   0.302
85463W        W46917   2.767  39.913  13.336
85464W        W46918  13.194  34.478  11.400
85465W        W46919  29.551  12.340   0.895
85466W        W46920  24.084   5.700   2.411
85467W        W46921  30.088  18.767  11.581
85468W        W46922  41.979  12.742   1.229
85469W        W46923   0.454  14.146   1.382
85470W        W46924  35.073  16.092   1.252
85471W        W46925  16.691  27.593   1.700
85472W        W46926  43.355  12.139   3.691
85473W        W46927   1.446  29.116   0.929
85474W        W46928  26.126  44.461  14.484
85475W        W46929  20.530  27.956   4.172
85476W        W46930   5.417  43.930   2.901
85477W        W46931  21.542  20.556  12.535
85478W        W46932  39.361  31.634   4.238
85479W        W46933  11.624  15.209   1.715
85480W        W46934  36.978   9.743  10.423
85481W        W46935   9.811  17.587  12.531
85482W        W46936  12.721  19.256   0.833
85483W        W46937  28.949  13.116  12.017
85484W        W46938  25.966  33.457   0.726
85485W        W46939  17.169   2.853   0.869
85486W        W46940  24.979  31.060   1.387
85487W        W46941  24.213  19.738   5.309
85488W        W46942   2.365  34.942  13.983
85489W        W46943  23.699  42.351   2.237
85490W        W46944   7.902  34.027  12.009
85491W        W46945  42.804   8.200  13.886
85492W        W46946  43.880  42.025  14.030
85493W        W46947  25.075  14.798   3.312
85494W        W46948  24.002  33.620   1.212
85495W        W46949   7.243   6.872  11.079
85496W        W46950  28.675  34.540   1.367
85497W        W46951  37.411  20.633  12.401
85498W        W46952   7.361  37.402   3.732
85499W        W46953  23.646  17.123   2.393
85500W        W46954  22.581  32.548   0.379
85501W        W46955  43.350   8.198   2.881
85502W        W46956   9.767  38.406   0.785
85503W        W46957  37.877  31.582  14.850
85504W        W46958  10.175  33.502  12.024
85505W        W46959  17.074  21.258   0.928
85506W        W46960   8.851   8.774  12.347
85507W        W46961  23.664  20.709   1.745
85508W        W46962  23.229  32.520  10.513
85509W        W46963   5.427  23.212  12.006
85510W        W46964  37.968  35.439   4.775
85511W        W46965  34.058   4.881   3.151
85512W        W46966  13.743  36.991   4.808
85513W        W46967  31.442  34.406   9.638
85514W        W46968  18.250  29.074  14.364
85515W        W46969  15.125  39.451   2.291
85516W        W46970  44.775   1.384  13.547
85517W        W46971  42.901  44.780   3.656
85518W        W46972   0.885   3.388   2.761
85519W        W46973  31.513  26.041  13.410
85520W        W46974   0.364   5.255   0.471
85521W        W46975  33.944  31.474   1.280
85522W        W46976  26.108  17.107   0.319
85523W        W46977  11.175  27.690  10.506
85524W        W46978  25.565  31.529   3.166
85525W        W46979  17.562  44.475  12.913
85526W        W46980  15.621  44.333   2.854
85527W        W46981  11.718   6.723   2.372
85528W        W46982   9.195  41.358  10.050
85529W        W46983   6.330   9.220  13.325
85530W        W46984  36.425   1.877  10.640
85531W        W46985  38.516  40.546   2.711
85532W        W46986  38.874  41.932  13.355
85533W        W46987  39.983  12.619  12.428
85534W        W46988  19.122  21.221  12.442
85535W        W46989  12.252  30.508   2.294
85536W        W46990  15.155  30.471  10.496
85537W        W46991  21.676  15.249  13.488
85538W        W46992   5.434  21.520   4.329
85539W        W46993   4.316  37.003  13.529
85540W        W46994  40.500  34.584  14.465
85541W        W46995  42.403  33.423  14.342
85542W        W46996   7.237  27.171  12.000
85543W        W46997   9.304  18.052  14.010
85544W        W46998  38.443  37.574   1.715
85545W        W46999  21.741  19.598  14.009
85546W        W47000  11.150  20.745  13.523
85547W        W47001  10.638  27.172  14.292
85548W        W47002  40.540   4.787  11.076
85549W        W47003   9.322  34.377   0.259
85550W        W47004  41.951   8.205   0.830
85551W        W47005  15.117  12.850   3.235
85552W        W47006   9.234  18.250  11.944
85553W        W47007   9.814  40.848  12.549
85554W        W47008  42.337  37.343   1.392
85555W        W47009  39.318  10.246   4.602
85556W        W47010  21.735  14.696  14.886
85557W        W47011  31.999  11.830   3.339
85558W        W47012  36.575  30.135  12.378
85559W        W47013  21.704  28.129   4.735
85560W        W47014  38.829  39.497   2.820
85561W        W47015  18.222  29.146  14.838
85562W        W47016  13.621   2.836   3.221
85563W        W47017  14.200  39.872  14.497
85564W        W47018  15.183  38.910   2.892
85565W        W47019  41.829  30.005   0.928
85566W        W47020  19.769  28.093   1.390
85567W        W47021   0.814  35.532   2.259
85568W        W47022  35.057  44.355  11.567
85569W        W47023   2.449  26.145  10.621
85570W        W47024  44.978  25.705  14.850
85571W        W47025  19.750  14.808   2.681
85572W        W47026  20.267   7.180  13.473
85573W        W47027  43.487  18.272   3.235
85574W        W47028  40.418  13.122   1.885
85575W        W47029  44.930  30.127  12.888
85576W        W47030  11.779  13.154   2.709
85577W        W47031  25.538  35.868   5.124
85578W        W47032  17.611  24.682  10.890
85579W        W47033  33.956  20.252  13.481
85580W        W47034  12.652  44.936  10.530
85581W        W47035  44.387  28.113  11.941
85582W        W47036  19.279  31.542   3.213
85583W        W47037   6.418  21.666   2.885
85584W        W47038  21.676   3.821  13.455
85585W        W47039  30.056  11.700   3.374
85586W        W47040  14.298   5.334  14.821
85587W        W47041  42.021  23.730  11.456
85588W        W47042   6.264   4.318   0.382
85589W        W47043  29.485  14.211  11.935
85590W        W47044  43.435   7.693   2.184
85591W        W47045  14.758  25.053   2.726
85592W        W47046   2.883  34.497  12.380
85593W        W47047   4.901  16.119   4.261
85594W        W47048   3.715  10.681  10.550
85595W        W47049  15.296  36.440  12.363
85596W        W47050  14.745  10.809  12.836
85597W        W47051  25.036  29.477   4.707
85598W        W47052  17.753  30.089   3.306
85599W        W47053   3.257  19.059  10.438
85600W        W47054   2.804  33.901  14.993
85601W        W47055  44.854  27.668   1.420
85602W        W47056  25.007  35.107  11.001
85603W        W47057  22.649  35.072  13.795
85604W        W47058   7.810  32.414   3.262
85605W        W47059  34.537  23.657   1.845
85606W        W47060   5.208  37.872  13.059
85607W        W47061   6.780  21.262   0.372
85608W        W47062  35.558  28.087  12.382
85609W        W47063   5.219  38.891   0.821
85610W        W47064  27.103  10.818   0.881
85611W        W47065   8.677  43.447   2.718
85612W        W47066  40.441  27.998   1.746
85613W        W47067  38.915  22.151   3.182
85614W        W47068  12.230  30.422  12.023
85615W        W47069  39.483  21.554  13.328
85616W        W47070  20.589  11.781  11.050
85617W        W47071   7.330  38.063  12.448
85618W        W47072  30.514  19.207  14.983
85619W        W47073  13.672  11.203  13.388
85620W        W47074  30.049   5.911  14.369
85621W        W47075   9.300  21.550   9.523
85622W        W47076  29.127  19.212  13.807
85623W        W47077  27.042   2.942   0.287
85624W        W47078  16.615  32.094   3.830
85625W        W47079  27.042  10.727  13.843
85626W        W47080  18.213  37.567   4.833
85627W        W47081  41.405  25.565  12.558
85628W        W47082  21.536   8.378  14.852
85629W        W47083  42.373   4.745  14.990
85630W        W47084   1.476   6.199   1.899
85631W        W47085  34.873  36.556  13.503
85632W        W47086  44.989  42.390  12.464
85633W        W47087  25.527   7.278  14.322
85634W        W47088  32.411  39.809   2.401
85635W        W47089   7.814  13.263   3.158
85636W        W47090  14.134  34.557  10.468
85637W        W47091  44.898  29.078  13.949
85638W        W47092  29.125  28.126   3.196
85639W        W47093  44.275  44.475   0.242
85640W        W47094  36.877   6.843  14.929
85641W        W47095  33.988   8.240  10.949
85642W        W47096  11.640  25.132  12.014
85643W        W47097  25.641   3.374   1.361
85644W        W47098  11.293  30.122  14.818
85645W        W47099  32.400  37.557  12.466
85646W        W47100  33.492  37.414   2.744
85647W        W47101  32.432  26.083   2.757
85648W        W47102  44.818  28.671   0.737
85649W        W47103  36.020  38.864  13.835
85650W        W47104   9.700  25.568  13.430
85651W        W47105  24.059  14.256  10.537
85652W        W47106   8.690   5.805  12.465
85653W        W47107  13.758  32.968   1.705
85654W        W47108  32.466  22.590   3.322
85655W        W47109  38.951  10.820  10.459
85656W        W47110  22.016   8.728   1.904
85657W        W47111  18.269  34.063   0.936
85658W        W47112  20.669  19.163   2.691
85659W        W47113   1.887   9.844   2.301
85660W        W47114  24.594  30.624   2.852
85661W        W47115   4.709  26.500   3.800
85662W        W47116  35.532  44.464   3.746
85663W        W47117  29.643  26.982  12.554
85664W        W47118  43.879  30.416   4.778
85665W        W47119   1.753  27.673   4.693
85666W        W47120  17.141  36.459  13.946
85667W        W47121  20.677   0.858   2.768
85668W        W47122  23.682  27.011   3.790
85669W        W47123  36.359   6.291   1.804
85670W        W47124  20.087  32.547   0.876
85671W        W47125   3.808  23.713   2.207
85672W        W47126  24.685  19.209  13.407
85673W        W47127  17.286   1.739   2.413
85674W        W47128   9.719  34.912  10.104
85675W        W47129  43.870  16.142  14.411
85676W        W47130  34.873   6.741   0.292
85677W        W47131   0.967  40.951  14.284
85678W        W47132   0.460  44.940   0.362
85679W        W47133  18.553  36.886   2.242
85680W        W47134  28.549   1.247  12.862
85681W        W47135   0.315  20.173   3.660
85682W        W47136  10.709  15.291   0.310
85683W        W47137  31.949  12.849   2.729
85684W        W47138   7.310  22.012  11.867
85685W        W47139  29.657  15.279  13.805
85686W        W47140  22.540  16.221  12.836
85687W        W47141  39.970   7.755  10.581
85688W        W47142  39.856  12.839   3.381
85689W        W47143  14.624   7.717  11.055
85690W        W47144  29.930  27.499   3.850
85691W        W47145  23.579  29.980   4.232
85692W        W47146  29.464  30.526   3.325
85693W        W47147   3.253  35.032   3.797
85694W        W47148  37.957   2.240   1.854
85695W        W47149  37.580  25.104  10.433
85696W        W47150  13.105  25.670   1.730
85697W        W47151  43.981   7.241   1.411
85698W        W47152  43.989  14.789   1.885
85699W        W47153  21.653   3.440  12.854
85700W        W47154  37.536   9.361  14.491
85701W        W47155   5.813  20.655  10.905
85702W        W47156  33.966  10.647  13.491
85703W        W47157  18.258   0.987   1.696
85704W        W47158  10.634  12.311   1.809
85705W        W47159  12.144  31.131  11.983
85706W        W47160  14.220   5.393  10.501
85707W        W47161   9.312   8.717   5.138
85708W        W47162   0.335   9.323   0.910
85709W        W47163   0.440  10.769   3.783
85710W        W47164  19.583  24.097  12.438
85711W        W47165  16.104  30.961   2.378
85712W        W47166  35.046  31.965   4.762
85713W        W47167  19.727  40.842  13.514
85714W        W47168   8.789  28.979  14.278
85715W        W47169   8.255  20.552   4.320
85716W        W47170   3.732   6.225  12.927
85717W        W47171  14.680  40.985   2.857
85718W        W47172   5.209  44.962  13.793
85719W        W47173  13.144  30.010  11.574
85720W        W47174  25.988  32.446  10.893
85721W        W47175  37.884  29.949   3.664
85722W        W47176  18.649  42.490   1.929
85723W        W47177  27.517   1.937   9.941
85724W        W47178  23.693  42.374   2.731
85725W        W47179   6.785  26.535   0.791
85726W        W47180  34.962  25.536   3.217
85727W        W47181   9.880  12.856   2.672
85728W        W47182   9.149  12.721   1.380
85729W        W47183  34.012  28.663  11.893
85730W        W47184   9.340  16.590   2.696
85731W        W47185  11.862  33.108   0.757
85732W        W47186  34.483  37.525   3.381
85733W        W47187  38.432  20.105  10.606
85734W        W47188  20.215  29.505   0.324
85735W        W47189   6.767  13.738  13.482
85736W        W47190   2.263  30.589  13.428
85737W        W47191  21.577  30.590   2.322
85738W        W47192  36.951   6.341   3.768
85739W        W47193  15.681  40.441  10.050
85740W        W47194  34.416  11.676  12.823
85741W        W47195  19.095  15.741  13.330
85742W        W47196  30.428   1.774   4.234
85743W        W47197  39.441  27.194   0.304
85744W        W47198  18.272   9.186  14.355
85745W        W47199  42.944  36.017  14.782
85746W        W47200  37.922  13.218  10.595
85747W        W47201  26.191  29.566  12.982
85748W        W47202  21.259  31.403   4.724
85749W        W47203  15.228  42.847  14.859
85750W        W47204   9.205  27.633  12.949
85751W        W47205   3.952  29.919   0.797
85752W        W47206  42.283  23.004  13.922
85753W        W47207  40.402  25.644   3.813
85754W        W47208  25.142  12.632  10.944
85755W        W47209  35.010  17.572   3.802
85756W        W47210  36.450  29.096  12.380
85757W        W47211  11.798  38.458  11.576
85758W        W47212  15.794  44.849  12.061
85759W        W47213  37.529  15.135  13.879
85760W        W47214   2.838  43.320   4.722
85761W        W47215   1.910   2.453   3.704
85762W        W47216  21.652   4.292   1.239
85763W        W47217   5.788  23.197  13.456
85764W        W47218  40.804   4.221   1.444
85765W        W47219   5.763  38.469  14.025
85766W        W47220  26.146  25.159  12.978
85767W        W47221   2.462   5.317   2.709
85768W        W47222  15.113  34.993  13.479
85769W        W47223  26.105  32.566  13.499
85770W        W47224   1.252  37.058   0.791
85771W        W47225  34.892  22.622  13.502
85772W        W47226  12.687   3.302   3.730
85773W        W47227  20.218  21.086   3.640
85774W        W47228  12.627  19.058  10.512
85775W        W47229  16.738  15.225   0.346
85776W        W47230  10.758  36.574   1.389
85777W        W47231  30.032  27.505  13.381
85778W        W47232   0.801  15.608  13.373
85779W        W47233   0.844  31.922   1.742
85780W        W47234  27.656  28.660  13.807
85781W        W47235   9.194  29.999   3.167
85782W        W47236   2.386  37.470   9.943
85783W        W47237   1.447  38.919  14.304
85784W        W47238  41.864  24.219  10.123
85785W        W47239  43.017  26.607   5.119
85786W        W47240  43.401  24.177  10.450
85787W        W47241   9.336  21.707  13.000
85788W        W47242  11.180  24.103  14.933
85789W        W47243   5.875  32.949  11.446
85790W        W47244  13.155  36.488  14.961
85791W        W47245  37.083  16.163  10.470
85792W        W47246  21.116  30.420   4.134
85793W        W47247  18.118  44.418   0.361
85794W        W47248  25.629  25.062   0.260
85795W        W47249  30.583  12.186  13.369
85796W        W47250  11.134  21.212  12.467
85797W        W47251  11.690   3.324  14.338
85798W        W47252  28.052  44.921  13.808
85799W        W47253   9.687  23.623   2.699
85800W        W47254  40.979  17.228   4.338
85801W        W47255  42.936  27.105   3.726
85802W        W47256  13.741  16.647  10.428
85803W        W47257  44.499  42.947   5.242
85804W        W47258   9.799  22.735   1.352
85805W        W47259   7.350   5.781  10.476
85806W        W47260  29.524  30.151  12.505
85807W        W47261  34.554  18.176  13.958
85808W        W47262   2.835  24.674  13.859
85809W        W47263  41.829  14.641  14.495
85810W        W47264  22.011  40.968   4.697
85811W        W47265  12.790  14.753  13.428
85812W        W47266   1.420  30.499   4.188
85813W        W47267  42.464  19.044  11.997
85814W        W47268  33.937   3.824  10.638
85815W        W47269   0.890  11.157   3.376
85816W        W47270  28.077  36.992   4.222
85817W        W47271  16.710   6.391  10.606
85818W        W47272  42.471  28.539  11.895
85819W        W47273  14.676  31.011  14.342
85820W        W47274   2.398   2.747   3.208
85821W        W47275   4.342  10.842  13.502
85822W        W47276   9.685  26.012  10.636
85823W        W47277  29.469   6.223   0.928
85824W        W47278   8.289  12.213  10.427
85825W        W47279  15.201  20.148  10.961
85826W        W47280  26.469  10.274   4.181
85827W        W47281  32.069  39.398   0.748
85828W        W47282  25.609   2.929  10.026
85829W        W47283  24.117  16.128  14.990
85830W        W47284  19.761   7.762  10.926
85831W        W47285   5.366   3.842  13.382
85832W        W47286   6.204  10.636  12.919
85833W        W47287   4.208  25.108   0.771
85834W        W47288   9.814   9.688  11.042
85835W        W47289  34.503  32.967   4.201
85836W        W47290   0.281  11.206   4.132
85837W        W47291   0.946  24.201   1.243
85838W        W47292  11.336  44.887   0.810
85839W        W47293   8.797  24.522   2.857
85840W        W47294  36.073  38.059   3.835
85841W        W47295  22.025  12.772   0.385
85842W        W47296  27.678  40.356  12.949
85843W        W47297  24.136   9.254   4.261
85844W        W47298   5.242  39.890   0.375
85845W        W47299  19.777  18.687  13.978
85846W        W47300  42.456   7.244   4.729
85847W        W47301   2.857  36.392  10.473
85848W        W47302   3.420  23.019   0.923
85849W        W47303   4.372  27.977  14.003
85850W        W47304  29.977  38.446  13.454
85851W        W47305  26.574  21.688   2.402
85852W        W47306  28.112   0.335   2.675
85853W        W47307  33.943  42.452  13.476
85854W        W47308  25.546  18.631   1.451
85855W        W47309  21.608  17.198   2.395
85856W        W47310  21.141  15.647  12.548
85857W        W47311  28.946  24.046  10.524
85858W        W47312  26.129   1.270  10.501
85859W        W47313  24.122  19.266  11.980
85860W        W47314  44.925  38.400   1.802
85861W        W47315  22.682  27.550   3.807
85862W        W47316   0.825  23.041   3.234
85863W        W47317  41.507   5.311   2.331
85864W        W47318  18.577  11.251  12.828
85865W        W47319  36.540  32.109  10.051
85866W        W47320  27.014   0.885   1.875
85867W        W47321   5.261  30.148   2.180
85868W        W47322  14.197  22.590   2.296
85869W        W47323   1.846  32.476  14.770
85870W        W47324  13.672   0.350   4.281
85871W        W47325  28.475  26.666  13.824
85872W        W47326   3.949   5.784   0.756
85873W        W47327  10.301   1.434   4.335
85874W        W47328  18.192  22.688   4.675
85875W        W47329   2.455  41.480   4.224
85876W        W47330  13.720   8.769   5.090
85877W        W47331  23.611  31.059   0.905
85878W        W47332  31.137  16.259  13.461
85879W        W47333  25.607  29.167  14.768
85880W        W47334  17.601  24.081  12.073
85881W        W47335   9.273   9.196   3.771
85882W        W47336  30.565   0.887  14.341
85883W        W47337  39.932   2.754   4.269
85884W        W47338  36.424  26.039  13.519
85885W        W47339  12.690  33.920  11.942
85886W        W47340  15.700  25.025   0.863
85887W        W47341  33.889   4.880  13.933
85888W        W47342   9.275  14.628  14.800
85889W        W47343  14.781  15.135  14.759
85890W        W47344  42.392  35.431   3.216
85891W        W47345  25.568   1.798  12.575
85892W        W47346  33.960  22.669  10.614
85893W        W47347  31.600  27.686   0.856
85894W        W47348  27.552   3.873  12.082
85895W        W47349  38.404  38.376  11.422
85896W        W47350  10.860  10.197  10.458
85897W        W47351   5.259  20.544  11.535
85898W        W47352  13.825  39.527  12.382
85899W        W47353  16.760  41.880  11.551
85900W        W47354  10.670  27.486  11.079
85901W        W47355  27.647   0.403  12.423
85902W        W47356  32.961  25.992  12.357
85903W        W47357  13.782  41.334  11.484
85904W        W47358  21.160  21.157  12.347
85905W        W47359  13.637  31.521   0.924
85906W        W47360  17.699  42.829  11.032
85907W        W47361  35.958  32.570   3.173
85908W        W47362  41.948  11.715   1.314
85909W        W47363  11.841  29.651  11.913
85910W        W47364  19.699  43.899  11.970
85911W        W47365  11.349   8.666  10.554
85912W        W47366  15.585   8.342   3.776
85913W        W47367  10.266   0.363  13.813
85914W        W47368   1.952   1.908  11.517
85915W        W47369  19.253  23.618   0.824
85916W        W47370  43.794  15.277   4.221
85917W        W47371  41.969  38.498   4.765
85918W        W47372   7.812  14.137   0.383
85919W        W47373  31.609   7.731   0.942
85920W        W47374  40.910  32.453   4.706
85921W        W47375  28.527  14.699   0.294
85922W        W47376  12.729  26.652   1.763
85923W        W47377   6.855  35.596  14.004
85924W        W47378  26.665   7.351  12.859
85925W        W47379   0.301  17.760  14.025
85926W        W47380   1.365  36.532  14.030
85927W        W47381  22.679  14.746  10.643
85928W        W47382  16.626  17.676   1.826
85929W        W47383  11.760  43.765   1.739
85930W        W47384  16.722  29.112  13.446
85931W        W47385   5.786  11.849   2.867
85932W        W47386  35.375  17.258   4.764
85933W        W47387  32.041  38.444  12.568
85934W        W47388  11.848  27.552  11.492
85935W        W47389  10.374  31.086  11.921
85936W        W47390   0.401  39.543   0.953
85937W        W47391  38.474  44.010   3.174
85938W        W47392  10.832   2.356  12.025
85939W        W47393   7.226  36.496  14.314
85940W        W47394  22.127  24.059   2.831
85941W        W47395   5.790  43.012  14.028
85942W        W47396   3.235  33.107  13.900
85943W        W47397   5.893  21.629   0.341
85944W        W47398  42.475  27.495  13.009
85945W        W47399  13.111  18.196  13.944
85946W        W47400  16.146  44.384  10.912
85947W        W47401   4.245   4.428  11.495
85948W        W47402  41.407  39.420   9.449
85949W        W47403  26.702  30.485  11.532
85950W        W47404  31.594   0.377   4.263
85951W        W47405  36.561   2.381   4.128
85952W        W47406   8.857  33.587   0.337
85953W        W47407  39.372  33.876  10.620
85954W        W47408  41.939  33.956  13.950
85955W        W47409  43.324  30.421   0.867
85956W        W47410  23.017   5.696   3.772
85957W        W47411  19.553  19.162  12.073
85958W        W47412  30.639   4.864   2.362
85959W        W47413  19.211  10.146   0.728
85960W        W47414   4.879   1.831   3.649
85961W        W47415  31.544  40.894  14.394
85962W        W47416  32.432  24.513  13.014
85963W        W47417  14.775  27.178   3.259
85964W        W47418  16.093  20.573   3.679
85965W        W47419   7.341  35.065   1.394
85966W        W47420  26.097   7.326   1.870
85967W        W47421  26.965  43.844  13.042
85968W        W47422  39.840  44.798  11.480
85969W        W47423  18.586  37.836   4.207
85970W        W47424  24.089  12.817  14.368
85971W        W47425   6.423  12.337  10.454
85972W        W47426  44.299  27.569   0.462
85973W        W47427  17.082   1.738  13.020
85974W        W47428  37.521  37.516   0.908
85975W        W47429  27.458  43.798   3.866
85976W        W47430  20.211  23.010   0.803
85977W        W47431  12.178   3.881   4.288
85978W        W47432  37.474  24.176  11.071
85979W        W47433   6.288  37.377   3.760
85980W        W47434  25.546  37.991   1.391
85981W        W47435  43.778   5.879   4.283
85982W        W47436  39.822  41.443   1.259
85983W        W47437   2.936  34.456  14.994
85984W        W47438  25.547  31.934   0.387
85985W        W47439  31.999  20.227   3.354
85986W        W47440   3.256  42.851   4.158
85987W        W47441  13.838   6.259  14.942
85988W        W47442  19.680  27.045   3.185
85989W        W47443   8.657  13.266   4.774
85990W        W47444  25.697  41.958  10.958
85991W        W47445  12.768  33.563  10.424
85992W        W47446  22.630  36.431   3.832
85993W        W47447  40.341   6.722   0.301
85994W        W47448  28.962  30.101  10.563
85995W        W47449  30.566  38.976   2.816
85996W        W47450   9.261  24.026  11.968
85997W        W47451  22.063  26.050   4.748
85998W        W47452  16.747   4.851  11.094
85999W        W47453  33.009  29.017  11.489
86000W        W47454  27.123  27.187   0.253
86001W        W47455  41.506   2.762   3.327
86002W        W47456  19.557  13.294   4.799
86003W        W47457  37.430  16.236   0.353
86004W        W47458  12.720   9.249   1.767
86005W        W47459  15.820  41.442   1.769
86006W        W47460  44.281  18.600   1.738
86007W        W47461  22.016   4.700   1.301
86008W        W47462  38.537  44.819  14.815
86009W        W47463  25.500  36.449   2.345
86010W        W47464  23.632  10.297  13.425
86011W        W47465  16.608  29.608   0.244
86012W        W47466   4.812  10.786   3.166
86013W        W47467  42.416  20.585   4.710
86014W        W47468  35.043  23.668  10.893
86015W        W47469  17.081  37.356  12.500
86016W        W47470  44.496  25.626   1.816
86017W        W47471  19.579   0.944   3.249
86018W        W47472  22.565   5.715   1.724
86019W        W47473  37.849  38.046   0.296
86020W        W47474   6.891  30.468   2.288
86021W        W47475  12.285   9.693   3.672
86022W        W47476  19.215  14.670   9.935
86023W        W47477   2.342   7.842  11.128
86024W        W47478  30.932   7.825  10.993
86025W        W47479  20.201  12.839   2.239
86026W        W47480   6.324  10.334   3.685
86027W        W47481  36.352   3.837  10.599
86028W        W47482  35.390  12.356  12.553
86029W        W47483  10.841  15.713  14.001
86030W        W47484  27.193  42.850  10.588
86031W        W47485   2.428  34.428  10.596
86032W        W47486  41.364   3.723  12.373
86033W        W47487  43.343  43.272   3.158
86034W        W47488  20.608  33.885   3.215
86035W        W47489   8.870  18.780   3.167
86036W        W47490   4.354  27.169   3.793
86037W        W47491   7.838  30.032   0.731
86038W        W47492   1.875  19.222  10.491
86039W        W47493  30.964  15.129  12.404
86040W        W47494  29.018  37.963   2.349
86041W        W47495  25.005  31.072  12.966
86042W        W47496   5.220  19.252   1.409
86043W        W47497   9.296  33.544   4.683
86044W        W47498   0.370  44.378   1.332
86045W        W47499  10.868  34.415  13.953
86046W        W47500  12.638  18.586   1.349
86047W        W47501  41.026  35.046  12.914
86048W        W47502   4.713  44.837   1.909
86049W        W47503  26.466  15.648  14.026
86050W        W47504  28.046   6.345   1.881
86051W        W47505  11.361  29.134  11.897
86052W        W47506  14.799  43.884  10.440
86053W        W47507  17.662   3.846   0.402
86054W        W47508  13.285  30.980   4.291
86055W        W47509  43.361  39.905  10.537
86056W        W47510  42.969  43.384   1.292
86057W        W47511  28.559  37.436   3.714
86058W        W47512  40.430  23.573   4.824
86059W        W47513   2.898  17.232  11.473
86060W        W47514  42.313  26.632  11.413
86061W        W47515   8.294   6.810  10.964
86062W        W47516  16.591   8.247  11.500
86063W        W47517  10.665  15.602   1.809
86064W        W47518  23.154  17.219   0.845
86065W        W47519  26.066  10.239   0.858
86066W        W47520  14.116  23.030   4.694
86067W        W47521  42.491  36.443  12.413
86068W        W47522  12.327  23.118  13.484
86069W        W47523   2.865  36.085  10.607
86070W        W47524   6.248  10.192   2.244
86071W        W47525  18.785   0.420   1.852
86072W        W47526   2.284  20.140   4.305
86073W        W47527  33.584  11.813   2.903
86074W        W47528  27.685   7.393   4.275
86075W        W47529  25.184   3.836  10.991
86076W        W47530   8.255   9.881  13.827
86077W        W47531  34.074  39.494   2.867
86078W        W47532  16.649  31.900  11.106
86079W        W47533   0.314  30.009  11.035
86080W        W47534  34.889   3.434  10.490
86081W        W47535  27.549  11.280  10.483
86082W        W47536   8.305  13.186  11.463
86083W        W47537   5.292  31.119   3.635
86084W        W47538  16.264   5.350  12.353
86085W        W47539  10.221  14.766   3.737
86086W        W47540   8.858  26.171   3.859
86087W        W47541   3.749  29.503   2.670
86088W        W47542  13.733  24.218  12.468
86089W        W47543  14.171  41.993  10.422
86090W        W47544  18.053  16.576  11.585
86091W        W47545  22.181   4.346   4.287
86092W        W47546  24.076  34.053  14.867
86093W        W47547  12.655  36.040  11.982
86094W        W47548  35.044  30.415  10.133
86095W        W47549  22.132  25.088   4.597
86096W        W47550  12.695  17.093   0.847
86097W        W47551   4.290  42.386  12.379
86098W        W47552  41.488  44.496  13.539
86099W        W47553  39.374   3.411  14.394
86100W        W47554  28.157  31.499   0.761
86101W        W47555   9.831  41.366   0.731
86102W        W47556  24.162  39.365  13.905
86103W        W47557  27.552  37.408   2.700
86104W        W47558  31.610  23.692  11.928
86105W        W47559  14.622  33.951   1.765
86106W        W47560  12.281  36.399   3.303
86107W        W47561  31.046  10.693   2.776
86108W        W47562  32.412   5.328  14.782
86109W        W47563   6.236  16.614   4.336
86110W        W47564   3.862  44.983  13.019
86111W        W47565  29.499   0.312  10.405
86112W        W47566  44.007  34.570   4.761
86113W        W47567   0.299  32.429   3.789
86114W        W47568   5.707  35.943  10.598
86115W        W47569   9.813  10.238  13.819
86116W        W47570  14.685  10.172   4.799
86117W        W47571   2.351  36.485   0.741
86118W        W47572   6.872  39.982  11.386
86119W        W47573  19.102  16.121  10.976
86120W        W47574  42.498  37.955   0.733
86121W        W47575   9.687  11.685   3.167
86122W        W47576  19.767  41.385   4.716
86123W        W47577  40.967  32.005   3.150
86124W        W47578  24.003  18.269   4.119
86125W        W47579  21.556   3.272  13.490
86126W        W47580  44.907  35.051  11.400
86127W        W47581  15.597   5.309  11.939
86128W        W47582  30.634  43.510  13.798
86129W        W47583  38.547  36.922   0.907
86130W        W47584  24.028  43.997  14.460
86131W        W47585   5.405  20.556   1.384
86132W        W47586  33.386  17.713   2.824
86133W        W47587  22.533  12.143  11.008
86134W        W47588  39.907   1.932   4.224
86135W        W47589  39.051  10.167   1.835
86136W        W47590  35.384   3.952   4.274
86137W        W47591  21.162  32.923   1.886
86138W        W47592  35.463  25.532   3.818
86139W        W47593   5.736  38.874   1.885
86140W        W47594   7.201  44.781   2.286
86141W        W47595  15.752  40.813   1.816
86142W        W47596  35.910   9.691  13.019
86143W        W47597  31.009  22.058   0.790
86144W        W47598  10.335  10.376  12.984
86145W        W47599  41.506  10.219  14.306
86146W        W47600  16.568  10.772  13.497
86147W        W47601  28.451  15.697   3.825
86148W        W47602  44.416  28.640   1.311
86149W        W47603   0.950   7.903  12.032
86150W        W47604  26.987  31.526   3.181
86151W        W47605  18.773  18.728  12.090
86152W        W47606  31.964  11.720   4.238
86153W        W47607  11.624  22.122   2.290
86154W        W47608   0.928  43.976  13.894
86155W        W47609   2.421  22.706  10.523
86156W        W47610  33.406  36.842   3.856
86157W        W47611  38.955  19.623   4.265
86158W        W47612  30.499  33.964  12.546
86159W        W47613  38.064   8.711   1.718
86160W        W47614   9.245  42.315  13.310
86161W        W47615   6.687  44.362  13.488
86162W        W47616  34.089  37.486   4.666
86163W        W47617  11.797   2.816  12.514
86164W        W47618  38.468  26.474  10.573
86165W        W47619  17.297  20.664  13.399
86166W        W47620  27.084  20.721  12.824
86167W        W47621  28.496  42.313  11.119
86168W        W47622  44.442  40.806   3.225
86169W        W47623  15.123  15.671  13.498
86170W        W47624  13.339  32.409  11.947
86171W        W47625  39.433  36.575   4.660
86172W        W47626  19.648  44.353  12.844
86173W        W47627  41.878  41.879  13.496
86174W        W47628  18.754  29.548   0.765
86175W        W47629  37.943   7.794  10.913
86176W        W47630  42.293  36.910  13.386
86177W        W47631  29.558  16.178   1.415
86178W        W47632   9.721   0.761  13.320
86179W        W47633  42.016  19.744  13.903
86180W        W47634   8.899   5.197   1.407
86181W        W47635  18.659  26.544  11.374
86182W        W47636  37.441  13.622  11.537
86183W        W47637  35.461   9.758   1.421
86184W        W47638   4.355   5.386   1.723
86185W        W47639  20.668   3.231   2.227
86186W        W47640  42.853  38.944  10.406
86187W        W47641  18.606  28.000   0.736
86188W        W47642  43.283  20.540  12.426
86189W        W47643   4.716  14.646   2.192
86190W        W47644  31.917  20.272   1.284
86191W        W47645  36.378  19.259   1.362
86192W        W47646  19.114  27.072   2.260
86193W        W47647  24.573  39.375   2.410
86194W        W47648  13.784   5.827   3.681
86195W        W47649  41.938  26.965  13.366
86196W        W47650  14.153  15.293  13.971
86197W        W47651  20.167  12.706   2.682
86198W        W47652  12.231  22.656   4.144
86199W        W47653  31.479  30.611   3.162
86200W        W47654  20.127  13.651   1.810
86201W        W47655  35.513  10.284   0.957
86202W        W47656  19.087  13.822  13.800
86203W        W47657   1.286  10.286  11.043
86204W        W47658  12.174  42.388   2.887
86205W        W47659  16.135   9.732   2.234
86206W        W47660  20.037  15.185   0.306
86207W        W47661  15.201  13.731   4.603
86208W        W47662  32.469  10.238   1.383
86209W        W47663   5.392  19.757   2.326
86210W        W47664  19.703  10.342  12.064
86211W        W47665   1.450  34.531   0.312
86212W        W47666  20.238   3.327  14.918
86213W        W47667   0.835   8.766  10.569
86214W        W47668  16.695   6.281  12.936
86215W        W47669   3.757   8.660  12.383
86216W        W47670  39.491  31.925   1.804
86217W        W47671  21.753  26.543  11.437
86218W        W47672   5.927  35.369   0.967
86219W        W47673  41.455  25.526   0.322
86220W        W47674  32.958  27.949  10.607
86221W        W47675  26.553  12.319  11.922
86222W        W47676  34.431  41.935  13.801
86223W        W47677  42.360  15.808   0.898
86224W        W47678  37.037   4.257   4.325
86225W        W47679  11.235  26.542   3.703
86226W        W47680  14.754  27.468  13.393
86227W        W47681  37.917  12.709  14.388
86228W        W47682  30.525   3.350  14.340
86229W        W47683  33.493   8.204  12.382
86230W        W47684  20.556  36.432  12.041
86231W        W47685  13.267  12.138  14.859
86232W        W47686  29.004  38.047  14.992
86233W        W47687  40.918   5.830  11.121
86234W        W47688  32.416  41.359  14.879
86235W        W47689   1.276  23.134   0.828
86236W        W47690  20.765  32.399   3.285
86237W        W47691   0.959  31.597   1.730
86238W        W47692   6.757  16.082   4.837
86239W        W47693   3.794  26.465   1.831
86240W        W47694  41.487   8.831   0.406
86241W        W47695  32.901  35.083  10.927
86242W        W47696  26.968  37.833   2.770
86243W        W47697  19.574  23.034  11.587
86244W        W47698  23.047  14.703   4.168
86245W        W47699  24.139   4.927   0.303
86246W        W47700  36.938  29.429  13.951
86247W        W47701   1.839  10.365  12.360
86248W        W47702   7.839   1.442  10.549
86249W        W47703  31.152  43.801  13.808
86250W        W47704  27.512  43.019   2.369
86251W        W47705   9.659  32.604  13.926
86252W        W47706   5.902  28.578  12.881
86253W        W47707  25.645  25.167   3.807
86254W        W47708  41.400  21.206  11.503
86255W        W47709  39.422   0.424  14.988
86256W        W47710  27.687  32.618   1.815
86257W        W47711  44.457  10.203   0.376
86258W        W47712  27.581   3.252  13.405
86259W        W47713  36.524  32.419   4.218
86260W        W47714  13.642   4.294   0.964
86261W        W47715   4.923  33.094  13.413
86262W        W47716  21.056  37.879  10.431
86263W        W47717  40.930  39.429  11.996
86264W        W47718   4.283  34.525  12.058
86265W        W47719   0.833   7.339   0.915
86266W        W47720  28.443   7.403   0.254
86267W        W47721  40.991  37.945   2.409
86268W        W47722  27.596  27.642   1.718
86269W        W47723  27.176   4.931   3.739
86270W        W47724  15.701  38.467  13.930
86271W        W47725  19.090  24.488   4.163
86272W        W47726  15.140  23.087   0.728
86273W        W47727  14.614  11.709  12.865
86274W        W47728   3.344  19.637   2.382
86275W        W47729  39.907  37.555   1.874
86276W        W47730  22.018  32.885  11.122
86277W        W47731  15.184  33.124   1.815
86278W        W47732   8.341   1.383  13.537
86279W        W47733  38.949  15.745  11.967
86280W        W47734  23.602  25.513   3.348
86281W        W47735  44.818  39.471   0.369
86282W        W47736  15.640  16.222  12.499
86283W        W47737   0.794  36.459  14.467
86284W        W47738  42.881  25.524   2.835
86285W        W47739  22.174  18.613  11.078
86286W        W47740  11.279  35.985   2.335
86287W        W47741  39.999  11.343   2.387
86288W        W47742   5.241  41.801  12.579
86289W        W47743  21.512  15.705   5.289
86290W        W47744  37.880  21.134  12.959
86291W        W47745  24.635  32.543  10.475
86292W        W47746   4.298  36.918   2.320
86293W        W47747  20.610  22.114   2.319
86294W        W47748  13.820  18.223   4.714
86295W        W47749  39.996  14.298  10.544
86296W        W47750  20.638  17.748  14.312
86297W        W47751  15.304   8.831  10.448
86298W        W47752  38.001  44.384  14.966
86299W        W47753  19.113   7.344   0.442
86300W        W47754  13.734  44.001  10.462
86301W        W47755  41.446  38.014   2.742
86302W        W47756  35.940  27.480   2.234
86303W        W47757  12.312  23.051   0.936
86304W        W47758   6.397  16.807   1.767
86305W        W47759  19.146  32.968  11.096
86306W        W47760  10.763   0.295   0.738
86307W        W47761  35.452   5.754   1.719
86308W        W47762  31.064   3.254   0.913
86309W        W47763   8.216   6.287   4.775
86310W        W47764  16.192  41.924  10.592
86311W        W47765  17.626   3.235   1.782
86312W        W47766   8.778  28.560   4.641
86313W        W47767  38.975  14.649   2.702
86314W        W47768  11.711   8.263  14.865
86315W        W47769  17.180  30.011   4.294
86316W        W47770  36.065  36.025   1.917
86317W        W47771   2.810  42.291   2.873
86318W        W47772  42.932  24.230   2.246
86319W        W47773  11.143  38.477   4.348
86320W        W47774  27.496  42.816   3.748
86321W        W47775  26.184  36.917  12.356
86322W        W47776   0.367   6.183  14.795
86323W        W47777  36.448  15.692  10.416
86324W        W47778  18.296  25.666  11.951
86325W        W47779  31.910  30.073  14.497
86326W        W47780  30.506  40.864   2.800
86327W        W47781  18.262  28.123  13.869
86328W        W47782  40.350  29.157  12.494
86329W        W47783  32.003  27.987   0.244
86330W        W47784  33.420  24.002  11.066
86331W        W47785  20.121  39.314   2.763
86332W        W47786  17.731   9.196  13.938
86333W        W47787  28.044  12.334   4.274
86334W        W47788  31.503   6.293   1.239
86335W        W47789  35.933  44.966  12.084
86336W        W47790  38.391   8.738   1.782
86337W        W47791  10.263   6.273   3.166
86338W        W47792   1.918  10.777  13.937
86339W        W47793   9.818  14.155   4.640
86340W        W47794  11.142  11.741   4.809
86341W        W47795  38.855  40.391   1.732
86342W        W47796  36.535  18.575   0.445
86343W        W47797  15.764   0.311  14.760
86344W        W47798  23.019  21.056   2.327
86345W        W47799   1.330  38.055  11.605
86346W        W47800  36.493  41.925  13.857
86347W        W47801  37.858  30.056   1.746
86348W        W47802  27.953  42.796  14.472
86349W        W47803  34.548  40.004   4.294
86350W        W47804  24.069  39.416   4.753
86351W        W47805   5.893  17.286   4.834
86352W        W47806  33.948   1.897   0.355
86353W        W47807  31.470  12.781  13.927
86354W        W47808   9.319  24.520  13.992
86355W        W47809   5.816  44.813  11.093
86356W        W47810  15.626   4.399  13.540
86357W        W47811   0.331  13.843   1.822
86358W        W47812  21.614  24.584  10.534
86359W        W47813   3.223  35.890  13.330
86360W        W47814  25.158   9.149  12.414
86361W        W47815   0.781  32.044  11.411
86362W        W47816  34.975  30.628  14.283
86363W        W47817  15.268  13.198  13.357
86364W        W47818  28.675   6.271   0.841
86365W        W47819  25.515  34.583   5.213
86366W        W47820  14.309  11.660   2.757
86367W        W47821  31.474  43.802  13.507
86368W        W47822  22.596  20.169   2.785
86369W        W47823  18.264   4.803  13.861
86370W        W47824  14.231   2.376   2.256
86371W        W47825   2.862  27.016   1.443
86372W        W47826   6.413   2.785  14.408
86373W        W47827   4.807  41.900   0.277
86374W        W47828  22.594  16.219  11.034
86375W        W47829  16.236  40.007   0.331
86376W        W47830  15.776  32.577   5.085
86377W        W47831   6.793  34.955   2.696
86378W        W47832  38.013  36.875   1.801
86379W        W47833  40.985  33.459  10.487
86380W        W47834  42.434  29.001  11.084
86381W        W47835  24.194  34.503  10.421
86382W        W47836  24.001  34.030   0.411
86383W        W47837  44.366  19.196   2.264
86384W        W47838  22.221   4.701   3.219
86385W        W47839  18.617  22.744   2.202
86386W        W47840  19.267  31.110   3.727
86387W        W47841  42.943   2.444  13.980
86388W        W47842  25.642  42.442  11.609
86389W        W47843   5.215   1.840   0.355
86390W        W47844  43.900  18.281  10.630
86391W        W47845  28.155  20.703   1.843
86392W        W47846  10.741  19.073   2.688
86393W        W47847  25.662  38.828   3.157
86394W        W47848  33.876  36.504  13.889
86395W        W47849  18.191  29.475  14.809
86396W        W47850   6.868  18.616   4.347
86397W        W47851  28.651  33.901   3.640
86398W        W47852  38.009  25.182  14.000
86399W        W47853  40.026  12.754   2.808
86400W        W47854  14.284  12.839   2.862
86401W        W47855   6.841   1.844  12.385
86402W        W47856  35.528   8.255   0.966
86403W        W47857  41.822  19.647  12.014
86404W        W47858   7.357  21.581   3.766
86405W        W47859   9.731   6.829   0.401
86406W        W47860  27.445  42.936  10.497
86407W        W47861   2.227   2.766  14.884
86408W        W47862  11.195  33.545   4.599
86409W        W47863   1.439  35.951  11.476
86410W        W47864  39.859   7.304   1.246
86411W        W47865  32.100   4.246   0.354
86412W        W47866  37.850   5.434  12.368
86413W        W47867  22.554  22.716  14.017
86414W        W47868  19.611  33.878   4.337
86415W        W47869  42.807  42.978   0.963
86416W        W47870   4.869  17.585   0.843
86417W        W47871  12.284  19.104   3.219
86418W        W47872  40.528  26.027   2.788
86419W        W47873  29.644  44.932   4.313
86420W        W47874  31.431   1.441   3.657
86421W        W47875  22.175  40.310  10.546
86422W        W47876  44.323  34.025  13.003
86423W        W47877  30.467  25.012  12.499
86424W        W47878  16.214  32.413   0.775
86425W        W47879  16.203  20.130   2.351
86426W        W47880  39.549  11.185  12.062
86427W        W47881  18.571  13.300   2.787
86428W        W47882  18.603  22.586   1.437
86429W        W47883   2.782   2.721   1.759
86430W        W47884  17.301  30.058   2.757
86431W        W47885  30.957   4.380   1.775
86432W        W47886  24.146  10.724  12.886
86433W        W47887  32.487   8.773  11.940
86434W        W47888  26.109   5.756  12.934
86435W        W47889   8.797  24.172   0.262
86436W        W47890  23.674   8.807  12.857
86437W        W47891  38.844  30.638   9.956
86438W        W47892   2.910  15.112  10.448
86439W        W47893  23.506  38.423   2.270
86440W        W47894  14.748  24.128   0.404
86441W        W47895   4.767   0.380  14.381
86442W        W47896  13.633  43.456   4.666
86443W        W47897  17.278  22.101   1.850
86444W        W47898  32.481  10.214  12.442
86445W        W47899   9.721   7.714  14.438
86446W        W47900  15.148  26.607   1.290
86447W        W47901   4.881  17.672   2.868
86448W        W47902  38.431   2.763   4.811
86449W        W47903  28.516  39.025   2.854
86450W        W47904  43.996  43.820   3.787
86451W        W47905  27.141   3.792  13.993
86452W        W47906  27.469   0.261  13.492
86453W        W47907  31.150  33.933   3.863
86454W        W47908   3.794  42.895   2.407
86455W        W47909   3.252  32.992   0.870
86456W        W47910  20.650   7.400   1.427
86457W        W47911  23.676  27.949  12.358
86458W        W47912   5.707  10.676  11.444
86459W        W47913   9.322  16.178   0.404
86460W        W47914  30.524  18.659   3.803
86461W        W47915  30.914   7.363   4.247
86462W        W47916  29.971  23.022  14.339
86463W        W47917  42.388   8.655  12.538
86464W        W47918  41.877   5.852  10.434
86465W        W47919  12.333  38.998   3.714
86466W        W47920   1.930   2.357   1.793
86467W        W47921  27.083  23.190   3.275
86468W        W47922  33.113  41.904   0.736
86469W        W47923  33.413   3.333  10.046
86470W        W47924  31.642  10.279  12.405
86471W        W47925  28.663   4.786  14.477
86472W        W47926  33.969  11.219  11.430
86473W        W47927  16.267  15.163   0.473
86474W        W47928  20.267  39.866  13.432
86475W        W47929   1.968  27.544  11.885
86476W        W47930  24.170  14.744   1.344
86477W        W47931  12.660  26.034  11.932
86478W        W47932  38.434  34.909   4.300
86479W        W47933  33.517  23.989  13.997
86480W        W47934   4.362  19.604  13.027
86481W        W47935  17.565  30.577   3.670
86482W        W47936  32.403  37.923   1.294
86483W        W47937  16.091  29.491  14.499
86484W        W47938  12.723   7.733   0.877
86485W        W47939  19.087  16.781  11.919
86486W        W47940   9.725  25.689  11.428
86487W        W47941   9.188  42.303  12.054
86488W        W47942  40.819  30.122   3.652
86489W        W47943   4.370   7.909  11.399
86490W        W47944  12.208  21.696   0.329
86491W        W47945  36.396  34.069   0.803
86492W        W47946  25.089  12.354  13.028
86493W        W47947  44.260   5.832   0.480
86494W        W47948  37.469   9.356  13.329
86495W        W47949   5.904  28.616   4.731
86496W        W47950  13.257  30.483   1.326
86497W        W47951  11.846  13.754   2.267
86498W        W47952  36.586  14.281   2.721
86499W        W47953   9.873  35.543   9.652
86500W        W47954  13.199  28.069  14.279
86501W        W47955   7.823  21.743   1.836
86502W        W47956  39.511   8.238   2.670
86503W        W47957  13.182   8.171  12.538
86504W        W47958  22.723  23.103  10.095
86505W        W47959   5.194  16.072  10.496
86506W        W47960  18.195   4.719   3.747
86507W        W47961  35.573  33.893   0.334
86508W        W47962   1.324  42.509  13.971
86509W        W47963   1.834  31.086  11.118
86510W        W47964  25.053  21.215   5.284
86511W        W47965  31.461   1.444   0.284
86512W        W47966  17.675  42.792   4.741
86513W        W47967   0.974  36.452  10.606
86514W        W47968  35.050  25.579  13.504
86515W        W47969  37.430  26.092   3.376
86516W        W47970  24.628  31.943  11.593
86517W        W47971  26.618  24.131   2.181
86518W        W47972  10.757  15.636  13.063
86519W        W47973  21.630  23.681  13.052
86520W        W47974  44.263  25.081  10.085
86521W        W47975   4.353  41.347   4.122
86522W        W47976   6.704  32.458  14.461
86523W        W47977  38.972   3.298   0.806
86524W        W47978  41.523  39.334   4.808
86525W        W47979  44.986  15.250   0.812
86526W        W47980  31.086  11.739   5.098
86527W        W47981  12.849  30.456  11.004
86528W        W47982   5.783  10.267  12.023
86529W        W47983  40.852  38.472   0.851
86530W        W47984  12.714  10.325  14.785
86531W        W47985  31.566   8.309   4.756
86532W        W47986  43.492  24.033  13.898
86533W        W47987   1.261  26.558   0.738
86534W        W47988   4.420  29.546  13.474
86535W        W47989  15.147  32.504  13.361
86536W        W47990  25.583  29.944  14.939
86537W        W47991  36.987  27.955   2.754
86538W        W47992  11.824  15.705  11.395
86539W        W47993   0.386  12.699   0.862
86540W        W47994  44.861   4.326   3.731
86541W        W47995   6.402  34.919  12.359
86542W        W47996  41.331  28.488   2.392
86543W        W47997   6.754  11.745   2.725
86544W        W47998  10.812  13.832  12.558
86545W        W47999  35.430   4.773   2.739
86546W        W48000  38.903  32.088   5.235
86547W        W48001   3.864  30.475  13.490
86548W        W48002  17.793  39.904  14.945
86549W        W48003   2.879  42.867  12.848
86550W        W48004   3.798  12.300   0.934
86551W        W48005  25.010  29.964   4.670
86552W        W48006  30.029  16.172  13.935
86553W        W48007   4.926  19.613   1.796
86554W        W48008  31.511  24.220   0.339
86555W        W48009  13.299  16.162  11.988
86556W        W48010   7.712  41.854   2.694
86557W        W48011   3.934  33.437   0.910
86558W        W48012  27.649   8.213   4.190
86559W        W48013  42.974  33.618  14.997
86560W        W48014  37.411  27.002   0.741
86561W        W48015  20.713  39.351  10.553
86562W        W48016  30.046  18.050   2.229
86563W        W48017  23.225  34.518   4.707
86564W        W48018  43.843   1.382   4.223
86565W        W48019  38.391  32.896  11.476
86566W        W48020  10.760  29.108   1.913
86567W        W48021  44.368   3.459  11.492
86568W        W48022  32.937  21.661   4.200
86569W        W48023  12.296  29.670   4.351
86570W        W48024  27.486  43.448  12.835
86571W        W48025  18.569  32.395  12.470
86572W        W48026  43.961  36.892   4.231
86573W        W48027  43.943   5.291  10.977
86574W        W48028  22.575  27.499   3.217
86575W        W48029  27.542  26.079  12.402
86576W        W48030  13.831  15.778   4.772
86577W        W48031  24.588  39.062   1.824
86578W        W48032  39.053   0.777   0.442
86579W        W48033  32.096  29.976  12.015
86580W        W48034  43.297   7.180  12.072
86581W        W48035  22.083  32.503   3.844
86582W        W48036  34.006  23.014  11.609
86583W        W48037   0.350  13.782  11.587
86584W        W48038   5.889  10.673   3.855
86585W        W48039  24.652  36.893   0.456
86586W        W48040  28.651   6.186  11.986
86587W        W48041  30.502  38.930   2.393
86588W        W48042  43.387   1.917   4.191
86589W        W48043   8.224  35.414  12.403
86590W        W48044  23.140  40.812  13.831
86591W        W48045  35.455  23.199   4.612
86592W        W48046  33.432   2.857   1.256
86593W        W48047  38.994  42.357   3.321
86594W        W48048   6.360  30.539   4.669
86595W        W48049  41.531  40.343  11.521
86596W        W48050  21.168  37.055   4.139
86597W        W48051  12.715   4.392   2.411
86598W        W48052  27.556   7.414  13.361
86599W        W48053  38.048  44.400  12.347
86600W        W48054   9.688   3.394  13.324
86601W        W48055  33.617  13.332  12.507
86602W        W48056  37.955  31.136   2.707
86603W        W48057  27.054  26.573   3.328
86604W        W48058  14.338  44.879  14.379
86605W        W48059   8.400  11.276  10.471
86606W        W48060  32.557   9.324  10.471
86607W        W48061  10.831  33.930  10.465
86608W        W48062   6.912  33.456  12.551
86609W        W48063  43.772  33.459   1.820
86610W        W48064   1.970  23.545  13.008
86611W        W48065   6.692  37.035   1.912
86612W        W48066   6.411   7.816  12.361
86613W        W48067   6.226  23.649   9.938
86614W        W48068  18.605   7.240  10.598
86615W        W48069  33.543  12.348  13.479
86616W        W48070  20.129   9.386   1.416
86617W        W48071  40.513  36.074  10.921
86618W        W48072   0.455   1.901  12.359
86619W        W48073   7.277  16.305   0.957
86620W        W48074  13.107  11.352  12.462
86621W        W48075  28.946  39.381   1.262
86622W        W48076  23.100   4.888   4.117
86623W        W48077  35.390  30.995   4.752
86624W        W48078  28.471   9.248   1.921
86625W        W48079  40.016   5.373   4.616
86626W        W48080  24.066   4.291  12.471
86627W        W48081  42.397  35.586   1.894
86628W        W48082   9.234   5.268  14.513
86629W        W48083  36.031  37.349   3.634
86630W        W48084  18.586  44.963  13.411
86631W        W48085   6.291  39.485  11.386
86632W        W48086  33.961  10.144  11.495
86633W        W48087   6.417  35.361   1.336
86634W        W48088  29.979   1.446   9.464
86635W        W48089  38.893  33.062   2.214
86636W        W48090  13.276  11.134   1.226
86637W        W48091  10.858  14.110  13.871
86638W        W48092  29.160  32.413   4.148
86639W        W48093  32.542  21.097  12.062
86640W        W48094  10.724  32.949  14.809
86641W        W48095  31.503   4.745   3.256
86642W        W48096  29.021  26.629  14.029
86643W        W48097  18.141  22.006  13.447
86644W        W48098  23.735   0.417   1.780
86645W        W48099   9.755  25.526   0.305
86646W        W48100  15.620  35.875  10.042
86647W        W48101  28.076   9.158  12.044
86648W        W48102  17.095  13.136  13.317
86649W        W48103  15.699   4.944  10.582
86650W        W48104  26.537  33.618   0.951
86651W        W48105   8.679  26.467   4.811
86652W        W48106   1.288  23.718   1.924
86653W        W48107   9.183  31.129   9.990
86654W        W48108  28.648  28.591   4.348
86655W        W48109  13.722  40.475  11.068
86656W        W48110  11.267  31.404  12.828
86657W        W48111  11.144  36.053   4.239
86658W        W48112  30.554   7.852  13.970
86659W        W48113  34.875  13.142  14.470
86660W        W48114  16.097  38.523  10.978
86661W        W48115  23.623  23.158  12.007
86662W        W48116   5.719  21.537  11.056
86663W        W48117  17.693  14.653  12.387
86664W        W48118  25.568  11.274   4.181
86665W        W48119   5.404  42.282   3.707
86666W        W48120   8.767   2.304  13.396
86667W        W48121   1.406  20.090   0.468
86668W        W48122   4.927  18.594  11.383
86669W        W48123  16.658   0.934   1.780
86670W        W48124  34.882   6.297  13.977
86671W        W48125   5.836  24.160  11.393
86672W        W48126  26.157   1.791  14.431
86673W        W48127  14.824  24.648   4.723
86674W        W48128  26.461  42.938  10.970
86675W        W48129  21.756  42.802   1.705
86676W        W48130  13.256   2.325   4.296
86677W        W48131  44.420  32.478   1.416
86678W        W48132  28.510   3.779  14.403
86679W        W48133  20.249   4.869  12.494
86680W        W48134   7.797   4.389   1.753
86681W        W48135  20.174  40.992  12.388
86682W        W48136  42.809  20.114  14.898
86683W        W48137  41.499  40.906  13.910
86684W        W48138   6.231   4.735   1.368
86685W        W48139  25.122  11.294  14.904
86686W        W48140   8.764  42.899   3.353
86687W        W48141  28.486  17.162  11.478
86688W        W48142  34.029  31.107   1.874
86689W        W48143   5.356  38.348  12.526
86690W        W48144  33.386  11.832  11.868
86691W        W48145  30.081  17.174  13.909
86692W        W48146  20.613  43.340  13.044
86693W        W48147   9.247  20.679  14.320
86694W        W48148  26.689  28.601  14.959
86695W        W48149  26.561  20.592  10.910
86696W        W48150   1.379  32.079   1.716
86697W        W48151  38.955  29.076  10.553
86698W        W48152  11.747   7.880  10.636
86699W        W48153  18.162  11.744   4.144
86700W        W48154  24.226   4.784  11.085
86701W        W48155  42.526  22.094   2.704
86702W        W48156  14.770  23.613  11.063
86703W        W48157  24.017  14.687   2.256
86704W        W48158  24.683  34.497   4.169
86705W        W48159  39.869  26.987  11.907
86706W        W48160  42.876  35.951  14.389
86707W        W48161  18.762  10.876   1.902
86708W        W48162   2.911  31.007   1.723
86709W        W48163  23.715   6.264   3.842
86710W        W48164  38.508  31.104   3.682
86711W        W48165   7.223  33.027  12.895
86712W        W48166   6.229  13.830  13.531
86713W        W48167   7.211   7.249  12.399
86714W        W48168  17.592  10.138   2.882
86715W        W48169  22.131   7.732  13.534
86716W        W48170   1.757  37.457  13.862
86717W        W48171  19.239  32.599   1.418
86718W        W48172  38.065  26.154  12.510
86719W        W48173  37.893  42.845   2.402
86720W        W48174  31.082  33.962  13.826
86721W        W48175  11.159  29.437  11.570
86722W        W48176  13.300  40.427   4.627
86723W        W48177  22.134  42.380   2.726
86724W        W48178  19.707  30.970  12.846
86725W        W48179  29.559  35.002   3.168
86726W        W48180  26.502  15.121  13.832
86727W        W48181  26.636  28.940  14.912
86728W        W48182  27.005  29.458  12.508
86729W        W48183   1.754   0.771   2.274
86730W        W48184  16.747  44.777  13.357
86731W        W48185  36.514   8.741   4.336
86732W        W48186  44.314  38.881   1.351
86733W        W48187  36.946  28.584   3.327
86734W        W48188  23.599  25.162  10.640
86735W        W48189  28.518   6.687   5.186
86736W        W48190   0.960   3.778  11.545
86737W        W48191  11.858   8.205   0.888
86738W        W48192  34.382  21.642   1.783
86739W        W48193  18.747  20.737   2.235
86740W        W48194  23.984  44.319  11.606
86741W        W48195   2.445  36.573  14.500
86742W        W48196  37.001  27.554   1.210
86743W        W48197  34.439  16.687  14.909
86744W        W48198  25.003  10.828  12.452
86745W        W48199  11.229  27.447   4.159
86746W        W48200  24.525  44.394   2.364
86747W        W48201  19.592   5.837  14.939
86748W        W48202  33.609  22.043   0.470
86749W        W48203  33.076  22.551  13.417
86750W        W48204  37.025  34.515   3.727
86751W        W48205  44.306   4.853  11.051
86752W        W48206   6.290  31.957  13.868
86753W        W48207  16.796   9.744   1.755
86754W        W48208  36.878  25.053  12.472
86755W        W48209  43.307  39.504  14.763
86756W        W48210   4.341  35.591   4.714
86757W        W48211   6.401  34.418  11.971
86758W        W48212  38.544  35.926  12.947
86759W        W48213  31.527  14.276  14.930
86760W        W48214  16.571  37.414  11.876
86761W        W48215  22.011  19.147   1.406
86762W        W48216  39.397  33.880  11.568
86763W        W48217  15.699  40.961  14.391
86764W        W48218   4.744  35.476  11.518
86765W        W48219  13.192   7.188   3.695
86766W        W48220  37.031  40.984  14.438
86767W        W48221  30.961   6.265   3.655
86768W        W48222  24.075  32.446  11.881
86769W        W48223  16.804   1.795   4.115
86770W        W48224  17.090  37.833  12.547
86771W        W48225  16.278  27.983  12.441
86772W        W48226  38.346   4.787   4.651
86773W        W48227  25.517  32.616   4.209
86774W        W48228   7.850  24.100  12.533
86775W        W48229   7.325  18.751   1.935
86776W        W48230  22.074  42.958  13.340
86777W        W48231  42.434   5.315   1.228
86778W        W48232  40.404  33.022  12.063
86779W        W48233  17.712  44.914  14.321
86780W        W48234   7.398  31.122  10.960
86781W        W48235  29.520   7.792   2.189
86782W        W48236  34.594  19.634   2.889
86783W        W48237  17.252  34.068   3.644
86784W        W48238  28.506  11.218  12.563
86785W        W48239  35.864  23.518  11.961
86786W        W48240   0.377  14.175  10.976
86787W        W48241  25.565  35.382  12.850
86788W        W48242   8.680  35.029  12.579
86789W        W48243  40.973  21.140   3.798
86790W        W48244  10.293  14.257   0.861
86791W        W48245  11.314  14.330  10.582
86792W        W48246   0.875  40.029   0.956
86793W        W48247  13.345  19.207  12.377
86794W        W48248  25.674  21.044   2.831
86795W        W48249  42.975  17.683   3.822
86796W        W48250  30.461  30.916   2.863
86797W        W48251  35.364  41.027  11.087
86798W        W48252  15.632   1.778  14.427
86799W        W48253  14.234  36.490   0.880
86800W        W48254  27.585  36.574   0.418
86801W        W48255  44.474  44.779  13.466
86802W        W48256   8.792  30.466   5.258
86803W        W48257  39.854  29.929   2.360
86804W        W48258   3.771  24.638   0.403
86805W        W48259  20.241  43.412  13.999
86806W        W48260  24.515  33.447   3.766
86807W        W48261  20.552  19.769  13.900
86808W        W48262  24.600  41.987  14.351
86809W        W48263  23.531  44.990   1.805
86810W        W48264   5.273   9.276   4.717
86811W        W48265  30.143  43.790  11.073
86812W        W48266  20.708   3.420  12.520
86813W        W48267  26.685  17.114   0.283
86814W        W48268   6.701  24.006   1.743
86815W        W48269  10.304  39.352  12.872
86816W        W48270  18.253  20.199   4.312
86817W        W48271  11.341   5.248   2.240
86818W        W48272   1.923  25.676  11.428
86819W        W48273  12.207  30.142  12.402
86820W        W48274  43.366  11.828  11.932
86821W        W48275  33.540  37.970   3.161
86822W        W48276  40.338  39.372  11.948
86823W        W48277  28.149  27.689  12.360
86824W        W48278   3.872  37.975  11.916
86825W        W48279  21.033  19.593  12.384
86826W        W48280  30.422  20.240  10.600
86827W        W48281   3.906  31.410   0.311
86828W        W48282  26.580  31.589  13.064
86829W        W48283  17.167  40.536   2.373
86830W        W48284   4.375  11.759   2.746
86831W        W48285  35.575  10.181  14.495
86832W        W48286  12.263  29.157  13.424
86833W        W48287  39.536  13.131   2.684
86834W        W48288  11.853  34.550  12.939
86835W        W48289  34.420  32.035  11.550
86836W        W48290  20.180  19.654   0.255
86837W        W48291  40.022  24.721  11.477
86838W        W48292  11.704  34.979   4.314
86839W        W48293  31.900  44.455   0.852
86840W        W48294  23.560   7.415  14.989
86841W        W48295  29.095  37.553  10.621
86842W        W48296  12.275  18.263  11.535
86843W        W48297  28.973  36.370  11.025
86844W        W48298  11.772   7.882   1.909
86845W        W48299  36.034  22.123  11.122
86846W        W48300  12.250  21.063  14.278
86847W        W48301  28.033  20.742  11.015
86848W        W48302  31.511  17.632  11.948
86849W        W48303  26.613  24.169   2.838
86850W        W48304  32.033  36.537   4.294
86851W        W48305   8.672   9.704   0.816
86852W        W48306  15.649  40.826  11.927
86853W        W48307  23.119  24.580   4.710
86854W        W48308  14.218  10.142   2.302
86855W        W48309  11.812  31.950   0.747
86856W        W48310  30.045  34.071  13.838
86857W        W48311  13.613  42.837  14.909
86858W        W48312  33.965   0.746   4.792
86859W        W48313  35.916   5.341  13.338
86860W        W48314  39.353  26.193   1.420
86861W        W48315  39.551  20.108  14.395
86862W        W48316   5.302  44.276  11.878
86863W        W48317  31.532  35.870  14.861
86864W        W48318  30.423  32.440  13.033
86865W        W48319  20.121   3.428  10.895
86866W        W48320  40.406  21.529   0.862
86867W        W48321  22.559  14.785  12.042
86868W        W48322  41.492  18.063  13.797
86869W        W48323  41.433   6.688   0.257
86870W        W48324  26.601  41.899   3.385
86871W        W48325  26.038   0.313  10.431
86872W        W48326  16.081  33.992   2.739
86873W        W48327  11.341   5.839  10.639
86874W        W48328  32.619  31.526  13.361
86875W        W48329   9.723  32.908   3.709
86876W        W48330  32.886  30.010  11.971
86877W        W48331   4.812  34.443   4.309
86878W        W48332  15.821  10.367   1.210
86879W        W48333  18.212  12.218  14.976
86880W        W48334   9.221   5.247  11.107
86881W        W48335  13.608  15.754   0.905
86882W        W48336  26.519   9.155   4.298
86883W        W48337  28.626  24.515  12.834
86884W        W48338  37.506  13.258  11.073
86885W        W48339  10.331  11.273  14.508
86886W        W48340  14.616  22.998   4.753
86887W        W48341   5.887  32.102   3.741
86888W        W48342  18.733  28.137   4.680
86889W        W48343  35.504  22.619   3.850
86890W        W48344  32.531  23.167  10.564
86891W        W48345  10.824  15.724   0.252
86892W        W48346  16.757   8.349   3.724
86893W        W48347   0.300  26.683   0.335
86894W        W48348   8.167  28.598  10.434
86895W        W48349  24.483  26.515  14.840
86896W        W48350   9.829  12.629   4.277
86897W        W48351   6.785  12.835   3.378
86898W        W48352  41.356  20.705   3.713
86899W        W48353  29.429  37.531  12.384
86900W        W48354  42.920   5.717  11.865
86901W        W48355  17.603  14.752  12.095
86902W        W48356  14.128   6.190  11.461
86903W        W48357  37.482   8.165   1.727
86904W        W48358   0.374  44.361   2.334
86905W        W48359  39.396  32.916   1.404
86906W        W48360   7.326   0.437   4.217
86907W        W48361  17.560   3.883   2.789
86908W        W48362  29.625  14.167  12.964
86909W        W48363  27.529  41.393   4.757
86910W        W48364   5.197  43.925   4.779
86911W        W48365   4.283  15.116   2.402
86912W        W48366   7.892   8.900  14.831
86913W        W48367  41.368  25.468  12.831
86914W        W48368  27.107  27.141   1.819
86915W        W48369  27.952  18.786  11.424
86916W        W48370  35.070  26.208   1.836
86917W        W48371   2.732   7.178   0.362
86918W        W48372  33.060  23.707  10.602
86919W        W48373  31.413  22.596   4.639
86920W        W48374  37.940  33.609  11.084
86921W        W48375  28.979  14.693   3.193
86922W        W48376  20.195  31.009  13.346
86923W        W48377  39.541   3.317   1.878
86924W        W48378  26.581  10.836  10.588
86925W        W48379  39.831  30.586   3.187
86926W        W48380  10.835  32.987  14.313
86927W        W48381  40.903  11.737   0.730
86928W        W48382  36.999  31.645  14.953
86929W        W48383  25.555  15.213   2.747
86930W        W48384  34.538   2.930   4.347
86931W        W48385   2.404   3.724  12.908
86932W        W48386  12.224  14.228  11.949
86933W        W48387   6.379   0.852  12.015
86934W        W48388  10.812   6.384  13.894
86935W        W48389   4.816  15.304   2.731
86936W        W48390  35.945   0.307  10.889
86937W        W48391  44.959  26.653   4.289
86938W        W48392  29.120  33.899  13.330
86939W        W48393  10.178  11.765  14.318
86940W        W48394  15.699  32.503  13.936
86941W        W48395  30.471  15.596   0.271
86942W        W48396  34.411  29.457  10.458
86943W        W48397  24.687   8.227  12.996
86944W        W48398   7.669  31.465   3.235
86945W        W48399  21.545  38.439  12.469
86946W        W48400  42.917  40.531  11.936
86947W        W48401  17.771  26.977  14.948
86948W        W48402   2.731  24.603   0.772
86949W        W48403  26.159  26.063  10.538
86950W        W48404  43.282  42.996  14.789
86951W        W48405  19.640  22.554  14.962
86952W        W48406   4.813  33.433  12.062
86953W        W48407   6.372  31.619   4.837
86954W        W48408   8.363  35.397  13.362
86955W        W48409  35.566   5.195   1.426
86956W        W48410   6.708  16.697   1.232
86957W        W48411  18.648  22.731   9.931
86958W        W48412  28.083  41.442   2.696
86959W        W48413   1.429  29.488  12.892
86960W        W48414  11.646  26.602  14.790
86961W        W48415   1.468   9.360   3.336
86962W        W48416   3.281  14.672  11.102
86963W        W48417  25.089  22.184  13.460
86964W        W48418  40.541  14.096  11.952
86965W        W48419   4.366   5.694  13.836
86966W        W48420  30.619   8.809  14.506
86967W        W48421   1.968   6.326   1.824
86968W        W48422  19.544  31.093  14.278
86969W        W48423  23.094  17.248   4.719
86970W        W48424  16.650  24.159  13.480
86971W        W48425  31.496  37.437   2.728
86972W        W48426   7.820  23.539  14.965
86973W        W48427  41.483  27.134  11.872
86974W        W48428  28.506  27.987   3.711
86975W        W48429  11.336  43.969   0.802
86976W        W48430  28.446  39.336  14.855
86977W        W48431  21.530  36.878   3.798
86978W        W48432  16.076  10.828  11.025
86979W        W48433  23.569  30.924   2.273
86980W        W48434   0.376  13.609   2.312
86981W        W48435  44.411  16.743  12.388
86982W        W48436  43.792   2.914  13.983
86983W        W48437  13.336   6.342   2.880
86984W        W48438  22.526  18.725  13.336
86985W        W48439   8.846  34.564   0.255
86986W        W48440  43.300  29.924   1.311
86987W        W48441   2.327  23.665  10.128
86988W        W48442  44.456  38.418   4.782
86989W        W48443   9.297  31.086   0.816
86990W        W48444  24.602   4.256   1.719
86991W        W48445  38.371  34.603   3.796
86992W        W48446  31.114  40.882  13.847
86993W        W48447  23.989  38.840  12.833
86994W        W48448  42.971  37.075   2.251
86995W        W48449  33.001  11.211  12.869
86996W        W48450  43.318  35.390   3.188
86997W        W48451   7.865  42.796   2.280
86998W        W48452  35.413  23.044   2.293
86999W        W48453  44.428   4.318  10.461
87000W        W48454  12.846  44.927   1.878
87001W        W48455   5.198  42.956   1.332
87002W        W48456  44.422  17.732  14.488
87003W        W48457  42.952  25.551   5.132
87004W        W48458   7.675  38.871   1.719
87005W        W48459  37.531  17.178  14.833
87006W        W48460   8.322   5.434  11.959
87007W        W48461  44.436  22.626  14.801
87008W        W48462  15.749   4.836  13.540
87009W        W48463  12.120  18.153   1.376
87010W        W48464  14.326  29.097  11.505
87011W        W48465   6.759  28.533  14.514
87012W        W48466  21.758  31.054   4.154
87013W        W48467  25.680   3.724   1.721
87014W        W48468  25.078  11.838  14.014
87015W        W48469  44.369  22.251  12.001
87016W        W48470  21.162   1.977  10.104
87017W        W48471  19.240  35.507  13.982
87018W        W48472   8.738   0.452  14.315
87019W        W48473   7.375  25.671  12.421
87020W        W48474  44.919  36.359   1.848
87021W        W48475  31.593  39.395   1.873
87022W        W48476   0.750  11.637   4.752
87023W        W48477  30.614  44.777   3.296
87024W        W48478  44.940  15.585   3.780
87025W        W48479  15.198   2.896   4.287
87026W        W48480  14.179  30.477   3.368
87027W        W48481  18.546  13.798  12.005
87028W        W48482  39.317  29.149   0.828
87029W        W48483  23.126  33.973  14.764
87030W        W48484  28.618  18.209  11.963
87031W        W48485  24.673  32.962   5.194
87032W        W48486  38.533  22.082  13.835
87033W        W48487   2.964  42.977  13.940
87034W        W48488   9.785  12.832  14.386
87035W        W48489   6.896  17.152  14.964
87036W        W48490  31.003   7.226   0.806
87037W        W48491  26.462  21.671  13.458
87038W        W48492  33.518  34.476  11.433
87039W        W48493  32.543  30.557  10.921
87040W        W48494  44.890  34.920  13.368
87041W        W48495  22.615   7.763  13.929
87042W        W48496  39.452   4.350   0.870
87043W        W48497  17.137  20.144  13.960
87044W        W48498  41.313  11.658   4.342
87045W        W48499  44.976  22.132  10.927
87046W        W48500  30.979  17.646   3.856
87047W        W48501  16.151  34.538  12.023
87048W        W48502  24.533  29.942  11.961
87049W        W48503  29.486  18.604  14.865
87050W        W48504   8.784  15.166   4.747
87051W        W48505  19.644   2.906  13.307
87052W        W48506   0.773  13.618  13.460
87053W        W48507  40.025  21.700  13.460
87054W        W48508   4.248  30.986  10.441
87055W        W48509  23.602  20.700   2.178
87056W        W48510  17.609  30.454  11.114
87057W        W48511  19.780  21.031  12.968
87058W        W48512  32.576  43.914   0.271
87059W        W48513   2.365  13.307   1.269
87060W        W48514  22.240  26.571  11.534
87061W        W48515  31.530  38.501   4.229
87062W        W48516  29.103   8.727  14.375
87063W        W48517  30.007   8.160   2.714
87064W        W48518  38.373  42.354   9.438
87065W        W48519  12.324  31.066   9.977
87066W        W48520   8.811  18.647   2.807
87067W        W48521  34.043  28.555   3.799
87068W        W48522  36.992  39.944  14.287
87069W        W48523  23.513   8.754   3.715
87070W        W48524  35.522  36.903  11.484
87071W        W48525  35.989  28.048  11.921
87072W        W48526  32.390  21.247  12.384
87073W        W48527  36.405   3.373  11.892
87074W        W48528  19.757  34.942  10.517
87075W        W48529  25.179   9.262   3.856
87076W        W48530  20.135  11.223   4.339
87077W        W48531  21.711  29.425   4.344
87078W        W48532  12.182  31.026   1.344
87079W        W48533  34.903  30.957   0.477
87080W        W48534  37.468  19.607  12.002
87081W        W48535   2.245  14.231   1.265
87082W        W48536  14.205  31.981   5.083
87083W        W48537  30.423  43.793  11.588
87084W        W48538  15.717  23.576  11.108
87085W        W48539  41.341  26.197   2.265
87086W        W48540  26.031  21.247   1.790
87087W        W48541  28.516  10.358   4.260
87088W        W48542   4.396  11.728   0.869
87089W        W48543  33.593   9.379   1.241
87090W        W48544  27.594   0.975   1.341
87091W        W48545  37.483  22.694  14.471
87092W        W48546  28.937  29.130   3.282
87093W        W48547  42.283  20.111  12.926
87094W        W48548  12.758   8.264   0.828
87095W        W48549  33.605  39.461  12.059
87096W        W48550  32.912  31.494   2.325
87097W        W48551  11.364   4.402  13.961
87098W        W48552   5.233   7.251  13.487
87099W        W48553   1.850  21.586  11.023
87100W        W48554  26.032   7.336   3.282
87101W        W48555  41.951  21.560  14.375
87102W        W48556   0.762  14.222   0.430
87103W        W48557  33.541  10.817   4.131
87104W        W48558  21.546  33.474   3.155
87105W        W48559  13.349  26.694   4.711
87106W        W48560  42.497   3.334  10.630
87107W        W48561  19.145  22.067  14.507
87108W        W48562  38.367   5.264  12.550
87109W        W48563   2.790  14.316   0.900
87110W        W48564  42.932  22.050   2.401
87111W        W48565   7.880  24.989  11.599
87112W        W48566  40.392  44.932   4.182
87113W        W48567   3.791  14.604   3.868
87114W        W48568  10.697  13.121   3.794
87115W        W48569   6.769  10.665   1.314
87116W        W48570   8.247  35.513  11.038
87117W        W48571  33.539  19.184   2.363
87118W        W48572  22.626  27.967  12.473
87119W        W48573  43.368   1.315  12.568
87120W        W48574   2.313  10.160  10.104
87121W        W48575  34.434  36.518   3.803
87122W        W48576  21.063  41.896   0.930
87123W        W48577  30.986  28.063   4.159
87124W        W48578  28.954  32.025   0.377
87125W        W48579  40.330  18.585   2.844
87126W        W48580  37.085  43.283   2.273
87127W        W48581  43.982  31.067  10.543
87128W        W48582  26.208  16.142   4.637
87129W        W48583  41.874  40.496   0.780
87130W        W48584  14.130  19.585   3.766
87131W        W48585  22.625  21.742   2.755
87132W        W48586  35.483  16.187   1.288
87133W        W48587  24.675  26.048  13.531
87134W        W48588  21.516  30.940  12.967
87135W        W48589  29.037  37.501  11.000
87136W        W48590  27.991   3.949  13.914
87137W        W48591  28.593   6.700   4.784
87138W        W48592   7.811  13.194  14.911
87139W        W48593  26.202  36.844  14.004
87140W        W48594  10.292  31.001  12.992
87141W        W48595  41.476  32.979  12.049
87142W        W48596  15.725  29.519  13.919
87143W        W48597  27.111  42.525  11.012
87144W        W48598  30.503  14.667  13.511
87145W        W48599   4.881  32.007  13.438
87146W        W48600  41.303   2.929  10.443
87147W        W48601  18.561   8.866  12.391
87148W        W48602  33.611  15.731  11.953
87149W        W48603   4.739  32.508   2.214
87150W        W48604  32.570  28.060   3.231
87151W        W48605  38.467  37.951  13.797
87152W        W48606   9.246  17.250  14.488
87153W        W48607   9.180   8.225  13.867
87154W        W48608  25.685  15.669   1.920
87155W        W48609  31.417  24.551   9.988
87156W        W48610   7.669  40.011   1.697
87157W        W48611   3.915  20.093   4.609
87158W        W48612  22.596  41.838   4.709
87159W        W48613  15.254  15.820  12.867
87160W        W48614  26.032  23.184  14.024
87161W        W48615  17.684  37.436  11.941
87162W        W48616  17.716  29.498   3.655
87163W        W48617  23.092  43.772  10.446
87164W        W48618  39.371   1.326  11.467
87165W        W48619   6.811  29.963   5.630
87166W        W48620   4.733  12.126   1.376
87167W        W48621   7.785  39.506   0.811
87168W        W48622   2.733  23.706  12.340
87169W        W48623  43.419  44.274   4.715
87170W        W48624  21.538   6.893   5.108
87171W        W48625  29.970  32.023   2.736
87172W        W48626  25.171  20.733  10.556
87173W        W48627  29.495  38.359   2.706
87174W        W48628  11.262  40.049   5.588
87175W        W48629   5.781  20.746  12.578
87176W        W48630  23.993  16.095  12.937
87177W        W48631  28.024  20.113  14.501
87178W        W48632   1.922  34.081  11.100
87179W        W48633  37.466  41.536  13.418
87180W        W48634  35.372  20.541  11.565
87181W        W48635  29.018  32.431   1.222
87182W        W48636   5.344  33.625  14.001
87183W        W48637  24.676  13.232   4.642
87184W        W48638   4.365  35.386   1.875
87185W        W48639  24.663  40.522   2.785
87186W        W48640  36.583  36.348  12.417
87187W        W48641  11.682  35.912   3.732
87188W        W48642  25.194  42.289  11.963
87189W        W48643   7.808  41.957  12.503
87190W        W48644   2.953  16.260  11.515
87191W        W48645  22.714   0.471  13.547
87192W        W48646  11.830  44.279  13.387
87193W        W48647  19.754   0.427   3.738
87194W        W48648   2.407   5.349  13.059
87195W        W48649  43.838  22.183  11.077
87196W        W48650  26.602  13.820   1.226
87197W        W48651  39.462   3.380  12.864
87198W        W48652  36.914  31.642   2.414
87199W        W48653  33.876   6.688   4.295
87200W        W48654  32.454  15.603  13.448
87201W        W48655   0.375  22.012  11.917
87202W        W48656   4.258  34.581  12.965
87203W        W48657   6.205  29.101   0.306
87204W        W48658  38.495   2.923   3.852
87205W        W48659   8.688  31.437  13.870
87206W        W48660   2.753  21.590   1.771
87207W        W48661   2.397   7.694   1.324
87208W        W48662   3.453  23.146  13.865
87209W        W48663  21.219  35.952   3.726
87210W        W48664  37.989   5.820  10.417
87211W        W48665   3.915  13.702   2.349
87212W        W48666   8.193  10.203  13.312
87213W        W48667  22.688  18.622   0.814
87214W        W48668  20.174  35.859   9.955
87215W        W48669  25.040  19.178   2.366
87216W        W48670   2.926  40.446   1.319
87217W        W48671  28.091  19.060   1.444
87218W        W48672  17.129  38.920  12.027
87219W        W48673  43.374  33.463  12.580
87220W        W48674  22.575  35.565   2.786
87221W        W48675  25.592   0.275  12.454
87222W        W48676  19.719  43.433  13.420
87223W        W48677   5.262  27.959  14.279
87224W        W48678   2.237  15.291  12.383
87225W        W48679  34.000  22.662  11.879
87226W        W48680  30.057  38.025   2.213
87227W        W48681   0.761  20.153  12.927
87228W        W48682  42.900  35.097   0.848
87229W        W48683  26.570  29.579   1.848
87230W        W48684  22.086  18.698   1.825
87231W        W48685  28.541  14.603  12.515
87232W        W48686  40.841  40.945   0.448
87233W        W48687  31.482   7.411   1.343
87234W        W48688  28.446  38.888  11.968
87235W        W48689  30.147  32.525  12.342
87236W        W48690  34.485   7.802   2.353
87237W        W48691  43.918  40.837   4.168
87238W        W48692  36.473   9.181   4.813
87239W        W48693  29.135  24.073   2.282
87240W        W48694  45.000  41.482  11.889
87241W        W48695  29.038  30.557  13.863
87242W        W48696  33.937  32.055   0.843
87243W        W48697  24.651   8.329   2.376
87244W        W48698  40.981  21.687  10.910
87245W        W48699  44.994  34.440   1.857
87246W        W48700   7.886  13.768  10.973
87247W        W48701  15.785  32.406   4.236
87248W        W48702  28.935  32.063   1.246
87249W        W48703  32.617  14.828  11.966
87250W        W48704  26.095  39.496   2.410
87251W        W48705  40.811  32.408   2.790
87252W        W48706  10.238  39.521  10.482
87253W        W48707  17.665   0.428   1.841
87254W        W48708  36.959  39.322  11.027
87255W        W48709  21.209   5.785   3.674
87256W        W48710  16.643  20.542   1.805
87257W        W48711  13.824   7.239   0.822
87258W        W48712  14.591   9.645   2.888
87259W        W48713   7.336  43.009   2.398
87260W        W48714  19.120  15.229  13.847
87261W        W48715  37.848  43.392   0.398
87262W        W48716  11.207  12.845  14.321
87263W        W48717  10.834  31.591   2.853
87264W        W48718   5.367   1.467  11.492
87265W        W48719  30.126   5.874   3.154
87266W        W48720   3.351   0.480   4.827
87267W        W48721   3.298  26.568  13.466
87268W        W48722   9.368  37.962  14.454
87269W        W48723  11.803  27.132  11.585
87270W        W48724  32.035  37.889   3.632
87271W        W48725  36.920  18.158   2.353
87272W        W48726  27.613  40.523   0.897
87273W        W48727  16.714   3.779   3.254
87274W        W48728  25.176  20.077  12.929
87275W        W48729  36.450  12.334   2.415
87276W        W48730  32.990  23.578   2.348
87277W        W48731  16.104  12.308   4.719
87278W        W48732  15.692   0.899  14.927
87279W        W48733  24.146  37.429   2.715
87280W        W48734  14.825  21.582   5.146
87281W        W48735   3.271  17.786   4.644
87282W        W48736  40.894   0.432  10.441
87283W        W48737   4.852  38.410  12.434
87284W        W48738  24.704  20.555  10.982
87285W        W48739  10.140  29.490   4.352
87286W        W48740  10.239   2.247   1.290
87287W        W48741   0.943  34.085  11.548
87288W        W48742   7.682  44.870   1.904
87289W        W48743  38.334  19.623   0.416
87290W        W48744  44.828  30.968  14.499
87291W        W48745  29.043  29.494  11.454
87292W        W48746  42.903  33.519   0.884
87293W        W48747  30.032  12.349   1.291
87294W        W48748  20.708  23.211   3.219
87295W        W48749  21.239  21.718   4.733
87296W        W48750  13.324   0.443   2.328
87297W        W48751  43.351   6.690  12.084
87298W        W48752  19.685  12.715   4.199
87299W        W48753  18.563   0.824  11.890
87300W        W48754  13.322   3.232   1.762
87301W        W48755  44.356  37.347   0.861
87302W        W48756  30.986  14.224  11.928
87303W        W48757  13.778   7.398  13.342
87304W        W48758  42.419  40.829   2.272
87305W        W48759  27.546  36.960  12.036
87306W        W48760   0.384  41.026   0.370
87307W        W48761   2.744  33.018  13.480
87308W        W48762   0.862  44.288  11.389
87309W        W48763  19.592  37.040   2.278
87310W        W48764   0.982  16.736   1.403
87311W        W48765  19.739  16.708   0.732
87312W        W48766  20.761   9.821  14.820
87313W        W48767   2.759  37.940   0.278
87314W        W48768  18.568  11.698   1.894
87315W        W48769   3.870  41.807   2.705
87316W        W48770   1.335   0.359   2.727
87317W        W48771  38.936  43.272   2.252
87318W        W48772   8.846  18.195  10.895
87319W        W48773   8.349  12.270   0.745
87320W        W48774   0.378  29.119  11.448
87321W        W48775  27.997  25.981  11.070
87322W        W48776  11.191  18.586   3.735
87323W        W48777  39.861   8.709  10.898
87324W        W48778  19.676  31.060   1.381
87325W        W48779   3.841  40.307  10.443
87326W        W48780  15.755   5.890   4.623
87327W        W48781  20.202  18.146  12.855
87328W        W48782  44.806   9.749   3.864
87329W        W48783  19.645  20.523  11.070
87330W        W48784   3.419  21.054  13.371
87331W        W48785  16.132  26.992  12.545
87332W        W48786   6.252   6.319  11.467
87333W        W48787  35.435  14.757  11.942
87334W        W48788   1.279  29.640  11.472
87335W        W48789  14.197  18.721   9.548
87336W        W48790  20.035  15.226  13.046
87337W        W48791  44.933  20.618  10.898
87338W        W48792  20.592  20.692   0.463
87339W        W48793   8.274  44.411  11.528
87340W        W48794  23.707  15.656  13.923
87341W        W48795  28.506  15.706  11.580
87342W        W48796  15.600  16.754   0.963
87343W        W48797  35.939  12.759  12.845
87344W        W48798  27.581  16.138   1.413
87345W        W48799   3.848  18.769   2.318
87346W        W48800  19.598  17.747   1.918
87347W        W48801  29.066  36.583  10.465
87348W        W48802   4.337  21.117   2.880
87349W        W48803  31.616  10.382  11.558
87350W        W48804   3.426  34.451  14.789
87351W        W48805  32.115   2.361   2.754
87352W        W48806  37.874  16.257  10.535
87353W        W48807  12.144  28.655  11.548
87354W        W48808  32.516   8.665  13.060
87355W        W48809  15.189  23.142  11.473
87356W        W48810  27.176  26.639  13.040
87357W        W48811  42.961   2.762   3.708
87358W        W48812  15.218   5.905  11.027
87359W        W48813   4.831  12.811   1.899
87360W        W48814   1.331  44.459   3.816
87361W        W48815  40.501   0.253  10.557
87362W        W48816   1.258  20.029   1.261
87363W        W48817  42.963  32.480  12.362
87364W        W48818  33.507  31.453   2.849
87365W        W48819  44.424   2.927   2.385
87366W        W48820  27.967  12.656   0.392
87367W        W48821  39.367  39.847  13.440
87368W        W48822  12.263   8.879  13.995
87369W        W48823  37.957  26.647  10.986
87370W        W48824  11.183  20.132  14.418
87371W        W48825  17.068   0.255   3.650
87372W        W48826  22.125  18.673  14.813
87373W        W48827  14.312  40.928   1.405
87374W        W48828  16.612   1.364   0.857
87375W        W48829  15.594  16.279   2.217
87376W        W48830  10.278  19.061  14.857
87377W        W48831  41.419  24.118  13.858
87378W        W48832   7.366  25.515  14.364
87379W        W48833  15.229  42.987   2.712
87380W        W48834  18.759   7.233   0.954
87381W        W48835   4.852   5.367  14.804
87382W        W48836   1.370  13.650  13.320
87383W        W48837  17.255  13.631   3.718
87384W        W48838  26.037  34.900  10.535
87385W        W48839  14.652  28.677  14.366
87386W        W48840  42.414  39.431   4.123
87387W        W48841  12.218  34.522  12.994
87388W        W48842  10.786  21.650  11.452
87389W        W48843  24.194  20.053   4.128
87390W        W48844  21.553  28.531   1.348
87391W        W48845  22.733   1.434   2.754
87392W        W48846  44.008  44.828  14.841
87393W        W48847   5.927  37.474   1.389
87394W        W48848   9.677   4.307  12.914
87395W        W48849  24.069  14.670  14.860
87396W        W48850   2.364  18.139   1.308
87397W        W48851  43.327   4.857  13.927
87398W        W48852  19.615  28.973   4.299
87399W        W48853   7.268  30.008   3.156
87400W        W48854  11.650  11.717   2.196
87401W        W48855   2.766  25.659  11.600
87402W        W48856  10.338   0.860  14.021
87403W        W48857  14.722  16.168   0.396
87404W        W48858   1.903  26.159  12.899
87405W        W48859  32.531  20.108  13.470
87406W        W48860   7.848  10.311   5.148
87407W        W48861  29.164  44.396   2.707
87408W        W48862  28.045   8.752  11.494
87409W        W48863  18.585  40.307   5.091
87410W        W48864  29.119  12.126  12.535
87411W        W48865   5.755  32.527   3.761
87412W        W48866  12.617   6.729  10.949
87413W        W48867  12.788  12.289   0.801
87414W        W48868  33.984  27.669  12.396
87415W        W48869  27.685  36.546   3.180
87416W        W48870  28.613  37.400  12.425
87417W        W48871  42.483   1.946   3.831
87418W        W48872  19.150   1.949  10.451
87419W        W48873  14.655   8.286   1.826
87420W        W48874  12.299   2.961  11.434
87421W        W48875  27.553   1.746  12.982
87422W        W48876   3.394   5.220   2.410
87423W        W48877   1.457  24.671  13.059
87424W        W48878  21.536  34.453  11.948
87425W        W48879  24.648  28.602   3.334
87426W        W48880  24.046   0.765   5.271
87427W        W48881  31.146  25.505  14.448
87428W        W48882  28.673  42.340   4.684
87429W        W48883  29.546  22.523  11.925
87430W        W48884  19.065  33.991  10.441
87431W        W48885  30.989  13.278  12.943
87432W        W48886  13.220   3.735   4.121
87433W        W48887  29.518   6.232   2.832
87434W        W48888  21.744  25.588  12.895
87435W        W48889  35.401   8.750  13.540
87436W        W48890   2.301  12.192   3.172
87437W        W48891  23.568  44.789   4.225
87438W        W48892  32.990  12.147  13.512
87439W        W48893   6.772  26.003   2.298
87440W        W48894  29.523   4.867  11.860
87441W        W48895  42.306   3.814   2.833
87442W        W48896   9.209   4.428  10.587
87443W        W48897  27.610  21.729   3.207
87444W        W48898  12.675   0.794  11.960
87445W        W48899  41.393  32.913  12.926
87446W        W48900  23.050  26.577  10.549
87447W        W48901  42.883  31.118  11.526
87448W        W48902  36.917  40.984  13.468
87449W        W48903  25.554  27.627   2.358
87450W        W48904  17.229  29.023  13.845
87451W        W48905  12.665   5.294  11.444
87452W        W48906  22.670  15.808  10.630
87453W        W48907  23.178  23.529   4.230
87454W        W48908  26.965   2.445  14.970
87455W        W48909  21.115  37.851  13.402
87456W        W48910  19.675  21.583   4.126
87457W        W48911  33.128   8.227   2.883
87458W        W48912  17.721  35.405  12.957
87459W        W48913  42.801  11.767   3.633
87460W        W48914  23.068  28.103  10.914
87461W        W48915  25.081  31.922   2.843
87462W        W48916  38.512  28.610  13.342
87463W        W48917  29.544  11.339  13.498
87464W        W48918   1.383   8.843   1.738
87465W        W48919   2.786  37.834   0.867
87466W        W48920  32.550   2.831  14.925
87467W        W48921  23.689  12.299  12.895
87468W        W48922   0.257  21.071   4.189
87469W        W48923  38.858   1.903   3.204
87470W        W48924   1.833  20.735  13.870
87471W        W48925   2.245   1.761   4.217
87472W        W48926   0.379  37.994  14.352
87473W        W48927  16.579  31.081   2.190
87474W        W48928  25.973   2.268  12.969
87475W        W48929  34.075  35.955   2.856
87476W        W48930  32.515  41.311   3.801
87477W        W48931   8.673  29.661   0.829
87478W        W48932   6.221  22.999  10.423
87479W        W48933  24.997  16.791  13.336
87480W        W48934  13.128  19.777   2.337
87481W        W48935   7.247  23.690  14.478
87482W        W48936  15.785  14.786  11.939
87483W        W48937  27.145  27.057   3.375
87484W        W48938  20.631  11.310   2.805
87485W        W48939  39.433   9.331   4.163
87486W        W48940  44.009  10.272  12.457
87487W        W48941   6.718  22.724   0.427
87488W        W48942  24.975  24.679  12.390
87489W        W48943  30.422  21.127   9.997
87490W        W48944  27.613  20.070  14.310
87491W        W48945  39.057  10.662   2.840
87492W        W48946  36.855  28.637   0.789
87493W        W48947  32.522  23.020   1.394
87494W        W48948  18.072  24.001  12.432
87495W        W48949  12.619  42.845  14.972
87496W        W48950  10.164  23.157  12.578
87497W        W48951  29.619  41.819  13.452
87498W        W48952  14.184   1.342   1.814
87499W        W48953  40.949  19.613  11.412
87500W        W48954  15.164   9.697  13.523
87501W        W48955  42.286   1.335  11.109
87502W        W48956  41.940  35.059  11.878
87503W        W48957   7.666  12.347  10.901
87504W        W48958  44.907   1.277   0.757
87505W        W48959   5.739  40.529  10.436
87506W        W48960  32.553  42.489  12.033
87507W        W48961  22.593  33.111  12.454
87508W        W48962  21.084  38.971   1.743
87509W        W48963   8.374  40.517   3.264
87510W        W48964  28.996  31.061   3.746
87511W        W48965  12.347  28.559   1.798
87512W        W48966  26.529  26.459   0.741
87513W        W48967  35.086  31.623   1.351
87514W        W48968   8.321  18.746  12.522
87515W        W48969  11.239   8.330   4.244
87516W        W48970  16.269  16.711  11.562
87517W        W48971  30.925  26.642  11.124
87518W        W48972  26.004  24.053  12.049
87519W        W48973  26.603  10.142  11.981
87520W        W48974  22.703  24.001  12.360
87521W        W48975   5.239  40.876   3.793
87522W        W48976  28.522   9.336  10.939
87523W        W48977  36.448  12.307  14.819
87524W        W48978   3.454  28.148  13.803
87525W        W48979  38.934   4.250  11.376
87526W        W48980  39.921  19.044   1.838
87527W        W48981  26.546  12.705   4.170
87528W        W48982  13.827  31.021   4.724
87529W        W48983  23.072  16.786   0.844
87530W        W48984  14.748  41.375   1.328
87531W        W48985  18.134  12.646   4.746
87532W        W48986  44.819  30.154   2.895
87533W        W48987  29.654  38.041   3.717
87534W        W48988  25.653   3.294  11.104
87535W        W48989  35.566  38.008   2.844
87536W        W48990  37.033  41.974   2.886
87537W        W48991  25.669  25.512  12.898
87538W        W48992  34.937  40.438   4.728
87539W        W48993  30.511  29.643  10.481
87540W        W48994   5.725  16.702  12.091
87541W        W48995   6.897  26.203  14.468
87542W        W48996   7.829  42.838  11.947
87543W        W48997  20.241   4.930   2.263
87544W        W48998  26.538   2.934  14.978
87545W        W48999   3.880   7.872   1.905
87546W        W49000   4.380   3.800  11.610
87547W        W49001  27.013  31.514   9.939
87548W        W49002  17.111   6.695  14.506
87549W        W49003  26.571  35.071  13.454
87550W        W49004  39.482  40.992  11.524
87551W        W49005  40.372  36.885   2.386
87552W        W49006   5.415  14.121   1.396
87553W        W49007  25.082   9.874   3.672
87554W        W49008  34.059  23.203   0.270
87555W        W49009  31.433  33.927  14.026
87556W        W49010   9.212  22.110   0.945
87557W        W49011  29.070  30.558  11.494
87558W        W49012  38.333   2.797  14.770
87559W        W49013  11.354   0.965   0.870
87560W        W49014   4.374  39.828  12.870
87561W        W49015  20.138  13.614   4.784
87562W        W49016  11.710  43.816  11.856
87563W        W49017  39.385  35.930  10.458
87564W        W49018   3.293  28.583   0.369
87565W        W49019  28.996   3.413  14.387
87566W        W49020  43.769  24.530   2.264
87567W        W49021   8.287  44.902   0.788
87568W        W49022  40.368  10.229  12.477
87569W        W49023  16.594  34.384  12.422
87570W        W49024   7.735  19.568   5.109
87571W        W49025  34.870  12.249  13.851
87572W        W49026   7.347   0.345  14.502
87573W        W49027  30.481  22.566  14.006
87574W        W49028   1.810  23.992   0.287
87575W        W49029   7.844  28.048   2.260
87576W        W49030  10.655  12.759  11.029
87577W        W49031  31.583  40.961   3.690
87578W        W49032   3.897  30.558   2.232
87579W        W49033  20.109  26.022  13.008
87580W        W49034  19.607  32.986   2.191
87581W        W49035  21.516   0.317  12.468
87582W        W49036  24.134  13.766  11.015
87583W        W49037   0.348  34.103  13.932
87584W        W49038   3.332  15.187   0.473
87585W        W49039   3.217  12.630   1.278
87586W        W49040   4.357  36.888   3.857
87587W        W49041   7.764   1.416  11.443
87588W        W49042  24.217   8.225   1.932
87589W        W49043   7.378   4.230   0.305
87590W        W49044  21.681  29.146  13.798
87591W        W49045  40.539  15.803  12.436
87592W        W49046  34.914  38.474   2.200
87593W        W49047  12.758  27.161  12.846
87594W        W49048  33.587  13.240  11.538
87595W        W49049  44.786  26.137   3.808
87596W        W49050   0.260  35.540  14.984
87597W        W49051   3.921  36.458  12.867
87598W        W49052  22.086   7.187  14.425
87599W        W49053  26.118   5.269   2.727
87600W        W49054  23.682  16.808  14.850
87601W        W49055  32.486   7.900   2.793
87602W        W49056  22.646  13.782   0.908
87603W        W49057  31.564  13.798   9.953
87604W        W49058  20.590  35.445  14.346
87605W        W49059  30.148   3.854  13.463
87606W        W49060  42.450  36.087  14.901
87607W        W49061  25.518  39.987   1.235
87608W        W49062  26.150  31.979  10.521
87609W        W49063  31.449   8.664  13.496
87610W        W49064  44.439  39.968   4.614
87611W        W49065   1.890  14.834  14.407
87612W        W49066   1.960   7.192  12.987
87613W        W49067  26.556  37.079   2.777
87614W        W49068   9.784  36.384   2.800
87615W        W49069  20.661  32.419  13.371
87616W        W49070   2.253  35.383  12.017
87617W        W49071  39.979  21.169  13.358
87618W        W49072   5.924  35.406   2.307
87619W        W49073  36.090  21.258  12.081
87620W        W49074  20.257   3.274  10.136
87621W        W49075  34.482  42.508   2.286
87622W        W49076  18.171  12.352   2.888
87623W        W49077  16.101  23.238   4.763
87624W        W49078  42.013  13.120  11.108
87625W        W49079  12.686  27.105  10.586
87626W        W49080  22.995  19.079   0.285
87627W        W49081  13.129   6.428   1.860
87628W        W49082  16.720   5.230  11.517
87629W        W49083   8.691  37.870  12.563
87630W        W49084  17.761  38.365  13.058
87631W        W49085  16.643   9.741  13.875
87632W        W49086  29.973  40.458   0.472
87633W        W49087   3.798  12.681  13.403
87634W        W49088  29.622  10.858   3.377
87635W        W49089  40.425   7.216   0.965
87636W        W49090  22.242  35.041   3.779
87637W        W49091  16.137  27.057   1.765
87638W        W49092  38.023   7.222   0.290
87639W        W49093   0.938  43.468   4.792
87640W        W49094  26.999  42.447  11.972
87641W        W49095   5.816  34.113   3.154
87642W        W49096  25.531  11.158  12.831
87643W        W49097  42.366  36.406  14.440
87644W        W49098   4.375  28.457   3.341
87645W        W49099  38.936  34.493  13.826
87646W        W49100  26.561  21.020  13.914
87647W        W49101  33.381  12.625  12.843
87648W        W49102  40.385  21.139  10.888
87649W        W49103  19.635   1.450   4.355
87650W        W49104   4.345  38.495  12.382
87651W        W49105  39.923  37.516   3.340
87652W        W49106  36.397  10.234  14.401
87653W        W49107  27.456   8.241   3.163
87654W        W49108   4.265  43.835   2.250
87655W        W49109  24.725  30.071  12.341
87656W        W49110  40.800  34.112  11.566
87657W        W49111  30.457  14.156   9.946
87658W        W49112  13.164   7.900  11.939
87659W        W49113  28.577  26.175  13.384
87660W        W49114  31.973  15.132  14.960
87661W        W49115  29.511  16.285  13.404
87662W        W49116  21.638  16.806   1.695
87663W        W49117  43.849  20.729   2.762
87664W        W49118  30.501  42.936   4.772
87665W        W49119  36.483  35.459  14.387
87666W        W49120  26.094  14.653   2.405
87667W        W49121  37.869   0.255  13.898
87668W        W49122   7.744   9.283   4.171
87669W        W49123  33.931  18.087   2.888
87670W        W49124  15.774  22.644  10.438
87671W        W49125  36.051   0.360  12.846
87672W        W49126  20.190  31.469  11.083
87673W        W49127  19.131  40.806  10.961
87674W        W49128   1.258  18.570  14.308
87675W        W49129  36.473  32.503  14.847
87676W        W49130  12.268   1.823  13.808
87677W        W49131  42.366  21.217   3.633
87678W        W49132  10.812  19.576  14.457
87679W        W49133  22.999  34.935  11.581
87680W        W49134   4.339  26.200  11.578
87681W        W49135  29.482   8.738  10.022
87682W        W49136  17.623  11.759   1.433
87683W        W49137  29.064  20.589   2.880
87684W        W49138   6.802  20.537  14.359
87685W        W49139  43.465  20.061  14.871
87686W        W49140  28.065  15.085  10.479
87687W        W49141   8.706  43.819  12.403
87688W        W49142  40.536   2.472  13.484
87689W        W49143   6.218  13.317  12.498
87690W        W49144  19.569  18.210  13.485
87691W        W49145  40.947   5.279   0.451
87692W        W49146  29.498  20.560   4.139
87693W        W49147  25.106  36.487   3.312
87694W        W49148  14.620  28.987  12.555
87695W        W49149  20.766  42.832  12.896
87696W        W49150  24.623  44.965  11.055
87697W        W49151  18.564  36.454   0.751
87698W        W49152   8.688  12.134   4.127
87699W        W49153  39.353  21.207  14.276
87700W        W49154  41.344  32.404  11.578
87701W        W49155  24.513  31.597   0.353
87702W        W49156   5.840  44.282   3.270
87703W        W49157   9.670  16.160  14.458
87704W        W49158  26.097  16.653  10.438
87705W        W49159  23.622  32.908  13.038
87706W        W49160  37.524  28.056  11.114
87707W        W49161  32.619   2.778   3.172
87708W        W49162  23.193  16.582   2.214
87709W        W49163  13.203  16.108   1.921
87710W        W49164  40.002   3.307  10.949
87711W        W49165  21.732   0.759  12.414
87712W        W49166  18.221  27.523  11.092
87713W        W49167  44.992  21.657  12.058
87714W        W49168  28.582  32.125  13.334
87715W        W49169  11.762   9.231   4.717
87716W        W49170  15.780   3.415  11.914
87717W        W49171   6.839  19.631   0.813
87718W        W49172  35.057  35.465   1.328
87719W        W49173  26.955   7.705  14.994
87720W        W49174  23.736  12.167   2.183
87721W        W49175  26.143  28.955   4.726
87722W        W49176  31.493  24.627   1.375
87723W        W49177   1.284  38.913   4.314
87724W        W49178  40.476  26.039   4.629
87725W        W49179  39.363   3.269   3.682
87726W        W49180  31.631  35.551  13.844
87727W        W49181   2.943  29.071  11.955
87728W        W49182  19.764  13.611  13.450
87729W        W49183  21.721  22.161   3.791
87730W        W49184   5.691  31.055   1.286
87731W        W49185  25.969   6.409   3.299
87732W        W49186  21.677   4.932  12.967
87733W        W49187  15.232   1.735  11.005
87734W        W49188  37.493  35.455  12.482
87735W        W49189  15.091  32.107  14.945
87736W        W49190  14.599  26.671  12.381
87737W        W49191   1.298  13.693   0.789
87738W        W49192   7.310  13.227   1.826
87739W        W49193   8.890  30.422  11.068
87740W        W49194  33.967  34.970  14.934
87741W        W49195  24.040  15.741  13.408
87742W        W49196  36.353  34.554  10.055
87743W        W49197  44.291  44.798  10.893
87744W        W49198  15.646   5.423   3.857
87745W        W49199  17.627  16.804  14.482
87746W        W49200   0.437  23.521  12.077
87747W        W49201  31.406   3.275   1.395
87748W        W49202  44.488  26.643  14.760
87749W        W49203   0.485   0.319   1.377
87750W        W49204  13.215  26.654  10.034
87751W        W49205  17.242   4.727  11.904
87752W        W49206  26.606  30.484   3.298
87753W        W49207  29.962  30.994  11.473
87754W        W49208   8.176  42.334  13.997
87755W        W49209  30.552  16.775  12.885
87756W        W49210  30.977  19.542  11.966
87757W        W49211  23.660  34.505   2.312
87758W        W49212  13.107  29.008  12.019
87759W        W49213  15.619  31.455   3.651
87760W        W49214  41.499  28.993  11.858
87761W        W49215  21.251  24.561   2.716
87762W        W49216  39.819  22.047  14.338
87763W        W49217  18.612  40.484   3.751
87764W        W49218  41.948  22.515   4.240
87765W        W49219  21.099   4.758   3.368
87766W        W49220   6.762  30.555   3.736
87767W        W49221   5.716  29.965   4.670
87768W        W49222  34.068  11.626   0.873
87769W        W49223  10.156   6.756  14.012
87770W        W49224  16.247   4.352   3.328
87771W        W49225  44.941  42.842  14.000
87772W        W49226   2.913  13.800  12.369
87773W        W49227   1.449   5.278   1.298
87774W        W49228   8.798  27.587   2.296
87775W        W49229  39.976   6.383  13.945
87776W        W49230  36.072   5.855  11.501
87777W        W49231  19.101  29.587  11.491
87778W        W49232  25.695   7.901  13.456
87779W        W49233  33.940   4.830  13.529
87780W        W49234  25.560   4.830  11.554
87781W        W49235   1.949  16.296  13.347
87782W        W49236  10.779   1.959  13.928
87783W        W49237  36.426   3.795  12.510
87784W        W49238  41.438  17.596   0.265
87785W        W49239  32.601  43.913   1.298
87786W        W49240  33.588  25.603  13.961
87787W        W49241  41.401  32.034   3.857
87788W        W49242  42.414  11.142   2.800
87789W        W49243  38.059   4.919  11.993
87790W        W49244  18.575  22.245  12.973
87791W        W49245  19.694  32.939   0.936
87792W        W49246   5.241  26.630  10.934
87793W        W49247   9.793  29.934   0.290
87794W        W49248   0.475   5.426   4.198
87795W        W49249  33.548   3.839  12.376
87796W        W49250  36.849  25.623   2.842
87797W        W49251  10.695   7.285  12.031
87798W        W49252  36.422  22.227  11.919
87799W        W49253  27.592  40.867   1.805
87800W        W49254  42.475  37.876   3.651
87801W        W49255  28.509   3.408  11.537
87802W        W49256  33.988  16.216   0.273
87803W        W49257   3.348  23.179   2.749
87804W        W49258  18.588  26.689   3.787
87805W        W49259  27.555  10.272   0.915
87806W        W49260  24.498  10.193   1.348
87807W        W49261  40.001  42.807   0.387
87808W        W49262  32.448   3.882   0.397
87809W        W49263   4.718  32.414   0.946
87810W        W49264  19.732   6.231   3.828
87811W        W49265  30.420  19.189  12.957
87812W        W49266   7.909  30.958  10.529
87813W        W49267  19.721  20.535   1.254
87814W        W49268  22.175  14.189  12.452
87815W        W49269  38.457  30.520   4.313
87816W        W49270  35.917  21.584   1.757
87817W        W49271  16.164  12.182  10.076
87818W        W49272  18.191  40.982   0.843
87819W        W49273   3.218   3.372  13.825
87820W        W49274  22.539  19.220   3.324
87821W        W49275  17.657   5.253   2.216
87822W        W49276  33.443   8.393  14.032
87823W        W49277   4.320  13.117   2.221
87824W        W49278  17.114  31.562  12.878
87825W        W49279  31.434  31.597  14.297
87826W        W49280  22.240   3.405  10.423
87827W        W49281   5.291  14.275   3.289
87828W        W49282   3.867  32.601   3.795
87829W        W49283  43.778   6.197   3.222
87830W        W49284  13.713  11.135   1.839
87831W        W49285   8.771  41.870  13.466
87832W        W49286  22.725  37.940  11.466
87833W        W49287  22.021  13.336  14.398
87834W        W49288  17.130  28.585  11.081
87835W        W49289  12.152   6.897  13.513
87836W        W49290  27.467  32.909  11.546
87837W        W49291   7.689  17.209  11.953
87838W        W49292  37.457  10.163   4.829
87839W        W49293  11.343  28.991  10.931
87840W        W49294  35.008   5.828  14.938
87841W        W49295  44.339   5.310  14.350
87842W        W49296  24.208  40.909  12.943
87843W        W49297   1.395  33.408  10.464
87844W        W49298  29.061  11.143  11.085
87845W        W49299  11.690   8.373  14.473
87846W        W49300  23.494   9.200  12.463
87847W        W49301  23.041  32.462  13.848
87848W        W49302  17.237  27.595   4.337
87849W        W49303  41.796  20.561   1.448
87850W        W49304  28.049  40.329  14.515
87851W        W49305   9.271  21.636  12.447
87852W        W49306  23.099  22.103   4.161
87853W        W49307  17.211   0.867   3.250
87854W        W49308  34.871  39.359  12.917
87855W        W49309  15.806  17.222  14.286
87856W        W49310  32.984  21.237  13.381
87857W        W49311  22.542  16.811   1.411
87858W        W49312   7.884  19.760   3.161
87859W        W49313  35.511  23.710  14.957
87860W        W49314  20.701  15.143  14.848
87861W        W49315   4.892  24.186   4.659
87862W        W49316  38.430   0.405  13.880
87863W        W49317  30.498  15.781  10.040
87864W        W49318  24.631  32.016   5.148
87865W        W49319   2.280  41.299   1.841
87866W        W49320  39.554  28.119  12.371
87867W        W49321  19.236  13.169   4.689
87868W        W49322   6.692  27.524   4.621
87869W        W49323  13.625  42.789  12.918
87870W        W49324  19.191  34.972  12.569
87871W        W49325  39.327  41.331  14.411
87872W        W49326  29.007  26.134  10.951
87873W        W49327  17.753  41.930  14.451
87874W        W49328  12.209  36.856   1.858
87875W        W49329  19.259   8.161   4.641
87876W        W49330  34.379   4.309  13.959
87877W        W49331  16.150  37.894   3.686
87878W        W49332  11.316   9.680   1.901
87879W        W49333  13.208  28.046  11.127
87880W        W49334  19.565   8.806   5.706
87881W        W49335  35.579  41.406  11.448
87882W        W49336  28.653  43.383   3.249
87883W        W49337   9.872  30.524  12.461
87884W        W49338  42.418  23.590   1.430
87885W        W49339  36.564  22.213  10.461
87886W        W49340  37.452  21.241  12.490
87887W        W49341  42.876   4.750  12.498
87888W        W49342  36.911   7.239   4.721
87889W        W49343  25.040  10.227   5.183
87890W        W49344  21.727  31.047   3.808
87891W        W49345  41.329  41.947   2.330
87892W        W49346   2.340  35.088   3.348
87893W        W49347  20.541  19.677   2.780
87894W        W49348  31.022  35.373   1.421
87895W        W49349  19.184  30.562  14.289
87896W        W49350  18.197  34.113   2.387
87897W        W49351  15.096  13.775   4.239
87898W        W49352   5.865  29.921   4.339
87899W        W49353  26.557  29.492  12.380
87900W        W49354   9.682  44.462   4.293
87901W        W49355  41.457  33.932  11.883
87902W        W49356   3.319  22.629  14.811
87903W        W49357  32.095  24.566   2.335
87904W        W49358  10.726   3.949  11.503
87905W        W49359   5.434  34.001   0.258
87906W        W49360  13.746  30.418   2.367
87907W        W49361  36.588  22.132  14.905
87908W        W49362  33.434  34.464   2.697
87909W        W49363  33.549  30.963   3.730
87910W        W49364  37.549  16.715   2.378
87911W        W49365  21.191   1.459   1.825
87912W        W49366  27.120  37.465  12.036
87913W        W49367   2.803  13.247  14.285
87914W        W49368   2.422  40.496   1.721
87915W        W49369   3.219  28.541   3.634
87916W        W49370  43.478  33.396  14.349
87917W        W49371  35.375   2.771   1.324
87918W        W49372  11.865  25.488   0.902
87919W        W49373   1.955  30.646  12.880
87920W        W49374  39.959  31.562   4.196
87921W        W49375   2.725  26.639   4.829
87922W        W49376   2.261   7.797   0.963
87923W        W49377  32.603  38.836  11.015
87924W        W49378   0.392  40.798   0.962
87925W        W49379  42.891  29.463   2.179
87926W        W49380  41.791  40.497  13.917
87927W        W49381   4.379   4.746   4.796
87928W        W49382  16.669  14.289   5.739
87929W        W49383  23.528   0.761  10.638
87930W        W49384   5.875  32.404  11.384
87931W        W49385  15.674  16.613  11.582
87932W        W49386  35.080  18.141   3.145
87933W        W49387  24.686  21.027  13.316
87934W        W49388  22.020  12.711   2.337
87935W        W49389  23.728  25.580   3.765
87936W        W49390   1.886   9.304  11.855
87937W        W49391  16.590  23.115  12.928
87938W        W49392   1.882  14.591   2.807
87939W        W49393  21.071  24.515  11.984
87940W        W49394  32.508  38.328  11.515
87941W        W49395  11.798  26.586   1.223
87942W        W49396  35.863   1.801   2.337
87943W        W49397  39.528   5.216  11.553
87944W        W49398  13.638  22.201  12.525
87945W        W49399  24.578  32.022   1.211
87946W        W49400  34.492   8.795   2.889
87947W        W49401   9.300  14.286   0.934
87948W        W49402   2.256   7.702   0.247
87949W        W49403  22.684  23.559  10.020
87950W        W49404  11.701  12.308   2.207
87951W        W49405  36.889  32.530   4.700
87952W        W49406   5.847   9.725  11.568
87953W        W49407  44.299  43.976  11.401
87954W        W49408  28.103  18.705  14.353
87955W        W49409   2.355  12.633   4.292
87956W        W49410  31.458  19.270  14.504
87957W        W49411   0.315  35.026  12.537
87958W        W49412  27.681  38.536   4.218
87959W        W49413  36.958  39.033  12.919
87960W        W49414  35.863   0.254   0.394
87961W        W49415  19.772  19.226  10.546
87962W        W49416   2.818  41.008  12.513
87963W        W49417  40.370  43.928   0.918
87964W        W49418   3.901  16.235   4.218
87965W        W49419  37.486   6.361   3.765
87966W        W49420  11.771  31.112  14.950
87967W        W49421  34.388  13.684  11.938
87968W        W49422  42.991  13.657   3.740
87969W        W49423  10.318  42.998  10.910
87970W        W49424  34.492  26.968   2.678
87971W        W49425  22.739  18.110   5.213
87972W        W49426  31.508  32.495  10.615
87973W        W49427   8.366   5.845   3.634
87974W        W49428  24.170  38.361  10.603
87975W        W49429  17.164  42.893  14.012
87976W        W49430  15.599  17.134   2.195
87977W        W49431  43.816  16.574  12.526
87978W        W49432  27.006  24.717  14.376
87979W        W49433  10.377   7.281  14.775
87980W        W49434  19.651  18.748   0.268
87981W        W49435   3.297  22.572   4.180
87982W        W49436  33.433   3.241   2.410
87983W        W49437   7.759  19.723   3.751
87984W        W49438  29.137  40.872  14.845
87985W        W49439   3.863  27.524  14.901
87986W        W49440  28.975  42.029   1.782
87987W        W49441  37.967  10.259   3.864
87988W        W49442   8.326  38.497  13.013
87989W        W49443  24.598  15.745  11.540
87990W        W49444  39.965   5.267   1.713
87991W        W49445  14.764  10.321   2.831
87992W        W49446  28.930  24.210  14.401
87993W        W49447  37.058   1.809   2.866
87994W        W49448   1.341  13.803  14.781
87995W        W49449  25.570  37.865  12.869
87996W        W49450  14.219  34.088  12.070
87997W        W49451  44.978  30.076   3.799
87998W        W49452  25.632   6.411  10.018
87999W        W49453   1.805  24.611   0.936
88000W        W49454   3.222   5.871  11.964
88001W        W49455  19.044  35.972  11.524
88002W        W49456   7.821  43.273   2.220
88003W        W49457  39.919  20.528  14.024
88004W        W49458  30.530  40.413  14.281
88005W        W49459  28.436  40.914   4.340
88006W        W49460  24.977  19.676   3.741
88007W        W49461   6.328  10.762  12.089
88008W        W49462   0.822  10.773  12.857
88009W        W49463  14.122  11.256   3.764
88010W        W49464  25.572  24.534   0.458
88011W        W49465  16.580  38.934   3.704
88012W        W49466   5.715   9.223  13.829
88013W        W49467   9.347  24.160   1.417
88014W        W49468  43.904  13.283   3.669
88015W        W49469  43.384  33.485   0.446
88016W        W49470  19.069   0.443   3.836
88017W        W49471  40.966  32.627   4.321
88018W        W49472   3.766  30.473   4.203
88019W        W49473  14.833  27.458  14.907
88020W        W49474  17.086  31.428   0.382
88021W        W49475  32.475  38.050  14.860
88022W        W49476  33.541  24.060   1.365
88023W        W49477  43.948  15.690   0.468
88024W        W49478   4.423  12.264  12.431
88025W        W49479   9.160  20.585  14.966
88026W        W49480   4.900   9.887   4.802
88027W        W49481   3.443  29.966  14.336
88028W        W49482  21.102  22.205   3.385
88029W        W49483   8.901  26.610  13.032
88030W        W49484  33.387  23.658  13.013
88031W        W49485  14.807   1.416  14.958
88032W        W49486  16.098  28.136   9.940
88033W        W49487  41.806  28.470   3.704
88034W        W49488  15.105  18.154   5.248
88035W        W49489  33.562  22.239  11.509
88036W        W49490  41.389  20.527  13.360
88037W        W49491  25.504  29.520  14.389
88038W        W49492  21.100  39.537  12.534
88039W        W49493   5.864  26.173  10.612
88040W        W49494  11.784  31.954  12.439
88041W        W49495  16.149   2.900  10.618
88042W        W49496  42.426  40.856   3.731
88043W        W49497  11.769  40.979   2.236
88044W        W49498  39.322  17.303  14.010
88045W        W49499   2.897  28.025  12.486
88046W        W49500  29.548  10.838  13.931
88047W        W49501  23.110  35.103  10.555
88048W        W49502   4.737   1.370   2.204
88049W        W49503  41.393  12.349   2.280
88050W        W49504   3.807  20.727  11.857
88051W        W49505  22.117  11.652  13.318
88052W        W49506   7.704   1.266   4.608
88053W        W49507  43.821  25.989  11.072
88054W        W49508  41.935  29.575   0.866
88055W        W49509  24.494  10.808  11.463
88056W        W49510  12.136   9.323  14.301
88057W        W49511  31.037   1.772  12.883
88058W        W49512   1.772   1.867   0.844
88059W        W49513   3.452  26.695  11.060
88060W        W49514  42.462  41.452   1.745
88061W        W49515  21.622  36.963   2.346
88062W        W49516  42.491   7.186  10.524
88063W        W49517   3.364  26.049   4.655
88064W        W49518   5.301   3.919   3.848
88065W        W49519   3.810   0.466   3.314
88066W        W49520  11.813  24.025   1.349
88067W        W49521  38.434  34.006  14.847
88068W        W49522  42.312  31.469  12.367
88069W        W49523  15.796  21.538  10.639
88070W        W49524  39.862  31.019  12.079
88071W        W49525   2.864  28.979   2.202
88072W        W49526  13.331  24.185  12.520
88073W        W49527  32.139   1.413  13.801
88074W        W49528  32.439  39.529   3.349
88075W        W49529  39.007   9.191   3.797
88076W        W49530  18.548   6.802   4.698
88077W        W49531  41.400  15.799   2.672
88078W        W49532  28.544  20.198  11.113
88079W        W49533   2.848  25.968  11.439
88080W        W49534  35.040  10.279  10.511
88081W        W49535  18.749   9.346   3.271
88082W        W49536  31.131  43.941   4.208
88083W        W49537   7.739  40.538   4.309
88084W        W49538  39.000  23.229  12.494
88085W        W49539   8.180  20.632  12.483
88086W        W49540  14.334  38.042   0.355
88087W        W49541   8.894  44.295  12.397
88088W        W49542  21.518   1.830   2.783
88089W        W49543   7.278   8.856  10.569
88090W        W49544  32.550  42.463   2.722
88091W        W49545   1.886  12.758  11.489
88092W        W49546  24.201  38.997  11.049
88093W        W49547  28.073  37.897   0.952
88094W        W49548  30.505  29.616  11.863
88095W        W49549   9.193  44.390  10.605
88096W        W49550  23.606  31.897  13.399
88097W        W49551  17.572  17.651   1.722
88098W        W49552   7.332  34.938   4.641
88099W        W49553  24.010  29.511   1.214
88100W        W49554  43.766   8.215   0.768
88101W        W49555  31.965  13.784   0.299
88102W        W49556   1.853  43.912  10.895
88103W        W49557  27.576  31.578   4.281
88104W        W49558  15.132   5.388  13.990
88105W        W49559   5.724   6.384   0.390
88106W        W49560  29.000  40.448  11.984
88107W        W49561  13.613   3.323  12.871
88108W        W49562  44.420   3.794   0.802
88109W        W49563  32.948  14.652   0.889
88110W        W49564  21.022  39.392   2.205
88111W        W49565   6.233   2.762  10.627
88112W        W49566  38.895  33.975  10.939
88113W        W49567  22.701  17.719   3.764
88114W        W49568  32.519  36.571  13.962
88115W        W49569   8.243  19.255  13.048
88116W        W49570   5.811  22.580   0.464
88117W        W49571  36.486  13.267   0.252
88118W        W49572  23.631  16.699  11.395
88119W        W49573  36.866  40.938  10.586
88120W        W49574  42.817  24.674   4.787
88121W        W49575  10.166  43.993  14.977
88122W        W49576  42.985  26.539  11.583
88123W        W49577  16.675  14.289  13.537
88124W        W49578  24.711   8.685  12.865
88125W        W49579  21.660   3.237   0.912
88126W        W49580   3.890  11.866   1.252
88127W        W49581  31.460   9.736  11.894
88128W        W49582  35.861  33.941   3.247
88129W        W49583  27.121  19.647  10.586
88130W        W49584   5.869   9.646  10.974
88131W        W49585  29.653  42.450   3.844
88132W        W49586  16.586  29.570   2.319
88133W        W49587  12.760  12.337  12.932
88134W        W49588  16.746   3.917   1.934
88135W        W49589  40.028  42.906  11.539
88136W        W49590  35.360   9.322  12.927
88137W        W49591  17.122  24.537   4.747
88138W        W49592  15.698   3.355  13.967
88139W        W49593  34.507  28.564  12.093
88140W        W49594  17.636  15.323  14.782
88141W        W49595  28.029  39.374   0.864
88142W        W49596  33.512  23.129  13.884
88143W        W49597  19.085  11.314   3.343
88144W        W49598  44.406  37.004   0.906
88145W        W49599  37.979  39.483  14.447
88146W        W49600  34.874  17.178   3.807
88147W        W49601  33.589  35.860  10.014
88148W        W49602   8.742  32.909   1.928
88149W        W49603  19.619  25.571   1.790
88150W        W49604  13.613  32.095   0.337
88151W        W49605  15.815  26.622   2.764
88152W        W49606  26.059   0.459   1.893
88153W        W49607  16.257  34.948  12.092
88154W        W49608   3.247  24.699  14.470
88155W        W49609  19.614  35.105  12.410
88156W        W49610  28.972  27.047  11.027
88157W        W49611  10.877   8.183   1.729
88158W        W49612  29.609   0.274   1.418
88159W        W49613  44.867  38.829  10.427
88160W        W49614  17.594   0.377   0.392
88161W        W49615  31.081  22.016  13.546
88162W        W49616  44.363  32.507   0.889
88163W        W49617  21.707  25.689  14.013
88164W        W49618  17.572  15.654  14.280
88165W        W49619  43.300   1.933  11.472
88166W        W49620  45.000  43.480   2.814
88167W        W49621   6.897  13.234  14.023
88168W        W49622  34.387   0.900  14.385
88169W        W49623   9.370  26.001  14.887
88170W        W49624  29.108  27.685  14.414
88171W        W49625  31.451  29.569  10.919
88172W        W49626   2.727  28.437  11.406
88173W        W49627  16.702  14.294  11.981
88174W        W49628  29.100  16.754  11.115
88175W        W49629   5.437   1.366   1.713
88176W        W49630  21.241   1.476  12.045
88177W        W49631  39.480  38.338  12.402
88178W        W49632  35.514  35.558  12.341
88179W        W49633  14.255   2.949  13.859
88180W        W49634   7.278  19.668   1.271
88181W        W49635   2.798  13.268   4.836
88182W        W49636  15.605  34.074   2.238
88183W        W49637  12.144  20.762   5.734
88184W        W49638   9.346  16.107   1.390
88185W        W49639  17.226  34.093   1.323
88186W        W49640  22.519  37.070   3.834
88187W        W49641  14.199  19.100   0.792
88188W        W49642  41.008   3.347   3.663
88189W        W49643  13.195  20.704  13.347
88190W        W49644  15.661  33.382  13.479
88191W        W49645  34.559  32.437   0.781
88192W        W49646  11.297  23.075   3.192
88193W        W49647  31.637  25.631  12.010
88194W        W49648  42.515  25.625   3.329
88195W        W49649  29.171  27.006   1.866
88196W        W49650  17.303   5.698  11.126
88197W        W49651  31.542  32.999  12.391
88198W        W49652   3.423  16.695   1.870
88199W        W49653   3.741   7.197  12.344
88200W        W49654  30.050  24.681   0.769
88201W        W49655  18.247   4.445  13.321
88202W        W49656  16.135  25.050   1.326
88203W        W49657  19.681  18.694   4.712
88204W        W49658  21.178  40.956   4.349
88205W        W49659  16.128  13.201  11.116
88206W        W49660   8.307  41.832  12.992
88207W        W49661   5.262   3.713  10.926
88208W        W49662  34.508   8.183  11.590
88209W        W49663  43.769   3.851  13.479
88210W        W49664  17.560   3.403   1.407
88211W        W49665  25.573   6.811   0.262
88212W        W49666  34.576  24.645   3.264
88213W        W49667  20.140  44.831  10.947
88214W        W49668  25.533  16.607   4.350
88215W        W49669  22.592  10.332   0.397
88216W        W49670  11.685  11.178  11.890
88217W        W49671  30.911   3.300  13.836
88218W        W49672   4.811  18.727   3.743
88219W        W49673  26.980  38.065  10.462
88220W        W49674  15.630  36.547  13.815
88221W        W49675  36.351  43.011  14.898
88222W        W49676  27.660  27.948  10.582
88223W        W49677  37.019  37.835   2.238
88224W        W49678  14.814  17.236   4.342
88225W        W49679  32.940   9.190  12.367
88226W        W49680  22.214   7.821   1.910
88227W        W49681  21.236  42.287   4.295
88228W        W49682  11.160  35.441  13.851
88229W        W49683  36.499  18.276  11.444
88230W        W49684  25.561  42.369   1.409
88231W        W49685  29.141   3.227  12.956
88232W        W49686   6.770   5.331  10.910
88233W        W49687  25.971  28.004  11.084
88234W        W49688   2.777  25.980  11.049
88235W        W49689   1.294   6.825  13.548
88236W        W49690  13.762  43.869   1.804
88237W        W49691  25.182   4.360   3.813
88238W        W49692   3.890  18.270   3.767
88239W        W49693  41.373  16.199   3.246
88240W        W49694  21.742  31.009   2.771
88241W        W49695  38.534  38.053  10.990
88242W        W49696   0.938  23.129  11.565
88243W        W49697  27.976  24.225  14.006
88244W        W49698  11.139  44.993   2.863
88245W        W49699  33.531  23.576   1.843
88246W        W49700  40.867  33.605   1.904
88247W        W49701  30.495  40.432  14.843
88248W        W49702  20.552  38.904  11.889
88249W        W49703   7.376  20.064  10.641
88250W        W49704  44.392  16.305   2.680
88251W        W49705   6.273  32.062   2.291
88252W        W49706  27.979  35.596  12.432
88253W        W49707  11.286  16.309   0.402
88254W        W49708   9.868  37.997  12.944
88255W        W49709  27.082  43.772  13.441
88256W        W49710   9.340  36.350  11.917
88257W        W49711  21.592  43.279   2.693
88258W        W49712  34.866  41.898   0.354
88259W        W49713  10.650  23.046   2.290
88260W        W49714  15.102  20.066   9.519
88261W        W49715   1.900  23.548   4.792
88262W        W49716   8.771  24.064  14.838
88263W        W49717  44.793  30.480   4.296
88264W        W49718  19.541  17.288  14.902
88265W        W49719   4.827  15.696   4.189
88266W        W49720   3.310   9.242   1.253
88267W        W49721  24.079  37.470  10.555
88268W        W49722  44.379  39.997   0.843
88269W        W49723  12.689  34.987  12.475
88270W        W49724  30.447   0.389  13.401
88271W        W49725  38.419  18.090   4.643
88272W        W49726  33.037  23.218   2.376
88273W        W49727  18.184  40.946   3.159
88274W        W49728  14.282  19.120  14.852
88275W        W49729  25.625  38.534   4.681
88276W        W49730   9.232  34.458  14.999
88277W        W49731  42.284   0.492  14.304
88278W        W49732  22.621  39.823  13.803
88279W        W49733  34.053  15.711  12.488
88280W        W49734   0.884  39.505   3.708
88281W        W49735  23.550  36.545  10.907
88282W        W49736  23.169  44.329  13.352
88283W        W49737  34.562  25.565   0.793
88284W        W49738  42.411  20.094   1.444
88285W        W49739  15.095  28.984  11.981
88286W        W49740  23.586  35.988   4.326
88287W        W49741  24.545   4.762  13.062
88288W        W49742  36.952   5.759   1.859
88289W        W49743  13.684   3.249   3.346
88290W        W49744  23.131  22.144   1.911
88291W        W49745  42.398  43.903  11.085
88292W        W49746  24.517   3.293  13.058
88293W        W49747  24.038  36.907   2.314
88294W        W49748  40.916  23.490   3.357
88295W        W49749  32.888  43.021  11.444
88296W        W49750   6.377  40.374  11.921
88297W        W49751  34.441  23.526   2.732
88298W        W49752   1.921  39.419   2.873
88299W        W49753  15.200  14.237   0.430
88300W        W49754  17.202  44.368   3.673
88301W        W49755  15.232  30.971  11.060
88302W        W49756  15.600  25.040   4.316
88303W        W49757  21.745  14.796  14.001
88304W        W49758  30.962  25.166  12.926
88305W        W49759  13.320  41.037   2.688
88306W        W49760  25.696   7.894   3.220
88307W        W49761  39.544  10.175  13.865
88308W        W49762  21.681  23.170   2.227
88309W        W49763  30.959  11.858  13.328
88310W        W49764  14.818  19.735   1.891
88311W        W49765   7.858   6.298  11.856
88312W        W49766  38.408  36.473  14.486
88313W        W49767  26.684  23.184  14.441
88314W        W49768  12.685  24.019  12.561
88315W        W49769  15.275  37.502  12.362
88316W        W49770  16.678  38.875  10.491
88317W        W49771   4.771  29.122   1.840
88318W        W49772  25.997   2.888   2.276
88319W        W49773   1.338  30.024  10.458
88320W        W49774  36.472  34.086   4.309
88321W        W49775  18.109   9.216   4.719
88322W        W49776  38.365  36.996  11.862
88323W        W49777  42.786   7.771  13.928
88324W        W49778  22.175   2.258  12.390
88325W        W49779   8.203   8.268  10.985
88326W        W49780  35.021  42.476  12.952
88327W        W49781   0.891  39.434  11.986
88328W        W49782  17.280  23.238   3.369
88329W        W49783  26.050  14.325   0.750
88330W        W49784  14.205  15.587   5.082
88331W        W49785   9.172  41.354   1.924
88332W        W49786  21.544  12.680  11.939
88333W        W49787  10.686  38.073  11.448
88334W        W49788  43.787  38.391  10.985
88335W        W49789  21.182  30.588   4.795
88336W        W49790  16.184  38.338   4.647
88337W        W49791   6.742  34.077  10.992
88338W        W49792  27.071   7.373  14.930
88339W        W49793  18.780  32.977  10.440
88340W        W49794  44.395  14.203   3.775
88341W        W49795   1.256  28.463   1.265
88342W        W49796  25.589  25.204  10.505
88343W        W49797  40.375  40.362   1.781
88344W        W49798  41.428  40.514   0.469
88345W        W49799  29.984  34.994  11.577
88346W        W49800  37.552  38.983  10.577
88347W        W49801  12.336  11.661   1.297
88348W        W49802  17.243  28.018   2.265
88349W        W49803  28.637   0.838   4.228
88350W        W49804  19.058  35.450   4.647
88351W        W49805  36.976  14.246  13.857
88352W        W49806   4.787   6.811   0.356
88353W        W49807  24.543   6.817   3.845
88354W        W49808  18.760   7.216  12.886
88355W        W49809  44.425   1.289  10.984
88356W        W49810  16.200  26.073   1.909
88357W        W49811  35.524  18.136   3.324
88358W        W49812  32.102  17.634  10.583
88359W        W49813  25.545  36.913   1.316
88360W        W49814  21.609  11.240   0.461
88361W        W49815  42.981  19.734   3.838
88362W        W49816  43.380  26.625  10.574
88363W        W49817  32.429  28.946   0.962
88364W        W49818  16.630  23.673  14.315
88365W        W49819   0.755   7.756   3.744
88366W        W49820   0.872  34.900  13.808
88367W        W49821   9.215  12.732   9.979
88368W        W49822  29.654   8.803  14.299
88369W        W49823  43.382   0.364  14.502
88370W        W49824  11.345  18.180  14.772
88371W        W49825  28.556  13.261  11.061
88372W        W49826  27.985   5.424   3.173
88373W        W49827  41.958  30.031  11.540
88374W        W49828  10.757  37.866   2.805
88375W        W49829  32.904  34.101   0.864
88376W        W49830  24.980  24.604  11.396
88377W        W49831  35.017  18.216  12.459
88378W        W49832   7.771   5.212   1.261
88379W        W49833  32.992  11.291   9.602
88380W        W49834  30.030  42.319   3.347
88381W        W49835  29.119   1.779   4.664
88382W        W49836  44.351  36.845   2.310
88383W        W49837  17.254  31.460  13.470
88384W        W49838  16.106   4.417  13.508
88385W        W49839  14.772  42.308   3.768
88386W        W49840   5.199   4.718   2.897
88387W        W49841  31.403   3.827  12.999
88388W        W49842  41.975  18.170  11.100
88389W        W49843  40.472  31.989  13.807
88390W        W49844  29.485  39.000  10.976
88391W        W49845   2.339   5.406   1.279
88392W        W49846  24.147   2.350  13.003
88393W        W49847  25.040  29.007  13.524
88394W        W49848  25.017  35.086   0.785
88395W        W49849  34.055  36.980  11.490
88396W        W49850   5.273  31.619  14.892
88397W        W49851  18.133  40.493   2.676
88398W        W49852  15.190  15.604   2.351
88399W        W49853  29.033  12.347  11.595
88400W        W49854  28.666  10.807   3.781
88401W        W49855  41.492  36.025  13.527
88402W        W49856   6.311  30.013  12.553
88403W        W49857  39.937  40.825   2.272
88404W        W49858  31.435  38.444   3.780
88405W        W49859  41.868  36.848  14.769
88406W        W49860  42.009  14.692  12.052
88407W        W49861  17.158  11.369  11.046
88408W        W49862  44.846  32.607  13.429
88409W        W49863  28.652  19.619   4.312
88410W        W49864  31.950  44.786   1.819
88411W        W49865  15.585  25.987  14.852
88412W        W49866  40.510  44.346  12.088
88413W        W49867  11.325   2.929   3.773
88414W        W49868   6.787  27.168   0.474
88415W        W49869  14.218   5.366  11.446
88416W        W49870  37.493  11.770  14.877
88417W        W49871   1.850  14.262   3.327
88418W        W49872   4.894  44.396   3.157
88419W        W49873  30.106  11.862  13.445
88420W        W49874  37.482   0.286   2.344
88421W        W49875   6.728   5.819  14.866
88422W        W49876  33.418  41.027   4.330
88423W        W49877   6.257  19.261   2.286
88424W        W49878  23.038   4.829   9.941
88425W        W49879  17.247  37.870  10.485
88426W        W49880  16.177  40.335  11.471
88427W        W49881  29.147   5.817   0.306
88428W        W49882  15.269  38.032  12.937
88429W        W49883  37.952  43.938   3.193
88430W        W49884  15.695   5.251   1.262
88431W        W49885  34.466   7.789   0.729
88432W        W49886  25.054  31.028  11.375
88433W        W49887  12.805  27.101   0.853
88434W        W49888  41.894  39.004   0.931
88435W        W49889  32.917  25.527   3.187
88436W        W49890  30.074  26.580   2.815
88437W        W49891   4.406  24.031  12.069
88438W        W49892  30.570  14.733   1.266
88439W        W49893  14.204  31.051  11.993
88440W        W49894  35.561  12.116   2.881
88441W        W49895  35.855   5.276  14.278
88442W        W49896  35.471  21.580  14.760
88443W        W49897   0.866  14.687  12.482
88444W        W49898  29.512  22.529   1.752
88445W        W49899  32.493  22.048  11.962
88446W        W49900  38.466  31.481  10.527
88447W        W49901   0.769  19.263  12.961
88448W        W49902   6.739  13.177   4.795
88449W        W49903  34.447  16.182  14.863
88450W        W49904  40.352   3.394  12.452
88451W        W49905   8.286  25.106   1.246
88452W        W49906  23.233  25.570  11.377
88453W        W49907  40.958  14.215  11.906
88454W        W49908  44.839  38.996   3.365
88455W        W49909  44.007  32.034   3.793
88456W        W49910  44.993  40.973  12.858
88457W        W49911  13.210   2.933  11.050
88458W        W49912   0.949  24.038   4.261
88459W        W49913  18.173  31.619  11.005
88460W        W49914   8.167  31.485  11.974
88461W        W49915  35.030  37.343  10.429
88462W        W49916  38.564  20.189  12.516
88463W        W49917  25.057  17.657  10.452
88464W        W49918  36.408  38.383   3.841
88465W        W49919  34.046  42.863   3.725
88466W        W49920  29.525  39.457   4.834
88467W        W49921  31.419  32.924   5.177
88468W        W49922  16.267  13.154   2.275
88469W        W49923  43.300  30.414   4.756
88470W        W49924   2.449  33.456   1.236
88471W        W49925  26.149  27.630   4.257
88472W        W49926  17.641  22.689  14.784
88473W        W49927  21.081  30.947   3.808
88474W        W49928  13.309  31.640   2.711
88475W        W49929  19.128  34.419  13.519
88476W        W49930  12.747  23.561  12.895
88477W        W49931   4.937  22.167   0.924
88478W        W49932  15.661  42.358  11.911
88479W        W49933   7.869   2.800   1.328
88480W        W49934  44.770   4.424  13.363
88481W        W49935   4.436  16.086  14.899
88482W        W49936  25.076  22.678   1.913
88483W        W49937  36.957  18.740   2.870
88484W        W49938  32.589  29.623   4.181
88485W        W49939  44.386  42.946   0.881
88486W        W49940  29.926   9.882   1.869
88487W        W49941  35.931  40.362   5.210
88488W        W49942   9.876   6.712  14.778
88489W        W49943  24.136   5.930  10.983
88490W        W49944  38.419  18.725  12.948
88491W        W49945  18.620   6.252  14.804
88492W        W49946  27.652   7.785   2.669
88493W        W49947  11.273  41.477   4.122
88494W        W49948   0.987   5.224  10.901
88495W        W49949  28.998  34.880   4.318
88496W        W49950  27.606  19.659   0.730
88497W        W49951  26.492  31.551  11.531
88498W        W49952  15.720  34.871   3.860
88499W        W49953  29.559  30.074   2.374
88500W        W49954  44.285  43.455   1.769
88501W        W49955  12.715  34.566  13.328
88502W        W49956  38.004  14.338  13.918
88503W        W49957   1.358  11.144  11.428
88504W        W49958   3.231   5.237   4.765
88505W        W49959   6.404  10.876  13.350
88506W        W49960  39.045  30.588  11.446
88507W        W49961  29.117   4.869   3.810
88508W        W49962  19.223   6.423  11.560
88509W        W49963  26.526   9.290  12.407
88510W        W49964  24.551   5.233   2.872
88511W        W49965  32.477   6.257  13.428
88512W        W49966  41.843   8.871  11.065
88513W        W49967   3.934  19.698   2.666
88514W        W49968  33.490  27.466  13.846
88515W        W49969  42.333  20.653   4.296
88516W        W49970  30.654   1.259   2.692
88517W        W49971   2.295  16.192  13.420
88518W        W49972  21.577  20.194   2.197
88519W        W49973   5.822  38.062   1.247
88520W        W49974  34.973  31.428  11.587
88521W        W49975  16.249  26.489  14.346
88522W        W49976  38.974   2.875   1.708
88523W        W49977  13.256   2.426   0.428
88524W        W49978  39.038  35.002   2.314
88525W        W49979   1.322  16.648   1.892
88526W        W49980  19.189  35.506   4.346
88527W        W49981   9.303  26.125   1.889
88528W        W49982  41.838  20.142   4.694
88529W        W49983  31.551  12.758   1.883
88530W        W49984  31.436  23.187  12.430
88531W        W49985  26.979  23.536   3.161
88532W        W49986  35.400  40.981  11.947
88533W        W49987   8.777  31.074  10.645
88534W        W49988   4.876  30.013  10.122
88535W        W49989  37.979  26.086  14.313
88536W        W49990   5.319  42.396  13.338
88537W        W49991  43.330  42.844   2.379
88538W        W49992   3.825  30.135   4.759
88539W        W49993  35.384  17.267  13.832
88540W        W49994   9.182   8.293   4.188
88541W        W49995  12.292  14.237   3.284
88542W        W49996  12.326  10.837  14.962
88543W        W49997  31.517  17.736   1.297
88544W        W49998  19.755   4.855  11.421
88545W        W49999  41.440   3.254   0.888
88546W        W50000  31.461  18.614  13.326
88547W        W50001  37.865  19.245  13.421
88548W        W50002  35.359  31.454  10.508
88549W        W50003  37.430  18.245  12.899
88550W        W50004  10.770  10.804  13.020
88551W        W50005  35.921  44.936  13.447
88552W        W50006  33.426  36.913  12.833
88553W        W50007  10.371   5.924   0.783
88554W        W50008  22.196  34.932  12.008
88555W        W50009   9.158  27.681  12.519
88556W        W50010  33.984  18.586   2.887
88557W        W50011  17.726   5.701  13.932
88558W        W50012  29.456  37.385   3.221
88559W        W50013  35.406  25.553   1.724
88560W        W50014  22.250  14.641  11.522
88561W        W50015  44.882   8.718   2.340
88562W        W50016  13.608  13.840  14.468
88563W        W50017  22.607  30.156  11.602
88564W        W50018   5.854  20.655  12.963
88565W        W50019  27.983  33.614   1.715
88566W        W50020  37.979   9.726   2.308
88567W        W50021   4.763  27.576   3.700
88568W        W50022   2.305  17.638   0.392
88569W        W50023  22.101  20.732  13.480
88570W        W50024   2.874  40.360  11.080
88571W        W50025  26.196  26.053  12.846
88572W        W50026  27.630  37.555  11.975
88573W        W50027   8.813  44.361  13.884
88574W        W50028  19.664  24.698  11.529
88575W        W50029  25.111  39.893  11.904
88576W        W50030  22.115   7.827  12.391
88577W        W50031  43.927   0.477  10.890
88578W        W50032  16.805   7.247  14.009
88579W        W50033  19.278  38.430   2.848
88580W        W50034   6.734  37.501  12.483
88581W        W50035  41.860  26.957   4.320
88582W        W50036   9.767  33.018  14.354
88583W        W50037  21.078  43.298   2.702
88584W        W50038   7.307   5.394  11.602
88585W        W50039  30.915  41.531   0.446
88586W        W50040  20.189   6.237   4.266
88587W        W50041  37.054  15.663  14.980
88588W        W50042  33.417  37.953   0.333
88589W        W50043  22.015   3.835  13.481
88590W        W50044  29.928  23.061   1.730
88591W        W50045  43.890  33.544  12.382
88592W        W50046  15.262   5.839   3.263
88593W        W50047   1.757   3.888   2.786
88594W        W50048  24.067  17.610   3.251
88595W        W50049  30.429   0.809  12.904
88596W        W50050  13.802   8.399  13.833
88597W        W50051  34.027  39.905  13.884
88598W        W50052  26.525  17.101   5.168
88599W        W50053  33.955  13.706   4.719
88600W        W50054   4.248  31.102   2.236
88601W        W50055   9.857  28.603   2.240
88602W        W50056  23.051  31.492   3.332
88603W        W50057  19.757  36.909  10.920
88604W        W50058  37.546  39.879  12.354
88605W        W50059   6.375   6.762   3.864
88606W        W50060  31.080  35.483  12.052
88607W        W50061  28.605   7.705   4.279
88608W        W50062  19.558  30.907  10.633
88609W        W50063  14.170  42.976   0.937
88610W        W50064  12.283  32.952  11.119
88611W        W50065  41.919  28.980  11.406
88612W        W50066  10.274  15.125   1.333
88613W        W50067  44.961  16.229  13.379
88614W        W50068  40.862  37.552  11.461
88615W        W50069  36.071   6.328  14.784
88616W        W50070  13.196   1.764   2.305
88617W        W50071  34.469  25.641   1.721
88618W        W50072  20.201  36.584  12.881
88619W        W50073  23.539   5.688  12.556
88620W        W50074  12.687  16.298  14.427
88621W        W50075  37.967  36.069  12.423
88622W        W50076  32.510  43.305   4.230
88623W        W50077  17.583  26.509   3.704
88624W        W50078  43.358  34.435  14.486
88625W        W50079  33.023  17.766  10.450
88626W        W50080   4.795  24.978  14.340
88627W        W50081  42.027  24.628  11.411
88628W        W50082  13.272  38.401   5.717
88629W        W50083  34.527   4.405   3.297
88630W        W50084   7.315  43.475   1.426
88631W        W50085  37.842  14.311  14.968
88632W        W50086  22.218  33.501   0.952
88633W        W50087  38.327   3.352  13.489
88634W        W50088  41.516  39.811  10.420
88635W        W50089  11.234  24.485   0.256
88636W        W50090  40.447  11.867   3.312
88637W        W50091  12.248  24.491   1.913
88638W        W50092  38.541   2.887   0.249
88639W        W50093  28.558  29.160   4.256
88640W        W50094  20.057  27.451   0.918
88641W        W50095  39.828  10.822  11.528
88642W        W50096   4.740   4.863  11.950
88643W        W50097  16.605  20.670   2.363
88644W        W50098  28.441  35.939   4.279
88645W        W50099  31.914  31.506   4.755
88646W        W50100  13.105  17.204  11.464
88647W        W50101  29.456   6.889  11.925
88648W        W50102  11.238  12.224   4.814
88649W        W50103  13.764  32.636  13.017
88650W        W50104   1.752  19.630   4.278
88651W        W50105  18.765  18.632  12.464
88652W        W50106  19.647   9.664   2.278
88653W        W50107  32.465  23.668  13.055
88654W        W50108  37.395  24.138   4.819
88655W        W50109  21.151   0.847  10.450
88656W        W50110  18.565  23.116   0.313
88657W        W50111  35.991  12.698  12.455
88658W        W50112  21.741  23.612  12.428
88659W        W50113  44.480  21.207   0.773
88660W        W50114  36.948   7.671   3.842
88661W        W50115   7.759  11.821  13.541
88662W        W50116  34.598  29.547   3.633
88663W        W50117  33.129  37.368   2.349
88664W        W50118   5.703  30.446   9.953
88665W        W50119   6.790  19.057  13.958
88666W        W50120  10.190  29.004   0.805
88667W        W50121  27.195  41.417  14.807
88668W        W50122  35.541  19.696   2.228
88669W        W50123   2.256  35.503  11.095
88670W        W50124  17.588  10.736   2.857
88671W        W50125  15.648  38.410  13.003
88672W        W50126   0.868  28.533   2.355
88673W        W50127  19.572  43.795   3.861
88674W        W50128  23.125   9.285   4.815
88675W        W50129   8.755  32.551  14.404
88676W        W50130  37.526  33.423   3.281
88677W        W50131  40.946   5.789  14.860
88678W        W50132  38.402  15.761  11.037
88679W        W50133  34.930  35.880   3.806
88680W        W50134  28.993  37.999   0.446
88681W        W50135   8.883   3.432   3.801
88682W        W50136   5.731   4.883  13.044
88683W        W50137  22.158  29.595  14.788
88684W        W50138   9.390  39.960  11.026
88685W        W50139  44.893  13.178   0.290
88686W        W50140   7.876  22.666   2.671
88687W        W50141  26.991  28.107   1.788
88688W        W50142  39.349  21.606  10.933
88689W        W50143   7.882  42.362  11.534
88690W        W50144  26.077  36.426   3.255
88691W        W50145  23.541  11.682   0.956
88692W        W50146   2.368  24.169  14.918
88693W        W50147  25.675  34.609  10.495
88694W        W50148  36.470  27.451  11.445
88695W        W50149  41.788   7.839   2.898
88696W        W50150  33.602  23.565   3.368
88697W        W50151  12.666  13.731   0.949
88698W        W50152  37.546   8.167  10.601
88699W        W50153  28.055   6.722  12.904
88700W        W50154  19.274   7.271  12.974
88701W        W50155  23.686  27.163  14.373
88702W        W50156  43.275  39.837   4.226
88703W        W50157  27.452  35.030  13.369
88704W        W50158  29.931  14.821  10.917
88705W        W50159  31.435  24.977   3.855
88706W        W50160   6.300  17.748  10.428
88707W        W50161  22.213   6.743   1.448
88708W        W50162  11.687  39.551  14.294
88709W        W50163   6.788   8.386  11.490
88710W        W50164   6.842   3.297  14.981
88711W        W50165   4.314  11.143   4.169
88712W        W50166  14.305  21.717  13.515
88713W        W50167  10.279  27.477  11.426
88714W        W50168   0.832   1.950  12.047
88715W        W50169  34.551   0.871  11.029
88716W        W50170  16.616  30.144  11.094
88717W        W50171  12.801   8.719   1.356
88718W        W50172  17.143  33.596  13.435
88719W        W50173  19.765  23.710  14.016
88720W        W50174  29.565  24.629  14.791
88721W        W50175  15.637  41.898   5.232
88722W        W50176  30.984  18.742  12.442
88723W        W50177   2.318   3.355  12.423
88724W        W50178  44.996  41.880   4.623
88725W        W50179  43.423  22.176   2.693
88726W        W50180  43.397  26.684  11.531
88727W        W50181   4.304   5.336   0.798
88728W        W50182   8.385  13.256   2.249
88729W        W50183  44.960  28.657   2.282
88730W        W50184  17.204  17.740   2.223
88731W        W50185  42.512  32.104  11.392
88732W        W50186  40.911  27.477   2.795
88733W        W50187   7.719  38.980   3.771
88734W        W50188  18.733  25.009  14.031
88735W        W50189   4.246  40.808   3.769
88736W        W50190  32.025  18.555  11.897
88737W        W50191  31.943  11.242  13.340
88738W        W50192  25.570   5.855   1.242
88739W        W50193  34.510   9.297   2.179
88740W        W50194  10.209  41.938  11.014
88741W        W50195  23.508  34.980   2.758
88742W        W50196  31.473   4.291  14.958
88743W        W50197  34.903  14.773  11.116
88744W        W50198  17.284  11.360  13.886
88745W        W50199  29.008  37.499   0.305
88746W        W50200   4.762  21.185   3.247
88747W        W50201  22.518  26.491   3.825
88748W        W50202  15.675  25.171  14.466
88749W        W50203   6.306   7.788   4.337
88750W        W50204   6.911  21.110  11.001
88751W        W50205   1.467  27.030   4.682
88752W        W50206   4.805   0.385   1.748
88753W        W50207  33.903  15.717   2.698
88754W        W50208  11.673  36.420  13.378
88755W        W50209  42.390  23.097  10.610
88756W        W50210   8.678   3.826  11.044
88757W        W50211  15.208  13.657  11.472
88758W        W50212  38.408  27.688  14.371
88759W        W50213  29.432   6.714  12.472
88760W        W50214  13.778  14.637   0.863
88761W        W50215  44.991  16.285  14.889
88762W        W50216  24.103  24.098  13.350
88763W        W50217  44.827  43.784  11.124
88764W        W50218  27.991  17.743   4.216
88765W        W50219  22.652  18.662   1.895
88766W        W50220  29.617   7.400  12.468
88767W        W50221  42.922   3.274  10.418
88768W        W50222  14.259  38.430  13.508
88769W        W50223  15.794   7.856   4.200
88770W        W50224  13.814  15.186  13.376
88771W        W50225   8.791  30.646   4.779
88772W        W50226   1.953   1.902  12.022
88773W        W50227  25.161  24.154   2.234
88774W        W50228  40.988  15.632  14.975
88775W        W50229   9.205   7.832   0.323
88776W        W50230  32.957  14.300  13.482
88777W        W50231  40.045  20.265   0.444
88778W        W50232  44.285  22.160  10.470
88779W        W50233  26.106  30.051  13.938
88780W        W50234   1.241  10.797   1.328
88781W        W50235  41.968   9.191  10.511
88782W        W50236  14.148  32.099  14.881
88783W        W50237  25.994  44.349  14.769
88784W        W50238   2.326   0.403  13.531
88785W        W50239   8.196  13.203  10.628
88786W        W50240  30.983   2.453  12.516
88787W        W50241  42.374   8.398  14.449
88788W        W50242  36.915   2.465  11.870
88789W        W50243  16.671  29.988  10.611
88790W        W50244  21.681   7.866  13.307
88791W        W50245  23.540   9.230  11.989
88792W        W50246  22.556  26.126   1.841
88793W        W50247  40.450  16.129  12.555
88794W        W50248   5.218  21.179  12.085
88795W        W50249  30.072  31.495  10.906
88796W        W50250  35.889  11.782  12.465
88797W        W50251   0.878  42.833  14.374
88798W        W50252  32.008  26.960  14.022
88799W        W50253  13.828  20.638   1.388
88800W        W50254   2.429  29.173   2.877
88801W        W50255  11.340  38.832   5.265
88802W        W50256  40.308   5.272   2.237
88803W        W50257   6.310  16.734   3.334
88804W        W50258  14.621  22.067  11.966
88805W        W50259   0.473  10.282  11.090
88806W        W50260  22.201  22.059   4.262
88807W        W50261  20.752  24.990   4.709
88808W        W50262  28.594  19.207   1.218
88809W        W50263  40.927  14.105   3.194
88810W        W50264  12.856   6.362  12.445
88811W        W50265  40.475  28.459   1.812
88812W        W50266  25.674  17.718  13.829
88813W        W50267  10.252   0.296  10.111
88814W        W50268  35.534  24.575  12.877
88815W        W50269  31.601   3.408   3.849
88816W        W50270  11.647   8.736   3.799
88817W        W50271  24.594  18.639   2.312
88818W        W50272  23.612   2.403   4.838
88819W        W50273  18.544  39.058  11.924
88820W        W50274  29.950   2.241   1.887
88821W        W50275  11.676  11.309  14.377
88822W        W50276  36.935  26.526  13.315
88823W        W50277  23.202  42.438   1.292
88824W        W50278  15.781  24.105   1.698
88825W        W50279  31.119  26.645  12.894
88826W        W50280  28.007  24.098   2.414
88827W        W50281  33.902   0.406  11.886
88828W        W50282   2.243  34.381   1.263
88829W        W50283  39.872  36.459   1.418
88830W        W50284  13.808   1.867  10.914
88831W        W50285   3.884   1.468  14.285
88832W        W50286  43.487  29.498  14.920
88833W        W50287  19.209  38.019   4.321
88834W        W50288  35.099  40.353   1.450
88835W        W50289  43.396   7.253   4.227
88836W        W50290  10.339  13.670   4.775
88837W        W50291  39.445   5.356   0.423
88838W        W50292  11.143   7.797  12.902
88839W        W50293   4.923  12.613   3.363
88840W        W50294  37.988  35.018  13.902
88841W        W50295  28.175   0.298  10.575
88842W        W50296  33.881  21.755  11.569
88843W        W50297  24.230   7.324  14.785
88844W        W50298  15.169  43.349   3.773
88845W        W50299  24.680  24.533   3.847
88846W        W50300  37.431  33.516   5.127
88847W        W50301   7.341  20.194   0.759
88848W        W50302  32.565  32.445   2.797
88849W        W50303  35.940  35.445  14.807
88850W        W50304  24.666  12.766  14.305
88851W        W50305  17.176  14.736   3.674
88852W        W50306   9.738  15.677  10.971
88853W        W50307  23.530  18.072  11.432
88854W        W50308   8.383  36.399  11.855
88855W        W50309   6.868  44.797  13.322
88856W        W50310  37.860   8.300  11.019
88857W        W50311  14.284  15.759  14.392
88858W        W50312   2.250   8.701   2.196
88859W        W50313  39.960   2.435  11.385
88860W        W50314   2.948  29.076  14.856
88861W        W50315   2.242  38.337   4.608
88862W        W50316  42.473   4.809   1.842
88863W        W50317  11.287   6.426  12.492
88864W        W50318  39.849  28.458   2.310
88865W        W50319  14.700  31.973   9.959
88866W        W50320  41.326  26.193  11.459
88867W        W50321  44.460  18.192  10.132
88868W        W50322   0.393  20.051   4.823
88869W        W50323  37.970  41.506   1.351
88870W        W50324   3.895  37.927  12.911
88871W        W50325   6.336   8.185   0.433
88872W        W50326  18.231  36.981   1.230
88873W        W50327  43.482   6.305   0.815
88874W        W50328  22.744  17.782  14.014
88875W        W50329  37.528  42.831   3.354
88876W        W50330   9.388  17.267  13.998
88877W        W50331  41.330  27.958  14.415
88878W        W50332  35.994   0.415   3.749
88879W        W50333  11.728   4.241  11.999
88880W        W50334   1.813  18.569   2.894
88881W        W50335  13.624  15.279   2.796
88882W        W50336  25.075   2.905  12.859
88883W        W50337  24.658  41.874  14.797
88884W        W50338  29.959  39.878  13.422
88885W        W50339  14.159  29.446   0.882
88886W        W50340   5.837  10.654  12.524
88887W        W50341   1.317   6.787   0.802
88888W        W50342  24.575  38.071  12.464
88889W        W50343  25.962  29.663  10.487
88890W        W50344  27.486  34.448   9.931
88891W        W50345   4.294  16.226   1.434
88892W        W50346   5.690   9.391   1.873
88893W        W50347  28.000  44.435   2.901
88894W        W50348   2.922   0.828  11.971
88895W        W50349  23.105   7.786  13.527
88896W        W50350  16.278  36.582   2.707
88897W        W50351  22.006  10.828  12.039
88898W        W50352  36.954  33.906  13.480
88899W        W50353  16.245  40.515   2.235
88900W        W50354  44.965   3.876  14.869
88901W        W50355  19.741  19.538   4.676
88902W        W50356  21.605  40.998   4.113
88903W        W50357  35.967  44.006   0.898
88904W        W50358  44.428   7.886  14.380
88905W        W50359  30.439  35.010  12.993
88906W        W50360  15.109  16.124   0.863
88907W        W50361  37.978  44.008  12.921
88908W        W50362   4.301  13.620  14.989
88909W        W50363  22.652  21.057   1.392
88910W        W50364  33.425  33.547  14.796
88911W        W50365  14.797  18.752   2.409
88912W        W50366   7.829  43.418  14.844
88913W        W50367  25.141  27.602   3.265
88914W        W50368  33.509  23.095   2.858
88915W        W50369  12.789   6.302  14.770
88916W        W50370  24.723  44.840   0.310
88917W        W50371   8.763  41.844  11.941
88918W        W50372  33.879   6.685   4.640
88919W        W50373  19.278  38.997   3.774
88920W        W50374  15.287  27.573   2.694
88921W        W50375  33.436  44.943  14.302
88922W        W50376  36.564  21.068  13.442
88923W        W50377  37.386   2.820   2.770
88924W        W50378  13.285  29.918   3.153
88925W        W50379  34.491  13.109  14.898
88926W        W50380   5.924   7.189  14.795
88927W        W50381  43.454  41.848   4.793
88928W        W50382  42.963  26.643   3.250
88929W        W50383   6.872  36.032  12.036
88930W        W50384  30.095   5.810   2.786
88931W        W50385  33.454   6.197   2.788
88932W        W50386  44.338  12.798  14.466
88933W        W50387  42.519  36.454   2.846
88934W        W50388   9.237  35.515   4.341
88935W        W50389  10.698  42.419  11.577
88936W        W50390  28.019   2.472   3.818
88937W        W50391  37.076   8.337   1.390
88938W        W50392  44.874   5.354  10.966
88939W        W50393  38.918  28.502   9.982
88940W        W50394   8.170  19.251  10.630
88941W        W50395  13.168  33.115   2.745
88942W        W50396  41.341  30.480  14.319
88943W        W50397  15.624  28.011  14.813
88944W        W50398  10.739   2.820  14.961
88945W        W50399  32.032   1.266   1.924
88946W        W50400   4.923  11.731   1.332
88947W        W50401  32.080  23.192   2.300
88948W        W50402  43.787  10.355   1.342
88949W        W50403   2.340  39.932  13.803
88950W        W50404  23.503   0.332  12.907
88951W        W50405  28.654   0.947   0.312
88952W        W50406  44.381   0.302  12.575
88953W        W50407  26.593  26.544  11.972
88954W        W50408  14.208  23.004  13.327
88955W        W50409  24.118  34.525   2.701
88956W        W50410  31.465  12.182  11.565
88957W        W50411   7.675  17.585  14.978
88958W        W50412   3.268  44.899   4.777
88959W        W50413  38.981  15.607   3.230
88960W        W50414  20.710   0.326   1.841
88961W        W50415   2.893   7.302  12.489
88962W        W50416  20.561  39.481  14.471
88963W        W50417  28.013  39.917   2.859
88964W        W50418  43.812  43.796   2.820
88965W        W50419  13.654  24.033   3.847
88966W        W50420  34.517  30.109   3.169
88967W        W50421  40.493  32.980   1.877
88968W        W50422  27.526  27.566   5.180
88969W        W50423  31.136  23.516   3.786
88970W        W50424  31.407  42.928  14.769
88971W        W50425  11.776  19.674   0.886
88972W        W50426  42.511  27.461   1.735
88973W        W50427   3.945  27.646   0.915
88974W        W50428  43.411  34.524   1.243
88975W        W50429  38.418  27.033   1.753
88976W        W50430  32.055  21.757  10.417
88977W        W50431   2.408  15.756  14.922
88978W        W50432  35.102  26.523  11.886
88979W        W50433  41.906  41.905  10.115
88980W        W50434   7.197  14.100   0.850
88981W        W50435  40.486  32.628  12.473
88982W        W50436  14.201  28.641  14.765
88983W        W50437  17.635  18.574   0.921
88984W        W50438   8.354  33.984  12.413
88985W        W50439  39.050   8.387  11.432
88986W        W50440   8.782  17.748  13.430
88987W        W50441  37.010   3.395  12.544
88988W        W50442  40.830  24.053   0.928
88989W        W50443  28.609   5.759  10.579
88990W        W50444   9.693  10.826   4.225
88991W        W50445  21.646  21.640  12.462
88992W        W50446  43.508  11.220  13.909
88993W        W50447   7.308  40.349  12.348
88994W        W50448  23.164  37.855  11.589
88995W        W50449  43.445  42.435   1.436
88996W        W50450  43.786  17.731   2.714
88997W        W50451  16.168  40.827  13.008
88998W        W50452   3.330  12.203   2.252
88999W        W50453  19.715  23.210  13.934
89000W        W50454  21.081   0.902  12.859
89001W        W50455  29.103  24.703   2.266
89002W        W50456  39.495   7.789  11.511
89003W        W50457  36.051  24.148   0.936
89004W        W50458  27.501  28.125  11.488
89005W        W50459  33.592  25.631   1.750
89006W        W50460  27.518  19.285  11.945
89007W        W50461  30.972  30.564  14.863
89008W        W50462  12.256  14.742  13.867
89009W        W50463  26.024  23.497  13.941
89010W        W50464  33.068  40.524   4.767
89011W        W50465  34.476  40.878   0.381
89012W        W50466  37.582   2.754  11.405
89013W        W50467   1.852  29.124   0.947
89014W        W50468  40.975   0.854   3.641
89015W        W50469  35.456  20.181  12.390
89016W        W50470   4.846  25.521   0.847
89017W        W50471  10.223  25.664  14.342
89018W        W50472  18.282  16.670   3.336
89019W        W50473   3.288   8.168   2.683
89020W        W50474  22.646   1.323  14.358
89021W        W50475  13.617  25.568  14.276
89022W        W50476  25.199  33.453   2.203
89023W        W50477  18.118  13.612   3.277
89024W        W50478   4.877  19.580   2.294
89025W        W50479  15.314  43.903  12.470
89026W        W50480   1.926  41.357   3.775
89027W        W50481  32.136  21.177   4.329
89028W        W50482  26.963  33.387   1.375
89029W        W50483  43.278  15.204  11.982
89030W        W50484  16.183  26.002  10.889
89031W        W50485   4.426  26.206  12.503
89032W        W50486  12.853  20.707   4.125
89033W        W50487   5.706  18.747  14.484
89034W        W50488  12.694   6.728   1.278
89035W        W50489   0.275   2.444  14.375
89036W        W50490  27.530   6.872  14.952
89037W        W50491  20.685  33.912   4.180
89038W        W50492  17.092  42.877   1.930
89039W        W50493  12.831   4.368   2.686
89040W        W50494  34.010  34.390  12.064
89041W        W50495  37.030  36.912   1.787
89042W        W50496  40.356  23.223  11.541
89043W        W50497  19.724  22.240  11.125
89044W        W50498  43.939  24.979  10.963
89045W        W50499  34.501  40.866  14.930
89046W        W50500  26.500  38.486  12.862
89047W        W50501  24.693  27.096   1.213
89048W        W50502   5.728  25.569   0.734
89049W        W50503   8.868   0.968   3.377
89050W        W50504  21.021  31.630   4.158
89051W        W50505  26.641  36.533  11.470
89052W        W50506  37.995   5.279   1.305
89053W        W50507  16.620  33.119   0.843
89054W        W50508  34.988   6.722  14.489
89055W        W50509  44.460  27.156  10.492
89056W        W50510   4.349   7.240   4.740
89057W        W50511  38.535  27.974  13.386
89058W        W50512  15.605  13.296  11.478
89059W        W50513  33.065  10.161   3.828
89060W        W50514   4.340  23.589   4.255
89061W        W50515  33.550  35.379   4.176
89062W        W50516  34.512  24.046   0.394
89063W        W50517   1.468  14.701  14.918
89064W        W50518   9.740   3.252  14.464
89065W        W50519  32.562   4.288   3.316
89066W        W50520  17.302  26.184  10.460
89067W        W50521  19.677  22.073   1.755
89068W        W50522  34.482  33.014  10.888
89069W        W50523  34.113  25.087  11.014
89070W        W50524   6.417  18.216  12.537
89071W        W50525  12.805  21.621   3.288
89072W        W50526  12.215  17.642  11.538
89073W        W50527   6.305   3.265   0.874
89074W        W50528  35.439  39.011   1.757
89075W        W50529  38.010  30.969   3.643
89076W        W50530  18.235  14.284   1.332
89077W        W50531  21.261  13.774   2.857
89078W        W50532   9.852  11.352   2.256
89079W        W50533   0.271  23.585   4.765
89080W        W50534  13.622  26.963  12.437
89081W        W50535   3.366  42.934  10.621
89082W        W50536  44.773  21.221   3.645
89083W        W50537  17.787  16.695  14.842
89084W        W50538  41.798  37.543   0.254
89085W        W50539  23.157   4.858  14.440
89086W        W50540  40.304   8.825   1.341
89087W        W50541  30.092   0.813  10.635
89088W        W50542  34.554  25.702  12.398
89089W        W50543   5.372  11.832   2.288
89090W        W50544  17.269  39.935   1.905
89091W        W50545   3.907  36.459  12.480
89092W        W50546  27.514  41.537   3.313
89093W        W50547  23.061  44.401  10.992
89094W        W50548  32.952  22.127   4.810
89095W        W50549  22.163  39.445  13.366
89096W        W50550  38.353  19.187  12.528
89097W        W50551  43.790  18.778   0.375
89098W        W50552  39.899   6.848  12.923
89099W        W50553  37.365   4.938  10.418
89100W        W50554  33.066  36.910  10.979
89101W        W50555   6.376  29.430  13.811
89102W        W50556  25.498  30.091   3.146
89103W        W50557  40.928   7.681  14.888
89104W        W50558  32.056   5.728  11.597
89105W        W50559  13.810  43.923   3.782
89106W        W50560  14.107  38.950   0.359
89107W        W50561  38.444  39.362   0.319
89108W        W50562  34.432  10.363   0.753
89109W        W50563   2.280  36.842  14.856
89110W        W50564   8.814   2.791   0.400
89111W        W50565  20.662  11.631   4.836
89112W        W50566  39.893   9.162   1.216
89113W        W50567   0.466   5.267   2.392
89114W        W50568  38.868  14.794  12.835
89115W        W50569  27.542  18.160  13.490
89116W        W50570  41.443  42.984  11.959
89117W        W50571  16.257  27.946  14.430
89118W        W50572  37.905  38.898  13.505
89119W        W50573  22.012   2.731  12.876
89120W        W50574  32.912  39.508  14.849
89121W        W50575  40.962  36.005  11.417
89122W        W50576  11.716   4.916  12.484
89123W        W50577  12.337  34.460   4.686
89124W        W50578  25.034  39.028   3.199
89125W        W50579   6.370  44.452   1.787
89126W        W50580  26.034  14.617  12.545
89127W        W50581  32.500  34.384   0.824
89128W        W50582  44.385  35.893   1.430
89129W        W50583  30.118  43.283   3.303
89130W        W50584   6.866  36.055   0.833
89131W        W50585  11.324  28.620  14.789
89132W        W50586   3.451  33.903  13.024
89133W        W50587  33.427  23.669   0.326
89134W        W50588  10.666  39.358  10.145
89135W        W50589  15.104  35.883  11.448
89136W        W50590  33.446  44.498   3.756
89137W        W50591  38.896  27.661   3.631
89138W        W50592  44.400   4.215  14.821
89139W        W50593  34.598  24.638   2.853
89140W        W50594  21.758   6.679  12.371
89141W        W50595  35.938  26.652   3.148
89142W        W50596  26.160  10.176   2.339
89143W        W50597  32.449   9.680   4.317
89144W        W50598  27.068  32.936   2.742
89145W        W50599  15.283  36.554  12.974
89146W        W50600  25.552  20.748  12.938
89147W        W50601  19.569  25.590  12.406
89148W        W50602  13.132  13.606  11.884
89149W        W50603  33.415  14.780  10.061
89150W        W50604  12.283  19.181   4.779
89151W        W50605   8.279  17.631  14.019
89152W        W50606  18.170  15.723  14.998
89153W        W50607  34.959  10.862   9.972
89154W        W50608  16.157  19.285  13.536
89155W        W50609  37.068  23.023   0.471
89156W        W50610  37.961  15.323   4.301
89157W        W50611   2.403  37.007   0.807
89158W        W50612   6.740   4.363  11.886
89159W        W50613  27.591  36.016  10.984
89160W        W50614  36.039  33.382   3.232
89161W        W50615  16.715   2.361   1.731
89162W        W50616  22.731  28.678  12.025
89163W        W50617  15.093  24.640   2.385
89164W        W50618  25.683  40.415   1.276
89165W        W50619  37.942  22.713  14.382
89166W        W50620  19.691  21.198   4.204
89167W        W50621  34.401  17.071   2.677
89168W        W50622  37.017   0.970  13.955
89169W        W50623  13.206  23.030   9.572
89170W        W50624  11.674  36.987   2.411
89171W        W50625   1.320  19.777  12.434
89172W        W50626  10.191  42.354  10.504
89173W        W50627  12.277  26.117  12.883
89174W        W50628  21.553  38.366  11.569
89175W        W50629   7.352   3.817  12.085
89176W        W50630   5.700  43.508   4.277
89177W        W50631   0.970  23.175  12.526
89178W        W50632  41.796   6.751   4.675
89179W        W50633  31.005  13.348  13.994
89180W        W50634  14.113  14.133  14.420
89181W        W50635  37.920   0.794   4.199
89182W        W50636  11.145  20.580  10.926
89183W        W50637  13.142  20.618   0.269
89184W        W50638  32.043  25.108   2.306
89185W        W50639  32.984  20.262   3.307
89186W        W50640   3.767  19.607  11.992
89187W        W50641  43.896   3.386  10.548
89188W        W50642  28.074   4.714  12.835
89189W        W50643  17.160  33.022  14.504
89190W        W50644  24.142  39.488   0.275
89191W        W50645  40.435   4.881  12.554
89192W        W50646  16.737   9.265   3.380
89193W        W50647  28.649  41.528   1.293
89194W        W50648  29.054  13.817  12.081
89195W        W50649  35.935   0.295   2.350
89196W        W50650  33.878   5.811   4.646
89197W        W50651  36.850   9.341   4.296
89198W        W50652  11.271   7.701   2.285
89199W        W50653  13.324  34.508  14.951
89200W        W50654  23.524  25.028  12.370
89201W        W50655   3.334  37.555   2.271
89202W        W50656  14.811   4.917  14.303
89203W        W50657  28.632   3.857   2.756
89204W        W50658  13.229  33.531   3.293
89205W        W50659  15.248   9.781   2.748
89206W        W50660  29.487   3.451  14.457
89207W        W50661  40.465   8.345   1.216
89208W        W50662  30.917  16.137   4.262
89209W        W50663  12.719  42.988   0.849
89210W        W50664  22.135   2.754  11.035
89211W        W50665  26.102  38.003   2.201
89212W        W50666  33.415  30.054  12.897
89213W        W50667   8.333  16.159  13.993
89214W        W50668  18.560  27.954  12.407
89215W        W50669  41.818  26.594   3.228
89216W        W50670  21.621  23.023  12.567
89217W        W50671  37.867  25.027  11.443
89218W        W50672  12.293  19.757  13.368
89219W        W50673   4.845  34.928  11.975
89220W        W50674   8.884  12.703  12.999
89221W        W50675   2.284  44.783  13.367
89222W        W50676  37.952  16.192   1.846
89223W        W50677  34.968  14.738   2.764
89224W        W50678  11.636  32.940   2.190
89225W        W50679  25.511  39.462   4.770
89226W        W50680  20.243  23.544   2.890
89227W        W50681  39.530   5.751  13.521
89228W        W50682   5.825  22.178  12.430
89229W        W50683  33.073   6.355  14.327
89230W        W50684  27.097  25.068  12.556
89231W        W50685  42.006  30.417   0.304
89232W        W50686  40.493  41.813  13.527
89233W        W50687  19.746  19.137   3.744
89234W        W50688  33.099  24.076  14.388
89235W        W50689  36.387  34.584  10.641
89236W        W50690  27.986  33.954  12.949
89237W        W50691  13.241  23.153   3.242
89238W        W50692   3.386  13.677  10.631
89239W        W50693  20.253  33.961   2.834
89240W        W50694   6.332   0.415   2.362
89241W        W50695  17.211   3.438  11.094
89242W        W50696  24.015  42.496   2.687
89243W        W50697  25.112  10.636   0.289
89244W        W50698   7.201  40.438   4.296
89245W        W50699   8.818   5.892   2.304
89246W        W50700  32.567   2.361   1.914
89247W        W50701  43.850  40.498  11.411
89248W        W50702   1.449  23.137   4.699
89249W        W50703  18.176  20.077  12.975
89250W        W50704  30.599  14.247  14.788
89251W        W50705  42.499  13.241   2.784
89252W        W50706  44.951  30.024   3.273
89253W        W50707  31.525  25.552   2.782
89254W        W50708  14.155  14.330   0.346
89255W        W50709   1.480  34.045  13.047
89256W        W50710   3.714  11.702  10.528
89257W        W50711   3.221  32.600  14.362
89258W        W50712  27.558  19.254  14.428
89259W        W50713  41.895  43.777  10.570
89260W        W50714   2.361  42.926  13.439
89261W        W50715  13.824  32.089   4.327
89262W        W50716  37.541  14.169   1.309
89263W        W50717   7.302  16.186  10.405
89264W        W50718   6.425  13.741   3.195
89265W        W50719  12.216  16.588  10.152
89266W        W50720  23.520  21.591   4.607
89267W        W50721  10.783  44.905  14.771
89268W        W50722  10.806  18.233   0.267
89269W        W50723  19.108  22.557   0.481
89270W        W50724   4.218  23.604   2.855
89271W        W50725  26.086  30.073   2.377
89272W        W50726   1.812   4.239  14.425
89273W        W50727  43.796  23.581   0.340
89274W        W50728  15.660  34.567  13.872
89275W        W50729  30.147   8.760  14.789
89276W        W50730   7.808   8.392  12.387
89277W        W50731   2.762   3.815  13.830
89278W        W50732   4.831  36.564  14.847
89279W        W50733  42.964   1.824  14.389
89280W        W50734   0.947  26.151  11.997
89281W        W50735  10.836  39.931  14.396
89282W        W50736  35.938  29.535   2.857
89283W        W50737   2.951   2.338  11.594
89284W        W50738  29.471  16.661  10.415
89285W        W50739  22.670  40.893   2.210
89286W        W50740  11.646   4.405   4.202
89287W        W50741   0.396   6.186  13.016
89288W        W50742   6.905  40.511   3.855
89289W        W50743  17.067  19.180   0.964
89290W        W50744  25.617  19.078  13.872
89291W        W50745  33.004  20.688  11.559
89292W        W50746  33.988  12.768   0.879
89293W        W50747  10.865  37.374   0.414
89294W        W50748   1.240  10.175   2.248
89295W        W50749   8.676  34.589  11.388
89296W        W50750  32.919   3.780  13.017
89297W        W50751  28.523  25.110   3.365
89298W        W50752   7.870  19.610   4.229
89299W        W50753   5.766  32.417   0.945
89300W        W50754  19.591  37.367   0.941
89301W        W50755  15.266  34.444   2.323
89302W        W50756   2.439  44.404   0.292
89303W        W50757  21.211  27.676  12.516
89304W        W50758  28.136  17.198   0.856
89305W        W50759  33.570  33.502   3.232
89306W        W50760  41.392  15.644  11.046
89307W        W50761  37.368  23.619   0.433
89308W        W50762  11.264  37.395  12.514
89309W        W50763  17.260  20.663  10.987
89310W        W50764  13.347  30.484  10.605
89311W        W50765  19.119   3.356  10.486
89312W        W50766  36.899   4.882   0.280
89313W        W50767  43.979  21.750  10.951
89314W        W50768  36.994  11.653   3.312
89315W        W50769   9.789  29.665  11.492
89316W        W50770  13.835  42.425  11.874
89317W        W50771  27.943  44.469   0.800
89318W        W50772  19.636  37.552   0.345
89319W        W50773  19.079  21.085  12.949
89320W        W50774  13.740  25.629   4.244
89321W        W50775   5.905  16.567  10.953
89322W        W50776  44.418  44.291  12.434
89323W        W50777  12.341  33.520   4.267
89324W        W50778  40.505  41.481  12.072
89325W        W50779   0.979  30.953   2.332
89326W        W50780  37.453  28.543   2.739
89327W        W50781   3.239  41.323  13.993
89328W        W50782   6.834  18.073  10.916
89329W        W50783  17.645  42.314   4.703
89330W        W50784  42.824  17.765  11.881
89331W        W50785   3.927   8.658  14.859
89332W        W50786   8.881  39.839   3.210
89333W        W50787  27.087  11.654  14.322
89334W        W50788  17.716  30.605   0.408
89335W        W50789  14.300  15.111  12.854
89336W        W50790  34.547  35.100  10.448
89337W        W50791  12.711  20.691   5.129
89338W        W50792  38.059   6.904   1.425
89339W        W50793  14.606  33.433  14.341
89340W        W50794  31.064  13.765   0.472
89341W        W50795   5.826  13.842   0.862
89342W        W50796   9.775  18.250   1.367
89343W        W50797  30.019  32.472   1.446
89344W        W50798  14.795  20.094  11.411
89345W        W50799  29.593  15.293   4.189
89346W        W50800  38.008  22.083   4.674
89347W        W50801  14.194   7.278  12.829
89348W        W50802  34.415   7.381  10.481
89349W        W50803  24.206  14.652  13.900
89350W        W50804  30.968  20.257  12.888
89351W        W50805  22.534  11.851   4.601
89352W        W50806  28.500   3.728   2.342
89353W        W50807  27.089  31.974   4.778
89354W        W50808  23.101  13.727  13.987
89355W        W50809  37.875  21.201   1.343
89356W        W50810  41.898  33.428  10.605
89357W        W50811  30.063  17.573   0.811
89358W        W50812  32.917  13.228   2.360
89359W        W50813  30.992  12.694  14.971
89360W        W50814  25.497  25.643  13.431
89361W        W50815  10.839  37.002   1.736
89362W        W50816  23.711  25.686  11.124
89363W        W50817  19.567  28.657  11.121
89364W        W50818  37.843   0.326  10.416
89365W        W50819   3.329   8.658   4.727
89366W        W50820  42.292   6.390  10.577
89367W        W50821  16.236  33.411   0.843
89368W        W50822  12.711  20.147   2.669
89369W        W50823  18.186  34.096  12.836
89370W        W50824  31.973   8.723  14.325
89371W        W50825  36.496  27.520   3.324
89372W        W50826  33.387  39.832   1.418
89373W        W50827   3.303  27.194  10.532
89374W        W50828  27.675  36.940   5.691
89375W        W50829  23.175  42.527   2.342
89376W        W50830  12.120   8.161   2.738
89377W        W50831  32.422  17.109   0.247
89378W        W50832  23.130   8.189  10.468
89379W        W50833  23.052   5.714   2.811
89380W        W50834   0.907  21.104   3.751
89381W        W50835  16.722  32.059  14.031
89382W        W50836  14.133  26.092   4.668
89383W        W50837  35.012  23.055  11.070
89384W        W50838  32.570  36.061   0.901
89385W        W50839  42.362  44.495  14.816
89386W        W50840  14.256  10.359  13.523
89387W        W50841  32.923  29.454  11.097
89388W        W50842  11.364  40.953  14.449
89389W        W50843  27.944  39.473   0.278
89390W        W50844  40.017  25.527  13.463
89391W        W50845  12.725  33.956  13.042
89392W        W50846   6.908  32.624   3.721
89393W        W50847  24.975  18.180   1.355
89394W        W50848  36.347  30.106   1.435
89395W        W50849  19.270  39.864   4.352
89396W        W50850   8.808  38.933  10.537
89397W        W50851   9.676  28.675   4.298
89398W        W50852  27.651   5.279  10.542
89399W        W50853  34.550  20.632   0.859
89400W        W50854  37.449  37.531   2.285
89401W        W50855  33.107   8.269   1.405
89402W        W50856  12.213   0.899  12.942
89403W        W50857  19.240   0.428  12.427
89404W        W50858  35.089  14.649  14.490
89405W        W50859  21.540  14.594   2.715
89406W        W50860  17.215   6.235  12.841
89407W        W50861  31.504  44.344   1.775
89408W        W50862  24.627  18.589  13.414
89409W        W50863   9.251  13.802  14.390
89410W        W50864  43.333  33.595   0.838
89411W        W50865  18.210   2.320   1.428
89412W        W50866  20.551   3.261   1.867
89413W        W50867  24.596  24.486  13.850
89414W        W50868  12.341  39.321   0.417
89415W        W50869  19.059  33.421  13.010
89416W        W50870  37.866   0.260  14.883
89417W        W50871  21.734   2.929   1.719
89418W        W50872  37.563  44.481   3.782
89419W        W50873  18.078  11.288  11.530
89420W        W50874  19.139   2.316  11.124
89421W        W50875  27.182  31.918  14.873
89422W        W50876  31.465   4.865  14.853
89423W        W50877  12.703  40.350  11.993
89424W        W50878  44.495  14.152   2.730
89425W        W50879   9.241  18.756   0.815
89426W        W50880   9.312  26.527  10.088
89427W        W50881  19.633  41.835   3.259
89428W        W50882  31.422  19.545   3.666
89429W        W50883  36.588  15.237  14.469
89430W        W50884  33.879  34.459  10.631
89431W        W50885   1.929  10.356   2.801
89432W        W50886  10.260  32.495  13.818
89433W        W50887  44.956   1.355   3.869
89434W        W50888  38.826  16.705   0.872
89435W        W50889  30.628  18.121  10.433
89436W        W50890  24.024  28.947   1.701
89437W        W50891   3.727  30.086   3.653
89438W        W50892  12.854  44.770  10.993
89439W        W50893   9.772   0.471  12.410
89440W        W50894  38.411   3.353   3.344
89441W        W50895  30.649  25.506  10.479
89442W        W50896  19.674  29.070  13.932
89443W        W50897  34.040  40.540  12.030
89444W        W50898  43.786  15.133   4.826
89445W        W50899  16.229  19.262  10.586
89446W        W50900  14.678  35.096  13.471
89447W        W50901  24.687  36.543   3.242
89448W        W50902  24.650  31.423   1.746
89449W        W50903  40.031  40.440   0.331
89450W        W50904  19.082  22.644   1.814
89451W        W50905  11.813  26.643  14.500
89452W        W50906   6.756  21.746   0.320
89453W        W50907   4.446  23.688  14.325
89454W        W50908   7.809  25.070  14.295
89455W        W50909  28.033   0.763  14.872
89456W        W50910  23.217  42.998  12.043
89457W        W50911  44.983   8.746  14.883
89458W        W50912  27.139  40.851   3.809
89459W        W50913  26.090  43.983   2.346
89460W        W50914  16.638  21.737   1.762
89461W        W50915  12.275  23.211  11.879
89462W        W50916  12.189  37.936   0.884
89463W        W50917  40.918  19.152   2.683
89464W        W50918   7.174  30.656  13.831
89465W        W50919  13.180  31.480  14.475
89466W        W50920  15.705  12.223   4.635
89467W        W50921   2.389  25.671  13.389
89468W        W50922  25.512  15.314  12.863
89469W        W50923   5.362  36.049  14.941
89470W        W50924   2.724   0.327  13.410
89471W        W50925  44.292  35.452   0.888
89472W        W50926  16.111  18.177   3.266
89473W        W50927   1.966  36.391   0.850
89474W        W50928  22.104  11.767  10.060
89475W        W50929   5.352  40.890   1.831
89476W        W50930  36.969  24.012  13.800
89477W        W50931  38.051   8.359   4.640
89478W        W50932   5.777  23.082   3.745
89479W        W50933  42.974  32.139   3.815
89480W        W50934  27.017   1.789  12.042
89481W        W50935   5.415  26.006   4.221
89482W        W50936   0.346  43.281  13.956
89483W        W50937  37.899  44.372   0.443
89484W        W50938  23.001  26.031   4.621
89485W        W50939  23.697   7.680   1.215
89486W        W50940  19.548  20.523  12.870
89487W        W50941  39.398  23.235  12.548
89488W        W50942  21.024  16.708   4.174
89489W        W50943  37.979  33.491  13.420
89490W        W50944   2.787  20.654   0.841
89491W        W50945  39.841  19.628   3.654
89492W        W50946  36.003  43.968  11.100
89493W        W50947   3.314   9.189   2.761
89494W        W50948  15.212  31.920   2.244
89495W        W50949  21.591   0.877   3.298
89496W        W50950  15.759  44.883  12.440
89497W        W50951  32.008  33.109  13.468
89498W        W50952   8.270  30.584   3.670
89499W        W50953   0.917  39.882  14.986
89500W        W50954  37.858  33.028  11.470
89501W        W50955  24.090  40.466   2.852
89502W        W50956  20.137   3.259   1.832
89503W        W50957  12.771  30.625  13.920
89504W        W50958  28.642  10.295   3.189
89505W        W50959   7.675  42.939   1.288
89506W        W50960  29.105  27.609  13.051
89507W        W50961   6.857  35.107   1.715
89508W        W50962  30.133  19.278  11.080
89509W        W50963  43.785   6.885   1.725
89510W        W50964  23.985  33.438  13.378
89511W        W50965  28.077  37.557  12.040
89512W        W50966  32.887  19.119  13.843
89513W        W50967  17.684  10.723   3.202
89514W        W50968  36.973  33.419  13.398
89515W        W50969  13.803  39.353   3.868
89516W        W50970  25.049   4.220  11.568
89517W        W50971  25.693  36.035  13.805
89518W        W50972  38.502  44.803  10.987
89519W        W50973  38.039  31.910   2.410
89520W        W50974   8.853  25.176   0.415
89521W        W50975   7.778  26.543  10.456
89522W        W50976  19.109  42.910   2.895
89523W        W50977  39.967   6.778  11.962
89524W        W50978  35.567  15.770  14.782
89525W        W50979  34.449  31.548  11.047
89526W        W50980   8.369   3.397  11.858
89527W        W50981  34.461   3.836   0.763
89528W        W50982  24.174  27.144  13.910
89529W        W50983  40.867   0.819   0.397
89530W        W50984  23.163  22.509  11.382
89531W        W50985  17.142  39.496   3.766
89532W        W50986  37.961  27.152  10.406
89533W        W50987  29.003  32.509   3.277
89534W        W50988  19.594  15.086  10.897
89535W        W50989  44.473  38.956  10.956
89536W        W50990  25.123  11.627   3.379
89537W        W50991   2.229  30.071  12.340
89538W        W50992  42.402  40.515   4.811
89539W        W50993  35.060  33.099  11.599
89540W        W50994  17.103   8.292   3.362
89541W        W50995   2.910  30.449  10.964
89542W        W50996  38.443  14.664   1.802
89543W        W50997  30.061  31.501  12.076
89544W        W50998  14.248  23.561   1.296
89545W        W50999  34.474  31.561   1.852
89546W        W51000  11.210  43.918  14.818
89547W        W51001  23.034  26.068  11.073
89548W        W51002  15.686  22.027  14.876
89549W        W51003  13.255  37.425  13.456
89550W        W51004   6.798  15.634   4.773
89551W        W51005  20.143  11.847  11.395
89552W        W51006  40.980  40.368  11.883
89553W        W51007   8.897  34.574  12.841
89554W        W51008  34.552   2.855  11.606
89555W        W51009  18.287  31.578   2.371
89556W        W51010  38.390  41.834  12.499
89557W        W51011  39.921  41.390  14.387
89558W        W51012  27.179  10.193   1.288
89559W        W51013  27.466  12.647   9.520
89560W        W51014  37.362  21.547   2.207
89561W        W51015  14.711  12.127  11.440
89562W        W51016  14.185  17.302   1.700
89563W        W51017  34.878  28.053  14.387
89564W        W51018  15.161  11.350   1.373
89565W        W51019  42.834   3.765  13.384
89566W        W51020   4.287  44.422   3.792
89567W        W51021   9.267   1.943  10.542
89568W        W51022  11.360   1.847   4.750
89569W        W51023  24.689  21.213   4.347
89570W        W51024  38.917  15.223  14.382
89571W        W51025  12.680  35.040   2.286
89572W        W51026  39.360  37.985   1.907
89573W        W51027   2.784  19.684  13.991
89574W        W51028  36.022   8.305  13.432
89575W        W51029  36.028  31.485  12.454
89576W        W51030  35.981  21.235   3.350
89577W        W51031  27.579  23.612   3.305
89578W        W51032  22.238  13.707  13.980
89579W        W51033  27.004  14.174  12.371
89580W        W51034   5.288  20.117   1.773
89581W        W51035   7.350  39.552   4.694
89582W        W51036  31.570  41.005  13.365
89583W        W51037  27.945  38.893   1.835
89584W        W51038   5.893  18.252  14.024
89585W        W51039  19.161  36.379   3.335
89586W        W51040  24.501  22.038   3.317
89587W        W51041   4.343  15.276  12.049
89588W        W51042  19.573  16.734   1.910
89589W        W51043  13.175  32.972  11.028
89590W        W51044  14.726  15.327   4.698
89591W        W51045   1.238   2.864   3.277
89592W        W51046  15.732  19.039   2.720
89593W        W51047  22.628  18.184   0.910
89594W        W51048  24.517  22.011   4.152
89595W        W51049   0.885  30.050  10.573
89596W        W51050  26.973  17.580   0.393
89597W        W51051   8.385   8.762   4.184
89598W        W51052  43.466  10.873   3.650
89599W        W51053  43.832  15.739  14.392
89600W        W51054  20.769   4.897  13.000
89601W        W51055  18.233   5.847   1.737
89602W        W51056  14.588  30.987   3.636
89603W        W51057  20.077  33.916   3.657
89604W        W51058  44.965  20.125   0.913
89605W        W51059  19.595   2.794   4.683
89606W        W51060  10.329  32.523   2.349
89607W        W51061  26.612  33.443  12.021
89608W        W51062  28.644  31.648  11.120
89609W        W51063  43.478  24.513  13.427
89610W        W51064  30.537  39.343   2.371
89611W        W51065  35.553  30.092   1.744
89612W        W51066   2.304  41.909   3.340
89613W        W51067  18.108   6.879  13.439
89614W        W51068   3.225  32.945  11.382
89615W        W51069  41.313  32.409   1.866
89616W        W51070  16.162  28.639  14.837
89617W        W51071  36.441  17.231   1.450
89618W        W51072   2.425  18.727  11.548
89619W        W51073  14.711  42.417  12.045
89620W        W51074  37.915   8.834   4.730
89621W        W51075  14.807  29.641  13.339
89622W        W51076  22.066  34.890  10.451
89623W        W51077  39.553   9.762   4.667
89624W        W51078  38.879  32.566  10.900
89625W        W51079  31.019  11.815  10.634
89626W        W51080  44.876  39.432   1.422
89627W        W51081  16.184  19.549  10.507
89628W        W51082  15.257   5.340   3.298
89629W        W51083   2.340  27.078   4.353
89630W        W51084  35.028   7.811   3.738
89631W        W51085  19.163  18.113   4.698
89632W        W51086  34.922  41.356   1.354
89633W        W51087  23.220   8.249  14.375
89634W        W51088  11.143  40.832   3.705
89635W        W51089  33.418  37.053   2.670
89636W        W51090  18.764  35.436   3.790
89637W        W51091   5.286   4.293  14.784
89638W        W51092  23.587  17.667  10.593
89639W        W51093  41.392  10.250   0.774
89640W        W51094  19.244  20.576  14.369
89641W        W51095  11.743   6.810  12.513
89642W        W51096   2.315  34.387  13.364
89643W        W51097  26.106  13.825  12.984
89644W        W51098   9.806  20.056  12.890
89645W        W51099  21.628  22.014  13.402
89646W        W51100  27.173  19.086   3.193
89647W        W51101  23.662  11.787  14.397
89648W        W51102   4.288  16.291   3.709
89649W        W51103  14.606  40.804   4.752
89650W        W51104  20.531  34.568   3.350
89651W        W51105   2.415  23.635  13.379
89652W        W51106   1.739  43.381  10.642
89653W        W51107   8.831   6.825  10.918
89654W        W51108  18.219  39.495   4.657
89655W        W51109   8.339  44.785   3.375
89656W        W51110  32.617  13.106  12.516
89657W        W51111  28.600  43.944   4.190
89658W        W51112  31.154   1.431  14.032
89659W        W51113  31.939   3.345   2.410
89660W        W51114  35.410  40.502   1.920
89661W        W51115   8.774  42.362   1.755
89662W        W51116  27.672  17.617  13.988
89663W        W51117   8.217   0.473   4.751
89664W        W51118   8.257  20.247  10.502
89665W        W51119  20.692  11.759  11.600
89666W        W51120   3.916  33.043  12.999
89667W        W51121  44.996   6.782   4.642
89668W        W51122   4.418  12.311  10.634
89669W        W51123  25.076   8.707  14.937
89670W        W51124  32.525  25.004   2.243
89671W        W51125   7.808  27.983   0.869
89672W        W51126  19.247  43.463   0.794
89673W        W51127  13.344  33.982  10.501
89674W        W51128   1.296  14.764   4.627
89675W        W51129   0.250   3.846  13.534
89676W        W51130  13.173  20.663   4.781
89677W        W51131  16.775  26.483  13.532
89678W        W51132  26.145  40.956  11.015
89679W        W51133  28.604   7.764  11.003
89680W        W51134  11.843  43.959  13.928
89681W        W51135   0.845  29.167  14.019
89682W        W51136  37.933  32.405  14.376
89683W        W51137  21.735  27.000  12.890
89684W        W51138  44.478  14.281  11.973
89685W        W51139   9.328  23.182   1.443
89686W        W51140  17.119  24.630  14.759
89687W        W51141  15.207  25.965  13.546
89688W        W51142  30.658   1.926  13.014
89689W        W51143  21.547  17.152   3.851
89690W        W51144   4.786  17.607   5.195
89691W        W51145  35.023   0.386   4.741
89692W        W51146   8.337  16.756   2.852
89693W        W51147   1.240   3.821  12.850
89694W        W51148  11.755   0.399   0.305
89695W        W51149   0.859   8.210  12.493
89696W        W51150  21.593  29.929  13.536
89697W        W51151  31.085  28.607   4.301
89698W        W51152  43.767   0.349  14.905
89699W        W51153  39.315  15.172   1.305
89700W        W51154  33.588  36.022   1.866
89701W        W51155  25.529   0.886  13.983
89702W        W51156  32.623  34.091  13.924
89703W        W51157  36.388   0.811   5.132
89704W        W51158  30.474   5.337   0.443
89705W        W51159  13.619  31.053  14.875
89706W        W51160  33.914  14.672   0.844
89707W        W51161  26.185  24.650   2.239
89708W        W51162   9.818  11.766  14.468
89709W        W51163  21.730  13.729   2.376
89710W        W51164  33.527  11.345  10.503
89711W        W51165  30.497  34.533  10.013
89712W        W51166  39.484  30.969   2.333
89713W        W51167   2.422  34.497   2.186
89714W        W51168  34.945  27.679   0.796
89715W        W51169   2.901  13.195   1.278
89716W        W51170   1.297  41.954  14.004
89717W        W51171  34.445  28.117   2.219
89718W        W51172  43.807  42.304   4.599
89719W        W51173  44.831  44.476   0.289
89720W        W51174  12.774   2.758  12.027
89721W        W51175  36.916  42.502   4.312
89722W        W51176   3.758  35.974   0.314
89723W        W51177  43.433   9.855  10.583
89724W        W51178   0.494  17.247  11.912
89725W        W51179  35.102   9.196  10.627
89726W        W51180  43.766   2.806   3.800
89727W        W51181  18.056  35.588   0.850
89728W        W51182  14.623  42.015   1.334
89729W        W51183  26.186  19.188   2.346
89730W        W51184  18.654   3.847   0.864
89731W        W51185  39.018  17.768  10.960
89732W        W51186  36.455  26.073  14.391
89733W        W51187   0.467  32.971   2.280
89734W        W51188  11.772   9.238   2.685
89735W        W51189  23.508   7.358  13.899
89736W        W51190  35.409  11.255  11.528
89737W        W51191  22.224  29.983  10.568
89738W        W51192   0.892   1.745   3.214
89739W        W51193  12.315   1.811   3.156
89740W        W51194   2.326  43.490  13.494
89741W        W51195   8.746   6.223  12.509
89742W        W51196  13.243  11.737   2.807
89743W        W51197  12.682  23.215   2.769
89744W        W51198   1.441  35.514  14.370
89745W        W51199  19.216  28.007  11.024
89746W        W51200  16.633  37.936   2.694
89747W        W51201  39.060  18.587   1.390
89748W        W51202  37.492  37.510  14.308
89749W        W51203  35.448   0.895   4.730
89750W        W51204   9.367  35.038   4.192
89751W        W51205  23.683   5.826   4.328
89752W        W51206  21.084  25.163   3.698
89753W        W51207  36.916   3.786  11.392
89754W        W51208  42.992  24.614   3.837
89755W        W51209  36.552  30.086  13.809
89756W        W51210   6.414  13.126   1.343
89757W        W51211  39.881   7.198   3.351
89758W        W51212   4.286   2.759  13.394
89759W        W51213  42.009  42.826  11.592
89760W        W51214  26.178  39.990   4.750
89761W        W51215  25.048  22.188  10.094
89762W        W51216  22.094   2.794   0.962
89763W        W51217  16.100   9.283  10.436
89764W        W51218  20.033   9.685  11.499
89765W        W51219   8.855  40.348   0.461
89766W        W51220  38.017   2.452   1.263
89767W        W51221   0.379   2.914   0.943
89768W        W51222  30.007  41.339   2.889
89769W        W51223  24.564  38.874   4.214
89770W        W51224  33.462  28.668  14.923
89771W        W51225   3.803  43.385   2.819
89772W        W51226   1.383  19.039   0.298
89773W        W51227  42.913  17.664   2.706
89774W        W51228   5.387  42.905  11.515
89775W        W51229  35.411  39.444   2.304
89776W        W51230   4.338  10.351  10.598
89777W        W51231  28.674  31.499   3.761
89778W        W51232  15.149  15.229  12.888
89779W        W51233   7.675   3.889   1.301
89780W        W51234  17.278  26.057  13.345
89781W        W51235  40.314   3.767   3.201
89782W        W51236  21.090  23.071   4.192
89783W        W51237  13.242  37.480  10.441
89784W        W51238  35.000  28.504   3.729
89785W        W51239   7.217  31.605  14.899
89786W        W51240  26.593  40.801  10.896
89787W        W51241   3.443  19.596  12.876
89788W        W51242  42.399  10.289   4.180
89789W        W51243  39.497  25.179  14.991
89790W        W51244  31.111   2.737   2.765
89791W        W51245  11.310  41.922   4.631
89792W        W51246  20.126   2.862  13.920
89793W        W51247   3.726   9.186  11.460
89794W        W51248  11.701  40.807   1.738
89795W        W51249  38.955   9.341  11.086
89796W        W51250   3.315  32.026   2.268
89797W        W51251  12.754  15.107   4.128
89798W        W51252  34.015  44.892  11.038
89799W        W51253  16.811  10.677  14.845
89800W        W51254  22.092  25.109  12.885
89801W        W51255  25.002  19.273   1.313
89802W        W51256   3.784   5.411   2.806
89803W        W51257  27.195   5.379  13.868
89804W        W51258  28.021  40.849   1.313
89805W        W51259  26.016  30.031  10.406
89806W        W51260  23.091  43.820   4.653
89807W        W51261  17.102  24.705  12.908
89808W        W51262  42.832  41.352   2.826
89809W        W51263  36.849   0.914  11.412
89810W        W51264  44.815  19.547   1.895
89811W        W51265  16.626  35.385   4.200
89812W        W51266   3.399   4.349  12.486
89813W        W51267  41.519   4.294   0.278
89814W        W51268  37.373  24.980  11.503
89815W        W51269  13.630  40.529  12.427
89816W        W51270   9.325   4.303   3.285
89817W        W51271  41.802  24.678   4.128
89818W        W51272   4.934  12.227   1.776
89819W        W51273   0.979  22.640   2.712
89820W        W51274   2.832  20.210   2.278
89821W        W51275  26.200  12.232   4.780
89822W        W51276  38.990  16.769  11.935
89823W        W51277  39.526  42.408  10.539
89824W        W51278  38.954  23.019  11.986
89825W        W51279  28.094  32.976   3.197
89826W        W51280   4.242  34.987   4.132
89827W        W51281  30.420  10.285   4.750
89828W        W51282   7.327  44.794  13.470
89829W        W51283  20.238  15.751   3.661
89830W        W51284  13.309  16.669   4.126
89831W        W51285   4.379  35.392  10.543
89832W        W51286  37.971  17.775   4.795
89833W        W51287  26.701  14.268  12.402
89834W        W51288   5.388  11.705  13.531
89835W        W51289  15.699  20.104  14.874
89836W        W51290   6.403  16.768  14.909
89837W        W51291  18.613  35.465   1.395
89838W        W51292  43.990  36.549   4.225
89839W        W51293  43.917  30.987   3.341
89840W        W51294   9.278  27.496   3.331
89841W        W51295  18.629   3.330   2.339
89842W        W51296  32.964  23.139   0.904
89843W        W51297   8.826  41.298  14.427
89844W        W51298  12.673  29.931  12.987
89845W        W51299   5.860  44.820   2.759
89846W        W51300  33.070  14.143   0.293
89847W        W51301  24.102  14.326   0.400
89848W        W51302   6.228  17.298   2.210
89849W        W51303  11.226  32.913  14.982
89850W        W51304  25.055   4.771   4.187
89851W        W51305   5.846  27.128   3.730
89852W        W51306   6.891  41.834  11.451
89853W        W51307  22.626  14.176  10.136
89854W        W51308  30.102   2.266  13.849
89855W        W51309  39.423  43.297  12.824
89856W        W51310  36.011  34.533  11.606
89857W        W51311  21.656  40.475   4.280
89858W        W51312  27.094   0.904   1.236
89859W        W51313   0.766   7.173  10.497
89860W        W51314  40.545  18.111  12.378
89861W        W51315   6.290  26.582   2.882
89862W        W51316  38.554  17.569  13.041
89863W        W51317  39.827  34.027   3.794
89864W        W51318  34.956  43.366  10.976
89865W        W51319  10.858  33.487  10.969
89866W        W51320  38.028  39.495   2.685
89867W        W51321  26.594  23.142   1.313
89868W        W51322  35.526  30.162   0.920
89869W        W51323  27.196  30.541  11.548
89870W        W51324   0.337  10.198  12.060
89871W        W51325  18.067   2.452   3.296
89872W        W51326  42.940  16.179  13.820
89873W        W51327  28.550  23.608   0.770
89874W        W51328  27.580   5.408   5.159
89875W        W51329  39.321  33.385   3.376
89876W        W51330  11.184  13.696   0.342
89877W        W51331  43.916  37.531  11.032
89878W        W51332  14.324  42.936   2.386
89879W        W51333   0.754  16.582  14.415
89880W        W51334  13.111   5.323   2.208
89881W        W51335   7.823  11.745   2.243
89882W        W51336   7.892  10.180  10.473
89883W        W51337  14.721  16.768  11.497
89884W        W51338  22.152  32.006   4.801
89885W        W51339   2.918  22.235  12.401
89886W        W51340  40.523  11.689   2.802
89887W        W51341  33.992  31.145  11.386
89888W        W51342  41.359  42.490  11.086
89889W        W51343  26.692  12.764   3.216
89890W        W51344  40.954  42.878   4.701
89891W        W51345  22.145  23.656   4.236
89892W        W51346  38.538  16.110  11.555
89893W        W51347   8.402   9.286   1.222
89894W        W51348   9.157  22.561   4.314
89895W        W51349  33.523  26.087  10.934
89896W        W51350  19.730   9.725   4.190
89897W        W51351  42.893  23.584  14.297
89898W        W51352  34.995  33.414  10.467
89899W        W51353  41.411  16.103   4.338
89900W        W51354  29.521  36.468  13.459
89901W        W51355  20.635  30.040   1.381
89902W        W51356   8.749  37.386  12.881
89903W        W51357  32.102  30.623  14.281
89904W        W51358  43.768  38.961  14.312
89905W        W51359  15.251  29.946   1.226
89906W        W51360   3.788  20.548  13.347
89907W        W51361  27.961  15.209  11.476
89908W        W51362  21.155  16.735   0.785
89909W        W51363  38.400   7.215  12.543
89910W        W51364  38.872  20.168   1.718
89911W        W51365  29.971  17.639  14.422
89912W        W51366  39.054   3.332   0.435
89913W        W51367  38.937  36.540  13.799
89914W        W51368  38.415   0.975  13.938
89915W        W51369  26.616   6.746  12.999
89916W        W51370   2.337   9.338   4.769
89917W        W51371  29.583   0.455  13.852
89918W        W51372  42.398  27.580  13.346
89919W        W51373  28.663  36.082   3.244
89920W        W51374  18.659  18.236   0.916
89921W        W51375  34.872  12.259   1.215
89922W        W51376  17.151   6.302  12.417
89923W        W51377  13.805   9.661   4.229
89924W        W51378  24.129  24.593  11.547
89925W        W51379   4.322  17.111  14.811
89926W        W51380  28.441  40.476  12.546
89927W        W51381  14.731   5.249  14.786
89928W        W51382   9.252  36.960   1.776
89929W        W51383  31.074  17.762   2.772
89930W        W51384  24.034  23.502   9.954
89931W        W51385   2.923   9.669   0.293
89932W        W51386  25.704  33.118   4.758
89933W        W51387  42.800  25.146   2.792
89934W        W51388  44.913   4.417  10.940
89935W        W51389  40.306  19.550  11.005
89936W        W51390   7.254  15.128  11.536
89937W        W51391  12.640  27.541   3.717
89938W        W51392  33.477  19.233   1.421
89939W        W51393  35.043  22.083  11.128
89940W        W51394   4.273  24.222  12.519
89941W        W51395  13.342   2.371  10.404
89942W        W51396  19.735  29.538  13.903
89943W        W51397  36.478  42.782  13.540
89944W        W51398  43.902  18.082   4.603
89945W        W51399  32.129  35.391   3.839
89946W        W51400  17.569  37.489   3.735
89947W        W51401   4.204   3.287   3.278
89948W        W51402   3.729  24.135  10.598
89949W        W51403  12.202  24.053  12.902
89950W        W51404   4.416   1.958   3.636
89951W        W51405  12.193  18.261  12.488
89952W        W51406  22.073  36.000   4.333
89953W        W51407  44.377   4.906  12.999
89954W        W51408  34.492  37.021  13.362
89955W        W51409  37.430  19.085   4.743
89956W        W51410  33.067  33.508  14.402
89957W        W51411  28.093  30.111  14.763
89958W        W51412  43.307  21.223   3.305
89959W        W51413   9.721  32.932  11.610
89960W        W51414  15.774  25.657   2.834
89961W        W51415  41.524  28.959  14.770
89962W        W51416   7.800   1.432   1.303
89963W        W51417  31.015  43.299   0.477
89964W        W51418   3.425  32.035   3.189
89965W        W51419  29.576   3.720  12.084
89966W        W51420  34.071  19.190   2.390
89967W        W51421  16.757  39.523  13.381
89968W        W51422  10.685  23.079   2.783
89969W        W51423  39.016  34.407  12.513
89970W        W51424  29.169  36.518   4.774
89971W        W51425  17.703  15.685  11.397
89972W        W51426  20.109  14.296   5.214
89973W        W51427   6.364  10.845   3.703
89974W        W51428  35.574   2.255   4.658
89975W        W51429   5.229  32.008   2.205
89976W        W51430   2.730  14.757  10.587
89977W        W51431  25.555  40.401  14.911
89978W        W51432  15.738  23.020   2.707
89979W        W51433   1.880  10.847  12.029
89980W        W51434   0.925   2.915   3.725
89981W        W51435  31.455  21.751  11.528
89982W        W51436  13.241  10.186  11.563
89983W        W51437   0.336  13.706   4.340
89984W        W51438   9.676  16.168  12.339
89985W        W51439  17.122  18.198   0.735
89986W        W51440  25.600  28.977  12.360
89987W        W51441  42.836  12.625  10.920
89988W        W51442  39.414   5.726  10.477
89989W        W51443  24.500  32.431  12.837
89990W        W51444   2.893  19.620   4.781
89991W        W51445  27.962  42.374   0.799
89992W        W51446  11.333  12.243  13.030
89993W        W51447  25.098   7.386  11.387
89994W        W51448  11.214  17.114  10.940
89995W        W51449  12.303  27.563  12.892
89996W        W51450  43.419   1.935   1.884
89997W        W51451  35.959  31.973  14.380
89998W        W51452  10.830  24.607  12.886
89999W        W51453   0.808   3.405   0.739
90000W        W51454  29.165  39.472  12.921
90001W        W51455  10.252  33.968  10.537
90002W        W51456  15.154  18.261   2.814
90003W        W51457  42.401  29.990  14.494
90004W        W51458   0.885  14.211  14.290
90005W        W51459  19.703   4.943   3.717
90006W        W51460  25.686  18.166   4.249
90007W        W51461  38.836  33.997  12.882
90008W        W51462  18.154  19.107   1.303
90009W        W51463  36.074   4.840  14.822
90010W        W51464  41.937   0.299   3.702
90011W        W51465  39.933  28.134   1.277
90012W        W51466   9.889   2.292   1.325
90013W        W51467  24.059  33.102  10.442
90014W        W51468  38.067  33.547   3.337
90015W        W51469  33.922  26.581   2.254
90016W        W51470  29.509  42.780   1.417
90017W        W51471   3.273  15.153  13.444
90018W        W51472  14.742  33.024  14.291
90019W        W51473  32.918   8.763  14.790
90020W        W51474  20.695   4.876   0.930
90021W        W51475  10.816  38.856  11.483
90022W        W51476  17.206  36.394   4.146
90023W        W51477  16.115  31.473  14.929
90024W        W51478  18.783  29.634  10.934
90025W        W51479  43.812  30.653  13.503
90026W        W51480   8.197  18.547   2.804
90027W        W51481  42.948   2.755   1.266
90028W        W51482  33.478  42.779  13.358
90029W        W51483  29.457  17.769  11.031
90030W        W51484   0.843  12.802   4.353
90031W        W51485  39.921  28.964   4.315
90032W        W51486  39.436   3.398   4.221
90033W        W51487  43.444   8.738   5.294
90034W        W51488  21.538  27.173  10.540
90035W        W51489  42.319  16.114   0.335
90036W        W51490  19.596  32.473   3.259
90037W        W51491  29.027   7.279   0.847
90038W        W51492   5.435  31.017   4.179
90039W        W51493  16.587  18.701   2.254
90040W        W51494   8.210  23.680  13.356
90041W        W51495  25.646  31.142   0.464
90042W        W51496  31.040  29.435  13.471
90043W        W51497  30.430  30.421   4.706
90044W        W51498  27.147  14.693  13.961
90045W        W51499  36.037   8.400   0.449
90046W        W51500  31.629  39.483   4.337
90047W        W51501  29.519  30.068   4.789
90048W        W51502  39.827   2.868   3.808
90049W        W51503   1.413   6.210   4.744
90050W        W51504  44.295   5.266  11.388
90051W        W51505  22.212  27.994  14.787
90052W        W51506  14.683  36.937   0.320
90053W        W51507  42.464  20.237  11.127
90054W        W51508  16.300  24.039  14.465
90055W        W51509  35.396  42.408  12.526
90056W        W51510  10.258  29.585   0.341
90057W        W51511  24.538   9.222  14.450
90058W        W51512  14.104  43.873   1.716
90059W        W51513   3.305  19.099  13.963
90060W        W51514   3.859  33.527  13.038
90061W        W51515  17.243  37.374  12.946
90062W        W51516  19.071   4.232  11.872
90063W        W51517  10.370  44.306   0.891
90064W        W51518  19.542  16.697   4.834
90065W        W51519  32.956  42.817   0.738
90066W        W51520  44.888  26.082  11.410
90067W        W51521  35.574   8.375   2.705
90068W        W51522  29.166  44.763  13.964
90069W        W51523   9.735  15.699  11.966
90070W        W51524   8.699  11.241  10.643
90071W        W51525  37.540  13.631   0.883
90072W        W51526  43.910  30.499   3.766
90073W        W51527  27.614  16.255   0.254
90074W        W51528  40.952  35.387  14.792
90075W        W51529   8.714  30.616   1.301
90076W        W51530  20.095  12.298   3.375
90077W        W51531  38.350  12.271   1.855
90078W        W51532  38.932  36.015  11.564
90079W        W51533  33.599   1.423   0.293
90080W        W51534  21.664  40.498   3.331
90081W        W51535  23.163  17.159   1.739
90082W        W51536  21.211  43.879   3.293
90083W        W51537  33.941  17.136  12.874
90084W        W51538  43.899   5.869   1.832
90085W        W51539  16.281  42.348   3.320
90086W        W51540  35.942   8.886   4.601
90087W        W51541  14.624   4.747   0.341
90088W        W51542   1.904  16.677  14.452
90089W        W51543  18.092  23.526  12.074
90090W        W51544  17.229  38.898   1.883
90091W        W51545  33.500   8.838  12.529
90092W        W51546  12.754  31.911   1.903
90093W        W51547   5.394  43.908   3.339
90094W        W51548  37.432  14.673  11.911
90095W        W51549  21.648  13.658  11.911
90096W        W51550  38.390  44.826  14.294
90097W        W51551  33.068  44.970   4.150
90098W        W51552  27.671  15.158  14.970
90099W        W51553   5.739  38.882   3.742
90100W        W51554  36.069  18.063  14.307
90101W        W51555  42.776  27.607   4.183
90102W        W51556  26.166  26.619   1.816
90103W        W51557   8.678   7.276  10.406
90104W        W51558  40.870   9.210  10.902
90105W        W51559  32.932  15.202  11.473
90106W        W51560  37.895   2.899  14.802
90107W        W51561  15.581   1.860   0.874
90108W        W51562  23.112  21.209  13.945
90109W        W51563  36.478   5.366  10.423
90110W        W51564   3.948  26.551   4.320
90111W        W51565  30.609  41.429   1.275
90112W        W51566   7.411   6.890  13.445
90113W        W51567  29.099   9.687  14.838
90114W        W51568  26.047  35.481  10.500
90115W        W51569  25.619  31.622   2.876
90116W        W51570  38.012  24.609  10.519
90117W        W51571  36.042   6.326   3.768
90118W        W51572  31.581  33.506   1.242
90119W        W51573  44.889   5.916  11.910
90120W        W51574  35.998  44.396  10.938
90121W        W51575   9.225  21.690   2.399
90122W        W51576  37.402   2.750   3.730
90123W        W51577  39.424  31.128   1.844
90124W        W51578   7.353  31.546  10.566
90125W        W51579  11.315  18.261  11.420
90126W        W51580  41.002   2.762  12.879
90127W        W51581  17.256   8.311  11.975
90128W        W51582   7.691  17.064   4.811
90129W        W51583  14.660  35.602   0.851
90130W        W51584  41.386  35.495  10.413
90131W        W51585  28.017   2.729   1.823
90132W        W51586  26.544  23.192   2.264
90133W        W51587  25.111  42.333  14.966
90134W        W51588  20.740  25.101  13.324
90135W        W51589   4.900  41.385   0.361
90136W        W51590  14.239  28.050   3.239
90137W        W51591  39.960  23.162  13.538
90138W        W51592  25.013  21.698  10.897
90139W        W51593  16.073  16.237   2.344
90140W        W51594  19.065  22.138  13.329
90141W        W51595  13.115   9.256  11.935
90142W        W51596  16.180  14.286   0.265
90143W        W51597  36.404   2.235  11.920
90144W        W51598  19.057  42.908   2.349
90145W        W51599   0.977  13.290   0.774
90146W        W51600   2.835   7.213   3.787
90147W        W51601  34.560  41.885  10.915
90148W        W51602   3.936  23.637   1.784
90149W        W51603  37.910  23.611  11.523
90150W        W51604  27.122  40.377  12.900
90151W        W51605  33.473   6.815  14.925
90152W        W51606  19.627  16.120  13.866
90153W        W51607  35.364  28.981  12.841
90154W        W51608   4.725  18.648   4.236
90155W        W51609   6.249  24.654  13.519
90156W        W51610  27.491  18.232   4.113
90157W        W51611  31.899   3.715  13.545
90158W        W51612  34.108  26.513   9.953
90159W        W51613   4.285  31.948  11.916
90160W        W51614  41.875  25.478   0.849
90161W        W51615  11.696  28.467  11.937
90162W        W51616   2.911  21.111   0.450
90163W        W51617  44.998  19.652   3.267
90164W        W51618  12.767  28.453  13.027
90165W        W51619  28.932  27.114   2.823
90166W        W51620  44.274   1.974   2.673
90167W        W51621  11.145   1.922  13.838
90168W        W51622  24.561  23.525   3.212
90169W        W51623  35.059   6.919   1.238
90170W        W51624  32.609  29.946  12.069
90171W        W51625   4.379   3.270   1.696
90172W        W51626  12.271   5.313   1.435
90173W        W51627  12.180  35.384   3.149
90174W        W51628  25.702  34.413  11.004
90175W        W51629  12.241  19.663  11.447
90176W        W51630  21.060  17.109  10.409
90177W        W51631  28.988  15.109   0.245
90178W        W51632   1.423  30.564   1.845
90179W        W51633  17.267   2.466  11.071
90180W        W51634   3.352  16.226  12.430
90181W        W51635  36.473  35.952   3.688
90182W        W51636  23.529  34.453  11.497
90183W        W51637  25.614  17.101  11.990
90184W        W51638  37.414  36.554   3.308
90185W        W51639  10.792  38.044   3.682
90186W        W51640   9.778  20.662  12.912
90187W        W51641  41.801  40.345   5.202
90188W        W51642  11.147   1.358   3.804
90189W        W51643   9.337  25.649  14.023
90190W        W51644  30.077  28.036   0.334
90191W        W51645  21.705  31.415  14.874
90192W        W51646  22.603  37.855   0.285
90193W        W51647  43.924   1.451  13.442
90194W        W51648  22.025  40.921  13.882
90195W        W51649  41.977  31.133  11.994
90196W        W51650  16.593  12.622  14.865
90197W        W51651  14.194  32.521   4.665
90198W        W51652  27.097  30.654  13.866
90199W        W51653   3.231  32.917  10.139
90200W        W51654  35.960  36.077   0.783
90201W        W51655  19.182   2.734   1.235
90202W        W51656  42.326  34.922  13.964
90203W        W51657  22.999  36.593   0.949
90204W        W51658  40.353  19.657  13.855
90205W        W51659  26.566  15.209  14.836
90206W        W51660  38.371  35.888  10.592
90207W        W51661  32.594  41.456   2.191
90208W        W51662  18.630  30.528  12.353
90209W        W51663  44.828  41.524  13.530
90210W        W51664   5.919  39.844   4.737
90211W        W51665  29.577  10.761   2.276
90212W        W51666  42.312   0.430  12.471
90213W        W51667  31.133  12.697  12.956
90214W        W51668  42.481  27.073  13.960
90215W        W51669   5.776  22.014   4.705
90216W        W51670  23.691  14.191   3.385
90217W        W51671  36.555  12.642  12.999
90218W        W51672  31.944  27.553  10.084
90219W        W51673   5.380  13.681  14.443
90220W        W51674  31.492  24.122  12.383
90221W        W51675  35.933  16.122   3.201
90222W        W51676   6.772  27.601  11.016
90223W        W51677  30.433  42.886  14.872
90224W        W51678  16.253  37.488   2.275
90225W        W51679  38.871  36.415  11.546
90226W        W51680   2.414  41.367  14.855
90227W        W51681   4.205  10.743   4.322
90228W        W51682   4.308  38.526   2.706
90229W        W51683  21.712  30.509  11.013
90230W        W51684  27.678  25.979  11.953
90231W        W51685   5.296   6.733  14.453
90232W        W51686  29.424  11.352  14.925
90233W        W51687  22.511  43.772  13.345
90234W        W51688  36.391  11.147   0.801
90235W        W51689  28.516  11.134  10.088
90236W        W51690   2.794  23.014  11.539
90237W        W51691  40.017  29.462  14.954
90238W        W51692  26.162   4.293  12.475
90239W        W51693   7.840  43.938  14.444
90240W        W51694  42.394   0.478   3.695
90241W        W51695  39.365  36.878   5.273
90242W        W51696   5.310  20.579   0.866
90243W        W51697  29.150  10.356   0.805
90244W        W51698  32.591   1.814   2.342
90245W        W51699  20.155   2.254   2.847
90246W        W51700  14.111  19.092   3.299
90247W        W51701  13.226   6.237   0.866
90248W        W51702   6.198  20.683  11.553
90249W        W51703  11.250  27.064  14.921
90250W        W51704  42.896  41.788  10.951
90251W        W51705  38.500  31.567   3.866
90252W        W51706  17.243  18.578   2.664
90253W        W51707  15.294  33.566  14.031
90254W        W51708  43.865  38.362   2.826
90255W        W51709  12.850  39.544  13.495
90256W        W51710  23.523  16.665  12.531
90257W        W51711  38.874  21.077  14.998
90258W        W51712  25.157  37.976   4.624
90259W        W51713  40.357  41.900   3.845
90260W        W51714   4.700  22.182  11.415
90261W        W51715   7.674  30.543   1.218
90262W        W51716   0.785  30.615   4.799
90263W        W51717  39.838  36.573  11.430
90264W        W51718  41.346   1.282   3.304
90265W        W51719  32.505  12.197  10.486
90266W        W51720   7.284  36.937   1.279
90267W        W51721   3.263  36.482  12.564
90268W        W51722  16.567  11.773  14.017
90269W        W51723   3.217  13.840  12.030
90270W        W51724  23.556  36.077   0.390
90271W        W51725   9.837  12.142  13.822
90272W        W51726   9.735  31.578   2.274
90273W        W51727  24.548  31.014   1.705
90274W        W51728  35.029  32.087  13.405
90275W        W51729  35.068  30.597  13.021
90276W        W51730  41.876  44.008  14.970
90277W        W51731  27.531  14.799  14.811
90278W        W51732  17.602  30.638   2.220
90279W        W51733  11.260   6.747  12.436
90280W        W51734  37.000   3.814  13.001
90281W        W51735  38.063  43.373  12.065
90282W        W51736  40.381  41.036  12.410
90283W        W51737  11.731   3.764  13.545
90284W        W51738  19.057  29.515  10.586
90285W        W51739  43.312   3.774   3.834
90286W        W51740  16.252  28.547  11.982
90287W        W51741  24.984  13.109  11.490
90288W        W51742   3.272  14.226  10.631
90289W        W51743  43.449  23.601   4.262
90290W        W51744  17.165  30.933   1.238
90291W        W51745   5.704  38.039  14.773
90292W        W51746  42.028  36.559   2.349
90293W        W51747  24.224  32.571   4.805
90294W        W51748  37.050   9.735  12.008
90295W        W51749   1.792  29.925  10.430
90296W        W51750   6.307  12.650   2.690
90297W        W51751   7.386  31.037  14.417
90298W        W51752  18.274  31.900  13.522
90299W        W51753   7.758  24.107  13.461
90300W        W51754  13.283  26.607  14.492
90301W        W51755  39.388  23.229  11.971
90302W        W51756  44.786  41.502  11.600
90303W        W51757  15.302   2.840   3.655
90304W        W51758   2.413  11.754   5.288
90305W        W51759  30.088  18.545   4.610
90306W        W51760   5.386  43.299  10.987
90307W        W51761   6.909  10.802  10.604
90308W        W51762  16.664  14.109   4.137
90309W        W51763  12.743  12.169   2.808
90310W        W51764  34.085  33.389  12.488
90311W        W51765  16.651   4.727   1.406
90312W        W51766  30.430  27.568   0.937
90313W        W51767  22.022  23.673   3.738
90314W        W51768  44.433  28.988   0.384
90315W        W51769  42.823  15.813  13.408
90316W        W51770  36.027   0.319  12.052
90317W        W51771   7.912  30.928   2.251
90318W        W51772   1.327  35.064   0.768
90319W        W51773   4.800  42.399   0.425
90320W        W51774   8.192   2.924   0.879
90321W        W51775  28.610   3.399  14.369
90322W        W51776  19.718  31.490   4.313
90323W        W51777   0.851  32.561   3.842
90324W        W51778  32.975  33.987  14.892
90325W        W51779  24.481   8.875  12.050
90326W        W51780  17.655  23.091   3.226
90327W        W51781  16.075  10.142  11.076
90328W        W51782  27.137  42.018   4.153
90329W        W51783  17.151  27.190   2.701
90330W        W51784  19.164  32.492   3.682
90331W        W51785  43.826   5.822   0.774
90332W        W51786  37.435  23.112   2.671
90333W        W51787   7.706  34.921   1.347
90334W        W51788  27.534  20.623   9.480
90335W        W51789   9.355  38.015   2.348
90336W        W51790  22.037  24.657  14.925
90337W        W51791  38.968  20.553  13.451
90338W        W51792  26.607  11.314   4.150
90339W        W51793  34.415  27.165  12.080
90340W        W51794  33.410  31.983   2.383
90341W        W51795   7.681  41.353   3.803
90342W        W51796  41.818  39.381   1.717
90343W        W51797  42.409  25.678  10.920
90344W        W51798  40.901  25.574  14.859
90345W        W51799   2.464  20.100   3.179
90346W        W51800  38.889  38.839   3.277
90347W        W51801  42.309  33.549   0.771
90348W        W51802  39.410  29.101   3.675
90349W        W51803  42.775  24.556  11.569
90350W        W51804  31.052   8.273   3.167
90351W        W51805   6.324  13.821  11.058
90352W        W51806  20.649   1.960   4.327
90353W        W51807   5.699  10.831   4.686
90354W        W51808  34.505  16.176   0.343
90355W        W51809  36.079   4.811  14.343
90356W        W51810  37.082   2.916  12.451
90357W        W51811  32.991  43.430  10.458
90358W        W51812  10.644  16.230  12.858
90359W        W51813  42.919  33.444   3.258
90360W        W51814  30.598  21.718   1.274
90361W        W51815  18.205  27.097   4.170
90362W        W51816   4.306  37.067   1.863
90363W        W51817  38.351  33.448   2.774
90364W        W51818   6.286  12.714   3.338
90365W        W51819  28.989  43.937  10.549
90366W        W51820  32.000  12.788   0.254
90367W        W51821  40.890  21.662   0.284
90368W        W51822  11.674  20.129  11.469
90369W        W51823  40.819  25.632   3.340
90370W        W51824  44.755  43.950   3.717
90371W        W51825  15.619  35.061  12.351
90372W        W51826  17.105  10.814   1.259
90373W        W51827  11.150   2.845   2.272
90374W        W51828  15.589  40.053  14.877
90375W        W51829  38.889  28.585   4.821
90376W        W51830   3.930  43.887  12.516
90377W        W51831  41.946  22.104  14.835
90378W        W51832   9.300  29.126   2.419
90379W        W51833  18.646  40.464  11.540
90380W        W51834   8.771  19.111  12.426
90381W        W51835  19.105  26.029  14.919
90382W        W51836  23.077  35.890   3.153
90383W        W51837   7.178  11.867   4.611
90384W        W51838   7.352  41.974   2.264
90385W        W51839  34.577  19.227   0.356
90386W        W51840  41.394   8.265   2.196
90387W        W51841   5.412  21.513   4.627
90388W        W51842   9.695  13.321  13.818
90389W        W51843  14.653   3.823   1.320
90390W        W51844  24.975  19.541   2.212
90391W        W51845  20.132  11.304   2.889
90392W        W51846  22.162   3.226   2.782
90393W        W51847  38.439   8.872  14.276
90394W        W51848  18.075  16.608  13.826
90395W        W51849  14.676   7.830  12.417
90396W        W51850   8.780   0.307  10.561
90397W        W51851  14.634  32.468   3.238
90398W        W51852  19.561  11.204   4.602
90399W        W51853  14.237  44.765   4.603
90400W        W51854  13.206   2.799  10.431
90401W        W51855   3.301  13.702  10.994
90402W        W51856  12.242  39.461   1.416
90403W        W51857  10.232  41.512  12.434
90404W        W51858   5.224   1.743   4.623
90405W        W51859  13.683  18.190  12.865
90406W        W51860   1.289  20.701  12.489
90407W        W51861  38.481   7.908   4.236
90408W        W51862   0.914  27.466   2.197
90409W        W51863  13.617   0.443   4.742
90410W        W51864   8.312  43.414  13.953
90411W        W51865   2.308   7.205  11.017
90412W        W51866  16.106  31.034   0.434
90413W        W51867  10.765   9.876   1.709
90414W        W51868   6.730  28.176   0.460
90415W        W51869   7.245  36.088  11.373
90416W        W51870  44.275  41.962  11.489
90417W        W51871  16.633  40.878  10.548
90418W        W51872  29.174  43.835  14.449
90419W        W51873  34.599  36.908  11.962
90420W        W51874  24.177  20.754   1.367
90421W        W51875  43.937  32.889   1.337
90422W        W51876  41.525  16.245  10.597
90423W        W51877   1.358  32.059   1.440
90424W        W51878  26.601  17.580  11.570
90425W        W51879  38.996  37.020   1.285
90426W        W51880  21.064  21.649   3.652
90427W        W51881  24.181  27.078  13.340
90428W        W51882   7.879  23.666   2.853
90429W        W51883  15.103  25.547  10.950
90430W        W51884  35.397  23.489  11.514
90431W        W51885   7.356  16.580   1.886
90432W        W51886  37.978  37.511   4.664
90433W        W51887  42.447  23.183   1.244
90434W        W51888   9.297  10.326  12.957
90435W        W51889   9.844  38.403  10.542
90436W        W51890  40.960   4.945   2.194
90437W        W51891  44.338  44.893  11.962
90438W        W51892  10.673  40.923   5.783
90439W        W51893  14.592   4.724  12.853
90440W        W51894   0.790   8.725  13.360
90441W        W51895  24.059  35.074   0.397
90442W        W51896  13.278  42.458   4.622
90443W        W51897  15.143   9.332  11.866
90444W        W51898  20.072  29.619   3.233
90445W        W51899  34.412  16.231   2.395
90446W        W51900  41.485  14.643  13.504
90447W        W51901   4.941  35.469  14.811
90448W        W51902   3.316  40.045  10.492
90449W        W51903  36.566   7.356   3.837
90450W        W51904  40.545  15.680   4.118
90451W        W51905  17.606  34.576  12.944
90452W        W51906  43.767  36.978   4.601
90453W        W51907  37.530  17.097   4.751
90454W        W51908  34.513  24.159   3.359
90455W        W51909   4.859  27.138  14.028
90456W        W51910  21.120   1.908   0.326
90457W        W51911  24.678  24.158  11.600
90458W        W51912  11.297  25.187  13.376
90459W        W51913  28.530  36.017   3.746
90460W        W51914   0.879  22.131  14.839
90461W        W51915  29.153  22.605   1.436
90462W        W51916   4.429  12.650  11.932
90463W        W51917  14.629  34.867   3.769
90464W        W51918  18.624  23.713   0.858
90465W        W51919  37.043  16.697  13.983
90466W        W51920  35.393   3.250  12.854
90467W        W51921  24.037  25.684   1.722
90468W        W51922  31.038   6.884   4.776
90469W        W51923   9.706  19.271   9.452
90470W        W51924  13.147   0.389   2.705
90471W        W51925  22.087  22.665   2.293
90472W        W51926   0.376  15.781   4.620
90473W        W51927  10.195   6.757   0.382
90474W        W51928  36.402  28.436  13.937
90475W        W51929  16.167  11.197   0.286
90476W        W51930  23.987  40.543  11.961
90477W        W51931  24.073  32.117   0.291
90478W        W51932  21.254  10.739   4.258
90479W        W51933   4.386  42.965   3.672
90480W        W51934  27.596  22.513   1.830
90481W        W51935  36.470   0.379   0.867
90482W        W51936  37.552   2.410   4.627
90483W        W51937  11.162   1.734  13.315
90484W        W51938  35.002  28.623  13.420
90485W        W51939  34.097  35.888  12.971
90486W        W51940  43.972  11.780  10.414
90487W        W51941  36.531  17.078  10.540
90488W        W51942  12.725   3.809  11.032
90489W        W51943  38.835   5.404  12.009
90490W        W51944   7.813  21.236   5.099
90491W        W51945  18.663  13.799  14.014
90492W        W51946   0.426  24.559  14.886
90493W        W51947  31.621  35.109  12.910
90494W        W51948  14.152  16.627  12.464
90495W        W51949  20.235  19.622   2.860
90496W        W51950  39.516  19.127  14.898
90497W        W51951  37.934   0.961   2.880
90498W        W51952  33.098  28.559  12.970
90499W        W51953  17.582  23.152  12.065
90500W        W51954  40.326  18.199  13.425
90501W        W51955   1.968   8.885   1.899
90502W        W51956  23.231  26.494   4.317
90503W        W51957   3.379  34.032  13.435
90504W        W51958  40.534  33.410   9.993
90505W        W51959   3.392  21.579  11.934
90506W        W51960  16.228  10.650   5.215
90507W        W51961   9.297  44.355  13.854
90508W        W51962  29.547  26.038   1.791
90509W        W51963  16.288  33.975  12.008
90510W        W51964  22.649   1.331   0.428
90511W        W51965   7.396  28.967   0.729
90512W        W51966   8.300   5.248   4.174
90513W        W51967  30.067   1.329   3.271
90514W        W51968   3.888  39.507  11.530
90515W        W51969   9.259   8.225  10.584
90516W        W51970  22.679  10.760  14.859
90517W        W51971  30.571  16.656   3.811
90518W        W51972  35.861  10.277  14.928
90519W        W51973   1.966  38.819  13.415
90520W        W51974  36.590   9.651   4.279
90521W        W51975   7.410  12.253   3.224
90522W        W51976   3.900  29.032  12.003
90523W        W51977  13.660  12.313   1.749
90524W        W51978  15.297  21.699  14.347
90525W        W51979  18.166  41.014   2.412
90526W        W51980  18.063   6.211   0.371
90527W        W51981  38.831   6.795   4.246
90528W        W51982  35.476  23.993  13.825
90529W        W51983  10.196  34.384   4.279
90530W        W51984  22.205   1.341   3.380
90531W        W51985  33.515  40.949   1.244
90532W        W51986  16.599  40.840   3.352
90533W        W51987  26.543  38.955  13.450
90534W        W51988   2.440  11.819   3.210
90535W        W51989  15.193   2.312  13.874
90536W        W51990  35.940  41.926  12.371
90537W        W51991  31.471  37.938  11.016
90538W        W51992  25.059  23.526   3.865
90539W        W51993  36.904  41.000  14.877
90540W        W51994   2.899  28.576  13.039
90541W        W51995  19.133  13.261  11.013
90542W        W51996  18.237  19.212  12.560
90543W        W51997   7.830  20.751   4.814
90544W        W51998  27.622   2.318   5.704
90545W        W51999  32.621  18.182  11.534
90546W        W52000  29.647  24.654  12.578
90547W        W52001  31.504  38.558  13.846
90548W        W52002  31.457  27.583   1.879
90549W        W52003  27.478  43.781  11.057
90550W        W52004  33.091  10.805  10.563
90551W        W52005  21.662  42.848   4.792
90552W        W52006   5.708  34.009  14.428
90553W        W52007  34.609  25.015   4.811
90554W        W52008  21.193  41.889   4.672
90555W        W52009  43.981  23.580  13.390
90556W        W52010   2.399  12.240  11.971
90557W        W52011   1.291   5.895   4.235
90558W        W52012  10.264  27.568  13.964
90559W        W52013  22.012  29.128   2.244
90560W        W52014  11.687  20.666  11.420
90561W        W52015  16.625  43.500  11.960
90562W        W52016   4.273   2.316  13.048
90563W        W52017  11.228  44.447   0.914
90564W        W52018  28.015   9.155   4.340
90565W        W52019  38.925   0.413   4.187
90566W        W52020   5.328  11.856  13.887
90567W        W52021  35.044   8.317  14.346
90568W        W52022  20.573  23.541  12.407
90569W        W52023   8.295   9.234   0.315
90570W        W52024  24.618  35.538  12.486
90571W        W52025  26.614  31.913   1.735
90572W        W52026  26.620  19.121  12.090
90573W        W52027  42.407  26.467   3.355
90574W        W52028  35.600  41.813  14.896
90575W        W52029  44.381  25.612   4.753
90576W        W52030  40.370  18.571  13.316
90577W        W52031  22.513  19.694   5.271
90578W        W52032  28.084  19.764  10.442
90579W        W52033   9.674  29.945  14.915
90580W        W52034  10.638  11.190  14.298
90581W        W52035  18.287  44.812   1.352
90582W        W52036  37.511  44.883   2.870
90583W        W52037  29.447  38.060  11.015
90584W        W52038   0.303  10.212   3.786
90585W        W52039  39.457   2.289  11.534
90586W        W52040  32.952  19.096   4.716
90587W        W52041   4.942  33.063   2.845
90588W        W52042  21.040  40.880   2.686
90589W        W52043   3.739   9.852   1.708
90590W        W52044   5.336  18.689  14.286
90591W        W52045  29.489  10.144  11.990
90592W        W52046  33.613   9.388  14.490
90593W        W52047   3.294  41.477  10.124
90594W        W52048   5.852  18.136  11.474
90595W        W52049  16.222  31.562   0.812
90596W        W52050  16.110  18.580   2.335
90597W        W52051  23.209  22.545   1.392
90598W        W52052  18.550  33.476   1.328
90599W        W52053  42.492  33.129  13.311
90600W        W52054  32.138  41.879   3.852
90601W        W52055  25.513  16.097  10.888
90602W        W52056  16.159  27.447  11.128
90603W        W52057   6.808  21.038   4.348
90604W        W52058  14.735   3.349  11.937
90605W        W52059   3.421  30.619   1.372
90606W        W52060   0.779   4.258   4.290
90607W        W52061  42.503  20.548   2.252
90608W        W52062  25.026  40.508   1.820
90609W        W52063   9.299  17.200   1.826
90610W        W52064  19.052   9.812   4.315
90611W        W52065  22.624  38.347   4.352
90612W        W52066  40.322   0.251  11.023
90613W        W52067  19.191   7.350  11.123
90614W        W52068  26.509  18.598  13.474
90615W        W52069  40.363  38.435   2.255
90616W        W52070  25.687   5.770   1.739
90617W        W52071  38.026   4.804  13.451
90618W        W52072  26.151   7.360   0.254
90619W        W52073   1.320  40.929   1.878
90620W        W52074   1.282  40.988   3.182
90621W        W52075   1.252   4.321  14.409
90622W        W52076  21.032  22.542  14.766
90623W        W52077  41.438  12.166   0.302
90624W        W52078  33.560  35.551   5.136
90625W        W52079  31.041   5.755  13.868
90626W        W52080   6.229  43.016  14.030
90627W        W52081  22.181  31.521  12.364
90628W        W52082  41.976  18.250  11.960
90629W        W52083  43.332  11.742  11.508
90630W        W52084   8.741  11.684  12.429
90631W        W52085  13.316  43.328  12.087
90632W        W52086  11.763  26.081  12.866
90633W        W52087  26.048  33.454  11.456
90634W        W52088  22.712  31.574   3.343
90635W        W52089  43.926  44.792  12.916
90636W        W52090  15.308  29.523  13.936
90637W        W52091  31.473   0.927   0.463
90638W        W52092  41.522  19.676   4.776
90639W        W52093  19.222  24.025  12.959
90640W        W52094   9.667   5.919   2.802
90641W        W52095  17.726  18.762  12.568
90642W        W52096  24.061  31.496  10.962
90643W        W52097  39.916  26.538  12.553
90644W        W52098   8.293  31.120  11.961
90645W        W52099  13.178  19.569   3.190
90646W        W52100  14.198  23.083   3.278
90647W        W52101  40.804  42.430   0.777
90648W        W52102  42.373  14.281  13.857
90649W        W52103  30.628  41.476  13.933
90650W        W52104  14.172  17.702  11.379
90651W        W52105   3.244  34.023  11.107
90652W        W52106   8.702   9.695  12.096
90653W        W52107  11.332   6.912   4.151
90654W        W52108  42.306  27.468   4.158
90655W        W52109  38.039   4.320   1.287
90656W        W52110  44.295  30.585  10.930
90657W        W52111   2.850  30.063  11.480
90658W        W52112  31.506  30.119  11.516
90659W        W52113   0.918   4.870   2.664
90660W        W52114   8.775   4.768  12.468
90661W        W52115  43.789   5.904   3.744
90662W        W52116  31.425  25.667   3.248
90663W        W52117  23.714  16.594  10.928
90664W        W52118  15.294  43.929   0.430
90665W        W52119  25.031   0.865   1.735
90666W        W52120   5.369  19.122  12.472
90667W        W52121  25.193  42.396  14.326
90668W        W52122  39.962  24.584   3.828
90669W        W52123  28.616  19.650  10.610
90670W        W52124  21.655   8.394  12.027
90671W        W52125  28.161  21.020  14.881
90672W        W52126  28.669  22.644  12.941
90673W        W52127  30.526   1.377   1.787
90674W        W52128  16.178  12.223   0.481
90675W        W52129  10.276  23.618   4.346
90676W        W52130  25.638  34.951  13.350
90677W        W52131  32.014  17.128  12.398
90678W        W52132  33.996   8.692   1.354
90679W        W52133   9.194  10.804   3.230
90680W        W52134  15.681  20.711  13.528
90681W        W52135   3.888   6.850  13.918
90682W        W52136  38.347  28.967   1.310
90683W        W52137  19.640  36.980  10.605
90684W        W52138  39.346   4.829  11.996
90685W        W52139  34.046  16.585  11.005
90686W        W52140   1.459  14.798   0.897
90687W        W52141  29.155   2.960  14.468
90688W        W52142  26.189  28.504   1.844
90689W        W52143  33.404  15.249   3.644
90690W        W52144  44.803  14.785   0.743
90691W        W52145   6.418  22.603  11.930
90692W        W52146  13.659  32.592   4.752
90693W        W52147  38.388   4.444   0.472
90694W        W52148  42.489   8.397  11.897
90695W        W52149   9.181  30.034   3.853
90696W        W52150   5.702   8.757   1.894
90697W        W52151  34.556  35.409   2.710
90698W        W52152  25.177   9.748   2.297
90699W        W52153  13.642   0.266  12.430
90700W        W52154   0.404  23.150  11.916
90701W        W52155   3.769  21.674  14.773
90702W        W52156   0.349  30.544  14.844
90703W        W52157  23.002  28.114   0.333
90704W        W52158  12.332  27.951   1.274
90705W        W52159  37.384  12.792   0.326
90706W        W52160   4.850  38.894   0.831
90707W        W52161  24.069  43.433   2.667
90708W        W52162  33.006  41.841   2.816
90709W        W52163  29.086  10.834   2.314
90710W        W52164  20.654  19.607  14.944
90711W        W52165  17.180   3.722  14.492
90712W        W52166  32.047  42.373   2.292
90713W        W52167  27.097   2.425   0.813
90714W        W52168  26.500  20.057  14.378
90715W        W52169  36.455  42.849   0.380
90716W        W52170   2.313  18.181   4.802
90717W        W52171  33.487  31.499  11.557
90718W        W52172   8.864  17.733   2.730
90719W        W52173  25.651  22.130  12.473
90720W        W52174  42.855  39.336  11.432
90721W        W52175  11.367  31.406   4.270
90722W        W52176  43.319  25.604   1.293
90723W        W52177  25.545  10.161  12.922
90724W        W52178  20.616  33.526  10.891
90725W        W52179  37.885  30.528   1.429
90726W        W52180   6.878  11.634  13.961
90727W        W52181  13.351  16.201   4.316
90728W        W52182  34.048  43.842   0.356
90729W        W52183   1.753  30.063  13.927
90730W        W52184  12.777  23.191  14.402
90731W        W52185  43.398  33.594  12.941
90732W        W52186  28.151   2.431  13.827
90733W        W52187  32.588  38.066   1.894
90734W        W52188  28.139  27.052   3.864
90735W        W52189   8.699  30.080  13.063
90736W        W52190   3.843  12.134   1.919
90737W        W52191  13.118  29.522  12.935
90738W        W52192  42.916  11.626  13.907
90739W        W52193   5.856  33.464  14.777
90740W        W52194  15.791   7.378  11.128
90741W        W52195   0.940   6.732  12.041
90742W        W52196   1.391  12.151  14.876
90743W        W52197  37.024  10.744  11.504
90744W        W52198  10.267  31.919  13.419
90745W        W52199  25.107  40.911   0.779
90746W        W52200  13.790   0.347  10.416
90747W        W52201  44.449   5.271  10.932
90748W        W52202  34.944  23.189  12.049
90749W        W52203  29.442  36.385  14.773
90750W        W52204  30.654  38.055   0.436
90751W        W52205  23.607  12.792  13.870
90752W        W52206  37.467  24.220  11.902
90753W        W52207  40.411  41.470   1.735
90754W        W52208   2.954  24.136   3.279
90755W        W52209  14.751  34.021   0.421
90756W        W52210  36.484  14.754  12.917
90757W        W52211  34.431   9.785  10.473
90758W        W52212  36.512  19.633  14.401
90759W        W52213  36.513  32.564   3.219
90760W        W52214  38.519  17.293  12.928
90761W        W52215  30.023  27.027  10.550
90762W        W52216  37.461  20.122  13.327
90763W        W52217  17.154   9.688   3.366
90764W        W52218  16.112  11.300   3.843
90765W        W52219  35.431  29.145   4.726
90766W        W52220  16.574  40.485   2.839
90767W        W52221  18.175  16.303  10.643
90768W        W52222   2.751   1.837   4.243
90769W        W52223  30.120  24.089   1.393
90770W        W52224  24.691  30.947  13.473
90771W        W52225  17.625  13.730   3.162
90772W        W52226  26.682   7.197  13.396
90773W        W52227   6.792  23.102   2.272
90774W        W52228   4.421  41.986  11.605
90775W        W52229  29.656   7.739   3.194
90776W        W52230  24.176  31.945   3.323
90777W        W52231  38.888   7.894  14.910
90778W        W52232  24.556  23.112  12.005
90779W        W52233  36.056  20.583  10.449
90780W        W52234  19.628  40.533  13.833
90781W        W52235  23.044  36.348  11.983
90782W        W52236  11.708  20.678  10.893
90783W        W52237  18.672   3.240   3.255
90784W        W52238  33.899  33.560  11.103
90785W        W52239  20.722   7.295  11.516
90786W        W52240  17.743  14.779   4.249
90787W        W52241   2.452  44.819  11.005
90788W        W52242  22.616  25.047   3.286
90789W        W52243  24.216  26.068   1.742
90790W        W52244  33.945  27.530  13.814
90791W        W52245  35.013  43.402   1.759
90792W        W52246   8.816  40.333  11.973
90793W        W52247  30.420  26.566   3.857
90794W        W52248  22.530   2.758   3.346
90795W        W52249  11.665  42.852   1.928
90796W        W52250   6.192  31.028   0.426
90797W        W52251  29.427  18.687  12.349
90798W        W52252   2.817  37.839  10.576
90799W        W52253   5.222  38.404   1.252
90800W        W52254  44.885  41.984  14.891
90801W        W52255   8.880  31.030  11.601
90802W        W52256  14.782  30.087  12.842
90803W        W52257  17.663  43.434   1.757
90804W        W52258  30.552  27.516  11.445
90805W        W52259  36.413   5.320  14.379
90806W        W52260  37.879  29.011  14.511
90807W        W52261  44.288  42.340   4.271
90808W        W52262  43.363   5.897  13.923
90809W        W52263  27.472  25.614  12.835
90810W        W52264   7.222  27.154   1.323
90811W        W52265   8.361  27.965  14.930
90812W        W52266  16.743  40.942  12.929
90813W        W52267  30.098  33.604   0.481
90814W        W52268  36.527   9.713  13.324
90815W        W52269   3.933  38.963   3.748
90816W        W52270  44.274   2.422   4.694
90817W        W52271  22.523  44.970  13.355
90818W        W52272  43.809   2.919  14.371
90819W        W52273  15.304  44.489   0.439
90820W        W52274  36.904   7.731  13.528
90821W        W52275  42.319  18.761   1.266
90822W        W52276  29.920   9.730  12.450
90823W        W52277  18.783  35.452   2.743
90824W        W52278  29.650   8.228   2.744
90825W        W52279   0.402  27.140   4.264
90826W        W52280   5.791  28.614   2.817
90827W        W52281  18.643  37.938  11.602
90828W        W52282  30.416  33.558  12.900
90829W        W52283   7.323  13.219  13.384
90830W        W52284   9.794  14.148  10.560
90831W        W52285   2.345  25.068  10.610
90832W        W52286  25.062  14.330   1.227
90833W        W52287  24.157  24.974   3.751
90834W        W52288  37.395  22.104  10.469
90835W        W52289  29.116  39.352  12.010
90836W        W52290  15.176  23.104  12.494
90837W        W52291  25.572  42.415  12.074
90838W        W52292  41.031  38.360   2.794
90839W        W52293  28.161  11.669  14.818
90840W        W52294  39.976  25.987   1.783
90841W        W52295  28.024  31.409   0.252
90842W        W52296  20.725  24.709   1.821
90843W        W52297   5.234  44.872  12.885
90844W        W52298  35.058   6.377  14.792
90845W        W52299   0.328  31.628   0.787
90846W        W52300  42.450   7.249  13.311
90847W        W52301   3.370  28.567  11.417
90848W        W52302  24.656  30.503   1.729
90849W        W52303  11.729  34.895   5.273
90850W        W52304  35.501  18.683   2.866
90851W        W52305  25.173   2.284   2.372
90852W        W52306  38.939  16.235   1.287
90853W        W52307  21.054   0.876   2.891
90854W        W52308  15.253  12.742   0.856
90855W        W52309  17.135  19.125   2.837
90856W        W52310  17.587  43.964   3.335
90857W        W52311   4.756   2.840   1.345
90858W        W52312  28.939  18.207   0.276
90859W        W52313  27.484  35.083   2.396
90860W        W52314  44.398  31.900   1.291
90861W        W52315  11.746  36.370  12.357
90862W        W52316  13.344  21.550  12.091
90863W        W52317  18.148   1.788   2.380
90864W        W52318  26.114  31.436  14.931
90865W        W52319  33.041   4.275  13.896
90866W        W52320   5.914  17.133   1.423
90867W        W52321  34.889   3.305  13.406
90868W        W52322  19.080  43.472   1.894
90869W        W52323  30.970  18.740   4.309
90870W        W52324   0.742   7.761   0.745
90871W        W52325  11.796   1.943   5.112
90872W        W52326  20.755  42.790  11.593
90873W        W52327   6.294   7.892   1.733
90874W        W52328  17.655  39.062  12.513
90875W        W52329   2.773  29.598   4.685
90876W        W52330  23.594   7.786   2.773
90877W        W52331  30.440  43.329   2.226
90878W        W52332  20.684  18.247  10.469
90879W        W52333  29.619  24.989  13.799
90880W        W52334   4.934  34.501   1.845
90881W        W52335  23.554  41.405  14.322
90882W        W52336  21.115  35.052  10.412
90883W        W52337  23.225  42.798   4.752
90884W        W52338  14.690   9.853  14.773
90885W        W52339  35.979  11.709  13.444
90886W        W52340  11.329  39.496   3.829
90887W        W52341   2.918   6.739  14.947
90888W        W52342   6.229   8.281  11.449
90889W        W52343  33.076  18.066  10.480
90890W        W52344  15.297  43.816   2.372
90891W        W52345  13.223  31.479  12.494
90892W        W52346  40.970  14.118   3.650
90893W        W52347  31.625  23.164   5.569
90894W        W52348  36.375  19.566  12.494
90895W        W52349  24.225  23.521  11.040
90896W        W52350  44.397  32.407  13.522
90897W        W52351  42.895  38.911  12.423
90898W        W52352  19.662  11.720   3.201
90899W        W52353  16.199  42.964  12.484
90900W        W52354  37.496  18.149   0.264
90901W        W52355  40.840  36.931  12.027
90902W        W52356  32.563  11.234  11.954
90903W        W52357   2.269  44.833   2.294
90904W        W52358  24.637  14.163   4.227
90905W        W52359   5.428  24.480   1.314
90906W        W52360  35.518  43.930  12.916
90907W        W52361  36.086   7.763   4.602
90908W        W52362  31.559  19.198   3.867
90909W        W52363  17.073  28.974   4.613
90910W        W52364   4.269  40.998  14.898
90911W        W52365  23.649   8.398   1.344
90912W        W52366  41.428   9.320  14.920
90913W        W52367  44.319  14.618  10.578
90914W        W52368  32.579   8.749   0.340
90915W        W52369  27.030  18.121   4.228
90916W        W52370  42.512  43.988   1.411
90917W        W52371   9.311  22.194  14.352
90918W        W52372  27.109  18.590  13.840
90919W        W52373   9.700  37.502   4.290
90920W        W52374  15.319  18.758  10.454
90921W        W52375  23.163  12.293  13.965
90922W        W52376  24.650   4.832  13.875
90923W        W52377  16.713   2.893  13.545
90924W        W52378  32.055  26.044  13.887
90925W        W52379  22.225  35.975  13.985
90926W        W52380  34.593   0.272  14.921
90927W        W52381  21.033   9.727  12.953
90928W        W52382  14.120   7.912   4.771
90929W        W52383  23.496   4.299  13.863
90930W        W52384  27.541  15.620   4.137
90931W        W52385  32.938  25.679   0.262
90932W        W52386  44.463   7.391  11.066
90933W        W52387  10.335  12.246   2.876
90934W        W52388  25.084  36.091  11.435
90935W        W52389  16.242   4.755  13.985
90936W        W52390  14.142  16.622  11.077
90937W        W52391  28.550  22.112  11.565
90938W        W52392  28.525  13.769  11.512
90939W        W52393  26.521  40.848  14.892
90940W        W52394  28.636  41.895   4.206
90941W        W52395  25.562   2.397  14.923
90942W        W52396  43.953  21.072   2.806
90943W        W52397  24.173  33.380  12.008
90944W        W52398  24.615   5.747  14.963
90945W        W52399  14.815   7.385   1.737
90946W        W52400  18.199   4.785   0.387
90947W        W52401   5.904  33.560  13.366
90948W        W52402  10.318   2.305   0.853
90949W        W52403   5.879  15.261   3.298
90950W        W52404  35.425   8.277  13.515
90951W        W52405  31.061   4.817  14.930
90952W        W52406   3.423  14.210   3.683
90953W        W52407  40.496   8.298   2.815
90954W        W52408  28.668  13.266   3.710
90955W        W52409  11.151  30.454  10.615
90956W        W52410  39.422  36.980  14.452
90957W        W52411  14.763   3.391  10.537
90958W        W52412  13.692   2.317   4.623
90959W        W52413  40.306  33.938  10.941
90960W        W52414  10.703  18.557  14.930
90961W        W52415  24.705  35.946   3.180
90962W        W52416  20.194  15.684   3.379
90963W        W52417  39.050  38.955   2.712
90964W        W52418  44.800   6.398  12.037
90965W        W52419  18.139  34.523  11.570
90966W        W52420  40.355  27.462  12.368
90967W        W52421  38.943   7.682   4.127
90968W        W52422   2.470  27.653   4.744
90969W        W52423   4.354  33.479  10.973
90970W        W52424  24.493  23.187  11.096
90971W        W52425   1.738  20.654  12.476
90972W        W52426   1.286  12.159  10.521
90973W        W52427   9.887  36.984   1.794
90974W        W52428  41.984  26.188   0.314
90975W        W52429  12.646  14.636  11.513
90976W        W52430  32.049  34.896  14.029
90977W        W52431   5.363  28.439   4.194
90978W        W52432  33.987   8.860  12.387
90979W        W52433   1.238  39.483  11.985
90980W        W52434  17.154  43.860   0.300
90981W        W52435  21.103  23.489  12.969
90982W        W52436  43.992  20.541  12.513
90983W        W52437  23.608  22.551   3.350
90984W        W52438  35.581  29.046  11.394
90985W        W52439  17.692  43.400   4.349
90986W        W52440  27.113   9.783  11.496
90987W        W52441  34.569   3.389  13.421
90988W        W52442   5.422  13.815   2.320
90989W        W52443   4.350  42.371  14.776
90990W        W52444  40.014   9.677   3.857
90991W        W52445  43.463  14.281   0.956
90992W        W52446   3.849  16.104  12.837
90993W        W52447  10.766  28.941  10.641
90994W        W52448  26.527  43.936  11.415
90995W        W52449  17.768  36.961  12.448
90996W        W52450   1.929  28.054  11.873
90997W        W52451  24.987   8.258   2.829
90998W        W52452   2.356  36.060  14.364
90999W        W52453  33.580  36.881   0.272
91000W        W52454  11.627  14.251  14.457
91001W        W52455   8.748  23.083   0.420
91002W        W52456  19.080   7.171  14.350
91003W        W52457  15.192   8.370  10.505
91004W        W52458   5.258  34.407   1.765
91005W        W52459  18.776  15.746   9.962
91006W        W52460  20.735  35.600   0.751
91007W        W52461  23.182   4.786   1.925
91008W        W52462   5.915   6.408  13.523
91009W        W52463   0.249  34.070   1.839
91010W        W52464   8.732  42.415  14.924
91011W        W52465  33.397   3.847   2.380
91012W        W52466  43.413   6.693  10.573
91013W        W52467  35.503  11.765   4.162
91014W        W52468  37.957  42.282  12.843
91015W        W52469  21.658  31.123   0.453
91016W        W52470  20.623  11.167   3.638
91017W        W52471  12.783  37.026   4.765
91018W        W52472   0.909  26.519  14.006
91019W        W52473  11.775  20.145  12.060
91020W        W52474  38.459  42.301   0.810
91021W        W52475   9.841  30.934  12.095
91022W        W52476  24.059  15.613  10.902
91023W        W52477   7.261  33.415   1.799
91024W        W52478  13.645  41.973   4.617
91025W        W52479  30.473  23.165   5.575
91026W        W52480  29.058  16.794   3.371
91027W        W52481  31.436  40.816   3.211
91028W        W52482  31.108  21.705   3.283
91029W        W52483  19.647  35.403  11.887
91030W        W52484  35.878  43.476   1.279
91031W        W52485  16.593  33.947   3.285
91032W        W52486  26.609  39.063   2.808
91033W        W52487  43.993  15.789  13.827
91034W        W52488  41.966  44.831  14.875
91035W        W52489  43.965   1.957  14.799
91036W        W52490  24.179  35.594  10.480
91037W        W52491  44.317  32.974  13.516
91038W        W52492  44.853  32.074   1.743
91039W        W52493  29.475  43.912   4.202
91040W        W52494  34.575  35.982  10.539
91041W        W52495  24.607   9.382   2.889
91042W        W52496  22.026  12.233   0.882
91043W        W52497  19.692   8.819   3.799
91044W        W52498  37.958  11.279  11.528
91045W        W52499  34.485   9.763  13.523
91046W        W52500  44.385  41.819   4.707
91047W        W52501  29.587   3.283  12.918
91048W        W52502  26.067  26.158  13.404
91049W        W52503   2.453  43.872   1.233
91050W        W52504  29.050  27.008  12.095
91051W        W52505  42.390  14.162   2.196
91052W        W52506  33.994  32.914   2.691
91053W        W52507  17.130  24.988   4.163
91054W        W52508  10.304   5.701  14.962
91055W        W52509  19.114   7.740  14.861
91056W        W52510  16.784  14.674   5.705
91057W        W52511  43.987  33.475  13.790
91058W        W52512  36.081  10.852   1.422
91059W        W52513  12.193  39.353   2.229
91060W        W52514   6.803  11.867   4.133
91061W        W52515   5.765   6.900  11.530
91062W        W52516  40.305  27.542  11.553
91063W        W52517  36.008  37.847  11.440
91064W        W52518   7.873  42.492  12.474
91065W        W52519   1.898  11.300   1.311
91066W        W52520   4.359  37.546   1.234
91067W        W52521   3.373  13.841  14.453
91068W        W52522  13.339  37.887  11.966
91069W        W52523   6.363  32.434   4.736
91070W        W52524  11.305  41.944   3.274
91071W        W52525  28.043  30.601  14.514
91072W        W52526  31.134   4.727   3.767
91073W        W52527  23.733  27.522   4.345
91074W        W52528   8.794  37.366   1.351
91075W        W52529  37.019  23.605   1.843
91076W        W52530  21.177  26.188   0.961
91077W        W52531  38.897  13.350  10.522
91078W        W52532   2.871  44.357  10.953
91079W        W52533  22.731  21.113   3.666
91080W        W52534  41.417  41.912  10.608
91081W        W52535  32.138   3.741   2.371
91082W        W52536  40.518  44.894   0.385
91083W        W52537  31.937  27.053   1.879
91084W        W52538  22.090  24.094  13.927
91085W        W52539  41.862  28.044   4.142
91086W        W52540  19.200   2.329  13.847
91087W        W52541  19.163  41.987   3.146
91088W        W52542  20.166  30.471   3.828
91089W        W52543  30.539  27.151   1.393
91090W        W52544  31.138  28.992   0.792
91091W        W52545  24.222  26.598  12.456
91092W        W52546  29.152   6.380  13.042
91093W        W52547  28.674  17.203  12.091
91094W        W52548  23.662  24.053   2.681
91095W        W52549  25.027  10.300  10.923
91096W        W52550  26.035  22.021  10.008
91097W        W52551  19.279   2.806   2.895
91098W        W52552   0.280  34.075   2.804
91099W        W52553  13.727   3.834  13.903
91100W        W52554   8.324  16.190  12.082
91101W        W52555   8.404  40.035   1.278
91102W        W52556  43.020  10.298  10.431
91103W        W52557  15.777  43.331  13.053
91104W        W52558  25.189  17.750   3.842
91105W        W52559  22.608  11.270  13.952
91106W        W52560  37.055   1.962   0.418
91107W        W52561  10.674  27.991  11.431
91108W        W52562  25.472  21.626  14.453
91109W        W52563  18.778  13.210  13.464
91110W        W52564  41.791  36.862  11.937
91111W        W52565  38.453   2.375  11.435
91112W        W52566  16.110   0.777   4.223
91113W        W52567  17.071  38.483  12.084
91114W        W52568  36.089  10.145   0.890
91115W        W52569  27.059  38.984   2.710
91116W        W52570  24.592  14.095   4.766
91117W        W52571   1.437  29.015   4.254
91118W        W52572   4.911  36.863  11.943
91119W        W52573  24.496   2.724   3.159
91120W        W52574  21.098  22.585  11.419
91121W        W52575   6.340  15.115   3.658
91122W        W52576  22.062  35.451  10.533
91123W        W52577   3.788  43.921   4.787
91124W        W52578  17.705  27.031   3.773
91125W        W52579  15.614  21.546   2.855
91126W        W52580  28.677  13.683   4.835
91127W        W52581  27.587  32.122  11.895
91128W        W52582  23.989  32.066   5.150
91129W        W52583  11.217  29.919   3.163
91130W        W52584  25.509  10.819  13.046
91131W        W52585  33.019  18.696   0.279
91132W        W52586   4.906  10.835   1.802
91133W        W52587   8.314  31.899  14.332
91134W        W52588   8.209   1.275   2.182
91135W        W52589  10.291   7.736  10.620
91136W        W52590  29.170  10.177   2.890
91137W        W52591  41.925   3.282  11.085
91138W        W52592  35.487  42.898   0.746
91139W        W52593   5.915   9.662  14.349
91140W        W52594  17.099   4.240  14.867
91141W        W52595  23.536   5.220  12.014
91142W        W52596  27.605  43.413   3.171
91143W        W52597  13.635  29.437   3.833
91144W        W52598   2.894  43.975   4.185
91145W        W52599  27.117  34.997  11.008
91146W        W52600  40.453  17.087  12.560
91147W        W52601  25.485  26.565   5.253
91148W        W52602   4.268  18.176  10.621
91149W        W52603  31.984  32.006  11.512
91150W        W52604  13.770  13.800   3.747
91151W        W52605   1.279   0.988  10.407
91152W        W52606   5.375  32.434  12.404
91153W        W52607  26.469  27.038  12.855
91154W        W52608  29.551  43.293  12.509
91155W        W52609  39.050   8.366   2.377
91156W        W52610  19.168  11.335  10.899
91157W        W52611  44.789  40.460   4.247
91158W        W52612  35.434  23.510  12.016
91159W        W52613  24.535  42.453  14.005
91160W        W52614   8.707  13.129  11.612
91161W        W52615  23.657  22.562  12.389
91162W        W52616   2.901  39.454   2.389
91163W        W52617   9.240  23.144   2.825
91164W        W52618  23.158  10.803  14.300
91165W        W52619  36.959   9.687  12.531
91166W        W52620   0.904  25.502  14.926
91167W        W52621  19.080   5.713   3.745
91168W        W52622  18.175  32.440   2.344
91169W        W52623  36.445  32.502   2.733
91170W        W52624  23.033  10.838   3.226
91171W        W52625  11.289  12.275   3.736
91172W        W52626   3.726   8.667   0.955
91173W        W52627  13.667  26.144  13.971
91174W        W52628   9.807   3.724   3.669
91175W        W52629  27.608  40.379   0.358
91176W        W52630  43.942  27.672   0.257
91177W        W52631  32.525  39.437   3.709
91178W        W52632  14.255  17.688   3.765
91179W        W52633  29.102  12.187  14.450
91180W        W52634  23.066  17.280  13.060
91181W        W52635  19.553  15.734   9.955
91182W        W52636  20.537  43.871   4.716
91183W        W52637   4.923  25.510   3.213
91184W        W52638  35.866   8.746   2.324
91185W        W52639   1.785  10.700  12.537
91186W        W52640  25.107  28.469  14.298
91187W        W52641  13.218  37.026   0.356
91188W        W52642   9.298  27.650  14.345
91189W        W52643  30.967  42.778  11.605
91190W        W52644  15.191  37.579  14.967
91191W        W52645  32.461   4.912  11.420
91192W        W52646  15.275  44.869   4.698
91193W        W52647   4.449   5.381  12.971
91194W        W52648   8.884  38.545  11.035
91195W        W52649  11.312  17.642   9.947
91196W        W52650  10.670  32.621   9.624
91197W        W52651  16.196  26.111  11.565
91198W        W52652  15.774  25.611  10.449
91199W        W52653   2.878  12.231   0.778
91200W        W52654  11.350  42.316  14.468
91201W        W52655  32.607  35.019   3.252
91202W        W52656  30.462   2.782   9.443
91203W        W52657  39.910  34.898  11.530
91204W        W52658  26.486   9.733   0.365
91205W        W52659  44.325   0.280   4.791
91206W        W52660  20.272  20.100  13.897
91207W        W52661  15.119  14.104   3.839
91208W        W52662  18.691  26.518   4.599
91209W        W52663   9.390  34.053   4.327
91210W        W52664  31.995   3.428  10.056
91211W        W52665  21.224   9.384  13.002
91212W        W52666  16.087  39.851  14.501
91213W        W52667  44.758   3.790  11.566
91214W        W52668  33.114  33.929  10.433
91215W        W52669   9.204  29.601  12.501
91216W        W52670   6.257   5.226  14.777
91217W        W52671  11.852   4.217  11.389
91218W        W52672   2.432   8.187  14.364
91219W        W52673   9.813   6.247   1.902
91220W        W52674  32.571   9.177  11.065
91221W        W52675  34.593  44.795  10.996
91222W        W52676  28.676  16.727  13.364
91223W        W52677  12.199  15.617  13.016
91224W        W52678  11.720  28.548   0.770
91225W        W52679  44.992  17.116  14.955
91226W        W52680  34.052  21.597  14.306
91227W        W52681  22.093   3.844   4.297
91228W        W52682  40.813   2.434   0.766
91229W        W52683  39.386  11.213  14.948
91230W        W52684  37.897  44.866  13.462
91231W        W52685  26.059  23.038   1.344
91232W        W52686  39.902   2.415   1.406
91233W        W52687  30.966  40.398  11.898
91234W        W52688  44.392  26.666   3.681
91235W        W52689  33.554  27.041   0.438
91236W        W52690  35.488   2.443   2.693
91237W        W52691  25.659  21.042   9.989
91238W        W52692  22.522  19.195  13.494
91239W        W52693  31.145  38.497  11.404
91240W        W52694  28.456  44.465  12.058
91241W        W52695   7.311  23.121   1.878
91242W        W52696   1.854  34.614   1.341
91243W        W52697  34.976  14.256   4.798
91244W        W52698   1.761  41.845  13.007
91245W        W52699   3.290  38.423   9.963
91246W        W52700  15.814  33.086   1.431
91247W        W52701  22.588  20.598   4.680
91248W        W52702   2.398  10.781  14.943
91249W        W52703  18.052   1.436  12.339
91250W        W52704   4.799   6.285  14.312
91251W        W52705   4.720  13.309  13.459
91252W        W52706  23.122  31.993   3.679
91253W        W52707  34.551  31.479   3.736
91254W        W52708  35.878  12.626  11.918
91255W        W52709  39.350  19.772  12.560
91256W        W52710  13.627   0.907  13.894
91257W        W52711  27.001  13.215  14.786
91258W        W52712  12.327   4.875  11.891
91259W        W52713  30.096  44.933  14.956
91260W        W52714  36.479  19.627  13.791
91261W        W52715  24.510  21.586   4.179
91262W        W52716  38.995  20.138  14.816
91263W        W52717  40.411  10.353   3.679
91264W        W52718  19.542  16.311  13.046
91265W        W52719  40.041  30.543  11.948
91266W        W52720  20.735  10.737  10.514
91267W        W52721  41.919  10.196  14.437
91268W        W52722  40.052  43.852  14.879
91269W        W52723  28.614  27.468  14.329
91270W        W52724   7.777  18.752  13.393
91271W        W52725  25.164  40.967  13.801
91272W        W52726  16.652  17.774  10.608
91273W        W52727  16.129  30.066   3.704
91274W        W52728  19.629  14.748  12.574
91275W        W52729  41.813  17.164  10.472
91276W        W52730   9.788  41.964   1.869
91277W        W52731  35.893  21.141   3.807
91278W        W52732  21.656   7.362  11.386
91279W        W52733   6.879  44.319  14.449
91280W        W52734  34.408  43.975   2.695
91281W        W52735  34.483  33.068  13.548
91282W        W52736  36.973   5.757  13.849
91283W        W52737   7.744  16.617   4.673
91284W        W52738  16.124  22.714  11.893
91285W        W52739  27.510  41.353  10.892
91286W        W52740  32.528  34.991  12.919
91287W        W52741  20.575  32.033   1.406
91288W        W52742  14.307   8.897   3.350
91289W        W52743  43.959  17.731  14.808
91290W        W52744   4.380  14.798   3.359
91291W        W52745  11.764  30.014   2.777
91292W        W52746  25.565  38.347  14.348
91293W        W52747   6.683  24.027   3.714
91294W        W52748  35.568  34.918  13.376
91295W        W52749  14.754  37.880   0.255
91296W        W52750  16.748   8.320  13.341
91297W        W52751  42.352  32.593   0.730
91298W        W52752   9.857  37.364   1.380
91299W        W52753  34.605  20.561   1.866
91300W        W52754  35.395   3.314   4.821
91301W        W52755  19.112  25.525  13.488
91302W        W52756  43.768   0.829   0.480
91303W        W52757  40.049  19.613   2.217
91304W        W52758  12.637  28.636   2.787
91305W        W52759  25.511  35.884  12.536
91306W        W52760  13.639  11.183  12.388
91307W        W52761  29.074   4.905  13.434
91308W        W52762  21.576  21.521  12.971
91309W        W52763  14.739  41.985  14.781
91310W        W52764  28.529  23.675  14.377
91311W        W52765   0.370   0.271  14.783
91312W        W52766  36.500  37.966   4.294
91313W        W52767  15.802  35.955   2.340
91314W        W52768  32.452  12.677   2.218
91315W        W52769  24.619   2.413   4.789
91316W        W52770  36.053   4.278   2.779
91317W        W52771  26.013  25.589  14.762
91318W        W52772  11.161  42.409   2.799
91319W        W52773  44.351  26.645   2.811
91320W        W52774  35.044  28.597   4.322
91321W        W52775  13.696   3.389   0.284
91322W        W52776  44.900  36.043  10.407
91323W        W52777  23.193  36.874  11.085
91324W        W52778  22.156  33.920  12.526
91325W        W52779  15.171  25.604   0.927
91326W        W52780  35.860  35.591   4.281
91327W        W52781   8.200   7.247   3.195
91328W        W52782  44.439   0.279   2.764
91329W        W52783  38.852  30.644  13.383
91330W        W52784  24.184  37.365  10.115
91331W        W52785   5.884  24.034  10.445
91332W        W52786  25.076  42.441  12.466
91333W        W52787   5.392  40.880   3.380
91334W        W52788  21.739  13.163  14.354
91335W        W52789  32.078  37.869   1.830
91336W        W52790  34.582   4.825   1.745
91337W        W52791  44.867  11.153  12.375
91338W        W52792  36.901  27.121  11.961
91339W        W52793   3.268  30.059   1.305
91340W        W52794  40.995  11.338  14.834
91341W        W52795  40.379  13.290   2.896
91342W        W52796  31.473   2.313  14.971
91343W        W52797  29.638  14.101   0.863
91344W        W52798  34.454  30.589  13.846
91345W        W52799  40.400  19.189   2.211
91346W        W52800  20.054   4.225  13.004
91347W        W52801   5.427   6.350   4.778
91348W        W52802   9.694  24.084   4.624
91349W        W52803  34.531   1.761   1.336
91350W        W52804  29.554   4.324  11.886
91351W        W52805  35.929  32.442   0.915
91352W        W52806  28.079  16.230   1.438
91353W        W52807  12.189  44.316  10.923
91354W        W52808  11.297  26.614   4.216
91355W        W52809   1.340  40.316   2.826
91356W        W52810  17.776   6.773  12.473
91357W        W52811  32.041   1.882   0.253
91358W        W52812  21.224  44.349   3.817
91359W        W52813  29.463  43.291   4.208
91360W        W52814  16.797  26.958   2.871
91361W        W52815  17.690  39.814  13.520
91362W        W52816   6.754  15.637   0.380
91363W        W52817   8.739  16.255   4.714
91364W        W52818  37.041   3.846   3.295
91365W        W52819  28.622  12.230   3.220
91366W        W52820  16.165  32.585  14.472
91367W        W52821  35.933   1.387   0.470
91368W        W52822  43.301   3.919   1.281
91369W        W52823  44.946  30.638  13.013
91370W        W52824   3.255  32.920   1.780
91371W        W52825   6.193  44.324   4.352
91372W        W52826   0.265  31.118   1.918
91373W        W52827  12.263  17.140   1.782
91374W        W52828   8.697  36.937  10.496
91375W        W52829  41.441  20.728   3.291
91376W        W52830  31.460  39.537  13.352
91377W        W52831  30.135   9.887   2.887
91378W        W52832  42.314  36.514  12.900
91379W        W52833  30.060  35.083  11.049
91380W        W52834  11.135  34.530  10.620
91381W        W52835  11.247  19.591   0.411
91382W        W52836  44.500  33.386  12.070
91383W        W52837  42.889   2.771   0.844
91384W        W52838  24.215  27.508   0.852
91385W        W52839  12.160  29.998  13.039
91386W        W52840  44.946  31.090   3.305
91387W        W52841  37.429  33.526  10.481
91388W        W52842  32.974  42.503  11.907
91389W        W52843  39.354  32.088  12.960
91390W        W52844   8.392  35.536   3.366
91391W        W52845  27.453  32.472  12.476
91392W        W52846  41.527  14.132   4.780
91393W        W52847  30.020  14.339   3.178
91394W        W52848   8.656   1.350  11.944
91395W        W52849  19.676  11.275   2.838
91396W        W52850  34.007  22.050  14.761
91397W        W52851  36.457  24.064  13.033
91398W        W52852  23.641  13.193  11.476
91399W        W52853  38.410   8.771   1.277
91400W        W52854   1.864  30.438  14.385
91401W        W52855   1.768   1.433   3.730
91402W        W52856  24.150   6.236   4.162
91403W        W52857  23.707  33.080  10.423
91404W        W52858  37.875  32.899   4.628
91405W        W52859   3.222  21.127  12.032
91406W        W52860  28.046   5.825   2.701
91407W        W52861  25.966  27.556  12.536
91408W        W52862  33.495  30.628   1.345
91409W        W52863  38.502  17.190  11.409
91410W        W52864  15.709  44.904  11.459
91411W        W52865  39.499   2.953   2.864
91412W        W52866  37.473  29.454   4.218
91413W        W52867  17.738  35.922  13.358
91414W        W52868  18.201  22.232   2.705
91415W        W52869  10.868  23.060  11.593
91416W        W52870  23.699  32.968   4.763
91417W        W52871  34.909  14.734   4.146
91418W        W52872  34.613  18.164   4.809
91419W        W52873  43.788   5.799  10.532
91420W        W52874  17.086  29.155  12.928
91421W        W52875  34.605  16.100  11.066
91422W        W52876   8.850  34.028  10.137
91423W        W52877  15.698   4.257  10.001
91424W        W52878  39.537  11.695  14.277
91425W        W52879  33.414   7.368   1.888
91426W        W52880  18.069  23.680   0.861
91427W        W52881  20.741   1.818   0.784
91428W        W52882  32.493  41.323   2.684
91429W        W52883   3.418  26.108   3.267
91430W        W52884  29.523   0.444   3.334
91431W        W52885   3.951  26.579  13.938
91432W        W52886  24.224  34.098   3.717
91433W        W52887  18.747  22.570  13.871
91434W        W52888   6.413  19.231   2.891
91435W        W52889  35.421  42.804  10.426
91436W        W52890   1.391   1.835  12.398
91437W        W52891  43.844   1.318   2.668
91438W        W52892  31.964  23.533  10.903
91439W        W52893  37.854  10.334  11.914
91440W        W52894   4.718  42.849   1.365
91441W        W52895  44.440  30.601  12.340
91442W        W52896  34.870   5.879  10.584
91443W        W52897  14.128  22.634   5.133
91444W        W52898  42.938  39.033   2.817
91445W        W52899  24.095  27.556  11.439
91446W        W52900  34.082  37.037  10.531
91447W        W52901  12.264   6.758  11.879
91448W        W52902  41.892   4.718   0.772
91449W        W52903  22.014  17.116   2.901
91450W        W52904  29.488  12.176  11.939
91451W        W52905  11.653  18.789   3.288
91452W        W52906  33.531  17.088   1.769
91453W        W52907  30.934   9.282   4.166
91454W        W52908  24.711  19.598  13.042
91455W        W52909   4.209  25.617  10.905
91456W        W52910  33.086   1.807  11.451
91457W        W52911  37.414   7.852   3.638
91458W        W52912   6.222  29.082   1.384
91459W        W52913  17.667  30.144  14.429
91460W        W52914  24.492  39.990  10.959
91461W        W52915   8.750   3.232  11.090
91462W        W52916  33.593  18.084  13.355
91463W        W52917  27.687  32.978   3.788
91464W        W52918  40.436   0.259  11.588
91465W        W52919  30.096  22.743  12.832
91466W        W52920   6.785  40.025   1.905
91467W        W52921  32.933  20.591   1.406
91468W        W52922  39.056  39.544  13.804
91469W        W52923   7.781  27.496  14.885
91470W        W52924  24.993  16.209   1.328
91471W        W52925  17.262   5.220  13.001
91472W        W52926  40.989  32.022   1.394
91473W        W52927  20.053  23.508   0.412
91474W        W52928  13.630  29.442  10.449
91475W        W52929  13.187  30.654   0.253
91476W        W52930  26.023   6.365   2.711
91477W        W52931  37.401  21.207  13.461
91478W        W52932  17.671  19.264   1.362
91479W        W52933  37.847  33.461  11.922
91480W        W52934  41.402  37.549   0.331
91481W        W52935  29.457   9.389   2.719
91482W        W52936  18.640  31.989  14.812
91483W        W52937   0.877  37.379  11.066
91484W        W52938  11.341   0.857   1.919
91485W        W52939  13.606   0.949   2.305
91486W        W52940  31.902  19.039  10.540
91487W        W52941  26.090  36.915   2.832
91488W        W52942  23.015  42.816   3.172
91489W        W52943   0.363  28.639  11.988
91490W        W52944  25.471  33.930   2.236
91491W        W52945  39.368  16.091  13.487
91492W        W52946  24.014  11.774  12.434
91493W        W52947  39.385  14.781   3.302
91494W        W52948   0.817   5.284   4.183
91495W        W52949  12.338  27.143  12.410
91496W        W52950  12.673   3.852   0.271
91497W        W52951  38.546  18.695   3.323
91498W        W52952  37.934  20.605  14.818
91499W        W52953  17.751  18.776   3.719
91500W        W52954  41.385  13.247   4.248
91501W        W52955  31.474   7.743   3.218
91502W        W52956  30.930  10.346   4.328
91503W        W52957   1.873  34.404  11.930
91504W        W52958  18.577  10.234  13.534
91505W        W52959   5.356  14.680  10.974
91506W        W52960  40.836  29.996  13.874
91507W        W52961  18.171  10.169   0.910
91508W        W52962  10.306  24.649  12.558
91509W        W52963   1.892  28.110  14.913
91510W        W52964  29.426  25.565  11.478
91511W        W52965  24.024  22.505  13.018
91512W        W52966   7.194  36.994   2.757
91513W        W52967  32.108  10.315  14.929
91514W        W52968  22.165  41.472   1.424
91515W        W52969  22.540  25.166  10.570
91516W        W52970  15.091  38.824   0.323
91517W        W52971   6.916  37.416   4.710
91518W        W52972  39.909  11.133  11.576
91519W        W52973  34.091  38.413  14.009
91520W        W52974  12.170  16.118   2.767
91521W        W52975   8.390  32.535  13.374
91522W        W52976  12.625  41.369  11.908
91523W        W52977  10.276  43.826   4.193
91524W        W52978  42.351   2.954   2.864
91525W        W52979  27.451  31.979   0.879
91526W        W52980  36.995  10.817   3.720
91527W        W52981  42.492  40.008  11.878
91528W        W52982  32.534  26.167  11.977
91529W        W52983  31.609  11.166  13.792
91530W        W52984   8.375  20.733  11.013
91531W        W52985  25.989  31.068  13.933
91532W        W52986  14.119  40.337   3.230
91533W        W52987  41.455  14.273  12.348
91534W        W52988  44.428  10.709   0.360
91535W        W52989  31.144  15.138  13.504
91536W        W52990  21.622   1.851   2.339
91537W        W52991  42.351  15.109   0.396
91538W        W52992  31.494  26.191   2.238
91539W        W52993  12.725  15.145  13.348
91540W        W52994   7.330   1.365   3.834
91541W        W52995  39.929  11.763   0.811
91542W        W52996  20.647  25.131  12.090
91543W        W52997  35.997  10.159   3.271
91544W        W52998  16.571   8.733  11.457
91545W        W52999  22.043  31.038  10.611
91546W        W53000  39.825   5.876   0.281
91547W        W53001  38.880  21.211   9.927
91548W        W53002  21.111  24.542  10.643
91549W        W53003  19.584  12.628  13.019
91550W        W53004   8.328  19.180   3.719
91551W        W53005  36.350  14.589  13.322
91552W        W53006  40.010  32.016  12.498
91553W        W53007  44.373  10.262   2.821
91554W        W53008  25.614  26.120   0.772
91555W        W53009  19.284  44.999   1.786
91556W        W53010  33.074  39.997  13.348
91557W        W53011  21.522   4.205  13.820
91558W        W53012   0.281   8.246  12.517
91559W        W53013   2.287  17.168   1.225
91560W        W53014   5.718   1.940  13.968
91561W        W53015  13.125  40.462   1.796
91562W        W53016  10.281  11.748  11.107
91563W        W53017  33.956  38.076   1.358
91564W        W53018   3.895   9.768   0.777
91565W        W53019  19.072  17.149   1.407
91566W        W53020  14.717  35.512   2.214
91567W        W53021   3.316  44.394   4.695
91568W        W53022  33.028  19.651  14.914
91569W        W53023  25.209  41.424  13.844
91570W        W53024  18.116  44.491   1.929
91571W        W53025   8.174  43.868   1.338
91572W        W53026  29.576   9.164  10.990
91573W        W53027  32.888  13.844  11.125
91574W        W53028  12.181  23.597   0.745
91575W        W53029  32.629   6.332   0.728
91576W        W53030   1.471  40.491   1.863
91577W        W53031  10.874   1.884  11.596
91578W        W53032  44.817  33.532  13.423
91579W        W53033   1.364  23.504   3.664
91580W        W53034  43.383  16.261   1.758
91581W        W53035   9.203   2.470  14.412
91582W        W53036  14.096  36.420  12.885
91583W        W53037  41.336   5.329   2.785
91584W        W53038  20.527  36.905   4.227
91585W        W53039  10.650   6.789  10.506
91586W        W53040   6.190   1.402  13.026
91587W        W53041  35.083  37.501  13.447
91588W        W53042   6.877   5.430  14.469
91589W        W53043   8.889   1.314   1.406
91590W        W53044  26.587  32.141   1.351
91591W        W53045  24.583  36.091  12.035
91592W        W53046  38.929  15.675  13.535
91593W        W53047   7.402  35.050  10.096
91594W        W53048  39.808  27.568   2.898
91595W        W53049  32.073  27.667   2.242
91596W        W53050  30.476  42.954   0.345
91597W        W53051   8.884  44.490  13.035
91598W        W53052   8.793  40.943   1.715
91599W        W53053   7.295   9.165  11.569
91600W        W53054  25.141  25.551  14.302
91601W        W53055   0.457  17.306   1.926
91602W        W53056  30.046  36.043   3.805
91603W        W53057   1.827  30.652   2.361
91604W        W53058  26.984  36.518  12.841
91605W        W53059  21.019   4.386  12.094
91606W        W53060  13.253  41.932   4.623
91607W        W53061  34.441   6.302  10.998
91608W        W53062  28.161  24.495  13.886
91609W        W53063  19.200   1.764   0.805
91610W        W53064  35.884  19.078  13.470
91611W        W53065  35.022   7.753   1.825
91612W        W53066  25.112  34.979  12.935
91613W        W53067  10.212  26.576   4.194
91614W        W53068   5.341  16.295  11.384
91615W        W53069   7.409  17.623   0.458
91616W        W53070   6.847  13.652   2.296
91617W        W53071  30.948  23.172  10.149
91618W        W53072  38.044  29.020  13.475
91619W        W53073   6.212   9.745   4.796
91620W        W53074  32.489  15.266   1.935
91621W        W53075   1.828  27.674   0.767
91622W        W53076  32.416  35.475  12.031
91623W        W53077   9.839  26.208  10.988
91624W        W53078  27.091  24.541   5.184
91625W        W53079  43.354  40.416   1.894
91626W        W53080  23.677   4.284  11.930
91627W        W53081  19.156  27.525   3.187
91628W        W53082  10.207  36.436   3.332
91629W        W53083  24.140   5.275   2.378
91630W        W53084  13.603  20.618   3.298
91631W        W53085  39.921  32.117  11.012
91632W        W53086  14.626  16.254   1.296
91633W        W53087  39.043  29.440  10.537
91634W        W53088  20.064  36.028  10.579
91635W        W53089  24.590  32.462  14.428
91636W        W53090  14.230  20.036  10.505
91637W        W53091  31.058  37.050  13.843
91638W        W53092  36.976  15.737   2.310
91639W        W53093  27.481  22.552  13.863
91640W        W53094   4.437  39.342   4.162
91641W        W53095  17.263  35.374  11.920
91642W        W53096  34.953   9.846   2.233
91643W        W53097  44.879   6.395   2.852
91644W        W53098  14.831   3.216  11.065
91645W        W53099  27.111  21.629   3.284
91646W        W53100  37.916   5.301   2.229
91647W        W53101  36.502  30.523  13.064
91648W        W53102  10.661  29.628   0.900
91649W        W53103  37.889  14.157   0.908
91650W        W53104  26.649  26.675  14.501
91651W        W53105  16.270   3.347  10.488
91652W        W53106  44.313  25.492  12.879
91653W        W53107  39.002   2.469   1.734
91654W        W53108  14.223  41.981   4.146
91655W        W53109  24.684   5.739   0.371
91656W        W53110  14.195   7.202  13.895
91657W        W53111  20.547   9.283  11.954
91658W        W53112   9.192  39.356  11.908
91659W        W53113  10.359  19.697   5.681
91660W        W53114   9.810  33.424  12.014
91661W        W53115  38.973  17.630  12.508
91662W        W53116   8.380  10.258  13.891
91663W        W53117  36.917   7.240  13.053
91664W        W53118   8.351  43.816  10.971
91665W        W53119  11.219  12.121  13.383
91666W        W53120   4.706  44.835   2.188
91667W        W53121  27.032   4.395  12.900
91668W        W53122   3.838  39.455   1.354
91669W        W53123  14.647  16.091   2.668
91670W        W53124  26.971  31.016   9.604
91671W        W53125  38.031  27.097  14.863
91672W        W53126  34.067  28.965   3.826
91673W        W53127  34.974  18.197   4.708
91674W        W53128   4.351  38.888   0.339
91675W        W53129   7.306  18.564   4.315
91676W        W53130  40.381  34.940   2.359
91677W        W53131  31.026  26.142   4.343
91678W        W53132   4.784   2.745   2.808
91679W        W53133  38.064  40.333   1.327
91680W        W53134   6.337  24.025  14.863
91681W        W53135   8.253  31.515   3.755
91682W        W53136  24.010   0.489   4.674
91683W        W53137  25.214  41.397   1.836
91684W        W53138  22.507  31.950   0.365
91685W        W53139   0.815   0.977  12.839
91686W        W53140  12.182  43.392   1.751
91687W        W53141   9.852   8.883   4.685
91688W        W53142  15.319   5.383   3.799
91689W        W53143  24.013  29.552   0.269
91690W        W53144   7.673  30.968   5.231
91691W        W53145  36.556  16.631   1.934
91692W        W53146  41.444  38.031  10.970
91693W        W53147  41.927  40.018  10.899
91694W        W53148  43.866  36.562   2.800
91695W        W53149  43.965  29.091   4.603
91696W        W53150  14.828  22.183   4.199
91697W        W53151  20.250   7.883   9.442
91698W        W53152  36.865  16.280  12.923
91699W        W53153  17.152   4.305   4.726
91700W        W53154  15.185  21.128   0.758
91701W        W53155  22.147  11.159   0.270
91702W        W53156  12.675  21.624   0.881
91703W        W53157  17.653  13.777  14.489
91704W        W53158  18.663  21.602   2.292
91705W        W53159  12.137   1.738  12.401
91706W        W53160  37.513  35.014  13.830
91707W        W53161  26.086  17.302   4.600
91708W        W53162   9.883  39.330   1.266
91709W        W53163   0.904   1.286  13.830
91710W        W53164  27.671  12.631  11.040
91711W        W53165  35.581  43.414   1.379
91712W        W53166  38.356   8.368   1.894
91713W        W53167  17.063  12.195  11.406
91714W        W53168  35.567  42.803   4.300
91715W        W53169   0.445   1.304   2.746
91716W        W53170  10.836   5.911  10.549
91717W        W53171  31.078  38.985  10.630
91718W        W53172  41.029  28.662   0.299
91719W        W53173  19.536  42.506  13.474
91720W        W53174  16.717  10.332  14.278
91721W        W53175  30.990  16.684  13.319
91722W        W53176  21.745  30.529   3.728
91723W        W53177  13.205  38.382  14.320
91724W        W53178  14.166  32.421   4.275
91725W        W53179  27.165  12.315   1.883
91726W        W53180  22.685   4.434   0.457
91727W        W53181  19.286  16.670   0.949
91728W        W53182  41.990  11.625   3.811
91729W        W53183  41.385  24.521   0.964
91730W        W53184  17.558  21.517  11.126
91731W        W53185  22.691   3.760   2.814
91732W        W53186  34.981  23.230  10.604
91733W        W53187   9.883  32.411  11.095
91734W        W53188   2.381  32.509   3.724
91735W        W53189   3.941  34.874  12.349
91736W        W53190   5.395   7.863   0.863
91737W        W53191   0.887  36.439  10.993
91738W        W53192   7.300  24.072   2.404
91739W        W53193  25.184  41.891  10.613
91740W        W53194  26.207  40.904  12.469
91741W        W53195  10.876  29.649  12.029
91742W        W53196   1.255  36.369   3.246
91743W        W53197  35.928  39.428   1.887
91744W        W53198  29.430  35.380   3.280
91745W        W53199  38.404  28.642   1.330
91746W        W53200  29.575   7.381  11.545
91747W        W53201  21.575   4.909   0.407
91748W        W53202  35.095  40.346  14.814
91749W        W53203  12.834  23.604   2.731
91750W        W53204  16.092  13.741   2.716
91751W        W53205   3.906  10.664   1.881
91752W        W53206  34.875  10.714   2.248
91753W        W53207  30.996  32.559   4.285
91754W        W53208   0.892  29.023   4.212
91755W        W53209  28.480   1.464  13.963
91756W        W53210  40.529  25.997   2.236
91757W        W53211  39.008   5.361   1.242
91758W        W53212  29.093  16.689  13.883
91759W        W53213  18.176   8.661  14.759
91760W        W53214  12.326  30.490   0.465
91761W        W53215  30.992  36.022   5.186
91762W        W53216  23.993  26.668  14.294
91763W        W53217  30.076  26.466   1.810
91764W        W53218  26.496  36.555   3.782
91765W        W53219  17.265  42.437  11.588
91766W        W53220  18.092  18.628   2.394
91767W        W53221  37.934  40.328  14.985
91768W        W53222  39.347   4.430  11.470
91769W        W53223  24.148   2.245   2.362
91770W        W53224  17.093  31.948  11.445
91771W        W53225  13.732  39.467  13.395
91772W        W53226  39.862   0.756  12.394
91773W        W53227  31.417  25.011   4.733
91774W        W53228   4.411  24.710   4.604
91775W        W53229   4.438   3.873  13.834
91776W        W53230  10.838   2.956  11.958
91777W        W53231  12.686  23.505   4.158
91778W        W53232  39.359  21.512  11.963
91779W        W53233  13.723  20.695  13.469
91780W        W53234  23.241  29.433  10.915
91781W        W53235  23.219  23.146  14.300
91782W        W53236  13.217   8.765  10.051
91783W        W53237  16.725  38.946  12.870
91784W        W53238  40.362  18.607   1.262
91785W        W53239  35.995  40.017   1.817
91786W        W53240   9.389  11.690   4.779
91787W        W53241  22.665  24.224  11.503
91788W        W53242  32.118   3.239   2.847
91789W        W53243  27.585  12.294   4.216
91790W        W53244  17.561  10.335  12.914
91791W        W53245  36.534  11.709  11.006
91792W        W53246  40.007  15.176   4.224
91793W        W53247  23.116  13.776   2.293
91794W        W53248  37.036  19.767   1.424
91795W        W53249  26.975  39.400   4.287
91796W        W53250   6.384  36.084  11.106
91797W        W53251  19.691  15.806  11.091
91798W        W53252  23.579  16.568   0.346
91799W        W53253  11.725  23.575  14.303
91800W        W53254  30.082  42.473   4.352
91801W        W53255   9.760  36.898   2.901
91802W        W53256  37.551  26.529   3.355
91803W        W53257  12.751  16.256  10.474
91804W        W53258  12.150  29.938   4.269
91805W        W53259  44.962  35.555  12.955
91806W        W53260  42.870  18.691  10.953
91807W        W53261   7.772  39.851  11.916
91808W        W53262  22.607   7.288  12.353
91809W        W53263   9.769  36.518   1.452
91810W        W53264  34.477  13.340  13.808
91811W        W53265  36.089  16.794  14.303
91812W        W53266  42.030  38.491   2.269
91813W        W53267  29.523   7.790   4.615
91814W        W53268   2.957  19.768   4.281
91815W        W53269   9.351  16.258   4.677
91816W        W53270  23.078   0.464   0.478
91817W        W53271  10.341  26.588   0.459
91818W        W53272  39.849  17.128   4.297
91819W        W53273  18.226  27.056  13.983
91820W        W53274   2.867  27.971  11.933
91821W        W53275  19.591  42.377   3.836
91822W        W53276  18.112  38.558  11.611
91823W        W53277  24.995  40.516   2.895
91824W        W53278  29.650  23.619  11.433
91825W        W53279  38.523   7.260  14.496
91826W        W53280  22.685  36.493   4.740
91827W        W53281  40.943  25.567   2.680
91828W        W53282  14.216  33.536   0.773
91829W        W53283   7.322  31.499  13.311
91830W        W53284  28.931  35.599   2.272
91831W        W53285   2.291  15.239   2.705
91832W        W53286  10.740   5.811  11.029
91833W        W53287  43.282  11.829  12.351
91834W        W53288  11.771  12.258  12.896
91835W        W53289  19.656  25.183   1.760
91836W        W53290  42.445  14.156  11.949
91837W        W53291   8.859  18.733  11.442
91838W        W53292   8.311  15.709  10.426
91839W        W53293  22.702  25.037  14.976
91840W        W53294  26.568  27.025   1.296
91841W        W53295  41.937  16.744   0.817
91842W        W53296  33.969  34.479   3.326
91843W        W53297  30.459  32.898  10.624
91844W        W53298   2.837  34.408  13.320
91845W        W53299  32.521  34.996   4.684
91846W        W53300  11.683  32.588  12.885
91847W        W53301  35.592   3.854  12.082
91848W        W53302  27.132  18.768  10.456
91849W        W53303  23.131   4.727   4.610
91850W        W53304  17.649  36.420   4.705
91851W        W53305  23.103  11.794  14.015
91852W        W53306   1.315  29.045  12.056
91853W        W53307   9.227   4.206  14.815
91854W        W53308  19.246  37.446  11.998
91855W        W53309  20.532  41.899   4.769
91856W        W53310  41.397  32.542   2.390
91857W        W53311  15.705  23.988  14.516
91858W        W53312  42.472  18.211   3.802
91859W        W53313  28.125  20.267   2.195
91860W        W53314  37.011  13.763   0.272
91861W        W53315  34.100  22.575   1.256
91862W        W53316  15.754   5.913   0.962
91863W        W53317  18.250   3.804   2.896
91864W        W53318  10.230  14.182   1.246
91865W        W53319  34.888   3.814   2.307
91866W        W53320  31.520   4.739  10.520
91867W        W53321  37.495  13.335   4.192
91868W        W53322  26.620  44.346  10.929
91869W        W53323  36.476  12.167   4.824
91870W        W53324  10.820  22.649   4.141
91871W        W53325  43.273  20.040   1.238
91872W        W53326  25.962  29.653  11.031
91873W        W53327  22.565  22.691   1.923
91874W        W53328   6.420  33.396   4.763
91875W        W53329  15.578  18.270   9.939
91876W        W53330  37.383  32.941  14.907
91877W        W53331  44.323   6.303   1.210
91878W        W53332  31.916  31.532  11.382
91879W        W53333   1.944  17.085  14.998
91880W        W53334  32.110  12.721   3.829
91881W        W53335  37.051  11.728   0.758
91882W        W53336  16.704  43.411   4.641
91883W        W53337   5.726  11.742   0.321
91884W        W53338   8.827   4.729  11.075
91885W        W53339  34.119   6.219  14.486
91886W        W53340  41.817  17.076   0.873
91887W        W53341   3.392  39.950  10.986
91888W        W53342  10.350   9.214   3.294
91889W        W53343  43.321   5.220  13.417
91890W        W53344  39.364  16.795  11.561
91891W        W53345  38.065  18.644   2.711
91892W        W53346   1.277  39.537   1.887
91893W        W53347  19.625  31.463  11.486
91894W        W53348  22.103  11.233  11.916
91895W        W53349   2.409  36.984  11.909
91896W        W53350  21.549  34.386   2.681
91897W        W53351  35.454  19.768  11.599
91898W        W53352  33.533  14.245   2.327
91899W        W53353   9.766  23.652   0.422
91900W        W53354  14.700   6.364  14.358
91901W        W53355  15.153   1.883   1.927
91902W        W53356  30.922  11.782   0.812
91903W        W53357  32.088  27.679  14.768
91904W        W53358  32.505  26.609  10.462
91905W        W53359  41.530   9.870   1.777
91906W        W53360  30.963   3.930  14.020
91907W        W53361   7.324  36.943  12.460
91908W        W53362  26.022  16.742   0.303
91909W        W53363   7.201  37.832   0.800
91910W        W53364  18.603   0.827  10.111
91911W        W53365  15.765  35.858   4.638
91912W        W53366  37.037  43.302  14.429
91913W        W53367  30.109  28.068   3.699
91914W        W53368  43.864  33.013  12.514
91915W        W53369  25.676  22.735   4.835
91916W        W53370   3.818  29.998  12.828
91917W        W53371  39.912  39.424   0.792
91918W        W53372  23.517  41.472  10.479
91919W        W53373  30.511  14.635   3.212
91920W        W53374  17.679  40.475   3.858
91921W        W53375  37.937  25.166  14.879
91922W        W53376   4.358  27.022   0.867
91923W        W53377   6.319  16.807  11.857
91924W        W53378  12.691  43.400  13.379
91925W        W53379  37.398  38.456   2.191
91926W        W53380  37.834  23.668  14.971
91927W        W53381  24.486  38.857  14.863
91928W        W53382  22.143  14.103  11.587
91929W        W53383  40.332  20.253  14.433
91930W        W53384  28.103  31.119   3.795
91931W        W53385  29.479  38.959  14.781
91932W        W53386  31.421  41.374   0.432
91933W        W53387  44.453  37.951   4.837
91934W        W53388  20.570  25.148   2.211
91935W        W53389  15.204   6.713   1.781
91936W        W53390  31.468  19.188  11.572
91937W        W53391  21.263   9.777   1.283
91938W        W53392  25.119  32.982   5.602
91939W        W53393  22.599  38.486   4.803
91940W        W53394  17.799  43.344   4.695
91941W        W53395   8.839  24.723  13.918
91942W        W53396  39.063  14.120   1.704
91943W        W53397  11.186   4.366   0.404
91944W        W53398   4.324  13.306  14.493
91945W        W53399  37.533   8.370   4.808
91946W        W53400  12.788  23.103  11.042
91947W        W53401   0.447   4.267   3.330
91948W        W53402  23.004  23.534  11.579
91949W        W53403  35.388   0.273   1.213
91950W        W53404  33.477  17.132  11.887
91951W        W53405   3.869   3.415   4.277
91952W        W53406  28.050   6.250  11.074
91953W        W53407  24.215  32.139  10.564
91954W        W53408  35.053  38.476   3.356
91955W        W53409  15.725  10.214  13.509
91956W        W53410   2.417  17.698  13.905
91957W        W53411   5.728  40.957  14.404
91958W        W53412  34.382  42.402  12.366
91959W        W53413   1.834   7.278  13.930
91960W        W53414  40.429  15.798   1.214
91961W        W53415  32.494  36.018   1.909
91962W        W53416   8.385  16.220   3.741
91963W        W53417  14.793  31.075   3.366
91964W        W53418   7.892  26.678   3.763
91965W        W53419  28.132  38.448  12.901
91966W        W53420  19.680  10.785  13.893
91967W        W53421  20.193  44.961  13.403
91968W        W53422  43.358  41.820  11.558
91969W        W53423  31.556  37.029   4.741
91970W        W53424  15.746   0.259  11.588
91971W        W53425  25.083  44.806   3.276
91972W        W53426   4.813  12.212   0.283
91973W        W53427  19.733   0.834   0.444
91974W        W53428  26.465  11.206  10.557
91975W        W53429   2.845  29.654  11.435
91976W        W53430   9.652  32.436  12.398
91977W        W53431   4.760  32.553   1.299
91978W        W53432  42.908  29.529   1.838
91979W        W53433  40.320  33.098   2.758
91980W        W53434   1.266   6.803   1.893
91981W        W53435  35.531  25.626   0.465
91982W        W53436  23.649  41.000   2.712
91983W        W53437  30.618   1.884   2.791
91984W        W53438  12.172   2.255   2.220
91985W        W53439  37.560  32.451   3.833
91986W        W53440  15.751  10.234  11.958
91987W        W53441  31.062  18.080  12.002
91988W        W53442   6.373  14.826  13.460
91989W        W53443  17.766  40.512   0.781
91990W        W53444  27.673   6.863   1.308
91991W        W53445  13.671  38.425   5.309
91992W        W53446  28.605   2.308   2.780
91993W        W53447  30.495  15.101   2.216
91994W        W53448   5.809  17.154  11.974
91995W        W53449   3.223  32.950   4.184
91996W        W53450  41.310   7.250  10.542
91997W        W53451  32.996  24.687   4.204
91998W        W53452  31.433  14.167   2.320
91999W        W53453  44.812  40.378  11.446
92000W        W53454   2.228   4.858   4.296
92001W        W53455  20.687  36.573   4.794
92002W        W53456  44.280  36.390   4.177
92003W        W53457  17.077   8.406   2.876
92004W        W53458  14.184  24.209  10.984
92005W        W53459  15.275   9.689   0.299
92006W        W53460  19.621  24.687  11.965
92007W        W53461  31.611  36.093  12.077
92008W        W53462  40.002   0.941  14.967
92009W        W53463  43.304  32.133  10.957
92010W        W53464  32.522  34.455  11.454
92011W        W53465  20.557  30.983   4.314
92012W        W53466  33.400  10.203   2.406
92013W        W53467  17.121  35.470  10.405
92014W        W53468  15.170  14.152  14.499
92015W        W53469   6.772  43.805   1.791
92016W        W53470  18.170  25.193   0.462
92017W        W53471  37.857   0.425   3.864
92018W        W53472  27.644  22.706  14.892
92019W        W53473   0.825  25.174  12.901
92020W        W53474  21.169  36.084   4.348
92021W        W53475  30.979   7.379   4.730
92022W        W53476  29.524  38.389   2.415
92023W        W53477   2.362  28.115   0.282
92024W        W53478   2.429   4.210  14.349
92025W        W53479  35.414  31.431   4.264
92026W        W53480   9.859  43.309  13.526
92027W        W53481  12.240  21.563   1.305
92028W        W53482  36.366  31.613  14.466
92029W        W53483  24.219  33.516  14.382
92030W        W53484  18.694  28.059   1.421
92031W        W53485  19.054  39.550  11.528
92032W        W53486  30.585  35.531  13.519
92033W        W53487  44.916  12.230  12.969
92034W        W53488  25.103   1.292  11.949
92035W        W53489  25.014  28.968   0.902
92036W        W53490  19.058  32.571  13.962
92037W        W53491  30.490  10.792   4.130
92038W        W53492  28.531  38.014  11.047
92039W        W53493  26.005  18.125   2.691
92040W        W53494  37.026  26.632  10.547
92041W        W53495  21.221  39.434   1.262
92042W        W53496  14.802  21.650  11.389
92043W        W53497  18.173   7.839   0.878
92044W        W53498  37.384   4.304   3.769
92045W        W53499   9.318   6.714  13.390
92046W        W53500  18.233  13.607   4.691
92047W        W53501  15.812  40.931   2.703
92048W        W53502  31.419  18.720  10.459
92049W        W53503   8.658  10.349   2.772
92050W        W53504  37.384  34.956  14.805
92051W        W53505  10.155   6.322   2.728
92052W        W53506  39.911  10.651  14.415
92053W        W53507  42.945  24.501   1.779
92054W        W53508  42.031  41.999  14.022
92055W        W53509  40.318  39.934  14.886
92056W        W53510   0.902   0.288  11.075
92057W        W53511  12.695  21.252  12.457
92058W        W53512   5.201  42.281   0.739
92059W        W53513  17.769  19.106   2.211
92060W        W53514  14.194  41.293   1.852
92061W        W53515  20.607  16.177   2.321
92062W        W53516  20.721  44.911   2.237
92063W        W53517  15.626  34.900  13.404
92064W        W53518  16.254  10.828  12.339
92065W        W53519  27.055  43.419  14.477
92066W        W53520  37.001  44.920  13.364
92067W        W53521  33.016  35.592  13.361
92068W        W53522  29.155  24.607  13.958
92069W        W53523  26.035  22.198  11.417
92070W        W53524  37.495  35.528  14.511
92071W        W53525  25.630  42.354  12.451
92072W        W53526   1.881  38.477   3.750
92073W        W53527   6.376  10.273  12.433
92074W        W53528  22.595  13.166   0.806
92075W        W53529   7.405  21.632   0.366
92076W        W53530  28.076  24.691  10.608
92077W        W53531  15.160  20.748   0.473
92078W        W53532  16.175  30.932   3.798
92079W        W53533   3.865  43.914   3.361
92080W        W53534  28.170  10.378   1.757
92081W        W53535   9.883  30.051  11.924
92082W        W53536  24.086  21.231   0.826
92083W        W53537   6.389  35.491   2.390
92084W        W53538  41.465  25.093  14.948
92085W        W53539   0.382   6.370   1.735
92086W        W53540  27.507  41.493  10.616
92087W        W53541  16.701   1.248   0.315
92088W        W53542   1.266   4.743   4.747
92089W        W53543  19.141  33.488   4.147
92090W        W53544  21.681  37.539  10.481
92091W        W53545   7.898  12.741   0.780
92092W        W53546  18.261  43.917   3.836
92093W        W53547  28.658  44.274  12.962
92094W        W53548  44.361  15.111  11.540
92095W        W53549  42.973  29.161   4.803
92096W        W53550  28.471   5.849   2.666
92097W        W53551   3.399  35.388  12.083
92098W        W53552  28.534   5.325   3.351
92099W        W53553  17.562   4.353   1.374
92100W        W53554  33.582  30.939  14.999
92101W        W53555  32.516  27.073  13.531
92102W        W53556  13.810  37.570   4.647
92103W        W53557  28.661  22.595   3.241
92104W        W53558  14.244  42.291   1.259
92105W        W53559   3.892  26.966   3.202
92106W        W53560  32.061  43.893  11.521
92107W        W53561  42.480  43.003   0.955
92108W        W53562  25.966  12.726   4.767
92109W        W53563  31.585  24.142  10.573
92110W        W53564  21.071  25.609   4.320
92111W        W53565  20.154  29.454  11.017
92112W        W53566  19.090  36.536  11.868
92113W        W53567   1.829   0.257  14.883
92114W        W53568  43.308  32.003  13.956
92115W        W53569  24.214   2.750  10.982
92116W        W53570  12.198  16.156   3.169
92117W        W53571  17.717   1.771   0.853
92118W        W53572  13.245  35.966   3.203
92119W        W53573  12.715  33.545  12.453
92120W        W53574  18.131  30.151   0.882
92121W        W53575  32.969   0.758  11.954
92122W        W53576  28.043  36.484   1.809
92123W        W53577  32.013  40.338   5.185
92124W        W53578  12.610  22.740   4.323
92125W        W53579  37.838  25.651  11.079
92126W        W53580  13.657  17.640  14.275
92127W        W53581  38.826  36.583   4.798
92128W        W53582   8.743   1.795  10.498
92129W        W53583  22.152  13.615   3.795
92130W        W53584  23.073  18.059  11.113
92131W        W53585  27.987  21.071  11.995
92132W        W53586  35.377  42.963   3.693
92133W        W53587   3.868  16.295  11.581
92134W        W53588  23.526  37.340  11.475
92135W        W53589  36.489  37.502   4.611
92136W        W53590  17.095  38.041  14.354
92137W        W53591  29.173  29.637   3.720
92138W        W53592  31.993   7.811  11.105
92139W        W53593   3.377   4.844   3.345
92140W        W53594  25.691  31.546  12.562
92141W        W53595  27.485  24.036  14.822
92142W        W53596  23.992  31.059  10.449
92143W        W53597  30.632  12.709   1.827
92144W        W53598  23.242  16.167   1.899
92145W        W53599  26.580  11.141   4.613
92146W        W53600  28.127  29.926   3.641
92147W        W53601  18.724  36.958   4.133
92148W        W53602  22.166  19.264  10.552
92149W        W53603  35.374  28.096  11.476
92150W        W53604  12.199   4.926  10.425
92151W        W53605  31.906  44.974  13.508
92152W        W53606  41.855  19.130  14.811
92153W        W53607  39.402  32.460  13.818
92154W        W53608   3.317  32.396   0.468
92155W        W53609  35.442   8.881   1.422
92156W        W53610  21.727   6.338  11.900
92157W        W53611  38.841  35.948  14.844
92158W        W53612  25.621  17.797  11.899
92159W        W53613  12.635  39.904   3.702
92160W        W53614  38.028  37.040  13.537
92161W        W53615  21.254  25.666  14.869
92162W        W53616  18.576  33.941   1.374
92163W        W53617  38.350  20.555  12.897
92164W        W53618   2.857  42.996  10.413
92165W        W53619  34.029  15.108   4.630
92166W        W53620  24.557  18.095  11.009
92167W        W53621  35.010  26.555   1.358
92168W        W53622   8.761  28.606  10.517
92169W        W53623  42.504  33.946   1.314
92170W        W53624  40.944  10.174  12.539
92171W        W53625  14.759  18.186  10.547
92172W        W53626  11.857  24.094   4.743
92173W        W53627   7.314  21.567  11.590
92174W        W53628  33.573  41.505  10.145
92175W        W53629  39.341  24.632   3.180
92176W        W53630  41.910  39.442   2.343
92177W        W53631  35.029  15.816  11.546
92178W        W53632   0.804   7.736  14.947
92179W        W53633  42.491   3.953  11.880
92180W        W53634  20.097   4.272   0.816
92181W        W53635  28.560  38.978   4.764
92182W        W53636   6.864   6.902   4.332
92183W        W53637   2.268  14.830  14.367
92184W        W53638  29.155  35.465  11.017
92185W        W53639   1.315  28.571  13.472
92186W        W53640   1.880  36.555  14.328
92187W        W53641  18.287  44.380  12.377
92188W        W53642  26.099  32.126   4.711
92189W        W53643  21.213  32.912   3.174
92190W        W53644  42.000   9.331   4.770
92191W        W53645  12.838  14.276  10.454
92192W        W53646  44.010  28.643  12.923
92193W        W53647   2.325  28.989  13.438
92194W        W53648  12.682  42.905  11.906
92195W        W53649  26.030  19.217  14.867
92196W        W53650  10.145  17.109   2.310
92197W        W53651  16.743  15.280   2.848
92198W        W53652  13.227  39.495  13.492
92199W        W53653  26.654   3.371   3.636
92200W        W53654  44.352  19.621   1.818
92201W        W53655  23.563  16.654  13.005
92202W        W53656  24.132  14.098   2.364
92203W        W53657  23.204  26.992  13.009
92204W        W53658  13.322  35.053   4.328
92205W        W53659  27.964   1.847   3.828
92206W        W53660  22.701   0.394   3.261
92207W        W53661  14.698   5.368   0.810
92208W        W53662  14.149  25.615  14.025
92209W        W53663  40.473  12.147   1.390
92210W        W53664  29.993  40.470  14.841
92211W        W53665  42.979  21.149  12.097
92212W        W53666   0.924  16.717   2.414
92213W        W53667  14.172  31.940  14.280
92214W        W53668  20.711   9.693  13.427
92215W        W53669  19.650  11.650   4.625
92216W        W53670  12.245  26.589   4.741
92217W        W53671  28.148   2.287  10.543
92218W        W53672  25.659  14.227   1.758
92219W        W53673  43.853  16.665   0.768
92220W        W53674  25.480  41.435   1.397
92221W        W53675  35.383  19.107  13.820
92222W        W53676  44.803   1.263   4.640
92223W        W53677  23.555   9.200  10.996
92224W        W53678  11.270  35.425  12.368
92225W        W53679  28.657  31.542   2.805
92226W        W53680  35.994  26.637  14.357
92227W        W53681   8.324   5.309  11.385
92228W        W53682  35.892  26.978  14.909
92229W        W53683  11.369  39.865   1.215
92230W        W53684  43.516  26.641   0.739
92231W        W53685  30.491  41.526  13.047
92232W        W53686  11.206   3.289   0.463
92233W        W53687  26.026  18.622  12.403
92234W        W53688  44.492   2.428   0.363
92235W        W53689  20.049   3.322   2.269
92236W        W53690  42.815  18.096  12.854
92237W        W53691  10.853  12.841  11.429
92238W        W53692  17.236  19.717  10.899
92239W        W53693  26.572  23.495  12.001
92240W        W53694  33.607  41.017  12.880
92241W        W53695  29.129  12.797  11.096
92242W        W53696  26.113  19.616  12.930
92243W        W53697  25.142   6.356  12.891
92244W        W53698  27.454  22.035  12.339
92245W        W53699   4.391  44.812   0.468
92246W        W53700  11.193  17.197   0.411
92247W        W53701  43.442  27.142   0.341
92248W        W53702   6.692  25.633  14.443
92249W        W53703  20.528  10.353  14.762
92250W        W53704  43.909  19.120  11.875
92251W        W53705  37.844  38.379   3.737
92252W        W53706   6.314   7.180  10.088
92253W        W53707  44.293  20.707   4.203
92254W        W53708  41.481  23.080   3.321
92255W        W53709  35.561  38.527  12.022
92256W        W53710  39.364  33.982  12.029
92257W        W53711  43.809  20.635  12.912
92258W        W53712  12.792   5.887  12.526
92259W        W53713  13.668  26.103   2.702
92260W        W53714  30.455  43.360   3.341
92261W        W53715  23.585   0.381   4.727
92262W        W53716  32.569   7.687  12.842
92263W        W53717  30.145  42.316   1.835
92264W        W53718  28.047  29.623  12.844
92265W        W53719  36.388  33.878  11.593
92266W        W53720  20.755  21.596  13.474
92267W        W53721  26.558   8.252  14.485
92268W        W53722  37.085  14.610   3.663
92269W        W53723  27.576  23.614   0.277
92270W        W53724  32.405  41.406  13.498
92271W        W53725  38.910  35.359   0.342
92272W        W53726  33.584  20.587   1.368
92273W        W53727  38.959   9.777  13.065
92274W        W53728  27.018  22.610   1.855
92275W        W53729   3.952  10.752   0.402
92276W        W53730  35.509   4.357   3.782
92277W        W53731  19.186  35.376  11.916
92278W        W53732  42.341  31.145  10.907
92279W        W53733  13.767  42.412   4.190
92280W        W53734  44.850  22.079  11.381
92281W        W53735  24.016  18.643   0.770
92282W        W53736  31.519  38.849  10.481
92283W        W53737  33.623  29.935  13.812
92284W        W53738   2.906  28.144   4.312
92285W        W53739  36.556  28.026   2.377
92286W        W53740  36.591  30.423   3.713
92287W        W53741  25.162  42.374  11.375
92288W        W53742  25.206  33.102  12.828
92289W        W53743  39.314  36.002   2.178
92290W        W53744   8.754   7.183   4.116
92291W        W53745  18.115  11.831   3.864
92292W        W53746   5.803   6.875  13.538
92293W        W53747  22.668  13.833   0.432
92294W        W53748  39.554  16.229  10.466
92295W        W53749   7.852  30.096  10.501
92296W        W53750   6.391  32.558  12.424
92297W        W53751  29.139  37.901   1.308
92298W        W53752  20.642  17.252  11.417
92299W        W53753  18.102  35.098  11.535
92300W        W53754   2.254  40.812   4.628
92301W        W53755  43.330  18.092   0.766
92302W        W53756  19.561  44.383  13.476
92303W        W53757  44.284  12.732   2.243
92304W        W53758  31.111  39.893   0.791
92305W        W53759  13.739  13.297  13.975
92306W        W53760   2.963  27.972   2.399
92307W        W53761   6.809   5.691  14.418
92308W        W53762   1.746  43.981  13.502
92309W        W53763  28.150  21.699   9.990
92310W        W53764  40.449  27.952  11.606
92311W        W53765  43.897  40.369   4.179
92312W        W53766  19.690  28.040  10.577
92313W        W53767  12.811  12.351  13.387
92314W        W53768  34.910   8.869  11.600
92315W        W53769   8.738   6.348   1.437
92316W        W53770  43.458  36.490   1.244
92317W        W53771  24.212   0.967   0.778
92318W        W53772   1.841  39.991  14.390
92319W        W53773  13.620   7.190   0.384
92320W        W53774  34.559   5.927  11.909
92321W        W53775   1.298  28.168   2.732
92322W        W53776   1.483  10.338   4.604
92323W        W53777  12.719   1.301   4.137
92324W        W53778   0.339  34.897  14.796
92325W        W53779  32.485  24.031  12.857
92326W        W53780   9.835  15.143   1.252
92327W        W53781  44.441   9.708   4.754
92328W        W53782  41.374  10.197  13.895
92329W        W53783  21.076  32.430   3.661
92330W        W53784  35.467  10.685   0.867
92331W        W53785  27.039   9.234   0.954
92332W        W53786  30.445  39.896  13.059
92333W        W53787  24.662  17.590  12.949
92334W        W53788  14.112  39.877   0.455
92335W        W53789  27.959  22.026  10.612
92336W        W53790  35.525  15.139  11.889
92337W        W53791  27.992  20.172  10.585
92338W        W53792  32.421  12.850  10.573
92339W        W53793  42.960   9.758  13.543
92340W        W53794  27.947  27.024   2.836
92341W        W53795  21.241  23.199  13.488
92342W        W53796  33.007  10.639   5.264
92343W        W53797  22.176  35.515   3.201
92344W        W53798   0.452  36.563  11.513
92345W        W53799  33.563   9.740   3.659
92346W        W53800   1.342  13.241  11.518
92347W        W53801  25.020   7.665   9.973
92348W        W53802  26.153  20.593  12.518
92349W        W53803  42.958   4.721   2.825
92350W        W53804  38.509  11.868   3.725
92351W        W53805  25.677  23.010   2.862
92352W        W53806  37.474  25.156   4.339
92353W        W53807   0.973  29.502  11.068
92354W        W53808  19.281   3.359   0.757
92355W        W53809  39.414  17.568   4.144
92356W        W53810  43.484   5.867   2.202
92357W        W53811  43.871  25.059   1.269
92358W        W53812  37.068  26.568   1.386
92359W        W53813  10.706   1.386   0.475
92360W        W53814   6.409  27.117  11.002
92361W        W53815  24.173   1.426   4.610
92362W        W53816   0.942  34.950   0.731
92363W        W53817  42.795  10.867  10.630
92364W        W53818  37.507   0.329   4.137
92365W        W53819   2.256  10.637  11.522
92366W        W53820  40.801   8.681  10.481
92367W        W53821  43.339  24.041  12.068
92368W        W53822  34.017  12.694  12.387
92369W        W53823   5.694  40.054   4.199
92370W        W53824   7.864  17.679  12.867
92371W        W53825  37.550  39.456  13.850
92372W        W53826  31.098   4.804   1.821
92373W        W53827  35.528  27.180  13.438
92374W        W53828  22.214  43.826   4.303
92375W        W53829  33.446  19.550   3.724
92376W        W53830  29.175  25.587   0.391
92377W        W53831  31.006  42.444   4.341
92378W        W53832   0.472  20.680  10.936
92379W        W53833  24.624  38.358   1.405
92380W        W53834  26.191  31.508  10.935
92381W        W53835  34.424  23.559   3.292
92382W        W53836   9.362  42.861  10.624
92383W        W53837  10.775  44.990  11.489
92384W        W53838   1.239  41.469  14.463
92385W        W53839   8.397  32.530   0.929
92386W        W53840  23.226  26.004  14.401
92387W        W53841   6.715  17.671  10.592
92388W        W53842  10.698  26.149   1.806
92389W        W53843  35.890  32.912  11.054
92390W        W53844   9.378   4.803  10.534
92391W        W53845  11.358  44.487  11.043
92392W        W53846  30.064  31.499  11.550
92393W        W53847  29.066  17.089   3.226
92394W        W53848  24.079  12.683   2.350
92395W        W53849   3.870  18.062  13.832
92396W        W53850   3.887  24.224  13.416
92397W        W53851   2.241  44.821  13.872
92398W        W53852  41.914  30.576   9.955
92399W        W53853  26.045  19.635   4.206
92400W        W53854  30.639  30.455   2.758
92401W        W53855   5.816  37.371   5.267
92402W        W53856  10.858  36.879  11.067
92403W        W53857   4.443  41.337   3.832
92404W        W53858  38.550  24.108  12.837
92405W        W53859  35.965  26.592  13.363
92406W        W53860  30.065  39.468  12.545
92407W        W53861  21.229  20.698  11.505
92408W        W53862  19.631   2.425   3.157
92409W        W53863  22.105  28.594  13.365
92410W        W53864  23.497  18.652  11.533
92411W        W53865  31.952  11.643  14.326
92412W        W53866  42.924  17.756   1.818
92413W        W53867  35.958  12.214  12.385
92414W        W53868  14.237  23.644  14.511
92415W        W53869   4.367   0.791   3.270
92416W        W53870  44.882  35.511   4.161
92417W        W53871  10.673  38.509  12.554
92418W        W53872   2.278  32.137  12.905
92419W        W53873   1.390  42.822   4.329
92420W        W53874  21.665  21.553   4.152
92421W        W53875   5.854  14.623  11.966
92422W        W53876   2.805  11.216  12.485
92423W        W53877  26.978  29.557  11.382
92424W        W53878  35.963  27.981   5.118
92425W        W53879   5.319  21.033   0.265
92426W        W53880  14.134  20.587   2.356
92427W        W53881  42.443  38.949   3.665
92428W        W53882  28.642  24.632  14.884
92429W        W53883  37.479  33.049   1.762
92430W        W53884  26.967   9.303   2.701
92431W        W53885  10.312   2.789   1.394
92432W        W53886  38.337  32.008  13.373
92433W        W53887   8.274   1.258   1.265
92434W        W53888  17.245  17.082   0.452
92435W        W53889  14.310   2.933   4.796
92436W        W53890  31.554   8.198   5.309
92437W        W53891  22.519  35.953   2.219
92438W        W53892   8.833   3.933  13.897
92439W        W53893   9.327  20.207  11.902
92440W        W53894  23.664   5.354   2.271
92441W        W53895  21.648  39.425  11.892
92442W        W53896  13.170  28.003  10.034
92443W        W53897   8.864  24.556  12.358
92444W        W53898   8.297  38.002  10.560
92445W        W53899  19.739  36.090   2.354
92446W        W53900   5.840   6.262   0.761
92447W        W53901  31.017  17.193   3.728
92448W        W53902  32.038   7.342  13.038
92449W        W53903  44.456   8.706   2.343
92450W        W53904  37.903  22.713  11.974
92451W        W53905  13.667   8.252  14.930
92452W        W53906  33.901  34.483   1.394
92453W        W53907  21.039  38.974  14.879
92454W        W53908  20.607  24.124  14.490
92455W        W53909  30.081  19.163  14.369
92456W        W53910  23.695  33.880  12.567
92457W        W53911  19.257   3.412   4.132
92458W        W53912   2.403  19.155  13.891
92459W        W53913  37.007  23.637   3.641
92460W        W53914   5.851   6.726   0.885
92461W        W53915  14.252   8.872   5.287
92462W        W53916  35.450  17.207  12.849
92463W        W53917  24.582  26.479  13.449
92464W        W53918  38.444  11.337   3.277
92465W        W53919   0.880  15.599   4.665
92466W        W53920   5.888  17.581  10.592
92467W        W53921  33.550  28.518  13.398
92468W        W53922  27.081   8.724  13.329
92469W        W53923  22.706  21.569  10.473
92470W        W53924  38.853  26.151   1.829
92471W        W53925  13.220  43.877   0.787
92472W        W53926  36.350  14.262   1.365
92473W        W53927  32.452  30.107  14.923
92474W        W53928  23.986  26.193  14.002
92475W        W53929  43.001  43.296   3.821
92476W        W53930  12.294   7.231   0.473
92477W        W53931  28.535  18.132   1.416
92478W        W53932  39.945  41.492   3.234
92479W        W53933  28.124  35.425  10.939
92480W        W53934   1.275  42.877  11.438
92481W        W53935  43.362  36.470  14.999
92482W        W53936  41.819  24.620  13.487
92483W        W53937  23.674   6.807  14.903
92484W        W53938  36.914  35.540   2.216
92485W        W53939  24.043   7.667  12.847
92486W        W53940  43.481  11.362  10.496
92487W        W53941  11.679  11.346  14.031
92488W        W53942  13.688  43.379   1.215
92489W        W53943  14.310  13.629   1.319
92490W        W53944  16.295  35.001   4.252
92491W        W53945  29.943   0.427  14.835
92492W        W53946   2.468  39.825   4.287
92493W        W53947  38.840   8.370  12.506
92494W        W53948  20.189  24.076   4.140
92495W        W53949  36.407   4.213   2.331
92496W        W53950  42.284  14.691  10.583
92497W        W53951  29.519  36.876   1.337
92498W        W53952  44.459  39.029  14.483
92499W        W53953  40.508  20.644  11.111
92500W        W53954  28.637  28.026  13.343
92501W        W53955  14.834  40.345   3.241
92502W        W53956  36.861   0.397   1.382
92503W        W53957  15.736   6.361   3.325
92504W        W53958  43.412  13.787   3.717
92505W        W53959  31.004  32.035  14.904
92506W        W53960   5.910  34.431  13.490
92507W        W53961   2.914   7.358   4.757
92508W        W53962  35.946   2.922  13.497
92509W        W53963  33.438  18.091  14.315
92510W        W53964   7.265  28.652  11.054
92511W        W53965   0.937  35.371   3.205
92512W        W53966   9.727   0.763   3.317
92513W        W53967  29.592  13.737  12.434
92514W        W53968  24.633  30.139  13.896
92515W        W53969  11.228   8.754   4.753
92516W        W53970  22.516  39.487  10.956
92517W        W53971  30.599   3.784   2.773
92518W        W53972  39.393  44.471   4.126
92519W        W53973  11.163  13.763   0.891
92520W        W53974  38.327  22.139   3.753
92521W        W53975  34.905  29.486  11.483
92522W        W53976  20.640  12.819  14.030
92523W        W53977  18.205  19.111  14.885
92524W        W53978  18.205  16.127   2.832
92525W        W53979  30.634  38.073   2.763
92526W        W53980  21.199  35.477  14.979
92527W        W53981  10.851  40.935   0.781
92528W        W53982  28.456  40.888  11.046
92529W        W53983  41.022  40.991  11.486
92530W        W53984  25.571  34.391   3.761
92531W        W53985   7.665  29.492  12.549
92532W        W53986   5.823  17.567   0.953
92533W        W53987  32.400  37.987   2.831
92534W        W53988  19.234  41.788  10.455
92535W        W53989   8.283  23.703   3.796
92536W        W53990   2.237  39.419  11.547
92537W        W53991  44.981  17.070  10.149
92538W        W53992  18.147  32.485  13.844
92539W        W53993  36.976  38.394  11.376
92540W        W53994   4.843   1.339   4.137
92541W        W53995   1.466  38.492   3.181
92542W        W53996  11.260  19.565  12.093
92543W        W53997  36.072  37.924   4.639
92544W        W53998   2.342   4.290   2.866
92545W        W53999  32.070  13.283   0.338
92546W        W54000  36.000  17.769  10.533
92547W        W54001   7.353  34.392   4.307
92548W        W54002  39.963   9.296   4.805
92549W        W54003  17.279  14.653   5.758
92550W        W54004  11.758  31.907  14.989
92551W        W54005  16.317  25.517  13.371
92552W        W54006   1.465  20.142   0.728
92553W        W54007  28.609  32.536  12.905
92554W        W54008  21.070  18.547   1.330
92555W        W54009  10.208  18.754   1.851
92556W        W54010  38.054   6.779  11.068
92557W        W54011  41.304  17.557   1.750
92558W        W54012  36.351  26.574  10.583
92559W        W54013  38.396  12.805   2.387
92560W        W54014  18.227  18.182   0.246
92561W        W54015  17.130  29.615  12.877
92562W        W54016  29.102  42.367   3.367
92563W        W54017  37.082  41.425  13.990
92564W        W54018   5.299  34.996   4.614
92565W        W54019  27.981  42.885   5.318
92566W        W54020   6.219  17.102   1.706
92567W        W54021  17.205  19.570   1.348
92568W        W54022  34.951   6.376   1.269
92569W        W54023   4.300  18.557  11.021
92570W        W54024   7.776  31.564  11.466
92571W        W54025  35.582  43.885   0.464
92572W        W54026  17.287  27.610   1.914
92573W        W54027  31.435  28.036   0.242
92574W        W54028   9.761  42.467  12.947
92575W        W54029   9.645  43.274  11.988
92576W        W54030  21.179   9.242   4.671
92577W        W54031  31.580  21.583   3.835
92578W        W54032  38.000  42.008   1.801
92579W        W54033  43.845  26.530   0.336
92580W        W54034  43.945  18.110   3.753
92581W        W54035  19.701   5.225  10.644
92582W        W54036   6.796  15.222  11.376
92583W        W54037   0.782  26.207   2.683
92584W        W54038  11.298   5.863  13.347
92585W        W54039  30.619  26.511   1.424
92586W        W54040  16.216  42.852  13.793
92587W        W54041  40.360   3.805  14.900
92588W        W54042  29.976  33.954   0.351
92589W        W54043   7.291  11.751   1.754
92590W        W54044  12.158   4.277  13.843
92591W        W54045  15.164  24.641  10.510
92592W        W54046  43.457   8.311  10.507
92593W        W54047  34.499   5.363  11.125
92594W        W54048  43.313  34.416  12.843
92595W        W54049  31.033  35.951   3.634
92596W        W54050  42.783  28.585  11.956
92597W        W54051  43.807  37.448  13.542
92598W        W54052  18.625  43.810   3.866
92599W        W54053  12.692  23.529  10.563
92600W        W54054  23.049   2.277  11.083
92601W        W54055  15.678   8.665  10.926
92602W        W54056  13.171   6.719   0.849
92603W        W54057  13.793  23.236  13.809
92604W        W54058  37.074  42.967   2.405
92605W        W54059   4.309  34.004  13.922
92606W        W54060   2.274  42.815   0.893
92607W        W54061   2.370  44.353   1.844
92608W        W54062  27.481  29.566   3.712
92609W        W54063  39.820  34.082   3.159
92610W        W54064  29.942  38.538   0.346
92611W        W54065  18.699  23.520  14.859
92612W        W54066  32.089  14.755  11.981
92613W        W54067   6.214  23.718   5.108
92614W        W54068  41.305   6.902   3.657
92615W        W54069  34.551  34.487  10.478
92616W        W54070  42.912  44.363   1.231
92617W        W54071   7.826  41.023  10.429
92618W        W54072   3.842  31.498   1.933
92619W        W54073  17.065   0.927   5.209
92620W        W54074  38.035   8.678   5.140
92621W        W54075  35.914  14.243   0.292
92622W        W54076   4.437  33.560  10.405
92623W        W54077  13.117  12.775   2.795
92624W        W54078  35.982  24.719  12.977
92625W        W54079  17.221   1.792   1.856
92626W        W54080  28.494   0.440   3.364
92627W        W54081  40.975  30.031  11.401
92628W        W54082  26.174  14.315  11.001
92629W        W54083  17.694   2.880   2.771
92630W        W54084   4.250  41.919   3.325
92631W        W54085  22.214   1.304  14.477
92632W        W54086  30.623  34.908   2.784
92633W        W54087  19.078  17.581   0.805
92634W        W54088  20.570  24.092  12.385
92635W        W54089  29.111  15.815  14.778
92636W        W54090  10.705  25.584   2.775
92637W        W54091  19.173   5.798   2.713
92638W        W54092  24.140  25.487  10.471
92639W        W54093  13.627  16.602  12.513
92640W        W54094  17.294  16.783   2.876
92641W        W54095  44.446  20.661  13.969
92642W        W54096  11.726  43.354   4.770
92643W        W54097  31.986  25.018   3.649
92644W        W54098   0.292   9.784   1.367
92645W        W54099  33.601  38.336  12.052
92646W        W54100  33.010  12.820  11.465
92647W        W54101  18.614  21.038  10.893
92648W        W54102   6.896  13.116  10.542
92649W        W54103  23.700   1.955   1.435
92650W        W54104  36.974  17.671   2.867
92651W        W54105  10.744  22.194  11.493
92652W        W54106  21.692   3.938   2.676
92653W        W54107  21.040   1.377   3.667
92654W        W54108  37.432  22.564  11.388
92655W        W54109   0.759  20.690  12.364
92656W        W54110  17.093  15.786   4.337
92657W        W54111  43.876  18.092   3.348
92658W        W54112  32.584   3.269   3.182
92659W        W54113  14.722  32.037   3.309
92660W        W54114  42.910  12.624   4.216
92661W        W54115   5.725  38.067  10.484
92662W        W54116  41.352  28.557  14.007
92663W        W54117  23.144  35.912   1.867
92664W        W54118  39.815   8.761  12.481
92665W        W54119  24.596  37.088  11.405
92666W        W54120  20.671  29.634   4.222
92667W        W54121  44.923  16.711  12.844
92668W        W54122  29.625   3.312   0.353
92669W        W54123  16.672  26.063  13.952
92670W        W54124  16.634  26.155   0.929
92671W        W54125   6.338  26.969   0.909
92672W        W54126   1.762  37.905  12.004
92673W        W54127  36.028  31.933   4.126
92674W        W54128  16.746  41.513  12.512
92675W        W54129   1.364   7.762   2.856
92676W        W54130  21.588  34.403   2.403
92677W        W54131  22.229  22.231  13.546
92678W        W54132  27.173  13.343   0.864
92679W        W54133  15.314  10.239   1.301
92680W        W54134   0.914   2.725  10.472
92681W        W54135   0.346  16.628   1.767
92682W        W54136  38.399  26.573   1.823
92683W        W54137  14.713   0.375  11.400
92684W        W54138  26.621  19.677  13.864
92685W        W54139  40.852   6.750  11.876
92686W        W54140  37.871  35.091   1.234
92687W        W54141  16.142  40.547  12.909
92688W        W54142  34.993  10.260  13.924
92689W        W54143  29.014  22.209  11.513
92690W        W54144  20.608  10.805  14.329
92691W        W54145  13.776  37.364  11.612
92692W        W54146  19.590  26.061   3.331
92693W        W54147  43.352   3.459   3.229
92694W        W54148  24.124  18.274   2.194
92695W        W54149  16.621  24.709  13.370
92696W        W54150  32.895  32.972  10.561
92697W        W54151  40.369  21.596  14.963
92698W        W54152  28.451  24.023   0.363
92699W        W54153   4.320  31.041  12.377
92700W        W54154  34.427   8.306  12.364
92701W        W54155   5.850  29.028   3.762
92702W        W54156  37.349  34.089   3.211
92703W        W54157  11.259  34.935  14.378
92704W        W54158  22.523   4.359  11.020
92705W        W54159  20.214   0.800   1.892
92706W        W54160  24.038  29.606   0.922
92707W        W54161   4.354  15.274  11.608
92708W        W54162  31.610   9.194   4.782
92709W        W54163  14.340  42.313  14.770
92710W        W54164  31.419  15.212  10.058
92711W        W54165   5.354  17.300   0.939
92712W        W54166  21.054  13.221   3.319
92713W        W54167   6.908   2.787   2.192
92714W        W54168  16.651  10.329   2.801
92715W        W54169  40.958   9.372  13.794
92716W        W54170  10.664  43.926  12.067
92717W        W54171  16.142  27.115   3.268
92718W        W54172  44.416  38.476   3.385
92719W        W54173  26.636  18.211   0.444
92720W        W54174  29.065  26.087   4.649
92721W        W54175  15.309  18.650  13.027
92722W        W54176  26.006  21.710  12.580
92723W        W54177   1.752  28.048   3.315
92724W        W54178  42.457  41.333  11.485
92725W        W54179  15.658  16.136   1.329
92726W        W54180  26.637   0.373  13.462
92727W        W54181   3.716   3.235   0.942
92728W        W54182  31.028  10.171  12.454
92729W        W54183  33.027   4.381  11.391
92730W        W54184  33.604  35.364   3.152
92731W        W54185  42.340  10.242   2.179
92732W        W54186  29.153  42.339   2.200
92733W        W54187  22.737  23.231   0.834
92734W        W54188   6.752  19.252  13.334
92735W        W54189  21.194  24.111   4.345
92736W        W54190  38.376  38.424  14.452
92737W        W54191  34.599  19.767  10.506
92738W        W54192  16.676  44.402  11.419
92739W        W54193  24.159  15.237   2.384
92740W        W54194   6.197  38.373  11.100
92741W        W54195  11.780  14.120  10.050
92742W        W54196   8.186  11.765   3.166
92743W        W54197  42.023  43.484   3.718
92744W        W54198  36.020  21.579   0.283
92745W        W54199  40.915   3.365  14.020
92746W        W54200   9.304   4.305  13.015
92747W        W54201  36.054  29.994   2.685
92748W        W54202   6.776  40.922   2.736
92749W        W54203   0.479  25.004  11.102
92750W        W54204  35.461  35.570   3.209
92751W        W54205  23.561  30.600  10.925
92752W        W54206  42.788  32.960  13.816
92753W        W54207  14.202  11.329  14.800
92754W        W54208   1.238   9.798  13.856
92755W        W54209  42.953  44.449  10.635
92756W        W54210  44.974  43.922   4.634
92757W        W54211  40.544  37.963   1.776
92758W        W54212  12.715  21.036   1.436
92759W        W54213   7.262  36.841  10.481
92760W        W54214  13.239  18.598  12.004
92761W        W54215  36.963  23.729   4.655
92762W        W54216   2.350   6.905  11.095
92763W        W54217  10.232  42.406  12.089
92764W        W54218   0.319  15.823   1.756
92765W        W54219  28.600  31.414  14.910
92766W        W54220   0.895  19.061  10.989
92767W        W54221  42.354  42.816  10.403
92768W        W54222  44.929   9.291  14.884
92769W        W54223  23.630  32.063   4.284
92770W        W54224  33.540  11.740  10.567
92771W        W54225  36.931  42.362   2.879
92772W        W54226  23.607  34.023  14.949
92773W        W54227  13.247  40.426  13.324
92774W        W54228  33.088   6.903  14.867
92775W        W54229   0.782  29.023   3.735
92776W        W54230  35.870   4.825   3.668
92777W        W54231  36.877  22.697  12.533
92778W        W54232  37.542   5.312   2.901
92779W        W54233   3.290  24.995  14.785
92780W        W54234   4.854  39.409   0.312
92781W        W54235  36.886   9.164   2.814
92782W        W54236  31.405  34.043  12.013
92783W        W54237   1.431  35.500   4.313
92784W        W54238   3.265  37.078   4.293
92785W        W54239   4.862  18.164   4.277
92786W        W54240  40.878  36.511  12.859
92787W        W54241  39.496  23.169   0.407
92788W        W54242   0.440  13.653  11.011
92789W        W54243  36.507   7.396   4.127
92790W        W54244  25.521   5.917  10.608
92791W        W54245   9.863  28.010  11.887
92792W        W54246  15.266  21.650  13.342
92793W        W54247  13.814  34.543  12.402
92794W        W54248   2.313  11.711   9.936
92795W        W54249  11.709  30.130   0.740
92796W        W54250  40.430  30.540  10.063
92797W        W54251  23.201  40.903   4.730
92798W        W54252  30.579  10.141  10.077
92799W        W54253   1.336  37.480  12.045
92800W        W54254  41.509  36.997   0.419
92801W        W54255  37.524  31.994   1.346
92802W        W54256   2.960   7.671  12.896
92803W        W54257  14.121  31.951   3.294
92804W        W54258  13.316  23.731  11.410
92805W        W54259  18.195  11.369  12.577
92806W        W54260  13.243  11.652   5.259
92807W        W54261  20.566   5.727   0.331
92808W        W54262  29.610  15.732  14.482
92809W        W54263  24.069  39.967   4.805
92810W        W54264  16.097   6.896   4.745
92811W        W54265  33.033   2.756  11.917
92812W        W54266  32.443   5.423  12.912
92813W        W54267   2.830  42.470   3.687
92814W        W54268  17.305  32.113  13.872
92815W        W54269  19.104  14.273  12.012
92816W        W54270  33.952  33.053  10.635
92817W        W54271   7.358  26.975  13.392
92818W        W54272  11.336  35.912  12.406
92819W        W54273  26.995  31.100   2.245
92820W        W54274  30.493  44.856   1.286
92821W        W54275  42.934  15.220  10.565
92822W        W54276   6.242   7.742  10.526
92823W        W54277  10.180  12.205  12.011
92824W        W54278   4.713  14.682   3.278
92825W        W54279  17.283  18.252   3.660
92826W        W54280  30.422  35.463   1.230
92827W        W54281   9.822   1.442  12.348
92828W        W54282  39.968  10.816  12.080
92829W        W54283  12.780   2.463   2.216
92830W        W54284  28.095   5.752  13.490
92831W        W54285   0.269  27.615   3.689
92832W        W54286  33.535  13.661   1.923
92833W        W54287  25.522  26.597   1.351
92834W        W54288   5.309  41.426   5.280
92835W        W54289  26.003  35.063  10.903
92836W        W54290  37.026  44.864   0.478
92837W        W54291  31.040  39.360  14.867
92838W        W54292  39.002  37.929   2.401
92839W        W54293   4.377   4.753   2.242
92840W        W54294  22.214  42.340   1.237
92841W        W54295  32.967  15.630   4.729
92842W        W54296  23.067   8.754  12.535
92843W        W54297  17.133  39.539   2.290
92844W        W54298  31.016   5.292   3.690
92845W        W54299  17.189   6.852  12.517
92846W        W54300  10.213  30.450   4.320
92847W        W54301  40.053  22.075  10.560
92848W        W54302   0.906  17.284   0.805
92849W        W54303  42.427   4.391  13.894
92850W        W54304  28.153  20.213  12.902
92851W        W54305  23.612  32.903  13.540
92852W        W54306  24.678  34.520  12.056
92853W        W54307  22.195   9.794  11.096
92854W        W54308  21.233   3.374  12.362
92855W        W54309  43.919  13.793   0.374
92856W        W54310  40.499  33.555  11.912
92857W        W54311   9.836  13.730  11.006
92858W        W54312   4.417   7.853   2.713
92859W        W54313  15.282  10.138  13.339
92860W        W54314   3.346  10.221   2.725
92861W        W54315  12.643  28.507  11.603
92862W        W54316  44.776  38.854   2.220
92863W        W54317  30.623  42.289  11.498
92864W        W54318  11.338  21.107   4.278
92865W        W54319   4.309  13.214  11.001
92866W        W54320   0.399  26.594   9.980
92867W        W54321  22.671  36.590   2.246
92868W        W54322   8.306  15.577   0.345
92869W        W54323  30.039  15.596   1.323
92870W        W54324  42.959  37.961  10.449
92871W        W54325  24.026   0.774   2.713
92872W        W54326  13.118   1.775   0.324
92873W        W54327  33.026  27.544  13.518
92874W        W54328  32.487   1.786   4.638
92875W        W54329  15.322  14.325  10.615
92876W        W54330  44.762  19.218   1.813
92877W        W54331  25.150   9.286  11.108
92878W        W54332  16.603  42.828   2.202
92879W        W54333  12.292  25.547   0.962
92880W        W54334  15.589   7.696   4.661
92881W        W54335  42.454  16.800   3.773
92882W        W54336  22.647  11.790   0.775
92883W        W54337  24.222  21.639  10.554
92884W        W54338  34.921  31.409  12.955
92885W        W54339  10.714  30.003  13.467
92886W        W54340  32.600  19.704   4.180
92887W        W54341   4.253  27.476  14.908
92888W        W54342  36.474  29.604  12.829
92889W        W54343   3.719  37.424  14.883
92890W        W54344  17.235  37.921  11.381
92891W        W54345  22.173  29.560   0.912
92892W        W54346  43.978   0.899  13.419
92893W        W54347  44.464   5.749   1.694
92894W        W54348  31.581  23.731   4.621
92895W        W54349  40.361  36.567  11.107
92896W        W54350  42.479  17.204  13.496
92897W        W54351  40.388  44.965  12.547
92898W        W54352  33.544   8.307   2.711
92899W        W54353  32.570  11.720  13.913
92900W        W54354   7.306  25.602   1.238
92901W        W54355   4.924  23.222  10.952
92902W        W54356  22.107   8.746  10.120
92903W        W54357  21.706  36.548  10.533
92904W        W54358   4.911  31.078   2.329
92905W        W54359  10.876  44.803   3.740
92906W        W54360  14.809  34.072  11.606
92907W        W54361  33.059  21.178  12.858
92908W        W54362  38.490   8.838   4.782
92909W        W54363  24.549  27.183  13.531
92910W        W54364  21.654   0.411  11.590
92911W        W54365  37.976  29.645  10.586
92912W        W54366  22.660   9.356   2.414
92913W        W54367  41.309  40.410  12.430
92914W        W54368  22.530  18.577  10.121
92915W        W54369  39.986  38.438   1.289
92916W        W54370  12.830  13.712  12.515
92917W        W54371   1.959  29.953  13.362
92918W        W54372  22.602  31.445  13.863
92919W        W54373  31.496  40.493   1.295
92920W        W54374  26.077  26.017  10.061
92921W        W54375  44.814   6.872   3.252
92922W        W54376  17.711  16.681  11.475
92923W        W54377   7.195   4.219   3.754
92924W        W54378  43.887  22.193   4.698
92925W        W54379  10.761   9.869  14.423
92926W        W54380  28.510   5.838   0.453
92927W        W54381  20.660  15.130  11.517
92928W        W54382  20.685  26.957  12.339
92929W        W54383   0.461   8.277  14.440
92930W        W54384   4.229  41.955   1.831
92931W        W54385  32.113  25.597   3.861
92932W        W54386  12.183  26.050   0.463
92933W        W54387  34.458  41.523   3.172
92934W        W54388  24.192   9.777   3.286
92935W        W54389   5.884   9.179  12.828
92936W        W54390   5.712  38.411   1.293
92937W        W54391   9.193  17.109   2.830
92938W        W54392  22.026  28.675   3.356
92939W        W54393  36.465   4.702   2.204
92940W        W54394   7.354  35.447   4.613
92941W        W54395  23.087  25.020   1.210
92942W        W54396  42.316  30.445   2.860
92943W        W54397   7.253  24.061   1.773
92944W        W54398  17.726  14.828   2.303
92945W        W54399  44.855  31.128  10.410
92946W        W54400  29.987  14.616  11.605
92947W        W54401   1.881  40.535   3.214
92948W        W54402  14.183   0.902   3.821
92949W        W54403  21.079  15.256  12.386
92950W        W54404  37.497  31.027   4.639
92951W        W54405  37.877  41.343   0.424
92952W        W54406   2.356  11.625   3.740
92953W        W54407  12.707  35.934  12.576
92954W        W54408  18.129  23.049  11.578
92955W        W54409   1.731  27.592   0.246
92956W        W54410  25.694  30.564   5.100
92957W        W54411  29.170  19.245   1.766
92958W        W54412  23.111  25.611   2.798
92959W        W54413  33.542  34.081   1.852
92960W        W54414  13.339  21.744   0.439
92961W        W54415  37.046  38.344  13.900
92962W        W54416  36.459  27.474   2.397
92963W        W54417   4.917  29.603  13.852
92964W        W54418   4.443  23.201  13.819
92965W        W54419  44.369  41.406  12.969
92966W        W54420  42.475  40.838  10.633
92967W        W54421  21.732  44.957  14.762
92968W        W54422  15.226  33.107  10.950
92969W        W54423  31.457  17.230   2.417
92970W        W54424  18.060  18.226   4.153
92971W        W54425   7.777  23.232   2.284
92972W        W54426  10.292  27.506   0.816
92973W        W54427   9.705  10.360   1.829
92974W        W54428   0.405  11.203  12.871
92975W        W54429   5.287  35.890  11.435
92976W        W54430   9.330  29.604   3.682
92977W        W54431  12.163  18.128   0.727
92978W        W54432  11.192  18.713   3.215
92979W        W54433   2.775  43.492   3.807
92980W        W54434  36.869  15.317  11.555
92981W        W54435  22.641   3.399  10.991
92982W        W54436  19.242  21.125  11.505
92983W        W54437  38.335  14.782  13.821
92984W        W54438  35.452  24.035  14.954
92985W        W54439   1.868  21.651  13.021
92986W        W54440  21.737   6.705  12.983
92987W        W54441  22.527   5.784   3.159
92988W        W54442   9.800  43.396   1.902
92989W        W54443  44.364  17.186  11.929
92990W        W54444  33.479  42.010   2.356
92991W        W54445  40.493  32.960  12.896
92992W        W54446  42.932  37.050  14.792
92993W        W54447  22.121  43.795  11.013
92994W        W54448   1.781   0.771  12.933
92995W        W54449  12.269  26.547  12.920
92996W        W54450   1.461  41.489  13.536
92997W        W54451   3.824   9.238   4.200
92998W        W54452  18.154  20.153   1.710
92999W        W54453  21.644  27.514   2.797
93000W        W54454  42.377  31.955   2.755
93001W        W54455  42.519  42.977   2.266
93002W        W54456   7.701  35.026  10.422
93003W        W54457  11.830  41.477   0.273
93004W        W54458  36.576  39.368  10.574
93005W        W54459  38.399  13.233  13.020
93006W        W54460  21.657  20.565   0.765
93007W        W54461  36.051  26.600  10.117
93008W        W54462   1.961  26.093  13.868
93009W        W54463  30.460   4.803  13.958
93010W        W54464  32.614  16.809   4.824
93011W        W54465   6.196  11.363  14.366
93012W        W54466  41.902  40.998   0.833
93013W        W54467  20.273  13.118   1.920
93014W        W54468  26.622  21.725  10.529
93015W        W54469  21.209  25.018   1.250
93016W        W54470   9.756  11.264   1.779
93017W        W54471  42.495  22.662  12.353
93018W        W54472   4.922  41.344  12.524
93019W        W54473  12.138   9.652  10.578
93020W        W54474  27.147  15.712  11.102
93021W        W54475  44.446  16.670   4.288
93022W        W54476  40.378  34.545   3.329
93023W        W54477   6.887  18.129  13.439
93024W        W54478  22.088  11.824   5.120
93025W        W54479  11.359  21.241  10.907
93026W        W54480  31.563  27.635  11.010
93027W        W54481  15.648  10.274  14.379
93028W        W54482   6.370   7.407   1.758
93029W        W54483   1.776  38.850   1.929
93030W        W54484  18.705  28.462   1.386
93031W        W54485  13.342  25.532  13.536
93032W        W54486  33.427   6.761   0.772
93033W        W54487  12.818  42.396  11.489
93034W        W54488  12.699  10.764   4.782
93035W        W54489  39.334  24.481  13.398
93036W        W54490  19.151   4.333   1.375
93037W        W54491  42.800   4.375   1.284
93038W        W54492   4.349  16.792  13.365
93039W        W54493  32.897  29.084   2.203
93040W        W54494  22.633  23.095  13.947
93041W        W54495  43.781  22.664  13.376
93042W        W54496  10.820   8.819   4.834
93043W        W54497  20.275  30.986  14.320
93044W        W54498  37.412  28.153   1.300
93045W        W54499  35.019  33.610   4.667
93046W        W54500  21.648  12.305   1.842
93047W        W54501  44.832   9.173   2.186
93048W        W54502  15.249  14.267   1.311
93049W        W54503   6.374  16.645   0.337
93050W        W54504  23.700  40.877   1.304
93051W        W54505  24.547  24.583   1.440
93052W        W54506  29.526  41.952   0.888
93053W        W54507   2.806   3.229  11.468
93054W        W54508   4.346   3.936   3.321
93055W        W54509  24.139  34.884   4.173
93056W        W54510   0.843  26.696   3.204
93057W        W54511  24.497   2.755  11.545
93058W        W54512  38.543  33.610   3.651
93059W        W54513   3.786  31.944  14.333
93060W        W54514   1.759  32.888   1.296
93061W        W54515  13.708  41.823  10.580
93062W        W54516   2.727  33.035   0.394
93063W        W54517  37.456   8.659   4.817
93064W        W54518  22.503  12.833   4.619
93065W        W54519  26.463  10.295  12.477
93066W        W54520   3.297  14.681  12.829
93067W        W54521  18.137  43.435  13.912
93068W        W54522  33.892  32.893   2.215
93069W        W54523  16.178   0.348   3.833
93070W        W54524  43.801  35.976  10.930
93071W        W54525   0.877  35.398   1.266
93072W        W54526  36.022  41.919  11.991
93073W        W54527  37.399  30.526   3.668
93074W        W54528  42.511   0.486   2.315
93075W        W54529  37.556   4.887  10.990
93076W        W54530  42.375  34.875   0.803
93077W        W54531  36.489  22.232   0.359
93078W        W54532   3.920   4.391   4.721
93079W        W54533   4.789  30.555  11.494
93080W        W54534  39.462  13.747   2.782
93081W        W54535  38.524   6.265   1.814
93082W        W54536  37.555  30.429  13.439
93083W        W54537  26.189  13.823  11.605
93084W        W54538  12.805  30.600  14.809
93085W        W54539   6.183  41.361  14.022
93086W        W54540  36.944  30.594  12.881
93087W        W54541  26.601  44.829  13.378
93088W        W54542   6.325   8.287  12.378
93089W        W54543  19.759  17.802  14.913
93090W        W54544  20.690  19.674  11.563
93091W        W54545  32.418  25.211   5.220
93092W        W54546  17.111  25.487  12.957
93093W        W54547  17.591  17.062  10.602
93094W        W54548   4.380  30.050   1.753
93095W        W54549   6.818  15.653   3.686
93096W        W54550  27.105  39.337   2.891
93097W        W54551   7.895  42.781   1.873
93098W        W54552  42.010   0.490   3.150
93099W        W54553  17.161  35.451  10.923
93100W        W54554  29.441  10.678   1.725
93101W        W54555  29.026  20.707   1.386
93102W        W54556   7.797  33.002   3.339
93103W        W54557  13.251  17.694  11.922
93104W        W54558  18.113  30.544   3.677
93105W        W54559   8.894   6.390   0.746
93106W        W54560  40.846  37.845   1.327
93107W        W54561  25.606  19.630  11.035
93108W        W54562  36.982  34.509   4.630
93109W        W54563  16.672   8.206   0.907
93110W        W54564  18.085   3.305  12.863
93111W        W54565   2.812   7.242  14.356
93112W        W54566  36.477   3.942  13.423
93113W        W54567  39.025  44.360  14.005
93114W        W54568  22.040  44.989   4.273
93115W        W54569  27.653  26.582  14.825
93116W        W54570   0.847  28.010  14.011
93117W        W54571  26.125  39.838  11.901
93118W        W54572  34.539  22.195   1.826
93119W        W54573  32.118  34.426  12.935
93120W        W54574   1.385  22.188  12.872
93121W        W54575  14.594  42.447  14.971
93122W        W54576  21.080  44.769   4.724
93123W        W54577  40.459   7.399  11.978
93124W        W54578  36.563   3.233  10.931
93125W        W54579  29.510   0.939   4.691
93126W        W54580  15.697  18.702   2.700
93127W        W54581  30.602  33.910   9.541
93128W        W54582   1.305  44.425  11.425
93129W        W54583   3.729  28.445  14.307
93130W        W54584  36.950   4.280  11.535
93131W        W54585  42.409  12.125  11.980
93132W        W54586  43.950  19.251  10.633
93133W        W54587   3.758  33.502  10.531
93134W        W54588  25.505  26.036  13.315
93135W        W54589  26.031  32.142  12.464
93136W        W54590  16.623  32.107  13.465
93137W        W54591   3.453  16.713   3.651
93138W        W54592  35.531  25.990  14.025
93139W        W54593  26.537  26.676  10.582
93140W        W54594   4.800  18.158   3.694
93141W        W54595  44.909   1.777   0.426
93142W        W54596  17.752   9.717   4.281
93143W        W54597  31.098   0.414   1.713
93144W        W54598  38.974  13.237   5.220
93145W        W54599   2.431  25.594  14.953
93146W        W54600  11.226  35.088   2.239
93147W        W54601  35.565  23.513  12.950
93148W        W54602  25.976  44.939  14.811
93149W        W54603  38.861  12.343   0.254
93150W        W54604  33.032   4.427  14.779
93151W        W54605   1.258  33.890   2.716
93152W        W54606  12.789  11.652   2.822
93153W        W54607  39.328  23.706   1.392
93154W        W54608  41.026  11.801   2.849
93155W        W54609   5.423  11.659   0.894
93156W        W54610  20.175  23.716   5.142
93157W        W54611   3.344  12.273  12.903
93158W        W54612  10.740  26.963   1.300
93159W        W54613  41.535  26.570   2.267
93160W        W54614  29.987   1.354   1.332
93161W        W54615  20.105  36.402   1.696
93162W        W54616  35.864  32.492   3.731
93163W        W54617  34.518   6.215   3.854
93164W        W54618   1.272   0.345  11.079
93165W        W54619  32.121  34.507   0.280
93166W        W54620   6.698   3.809  14.787
93167W        W54621  43.899  40.314  12.543
93168W        W54622   5.224  42.425   2.886
93169W        W54623   8.697  19.081  13.028
93170W        W54624  31.063  20.721  11.992
93171W        W54625  22.102  19.203  13.373
93172W        W54626  38.395  17.277  13.838
93173W        W54627  42.464  12.643   3.637
93174W        W54628   2.464   2.919   1.842
93175W        W54629  11.136  26.595   1.426
93176W        W54630  16.085  37.525  10.595
93177W        W54631  11.726  23.581  10.595
93178W        W54632   5.790  27.565  13.951
93179W        W54633  43.904   6.817   4.332
93180W        W54634  38.417  16.689  10.890
93181W        W54635  37.992  34.925  10.577
93182W        W54636  11.188  33.464  11.569
93183W        W54637  14.720  14.824   3.722
93184W        W54638  24.529  18.128  14.963
93185W        W54639  25.605  36.363  13.877
93186W        W54640  28.459   3.720   3.719
93187W        W54641  21.573  42.515   4.766
93188W        W54642  44.869  10.663   3.200
93189W        W54643  30.122   5.815  11.020
93190W        W54644  36.529  19.280   0.290
93191W        W54645  22.644  40.534   2.759
93192W        W54646  37.007  22.245  10.897
93193W        W54647   7.184  16.607  12.533
93194W        W54648  35.926  19.688  12.377
93195W        W54649  16.172  34.601  11.498
93196W        W54650  14.833  33.104  11.992
93197W        W54651  19.764  12.771   2.785
93198W        W54652  27.573   2.906   4.271
93199W        W54653  39.350  24.061   0.813
93200W        W54654  44.295  15.587  12.010
93201W        W54655  40.369  12.205  10.939
93202W        W54656  16.168  25.997  14.492
93203W        W54657  21.711  11.307  13.052
93204W        W54658  22.225  44.004   4.598
93205W        W54659   3.850  31.149  11.436
93206W        W54660  42.822  23.584  12.090
93207W        W54661   5.379  23.238  11.115
93208W        W54662  22.514   6.677   3.698
93209W        W54663   6.744  15.232  13.997
93210W        W54664  21.145  42.357  13.521
93211W        W54665  44.810  11.625  13.538
93212W        W54666  28.161  22.190   3.853
93213W        W54667  22.086  15.225  11.003
93214W        W54668  10.174  36.365   5.134
93215W        W54669  20.265  27.197  12.550
93216W        W54670  28.118  35.954  13.980
93217W        W54671  27.991  29.083  12.028
93218W        W54672  39.897   4.324   2.195
93219W        W54673  23.118  24.107   1.737
93220W        W54674   2.899  35.512   4.705
93221W        W54675  29.170   5.405   3.267
93222W        W54676  37.865   7.756   4.149
93223W        W54677   2.253  29.031  14.990
93224W        W54678  17.150   6.228   2.282
93225W        W54679   1.241  43.446   4.348
93226W        W54680  30.451  12.719   4.664
93227W        W54681  41.922  12.850   4.275
93228W        W54682   1.832  32.437  12.496
93229W        W54683  31.454   8.319   5.582
93230W        W54684   5.424  43.495   0.421
93231W        W54685  16.192  33.493  12.536
93232W        W54686  19.581   3.877  13.926
93233W        W54687  14.712  10.791  10.617
93234W        W54688  39.905  23.622  13.816
93235W        W54689  29.467  15.625  10.472
93236W        W54690  22.105  30.098  11.956
93237W        W54691  26.957  35.371   1.344
93238W        W54692   5.193  22.633  11.972
93239W        W54693  38.506  31.964   0.279
93240W        W54694  29.085  17.247  11.053
93241W        W54695  34.465  38.915   2.805
93242W        W54696  19.052  25.965  14.032
93243W        W54697  33.972  14.261   4.668
93244W        W54698  43.835  38.941  15.000
93245W        W54699  11.747  41.000  13.882
93246W        W54700  35.419  38.444  14.375
93247W        W54701  16.160   0.839   9.932
93248W        W54702  38.489   0.358  11.599
93249W        W54703  43.345   8.797  14.904
93250W        W54704  41.357  36.541  13.499
93251W        W54705   4.261  24.561  11.042
93252W        W54706  22.703  30.039   0.412
93253W        W54707  40.903  23.150  12.092
93254W        W54708  24.140  10.359  14.774
93255W        W54709  37.028   0.856   4.737
93256W        W54710   4.710  19.620   1.368
93257W        W54711   4.724  13.293   1.713
93258W        W54712  38.868  43.805  11.856
93259W        W54713  31.640  33.404   9.968
93260W        W54714  39.982  25.144   4.646
93261W        W54715  43.448  41.009  13.420
93262W        W54716  35.422  43.863  12.559
93263W        W54717   6.815  11.350  11.079
93264W        W54718  38.041  27.473  11.900
93265W        W54719  33.018  43.274   4.253
93266W        W54720  38.570  41.419  13.989
93267W        W54721  32.412  25.174  14.397
93268W        W54722   1.339  13.266   3.652
93269W        W54723  29.162  40.509  13.791
93270W        W54724   9.155  16.682  11.080
93271W        W54725  37.440  44.314  13.516
93272W        W54726  39.948  26.173  13.445
93273W        W54727  17.794  11.653  14.865
93274W        W54728  34.053  34.489  14.482
93275W        W54729  39.405  21.211   2.302
93276W        W54730  13.628  30.093  12.494
93277W        W54731  11.209  21.545   9.638
93278W        W54732   4.748  14.278   0.897
93279W        W54733  42.844  29.948  13.454
93280W        W54734  32.909  34.044   2.318
93281W        W54735   7.831  24.536  14.967
93282W        W54736  13.649  23.544  12.346
93283W        W54737   7.900   8.817   4.306
93284W        W54738  30.522  12.663   0.824
93285W        W54739  12.158  39.472   1.742
93286W        W54740  30.987  15.599   4.239
93287W        W54741  24.513  26.516   3.666
93288W        W54742  20.060  43.315   2.675
93289W        W54743   3.299   9.729   3.646
93290W        W54744  12.337   8.353   4.678
93291W        W54745  24.182  26.549   4.311
93292W        W54746   3.454  42.794   2.180
93293W        W54747  14.635  38.871   4.805
93294W        W54748  22.543  37.984  10.544
93295W        W54749  18.703   5.929  11.400
93296W        W54750  19.631  40.989  12.927
93297W        W54751  13.644  21.258   2.256
93298W        W54752   2.325  16.701   4.191
93299W        W54753  11.252  40.446   4.195
93300W        W54754   2.727  42.842  12.060
93301W        W54755  30.607  31.920   3.177
93302W        W54756  39.859  37.946   2.889
93303W        W54757  44.371   5.759   4.605
93304W        W54758  37.078  44.481   0.257
93305W        W54759  39.983  11.821   2.841
93306W        W54760  34.460  38.357   2.343
93307W        W54761  41.419   5.813   3.168
93308W        W54762  43.384   5.767  11.943
93309W        W54763   4.298  42.339   1.328
93310W        W54764   1.338   9.726   3.825
93311W        W54765  34.500  22.031   2.213
93312W        W54766  10.201  19.263  13.309
93313W        W54767   0.972  16.173  10.610
93314W        W54768  27.673  44.978   4.303
93315W        W54769  11.627  35.873  11.571
93316W        W54770  41.305   2.905  13.477
93317W        W54771  22.512  17.563  14.330
93318W        W54772   0.978  18.293  12.900
93319W        W54773   8.829  42.874  10.454
93320W        W54774   9.679  26.467   0.407
93321W        W54775  18.747  11.803   4.120
93322W        W54776   7.413  21.576  11.905
93323W        W54777  37.412   2.798   4.343
93324W        W54778  44.971   7.737   2.712
93325W        W54779   4.933   7.333  10.495
93326W        W54780  26.022   1.466   3.148
93327W        W54781  23.615  11.852   2.777
93328W        W54782  17.263   6.320   1.815
93329W        W54783  23.150  32.892  13.045
93330W        W54784  21.708  14.138   3.785
93331W        W54785  26.951  37.967  12.866
93332W        W54786  43.365  26.652  13.970
93333W        W54787  41.987  38.370  10.576
93334W        W54788   5.799  13.698  13.971
93335W        W54789  43.809  10.787   2.752
93336W        W54790  33.052  19.667  14.492
93337W        W54791   0.351  38.392   4.702
93338W        W54792  40.989   0.897  13.021
93339W        W54793   8.710  23.031  11.461
93340W        W54794  16.257   6.344   0.409
93341W        W54795  14.698  41.388  13.923
93342W        W54796   1.349  14.332  14.476
93343W        W54797  22.120  29.124   0.879
93344W        W54798   0.339   8.245   0.326
93345W        W54799  29.953  32.593   1.877
93346W        W54800  36.444  30.470   0.279
93347W        W54801  42.856   1.414  11.546
93348W        W54802   4.708  14.229  12.453
93349W        W54803   3.285   4.283   1.379
93350W        W54804  33.900  16.250   2.292
93351W        W54805  38.822  37.895   1.300
93352W        W54806   0.431  26.654   2.866
93353W        W54807  16.596  27.673   0.902
93354W        W54808  13.160  21.673  11.505
93355W        W54809  16.674  23.084   0.907
93356W        W54810  35.561   1.465   2.849
93357W        W54811  18.273  17.180   0.402
93358W        W54812   7.700  15.744  14.920
93359W        W54813  33.066  38.364  14.281
93360W        W54814  30.105   9.236   3.224
93361W        W54815  30.108  19.614   3.714
93362W        W54816  28.178  25.584  10.527
93363W        W54817  40.015  16.205   3.337
93364W        W54818  31.441  13.127  14.378
93365W        W54819  31.899   7.189   1.270
93366W        W54820  31.896  15.254   3.346
93367W        W54821  34.565  40.547   0.814
93368W        W54822  22.120  11.360   3.223
93369W        W54823  14.111  44.479   0.433
93370W        W54824   2.327  11.326  10.557
93371W        W54825  12.356   8.838   2.884
93372W        W54826  42.987   0.862  14.305
93373W        W54827   5.928   9.858  13.802
93374W        W54828  24.549  38.912   2.315
93375W        W54829  10.234  20.041  12.396
93376W        W54830  22.696  42.516   0.929
93377W        W54831   3.362  18.595   2.822
93378W        W54832  44.996  29.936  11.970
93379W        W54833  39.551  39.443   2.671
93380W        W54834  11.631  43.302  12.840
93381W        W54835  24.491  13.714  14.783
93382W        W54836  37.393  12.290   4.285
93383W        W54837  27.055  24.671   2.808
93384W        W54838  18.608  10.771  13.535
93385W        W54839  23.114  26.647  14.345
93386W        W54840  26.992  14.671   1.801
93387W        W54841  26.647  18.686   3.751
93388W        W54842  28.016  29.990  12.528
93389W        W54843  38.822  22.613  12.514
93390W        W54844  19.720  20.599  14.929
93391W        W54845  30.994  40.367  11.046
93392W        W54846   8.285  29.081   0.847
93393W        W54847  32.953  41.043  12.475
93394W        W54848  36.993  17.769   0.743
93395W        W54849   9.251  10.218  14.370
93396W        W54850  42.888  44.002  11.499
93397W        W54851  33.564  16.765   1.449
93398W        W54852  37.562  27.658  12.926
93399W        W54853  30.562  30.907  10.957
93400W        W54854  43.823  32.399   2.371
93401W        W54855  44.410   3.375   4.300
93402W        W54856   0.957  19.624  10.556
93403W        W54857  33.922  37.082  14.346
93404W        W54858  16.257  19.777   1.822
93405W        W54859   9.806  37.489   3.261
93406W        W54860  34.922  13.816  13.493
93407W        W54861   3.325  17.214   4.610
93408W        W54862  33.027  35.964  11.580
93409W        W54863  32.578  29.158  13.547
93410W        W54864  18.235  32.062  11.012
93411W        W54865   8.187  21.644   2.361
93412W        W54866  15.717  24.548  13.031
93413W        W54867   6.894  11.763   2.355
93414W        W54868  24.564  13.724   3.646
93415W        W54869  39.324  29.441   2.360
93416W        W54870  33.578  18.175   3.842
93417W        W54871  44.003  28.497   0.775
93418W        W54872  13.226  10.325   2.737
93419W        W54873  10.301  37.933   1.796
93420W        W54874  18.558   8.243   0.802
93421W        W54875   5.791  35.013  11.058
93422W        W54876   8.230   1.356   3.841
93423W        W54877   5.902  22.223  14.298
93424W        W54878   1.866   9.183   4.653
93425W        W54879  31.032  25.692  14.024
93426W        W54880  37.376  41.962  12.487
93427W        W54881  23.007  36.481   2.180
93428W        W54882  26.512  24.499   1.729
93429W        W54883  33.909   4.384   3.251
93430W        W54884  31.094  21.114  13.434
93431W        W54885  31.601  29.115   1.349
93432W        W54886  20.626  30.048  12.452
93433W        W54887  14.242   0.314   3.744
93434W        W54888  26.594   8.737   1.346
93435W        W54889  37.904   2.227   0.301
93436W        W54890  18.691  32.942  12.484
93437W        W54891   5.276  42.361   1.324
93438W        W54892  26.989  38.522  12.932
93439W        W54893  30.434   0.953   2.229
93440W        W54894  24.000  38.430   1.917
93441W        W54895   5.255  28.055   3.331
93442W        W54896  20.205   7.223   3.298
93443W        W54897  16.112   3.784  13.411
93444W        W54898  19.773  19.623   2.674
93445W        W54899   5.724  44.264   0.750
93446W        W54900   9.277   7.196   5.253
93447W        W54901   4.225  36.861  11.487
93448W        W54902  32.511  21.641  14.304
93449W        W54903  38.908  22.029  13.009
93450W        W54904  29.426   4.778   2.365
93451W        W54905  37.514  10.162   0.936
93452W        W54906  18.665   0.324   1.417
93453W        W54907  28.549  25.650  14.931
93454W        W54908  17.136  25.013  14.842
93455W        W54909  44.464  32.634   3.385
93456W        W54910  18.137   0.832  11.118
93457W        W54911  35.887  22.671   1.391
93458W        W54912  42.301   6.864   0.280
93459W        W54913  31.459  38.380   2.214
93460W        W54914  32.054  20.543  12.930
93461W        W54915  33.613  21.058   1.412
93462W        W54916  24.216   5.859   1.857
93463W        W54917   8.822  33.038  12.826
93464W        W54918   4.242   7.891   4.660
93465W        W54919  17.102  13.225  14.480
93466W        W54920  31.946  14.280  12.555
93467W        W54921  44.988   1.290  14.760
93468W        W54922   2.749   0.863   1.233
93469W        W54923  13.227   4.704   2.886
93470W        W54924   4.248  29.156   0.773
93471W        W54925   9.376  21.083   5.206
93472W        W54926  33.924  20.746   4.120
93473W        W54927  39.890   9.215  10.556
93474W        W54928  44.403   6.425   0.277
93475W        W54929  35.536  26.554   1.921
93476W        W54930   1.845   1.789   4.797
93477W        W54931  17.175  40.010  12.521
93478W        W54932  40.373   6.738  13.998
93479W        W54933  36.511  34.421  14.808
93480W        W54934  44.461  39.318  14.016
93481W        W54935  12.336  22.214   3.686
93482W        W54936  27.624   6.776  10.936
93483W        W54937   2.744  31.043   2.363
93484W        W54938   6.751  14.273   4.740
93485W        W54939  43.335  15.807  11.430
93486W        W54940   4.328  33.566   0.832
93487W        W54941  27.049   0.321  10.049
93488W        W54942  30.914  15.683   5.160
93489W        W54943  30.008  20.190  14.431
93490W        W54944   2.402  42.470   2.372
93491W        W54945  14.190   3.314   1.337
93492W        W54946  11.306  36.855  13.892
93493W        W54947   6.734  32.393   1.878
93494W        W54948  21.229  38.343  14.474
93495W        W54949  16.115   0.968  12.928
93496W        W54950  43.781  42.878  14.972
93497W        W54951  25.691   2.958   0.481
93498W        W54952  20.578  13.839  13.461
93499W        W54953  15.678  40.347  10.470
93500W        W54954  14.773  21.756  14.952
93501W        W54955  37.478  24.026   3.370
93502W        W54956  14.817  32.068  14.503
93503W        W54957  27.957  28.542  10.520
93504W        W54958  33.445  10.648   4.634
93505W        W54959  17.252  34.507   1.357
93506W        W54960  39.540  18.555  10.615
93507W        W54961  20.183  44.775  10.601
93508W        W54962  17.064  14.139  10.957
93509W        W54963  19.103  18.655  10.529
93510W        W54964  12.281   9.301  11.083
93511W        W54965  14.643  22.052   3.160
93512W        W54966  18.586  42.464  10.546
93513W        W54967   4.885  24.479   0.393
93514W        W54968  19.153   2.373  14.989
93515W        W54969  39.021   5.400   3.796
93516W        W54970  40.873  31.486   0.395
93517W        W54971  12.749   8.865  11.994
93518W        W54972  29.509  31.011  10.905
93519W        W54973  30.985  39.467  12.511
93520W        W54974  32.419  41.990   1.263
93521W        W54975  25.545  22.144  13.880
93522W        W54976   4.428  21.711  10.896
93523W        W54977  14.337  44.298   5.252
93524W        W54978  37.494  27.071   4.123
93525W        W54979   4.718  14.251   2.242
93526W        W54980   2.928   8.887  10.465
93527W        W54981   8.813  37.524  11.439
93528W        W54982   5.307  19.607   5.167
93529W        W54983  38.410   6.204   3.182
93530W        W54984  16.582  23.123  13.834
93531W        W54985  39.006  23.237  11.447
93532W        W54986   8.734  19.167   0.961
93533W        W54987  26.102   4.372  12.962
93534W        W54988   2.883  43.819  13.311
93535W        W54989  38.032  24.632  13.944
93536W        W54990  43.802   4.781  13.327
93537W        W54991   5.924  44.965   3.638
93538W        W54992  39.856   6.367  13.018
93539W        W54993  11.215  37.034   1.725
93540W        W54994  28.164  43.922  12.343
93541W        W54995  37.027   0.977   3.182
93542W        W54996  11.211  15.293  11.440
93543W        W54997   9.311  36.082   4.231
93544W        W54998  16.692  32.629  11.122
93545W        W54999   6.809  37.395  13.461
93546W        W55000  33.906   1.882  12.951
93547W        W55001   8.655  27.665   2.768
93548W        W55002  22.093  28.103   2.821
93549W        W55003  11.257  25.653   3.702
93550W        W55004  11.205  26.573  10.985
93551W        W55005  26.079  36.912   4.699
93552W        W55006  36.983  20.695   1.847
93553W        W55007  43.394  36.096  11.586
93554W        W55008  10.363  24.119  10.971
93555W        W55009  11.621   7.352   4.670
93556W        W55010  42.964   7.884  10.545
93557W        W55011  15.228  26.693   2.693
93558W        W55012  33.569  19.234  10.417
93559W        W55013   8.169  29.563   4.190
93560W        W55014  19.653  34.886   4.190
93561W        W55015  17.270  29.991   0.258
93562W        W55016  30.623  21.190   1.881
93563W        W55017  34.565  23.097  14.448
93564W        W55018  43.795  22.023   4.149
93565W        W55019  18.232  36.392   1.780
93566W        W55020  12.219   9.737  13.062
93567W        W55021  37.023  26.123   0.316
93568W        W55022  19.115  29.060  11.586
93569W        W55023  10.753  12.662  13.867
93570W        W55024  16.243   3.806  13.044
93571W        W55025   8.257  23.715   4.797
93572W        W55026  24.500  26.162   4.711
93573W        W55027   6.254   9.683   9.988
93574W        W55028  44.275  13.824  10.986
93575W        W55029  25.573   3.780  10.132
93576W        W55030  29.058  28.436  13.537
93577W        W55031  30.096  14.142  11.488
93578W        W55032  38.443   6.747   0.257
93579W        W55033  23.716  42.918   4.616
93580W        W55034   8.747  21.729  11.473
93581W        W55035   1.796  33.894   4.181
93582W        W55036  41.307  36.512  13.833
93583W        W55037  32.099  14.294   4.803
93584W        W55038   3.271   7.703   1.248
93585W        W55039  13.746  10.346  14.989
93586W        W55040   2.340  30.554   0.938
93587W        W55041   8.288  41.978   0.739
93588W        W55042   0.397  24.592   4.284
93589W        W55043  16.618  20.566  14.338
93590W        W55044   8.847  38.508   0.288
93591W        W55045  11.130   8.199   2.183
93592W        W55046  22.602  12.822  12.054
93593W        W55047  21.666  16.717   0.857
93594W        W55048  25.606  31.014   2.179
93595W        W55049  40.983  25.642  13.397
93596W        W55050  11.140  25.111   3.185
93597W        W55051  27.534   5.400   0.727
93598W        W55052  28.566   3.257  12.472
93599W        W55053  42.949  16.617  12.851
93600W        W55054  34.066  35.044  11.382
93601W        W55055  17.253  14.661  13.806
93602W        W55056  14.714  28.973  10.049
93603W        W55057  14.605  16.757  10.942
93604W        W55058  27.970  13.780  13.969
93605W        W55059  28.519  14.716   1.278
93606W        W55060  26.022  42.402  13.023
93607W        W55061  34.581   1.833  14.924
93608W        W55062  29.568  12.123   2.382
93609W        W55063  28.452  17.743  11.579
93610W        W55064  30.071  28.161  14.897
93611W        W55065  25.500  15.241  10.443
93612W        W55066  16.629  40.895   2.793
93613W        W55067  39.410  12.187  12.346
93614W        W55068  25.469  43.330  10.554
93615W        W55069  16.679  13.750   5.099
93616W        W55070   0.951  39.448  12.512
93617W        W55071  39.900  15.205  10.410
93618W        W55072  17.171  21.057   4.163
93619W        W55073  11.170   5.311   3.325
93620W        W55074  15.806   8.830  10.436
93621W        W55075   2.430   5.309  14.466
93622W        W55076  14.174  33.427   1.701
93623W        W55077  26.534  24.024  13.967
93624W        W55078  26.069   0.870  13.530
93625W        W55079  44.443  36.971   4.605
93626W        W55080  27.503  33.504   1.269
93627W        W55081   0.345  28.168  12.372
93628W        W55082  21.556  36.843   2.793
93629W        W55083  23.585  15.134  11.517
93630W        W55084   6.690  14.761  14.402
93631W        W55085  38.050  15.242  12.485
93632W        W55086  33.879  38.876  11.066
93633W        W55087   7.271  22.726  14.499
93634W        W55088   4.895   1.764  10.497
93635W        W55089   3.402  40.539   4.325
93636W        W55090   8.854  24.656  11.523
93637W        W55091   1.898  12.288  12.466
93638W        W55092  40.024  33.984  13.800
93639W        W55093  33.907  11.182  11.069
93640W        W55094  26.527  28.953  10.417
93641W        W55095  36.426  12.813  12.441
93642W        W55096  22.080  39.530   0.323
93643W        W55097  20.571  35.993  10.438
93644W        W55098  34.473  43.852  14.335
93645W        W55099   9.800  36.476  12.074
93646W        W55100  31.426  37.555  13.469
93647W        W55101  15.625  15.654   5.188
93648W        W55102   3.759  21.260  14.988
93649W        W55103  40.348  11.172  12.856
93650W        W55104  28.631  26.114  14.833
93651W        W55105  43.491  34.877   3.332
93652W        W55106  36.892  43.895   3.162
93653W        W55107  44.982  26.006  14.420
93654W        W55108  33.521  43.493  11.125
93655W        W55109   8.710  31.512  12.490
93656W        W55110  41.916  28.572  12.964
93657W        W55111  10.866  29.953  11.917
93658W        W55112  17.238  35.439   1.897
93659W        W55113   7.370  19.155   0.283
93660W        W55114  11.164  37.959   4.201
93661W        W55115  19.083  43.385  12.916
93662W        W55116  14.782  22.621   0.456
93663W        W55117  31.420  13.615  11.914
93664W        W55118   1.796  16.730   3.766
93665W        W55119  17.798  20.552  12.027
93666W        W55120  44.927  36.962  14.346
93667W        W55121  27.091  32.997   0.368
93668W        W55122  22.644  22.252   2.412
93669W        W55123  27.188  44.288  10.588
93670W        W55124  23.229  37.060  14.345
93671W        W55125  30.120  24.685  14.505
93672W        W55126  37.349  25.531  10.971
93673W        W55127  29.991  34.485  14.297
93674W        W55128   3.839  30.027   1.262
93675W        W55129   2.406  14.278   2.868
93676W        W55130  10.233   5.762  10.521
93677W        W55131  30.971  22.586  10.910
93678W        W55132  29.976  42.813   1.802
93679W        W55133  38.980  16.601  14.869
93680W        W55134  20.615  43.376  10.603
93681W        W55135  43.773  13.282   2.336
93682W        W55136  37.407  20.077  12.882
93683W        W55137  12.821  39.552   0.863
93684W        W55138  42.782  31.100   1.716
93685W        W55139  13.809   1.392   2.716
93686W        W55140   2.910   4.879   4.241
93687W        W55141  10.866   5.377  14.326
93688W        W55142  15.118   9.827   5.743
93689W        W55143  27.602   7.181   0.817
93690W        W55144  14.222  11.223  11.986
93691W        W55145  14.665  32.917  13.928
93692W        W55146  33.053  39.044  12.386
93693W        W55147  31.558  12.624   1.222
93694W        W55148  21.087  12.719   3.709
93695W        W55149   5.854  39.830  14.921
93696W        W55150  18.598  13.199  12.519
93697W        W55151  20.590  13.800   0.425
93698W        W55152  42.791  13.695   4.320
93699W        W55153  37.378  28.123  11.467
93700W        W55154  43.481  41.486  11.099
93701W        W55155   6.720  44.449  13.857
93702W        W55156  40.914   2.922  14.945
93703W        W55157  32.007  18.675  10.622
93704W        W55158  36.962  10.313  10.955
93705W        W55159  24.117  17.773  13.930
93706W        W55160  17.565   8.821  11.890
93707W        W55161   9.315  32.963   0.362
93708W        W55162  10.139  23.032   0.851
93709W        W55163  16.742  31.038   3.155
93710W        W55164   3.278   4.440   4.609
93711W        W55165   4.925   9.394   0.365
93712W        W55166   4.383  19.226  14.892
93713W        W55167  44.427  23.193  10.614
93714W        W55168   8.258  30.128  11.015
93715W        W55169  31.491  13.187   1.425
93716W        W55170  25.126  18.605  12.057
93717W        W55171  35.972  19.730   4.203
93718W        W55172  14.775  25.698  11.605
93719W        W55173  15.601  27.181   3.229
93720W        W55174  25.161  31.149   2.313
93721W        W55175  15.819  43.449  11.934
93722W        W55176  38.895  22.082   1.799
93723W        W55177  44.361   4.446  14.415
93724W        W55178  35.084  31.956   3.235
93725W        W55179  41.305  25.151   4.286
93726W        W55180  36.927  34.979  14.759
93727W        W55181  40.878  12.616  13.801
93728W        W55182  21.703  10.225  12.354
93729W        W55183  42.951  20.217  11.959
93730W        W55184   1.749  44.471  12.354
93731W        W55185  32.910  40.439  14.027
93732W        W55186  40.916   9.830   2.685
93733W        W55187   1.900  37.953   0.937
93734W        W55188  14.120   6.861   1.230
93735W        W55189  24.119  27.941  13.911
93736W        W55190   8.362  28.456   2.736
93737W        W55191  28.113  24.685  14.824
93738W        W55192  23.679   3.768  10.604
93739W        W55193  29.472  35.894  13.810
93740W        W55194  33.944  43.303  14.375
93741W        W55195   3.917  16.583  13.429
93742W        W55196  20.647   5.379  12.900
93743W        W55197  10.855  36.015   0.315
93744W        W55198  26.566  11.832   4.310
93745W        W55199   6.274   3.842  10.611
93746W        W55200  19.620  33.532   3.320
93747W        W55201  18.575  17.782  11.010
93748W        W55202   2.295   4.412  11.971
93749W        W55203   5.283   6.780   3.253
93750W        W55204   2.348  21.084  13.538
93751W        W55205   4.821   6.699  14.351
93752W        W55206  38.967  17.671   4.690
93753W        W55207  32.504   7.399  14.381
93754W        W55208  30.610  38.373  12.421
93755W        W55209  24.560  14.835  10.894
93756W        W55210  26.108  20.129  13.325
93757W        W55211  35.589  12.826  13.943
93758W        W55212  23.580  11.346  12.877
93759W        W55213   6.327  16.644   0.765
93760W        W55214  25.021   2.387   2.898
93761W        W55215  43.352  21.139  14.414
93762W        W55216  35.557   9.751   4.817
93763W        W55217   9.751  30.024  10.555
93764W        W55218  17.267  16.588  14.440
93765W        W55219  39.049  26.055  13.919
93766W        W55220   4.932   5.219   2.416
93767W        W55221  26.052  32.894  14.833
93768W        W55222  43.778  26.575  13.324
93769W        W55223  21.032  29.643   1.383
93770W        W55224  18.196  16.614  11.967
93771W        W55225   2.428  40.034   0.953
93772W        W55226   4.304  18.782   2.760
93773W        W55227   4.765  28.581  13.846
93774W        W55228  33.553  19.607  11.536
93775W        W55229  43.945  23.677  12.368
93776W        W55230  20.266  34.531  10.975
93777W        W55231  41.895  10.646   3.661
93778W        W55232   9.300  20.139   1.791
93779W        W55233  26.561  24.096  12.964
93780W        W55234  19.184  29.922  14.793
93781W        W55235   5.377  26.508  13.999
93782W        W55236  13.169  23.512   0.931
93783W        W55237  13.235  17.583  12.437
93784W        W55238  41.900  34.076   1.908
93785W        W55239   8.819  14.657  11.928
93786W        W55240  18.554  29.607   5.146
93787W        W55241  19.707  27.003  14.506
93788W        W55242  35.917  28.942  10.610
93789W        W55243  21.171  38.980  12.440
93790W        W55244  29.924  20.582   3.316
93791W        W55245  40.363  22.602   4.297
93792W        W55246  18.293  26.587  13.337
93793W        W55247  43.810  36.487  14.911
93794W        W55248  19.562  25.043  13.011
93795W        W55249  14.827  12.180  13.511
93796W        W55250  18.691  14.169   2.279
93797W        W55251  34.956  11.196   4.155
93798W        W55252  24.603  20.673   1.798
93799W        W55253  39.384  43.305  14.885
93800W        W55254  28.665  13.669   0.881
93801W        W55255  44.806  18.552   0.846
93802W        W55256  20.530   3.899  14.366
93803W        W55257   7.857  17.748   0.753
93804W        W55258  37.481   5.780   0.806
93805W        W55259  38.830  19.647  10.444
93806W        W55260  16.172  37.027   4.723
93807W        W55261  22.682  13.761   1.872
93808W        W55262  18.634  24.107   0.406
93809W        W55263  40.385  44.436   5.136
93810W        W55264   9.329   7.843  11.882
93811W        W55265   4.885   0.769   1.762
93812W        W55266   1.749  30.634  11.539
93813W        W55267  16.125  12.283  13.051
93814W        W55268   0.770   1.832  14.367
93815W        W55269  19.144  19.148  12.446
93816W        W55270  23.062  10.720   4.773
93817W        W55271   9.282  43.943   1.336
93818W        W55272  16.696  31.561   1.320
93819W        W55273  11.756  31.437   9.973
93820W        W55274  14.752  40.826   0.360
93821W        W55275  44.989   5.368   4.707
93822W        W55276  44.436  12.175  14.445
93823W        W55277  36.930  40.846   3.648
93824W        W55278  18.062  18.709  14.863
93825W        W55279  26.561   6.800   0.838
93826W        W55280  15.738   3.373   0.966
93827W        W55281  39.962  39.464   1.264
93828W        W55282  31.428   8.738   5.275
93829W        W55283  18.608  33.057   4.274
93830W        W55284  35.596  37.070  14.913
93831W        W55285  29.599  31.904   0.345
93832W        W55286   7.784  43.416  12.062
93833W        W55287  19.277  34.397  12.552
93834W        W55288   5.438  29.650  11.088
93835W        W55289  26.667   3.881  14.332
93836W        W55290  31.966  11.783  10.472
93837W        W55291  42.920  29.533  13.915
93838W        W55292  18.233   3.913  10.442
93839W        W55293  25.574  33.459  11.068
93840W        W55294  22.530  10.819   0.259
93841W        W55295   8.343   3.230  14.327
93842W        W55296   2.836  19.211  13.933
93843W        W55297  31.946  15.125  11.570
93844W        W55298   4.924  35.494  13.435
93845W        W55299   7.335   2.927  13.038
93846W        W55300  25.181  11.303   0.268
93847W        W55301  38.862  17.259   3.346
93848W        W55302   1.376  42.019  10.493
93849W        W55303  35.032  27.502   3.162
93850W        W55304  14.323  44.458  12.035
93851W        W55305  20.231  14.114   2.266
93852W        W55306  23.553  17.249   1.774
93853W        W55307  24.108  22.605  10.081
93854W        W55308  43.340  10.731  10.569
93855W        W55309  39.044  23.505  13.802
93856W        W55310   9.191  28.076  13.012
93857W        W55311  39.361  27.561   3.356
93858W        W55312  31.427   6.896  14.406
93859W        W55313  35.425  28.076   3.821
93860W        W55314  23.516  38.072   2.860
93861W        W55315  44.921  22.598  11.074
93862W        W55316  41.028  34.412  12.091
93863W        W55317  25.628  33.037   4.320
93864W        W55318  15.288  20.608  12.981
93865W        W55319  24.601   7.388   3.659
93866W        W55320  30.025  28.099  13.866
93867W        W55321  22.520  40.960   1.388
93868W        W55322  44.450  38.466   1.749
93869W        W55323   3.733  38.548  11.491
93870W        W55324   7.334  18.734   3.772
93871W        W55325  30.413   3.274  12.833
93872W        W55326  33.096   5.346   4.305
93873W        W55327   7.715  28.434   0.402
93874W        W55328  43.016  24.129  12.055
93875W        W55329   0.902   0.985   3.353
93876W        W55330  30.079   1.781  14.511
93877W        W55331   1.410  15.231  11.932
93878W        W55332  20.093   7.328  10.904
93879W        W55333  17.563  41.984  11.506
93880W        W55334  22.058  14.590   0.451
93881W        W55335  32.065  31.573  12.090
93882W        W55336  31.484  23.042  10.618
93883W        W55337   5.339  35.090   1.723
93884W        W55338  13.700   9.343  14.809
93885W        W55339  34.971  19.078   2.810
93886W        W55340  14.638   9.162   3.631
93887W        W55341   9.328  28.587  10.957
93888W        W55342  35.532  19.140  11.025
93889W        W55343  37.970  10.787   3.191
93890W        W55344  44.759   0.268   0.473
93891W        W55345  34.596  19.736   0.247
93892W        W55346  17.776  19.259   2.842
93893W        W55347  39.483  44.914   0.752
93894W        W55348  22.178   9.655   9.479
93895W        W55349  22.131   8.796   2.746
93896W        W55350  25.194   7.301  11.128
93897W        W55351   5.931  41.917   0.952
93898W        W55352  11.197   8.225   3.378
93899W        W55353  44.935  34.992   4.740
93900W        W55354   5.719   2.458   0.339
93901W        W55355  40.864  31.966   3.821
93902W        W55356   2.771   5.385  13.311
93903W        W55357  24.151  23.148   0.869
93904W        W55358  22.071  20.651   1.771
93905W        W55359  30.597   0.776   4.313
93906W        W55360  29.504   4.347   3.859
93907W        W55361  38.561  13.653  13.480
93908W        W55362  16.677  30.018   3.188
93909W        W55363  40.984  10.232   2.228
93910W        W55364  41.835   9.661  14.968
93911W        W55365  34.448   5.703  12.557
93912W        W55366  22.074   6.194   1.387
93913W        W55367   3.226  13.316  12.048
93914W        W55368  23.502  23.173  12.894
93915W        W55369  44.953  18.111  10.920
93916W        W55370   5.762  42.009  10.493
93917W        W55371  30.107   2.296   4.629
93918W        W55372  34.912  21.542  11.907
93919W        W55373  26.113  20.198   1.424
93920W        W55374  31.015  37.341   9.932
93921W        W55375  35.579  31.506   1.786
93922W        W55376  34.571  24.158  12.541
93923W        W55377  41.031  29.056   3.666
93924W        W55378   1.926  15.799  14.421
93925W        W55379  28.503  39.527   3.684
93926W        W55380  38.993   6.256   1.828
93927W        W55381  12.180  10.847   3.682
93928W        W55382  31.602  39.329   2.880
93929W        W55383  22.527  41.980   3.849
93930W        W55384   0.834  39.385  10.548
93931W        W55385  22.564  25.117   0.799
93932W        W55386   5.229  23.192   2.807
93933W        W55387  44.774   8.851   3.243
93934W        W55388   1.360  42.904   1.426
93935W        W55389   8.166  12.824   4.238
93936W        W55390  37.435  40.368   3.246
93937W        W55391  27.025  43.858   3.835
93938W        W55392   9.242  38.386  10.631
93939W        W55393  20.592  26.109   4.187
93940W        W55394  37.074  39.844   2.266
93941W        W55395  40.804  42.345   1.264
93942W        W55396  11.696  33.589   1.237
93943W        W55397  17.077   5.738  11.539
93944W        W55398   6.346  38.354   3.788
93945W        W55399  27.185  17.115   3.837
93946W        W55400  27.509   0.398   4.696
93947W        W55401  10.256  38.494  14.345
93948W        W55402  10.365  43.470   0.869
93949W        W55403  35.865  17.077   2.194
93950W        W55404  13.602   4.919  10.465
93951W        W55405  27.000  36.498  11.982
93952W        W55406  14.193   3.404  11.104
93953W        W55407   7.222   3.295   3.859
93954W        W55408   9.304  35.107   2.779
93955W        W55409   1.328   1.304  14.453
93956W        W55410  15.202  42.504  14.498
93957W        W55411  12.316   8.365   4.287
93958W        W55412  29.979  26.011  13.943
93959W        W55413   3.405  38.876  13.468
93960W        W55414  36.522  37.836  13.442
93961W        W55415  26.599  38.497   3.795
93962W        W55416  12.718   8.262   3.816
93963W        W55417  25.090  19.179  11.442
93964W        W55418  23.684  32.117  10.074
93965W        W55419  42.284   6.783   1.367
93966W        W55420  15.214  16.585  11.025
93967W        W55421   3.376  24.657   0.912
93968W        W55422  36.994  34.039  14.372
93969W        W55423   3.761  36.351  13.959
93970W        W55424  27.161  31.610   4.690
93971W        W55425  41.040  24.033  12.462
93972W        W55426  11.694  14.197  10.597
93973W        W55427  39.471  28.944   3.166
93974W        W55428  15.167  35.391   2.193
93975W        W55429   7.800  16.770  12.029
93976W        W55430  40.916  25.007  13.016
93977W        W55431  14.716   0.890  13.018
93978W        W55432   9.205  27.458   0.343
93979W        W55433   3.899  40.875  13.484
93980W        W55434  22.205  29.137  14.794
93981W        W55435  42.904  34.441   1.329
93982W        W55436  16.736  37.902   0.742
93983W        W55437   2.461  15.304   4.762
93984W        W55438   2.754  10.793  14.413
93985W        W55439  11.200  22.089  11.372
93986W        W55440   2.458  10.341   3.300
93987W        W55441  15.683  36.852  12.836
93988W        W55442  31.013  37.950  12.492
93989W        W55443  23.056  36.449   1.813
93990W        W55444  29.978   0.815   0.478
93991W        W55445  41.001  13.675   2.245
93992W        W55446  21.019  28.057  14.419
93993W        W55447  39.358  15.593   2.695
93994W        W55448   8.701  26.695  13.798
93995W        W55449  41.991   7.741   3.789
93996W        W55450   0.928  44.804  14.886
93997W        W55451  19.642  20.036   2.867
93998W        W55452  30.087  25.525   1.261
93999W        W55453  34.866  12.162  13.497
94000W        W55454   2.239  16.700  14.330
94001W        W55455  31.111  23.187   0.393
94002W        W55456   9.267  38.026   1.439
94003W        W55457  23.613  13.736   2.324
94004W        W55458   3.913  40.474   2.866
94005W        W55459  16.581  42.437  10.902
94006W        W55460  37.429  40.977   1.726
94007W        W55461  35.869  34.903  10.642
94008W        W55462  21.082  37.460   5.317
94009W        W55463  10.868  23.036  12.014
94010W        W55464  38.565  38.906   0.732
94011W        W55465  12.834  38.036  10.039
94012W        W55466  17.631   9.877  10.564
94013W        W55467  27.182  36.947  10.451
94014W        W55468   2.368   2.737  14.016
94015W        W55469   0.849  35.107  13.423
94016W        W55470  37.495  15.689   2.380
94017W        W55471  18.224   9.804   1.328
94018W        W55472  29.022  42.514  11.989
94019W        W55473  36.999  38.900   0.921
94020W        W55474   8.820  29.919   0.833
94021W        W55475  35.372  23.047   0.252
94022W        W55476   6.906  13.845  14.386
94023W        W55477  14.830  10.857  11.532
94024W        W55478  16.205  33.542   3.356
94025W        W55479  42.848  27.479   1.276
94026W        W55480  32.025  13.105  12.403
94027W        W55481  13.834  26.009   0.438
94028W        W55482   0.345  32.599   0.827
94029W        W55483  17.244  17.113  11.559
94030W        W55484   6.347  42.510  14.816
94031W        W55485  36.437   1.745   9.991
94032W        W55486  31.585  24.706   2.774
94033W        W55487  18.240  39.485   1.285
94034W        W55488   5.196   3.334  11.862
94035W        W55489   1.863  26.151  14.901
94036W        W55490   1.290   9.694  13.404
94037W        W55491  30.513  28.675   4.761
94038W        W55492   3.231  44.878   2.209
94039W        W55493  16.702  41.855   2.707
94040W        W55494  40.492  34.043  14.928
94041W        W55495  13.727  36.578  11.564
94042W        W55496  12.807  43.293   1.298
94043W        W55497  23.660  14.268  14.958
94044W        W55498   8.319   3.382   0.843
94045W        W55499  19.242  32.900   0.792
94046W        W55500  42.449  41.472  12.541
94047W        W55501   8.392  44.338  12.351
94048W        W55502   6.189   0.447  14.000
94049W        W55503  43.887  10.878   1.218
94050W        W55504  24.077  40.845   0.253
94051W        W55505  31.572   3.865  13.823
94052W        W55506  25.139  23.736  14.511
94053W        W55507   4.825  14.729   2.709
94054W        W55508  11.722  14.105   3.683
94055W        W55509  37.900   5.359  14.776
94056W        W55510  21.688  35.971  12.967
94057W        W55511  28.648  35.530   4.203
94058W        W55512  21.685  31.428  13.796
94059W        W55513  13.189  22.733  14.772
94060W        W55514  44.805  30.035   0.965
94061W        W55515   2.916  41.853   0.380
94062W        W55516   5.436   6.410  12.957
94063W        W55517   0.768  22.705   4.337
94064W        W55518  41.840  27.469   1.432
94065W        W55519   1.762  33.974   3.317
94066W        W55520  22.520  10.852   0.778
94067W        W55521  10.161   0.951   4.629
94068W        W55522  23.494  32.434   4.150
94069W        W55523  26.095  11.217   3.344
94070W        W55524  16.172  24.076   3.226
94071W        W55525   5.883  22.220   3.238
94072W        W55526   0.784  15.227  14.384
94073W        W55527  28.050  18.553   0.878
94074W        W55528  10.721   0.766   1.218
94075W        W55529  23.641  19.601  13.043
94076W        W55530  22.544  30.573   0.469
94077W        W55531  42.298  14.706   1.773
94078W        W55532  39.968  12.295  12.444
94079W        W55533  39.483   6.774   3.194
94080W        W55534  29.459  36.949  10.450
94081W        W55535  31.135  25.472   0.264
94082W        W55536   5.886  34.914  12.555
94083W        W55537  13.718  25.685   0.789
94084W        W55538  41.913   1.905   2.745
94085W        W55539  12.324  24.571  11.958
94086W        W55540  19.127  43.945  11.387
94087W        W55541  28.028  24.606  13.535
94088W        W55542  38.368  33.094  11.955
94089W        W55543  13.248  29.644   3.785
94090W        W55544  36.949  25.594  13.024
94091W        W55545  31.492  23.160  12.042
94092W        W55546   0.987  21.515   1.796
94093W        W55547  16.658  14.253   2.891
94094W        W55548  35.420  15.096  11.120
94095W        W55549   5.313  26.478   2.684
94096W        W55550  36.429  26.580  13.988
94097W        W55551  28.042  10.204   3.354
94098W        W55552   9.269  14.783   2.869
94099W        W55553  26.058  41.518  10.432
94100W        W55554  23.099  13.295   2.824
94101W        W55555  42.525  42.338  12.570
94102W        W55556   0.764  24.618   3.384
94103W        W55557   7.253  21.562  11.008
94104W        W55558  34.397  22.011   0.401
94105W        W55559   1.839  37.484  10.923
94106W        W55560  31.524   7.388   2.265
94107W        W55561   8.342  27.587   0.437
94108W        W55562  13.726   4.724  10.968
94109W        W55563  11.256   7.813   3.187
94110W        W55564   7.365  42.428   0.479
94111W        W55565  22.649  18.077  14.864
94112W        W55566  30.462  17.656   1.228
94113W        W55567  39.471   4.856  12.465
94114W        W55568  44.502  34.530   3.642
94115W        W55569  34.465  18.123   2.256
94116W        W55570  12.702  12.153   4.811
94117W        W55571  25.989  31.518   0.281
94118W        W55572  11.316  16.252  10.463
94119W        W55573  15.582  21.567   0.244
94120W        W55574  28.530  10.374  10.980
94121W        W55575  30.096   6.708   0.286
94122W        W55576   5.424  11.819  12.428
94123W        W55577  42.949   2.349   4.218
94124W        W55578  43.307  31.973  11.592
94125W        W55579  33.477  34.971   2.827
94126W        W55580  13.337   5.419  13.356
94127W        W55581  21.024  35.859   1.243
94128W        W55582   2.227  32.046   1.797
94129W        W55583  11.667  33.074   5.719
94130W        W55584  24.499  43.278  12.825
94131W        W55585  38.062  39.538   3.817
94132W        W55586   9.750  38.035   3.185
94133W        W55587  42.818  32.049  12.430
94134W        W55588   6.264   4.801   3.337
94135W        W55589  20.556  19.745   4.348
94136W        W55590   8.887  15.590   4.257
94137W        W55591  30.940  40.427   0.419
94138W        W55592  21.037  42.323   4.834
94139W        W55593  40.538  35.427  14.769
94140W        W55594   7.366  26.058   2.217
94141W        W55595  22.715  16.746   4.199
94142W        W55596  19.649   6.682  14.867
94143W        W55597  21.127  42.965   0.931
94144W        W55598  20.650  16.621  13.975
94145W        W55599  25.661  43.429   1.795
94146W        W55600  11.669  32.577  12.382
94147W        W55601  34.879  28.036   4.265
94148W        W55602  13.197  40.914  11.471
94149W        W55603  11.671  26.150  10.961
94150W        W55604  25.154  19.769  14.375
94151W        W55605  26.061   9.211   4.809
94152W        W55606  23.677  31.083  12.374
94153W        W55607  42.288  24.626  10.544
94154W        W55608  36.500  32.142   2.284
94155W        W55609   4.766  43.484  10.964
94156W        W55610  40.819  28.956   0.364
94157W        W55611  23.134  21.049   1.893
94158W        W55612  11.841   5.867  11.856
94159W        W55613  19.176   7.665   0.758
94160W        W55614  44.326   0.272  14.788
94161W        W55615   7.366  44.332   0.339
94162W        W55616  30.028  30.624   3.244
94163W        W55617  38.004  32.036   1.848
94164W        W55618  32.628  36.469  13.468
94165W        W55619  31.113  19.064  14.830
94166W        W55620   9.819   5.216   1.339
94167W        W55621   5.371  41.789  12.838
94168W        W55622   1.833  22.034   4.756
94169W        W55623   5.407   4.385   1.749
94170W        W55624   8.384  21.059  14.030
94171W        W55625  44.935  14.284  11.868
94172W        W55626   5.343  23.055  13.492
94173W        W55627   7.266  19.735   0.742
94174W        W55628  38.519  20.690   1.835
94175W        W55629  43.919   9.277  11.402
94176W        W55630  11.735  31.628   9.626
94177W        W55631  17.722  28.435   0.773
94178W        W55632  37.485  11.818  13.925
94179W        W55633  35.428  21.758   4.715
94180W        W55634   8.797   9.278  14.334
94181W        W55635  44.943  27.046   4.610
94182W        W55636  13.824   0.906  11.947
94183W        W55637  23.145  32.008   9.978
94184W        W55638  31.137  33.626   4.149
94185W        W55639  18.187   8.359  12.340
94186W        W55640   1.855  39.015   0.269
94187W        W55641  31.448  10.792   3.691
94188W        W55642  11.258  10.325   4.637
94189W        W55643  24.031  44.947   3.223
94190W        W55644  26.462  31.419   3.305
94191W        W55645  23.206  25.093  14.967
94192W        W55646  11.159  20.617  14.493
94193W        W55647  44.905  38.505  14.916
94194W        W55648  19.615   9.361  10.498
94195W        W55649  30.999   4.760   5.148
94196W        W55650   8.688   1.940   2.694
94197W        W55651  27.976  20.703  14.351
94198W        W55652  39.326  13.170  14.966
94199W        W55653  38.006   8.379   2.219
94200W        W55654   9.689  37.344  10.955
94201W        W55655  42.891  28.469  14.389
94202W        W55656  30.429  21.183   1.303
94203W        W55657  26.679   6.860  13.524
94204W        W55658  27.989  21.514  11.932
94205W        W55659  42.018  39.997   0.457
94206W        W55660   5.701  12.667   0.926
94207W        W55661   5.923   2.367  10.504
94208W        W55662  24.634  28.627   2.307
94209W        W55663  34.505  39.315   2.325
94210W        W55664  13.762  22.222  11.981
94211W        W55665  27.080  10.842  13.048
94212W        W55666   6.329  31.510  11.466
94213W        W55667  37.546   2.839   1.386
94214W        W55668  37.020  41.440  12.983
94215W        W55669  32.015  25.704   3.286
94216W        W55670  33.484  34.957   1.856
94217W        W55671  22.687  41.986   3.225
94218W        W55672   5.430  41.296   1.304
94219W        W55673  14.216  36.493   2.762
94220W        W55674  28.512   2.841  14.434
94221W        W55675  41.305  41.884  11.470
94222W        W55676   6.296  33.460  11.588
94223W        W55677  12.333  41.910   4.114
94224W        W55678   4.823   3.891  13.539
94225W        W55679   5.254  33.393   2.890
94226W        W55680  21.156  30.111  11.952
94227W        W55681  25.134   5.335   4.633
94228W        W55682  42.900  24.060  12.386
94229W        W55683  26.696  43.833   0.735
94230W        W55684  38.495  31.133  10.938
94231W        W55685  34.082  36.482  11.893
94232W        W55686  14.724  28.674  13.011
94233W        W55687  44.912  10.235   3.732
94234W        W55688  23.701   4.403  12.345
94235W        W55689   8.310  34.108   1.824
94236W        W55690  33.994  41.508   4.168
94237W        W55691  42.477   0.485  10.621
94238W        W55692  20.697  37.488  14.874
94239W        W55693  23.619   8.705   1.249
94240W        W55694  25.982   0.476  12.931
94241W        W55695  33.433  38.938  12.086
94242W        W55696  15.120  10.703   9.481
94243W        W55697  12.734  27.484  14.768
94244W        W55698  43.422  30.069   3.724
94245W        W55699  31.954  42.782   4.123
94246W        W55700  35.883  11.366  14.443
94247W        W55701  15.222  29.656  11.406
94248W        W55702  38.968  37.471  14.456
94249W        W55703  14.296  28.569   4.739
94250W        W55704  16.575  28.037   4.156
94251W        W55705  30.949  41.337  11.115
94252W        W55706  25.007  43.481   2.758
94253W        W55707   3.725  12.807   4.209
94254W        W55708  39.521  36.988  11.992
94255W        W55709  19.640   4.303  13.838
94256W        W55710   6.357   2.419  12.496
94257W        W55711  42.311  34.534  13.020
94258W        W55712  14.695  34.374   0.351
94259W        W55713  35.435  20.716  11.945
94260W        W55714  39.356  43.792  10.438
94261W        W55715  30.506  28.654  13.917
94262W        W55716  39.560  26.168   2.357
94263W        W55717  31.639  44.495   0.943
94264W        W55718   8.225  19.123   2.725
94265W        W55719   9.223  23.085   0.758
94266W        W55720  41.359   2.286   0.741
94267W        W55721  12.740  13.315   4.326
94268W        W55722  44.340  11.313  14.352
94269W        W55723   4.446  38.401   3.259
94270W        W55724  40.810  19.085   1.794
94271W        W55725   8.350  38.945  14.885
94272W        W55726  28.676  34.904   0.265
94273W        W55727   4.750  27.940   5.145
94274W        W55728  23.661  34.961  13.031
94275W        W55729   7.904  23.999   4.302
94276W        W55730  12.796  13.622  13.349
94277W        W55731  35.085  11.264   3.636
94278W        W55732  15.236  33.427   1.323
94279W        W55733  42.345  41.005  13.933
94280W        W55734  34.577  43.495   1.272
94281W        W55735  29.976  35.523   3.259
94282W        W55736  16.813   6.752  12.465
94283W        W55737   1.439  39.517  10.960
94284W        W55738  20.662  34.999  10.452
94285W        W55739  16.246  26.598   2.719
94286W        W55740  43.955  44.272   4.684
94287W        W55741   3.261  42.516  11.033
94288W        W55742  24.118  28.508  10.990
94289W        W55743  36.511  35.927  13.425
94290W        W55744  16.756  40.412  13.996
94291W        W55745  44.889   6.377  13.912
94292W        W55746  32.578  22.047  12.400
94293W        W55747  25.580  34.109   3.367
94294W        W55748  16.163  44.463   4.168
94295W        W55749  22.999  11.693  10.063
94296W        W55750  24.511   9.243  10.619
94297W        W55751  27.614  29.011  14.945
94298W        W55752  30.467  38.969  10.924
94299W        W55753  31.994  29.130  13.467
94300W        W55754  14.240  43.925   0.941
94301W        W55755   9.248   3.848   1.292
94302W        W55756  44.852  33.443   0.313
94303W        W55757  22.671  29.611   4.209
94304W        W55758  12.637   4.798   1.319
94305W        W55759  36.347   1.288  13.383
94306W        W55760  13.811  13.114   2.373
94307W        W55761   3.876  13.729  11.980
94308W        W55762  20.125   8.882  10.574
94309W        W55763  37.365  15.788  12.339
94310W        W55764  34.870  21.177  12.383
94311W        W55765  44.842  25.076  11.922
94312W        W55766  30.615  33.927   0.928
94313W        W55767  43.292  18.718   0.756
94314W        W55768  13.638  11.698   5.793
94315W        W55769  12.647  20.164  14.312
94316W        W55770   8.303  24.028   2.821
94317W        W55771   7.911   3.271  11.056
94318W        W55772  42.384   0.914  14.333
94319W        W55773   3.725  27.661   2.881
94320W        W55774  37.880  14.303   3.327
94321W        W55775  41.831  32.110  12.054
94322W        W55776   3.915  39.538  11.006
94323W        W55777  24.615   1.264   1.422
94324W        W55778  10.823  23.670   3.723
94325W        W55779   8.367  38.329  14.800
94326W        W55780  30.966   8.663  12.467
94327W        W55781  24.077  17.608   2.741
94328W        W55782   7.897  34.058  12.521
94329W        W55783  38.828  13.639   4.667
94330W        W55784  35.368  37.461  13.005
94331W        W55785  38.986  39.462  12.050
94332W        W55786  36.006   5.795   3.236
94333W        W55787  31.559  41.856   0.289
94334W        W55788  33.470  27.082  14.935
94335W        W55789   8.348  26.479  10.537
94336W        W55790  43.931  25.052   2.277
94337W        W55791  35.525   7.801   2.323
94338W        W55792   5.915   2.945  13.052
94339W        W55793  27.473  42.388  12.855
94340W        W55794  23.070  39.412  11.885
94341W        W55795  17.061  12.814   3.811
94342W        W55796  26.491   3.925   1.699
94343W        W55797  30.543   7.208   0.250
94344W        W55798   2.442  29.054  10.407
94345W        W55799  17.080  33.878   4.308
94346W        W55800  11.859  31.122   3.374
94347W        W55801   7.817   1.447   1.934
94348W        W55802   9.844  22.675  13.961
94349W        W55803   6.227   6.811  12.988
94350W        W55804  17.786  24.127  10.453
94351W        W55805  33.458  35.603   4.813
94352W        W55806  43.934  21.154  14.007
94353W        W55807  19.235  24.207   3.817
94354W        W55808  29.058  20.732   3.836
94355W        W55809  37.907   1.941  13.932
94356W        W55810  25.990  12.181   1.309
94357W        W55811  44.342  28.964  14.403
94358W        W55812  24.690  16.612  11.015
94359W        W55813  37.995   4.290   2.314
94360W        W55814  34.453   0.424   0.869
94361W        W55815  21.233   0.756   0.909
94362W        W55816  42.407  31.030   4.648
94363W        W55817   7.833  31.979  12.902
94364W        W55818   4.732  36.022  10.431
94365W        W55819  27.685  34.597   1.275
94366W        W55820   6.280  28.023  12.370
94367W        W55821  38.067  23.181  12.049
94368W        W55822  41.967  41.334  13.924
94369W        W55823  39.831  17.665  10.496
94370W        W55824  30.090  30.423   1.866
94371W        W55825  33.992   2.257  10.902
94372W        W55826   0.273  18.769  10.491
94373W        W55827  42.517  38.471   4.786
94374W        W55828  42.455  44.873  14.820
94375W        W55829  30.591  28.497   4.129
94376W        W55830   7.879  15.236  12.898
94377W        W55831  37.861  20.690  11.935
94378W        W55832   5.277  23.122   4.139
94379W        W55833  14.608  39.316  12.404
94380W        W55834  44.770   5.209  11.398
94381W        W55835  13.729  18.285   3.346
94382W        W55836  42.984  31.428  13.422
94383W        W55837   1.878  37.351   1.819
94384W        W55838  44.497  21.623   0.276
94385W        W55839  43.356   7.296  10.930
94386W        W55840  18.616  39.362   3.731
94387W        W55841  32.445  32.582  14.863
94388W        W55842   5.424  10.309  14.479
94389W        W55843   9.693  40.840  10.154
94390W        W55844  41.027  39.505  12.876
94391W        W55845  24.698  34.517   2.293
94392W        W55846  12.316  37.478  13.797
94393W        W55847  43.805   5.897   3.219
94394W        W55848   1.878  33.879   1.377
94395W        W55849  42.931  24.028  14.507
94396W        W55850  44.493  41.349  13.873
94397W        W55851   7.786  27.000   3.869
94398W        W55852  38.890  22.725  11.058
94399W        W55853  33.889   2.749   3.157
94400W        W55854   0.886  11.655   5.231
94401W        W55855  12.670  44.277  12.510
94402W        W55856  37.933  24.084   4.747
94403W        W55857  43.855  35.432  12.420
94404W        W55858  19.581  31.107   0.331
94405W        W55859  34.937   1.747  10.059
94406W        W55860  34.487  31.534   3.372
94407W        W55861  29.548  22.110  13.389
94408W        W55862   7.275  13.270  10.974
94409W        W55863  10.649   6.903   2.368
94410W        W55864  44.265  17.083   2.186
94411W        W55865   7.406  32.528  14.498
94412W        W55866   9.182   3.753   2.774
94413W        W55867  30.440   5.326   3.148
94414W        W55868  44.467  13.709   2.295
94415W        W55869  26.187  41.525  13.876
94416W        W55870  10.655  15.291  11.005
94417W        W55871  32.622  10.776  13.338
94418W        W55872  15.156  32.096   3.361
94419W        W55873   8.277   8.349   3.722
94420W        W55874  24.227  38.029  14.340
94421W        W55875  38.009  18.721   3.227
94422W        W55876   1.456  17.565   1.841
94423W        W55877  39.384   9.274  11.957
94424W        W55878   8.226  13.741  12.936
94425W        W55879  26.992  22.540  10.584
94426W        W55880  41.951  35.387  10.958
94427W        W55881  37.861  32.988  12.074
94428W        W55882  35.380  27.501  12.476
94429W        W55883  13.152   5.276   0.845
94430W        W55884  22.118   5.873  11.392
94431W        W55885  44.761  37.371  13.855
94432W        W55886  35.409   2.435  10.640
94433W        W55887  44.942  20.655  12.944
94434W        W55888  27.186  17.694  13.984
94435W        W55889  15.209  37.484  11.941
94436W        W55890  27.604  10.375  11.022
94437W        W55891  10.852  16.094  13.542
94438W        W55892  16.729   0.340   3.339
94439W        W55893  38.438   1.781   1.435
94440W        W55894  37.077  38.363   1.874
94441W        W55895   7.802  38.497  12.006
94442W        W55896  24.984  24.630   1.360
94443W        W55897   9.684  20.238   3.833
94444W        W55898  42.490  21.754  12.055
94445W        W55899  13.283  30.998   1.837
94446W        W55900  33.551   4.406   0.335
94447W        W55901  42.400  37.365   5.312
94448W        W55902   6.678  35.985  12.394
94449W        W55903  17.700  28.497  13.901
94450W        W55904  30.422  10.383   2.255
94451W        W55905  19.588  26.003   3.820
94452W        W55906  28.097   5.380  11.476
94453W        W55907  20.271  14.140  13.989
94454W        W55908  38.429  18.173   1.354
94455W        W55909   2.338  33.556  11.512
94456W        W55910  32.950  43.343  13.850
94457W        W55911   2.445  29.477  14.304
94458W        W55912  21.605  20.623  14.005
94459W        W55913  26.960  15.202  14.819
94460W        W55914  43.889   8.369  14.429
94461W        W55915   7.357  29.976   0.343
94462W        W55916   9.835   6.334  10.570
94463W        W55917  33.011   6.406  10.543
94464W        W55918  25.535   2.778  12.988
94465W        W55919  23.490  14.630   0.832
94466W        W55920  18.082  40.392  11.873
94467W        W55921  36.569  14.278   5.259
94468W        W55922  32.892  44.361  11.421
94469W        W55923   1.335  22.249   2.844
94470W        W55924  20.179  39.376  13.517
94471W        W55925  21.602   3.741   3.229
94472W        W55926  31.495  10.150  10.438
94473W        W55927  20.576  13.603   4.258
94474W        W55928  19.116   7.177  13.401
94475W        W55929  21.111   8.858   1.314
94476W        W55930  18.557  26.075  13.892
94477W        W55931  19.664   0.355  13.517
94478W        W55932  13.133  37.519  12.510
94479W        W55933  10.830  32.889   1.892
94480W        W55934  38.494  11.212   1.361
94481W        W55935  29.078  33.927  12.075
94482W        W55936  39.446  40.474  12.366
94483W        W55937   5.909  15.773   1.831
94484W        W55938  40.482  17.204  13.960
94485W        W55939   8.322  43.994   4.314
94486W        W55940  15.178   9.834   1.838
94487W        W55941  26.203  11.227  11.978
94488W        W55942  33.504  17.139  14.025
94489W        W55943   1.376  34.432  11.497
94490W        W55944   1.445  15.309  13.418
94491W        W55945  35.406   8.704   3.726
94492W        W55946  21.229  26.013  14.470
94493W        W55947   6.258   8.353   4.776
94494W        W55948   3.833   0.418   1.364
94495W        W55949  35.452   8.349  13.906
94496W        W55950   2.945  23.998   2.350
94497W        W55951   9.712  36.588  11.511
94498W        W55952  27.015   4.388  13.483
94499W        W55953  43.328  22.713   4.335
94500W        W55954  38.359  33.899  11.963
94501W        W55955  43.848  24.127  10.411
94502W        W55956  26.017  19.077  10.408
94503W        W55957   6.227  39.064  13.005
94504W        W55958  23.627  19.555   0.841
94505W        W55959  21.023   4.208   0.902
94506W        W55960   9.303  44.801   3.274
94507W        W55961   9.765  23.161   0.866
94508W        W55962   5.192  41.387   0.880
94509W        W55963  43.428  28.180  11.462
94510W        W55964  20.083  23.033   4.805
94511W        W55965  10.344   7.370  12.548
94512W        W55966  12.266  43.954   1.415
94513W        W55967  43.479  43.008   3.668
94514W        W55968  35.417  39.524  12.431
94515W        W55969  15.799  41.426  13.407
94516W        W55970   0.819  18.714   3.644
94517W        W55971  36.514  42.945   3.372
94518W        W55972  21.607  44.959   0.847
94519W        W55973   6.391  39.464   3.323
94520W        W55974   4.819  37.939   2.883
94521W        W55975  30.503  23.188   0.891
94522W        W55976   7.231  25.507  13.358
94523W        W55977  37.870  40.510   2.667
94524W        W55978  32.395  13.723  14.505
94525W        W55979  18.701  35.391  10.487
94526W        W55980  26.100  18.581   2.373
94527W        W55981   8.822  29.931   1.405
94528W        W55982  18.084  42.332  12.416
94529W        W55983  28.595  41.016   1.757
94530W        W55984   2.924  21.525  12.420
94531W        W55985  35.904  18.788  12.891
94532W        W55986  28.967  20.563   2.260
94533W        W55987  37.535  31.038   1.246
94534W        W55988  36.400   3.800   3.200
94535W        W55989   8.837   5.708   0.271
94536W        W55990  36.994   2.296  11.067
94537W        W55991  34.924  38.830  14.963
94538W        W55992  34.902  32.435   3.175
94539W        W55993  17.681  30.930   4.764
94540W        W55994  39.403   4.866  13.902
94541W        W55995  20.186  31.928  10.608
94542W        W55996  25.601  32.621  14.468
94543W        W55997  31.931  44.928   1.258
94544W        W55998  39.014   2.768  11.862
94545W        W55999   6.813  27.634  11.446
94546W        W56000  40.026  32.526  12.908
94547W        W56001  44.317  34.508  14.421
94548W        W56002  29.556   5.220   1.877
94549W        W56003  11.695   7.905   0.787
94550W        W56004   4.784  15.588  12.998
94551W        W56005  32.074  36.049  13.486
94552W        W56006  35.493  34.472   1.699
94553W        W56007  35.004  40.024   2.797
94554W        W56008  33.585   4.883  12.517
94555W        W56009   5.739  28.087  13.937
94556W        W56010  36.528  21.034   3.785
94557W        W56011  19.051  36.877   4.184
94558W        W56012  16.597  22.502   4.821
94559W        W56013  34.528   9.736  11.601
94560W        W56014  28.147   6.737  11.888
94561W        W56015  29.922  28.439  13.516
94562W        W56016  21.176  32.525  14.361
94563W        W56017  34.962  28.639  10.505
94564W        W56018  40.851  10.725  13.310
94565W        W56019  43.937  16.127   2.252
94566W        W56020  23.192  24.652  13.397
94567W        W56021   7.861  13.758  14.502
94568W        W56022  21.204  35.922   0.351
94569W        W56023  20.717   0.883  14.390
94570W        W56024  31.417  27.641  14.773
94571W        W56025   0.984  13.288  11.114
94572W        W56026  30.530  36.361   1.901
94573W        W56027  35.864  33.517  13.393
94574W        W56028  31.432  41.293   3.171
94575W        W56029  33.932  27.450  11.944
94576W        W56030  32.885  31.117  12.572
94577W        W56031  34.097  36.419   3.850
94578W        W56032  38.861  40.495   9.990
94579W        W56033  40.403  30.055   3.767
94580W        W56034   8.361  35.373  13.823
94581W        W56035   1.459  14.670  13.929
94582W        W56036  25.554   0.813   2.244
94583W        W56037  16.751  26.190   4.265
94584W        W56038  17.788  17.232   1.742
94585W        W56039  28.141  37.519   4.713
94586W        W56040  10.778  26.634   2.246
94587W        W56041   0.827  34.469   1.274
94588W        W56042   3.356  27.468   0.921
94589W        W56043   9.795  39.395  14.932
94590W        W56044   8.685   2.723  14.324
94591W        W56045  37.496   4.263  12.039
94592W        W56046  24.696   5.748  10.075
94593W        W56047  40.984   4.375  12.925
94594W        W56048   2.464  22.104   0.256
94595W        W56049  28.186   6.694   0.481
94596W        W56050   1.949  18.766   2.379
94597W        W56051  12.338   0.875   2.372
94598W        W56052  26.184  31.626  13.310
94599W        W56053  30.080  16.684   2.713
94600W        W56054   6.854  16.673   4.625
94601W        W56055  18.750  43.363   1.348
94602W        W56056  43.354   1.737  14.000
94603W        W56057  33.526   2.291   2.374
94604W        W56058  12.712  19.643  14.283
94605W        W56059  38.988  27.493   0.773
94606W        W56060  22.192  31.120   3.850
94607W        W56061   8.713   0.395  12.497
94608W        W56062   1.780   6.705  11.416
94609W        W56063  15.260   2.358  14.285
94610W        W56064  34.573   8.207   4.204
94611W        W56065   3.920  14.589   2.709
94612W        W56066  37.960  44.892  13.937
94613W        W56067  16.263  33.979  12.534
94614W        W56068  32.034  43.444  10.465
94615W        W56069   0.322  37.035  13.424
94616W        W56070  17.732  38.051   3.712
94617W        W56071  20.201  20.742   2.273
94618W        W56072  40.845  33.551   4.312
94619W        W56073   6.299  43.453   2.406
94620W        W56074  29.547  38.876  11.425
94621W        W56075  32.994   0.453  14.339
94622W        W56076  42.439  26.182   4.740
94623W        W56077  44.895  26.635  14.465
94624W        W56078  40.343  10.638   2.693
94625W        W56079  39.998   5.257  14.488
94626W        W56080  30.936  24.163   0.739
94627W        W56081  13.197  42.403  13.959
94628W        W56082  28.942   8.238  10.627
94629W        W56083  10.175  34.368  11.872
94630W        W56084  18.050  17.212  11.428
94631W        W56085  12.275  13.345   4.217
94632W        W56086  13.282  26.671   5.133
94633W        W56087  28.974  34.017   1.910
94634W        W56088  10.224  31.049   0.295
94635W        W56089  23.985  14.235   2.787
94636W        W56090   1.409  22.028  11.949
94637W        W56091  25.569  13.681   4.674
94638W        W56092  30.491  35.066  13.880
94639W        W56093  19.285  12.824  13.476
94640W        W56094  22.250  35.366  12.519
94641W        W56095  14.272  28.466   1.848
94642W        W56096  32.533  30.986   4.601
94643W        W56097  34.960  39.451   4.277
94644W        W56098  16.730  28.611   0.367
94645W        W56099  25.010  31.027   0.422
94646W        W56100  10.373  15.746   2.235
94647W        W56101   8.330  20.088   2.809
94648W        W56102  24.196  29.046   3.215
94649W        W56103  38.423  28.126  14.844
94650W        W56104  28.505  43.773  12.934
94651W        W56105  21.205  16.718  12.065
94652W        W56106  29.101  15.592  13.469
94653W        W56107  28.977   5.853  14.776
94654W        W56108  23.028  33.953  12.924
94655W        W56109   9.660  43.765   2.192
94656W        W56110  11.762   3.456   3.335
94657W        W56111  20.653   8.376  13.396
94658W        W56112   0.787  39.057   4.732
94659W        W56113  27.543  37.014  10.005
94660W        W56114   7.327  25.571   0.835
94661W        W56115  25.599  16.185   4.329
94662W        W56116  12.199   2.796  10.601
94663W        W56117  30.547  38.491  12.994
94664W        W56118   6.402  20.207   2.746
94665W        W56119  18.706  14.096   3.292
94666W        W56120  43.369  22.551   3.679
94667W        W56121  41.418   7.861  10.946
94668W        W56122  34.511  42.860   4.157
94669W        W56123  32.617  23.601  10.922
94670W        W56124  35.559  26.983  11.505
94671W        W56125  30.436  22.578   3.848
94672W        W56126  12.319  41.945  13.844
94673W        W56127  38.466   6.317   2.208
94674W        W56128  41.468  30.139  12.910
94675W        W56129  12.652  14.108  13.057
94676W        W56130   4.906   1.917  11.081
94677W        W56131   0.840  41.384  10.930
94678W        W56132   5.246  23.070  14.826
94679W        W56133  29.439  37.963  12.414
94680W        W56134  29.613  34.084   1.241
94681W        W56135  14.304  25.536   0.311
94682W        W56136   4.214  12.781  10.953
94683W        W56137  22.186  41.945   3.287
94684W        W56138  19.078  14.135  10.985
94685W        W56139  27.066  41.827   3.376
94686W        W56140   6.692  15.174   3.748
94687W        W56141  35.465  18.251  11.386
94688W        W56142  44.894   2.888  12.094
94689W        W56143  18.271  37.469   5.087
94690W        W56144   4.752  23.020   2.716
94691W        W56145  36.542   7.737  14.012
94692W        W56146   6.873  34.408  14.376
94693W        W56147  32.952  13.118  14.486
94694W        W56148  41.315  24.678  13.385
94695W        W56149  28.552  23.097  12.015
94696W        W56150   5.847  44.862   4.641
94697W        W56151  42.377  33.918  11.383
94698W        W56152  26.660  19.276  14.443
94699W        W56153  22.680  41.436  14.343
94700W        W56154   4.423  41.799   1.247
94701W        W56155  29.963  14.095   3.774
94702W        W56156  40.422   6.768  14.399
94703W        W56157  36.898  40.370  11.906
94704W        W56158  40.823  44.857   1.245
94705W        W56159  16.241  41.480   0.306
94706W        W56160  12.788  25.676  13.350
94707W        W56161  20.735  15.695  14.789
94708W        W56162  10.787  13.756  13.984
94709W        W56163  31.084  13.269   4.744
94710W        W56164  17.256  31.588  12.459
94711W        W56165  16.610   4.834  11.507
94712W        W56166  44.478  39.967   2.235
94713W        W56167   4.819  33.500  12.489
94714W        W56168  28.486  34.402   5.110
94715W        W56169  37.032  27.570   0.278
94716W        W56170  37.905  40.882  13.395
94717W        W56171   5.894  17.792   1.241
94718W        W56172   2.928  38.407  11.000
94719W        W56173  40.496  42.005  10.937
94720W        W56174  36.858  21.644  12.494
94721W        W56175  32.058   7.295   1.704
94722W        W56176  18.631  11.849   3.644
94723W        W56177  33.985  14.198  12.364
94724W        W56178  19.081  35.860   3.634
94725W        W56179  31.066  19.214  11.565
94726W        W56180   7.213   0.400  14.903
94727W        W56181   2.452  25.051   5.120
94728W        W56182  43.411  11.138   1.890
94729W        W56183  21.716  36.442   4.158
94730W        W56184  10.696  17.661  12.864
94731W        W56185  43.794  35.058  14.303
94732W        W56186  38.883  27.008   2.252
94733W        W56187  26.163  19.187  12.474
94734W        W56188  12.154  10.877  10.592
94735W        W56189   9.382  41.504   2.670
94736W        W56190  26.143  38.867   2.810
94737W        W56191  26.019  27.139   3.169
94738W        W56192  32.972  41.341  11.953
94739W        W56193   2.458  30.142   2.204
94740W        W56194  30.499  38.349   0.788
94741W        W56195  15.787  24.049   1.410
94742W        W56196  25.984   7.779  10.435
94743W        W56197  38.569  18.153   2.871
94744W        W56198   5.787   9.803  12.377
94745W        W56199  31.145  31.612   4.684
94746W        W56200   1.788  14.171   2.819
94747W        W56201  41.405  36.004   1.904
94748W        W56202  29.549  18.194  11.423
94749W        W56203  33.991  33.128   1.302
94750W        W56204  12.256  25.036   1.711
94751W        W56205   1.268   0.262  11.929
94752W        W56206   3.718  20.114  10.906
94753W        W56207  29.512  11.843   1.260
94754W        W56208  27.940   7.757   4.310
94755W        W56209  26.179  12.836  12.873
94756W        W56210   2.829  17.287   4.703
94757W        W56211  44.816  24.101  14.473
94758W        W56212  14.702  26.020  12.022
94759W        W56213  21.741  11.750   2.401
94760W        W56214  13.260  27.059  11.604
94761W        W56215  21.141  12.787  12.551
94762W        W56216  20.156  29.054  11.024
94763W        W56217  43.830  43.505  10.559
94764W        W56218   2.750  15.105  12.559
94765W        W56219  11.369  35.561   3.269
94766W        W56220  35.965  35.556   2.293
94767W        W56221  23.088  28.022  14.317
94768W        W56222  14.755  16.192   4.778
94769W        W56223  18.560  10.787   4.770
94770W        W56224   8.176   0.290   4.250
94771W        W56225  38.050   8.891   2.887
94772W        W56226   4.243  14.709   3.750
94773W        W56227  33.521  41.885  13.033
94774W        W56228  17.170  36.027  12.430
94775W        W56229  31.501  26.114  12.399
94776W        W56230  10.163  21.165  11.516
94777W        W56231  24.540  16.224  12.835
94778W        W56232  17.659   5.890  10.480
94779W        W56233  10.796  10.788  14.944
94780W        W56234  34.990   8.787  12.086
94781W        W56235   0.494  19.109  12.075
94782W        W56236  28.466  22.033   1.408
94783W        W56237   0.271   7.319   3.790
94784W        W56238  11.695  31.435  13.322
94785W        W56239  29.508  30.566   9.998
94786W        W56240  26.010  18.093   3.188
94787W        W56241   9.654  31.956   0.371
94788W        W56242   2.282  35.024   1.443
94789W        W56243  44.299  13.348   2.830
94790W        W56244  22.051   6.320  10.913
94791W        W56245  37.450  24.152   1.307
94792W        W56246  24.712   9.163  12.921
94793W        W56247  14.689  38.547  13.806
94794W        W56248  18.742   8.329  11.970
94795W        W56249  34.910  44.994  10.495
94796W        W56250  35.864  31.957  13.310
94797W        W56251  32.100   9.158  12.461
94798W        W56252   6.786  13.653  12.493
94799W        W56253  21.076   2.231  12.824
94800W        W56254  35.397  16.697   2.239
94801W        W56255  29.632  24.055  12.476
94802W        W56256   4.322   3.323  13.790
94803W        W56257  25.689  33.568   2.402
94804W        W56258  29.091   6.196   0.444
94805W        W56259  17.076  10.341  13.027
94806W        W56260  23.571  15.807  10.491
94807W        W56261  13.254  29.141  14.374
94808W        W56262  22.681   3.814  10.585
94809W        W56263  12.802   6.685   3.357
94810W        W56264  36.949  32.033   5.214
94811W        W56265  37.079  25.700   3.730
94812W        W56266  35.852  36.850   0.421
94813W        W56267  30.477  16.311  13.457
94814W        W56268  25.992  25.631  11.597
94815W        W56269  20.731  20.735  12.429
94816W        W56270  19.215  40.828   4.633
94817W        W56271  28.087   5.842   1.781
94818W        W56272  25.612  27.674   3.782
94819W        W56273   6.764  24.587  13.855
94820W        W56274  19.139  32.510  12.486
94821W        W56275  43.449  37.994   3.864
94822W        W56276  36.576  24.091  14.400
94823W        W56277  24.709   8.781  10.405
94824W        W56278  22.599  23.229   1.430
94825W        W56279  14.608  20.131   2.762
94826W        W56280  15.793  41.852  13.382
94827W        W56281  11.838  31.999   3.791
94828W        W56282  33.022  21.241   2.864
94829W        W56283  31.898   2.265  12.918
94830W        W56284  40.305  39.808   3.834
94831W        W56285  20.567  17.623  11.911
94832W        W56286   3.391  22.125  14.911
94833W        W56287  21.204  21.025  11.571
94834W        W56288  37.951  16.086   4.246
94835W        W56289  10.727  14.684  12.947
94836W        W56290  16.692  35.099   0.252
94837W        W56291   4.334   2.447  11.102
94838W        W56292  18.265  11.662   4.782
94839W        W56293   2.412  12.674  10.507
94840W        W56294  12.766  29.542  11.086
94841W        W56295  26.202   2.350   0.351
94842W        W56296  44.899   5.860   2.383
94843W        W56297  39.994  20.702   3.846
94844W        W56298  11.183   9.382  12.058
94845W        W56299  36.056  37.518  13.494
94846W        W56300  33.078  44.794   2.304
94847W        W56301  25.051   6.759  13.339
94848W        W56302  29.649  26.475   3.685
94849W        W56303   5.906  38.883   1.270
94850W        W56304  12.233  31.522   0.826
94851W        W56305  34.411  38.561   3.378
94852W        W56306  19.247  37.956   1.314
94853W        W56307  25.701  20.636   2.692
94854W        W56308  13.736  30.021   3.331
94855W        W56309  34.548  14.648  13.505
94856W        W56310  34.120  42.357  11.032
94857W        W56311  34.948   2.800   1.370
94858W        W56312  10.756  39.813   1.418
94859W        W56313  35.367  29.510  10.633
94860W        W56314  37.065  14.150   4.144
94861W        W56315  35.584  28.528  11.930
94862W        W56316  43.990   7.852  11.435
94863W        W56317   6.221   3.394   3.656
94864W        W56318  19.137   8.350  12.029
94865W        W56319  17.083  38.034   2.759
94866W        W56320   5.886  21.620  12.854
94867W        W56321  20.607  23.114  12.429
94868W        W56322   7.800  23.200  10.492
94869W        W56323  33.875   7.697  11.049
94870W        W56324  11.652   6.780  14.505
94871W        W56325   8.255  41.301   2.189
94872W        W56326   5.247  30.505   3.253
94873W        W56327  38.510  12.172  12.388
94874W        W56328  33.509  36.990   4.207
94875W        W56329  14.832   6.421  13.481
94876W        W56330  25.053  42.506  10.591
94877W        W56331  37.936  30.018  14.510
94878W        W56332   1.455  42.469   4.173
94879W        W56333   0.836  44.825  13.542
94880W        W56334  26.957   5.382   2.301
94881W        W56335  42.777  10.315   2.412
94882W        W56336  11.138  32.889   1.218
94883W        W56337  22.618  37.565   5.289
94884W        W56338  21.072   9.330  14.450
94885W        W56339  25.126  31.904   4.184
94886W        W56340  32.606   4.442  10.438
94887W        W56341   4.866  14.824   1.909
94888W        W56342  15.204   3.921   2.791
94889W        W56343  20.523  24.158  11.862
94890W        W56344   9.303  12.741  13.038
94891W        W56345  37.018   6.911   4.711
94892W        W56346  19.054  33.893  14.939
94893W        W56347  10.835  19.583  12.366
94894W        W56348  26.631  22.141  14.006
94895W        W56349  30.545  36.368  13.467
94896W        W56350  12.734   6.795   2.412
94897W        W56351  27.509  28.004   1.764
94898W        W56352  31.562  39.526  13.929
94899W        W56353   3.909  41.993  14.275
94900W        W56354  29.492   8.396   1.448
94901W        W56355  32.427  41.800  12.462
94902W        W56356  22.135   0.796   4.653
94903W        W56357  30.509  17.794  13.862
94904W        W56358  22.532  36.988   2.221
94905W        W56359  26.648   9.253  14.459
94906W        W56360  42.328   5.801  14.862
94907W        W56361  25.666  38.949  13.477
94908W        W56362  30.027  14.695  10.451
94909W        W56363  40.495   9.272  13.845
94910W        W56364  33.501  10.757  12.999
94911W        W56365  20.079  39.544  14.820
94912W        W56366  17.574  35.362  11.123
94913W        W56367  24.506  18.671   0.415
94914W        W56368  23.579   2.964   0.431
94915W        W56369  18.555  41.403  13.433
94916W        W56370  16.567  24.153  11.471
94917W        W56371  31.447   4.922  12.357
94918W        W56372  26.506  17.591  13.408
94919W        W56373  21.072   6.297   1.232
94920W        W56374  22.739  25.080  13.477
94921W        W56375   0.317  11.820   2.330
94922W        W56376  18.748  21.683  14.885
94923W        W56377   1.804  10.753   1.368
94924W        W56378  25.563  22.200   2.801
94925W        W56379  33.960  16.299  11.100
94926W        W56380  11.196  33.881   4.306
94927W        W56381  13.684  30.575  14.933
94928W        W56382  43.822  34.536  13.348
94929W        W56383  27.164   5.765  11.993
94930W        W56384  12.240  26.648   3.676
94931W        W56385  35.008   0.777   3.732
94932W        W56386  16.163  11.725  12.067
94933W        W56387  40.035   9.291  14.808
94934W        W56388  25.569  22.570   1.852
94935W        W56389  42.008  21.616  11.499
94936W        W56390   2.770  34.589  10.892
94937W        W56391   7.319  44.397  12.990
94938W        W56392  27.555   4.230  11.074
94939W        W56393  25.042  33.000  14.928
94940W        W56394  13.839  41.843   4.181
94941W        W56395  10.339  30.022   0.813
94942W        W56396  35.912  42.315  14.346
94943W        W56397  22.036  15.753   3.639
94944W        W56398  20.550  30.632   3.795
94945W        W56399  10.314   6.348  12.430
94946W        W56400  31.422  11.276   0.910
94947W        W56401  18.186  16.276  12.075
94948W        W56402  26.105  39.838  11.078
94949W        W56403  24.667  11.819   2.331
94950W        W56404  36.507  27.002   4.772
94951W        W56405  17.673  17.625  10.538
94952W        W56406  34.522  27.482  12.881
94953W        W56407  27.008  31.594   5.700
94954W        W56408  31.916  43.399   3.701
94955W        W56409  12.683   1.811   1.229
94956W        W56410  43.412  28.003   4.681
94957W        W56411  25.088   7.267  12.568
94958W        W56412  16.115  14.830   3.245
94959W        W56413  30.099  21.061   1.911
94960W        W56414   8.773  17.697   4.179
94961W        W56415  42.281   2.739  10.408
94962W        W56416   3.919  10.246  12.970
94963W        W56417  22.648  24.570   4.334
94964W        W56418   0.473  37.005  10.906
94965W        W56419  21.687  33.907  13.933
94966W        W56420  35.070   2.326  13.540
94967W        W56421  41.334  30.570   4.804
94968W        W56422   4.872  42.955  10.104
94969W        W56423  26.136  27.588  13.026
94970W        W56424   9.802  20.612  10.917
94971W        W56425  44.311  33.046   1.760
94972W        W56426  27.649  38.484   2.408
94973W        W56427  18.225   2.826   1.451
94974W        W56428   4.431  13.834  10.599
94975W        W56429  25.172  37.848   2.180
94976W        W56430  42.319   1.279  13.798
94977W        W56431  41.828  37.460  14.317
94978W        W56432  37.413  36.529  12.390
94979W        W56433  23.053   4.858  13.825
94980W        W56434   2.360  39.850   2.690
94981W        W56435   1.847   6.351   5.152
94982W        W56436  10.182  44.995   0.754
94983W        W56437   3.791  28.456   1.240
94984W        W56438  32.918  15.795   1.409
94985W        W56439   5.308  41.365   3.178
94986W        W56440  42.484  18.617   3.168
94987W        W56441  21.733   6.790   3.774
94988W        W56442  20.672  30.918   2.412
94989W        W56443  37.500  44.401   9.996
94990W        W56444   7.365  23.196   0.798
94991W        W56445   0.854  24.092  12.890
94992W        W56446  30.414  14.613  11.542
94993W        W56447  12.822  41.436   3.656
94994W        W56448  21.223   7.849  11.610
94995W        W56449  44.928  26.588  14.031
94996W        W56450  24.623  13.615  10.432
94997W        W56451  18.097  15.280   0.408
94998W        W56452   5.194  31.439   3.353
94999W        W56453   1.344  13.139   2.231
95000W        W56454  20.216  11.155  11.127
95001W        W56455   6.265  40.531  11.442
95002W        W56456  15.659  27.652   0.349
95003W        W56457  43.898  27.466  11.912
95004W        W56458  29.437  29.567  13.907
95005W        W56459  37.355   0.774  12.362
95006W        W56460  27.529  38.841  13.481
95007W        W56461  21.020  21.202   4.130
95008W        W56462  31.611  36.915  11.895
95009W        W56463  20.616  37.999   1.694
95010W        W56464  25.594  28.448  10.640
95011W        W56465   3.802  29.649   1.393
95012W        W56466  21.631  25.541  11.040
95013W        W56467  39.462  12.770  12.575
95014W        W56468  36.575  13.607   0.382
95015W        W56469  26.088   9.195   4.335
95016W        W56470  44.467   7.885   3.307
95017W        W56471  16.174  32.391   3.828
95018W        W56472   3.456  40.350   0.413
95019W        W56473  12.131  26.039  13.907
95020W        W56474  17.160   7.347   2.714
95021W        W56475   8.295  36.058  14.440
95022W        W56476  20.184  43.937  14.773
95023W        W56477  32.548  18.247  14.992
95024W        W56478  16.210  38.042  12.414
95025W        W56479  37.423  33.987   4.343
95026W        W56480  11.340  42.378  11.394
95027W        W56481   0.452  24.541   3.666
95028W        W56482  20.168   3.779  11.855
95029W        W56483  30.079  20.173  10.639
95030W        W56484  11.361  29.605  11.078
95031W        W56485  22.677  15.800   5.217
95032W        W56486  15.778   6.919   1.266
95033W        W56487   0.877  35.477   4.653
95034W        W56488   9.672  27.633  12.886
95035W        W56489  16.204   5.279  14.914
95036W        W56490   5.921   2.353   2.714
95037W        W56491  39.316  19.159  10.629
95038W        W56492  28.642  21.246  12.377
95039W        W56493  27.949  24.164   1.906
95040W        W56494   1.766  16.776   2.869
95041W        W56495  44.273   8.273  12.868
95042W        W56496   9.824  24.694  10.416
95043W        W56497   2.864  40.998  14.487
95044W        W56498  12.757  20.040  12.430
95045W        W56499  44.273  29.989  14.456
95046W        W56500  28.031  44.304   0.289
95047W        W56501   6.339  14.684  12.403
95048W        W56502  14.610  15.156  12.536
95049W        W56503  10.845   9.825   3.784
95050W        W56504  28.055  19.751  12.345
95051W        W56505  43.007  22.742   2.308
95052W        W56506  21.684  13.759  13.343
95053W        W56507  43.356  11.693   1.225
95054W        W56508  44.313  18.577  11.898
95055W        W56509  17.244  15.590   2.179
95056W        W56510   4.273  11.652   3.197
95057W        W56511   6.266  43.457  14.960
95058W        W56512   2.293  42.313  13.506
95059W        W56513  19.739  36.548  13.791
95060W        W56514  28.454  20.622   2.779
95061W        W56515  21.066   9.792  11.524
95062W        W56516   5.715  35.417   2.801
95063W        W56517  31.987  38.567  10.948
95064W        W56518  23.189  24.051  11.054
95065W        W56519   3.280  34.948   3.345
95066W        W56520  20.590  11.665  12.436
95067W        W56521  24.985   8.264  11.058
95068W        W56522  32.517  32.587  10.903
95069W        W56523  31.618   9.374  11.398
95070W        W56524  18.143  24.563  10.495
95071W        W56525  24.029  36.566  14.393
95072W        W56526  30.586   7.193  13.449
95073W        W56527  22.695  44.777   2.411
95074W        W56528  10.786  27.965   4.310
95075W        W56529   9.245  11.358  12.920
95076W        W56530  29.937   4.818  10.920
95077W        W56531  33.534  41.332  12.032
95078W        W56532  15.135   7.230  14.977
95079W        W56533  37.431  39.503   0.887
95080W        W56534  38.956   0.796  14.423
95081W        W56535   0.858   2.391  13.821
95082W        W56536   4.738  29.540  11.117
95083W        W56537  15.149  41.474  12.577
95084W        W56538  24.661  10.146  14.426
95085W        W56539  40.003  28.141   2.854
95086W        W56540  17.624  20.689   4.327
95087W        W56541  18.214   1.837  14.872
95088W        W56542  38.900  32.575   1.416
95089W        W56543  41.991  17.765  13.381
95090W        W56544  32.998  15.728   0.838
95091W        W56545  37.544  38.931  10.143
95092W        W56546   1.754  19.597  12.086
95093W        W56547  10.196  30.520  10.974
95094W        W56548  18.174  27.674  14.277
95095W        W56549   3.877   3.940   0.913
95096W        W56550   8.805  15.792   1.930
95097W        W56551  41.797  35.494  12.952
95098W        W56552  44.898  15.716   1.374
95099W        W56553  36.429   8.234   4.310
95100W        W56554  21.512  26.163   1.841
95101W        W56555  11.819   7.374  11.047
95102W        W56556  38.901  26.976   2.835
95103W        W56557   4.417   8.677   4.742
95104W        W56558  35.055  16.686  10.910
95105W        W56559  30.074  22.526   0.900
95106W        W56560  11.364  43.773   3.742
95107W        W56561  32.634   8.842   2.191
95108W        W56562  43.326  14.817   2.746
95109W        W56563  25.712   8.678  11.462
95110W        W56564  31.480   0.879   2.320
95111W        W56565   8.829  25.112  12.508
95112W        W56566  31.913   0.825  12.044
95113W        W56567  30.652  42.033  14.946
95114W        W56568  15.126  11.129  12.435
95115W        W56569   2.259   7.303  12.879
95116W        W56570  36.904   2.291   2.357
95117W        W56571   1.783  17.256   0.948
95118W        W56572  39.957   3.748   0.478
95119W        W56573  21.227   3.803  10.620
95120W        W56574  21.222   8.741  13.472
95121W        W56575  14.160  21.640   3.222
95122W        W56576  14.135   6.289   3.337
95123W        W56577  36.467  22.543  10.116
95124W        W56578  13.749  15.708  12.426
95125W        W56579  39.922  24.616   1.783
95126W        W56580  27.113  32.909  13.408
95127W        W56581  27.187  42.988   2.893
95128W        W56582  34.496  17.790  10.582
95129W        W56583   1.918  35.950  13.499
95130W        W56584  39.457  37.018   4.705
95131W        W56585  21.707  24.618   2.195
95132W        W56586   6.416  22.505   4.158
95133W        W56587  30.127  20.758  12.952
95134W        W56588  16.099  30.632   4.118
95135W        W56589  18.727  37.518   4.792
95136W        W56590  28.057  37.953  14.783
95137W        W56591  32.077  34.963  10.496
95138W        W56592  12.801  30.433  14.457
95139W        W56593  30.520   0.956   1.286
95140W        W56594  39.355   8.754  13.893
95141W        W56595  44.351  35.964  14.513
95142W        W56596  10.338  22.514   3.643
95143W        W56597  40.482   7.315  10.940
95144W        W56598  23.218  22.663   4.818
95145W        W56599  23.058  38.438   1.376
95146W        W56600   4.901   5.697   1.839
95147W        W56601  40.840  21.730   3.762
95148W        W56602  10.370  30.020  11.491
95149W        W56603   7.361  15.589   0.441
95150W        W56604  41.857  44.417   5.231
95151W        W56605   2.370   8.760  14.510
95152W        W56606  33.086  36.526   3.773
95153W        W56607  20.765  40.835  13.895
95154W        W56608  22.670  33.907  11.424
95155W        W56609  33.004   9.848  10.127
95156W        W56610  29.117  18.292  12.868
95157W        W56611  43.019   5.383   4.622
95158W        W56612  19.245  37.524   3.382
95159W        W56613  16.668   3.442   3.858
95160W        W56614  10.352   2.472   5.283
95161W        W56615  11.716   0.820  11.528
95162W        W56616  42.390  38.065  13.470
95163W        W56617  34.502  19.608   2.305
95164W        W56618  29.993  10.241   0.881
95165W        W56619  40.807   7.354   1.903
95166W        W56620  22.535   1.752   1.243
95167W        W56621  32.968   3.398   1.802
95168W        W56622  18.598   5.811   4.346
95169W        W56623   4.395  11.127  14.814
95170W        W56624   4.718  39.826   3.669
95171W        W56625  29.522   5.385  10.572
95172W        W56626   8.187  17.765  11.541
95173W        W56627  13.791  32.553  13.363
95174W        W56628  20.223   8.800  10.146
95175W        W56629  19.724  15.674  12.021
95176W        W56630  23.057   7.754  14.847
95177W        W56631  43.382  43.918  14.497
95178W        W56632  24.103   1.317  10.436
95179W        W56633  14.759  23.150  12.059
95180W        W56634  23.233  36.915   4.241
95181W        W56635  28.628  25.042   3.635
95182W        W56636   7.281  38.956  13.974
95183W        W56637  14.247   8.396   4.660
95184W        W56638   7.198  18.273  13.332
95185W        W56639  39.337  24.571  10.415
95186W        W56640   0.361  17.130  10.507
95187W        W56641   0.802  15.279  14.839
95188W        W56642  16.215  23.686   1.290
95189W        W56643   0.341  13.328   4.820
95190W        W56644  39.985  27.958  12.048
95191W        W56645   5.199   8.341  11.995
95192W        W56646  38.402  42.304   4.248
95193W        W56647  28.957  36.375  11.917
95194W        W56648  38.032  22.249  12.410
95195W        W56649   4.282  22.137  12.035
95196W        W56650  39.003  43.954  10.533
95197W        W56651   2.361  26.467   1.801
95198W        W56652   6.317  16.579   2.225
95199W        W56653  38.338  22.673   2.242
95200W        W56654  15.214  19.548   0.382
95201W        W56655  17.763   5.803   2.884
95202W        W56656  33.508  18.579   3.166
95203W        W56657  11.278  18.066   2.890
95204W        W56658  28.436  11.814  14.427
95205W        W56659  25.004  17.127  13.886
95206W        W56660   5.884  41.870   2.681
95207W        W56661   6.228  28.978   9.998
95208W        W56662   8.197  40.518  10.896
95209W        W56663  16.138  17.151  13.051
95210W        W56664  32.518   6.908  13.407
95211W        W56665  40.970  12.118   3.197
95212W        W56666  28.157  12.778  11.072
95213W        W56667   8.759  31.052  12.342
95214W        W56668  30.157  33.519   5.802
95215W        W56669   5.247  11.649  14.766
95216W        W56670   7.236   5.193  13.977
95217W        W56671  34.497   7.416  11.024
95218W        W56672   8.898  17.163   1.871
95219W        W56673  15.718  10.728   3.178
95220W        W56674  34.916  37.840  10.421
95221W        W56675  29.954  20.626   1.860
95222W        W56676   9.675  37.056   0.922
95223W        W56677  18.782   8.883   2.875
95224W        W56678   0.931  39.044  14.397
95225W        W56679  39.337  41.918   1.810
95226W        W56680   2.332  36.072   4.736
95227W        W56681  36.869   5.324   4.317
95228W        W56682  24.711  36.954  10.540
95229W        W56683  20.582   2.807   2.728
95230W        W56684   9.187  25.682  13.421
95231W        W56685  17.606  13.269  10.497
95232W        W56686  39.450   1.260   4.205
95233W        W56687  25.578  11.136   0.731
95234W        W56688  37.005  13.296   0.918
95235W        W56689   1.420  28.154   3.342
95236W        W56690  23.157   3.386   3.188
95237W        W56691   0.299  35.357   0.789
95238W        W56692  19.667  34.522   3.784
95239W        W56693  39.998  15.811   1.807
95240W        W56694  21.192  13.748  14.867
95241W        W56695  36.350  39.873  12.946
95242W        W56696  23.601   8.835  10.890
95243W        W56697  21.068   1.935   0.858
95244W        W56698  25.048   9.831  13.480
95245W        W56699  22.166  31.049  14.824
95246W        W56700  14.169   6.382  11.908
95247W        W56701   5.197  15.822  10.115
95248W        W56702  23.604  35.855  12.367
95249W        W56703  35.481  43.862  14.467
95250W        W56704  20.045  16.175  14.923
95251W        W56705  15.329  39.529  12.016
95252W        W56706  32.391   6.338   3.222
95253W        W56707  32.046   2.731   3.778
95254W        W56708  26.645  16.773   4.804
95255W        W56709   4.869  11.186   2.308
95256W        W56710  31.623  27.503   1.332
95257W        W56711  37.837  36.477   1.716
95258W        W56712  32.409   8.730  11.505
95259W        W56713   1.459  35.094  10.551
95260W        W56714  26.659   4.760  13.904
95261W        W56715  35.553  38.861  14.020
95262W        W56716   3.391  11.670   1.340
95263W        W56717   2.731  25.601   2.663
95264W        W56718  16.121  39.038   3.248
95265W        W56719  39.400  28.157   1.822
95266W        W56720  39.890   0.335  10.634
95267W        W56721  44.504  25.054  14.397
95268W        W56722  37.863   3.253  13.852
95269W        W56723  16.612  41.401  14.309
95270W        W56724  36.947  39.504   3.678
95271W        W56725  37.503  37.015   1.327
95272W        W56726  22.183  22.619   0.735
95273W        W56727  41.392  20.127   1.931
95274W        W56728  39.836  30.616  12.923
95275W        W56729  23.229  44.299   3.707
95276W        W56730  30.993  14.735  13.391
95277W        W56731  39.478  27.564  13.360
95278W        W56732  18.185  43.858   2.811
95279W        W56733  27.610  36.454  11.003
95280W        W56734  12.811   9.710   0.271
95281W        W56735  23.069  43.340  13.387
95282W        W56736   4.786   0.819  13.964
95283W        W56737  16.088   7.768  12.848
95284W        W56738   5.816  35.944  12.097
95285W        W56739  34.402  17.573  14.466
95286W        W56740  38.057   0.310  13.064
95287W        W56741  44.916  36.998  13.847
95288W        W56742  22.243   1.881  11.536
95289W        W56743  10.632  24.217  10.918
95290W        W56744  13.122   2.787   4.197
95291W        W56745  21.223  15.315   1.867
95292W        W56746   1.243   6.692   1.277
95293W        W56747   1.904  10.272   0.946
95294W        W56748   8.837  34.011   0.911
95295W        W56749   5.892  32.633  12.449
95296W        W56750  18.578   6.696   3.715
95297W        W56751  14.826  44.343  11.579
95298W        W56752  24.993  22.541   5.198
95299W        W56753   5.833  36.079   1.818
95300W        W56754   7.692  37.850   4.723
95301W        W56755  27.526  25.121  14.358
95302W        W56756  24.492  11.706  13.488
95303W        W56757  33.040  37.353   1.785
95304W        W56758  36.480  42.437  10.984
95305W        W56759  10.303  34.908  12.967
95306W        W56760  31.131  37.903  11.870
95307W        W56761  43.795   4.833  10.006
95308W        W56762  36.999  34.033  10.967
95309W        W56763   8.896  19.283   1.807
95310W        W56764  17.780  28.581  14.901
95311W        W56765   6.396  40.999  11.434
95312W        W56766   6.849  25.127   2.877
95313W        W56767   3.216  32.479   4.768
95314W        W56768  24.057  10.827   2.738
95315W        W56769  33.070  28.100   2.394
95316W        W56770   6.194  44.928  14.971
95317W        W56771  23.191  41.912   0.912
95318W        W56772  43.295  22.724   2.791
95319W        W56773   2.441   1.795  12.055
95320W        W56774  44.440  34.550   4.622
95321W        W56775  27.454   2.279  13.916
95322W        W56776  29.095   8.318   4.765
95323W        W56777  17.101  36.554   4.636
95324W        W56778  14.612  29.659  11.007
95325W        W56779  24.566  36.854   3.299
95326W        W56780  15.596   5.261   2.891
95327W        W56781  37.501  14.151   3.767
95328W        W56782  30.592  26.046   0.363
95329W        W56783  19.765  44.334  14.843
95330W        W56784  17.220  38.522  12.434
95331W        W56785  31.920  40.903   1.814
95332W        W56786  26.606   0.357   3.674
95333W        W56787  41.961  42.344   4.231
95334W        W56788   4.707   7.291   4.779
95335W        W56789  24.537  36.381   1.913
95336W        W56790  18.177   4.368  14.778
95337W        W56791   1.824  26.621  11.427
95338W        W56792  10.832   4.877   1.856
95339W        W56793  32.944  15.265  14.473
95340W        W56794  16.264  35.863  10.964
95341W        W56795  33.620  43.418  14.853
95342W        W56796  17.604  28.640  12.992
95343W        W56797   4.711  10.689   0.829
95344W        W56798  28.475  31.563   3.202
95345W        W56799  23.578   1.883  12.859
95346W        W56800   6.725  43.957   2.745
95347W        W56801  20.585  16.670  11.060
95348W        W56802  37.904  40.985   0.755
95349W        W56803  28.576   5.257   4.746
95350W        W56804   7.733   4.923   3.740
95351W        W56805  44.955  13.769  14.903
95352W        W56806   7.702   4.360   0.729
95353W        W56807  17.716   5.219  10.940
95354W        W56808  41.905  15.327  12.032
95355W        W56809  27.528  40.455  11.118
95356W        W56810  33.621  16.085  12.904
95357W        W56811  32.604  13.138   4.198
95358W        W56812   5.811  37.971  10.917
95359W        W56813  32.019  23.538  13.532
95360W        W56814  12.216  37.392  10.022
95361W        W56815  13.789   3.750  14.944
95362W        W56816  10.812   0.909  14.992
95363W        W56817   6.277   7.377  14.030
95364W        W56818  39.397  37.957  11.480
95365W        W56819   2.831  21.641   2.232
95366W        W56820  25.702  39.848  12.358
95367W        W56821  42.799  30.138  12.872
95368W        W56822  16.230   5.733   2.204
95369W        W56823   3.812  21.562   2.313
95370W        W56824  27.196  42.832  14.433
95371W        W56825  40.419   8.270  13.865
95372W        W56826   4.283  39.354  14.389
95373W        W56827  22.224   6.880   4.342
95374W        W56828  38.467  33.965  11.383
95375W        W56829  17.634  35.378   1.714
95376W        W56830  27.571   9.803   4.116
95377W        W56831  43.301  34.554   1.899
95378W        W56832  42.385  29.136   3.270
95379W        W56833  34.063  20.766   2.305
95380W        W56834  44.500  21.539  10.567
95381W        W56835   5.297  26.522  10.414
95382W        W56836   4.837  30.991  14.283
95383W        W56837   1.940  15.678  13.008
95384W        W56838  22.046   3.276  11.568
95385W        W56839  17.630  19.601   1.890
95386W        W56840  10.217  31.009   4.763
95387W        W56841  34.012  23.241   1.338
95388W        W56842   5.863  41.005  14.815
95389W        W56843  20.626  27.606   3.323
95390W        W56844  39.946  44.399   1.775
95391W        W56845   2.882   6.764  13.044
95392W        W56846   6.222   8.722  11.376
95393W        W56847   9.272  24.191  11.012
95394W        W56848  20.088  31.146   3.699
95395W        W56849  20.185  12.146   3.734
95396W        W56850  42.870  12.784  10.506
95397W        W56851  27.597   8.243  10.552
95398W        W56852  26.586  30.608  13.994
95399W        W56853  35.052   4.906   3.224
95400W        W56854  32.107   0.814   2.741
95401W        W56855  31.960   1.257  12.529
95402W        W56856   9.357   6.899  10.597
95403W        W56857  20.229   5.298   1.380
95404W        W56858   1.864  26.541   2.384
95405W        W56859  26.508  37.897  12.072
95406W        W56860  35.897  34.558  12.441
95407W        W56861   4.263   3.945   4.645
95408W        W56862  23.087   3.420  13.987
95409W        W56863  32.498  39.449  10.510
95410W        W56864  25.500  29.081   2.780
95411W        W56865   6.858  36.962   2.294
95412W        W56866  32.404  35.492   2.867
95413W        W56867   4.425  37.936  14.941
95414W        W56868  22.646  22.502  11.086
95415W        W56869  12.211  36.554   1.919
95416W        W56870  23.112  38.039   1.261
95417W        W56871  23.498   7.227   0.779
95418W        W56872   0.830  24.592  10.438
95419W        W56873  33.618  10.816  12.416
95420W        W56874  31.018  32.014   0.782
95421W        W56875  37.031  16.187  14.959
95422W        W56876  15.244  29.103   1.441
95423W        W56877  18.187  18.778  10.568
95424W        W56878  15.234  33.572  13.356
95425W        W56879  40.954  16.121  13.385
95426W        W56880  10.313  13.630   2.231
95427W        W56881  31.137  12.768  13.517
95428W        W56882  20.051  17.167   4.733
95429W        W56883  44.984   6.404  13.490
95430W        W56884  28.496  36.492  13.955
95431W        W56885  21.699  41.991   0.266
95432W        W56886  26.157  10.829  11.011
95433W        W56887  43.777  21.697   2.766
95434W        W56888  37.055  13.771  13.530
95435W        W56889  21.044  35.573   4.333
95436W        W56890  42.917  12.304   1.258
95437W        W56891  24.643  24.041  10.554
95438W        W56892  22.664  41.350   4.780
95439W        W56893   1.406  35.098   4.598
95440W        W56894  28.152  17.131   3.352
95441W        W56895  27.972  21.706   0.392
95442W        W56896  41.473  16.737  12.407
95443W        W56897  20.625  20.757  11.974
95444W        W56898  39.939  35.479   2.732
95445W        W56899  42.837  31.954  13.404
95446W        W56900  30.560  17.083  13.958
95447W        W56901  35.495  15.105  13.336
95448W        W56902  29.953  39.363   0.803
95449W        W56903  33.071  17.571  11.098
95450W        W56904  33.558   7.704   3.716
95451W        W56905  33.443  25.617   2.223
95452W        W56906  29.071  30.546  12.370
95453W        W56907  35.515  27.987   3.225
95454W        W56908   2.332  31.918   0.271
95455W        W56909   4.318  16.611   2.853
95456W        W56910  37.852  16.267   2.777
95457W        W56911  14.606  39.902  11.095
95458W        W56912  37.020   5.310  11.440
95459W        W56913   4.335  30.113   3.252
95460W        W56914  18.220  36.362   3.768
95461W        W56915  21.626  42.867  13.035
95462W        W56916  40.494   9.367  11.575
95463W        W56917   0.269  15.807   2.678
95464W        W56918  14.266  35.550  14.894
95465W        W56919  33.113  37.975  11.940
95466W        W56920  36.853   6.224  11.996
95467W        W56921  32.631  17.127   1.386
95468W        W56922  16.607  34.502  13.421
95469W        W56923  21.220  32.464  10.932
95470W        W56924   8.215  29.581  11.399
95471W        W56925   7.766  12.700   2.378
95472W        W56926  23.635  35.603   1.848
95473W        W56927  27.553  14.295   1.769
95474W        W56928   4.834  31.111   5.177
95475W        W56929  38.484  12.352  13.899
95476W        W56930   1.806  27.557  10.627
95477W        W56931  16.073  21.032   3.316
95478W        W56932  43.428  17.216   3.181
95479W        W56933  10.274  20.086   2.840
95480W        W56934  28.085  14.300  13.001
95481W        W56935  10.381  17.073  11.933
95482W        W56936  35.390  40.892   0.873
95483W        W56937  37.573  18.773  11.580
95484W        W56938  38.969  20.117  11.117
95485W        W56939   7.287  14.717   4.168
95486W        W56940  20.653  42.304  12.568
95487W        W56941  25.131  26.652  12.914
95488W        W56942  23.610  26.501  10.911
95489W        W56943   6.197  32.425  14.935
95490W        W56944   9.274  44.967   1.699
95491W        W56945  21.075   0.310  13.528
95492W        W56946   9.675  31.493  14.324
95493W        W56947  35.405  24.608   3.361
95494W        W56948  25.484  39.556  12.561
95495W        W56949  33.093  33.036   2.356
95496W        W56950   4.757   2.280   5.141
95497W        W56951   0.303  25.549  12.908
95498W        W56952  36.549  41.966  12.943
95499W        W56953  10.733  38.417   0.926
95500W        W56954  12.647  24.551   4.640
95501W        W56955  29.173  10.867  13.844
95502W        W56956  17.171   3.763  11.011
95503W        W56957  36.443   3.775  12.896
95504W        W56958  41.369  36.353   1.904
95505W        W56959  12.777  35.893   2.203
95506W        W56960  23.102  18.068   3.221
95507W        W56961  17.556  16.739  13.979
95508W        W56962  22.153  20.091   2.291
95509W        W56963  37.354  24.497  13.845
95510W        W56964  25.664  32.474   1.732
95511W        W56965   0.896   1.835  14.953
95512W        W56966  43.867  37.870  14.296
95513W        W56967  30.068  22.026   1.907
95514W        W56968  26.150  20.070   4.798
95515W        W56969  28.957  35.503  14.452
95516W        W56970  28.947  35.563  13.056
95517W        W56971  10.808  30.487  10.550
95518W        W56972  21.119  11.629   0.798
95519W        W56973   0.420   7.237   4.646
95520W        W56974   3.932  32.063  10.422
95521W        W56975  35.951   8.218  13.937
95522W        W56976  16.278  22.121  13.014
95523W        W56977  30.578  26.139  11.377
95524W        W56978  13.705   7.861   2.338
95525W        W56979  35.358  22.723  13.023
95526W        W56980  24.488  24.600   1.757
95527W        W56981   1.343  25.099  11.040
95528W        W56982  35.091  11.717  13.482
95529W        W56983   8.370  11.184   2.684
95530W        W56984   2.342  14.292   2.317
95531W        W56985  18.057   1.379  13.968
95532W        W56986  17.172  19.280  14.821
95533W        W56987  32.636   8.246   4.291
95534W        W56988  17.121  40.799   1.926
95535W        W56989  36.001  12.351  13.895
95536W        W56990  33.519  24.193   2.899
95537W        W56991  38.847  10.265   3.363
95538W        W56992  20.054  30.025  10.449
95539W        W56993  33.010   0.324  11.386
95540W        W56994  15.684  17.122  11.993
95541W        W56995   3.939  29.462  10.975
95542W        W56996  32.930  36.413   1.769
95543W        W56997  43.330  14.271   5.218
95544W        W56998  30.083  35.037  13.478
95545W        W56999  28.522  20.547   4.758
95546W        W57000  19.112  23.604   2.359
95547W        W57001  37.061  42.944   3.306
95548W        W57002   8.393  11.859  12.937
95549W        W57003  26.527  20.592   3.338
95550W        W57004  25.511  12.258   3.736
95551W        W57005  11.735  34.034  14.307
95552W        W57006  19.071  12.613   5.236
95553W        W57007  32.607   5.738  13.481
95554W        W57008  43.454   6.307   4.623
95555W        W57009  29.066  28.583   2.282
95556W        W57010  23.667  14.759   4.328
95557W        W57011  24.179  15.319   3.863
95558W        W57012   8.373  41.431  12.896
95559W        W57013  32.104  12.811   2.401
95560W        W57014  23.502  33.911   3.161
95561W        W57015  18.176  21.069   3.208
95562W        W57016  17.665  28.023  12.425
95563W        W57017   3.812   0.888  10.064
95564W        W57018  15.087  41.302  10.888
95565W        W57019  13.637  13.127  14.894
95566W        W57020  13.210  19.707   9.960
95567W        W57021   1.865  13.721  13.999
95568W        W57022  35.026  25.657  11.995
95569W        W57023  23.036  14.604  10.588
95570W        W57024  24.497  14.251  14.945
95571W        W57025   1.827  27.024  14.465
95572W        W57026   6.318  35.969   5.132
95573W        W57027   7.184  38.873  11.555
95574W        W57028  18.661  42.915  13.918
95575W        W57029  18.742  27.594  13.974
95576W        W57030  12.355   9.159  14.836
95577W        W57031   5.247   9.768  12.466
95578W        W57032  14.796   4.245  12.904
95579W        W57033  25.100  33.393   4.284
95580W        W57034  11.230   0.426  10.935
95581W        W57035  44.771   6.331   2.344
95582W        W57036  44.903   9.884  11.075
95583W        W57037  34.471   1.337  13.908
95584W        W57038  10.287  29.116   1.289
95585W        W57039   9.280  17.778   2.824
95586W        W57040  35.070   0.427   4.175
95587W        W57041  26.595  32.004   4.638
95588W        W57042   5.914  18.788   4.696
95589W        W57043  33.448  31.993  13.390
95590W        W57044  12.190   8.389  11.909
95591W        W57045  44.350  29.085   4.736
95592W        W57046  10.662  17.748  12.345
95593W        W57047  39.873  41.976   1.336
95594W        W57048  25.675   6.362   2.727
95595W        W57049  37.437  25.142  14.008
95596W        W57050  42.301   4.779   4.602
95597W        W57051   3.427  34.449  11.993
95598W        W57052  21.047  30.428  13.312
95599W        W57053  36.557  18.213   1.890
95600W        W57054   4.407  20.675   3.807
95601W        W57055  37.472   2.362   1.218
95602W        W57056  24.026   3.269  14.012
95603W        W57057  43.991  27.023   0.796
95604W        W57058  35.390  24.625   4.825
95605W        W57059  17.168  17.095  10.406
95606W        W57060   2.246  43.504   3.688
95607W        W57061  29.656  26.166   3.853
95608W        W57062  34.383   4.766   2.212
95609W        W57063   1.830  41.986  12.482
95610W        W57064  34.545   4.378   0.879
95611W        W57065  20.146  35.975  14.295
95612W        W57066  43.358  44.965   1.786
95613W        W57067  42.899  20.750   0.466
95614W        W57068  14.733  18.713   2.779
95615W        W57069  18.139  19.103  13.005
95616W        W57070  29.615  44.388   0.791
95617W        W57071  41.822  21.646   1.765
95618W        W57072  20.606  42.349   2.868
95619W        W57073  33.533  37.523  12.530
95620W        W57074   0.318  42.496  12.987
95621W        W57075   6.797  34.011   0.934
95622W        W57076  39.341   3.766   2.773
95623W        W57077   4.714  41.970  11.003
95624W        W57078   3.359  36.901  13.454
95625W        W57079  11.166   6.827  10.966
95626W        W57080  26.115  22.574   1.745
95627W        W57081   2.326  40.882   0.955
95628W        W57082  31.956  31.492  14.396
95629W        W57083   0.275  21.682  13.338
95630W        W57084  43.867  40.384  14.931
95631W        W57085   3.445  37.366  14.783
95632W        W57086  32.998  35.394   2.416
95633W        W57087  36.391   6.299   3.279
95634W        W57088  37.454   7.206   1.706
95635W        W57089  31.444   9.279   5.776
95636W        W57090  12.295   2.737   1.312
95637W        W57091  23.725  16.618   2.745
95638W        W57092  31.037  43.470   0.849
95639W        W57093   8.290   9.842   1.368
95640W        W57094  20.762  14.637  13.391
95641W        W57095  19.116   1.903  14.388
95642W        W57096  11.320   6.329  14.382
95643W        W57097   6.217  41.017   1.852
95644W        W57098   7.371  29.157  13.346
95645W        W57099  31.152   3.875   0.745
95646W        W57100  37.840  18.155   3.680
95647W        W57101  27.582  15.132   2.394
95648W        W57102  12.676   0.473  13.803
95649W        W57103  39.880  14.621   0.807
95650W        W57104  18.155   5.715  12.440
95651W        W57105  23.612  13.622   4.708
95652W        W57106  13.719  18.058   1.894
95653W        W57107  42.848  34.925  12.428
95654W        W57108  19.704  20.177   4.656
95655W        W57109  11.794  36.893  10.620
95656W        W57110  39.524  38.380  14.778
95657W        W57111  27.059  32.542   4.272
95658W        W57112   4.765  33.486   2.257
95659W        W57113  41.444  21.181  12.942
95660W        W57114  12.153  21.589  14.425
95661W        W57115   6.424  30.132   4.667
95662W        W57116   4.275  25.596   0.787
95663W        W57117  43.904   2.939  11.910
95664W        W57118  44.891  21.544  14.825
95665W        W57119  22.157  35.516  14.864
95666W        W57120   0.474  32.613  12.041
95667W        W57121  32.997  21.071   4.765
95668W        W57122   8.263  37.956  13.489
95669W        W57123  34.113  32.949   3.753
95670W        W57124   3.227  18.565   0.292
95671W        W57125   6.771  34.510  13.493
95672W        W57126   8.808  31.057   5.643
95673W        W57127  39.485   8.358  13.527
95674W        W57128   4.248  22.663  12.361
95675W        W57129  35.898  22.512  11.070
95676W        W57130  13.806  24.630   1.694
95677W        W57131  40.805  30.578  10.464
95678W        W57132  21.229  24.665   3.347
95679W        W57133  41.959  37.568   0.903
95680W        W57134  12.230  27.024  13.929
95681W        W57135  31.525  18.106  12.458
95682W        W57136  35.489  24.023   2.311
95683W        W57137  41.418  20.146   1.223
95684W        W57138   3.459  26.507  11.377
95685W        W57139  10.742  30.041  12.436
95686W        W57140  35.523   9.758  14.804
95687W        W57141  44.931   7.212   2.693
95688W        W57142  33.520  17.612   4.199
95689W        W57143  44.444   2.309   4.222
95690W        W57144  33.065  40.896   2.322
95691W        W57145  29.059  19.127   0.255
95692W        W57146  24.145  26.195  10.643
95693W        W57147  24.494  21.065   2.762
95694W        W57148  19.701   4.778   0.742
95695W        W57149   8.219  11.753   4.301
95696W        W57150  37.501  15.192   4.786
95697W        W57151   6.794   3.249   4.273
95698W        W57152  13.760  35.386  10.548
95699W        W57153  25.029  30.638   0.315
95700W        W57154   7.318  31.117   1.920
95701W        W57155  38.414   4.770  11.102
95702W        W57156  26.956  29.939  12.936
95703W        W57157  41.807  22.112  11.003
95704W        W57158   4.888   8.813   1.922
95705W        W57159  44.352  35.388   0.256
95706W        W57160  17.099   7.859   0.298
95707W        W57161  40.846  25.708   0.248
95708W        W57162  16.301  29.509   4.140
95709W        W57163   8.280   6.684   4.189
95710W        W57164  33.545   2.340  13.365
95711W        W57165  37.960  20.216   2.404
95712W        W57166  23.069   9.249  11.596
95713W        W57167   0.875  21.087  10.503
95714W        W57168  16.676  42.949   1.388
95715W        W57169  28.637  38.551   3.797
95716W        W57170  34.054  11.637   0.401
95717W        W57171  28.033  40.039  13.908
95718W        W57172  18.190  20.177  12.442
95719W        W57173  36.887  14.648  14.450
95720W        W57174  18.277  38.518  14.276
95721W        W57175  10.862  42.366  11.994
95722W        W57176  29.519  32.505   1.367
95723W        W57177  16.740  16.252  12.079
95724W        W57178  23.105   3.765   2.748
95725W        W57179   7.790  22.545   5.242
95726W        W57180   9.857   9.807  11.574
95727W        W57181  44.322  40.828  14.018
95728W        W57182  12.208  23.067   3.695
95729W        W57183  10.149  27.126   4.211
95730W        W57184  37.536  18.129   2.834
95731W        W57185   2.297  43.982  12.428
95732W        W57186  23.048  34.913  14.026
95733W        W57187  39.980  39.817   0.335
95734W        W57188  18.758  14.226   1.901
95735W        W57189  17.674  23.731  13.910
95736W        W57190  19.563  25.519   4.244
95737W        W57191  38.408  22.746  10.968
95738W        W57192  36.853  40.510  11.443
95739W        W57193  37.487  26.003   1.718
95740W        W57194  30.578  25.642   0.773
95741W        W57195  14.758   4.789  13.380
95742W        W57196  29.505  17.674  12.005
95743W        W57197  15.584  41.842  14.904
95744W        W57198  17.648  22.134   3.864
95745W        W57199   5.354  21.165  12.911
95746W        W57200  30.969  34.113   9.938
95747W        W57201  29.509  41.874  12.560
95748W        W57202  29.513  28.063  13.435
95749W        W57203   6.834  25.097   4.345
95750W        W57204   1.369   9.161  14.470
95751W        W57205  12.138   5.893   3.726
95752W        W57206  29.429  22.723   2.247
95753W        W57207  38.013  35.004  12.510
95754W        W57208  35.547  34.098   0.727
95755W        W57209  29.105  44.380  11.501
95756W        W57210   1.942  26.683  14.768
95757W        W57211  32.029  18.282   4.671
95758W        W57212  39.872  31.595  11.088
95759W        W57213  24.659  42.378  10.469
95760W        W57214  36.041   2.877  12.450
95761W        W57215  14.208  32.006   3.823
95762W        W57216   5.805   4.748   2.795
95763W        W57217   6.712  13.126   1.743
95764W        W57218  30.108   2.966  10.621
95765W        W57219  20.720  35.527   1.339
95766W        W57220  41.960   8.887   0.782
95767W        W57221   2.426  34.988   2.691
95768W        W57222  30.476  26.181   3.251
95769W        W57223  21.115  37.835   4.266
95770W        W57224   7.798   4.897   4.236
95771W        W57225  21.637  26.461  14.412
95772W        W57226   4.421   8.654  11.593
95773W        W57227  41.434  40.447  12.934
95774W        W57228  18.208  35.505   2.341
95775W        W57229  41.329  30.084  11.438
95776W        W57230  13.326  20.729  14.503
95777W        W57231  13.806  17.139  11.603
95778W        W57232  40.017   8.240  13.369
95779W        W57233  14.624  39.838   3.340
95780W        W57234  32.497  19.609  11.113
95781W        W57235  24.184  33.051  14.311
95782W        W57236  28.953  37.402  11.878
95783W        W57237  19.244  33.945  13.443
95784W        W57238  41.314  35.962   0.421
95785W        W57239  23.990   4.431   2.344
95786W        W57240  20.674   3.893  12.470
95787W        W57241  14.622   7.731  10.512
95788W        W57242   9.321  26.472   1.289
95789W        W57243  20.583  38.451  13.380
95790W        W57244  19.129   2.948   4.334
95791W        W57245  29.576   7.808  10.626
95792W        W57246  32.530  20.207   1.434
95793W        W57247  30.105  41.041  13.905
95794W        W57248  36.500  22.706  11.999
95795W        W57249  24.718  25.964   1.808
95796W        W57250  37.004  12.678  10.562
95797W        W57251  42.837  28.091   2.762
95798W        W57252  36.066   5.930   2.844
95799W        W57253  11.700  12.159   4.618
95800W        W57254  35.031  27.964   2.871
95801W        W57255  30.120  35.504  14.878
95802W        W57256  25.498  30.469  10.608
95803W        W57257  16.264  43.846   1.834
95804W        W57258  37.984  29.004  10.971
95805W        W57259  21.744  19.581   1.331
95806W        W57260   3.325  32.394  14.970
95807W        W57261  28.559   6.339   5.734
95808W        W57262  27.986  31.105  11.602
95809W        W57263  19.576  34.528   0.447
95810W        W57264  15.713   5.838   0.280
95811W        W57265  37.361  22.091  12.026
95812W        W57266  43.291   0.981   1.364
95813W        W57267  27.054  17.635   1.849
95814W        W57268  27.089  16.699   2.893
95815W        W57269  23.569  12.124   4.688
95816W        W57270   7.191  19.717  14.416
95817W        W57271  34.444  34.006  14.883
95818W        W57272  43.389   0.385  11.020
95819W        W57273  14.607  24.179   3.203
95820W        W57274  12.764  41.838  13.548
95821W        W57275   6.303  22.174   4.727
95822W        W57276  10.326  37.068   2.243
95823W        W57277  43.352  17.580  13.863
95824W        W57278  31.597  27.952  13.905
95825W        W57279  37.537   0.480   0.838
95826W        W57280  15.235   6.716  11.605
95827W        W57281   6.715  43.941  13.315
95828W        W57282   3.293  17.086  14.940
95829W        W57283  10.203  20.649  13.888
95830W        W57284  18.779  28.134   5.304
95831W        W57285  10.799  38.831   1.398
95832W        W57286  26.457  29.480   3.843
95833W        W57287  29.172  38.016   0.959
95834W        W57288  39.468  32.061  12.528
95835W        W57289  40.906  24.009   3.342
95836W        W57290  35.027  20.131   1.744
95837W        W57291  13.842  10.366   2.189
95838W        W57292  39.827   3.747  12.910
95839W        W57293  44.290  36.944  11.864
95840W        W57294  17.105  19.042  13.524
95841W        W57295  14.318  16.585   1.867
95842W        W57296  15.654   6.267  11.057
95843W        W57297  25.208  13.676  13.852
95844W        W57298   6.313  20.189   9.972
95845W        W57299  35.015  12.728  11.515
95846W        W57300  29.102   6.728  14.316
95847W        W57301  39.886  40.525  14.940
95848W        W57302  11.167   1.309   4.658
95849W        W57303  30.488  44.852   2.737
95850W        W57304   4.240  11.135  12.870
95851W        W57305  32.447  40.468   2.673
95852W        W57306  22.741   0.433   0.276
95853W        W57307  43.491   2.929  14.457
95854W        W57308  20.537  25.156  10.891
95855W        W57309  38.483  31.910  13.797
95856W        W57310   7.844  22.151   0.303
95857W        W57311  27.034   4.914  13.478
95858W        W57312  18.636  43.956  13.854
95859W        W57313  41.824   6.799  13.985
95860W        W57314  14.692  24.066  14.328
95861W        W57315  39.954   2.905   1.896
95862W        W57316  14.184  43.374   2.860
95863W        W57317  40.991  42.392  12.928
95864W        W57318   3.252  39.410   4.737
95865W        W57319  12.730   2.757  10.406
95866W        W57320  16.796  39.039   4.637
95867W        W57321   5.798  31.616  11.974
95868W        W57322   8.298  12.748   4.768
95869W        W57323  39.385  17.771  10.506
95870W        W57324  30.647  27.615   3.649
95871W        W57325  23.070  14.722   1.446
95872W        W57326  38.910  27.035  14.764
95873W        W57327  33.991  16.645  12.394
95874W        W57328  19.745  41.925   0.874
95875W        W57329  10.348  33.107  11.489
95876W        W57330  31.606  19.085   1.345
95877W        W57331  17.612  25.986   2.681
95878W        W57332   5.375  41.003  11.858
95879W        W57333  44.286  40.311   5.253
95880W        W57334  37.930  19.589  13.537
95881W        W57335   8.685  12.132  14.821
95882W        W57336   6.800  14.307   3.643
95883W        W57337   8.205  25.033   1.735
95884W        W57338  38.357  22.201   3.205
95885W        W57339  36.989  15.311   3.266
95886W        W57340   4.435  32.945   0.430
95887W        W57341  19.209  37.924  11.994
95888W        W57342  43.308  39.949   0.466
95889W        W57343  18.758  33.985   2.833
95890W        W57344  37.993  26.201   2.839
95891W        W57345  13.765   7.377  12.359
95892W        W57346  41.032  34.944  14.004
95893W        W57347  20.177  11.645   2.391
95894W        W57348  31.974  41.889   3.201
95895W        W57349   2.354   8.866   2.848
95896W        W57350   0.863  26.168  13.307
95897W        W57351  44.489   3.274   3.834
95898W        W57352  38.428  35.391  11.969
95899W        W57353  16.205  27.562  14.952
95900W        W57354  35.385  20.735  13.812
95901W        W57355   3.810  18.640  13.494
95902W        W57356  22.103  35.012  12.384
95903W        W57357  37.444  33.564  11.996
95904W        W57358  21.586   1.435  12.560
95905W        W57359  27.487  32.106   1.805
95906W        W57360   8.251  35.061  12.553
95907W        W57361   2.723  29.040  10.973
95908W        W57362  25.205  35.043   1.788
95909W        W57363   0.804   8.249  10.463
95910W        W57364   8.892  38.374  11.515
95911W        W57365  20.038  31.412   4.216
95912W        W57366  39.326   5.321   2.261
95913W        W57367  13.317  15.086   4.216
95914W        W57368  27.487   2.877   5.749
95915W        W57369  10.368  35.550   3.688
95916W        W57370  44.983  13.215  11.937
95917W        W57371   7.794   4.406   1.377
95918W        W57372  29.966  33.891   1.716
95919W        W57373  19.704  37.897  10.499
95920W        W57374   1.464  41.490  14.999
95921W        W57375  12.297  19.208   1.404
95922W        W57376   0.908  12.295   1.792
95923W        W57377  27.523  26.556   2.833
95924W        W57378  25.008  14.770  11.125
95925W        W57379  32.952  13.240  12.899
95926W        W57380  42.510   7.281  14.455
95927W        W57381  24.682   8.233  14.298
95928W        W57382  33.884  41.972   3.246
95929W        W57383   3.710  31.919   0.797
95930W        W57384  44.008  28.673  14.960
95931W        W57385  36.553   6.694  13.936
95932W        W57386  19.213   7.753  11.098
95933W        W57387  34.602   9.671  10.894
95934W        W57388  16.266   6.215   0.770
95935W        W57389   3.912  34.487   0.887
95936W        W57390  44.471  39.330   4.119
95937W        W57391   9.226  16.145  12.963
95938W        W57392  15.249  28.964  14.863
95939W        W57393  34.480   9.691   2.873
95940W        W57394  37.048   3.314  10.908
95941W        W57395  14.253  18.715   5.672
95942W        W57396  12.691   8.849  14.915
95943W        W57397  26.060  23.051  12.825
95944W        W57398   1.428  37.582  14.844
95945W        W57399  10.205  19.626   2.869
95946W        W57400  42.005  34.380   3.217
95947W        W57401  11.363  33.930  13.357
95948W        W57402  37.077  14.662  12.073
95949W        W57403  42.490  14.284   0.857
95950W        W57404  10.384  37.893  14.457
95951W        W57405  15.662   7.339   4.797
95952W        W57406  20.524  29.553  14.409
95953W        W57407  29.444   0.960   2.248
95954W        W57408  28.617  22.613   4.210
95955W        W57409  29.663   1.807   4.267
95956W        W57410  23.232  43.489  10.577
95957W        W57411  20.571  19.651   2.178
95958W        W57412  42.871  13.639   1.339
95959W        W57413  37.000  33.939   3.752
95960W        W57414  18.563  13.183  11.418
95961W        W57415  30.612  44.500   4.250
95962W        W57416  17.102   7.214  14.965
95963W        W57417  40.440  38.332  11.003
95964W        W57418   3.940  17.086   3.702
95965W        W57419  37.529  20.153   3.633
95966W        W57420  38.030  42.300  12.505
95967W        W57421  28.470  35.562   0.441
95968W        W57422  27.031  20.634  13.335
95969W        W57423  13.233  19.223  11.957
95970W        W57424  26.572  43.764  13.370
95971W        W57425  42.807  29.030   0.399
95972W        W57426  20.663  21.599  11.464
95973W        W57427  17.190  33.517  14.999
95974W        W57428   4.868  34.436   0.315
95975W        W57429  12.268   0.253  12.039
95976W        W57430  20.028   2.294  11.563
95977W        W57431  41.479  30.474  12.837
95978W        W57432   9.244   1.776   1.874
95979W        W57433  14.708  32.019   4.119
95980W        W57434  38.354  18.276   0.335
95981W        W57435  41.817  41.301   3.309
95982W        W57436  27.023   8.363   1.850
95983W        W57437  19.159   4.876   4.722
95984W        W57438  16.284  37.984  10.549
95985W        W57439   8.835  32.048   2.405
95986W        W57440  18.673  15.297  13.801
95987W        W57441  24.647   8.398  10.924
95988W        W57442   4.341  43.346   1.211
95989W        W57443  41.812   8.276   0.406
95990W        W57444  38.380  20.082  12.953
95991W        W57445   5.893  22.532  13.389
95992W        W57446  32.541  42.398   4.729
95993W        W57447   7.404   3.380  10.580
95994W        W57448  28.626  15.299  11.126
95995W        W57449  18.778  27.147   4.627
95996W        W57450  25.685  44.299  14.939
95997W        W57451   8.840  30.421  12.517
95998W        W57452  17.205  16.698  12.555
95999W        W57453  15.800   0.358  12.470
96000W        W57454  44.364  36.577   1.408
96001W        W57455   4.800  43.296   3.304
96002W        W57456   9.844  39.924   2.357
96003W        W57457  22.697  23.238  14.894
96004W        W57458   1.800  36.498   1.887
96005W        W57459  35.084  39.831  10.408
96006W        W57460   1.824  44.771   2.368
96007W        W57461   3.391  12.842   2.679
96008W        W57462  29.455   7.238   9.944
96009W        W57463  33.578  30.472  11.382
96010W        W57464  31.955  25.611   0.795
96011W        W57465  40.353   8.211  13.428
96012W        W57466   0.978  11.229  10.516
96013W        W57467  42.513   5.739   4.837
96014W        W57468  26.582  36.563   0.430
96015W        W57469  30.640  17.155  11.537
96016W        W57470  34.895   8.201  11.914
96017W        W57471   2.743   7.180   1.294
96018W        W57472  28.015   3.792  11.561
96019W        W57473  23.562   6.324  12.090
96020W        W57474   9.834  31.960  12.355
96021W        W57475  15.646  14.249   5.281
96022W        W57476   4.792  14.688  10.077
96023W        W57477  18.642  20.617  11.914
96024W        W57478   5.433  23.607   0.317
96025W        W57479  34.084  18.145  11.408
96026W        W57480   1.915  15.135  13.055
96027W        W57481  25.687  19.629   1.341
96028W        W57482   6.819  31.969   9.925
96029W        W57483  44.842  33.510  10.983
96030W        W57484  43.860  18.279  14.958
96031W        W57485  34.025  12.279   4.696
96032W        W57486  40.407  25.637  11.490
96033W        W57487  15.578  42.782  13.941
96034W        W57488  12.138  36.489  10.573
96035W        W57489  25.044  28.152  12.083
96036W        W57490   6.767  18.086  14.427
96037W        W57491  32.465  21.132   0.262
96038W        W57492  39.025  43.899  11.389
96039W        W57493  41.446  27.982  13.008
96040W        W57494  24.703  35.962  11.044
96041W        W57495  10.857  18.697   2.850
96042W        W57496  40.369  11.623  14.397
96043W        W57497  17.249  28.602   0.777
96044W        W57498   6.874   9.848  14.995
96045W        W57499   9.393  29.637  12.068
96046W        W57500  13.115  15.808  14.394
96047W        W57501  13.721   8.737  13.008
96048W        W57502  16.194  11.739   1.861
96049W        W57503  20.056  22.076  12.916
96050W        W57504   9.741  30.424  13.874
96051W        W57505  41.965  26.669   4.149
96052W        W57506  40.375  12.819   4.256
96053W        W57507  38.541   9.708   2.799
96054W        W57508  13.665  22.711   4.163
96055W        W57509   8.765  20.740  10.010
96056W        W57510  30.575  33.399   4.192
96057W        W57511   4.222  18.277   0.447
96058W        W57512  17.094   1.940   3.309
96059W        W57513   0.948   3.920   0.374
96060W        W57514  18.129  20.230  10.535
96061W        W57515  35.581   3.300  13.353
96062W        W57516  38.400  26.628   4.137
96063W        W57517   5.218   8.353   4.725
96064W        W57518  41.932  44.328   0.356
96065W        W57519  31.495   1.824  14.510
96066W        W57520  18.251  21.531   3.863
96067W        W57521  22.624   1.879  10.495
96068W        W57522  39.519  12.717  12.993
96069W        W57523   2.966  11.636  13.047
96070W        W57524  27.080  15.757   5.140
96071W        W57525  13.335   1.851   4.334
96072W        W57526  32.473  13.786   3.276
96073W        W57527  14.119  43.363   9.515
96074W        W57528  13.602   1.415   4.769
96075W        W57529  10.349  39.428   2.360
96076W        W57530  32.113  38.982  12.009
96077W        W57531   4.759  33.431  14.275
96078W        W57532  44.844  32.977  13.006
96079W        W57533  39.063   1.819  13.327
96080W        W57534  43.782  24.983   3.186
96081W        W57535  20.641  21.236  11.091
96082W        W57536  16.670  10.852   2.209
96083W        W57537  43.507  28.981  13.514
96084W        W57538  26.209  32.894   0.831
96085W        W57539   2.846   0.965  14.782
96086W        W57540  29.580  16.230  10.417
96087W        W57541  19.614   5.864   2.400
96088W        W57542   1.817  15.646   4.256
96089W        W57543  10.274  28.526  12.385
96090W        W57544  20.737  15.651   0.955
96091W        W57545  28.992  15.244  12.377
96092W        W57546  21.017  20.565  10.938
96093W        W57547  23.671  41.964  11.425
96094W        W57548  19.276  34.568   2.382
96095W        W57549  37.952  40.530  14.382
96096W        W57550  15.321  17.584   3.269
96097W        W57551   5.350   6.411  14.961
96098W        W57552  16.312  41.292   3.288
96099W        W57553  40.304  36.922  12.065
96100W        W57554  34.916  35.545   4.159
96101W        W57555  30.628  13.657   5.097
96102W        W57556  29.143  19.544   2.692
96103W        W57557  29.526  29.097   3.680
96104W        W57558   1.885  33.071   2.354
96105W        W57559   1.770  15.161   0.923
96106W        W57560  20.123  40.410  11.572
96107W        W57561  37.929  30.161   2.350
96108W        W57562  31.129   1.275   0.468
96109W        W57563  34.044  17.264   3.292
96110W        W57564  16.169   8.356  13.437
96111W        W57565   3.413  12.828  14.839
96112W        W57566  22.248  27.456   4.629
96113W        W57567  34.533  18.155   1.384
96114W        W57568  28.939  43.407  14.385
96115W        W57569   9.684  43.329   1.319
96116W        W57570  26.632  30.455  13.470
96117W        W57571  42.875  17.169   5.113
96118W        W57572  43.303   4.895   0.410
96119W        W57573  38.853  27.632   3.221
96120W        W57574   9.760  22.634  11.382
96121W        W57575  22.674  17.601  11.982
96122W        W57576   1.271  24.648  10.499
96123W        W57577   5.435   3.933  14.292
96124W        W57578  22.623  11.368   4.284
96125W        W57579  35.557  18.661  10.914
96126W        W57580   5.851  32.473  14.459
96127W        W57581  24.561  23.687   2.302
96128W        W57582   5.240  18.669  13.380
96129W        W57583  21.111  44.954  11.500
96130W        W57584   6.911  22.205  12.517
96131W        W57585  19.753  22.591   1.887
96132W        W57586  13.663  37.967   5.275
96133W        W57587   7.761  36.918  11.083
96134W        W57588  25.026  14.656  13.432
96135W        W57589   9.739  35.471  14.494
96136W        W57590   4.739  39.955   2.716
96137W        W57591  36.502   7.803   1.216
96138W        W57592  25.175  37.892   0.885
96139W        W57593   5.389  29.961  13.918
96140W        W57594  13.636  24.530  11.473
96141W        W57595  36.904  33.955  10.405
96142W        W57596   1.373  28.969   2.843
96143W        W57597   6.396  15.772   3.863
96144W        W57598   0.868  28.144   1.768
96145W        W57599  16.672  27.956   1.221
96146W        W57600  21.057  34.374  11.074
96147W        W57601  30.421   0.942   4.741
96148W        W57602  11.254   6.312  11.973
96149W        W57603  30.554  30.619   3.649
96150W        W57604  21.717  38.517  13.386
96151W        W57605  20.666   5.306  12.464
96152W        W57606   4.906  11.212   3.753
96153W        W57607   6.420   1.461   4.281
96154W        W57608  24.604  29.438  13.892
96155W        W57609  14.175  28.084  10.996
96156W        W57610  16.117   7.718   1.434
96157W        W57611  11.685  20.570  13.064
96158W        W57612  32.635   9.725   2.778
96159W        W57613   1.757   1.413   4.613
96160W        W57614  36.480  18.769  13.823
96161W        W57615   9.257  12.267   0.796
96162W        W57616  16.785  41.407  13.961
96163W        W57617  17.647   7.335  12.944
96164W        W57618  11.765  28.167  12.526
96165W        W57619   0.249  37.381  12.912
96166W        W57620  33.961  22.712  12.406
96167W        W57621   5.400   9.665   1.808
96168W        W57622   4.316  26.683   2.363
96169W        W57623  22.592  20.116  10.148
96170W        W57624  10.802  18.769  14.356
96171W        W57625  24.177  39.049  14.820
96172W        W57626  36.937  20.039   2.702
96173W        W57627  28.513  44.905   2.271
96174W        W57628   9.744  12.281   3.717
96175W        W57629   7.286   0.826  14.884
96176W        W57630  44.360  39.531  10.471
96177W        W57631  11.770   5.273   2.412
96178W        W57632  14.242  36.063   3.349
96179W        W57633  28.121   7.249  14.312
96180W        W57634  44.489  43.800  14.916
96181W        W57635  25.987  44.496   0.262
96182W        W57636  30.955  37.452   0.859
96183W        W57637  11.340  28.543  11.423
96184W        W57638  20.555  16.254  12.463
96185W        W57639  38.015   0.782  10.934
96186W        W57640  27.585  11.247   3.288
96187W        W57641   9.218   3.254   1.246
96188W        W57642  37.893  14.630  13.057
96189W        W57643  40.418  10.332   5.303
96190W        W57644  29.149  15.690  14.309
96191W        W57645  20.739  34.933   2.678
96192W        W57646  43.013  32.579  10.980
96193W        W57647  32.597  37.511   4.310
96194W        W57648  25.496  16.591  10.526
96195W        W57649  36.531   5.886   1.260
96196W        W57650   9.296   1.808   3.378
96197W        W57651  29.662  30.601   0.911
96198W        W57652  38.409  25.650  11.548
96199W        W57653  30.147  35.863   2.263
96200W        W57654  24.696  42.876   4.760
96201W        W57655  21.209  15.790   4.737
96202W        W57656  36.500   9.801   0.761
96203W        W57657  12.133  17.183  14.369
96204W        W57658  35.953  22.503  14.403
96205W        W57659  41.496  37.047   0.757
96206W        W57660  40.381   6.305   1.264
96207W        W57661  10.187  25.486   0.451
96208W        W57662  44.793  42.906   3.825
96209W        W57663  28.173  20.701   5.177
96210W        W57664   8.188  23.728  10.456
96211W        W57665  32.102   8.767   9.975
96212W        W57666  13.216   7.388  13.028
96213W        W57667   7.290  41.945  11.499
96214W        W57668  21.513  31.013  14.998
96215W        W57669  26.630  26.146   2.817
96216W        W57670  33.616  44.292   4.644
96217W        W57671  11.211  41.500  14.321
96218W        W57672   0.873  21.154  10.978
96219W        W57673  22.119  28.506  12.067
96220W        W57674   5.775   8.352   1.336
96221W        W57675  43.788  20.684  10.433
96222W        W57676   8.772  36.066  11.599
96223W        W57677  43.910   9.767  14.906
96224W        W57678   4.273  29.045  10.958
96225W        W57679   4.759  26.032   3.165
96226W        W57680  36.848  17.290   1.713
96227W        W57681  33.591   4.787  13.493
96228W        W57682   8.689  11.802  11.591
96229W        W57683  21.692  27.653   0.292
96230W        W57684  31.523  26.620  10.577
96231W        W57685   4.441   8.170   3.354
96232W        W57686   9.230  41.029  12.933
96233W        W57687  43.270   2.299  12.947
96234W        W57688  41.946  40.841  13.999
96235W        W57689  17.303  18.647   2.338
96236W        W57690  19.152  26.680  13.814
96237W        W57691   7.784  10.212   2.409
96238W        W57692  37.450  19.675  11.092
96239W        W57693  39.869  28.051  13.831
96240W        W57694   7.813   6.769   1.356
96241W        W57695  10.757  39.440  10.936
96242W        W57696  24.050  15.633   5.226
96243W        W57697  31.112  28.537  13.028
96244W        W57698  35.386  39.022  10.935
96245W        W57699  12.131  27.135  12.017
96246W        W57700   6.259  12.302   4.315
96247W        W57701  41.466   2.449  13.863
96248W        W57702  13.136  18.268   1.230
96249W        W57703  12.765  33.468   1.242
96250W        W57704   0.412  12.728   0.483
96251W        W57705  12.171   0.444   3.786
96252W        W57706  23.729  19.283   1.857
96253W        W57707   6.840  44.754  10.426
96254W        W57708  37.840  38.975   0.297
96255W        W57709  17.184   4.736   3.816
96256W        W57710  33.963  32.497  11.045
96257W        W57711   3.844  14.763   2.214
96258W        W57712  25.981  17.796  14.460
96259W        W57713  44.302   1.258   2.248
96260W        W57714  38.070  32.598   4.331
96261W        W57715  27.047  42.434  13.985
96262W        W57716  44.873  25.506  12.936
96263W        W57717  27.566  16.237  13.959
96264W        W57718  18.110  36.090  14.334
96265W        W57719  27.645  21.591  14.901
96266W        W57720  30.479  36.587  14.431
96267W        W57721   2.428  30.630   5.220
96268W        W57722  12.777  36.404  14.776
96269W        W57723  10.687  37.899  10.466
96270W        W57724  32.421  26.198  11.493
96271W        W57725  33.965  28.143  14.439
96272W        W57726  38.940  34.496  11.881
96273W        W57727  33.620  42.787  12.443
96274W        W57728  44.494   3.756   1.929
96275W        W57729  23.012  18.782  14.394
96276W        W57730  36.992   6.897  11.884
96277W        W57731  15.137  38.360   2.203
96278W        W57732   3.907  23.544  10.577
96279W        W57733   9.810   2.860  13.041
96280W        W57734   2.818  44.314   4.126
96281W        W57735  40.406  16.313  12.847
96282W        W57736  19.683   8.882  11.103
96283W        W57737  35.005  39.965  11.386
96284W        W57738  21.073   7.387   3.867
96285W        W57739  13.710  23.052   4.686
96286W        W57740  38.415   7.665   0.418
96287W        W57741  28.989  28.615   3.757
96288W        W57742   6.259   1.414   3.269
96289W        W57743   4.897  24.992   2.720
96290W        W57744   6.771  23.557   2.664
96291W        W57745  40.955  12.318   1.925
96292W        W57746  44.919  28.510  10.579
96293W        W57747  32.447  12.794   0.432
96294W        W57748   6.783   5.887   2.185
96295W        W57749  35.912  37.430   2.419
96296W        W57750  13.191  22.029  11.502
96297W        W57751  11.241  22.222  12.089
96298W        W57752  20.148  21.672  10.628
96299W        W57753  32.518   4.354   2.217
96300W        W57754   2.236  33.883   1.349
96301W        W57755  11.647   6.262   4.339
96302W        W57756   1.430  25.090   4.178
96303W        W57757  28.180   5.889  14.984
96304W        W57758  33.527  36.449   0.964
96305W        W57759  26.017  16.103  13.009
96306W        W57760  34.970  43.795   0.277
96307W        W57761  13.758  21.072  10.981
96308W        W57762  17.228  32.510  11.975
96309W        W57763  21.570  14.808   1.324
96310W        W57764  17.612  42.317   0.946
96311W        W57765  17.063  12.309   0.829
96312W        W57766  28.456  36.401   2.716
96313W        W57767  16.101  44.820  14.004
96314W        W57768  33.534  22.673  11.884
96315W        W57769  39.485  25.206   2.801
96316W        W57770  21.219  13.162  14.891
96317W        W57771  30.921  25.045   1.374
96318W        W57772  21.185  28.970   3.796
96319W        W57773  44.469  40.975   4.173
96320W        W57774  17.090  28.582  13.983
96321W        W57775  18.711  43.799   0.324
96322W        W57776  33.475   7.344  12.904
96323W        W57777   7.177  39.363   0.356
96324W        W57778  28.469  23.601   4.173
96325W        W57779  12.649  32.984  12.869
96326W        W57780  10.651  32.887   4.175
96327W        W57781  21.248   9.165  13.825
96328W        W57782   3.760   8.211   3.159
96329W        W57783  33.891  25.534  13.892
96330W        W57784  26.136  10.871  14.954
96331W        W57785  21.056  40.530  12.061
96332W        W57786  12.144  32.924  13.504
96333W        W57787   3.749  27.581   3.811
96334W        W57788  23.671  43.856  14.991
96335W        W57789  11.207  20.750  11.390
96336W        W57790  12.803  24.211  14.374
96337W        W57791  14.275  42.442   5.732
96338W        W57792  30.144  11.343  13.537
96339W        W57793   9.660   8.820  14.392
96340W        W57794   8.682  38.893   0.790
96341W        W57795  29.924   7.298  14.290
96342W        W57796  19.156  40.389  11.044
96343W        W57797  30.088  15.720  12.360
96344W        W57798  36.478   5.386  12.431
96345W        W57799  11.278  24.525  10.422
96346W        W57800  42.908   0.359  12.482
96347W        W57801   5.398  32.594   1.904
96348W        W57802  32.430   4.923   4.651
96349W        W57803   0.279  43.016  11.517
96350W        W57804   4.376   3.350   4.207
96351W        W57805  11.292  41.511  12.977
96352W        W57806  37.345  21.640  13.868
96353W        W57807  28.495   3.750  11.409
96354W        W57808  16.240   6.785   2.180
96355W        W57809  16.142  32.431   4.228
96356W        W57810   7.836  39.425   3.218
96357W        W57811  35.052  16.732   4.667
96358W        W57812   9.798  19.684   5.578
96359W        W57813  23.569  22.743  12.097
96360W        W57814  37.967  10.814   4.325
96361W        W57815  23.589  42.013  14.320
96362W        W57816  39.923  11.194   1.872
96363W        W57817  15.623   3.870  12.545
96364W        W57818  24.493  11.322   1.921
96365W        W57819  22.124   0.982  11.544
96366W        W57820  39.040  44.880  10.410
96367W        W57821  29.014   8.164   3.828
96368W        W57822  19.595  44.865   2.215
96369W        W57823   2.244   6.775   4.292
96370W        W57824  32.015  29.509   3.367
96371W        W57825  21.615   6.902  13.491
96372W        W57826   9.683   3.254  10.615
96373W        W57827  15.162   6.846   0.333
96374W        W57828  23.224  26.041  13.451
96375W        W57829  39.467  22.163  13.441
96376W        W57830   3.446   6.858   1.302
96377W        W57831  36.854  27.192  14.324
96378W        W57832   9.744  27.487   1.845
96379W        W57833  13.312  11.169   4.783
96380W        W57834  40.499  37.481   2.360
96381W        W57835  24.203  16.802  14.496
96382W        W57836  31.538  36.407  12.021
96383W        W57837  16.796  33.113   1.764
96384W        W57838  41.432   4.286   1.410
96385W        W57839   1.241  28.665   2.252
96386W        W57840   8.277  27.676  11.426
96387W        W57841  17.583  40.401   2.351
96388W        W57842  22.532   0.957   2.710
96389W        W57843  27.579  40.873   4.834
96390W        W57844  19.284  15.322   4.779
96391W        W57845  15.315  34.084  12.466
96392W        W57846  12.325  33.462   3.245
96393W        W57847   1.773  10.183   3.367
96394W        W57848  37.403  38.985  12.459
96395W        W57849  45.000  22.172  13.398
96396W        W57850  42.415  37.906  14.852
96397W        W57851  26.109  12.677   4.325
96398W        W57852   3.709  33.494  13.896
96399W        W57853   3.754  33.890   1.763
96400W        W57854   8.351   7.803   1.861
96401W        W57855  14.626  22.625   2.743
96402W        W57856  28.096   1.291  10.616
96403W        W57857   3.939  18.562   3.664
96404W        W57858  20.120  40.445   1.782
96405W        W57859  22.603  12.258   3.825
96406W        W57860  25.053   0.319   4.205
96407W        W57861  24.635   9.668   2.692
96408W        W57862  32.515  34.397  13.371
96409W        W57863  15.101   7.194   3.365
96410W        W57864  16.570  35.896  13.388
96411W        W57865  26.143  13.222  12.423
96412W        W57866   7.899   3.268  12.894
96413W        W57867  18.215  34.103  11.930
96414W        W57868  37.873   8.656   3.189
96415W        W57869  37.455  10.837  14.859
96416W        W57870  35.050  34.070  11.956
96417W        W57871  17.179  16.304   2.750
96418W        W57872  11.800  25.703   4.788
96419W        W57873  31.502  35.560  12.486
96420W        W57874  34.895  26.637  12.899
96421W        W57875  35.029  42.986  14.833
96422W        W57876  25.059  26.474  14.444
96423W        W57877  10.240  36.565   3.676
96424W        W57878  43.924  25.003   0.824
96425W        W57879  20.730  39.061   0.770
96426W        W57880  42.457  10.196  11.453
96427W        W57881   3.777   0.454  14.512
96428W        W57882  32.994  29.089  14.827
96429W        W57883  10.864  41.339   4.302
96430W        W57884   1.788  33.557  12.381
96431W        W57885   7.378  32.953  10.963
96432W        W57886  34.045  23.717  11.939
96433W        W57887  27.049   8.221   3.218
96434W        W57888  30.629   6.267   4.223
96435W        W57889  11.637  33.449  12.476
96436W        W57890   2.925  10.746  11.568
96437W        W57891  43.913  21.169  11.908
96438W        W57892  35.582  15.232   1.214
96439W        W57893  42.945   9.818  11.117
96440W        W57894   3.442  29.476   2.806
96441W        W57895  19.218  14.748  14.861
96442W        W57896   9.246  20.248   4.265
96443W        W57897  19.722  34.033   0.410
96444W        W57898  15.717  27.036  10.581
96445W        W57899  18.555  23.611   5.114
96446W        W57900  28.621  38.361   4.823
96447W        W57901  35.386  40.937   3.306
96448W        W57902   0.459  40.969  14.895
96449W        W57903  27.506   3.265  10.551
96450W        W57904  18.104  28.960   3.246
96451W        W57905  18.052   7.234   0.853
96452W        W57906   8.680  44.762  13.523
96453W        W57907  14.786  28.120  13.409
96454W        W57908  19.555  16.314   1.254
96455W        W57909  40.820  32.127  14.331
96456W        W57910  25.559  30.563   3.326
96457W        W57911  21.118  28.652   3.663
96458W        W57912  19.155  20.673   4.132
96459W        W57913  27.050  15.235   1.701
96460W        W57914  15.690   7.694   2.895
96461W        W57915  12.282  13.260  11.602
96462W        W57916   8.246  27.992   2.851
96463W        W57917  13.717  10.375  12.044
96464W        W57918  41.869  36.091  13.958
96465W        W57919   7.753  17.257   4.130
96466W        W57920  19.762   4.337  12.002
96467W        W57921  18.150  33.606  14.489
96468W        W57922   8.402  11.649   0.365
96469W        W57923  14.110  40.806   0.477
96470W        W57924  23.505  37.470  12.918
96471W        W57925  41.826  40.941  13.017
96472W        W57926  30.560  21.145   3.326
96473W        W57927  43.432  44.830   3.246
96474W        W57928  21.602   5.305   1.833
96475W        W57929  39.510  35.368  12.022
96476W        W57930  29.600  13.654  14.339
96477W        W57931  44.444  37.345   5.322
96478W        W57932  22.621  10.197   0.784
96479W        W57933   4.377  20.107  13.042
96480W        W57934  38.335  21.165   1.301
96481W        W57935  37.425  20.580  12.029
96482W        W57936  15.580  31.533   4.209
96483W        W57937  20.206   3.784  11.442
96484W        W57938  17.194   3.821  13.927
96485W        W57939  36.896  13.714  10.993
96486W        W57940  43.018   0.955   3.831
96487W        W57941  43.897  28.150   4.831
96488W        W57942  28.050  15.123  14.010
96489W        W57943  14.658  16.640  10.458
96490W        W57944  10.358  29.606   1.360
96491W        W57945  42.332  22.581  12.094
96492W        W57946  14.226  11.259   9.457
96493W        W57947  29.030  40.810   0.471
96494W        W57948  16.789   4.347   3.668
96495W        W57949   6.420  34.973   2.842
96496W        W57950  11.323  28.471  12.578
96497W        W57951  19.256  12.177  10.439
96498W        W57952  14.745  33.431   3.843
96499W        W57953  20.654   7.313  12.827
96500W        W57954  16.080  36.936   3.350
96501W        W57955  14.270  40.533   3.640
96502W        W57956  36.385   1.470   2.343
96503W        W57957   0.893  30.070  10.936
96504W        W57958  25.992  22.145  12.889
96505W        W57959  34.949  35.043  14.975
96506W        W57960   0.776  39.038  11.107
96507W        W57961  24.615   0.867   1.935
96508W        W57962  39.961   4.229  14.431
96509W        W57963   2.777  14.174  11.414
96510W        W57964  34.538  29.439  12.562
96511W        W57965  21.081  10.757   4.817
96512W        W57966  23.082   3.766   3.359
96513W        W57967  37.840  25.101   3.146
96514W        W57968  21.666  43.793   0.477
96515W        W57969   5.774  34.556   3.831
96516W        W57970   9.271  44.287  12.557
96517W        W57971   3.391   8.871  12.566
96518W        W57972  44.488  12.145   4.341
96519W        W57973  29.512  38.437  12.029
96520W        W57974  42.346  29.455   1.790
96521W        W57975  25.179  13.207  14.793
96522W        W57976  21.573  25.043   3.245
96523W        W57977  12.611  39.337  11.452
96524W        W57978   1.459  16.086   1.699
96525W        W57979  23.596  12.713  14.443
96526W        W57980  33.503  32.540  11.977
96527W        W57981  33.004  28.484   1.333
96528W        W57982   7.182  15.653  10.483
96529W        W57983  39.472   5.438   4.299
96530W        W57984   7.784  26.044  14.367
96531W        W57985  16.638  32.463   4.697
96532W        W57986  22.530  16.698  13.524
96533W        W57987  16.261  38.454   5.260
96534W        W57988  32.036   2.302   3.229
96535W        W57989  17.205  24.094  13.539
96536W        W57990  18.273  23.721   3.285
96537W        W57991   2.825  12.236   1.310
96538W        W57992  22.055  37.345   2.756
96539W        W57993  10.317  25.971  12.383
96540W        W57994  24.555  17.124  14.300
96541W        W57995   1.891  10.836  11.397
96542W        W57996  19.278  42.987  14.790
96543W        W57997  32.947  17.739   2.871
96544W        W57998  24.647  28.112  13.529
96545W        W57999   0.833   6.363   3.318
96546W        W58000  30.107  30.151  12.343
96547W        W58001  42.290  38.850   9.958
96548W        W58002  42.421  30.937   2.361
96549W        W58003   5.787  20.173  13.999
96550W        W58004   6.421  22.660   2.899
96551W        W58005   5.750  12.786   2.409
96552W        W58006  18.625  20.244  11.544
96553W        W58007  29.655  42.967   4.675
96554W        W58008  34.885  39.929  13.515
96555W        W58009  10.247  22.676  12.027
96556W        W58010   7.279  15.191   0.242
96557W        W58011  33.933  24.552  11.008
96558W        W58012   9.179  37.937  14.794
96559W        W58013   5.356  12.693  12.081
96560W        W58014  13.164  44.368   4.238
96561W        W58015  10.828  44.462   1.736
96562W        W58016  33.984  15.249   3.787
96563W        W58017  32.579  19.112  12.049
96564W        W58018  17.630  30.983   1.780
96565W        W58019  13.843  19.569   9.582
96566W        W58020  26.660  32.467   5.163
96567W        W58021  43.871  19.132   4.303
96568W        W58022  24.177  28.144  10.009
96569W        W58023  27.579   7.412  11.456
96570W        W58024   5.379  24.202  14.947
96571W        W58025  14.103  18.681  11.563
96572W        W58026   1.761  39.447   3.301
96573W        W58027  22.205  29.984  10.906
96574W        W58028  24.020  33.512   0.755
96575W        W58029  20.099  37.398   0.472
96576W        W58030   4.729  13.342   4.288
96577W        W58031  44.306  27.545  11.912
96578W        W58032  25.560   3.877  12.503
96579W        W58033  32.551  36.373   2.823
96580W        W58034   7.850  14.707  13.961
96581W        W58035  38.049  34.411  11.121
96582W        W58036  31.061  23.035  12.963
96583W        W58037  36.472  37.369  11.438
96584W        W58038  14.757  28.093  14.810
96585W        W58039  40.013  29.020   0.828
96586W        W58040   9.877  21.100   2.341
96587W        W58041  12.178  18.105   4.219
96588W        W58042  10.140  43.938   4.715
96589W        W58043   5.251  17.576   4.611
96590W        W58044   9.719  43.944   3.296
96591W        W58045  11.709  13.183   1.396
96592W        W58046  10.739  21.214   0.916
96593W        W58047  27.958   3.930   0.473
96594W        W58048  31.074  34.093  11.438
96595W        W58049   7.293  43.320   1.789
96596W        W58050  27.947   9.746   3.738
96597W        W58051  31.606   5.817   0.395
96598W        W58052   1.878  22.181  11.935
96599W        W58053  24.195  13.206  13.059
96600W        W58054   4.447  36.033   4.775
96601W        W58055  15.156   0.459   1.262
96602W        W58056  21.526  25.487   0.413
96603W        W58057  29.101   2.942   5.281
96604W        W58058   8.718  23.242   4.730
96605W        W58059   4.751   9.646   1.923
96606W        W58060  14.702  32.613   1.271
96607W        W58061  32.119  35.555   0.266
96608W        W58062   9.388  26.476   0.850
96609W        W58063  25.984  33.949   2.264
96610W        W58064  21.180   6.185   5.319
96611W        W58065   5.905  19.215  14.461
96612W        W58066  16.620  30.540  10.639
96613W        W58067  12.667  44.837   3.633
96614W        W58068   6.400  42.513  11.429
96615W        W58069  29.611  14.626  14.509
96616W        W58070  40.863  10.700  11.965
96617W        W58071  20.729  29.105   2.682
96618W        W58072   6.749  28.968   0.844
96619W        W58073   6.210  38.826  14.901
96620W        W58074   2.793  12.180  11.045
96621W        W58075  16.117  41.328   2.349
96622W        W58076  25.617  41.446  10.118
96623W        W58077  18.558  37.025   4.773
96624W        W58078  24.110  26.607   2.248
96625W        W58079  36.496   8.804   1.388
96626W        W58080  38.467  26.642  13.826
96627W        W58081  41.895  38.345  11.533
96628W        W58082   2.231   0.951   2.862
96629W        W58083   2.859  29.653  13.371
96630W        W58084  25.039  17.088  14.468
96631W        W58085  27.530  37.480   3.774
96632W        W58086  41.414  43.842  13.843
96633W        W58087  41.013  35.092  13.543
96634W        W58088  36.464  30.608  14.346
96635W        W58089  44.994  10.735  10.945
96636W        W58090  39.991  39.881  13.821
96637W        W58091  44.797  12.338   2.836
96638W        W58092  26.700  20.167  13.339
96639W        W58093   3.918  30.652   3.263
96640W        W58094  30.946  10.726   0.921
96641W        W58095   2.721   6.838   4.178
96642W        W58096   5.832  18.778   3.639
96643W        W58097  36.464  39.932   2.679
96644W        W58098  36.401  18.649  11.110
96645W        W58099   9.224  24.049   3.648
96646W        W58100  40.394   8.404   3.156
96647W        W58101  42.290   1.863  14.291
96648W        W58102  25.558   4.940   0.351
96649W        W58103  44.788  12.359   4.285
96650W        W58104   6.734  15.094  10.962
96651W        W58105   3.422  16.679   4.762
96652W        W58106   0.877   7.200  14.285
96653W        W58107  19.184  13.814  13.448
96654W        W58108  28.954  12.161   4.284
96655W        W58109  44.260  20.200  14.864
96656W        W58110  13.831  19.771   3.314
96657W        W58111  39.347   4.744   3.694
96658W        W58112  37.484  20.119  11.946
96659W        W58113  25.178  27.075   1.254
96660W        W58114  30.908  15.298   3.682
96661W        W58115  11.213   6.808   1.827
96662W        W58116  43.873   1.830   3.294
96663W        W58117  16.318  18.286   2.220
96664W        W58118  24.587   0.780   2.381
96665W        W58119  25.675  16.743  11.419
96666W        W58120  41.429  37.431   1.932
96667W        W58121  22.501  21.021   2.418
96668W        W58122  18.560  21.034   1.397
96669W        W58123  19.163  16.623  11.492
96670W        W58124  20.231  22.642  11.578
96671W        W58125  32.061  13.121  11.429
96672W        W58126  15.266   7.192  13.809
96673W        W58127  40.984  26.000  10.549
96674W        W58128  42.794  25.689  14.384
96675W        W58129   4.302  23.554  10.579
96676W        W58130  32.099  32.616  11.051
96677W        W58131   8.790  23.516  10.498
96678W        W58132  13.835  15.592   1.710
96679W        W58133  39.508   1.434   2.714
96680W        W58134  29.167  23.138   3.694
96681W        W58135  34.516   6.914   1.284
96682W        W58136  42.397  30.456   4.270
96683W        W58137  30.433  27.597  11.998
96684W        W58138  35.602  11.662   1.356
96685W        W58139  40.938  39.545   1.326
96686W        W58140   1.284  25.472   3.778
96687W        W58141  28.469  31.964  14.940
96688W        W58142  12.160  22.628  12.900
96689W        W58143   7.730  18.253  11.018
96690W        W58144  42.290  33.931   0.900
96691W        W58145  27.620   2.401   4.147
96692W        W58146  14.741  33.523   2.220
96693W        W58147  38.328  38.509   5.633
96694W        W58148   7.673  39.405   4.621
96695W        W58149  22.209  44.388  12.853
96696W        W58150  16.713  21.112  12.458
96697W        W58151  18.211  22.719   3.340
96698W        W58152  13.317   6.240   3.852
96699W        W58153   1.976  22.607   2.417
96700W        W58154  16.602  30.545   3.820
96701W        W58155  12.611   1.954  10.910
96702W        W58156   6.353  10.836   2.281
96703W        W58157  41.468  10.759   2.396
96704W        W58158   8.838  35.406  12.867
96705W        W58159  29.951   3.272  12.486
96706W        W58160  39.932   2.790   1.289
96707W        W58161  32.453  38.031  12.453
96708W        W58162  14.220   7.848   5.245
96709W        W58163   7.186  30.016  12.538
96710W        W58164  39.465  24.670   2.843
96711W        W58165  42.414  21.134  14.002
96712W        W58166   6.683   7.256  14.286
96713W        W58167  31.133  39.062  12.351
96714W        W58168   5.844  18.764   1.439
96715W        W58169  25.516  43.430  11.882
96716W        W58170  42.927   9.691  14.439
96717W        W58171   5.773  29.608   0.730
96718W        W58172  41.807  37.984  10.632
96719W        W58173  16.779  42.449  12.547
96720W        W58174  19.583  34.011   0.808
96721W        W58175  25.069  28.660  12.353
96722W        W58176  42.396  34.967  13.038
96723W        W58177  14.640  23.603  12.956
96724W        W58178  11.256  25.706  11.909
96725W        W58179  34.527  14.218  13.036
96726W        W58180  31.569  33.519   3.804
96727W        W58181  17.135  10.736   0.820
96728W        W58182  27.633  36.370  12.089
96729W        W58183   1.906   9.361  10.926
96730W        W58184  17.606  13.722  13.535
96731W        W58185   7.399   5.881   4.706
96732W        W58186   3.244  35.528  10.536
96733W        W58187   5.339  13.347  13.917
96734W        W58188  27.668  10.755   1.255
96735W        W58189  11.285   9.209  13.859
96736W        W58190  19.269   7.186  11.448
96737W        W58191  28.023   8.226  11.985
96738W        W58192   1.331  29.647   0.324
96739W        W58193  35.462  11.349   2.342
96740W        W58194  43.892  34.019  10.627
96741W        W58195  23.136   5.422  12.834
96742W        W58196  34.004   2.745   1.406
96743W        W58197  27.655  37.533   0.459
96744W        W58198  29.960  29.084   0.965
96745W        W58199  19.108  15.772  12.045
96746W        W58200  35.904  30.147   3.225
96747W        W58201  44.260   4.749  14.474
96748W        W58202  42.296  43.479   0.872
96749W        W58203  19.596  30.641   1.861
96750W        W58204  22.593  38.077  13.039
96751W        W58205  41.381  20.150   3.676
96752W        W58206  24.703   0.428  14.295
96753W        W58207  36.989  42.905  10.547
96754W        W58208  24.163  22.584   4.257
96755W        W58209   0.488  23.550   3.256
96756W        W58210  39.827  27.067   4.343
96757W        W58211  43.345   2.964  13.846
96758W        W58212  43.460  29.515  13.508
96759W        W58213   6.744  35.579   1.699
96760W        W58214   6.382  20.554   4.625
96761W        W58215  10.648  37.340   2.252
96762W        W58216  33.933  18.750  14.475
96763W        W58217   7.187   5.366   0.305
96764W        W58218  10.139  16.214   4.235
96765W        W58219  15.626  40.401   1.782
96766W        W58220  11.735  35.385  13.536
96767W        W58221  11.742  14.275   0.404
96768W        W58222  11.149  21.699  12.558
96769W        W58223  34.994  23.572   3.274
96770W        W58224  19.053  32.407   2.316
96771W        W58225  16.093  41.969   1.868
96772W        W58226  36.360  30.543  14.017
96773W        W58227  27.610  14.181   3.375
96774W        W58228  14.200  36.369   2.214
96775W        W58229  26.596  34.920   1.357
96776W        W58230   9.211   7.849   0.812
96777W        W58231  19.114  27.084  14.401
96778W        W58232   0.298  15.609   3.769
96779W        W58233  24.557   1.326   3.339
96780W        W58234  36.541   7.810  14.472
96781W        W58235  24.676  18.270  12.995
96782W        W58236   8.658  26.159  14.496
96783W        W58237  34.589   0.872  12.368
96784W        W58238  10.265  13.327   0.868
96785W        W58239  31.043  33.489   3.383
96786W        W58240  12.728  23.551   1.736
96787W        W58241  34.404  40.922  11.388
96788W        W58242  14.119  11.241   2.763
96789W        W58243  30.939  13.681   0.797
96790W        W58244  24.105  13.666   1.752
96791W        W58245  30.033  37.080   2.857
96792W        W58246   6.316  38.439  10.598
96793W        W58247  29.097  28.454  12.452
96794W        W58248  12.355  20.170   1.909
96795W        W58249  39.026  19.101  11.082
96796W        W58250  21.677  20.266  12.885
96797W        W58251  40.481  22.135  10.644
96798W        W58252  28.951  11.667  11.372
96799W        W58253  27.151  34.610  11.907
96800W        W58254  39.001  31.012  14.332
96801W        W58255  19.543  38.038   0.397
96802W        W58256  18.154  13.144   4.666
96803W        W58257  31.442  19.637  12.015
96804W        W58258  30.125  11.779   0.281
96805W        W58259  38.528  18.218   0.890
96806W        W58260  35.992  38.392  14.961
96807W        W58261  20.644   1.390   2.214
96808W        W58262  15.627  10.763   3.658
96809W        W58263   4.209  25.122  11.548
96810W        W58264  21.582  31.916  11.073
96811W        W58265  17.625   9.837   1.355
96812W        W58266   8.782  10.812  13.446
96813W        W58267  39.020  15.319   1.899
96814W        W58268  39.315   7.709   2.323
96815W        W58269  20.610  13.271  13.026
96816W        W58270  44.834  24.521   2.870
96817W        W58271  40.505  37.340   1.798
96818W        W58272  26.478  32.439  11.966
96819W        W58273   9.313  42.335  11.582
96820W        W58274  37.581  21.734  14.970
96821W        W58275  13.156  21.659   3.735
96822W        W58276  11.355  21.525  13.000
96823W        W58277   9.656  26.002  14.514
96824W        W58278  23.725  18.666   2.265
96825W        W58279  12.698  35.917   3.226
96826W        W58280  38.957   7.875   3.742
96827W        W58281   2.852  22.596  11.114
96828W        W58282  37.038  21.523   3.254
96829W        W58283  39.350  37.007   0.755
96830W        W58284  35.932  43.298   4.245
96831W        W58285  33.604  15.815   4.121
96832W        W58286  36.360  21.153  11.407
96833W        W58287   9.686  13.836   0.450
96834W        W58288  15.686   2.373   2.277
96835W        W58289  16.566  27.956  13.313
96836W        W58290  30.498  37.508  10.447
96837W        W58291  20.675  32.391   0.358
96838W        W58292   9.258   1.355  12.536
96839W        W58293  21.125  13.340   2.290
96840W        W58294  26.118   9.231  12.378
96841W        W58295  37.477  36.396  12.948
96842W        W58296  37.877  30.483  12.449
96843W        W58297  35.413  38.424   4.185
96844W        W58298  40.007  31.102   2.730
96845W        W58299  30.455  16.142   3.221
96846W        W58300   4.942  12.167  11.051
96847W        W58301  24.059   6.286  13.527
96848W        W58302  41.367  34.559   2.719
96849W        W58303  19.551  10.224  13.941
96850W        W58304   4.938   8.708   2.888
96851W        W58305  32.555  42.334  11.374
96852W        W58306  16.647  39.809  11.039
96853W        W58307  33.443  34.072  12.567
96854W        W58308  17.218   8.207  13.546
96855W        W58309  27.954  36.961  11.979
96856W        W58310   8.766  10.265   1.819
96857W        W58311  18.227  39.434   0.317
96858W        W58312   0.889  32.409   4.618
96859W        W58313   1.415  19.040   0.881
96860W        W58314  43.474   8.874  13.051
96861W        W58315   8.770  38.369   1.237
96862W        W58316  30.940  20.056   2.868
96863W        W58317  33.131   5.818   4.140
96864W        W58318   8.701  30.099  12.393
96865W        W58319   9.244  17.748  11.894
96866W        W58320   3.778  23.202   3.165
96867W        W58321  25.987  12.718  14.840
96868W        W58322  25.037   6.905  11.990
96869W        W58323  43.411   8.399  10.991
96870W        W58324   7.216  30.948   9.991
96871W        W58325   0.978  26.490  13.404
96872W        W58326  10.150  31.096  14.908
96873W        W58327  39.514   2.754  14.918
96874W        W58328   5.241   2.843  13.360
96875W        W58329  37.879  29.964  12.870
96876W        W58330  16.765  18.162  12.986
96877W        W58331  15.134  36.035  14.777
96878W        W58332  13.692  35.498   2.712
96879W        W58333  20.230  20.530  14.358
96880W        W58334  11.626   7.707   1.328
96881W        W58335  18.198   1.366   2.239
96882W        W58336  15.681  18.748  11.605
96883W        W58337  43.923   7.272  13.336
96884W        W58338  25.206  28.650   2.840
96885W        W58339  17.579  40.474   0.467
96886W        W58340  10.279  41.506   0.303
96887W        W58341  35.427  25.537   4.656
96888W        W58342  23.546  39.896   2.390
96889W        W58343  10.233  14.650  13.940
96890W        W58344  15.581  17.630   3.379
96891W        W58345  34.072  43.842   0.801
96892W        W58346  29.576  32.588   0.827
96893W        W58347  28.131  28.470  13.060
96894W        W58348  21.703   8.800  13.011
96895W        W58349   2.897  20.760  14.017
96896W        W58350  40.346   9.259  11.062
96897W        W58351  31.405  22.054  10.518
96898W        W58352   3.371  21.652   0.776
96899W        W58353  16.604  34.516  14.781
96900W        W58354   1.823  31.487  11.994
96901W        W58355  44.262  21.032  12.064
96902W        W58356  22.012  21.131  11.561
96903W        W58357  36.899  28.983   0.842
96904W        W58358  28.518  12.224   2.709
96905W        W58359  36.869  35.444  12.865
96906W        W58360  19.596  33.512  14.340
96907W        W58361  21.578  24.185   0.875
96908W        W58362   6.190  38.075   0.776
96909W        W58363  19.210  42.426  13.523
96910W        W58364  33.478  31.116  11.948
96911W        W58365  37.376   8.656   5.211
96912W        W58366  31.424  31.031  11.919
96913W        W58367  42.791  38.571  12.430
96914W        W58368  15.323   7.308  11.955
96915W        W58369   7.808  26.627   4.253
96916W        W58370   0.825  39.870   0.453
96917W        W58371  22.522  27.143   2.246
96918W        W58372  44.905   0.290  12.504
96919W        W58373  14.166  28.991   3.665
96920W        W58374  40.976  36.521  13.359
96921W        W58375   2.834  12.171  13.404
96922W        W58376  35.091   1.319   3.726
96923W        W58377  15.807  20.219  14.364
96924W        W58378  39.029   0.259  14.856
96925W        W58379   3.442  24.013   0.336
96926W        W58380   9.769  14.732   4.631
96927W        W58381  44.943  42.919   1.717
96928W        W58382  20.687  10.350   3.752
96929W        W58383   2.419   0.923  12.077
96930W        W58384  35.956  32.572   1.705
96931W        W58385  38.844  10.156   3.702
96932W        W58386  33.507  18.058   0.373
96933W        W58387  24.660  28.960   0.364
96934W        W58388  19.186  16.809   3.664
96935W        W58389   0.404   0.962  12.055
96936W        W58390  23.545  13.312  10.976
96937W        W58391   2.392  35.946   0.257
96938W        W58392  41.807  33.612  12.503
96939W        W58393  11.292  39.995   3.643
96940W        W58394  35.414  37.955   1.400
96941W        W58395   2.332  21.212  13.947
96942W        W58396  38.966  33.496   0.364
96943W        W58397  40.502  29.557   3.220
96944W        W58398  19.697   0.480   4.771
96945W        W58399  16.616  36.995   3.267
96946W        W58400  23.575  31.143   0.276
96947W        W58401   3.754  43.983   4.190
96948W        W58402   3.394  15.644  10.514
96949W        W58403  31.585  43.852  11.379
96950W        W58404   0.337  42.293  11.411
96951W        W58405   2.841   4.916   3.758
96952W        W58406  19.086   1.283   4.291
96953W        W58407  14.830  17.139   0.337
96954W        W58408  24.995  10.222   4.795
96955W        W58409   4.926   5.861  11.515
96956W        W58410  41.467  13.228   2.842
96957W        W58411  17.267  41.807   2.220
96958W        W58412  32.936   3.888   4.289
96959W        W58413  19.050  27.637  11.915
96960W        W58414  10.141   9.643   3.670
96961W        W58415  18.760   6.705   0.800
96962W        W58416  13.209  15.704  11.125
96963W        W58417   9.382  24.616  12.546
96964W        W58418  20.683  32.118   3.299
96965W        W58419  10.703  21.073  12.525
96966W        W58420   6.272  23.648   4.821
96967W        W58421  21.055  19.606  10.049
96968W        W58422  33.439   3.760  13.457
96969W        W58423   9.644   5.403  13.523
96970W        W58424   8.333  25.474  12.995
96971W        W58425  34.084   8.190   2.684
96972W        W58426  17.668  18.064   3.869
96973W        W58427   3.422  28.977   0.341
96974W        W58428  34.099   6.720  13.860
96975W        W58429  21.221  28.048   0.780
96976W        W58430  14.611  23.539   1.234
96977W        W58431  38.451  26.972  10.444
96978W        W58432  19.191  36.492  13.807
96979W        W58433   8.872  27.545  10.958
96980W        W58434  40.943   7.179  11.539
96981W        W58435  22.025   4.908  10.518
96982W        W58436  17.663  26.023  13.933
96983W        W58437   5.258  21.514   3.751
96984W        W58438  25.470  18.080   4.690
96985W        W58439  30.923  27.667   0.410
96986W        W58440  37.502   3.316   4.767
96987W        W58441  34.388  42.813   0.864
96988W        W58442  15.759  39.946   0.842
96989W        W58443  29.064  15.643   3.357
96990W        W58444  38.994  38.043   9.942
96991W        W58445  13.274   4.838   1.289
96992W        W58446  30.643  12.303   2.210
96993W        W58447  43.505  40.493  14.394
96994W        W58448  28.652  37.381  13.034
96995W        W58449  11.227   3.745   2.274
96996W        W58450  15.312   2.241  13.049
96997W        W58451   7.811  26.586   0.946
96998W        W58452   9.840  28.047   3.834
96999W        W58453   6.910  26.011  12.568
97000W        W58454   8.363  41.904   0.360
97001W        W58455  40.997  37.514   3.688
97002W        W58456  38.829  34.061   2.395
97003W        W58457   3.914  40.042  13.918
97004W        W58458  12.230  37.980   3.294
97005W        W58459  25.056  23.723  11.973
97006W        W58460  35.450  44.996   2.698
97007W        W58461   9.849  34.087  11.892
97008W        W58462  24.224  33.067   1.853
97009W        W58463  36.417  12.751   1.846
97010W        W58464   1.940  43.295  13.503
97011W        W58465  43.986  13.789  14.973
97012W        W58466  10.370  41.809  13.526
97013W        W58467  10.165  11.292   0.407
97014W        W58468  33.107  28.065  13.348
97015W        W58469  19.175  31.474   0.876
97016W        W58470  11.773  22.135   0.894
97017W        W58471  37.545  41.459  10.470
97018W        W58472   5.262  43.281  13.994
97019W        W58473  21.114  23.681   4.150
97020W        W58474   5.792   5.229  13.818
97021W        W58475  25.572   0.273  12.893
97022W        W58476  22.059  19.184   2.258
97023W        W58477  23.541  24.159   2.293
97024W        W58478   7.807  34.416  14.492
97025W        W58479  14.759  25.134   3.316
97026W        W58480  36.078  29.634   2.256
97027W        W58481   2.945  44.950  12.931
97028W        W58482  38.991  43.951  10.071
97029W        W58483  14.740  40.423  11.502
97030W        W58484  40.885  31.470   4.677
97031W        W58485   9.719  20.535  10.495
97032W        W58486   3.443  10.692  14.383
97033W        W58487  33.421  43.902  12.064
97034W        W58488  26.523  41.296   0.258
97035W        W58489  39.893  23.014   0.742
97036W        W58490   5.819  26.158   2.309
97037W        W58491  33.943   2.394  12.565
97038W        W58492   9.779  28.643  12.006
97039W        W58493  28.519  32.071  12.874
97040W        W58494  15.813  32.453  10.551
97041W        W58495   6.699  14.295  10.404
97042W        W58496   0.745  20.684  13.544
97043W        W58497  33.623  36.050   0.956
97044W        W58498   3.814  28.083   3.756
97045W        W58499   9.182  28.482  12.871
97046W        W58500  24.499  26.611  14.016
97047W        W58501   3.335   7.705  10.965
97048W        W58502  33.110  41.335  11.383
97049W        W58503  37.961  16.165  12.835
97050W        W58504  36.956   2.383   3.146
97051W        W58505  11.237  43.448  10.477
97052W        W58506   9.206  21.076   1.316
97053W        W58507  28.474  28.161   4.286
97054W        W58508  11.254  20.539   4.650
97055W        W58509  15.097  14.289  12.362
97056W        W58510  19.238  37.958  14.291
97057W        W58511  44.397  36.364  11.030
97058W        W58512  10.306  29.970  13.992
97059W        W58513  39.967  39.432  14.805
97060W        W58514  11.292  13.600  12.006
97061W        W58515  14.771  44.939  13.427
97062W        W58516  28.996   7.896   0.301
97063W        W58517  28.611  30.450  12.857
97064W        W58518   2.849   6.251   3.735
97065W        W58519  12.634  10.168  13.909
97066W        W58520  37.384  38.325   0.839
97067W        W58521  21.071   7.697   1.767
97068W        W58522  24.211  22.030  14.998
97069W        W58523  29.958  24.647  11.512
97070W        W58524  37.854  21.247   3.316
97071W        W58525  28.470   1.835  12.841
97072W        W58526   4.350  44.483   2.685
97073W        W58527  39.509  26.462  11.924
97074W        W58528  18.722  22.207  12.485
97075W        W58529  41.537  31.536  14.894
97076W        W58530  29.482  28.011  11.857
97077W        W58531  44.425  10.691   2.200
97078W        W58532   3.316  11.684  14.821
97079W        W58533  32.475  40.438   0.926
97080W        W58534  22.581  38.446  13.954
97081W        W58535  37.352  32.603   1.695
97082W        W58536  34.589  17.107  14.433
97083W        W58537  23.702  43.926  14.303
97084W        W58538  21.629  18.787  14.478
97085W        W58539  38.469  16.650  11.934
97086W        W58540  43.287  23.566  14.363
97087W        W58541  39.441  23.133   4.673
97088W        W58542  31.427   3.853   1.315
97089W        W58543   6.689   1.741   0.367
97090W        W58544  29.061  21.526   2.762
97091W        W58545   4.275  35.552   0.279
97092W        W58546  32.951  42.815  12.060
97093W        W58547   4.343  44.811   2.290
97094W        W58548  20.185  10.218   1.874
97095W        W58549  14.176  23.594   1.935
97096W        W58550  34.397  29.943   2.244
97097W        W58551  16.263  11.269   1.441
97098W        W58552  27.089  13.126  13.403
97099W        W58553  31.460  12.320  12.439
97100W        W58554  32.890  14.666   0.352
97101W        W58555  20.124  12.740  13.340
97102W        W58556  11.220  27.532   0.903
97103W        W58557  32.897  33.013   0.958
97104W        W58558  26.067  23.702  11.385
97105W        W58559  31.052  15.083  14.383
97106W        W58560  20.587  41.845  12.417
97107W        W58561  14.170  43.849  12.004
97108W        W58562  25.175  38.923  14.024
97109W        W58563  36.874  13.663  11.998
97110W        W58564   1.961  18.661  11.603
97111W        W58565  17.771  29.063  13.851
97112W        W58566  39.936  38.386   1.897
97113W        W58567   3.401  13.761  11.554
97114W        W58568  30.642   6.373   0.323
97115W        W58569  21.173   2.917  12.412
97116W        W58570  32.007  25.056  11.577
97117W        W58571  19.171   0.292   3.357
97118W        W58572  39.003  26.120   2.720
97119W        W58573  15.630  29.023  14.970
97120W        W58574   8.353  43.468  14.466
97121W        W58575   7.714  38.510   3.814
97122W        W58576  14.188  34.870  12.566
97123W        W58577  44.846  18.642  13.929
97124W        W58578   3.909  26.064  13.019
97125W        W58579  26.544  42.977  14.358
97126W        W58580  20.188   5.781   4.298
97127W        W58581  36.968  33.555  11.884
97128W        W58582  42.962  22.681  14.978
97129W        W58583  29.034  25.092   0.880
97130W        W58584  25.204  14.793   2.812
97131W        W58585  44.408  26.204   0.880
97132W        W58586  15.779  17.598  12.504
97133W        W58587   7.715  33.015  13.402
97134W        W58588  16.805  15.105   0.934
97135W        W58589   5.375  18.732   2.201
97136W        W58590  11.255  12.345  14.830
97137W        W58591  43.770  22.746   4.600
97138W        W58592   1.337   5.881  14.992
97139W        W58593  27.456  29.583  13.834
97140W        W58594  34.963  12.121  12.564
97141W        W58595  34.865  37.022  12.960
97142W        W58596   2.914  28.582   0.355
97143W        W58597  26.183  36.085  14.476
97144W        W58598  10.197  33.568   4.779
97145W        W58599   3.724  17.608  13.429
97146W        W58600  17.677  16.160   0.876
97147W        W58601  27.960  42.380  12.912
97148W        W58602  31.047  40.313  10.035
97149W        W58603  32.583  41.439  14.019
97150W        W58604  39.979  24.105   0.325
97151W        W58605  10.668  17.234   4.834
97152W        W58606  20.223   5.430   0.908
97153W        W58607  15.762  13.757   3.218
97154W        W58608  10.312  16.177   3.305
97155W        W58609  35.918  32.530  11.108
97156W        W58610  36.015  17.113   1.444
97157W        W58611  34.579   0.743   0.446
97158W        W58612  35.434   5.258  13.031
97159W        W58613   1.327   0.383  13.415
97160W        W58614  25.028  18.627   2.245
97161W        W58615   2.322  20.154   4.610
97162W        W58616  33.942  42.306   1.403
97163W        W58617  44.475  31.143   2.788
97164W        W58618  19.655   4.714  12.920
97165W        W58619  44.452   2.967   0.371
97166W        W58620  43.013  40.989  13.360
97167W        W58621  36.044  34.978  12.865
97168W        W58622   0.287   5.839   2.753
97169W        W58623   5.389  31.554   1.281
97170W        W58624  15.184  27.582   1.394
97171W        W58625  42.020  11.818   4.722
97172W        W58626  13.206  22.649  10.147
97173W        W58627  32.104  31.573   2.778
97174W        W58628   4.930   2.449  12.836
97175W        W58629  21.130  34.988   1.811
97176W        W58630  23.620  26.688  13.035
97177W        W58631  31.963   3.916  11.107
97178W        W58632  44.801  25.136  11.524
97179W        W58633  12.273  18.654  12.571
97180W        W58634   1.883  12.179   4.192
97181W        W58635  21.631  42.837  11.006
97182W        W58636  13.640  18.748  13.353
97183W        W58637  38.966  38.478   5.711
97184W        W58638   1.332  32.435  14.484
97185W        W58639  37.536  11.139  11.542
97186W        W58640  33.965  32.022  13.334
97187W        W58641  19.115   0.953   3.246
97188W        W58642   9.662  17.154  10.068
97189W        W58643  43.818   2.868   1.435
97190W        W58644  42.875   5.759   1.214
97191W        W58645   8.229  39.505  11.957
97192W        W58646  13.336  36.415  13.024
97193W        W58647  24.090  18.251  14.434
97194W        W58648  29.928  36.952   3.852
97195W        W58649  33.086  37.033  13.924
97196W        W58650  13.120   9.367   4.708
97197W        W58651  23.717  29.087   3.703
97198W        W58652  42.383  22.680   3.702
97199W        W58653  36.556   2.733   2.198
97200W        W58654  18.275  18.755  11.401
97201W        W58655   0.449   8.369  12.971
97202W        W58656  23.629  38.031  12.862
97203W        W58657  18.687  30.135   3.378
97204W        W58658   3.286  35.001   1.812
97205W        W58659  32.572  33.435   3.741
97206W        W58660  27.545  35.888  12.080
97207W        W58661  29.958   9.822  11.532
97208W        W58662  34.404  24.558  11.984
97209W        W58663   0.787  19.229  11.595
97210W        W58664  16.689   8.779  13.976
97211W        W58665  22.996  37.901   2.838
97212W        W58666  39.061  10.874   1.378
97213W        W58667  26.578  10.145   0.356
97214W        W58668  25.087   0.467  12.546
97215W        W58669  21.247  31.406   3.689
97216W        W58670  17.556  41.867  10.521
97217W        W58671  26.577   7.778   4.667
97218W        W58672  21.177  32.492  12.000
97219W        W58673  33.084  43.498  11.513
97220W        W58674  30.558   9.387   1.910
97221W        W58675  41.874   5.409   3.319
97222W        W58676  25.092  22.999   4.253
97223W        W58677  34.914  28.001  12.919
97224W        W58678  33.979  23.631   2.253
97225W        W58679   1.900  40.498   0.310
97226W        W58680  30.078  25.153   2.728
97227W        W58681  43.270  13.229  14.414
97228W        W58682  22.239  16.227   4.255
97229W        W58683   5.225  18.214  13.880
97230W        W58684  16.669  25.617   1.328
97231W        W58685  21.230  27.071   5.196
97232W        W58686  28.118  41.537  10.084
97233W        W58687   3.264   4.706  12.933
97234W        W58688  28.638  29.109  13.938
97235W        W58689  35.858  40.500   9.566
97236W        W58690  11.798  32.485  11.546
97237W        W58691  17.078  26.616  13.397
97238W        W58692  24.507  20.083   1.718
97239W        W58693   4.940  35.477   4.316
97240W        W58694  12.177  19.664   2.289
97241W        W58695  26.689   5.315  10.564
97242W        W58696  19.659  22.047  13.334
97243W        W58697  35.858  20.140   4.299
97244W        W58698  23.677  17.193   4.153
97245W        W58699  38.919  35.376   1.747
97246W        W58700   4.210  16.280  11.376
97247W        W58701  30.436  31.499   3.694
97248W        W58702  43.362  20.248   1.738
97249W        W58703  17.735  11.267  10.499
97250W        W58704  15.611   3.328   3.799
97251W        W58705  12.170  44.799   0.352
97252W        W58706  30.963  35.511   1.849
97253W        W58707  18.208  33.526  14.765
97254W        W58708  16.574   0.314   1.274
97255W        W58709  13.208  43.884  14.880
97256W        W58710  12.825  27.195  14.478
97257W        W58711  21.150   5.214   4.143
97258W        W58712  22.076  27.196  14.317
97259W        W58713   6.247  20.058  13.793
97260W        W58714  23.665  44.337  13.537
97261W        W58715  18.139  24.019   0.284
97262W        W58716  35.859  38.391  13.040
97263W        W58717  16.608  32.560   4.205
97264W        W58718  41.485  40.402   2.304
97265W        W58719  17.768   6.266   1.242
97266W        W58720   1.771  40.481   4.707
97267W        W58721  44.442   4.866  12.427
97268W        W58722  12.268  24.085  14.029
97269W        W58723  31.060  43.270   4.348
97270W        W58724   1.423  24.123   4.122
97271W        W58725  21.578  28.058   4.179
97272W        W58726  14.636   3.934   0.736
97273W        W58727  10.160  32.048   3.348
97274W        W58728  21.660  38.917   9.970
97275W        W58729  13.639  25.481   0.345
97276W        W58730  37.500   0.862  12.823
97277W        W58731  31.936  42.407   1.709
97278W        W58732  12.232  16.103  10.055
97279W        W58733  37.015  13.219   0.421
97280W        W58734  14.825  39.454   2.754
97281W        W58735   5.419  21.621  13.859
97282W        W58736  40.027  44.990   4.237
97283W        W58737  12.329  36.002  13.888
97284W        W58738   7.706  27.165  11.962
97285W        W58739  12.815  37.359   5.221
97286W        W58740  37.863   7.792  12.960
97287W        W58741   1.928  30.918   2.860
97288W        W58742   4.700   6.260   5.250
97289W        W58743  16.097  38.897   5.261
97290W        W58744  25.589   5.377  14.369
97291W        W58745  29.036  11.279  14.938
97292W        W58746  16.662  19.081   0.437
97293W        W58747   1.483  42.312   2.843
97294W        W58748   2.848  44.766  11.053
97295W        W58749   6.224  13.116  10.521
97296W        W58750  14.190   1.247   4.164
97297W        W58751  37.425  21.102  10.596
97298W        W58752   2.857  12.252  12.350
97299W        W58753   5.407  38.392   2.835
97300W        W58754  17.096  17.625  14.934
97301W        W58755  29.029   2.720  12.366
97302W        W58756  41.888  10.792  13.442
97303W        W58757  10.747  34.599  14.437
97304W        W58758  33.065  19.651   0.815
97305W        W58759   9.262   1.457   2.841
97306W        W58760  20.093  29.432   1.712
97307W        W58761  21.093   9.280  14.983
97308W        W58762  44.396  20.077   4.686
97309W        W58763  12.261   5.263  10.528
97310W        W58764  33.069  20.260   1.232
97311W        W58765  28.598  11.814   5.292
97312W        W58766   2.429  30.984  12.913
97313W        W58767  32.105  37.528   2.811
97314W        W58768   2.302  17.306   0.419
97315W        W58769   6.910   0.325   1.751
97316W        W58770  35.914  28.173  14.408
97317W        W58771  19.571  40.487  12.471
97318W        W58772  26.997   4.941  13.810
97319W        W58773  21.608   8.738   3.276
97320W        W58774  15.731  39.525  13.416
97321W        W58775   5.910   4.420   0.482
97322W        W58776  14.292  15.246   1.848
97323W        W58777  13.258  11.629   2.270
97324W        W58778  32.085  11.841   2.696
97325W        W58779  21.033  14.100  11.406
97326W        W58780  38.957  11.287   0.430
97327W        W58781  29.586   5.193  12.014
97328W        W58782  20.589  28.121   1.761
97329W        W58783  24.075  14.319   4.139
97330W        W58784  18.132  29.974   1.812
97331W        W58785  21.576  21.578   0.729
97332W        W58786   5.859   1.383  14.768
97333W        W58787  37.971   7.705   0.298
97334W        W58788  20.033  18.129   3.633
97335W        W58789  41.336  37.431  12.521
97336W        W58790  41.915  41.833  12.344
97337W        W58791  34.523  39.530  13.437
97338W        W58792  37.963  40.874  14.467
97339W        W58793  41.438  28.140   1.733
97340W        W58794  30.542  41.349  13.533
97341W        W58795   8.670  20.067  11.931
97342W        W58796   6.193  25.542   3.241
97343W        W58797   0.877  37.516   0.853
97344W        W58798  18.652  26.971   0.305
97345W        W58799  21.107  34.900   4.779
97346W        W58800  35.376   1.842   0.373
97347W        W58801  31.599  43.887  13.919
97348W        W58802  15.695  31.059   2.252
97349W        W58803   8.277  40.308  11.501
97350W        W58804  37.360  38.487  14.277
97351W        W58805  34.443  22.211  12.368
97352W        W58806  35.474  33.451   3.771
97353W        W58807   1.957   8.744   1.282
97354W        W58808  32.518   4.811   2.391
97355W        W58809  38.379  36.426  13.528
97356W        W58810  38.021  17.574  11.454
97357W        W58811  33.586  11.161  10.892
97358W        W58812  35.079  26.583  14.448
97359W        W58813  37.858  20.766   2.749
97360W        W58814  33.878  38.515   3.182
97361W        W58815  12.321   5.763   2.410
97362W        W58816   4.294  31.016  11.032
97363W        W58817   5.372  37.496  11.972
97364W        W58818  35.856   6.823  13.514
97365W        W58819   3.349  23.147  11.077
97366W        W58820  34.435  11.744   4.162
97367W        W58821  21.146   4.841  11.912
97368W        W58822  34.513   5.287  10.449
97369W        W58823  31.595  13.645   2.334
97370W        W58824  26.175   5.836  14.894
97371W        W58825   7.408  34.425   1.774
97372W        W58826  26.523  14.609   4.616
97373W        W58827  13.105  37.873  14.817
97374W        W58828  26.528  43.294  12.955
97375W        W58829  14.272  24.697   1.706
97376W        W58830   2.882  20.147   4.338
97377W        W58831   9.823   4.784   3.795
97378W        W58832  22.683  40.019   4.808
97379W        W58833  18.692   6.188   4.647
97380W        W58834  26.111  36.489  11.476
97381W        W58835   5.893  10.826   2.358
97382W        W58836  42.286  10.209  13.432
97383W        W58837  33.554   8.302  10.952
97384W        W58838   9.235  10.174   3.376
97385W        W58839  12.136   0.916  11.097
97386W        W58840  28.495   5.741   4.268
97387W        W58841  12.128   8.852  10.997
97388W        W58842  31.019  32.474  12.563
97389W        W58843  24.604   7.868  12.924
97390W        W58844  42.524  43.843  12.347
97391W        W58845  36.854   4.867  12.546
97392W        W58846  13.651  19.210   2.406
97393W        W58847  29.039  35.910   0.742
97394W        W58848  41.315  38.076   3.276
97395W        W58849  22.209   5.427   4.666
97396W        W58850  42.847  24.642   0.271
97397W        W58851  34.053  32.009   4.194
97398W        W58852  44.449  25.621  11.407
97399W        W58853  34.975  27.583   1.418
97400W        W58854  39.808   6.861   3.183
97401W        W58855  18.227  23.540   0.477
97402W        W58856  16.158  40.938   1.249
97403W        W58857  21.599  34.563   0.944
97404W        W58858  15.722  39.527   2.285
97405W        W58859  40.470  23.086   0.408
97406W        W58860  43.285  36.584  10.986
97407W        W58861  10.212  28.182   1.915
97408W        W58862   2.278  31.136   3.826
97409W        W58863  41.373  21.584  12.961
97410W        W58864  21.647  43.456   0.339
97411W        W58865  32.923  41.884  12.373
97412W        W58866  42.343  19.745  14.316
97413W        W58867  44.846  26.692   0.282
97414W        W58868  44.446  21.071   9.970
97415W        W58869  14.651  21.667   0.914
97416W        W58870  16.238  13.204   2.815
97417W        W58871  18.641  24.546   2.892
97418W        W58872  43.766  44.977  11.043
97419W        W58873  23.172  20.106   1.697
97420W        W58874   0.811   0.275  13.860
97421W        W58875  10.286  42.910  13.906
97422W        W58876  13.659  30.056  12.862
97423W        W58877   6.195  15.626   2.894
97424W        W58878   5.323  12.243  13.901
97425W        W58879  22.998   5.733   0.373
97426W        W58880  36.412  22.598  12.478
97427W        W58881  30.093   1.352   4.331
97428W        W58882   2.884  12.286  13.046
97429W        W58883  23.032   6.270   4.693
97430W        W58884  36.931   8.781   1.896
97431W        W58885   1.757   5.802  12.578
97432W        W58886  12.285  26.062  11.017
97433W        W58887  29.009  12.844   2.211
97434W        W58888  40.903  24.708  12.577
97435W        W58889   5.862  34.953   1.220
97436W        W58890  19.572   3.301   4.779
97437W        W58891  42.426  16.656  12.545
97438W        W58892  42.016  36.886  14.498
97439W        W58893  10.191  32.978  14.492
97440W        W58894  25.059   7.871  14.332
97441W        W58895  42.864  14.295  12.417
97442W        W58896  33.491  44.266   1.717
97443W        W58897  42.836  25.468  11.567
97444W        W58898  22.695   0.916  10.428
97445W        W58899   0.373  40.475   1.810
97446W        W58900  23.650  39.975   4.623
97447W        W58901  27.166  15.607   2.764
97448W        W58902  34.871  40.851  12.462
97449W        W58903   9.653  37.343  13.528
97450W        W58904  24.685  14.297  10.590
97451W        W58905  24.226  20.717   3.749
97452W        W58906   4.924  15.764  10.146
97453W        W58907  12.276  24.613   4.247
97454W        W58908  13.826  26.178  13.042
97455W        W58909   8.870   6.353   3.701
97456W        W58910  21.548   6.195  11.597
97457W        W58911  40.042   0.933  10.894
97458W        W58912   6.392   3.846  13.847
97459W        W58913  38.419  29.511  14.385
97460W        W58914   6.733  34.017   2.861
97461W        W58915  11.836   7.321  13.945
97462W        W58916  42.485  27.993   0.466
97463W        W58917  42.982   2.442  12.506
97464W        W58918   6.682   6.890   0.299
97465W        W58919  17.704  44.974  14.973
97466W        W58920  30.136   1.860   3.299
97467W        W58921   0.844   2.889   0.782
97468W        W58922  12.830  16.295   2.302
97469W        W58923  41.501   1.756   1.783
97470W        W58924   3.784   7.687   0.748
97471W        W58925  39.937  37.399  14.773
97472W        W58926  37.339  19.220  12.015
97473W        W58927  29.489  32.606   2.317
97474W        W58928  32.021  30.524   1.764
97475W        W58929   3.460   9.194  10.570
97476W        W58930  15.244  23.551   3.682
97477W        W58931  20.675  23.692  10.459
97478W        W58932  41.879  30.548  11.604
97479W        W58933  43.939  21.185   3.786
97480W        W58934  44.438  18.058   1.874
97481W        W58935  22.017  27.078   4.211
97482W        W58936  14.654   3.928  11.117
97483W        W58937  23.630  36.916  13.891
97484W        W58938  10.198  13.279   5.272
97485W        W58939   8.872  43.966   1.268
97486W        W58940   8.692   4.881   4.137
97487W        W58941  20.049   8.664  13.441
97488W        W58942   8.276   9.667   3.630
97489W        W58943  11.858  41.913  13.944
97490W        W58944  29.952   3.926   2.324
97491W        W58945  32.504  33.608  10.447
97492W        W58946  43.769  34.457   1.303
97493W        W58947  16.199   7.818   1.814
97494W        W58948  15.201   4.700   0.411
97495W        W58949  39.045  30.435   2.291
97496W        W58950   3.320  23.573  10.520
97497W        W58951  27.538  12.738  13.911
97498W        W58952  27.477  10.163   1.926
97499W        W58953  34.477   9.270   4.283
97500W        W58954  30.033   1.478  13.368
97501W        W58955   3.365  36.524  14.972
97502W        W58956  42.387  29.575   4.313
97503W        W58957  35.017   4.898   2.737
97504W        W58958   7.238   7.702  11.067
97505W        W58959  36.469  12.270  11.494
97506W        W58960   5.430  17.233   2.296
97507W        W58961  43.887  35.075   3.633
97508W        W58962  34.557  21.151  12.414
97509W        W58963   6.298  24.187   2.710
97510W        W58964  27.069   2.370  12.401
97511W        W58965   7.866  34.453   0.323
97512W        W58966  37.494  42.408  11.374
97513W        W58967  27.027  38.893   4.631
97514W        W58968  31.515  32.614  13.927
97515W        W58969  42.499  11.779  13.922
97516W        W58970  32.586   2.823   2.245
97517W        W58971  41.308  22.569  11.513
97518W        W58972  31.917  23.728  12.568
97519W        W58973  22.149  15.095  13.531
97520W        W58974  43.886  44.486   2.877
97521W        W58975  40.504  21.017  13.446
97522W        W58976   3.890  22.229   4.761
97523W        W58977   1.278  34.463  10.616
97524W        W58978  43.768   8.666   2.723
97525W        W58979  26.474  30.423   5.166
97526W        W58980  30.425  10.682   3.789
97527W        W58981  43.776  32.518  12.529
97528W        W58982  32.986   6.778   0.832
97529W        W58983  39.506  21.238   4.298
97530W        W58984  44.822   4.419  13.988
97531W        W58985   3.315   5.294  11.462
97532W        W58986   2.388   0.876   4.132
97533W        W58987  35.539  32.535  11.393
97534W        W58988   7.871  21.629   4.669
97535W        W58989  11.140  10.752  13.360
97536W        W58990   7.353  43.846   4.644
97537W        W58991  11.132   9.645   4.276
97538W        W58992  44.374  41.972  12.397
97539W        W58993  23.621   7.307   2.889
97540W        W58994  42.367  13.270  10.456
97541W        W58995  18.693  42.520   4.190
97542W        W58996  35.055  34.901   2.803
97543W        W58997  35.948  29.129  12.094
97544W        W58998  41.323  10.306  13.463
97545W        W58999  23.103   9.827  11.473
97546W        W59000   6.705  25.570   2.315
97547W        W59001  35.543  23.545  14.003
97548W        W59002  31.513  15.122   4.169
97549W        W59003  29.638  38.455   0.293
97550W        W59004  10.679  31.519  11.085
97551W        W59005   7.386   6.830  12.080
97552W        W59006  18.767  39.029   9.967
97553W        W59007  40.368  26.107   1.277
97554W        W59008  22.063  17.073  10.565
97555W        W59009  25.706  16.685  12.827
97556W        W59010   6.711  20.043  12.449
97557W        W59011  29.129  38.949   4.225
97558W        W59012  36.066   2.409   2.187
97559W        W59013  17.305  24.198  11.066
97560W        W59014  38.990  26.189  10.575
97561W        W59015  35.453  22.020   1.240
97562W        W59016   5.737  44.468  14.311
97563W        W59017  12.196  15.703  13.910
97564W        W59018  35.492  24.553  14.884
97565W        W59019   7.181  34.473   0.259
97566W        W59020  24.636  32.414  12.517
97567W        W59021   9.708  28.436   2.838
97568W        W59022  35.874  26.023   0.424
97569W        W59023  22.192   8.787  11.014
97570W        W59024  19.066  26.101  13.528
97571W        W59025  19.180  13.126  10.475
97572W        W59026  26.998  19.607   3.864
97573W        W59027  37.359  12.851   2.886
97574W        W59028  36.026   6.880   2.218
97575W        W59029  41.447  37.919  10.509
97576W        W59030  23.582  30.980   3.233
97577W        W59031  18.291  13.244  12.353
97578W        W59032  34.562   6.728   3.370
97579W        W59033   6.729  28.632   2.728
97580W        W59034   7.234  24.201   0.324
97581W        W59035  40.502  42.442   4.113
97582W        W59036  41.492  35.507  13.357
97583W        W59037  25.694  27.033   4.166
97584W        W59038   4.793  21.575  12.524
97585W        W59039   5.756  21.049  13.817
97586W        W59040   2.368  40.411  12.423
97587W        W59041  20.748  24.662  13.478
97588W        W59042   5.211  40.966  12.418
97589W        W59043  25.600  20.703  10.598
97590W        W59044  34.533  30.040  12.389
97591W        W59045   1.264   2.941   0.940
97592W        W59046  12.297  31.925  12.958
97593W        W59047  41.381  25.473  14.506
97594W        W59048  10.313  39.530  13.795
97595W        W59049   4.805  24.601  14.963
97596W        W59050  16.639  26.690   1.836
97597W        W59051  14.301  18.179  10.084
97598W        W59052  23.175  37.500  11.875
97599W        W59053  26.987   5.218   1.767
97600W        W59054  30.476  29.130  10.578
97601W        W59055  17.773   8.378  12.003
97602W        W59056  31.403  21.254  11.030
97603W        W59057   9.252  30.579  11.521
97604W        W59058  34.037  41.028  11.463
97605W        W59059   5.206   5.803   2.318
97606W        W59060  22.526  27.611   2.265
97607W        W59061  32.453  22.126   4.242
97608W        W59062  11.245  21.614   1.420
97609W        W59063  24.076  17.277  10.053
97610W        W59064  19.243  38.919  14.335
97611W        W59065  10.795   8.205   4.340
97612W        W59066  11.694  11.728   3.151
97613W        W59067  44.300  23.009   0.961
97614W        W59068   6.268   5.702   2.707
97615W        W59069   4.716  44.922  12.017
97616W        W59070  31.465  28.483  13.361
97617W        W59071  43.313  13.116   4.675
97618W        W59072   5.913  29.029  13.858
97619W        W59073  16.692  20.260  11.391
97620W        W59074  42.442  14.273   3.664
97621W        W59075  12.838   9.852  12.987
97622W        W59076   1.908  10.145  14.959
97623W        W59077  40.402  16.688   4.139
97624W        W59078   9.293  35.543  11.053
97625W        W59079  30.515  27.180  13.050
97626W        W59080  25.191   3.376  12.351
97627W        W59081  34.033  26.079   4.632
97628W        W59082  36.949  31.547  10.553
97629W        W59083   8.668  43.427   3.227
97630W        W59084   1.480  36.556  10.895
97631W        W59085  29.058  24.630  12.344
97632W        W59086  34.542  33.491   1.701
97633W        W59087  30.577  41.796   2.864
97634W        W59088  23.985  35.959   1.219
97635W        W59089  26.489  18.257   2.254
97636W        W59090  32.507   3.715   2.222
97637W        W59091  15.291  32.498  11.472
97638W        W59092   8.360  17.666   3.175
97639W        W59093  39.991  27.636  14.499
97640W        W59094  41.447  40.333  13.416
97641W        W59095   7.853  22.740  13.021
97642W        W59096   4.772  32.930  13.963
97643W        W59097  29.579  32.515   1.870
97644W        W59098  17.108   4.358  10.433
97645W        W59099   5.240   8.723  12.485
97646W        W59100  26.199   6.206   3.828
97647W        W59101  32.495  19.548   4.792
97648W        W59102   3.226  15.236  12.421
97649W        W59103  13.738  22.500   4.610
97650W        W59104  19.101   0.317   4.306
97651W        W59105  40.915  20.652  14.921
97652W        W59106   9.696  19.664   4.333
97653W        W59107  26.045  34.580  14.414
97654W        W59108  35.969  14.179   3.206
97655W        W59109  23.153  15.302   2.797
97656W        W59110  22.588  14.144   0.470
97657W        W59111  29.549  43.493  13.031
97658W        W59112  44.879  43.330   2.387
97659W        W59113  33.963  11.297  14.910
97660W        W59114  24.050   9.167  10.992
97661W        W59115   3.837   8.880   4.341
97662W        W59116  44.936  26.494   1.264
97663W        W59117  43.430   4.711   3.297
97664W        W59118  25.061  28.066   3.705
97665W        W59119  38.849  29.129   4.333
97666W        W59120  35.081   1.433  11.987
97667W        W59121  12.799  44.417  12.858
97668W        W59122  44.269  35.012  11.410
97669W        W59123   8.728  25.074  13.857
97670W        W59124  42.518  12.674   0.462
97671W        W59125   4.886  25.992   4.635
97672W        W59126   0.479  29.985  14.360
97673W        W59127  26.474   1.933  12.475
97674W        W59128  24.571  34.402   1.302
97675W        W59129  33.880  32.081   4.779
97676W        W59130  21.089  22.641  12.473
97677W        W59131  28.050  27.687  12.083
97678W        W59132  28.458  24.093  14.816
97679W        W59133  15.236  32.627  14.407
97680W        W59134  44.301  36.571  13.441
97681W        W59135   3.788  38.048   0.924
97682W        W59136   1.303  24.671   2.735
97683W        W59137  35.889  17.719  11.918
97684W        W59138   0.758  30.508   2.825
97685W        W59139  38.427  12.659   2.813
97686W        W59140  15.793  27.949   3.178
97687W        W59141  39.997  42.026  11.538
97688W        W59142  17.626  36.496  14.390
97689W        W59143  30.075  20.246   4.746
97690W        W59144  42.811  40.938  13.925
97691W        W59145  29.121  10.710   2.689
97692W        W59146   9.650  42.786   3.157
97693W        W59147  34.087  25.529   0.914
97694W        W59148  38.870   1.919   2.226
97695W        W59149  30.613  41.989  12.522
97696W        W59150   0.286  32.911   2.815
97697W        W59151  19.553  31.462   1.906
97698W        W59152  34.430   1.943   0.303
97699W        W59153  28.547  27.079   0.432
97700W        W59154  26.599  38.564  14.832
97701W        W59155  37.391  41.443   2.328
97702W        W59156   1.757   2.874  14.978
97703W        W59157  22.678  10.346  14.400
97704W        W59158   6.880  44.977   4.653
97705W        W59159  18.785  17.760  12.493
97706W        W59160  26.057  10.756   4.168
97707W        W59161  12.677   6.345   1.713
97708W        W59162  21.618  40.950   2.688
97709W        W59163   8.806  36.070   1.747
97710W        W59164  26.186   1.333  12.395
97711W        W59165  20.687  43.858  14.799
97712W        W59166  29.609  43.411   2.248
97713W        W59167  36.085  29.531   1.342
97714W        W59168  25.569  23.227   5.609
97715W        W59169  27.165  16.260  12.958
97716W        W59170   3.792   5.753  13.824
97717W        W59171  42.431  37.439   2.402
97718W        W59172  18.714  40.003   2.199
97719W        W59173  36.352  41.974  11.523
97720W        W59174  14.620  26.645   4.262
97721W        W59175  38.893  14.094  13.060
97722W        W59176  16.238  31.983   1.747
97723W        W59177   4.761  31.918   3.251
97724W        W59178  17.619  15.128  10.462
97725W        W59179  22.074   7.676  10.036
97726W        W59180  12.129  32.994  14.506
97727W        W59181  37.888  23.729   9.970
97728W        W59182   8.359  29.559   3.270
97729W        W59183  10.640   8.889  11.423
97730W        W59184  40.884  29.546   2.762
97731W        W59185  29.039  41.536   1.443
97732W        W59186  14.334  42.994  11.927
97733W        W59187  10.144  34.569  12.935
97734W        W59188   9.751  12.176   1.381
97735W        W59189  33.927  41.331   2.705
97736W        W59190  40.906  15.138   3.162
97737W        W59191  44.936  30.936   4.253
97738W        W59192  34.485   0.339   4.319
97739W        W59193  10.373  22.535   4.275
97740W        W59194  35.068  12.670   1.221
97741W        W59195  10.274  28.109   0.420
97742W        W59196  11.866   9.714   3.751
97743W        W59197   4.817  11.710   5.278
97744W        W59198  14.649  38.486  14.337
97745W        W59199  32.897  20.178  13.940
97746W        W59200   0.844  31.068  14.000
97747W        W59201  22.210  21.522  11.514
97748W        W59202  22.632   5.360  12.010
97749W        W59203  18.566  29.985  11.125
97750W        W59204   8.333  37.864   4.795
97751W        W59205  20.166  16.146  13.404
97752W        W59206   9.206  14.805   3.377
97753W        W59207  43.302  20.203  14.474
97754W        W59208   4.399  41.387   0.321
97755W        W59209  39.985  31.619   2.178
97756W        W59210  23.590  38.914  13.900
97757W        W59211  42.012  43.271  12.559
97758W        W59212  38.861  20.210   2.311
97759W        W59213  28.588  41.507  13.345
97760W        W59214  31.569  34.430   5.742
97761W        W59215  18.076   6.341  11.377
97762W        W59216   0.825   7.175  11.114
97763W        W59217  44.914   6.191   4.728
97764W        W59218  31.072  35.109   9.591
97765W        W59219  15.688  18.572  13.902
97766W        W59220  43.770  25.053  13.424
97767W        W59221   9.194  18.775   4.724
97768W        W59222  26.606  19.642   1.313
97769W        W59223   2.808  30.503  14.787
97770W        W59224   7.862  16.698   0.819
97771W        W59225  25.553  14.670   4.251
97772W        W59226  30.644  24.182   3.868
97773W        W59227   7.696  18.171  14.310
97774W        W59228  24.636   7.205  11.035
97775W        W59229   0.786  35.887  13.378
97776W        W59230   1.897  24.614  13.815
97777W        W59231   7.218  41.936   2.706
97778W        W59232  26.966  28.035   0.391
97779W        W59233  23.504  16.080   3.274
97780W        W59234  17.166   7.706   0.769
97781W        W59235  11.362  14.137  13.893
97782W        W59236  17.245  34.995   2.417
97783W        W59237  16.225   1.923  14.293
97784W        W59238   1.849  29.597  11.400
97785W        W59239  39.409  42.840  11.901
97786W        W59240  27.106  15.638   1.218
97787W        W59241  24.535   2.887   1.244
97788W        W59242  16.080   4.415   0.876
97789W        W59243  11.331  44.996  11.867
97790W        W59244  36.062   6.276   0.936
97791W        W59245  38.551  33.495   0.781
97792W        W59246  29.975  40.006   1.375
97793W        W59247  35.096  38.926   1.926
97794W        W59248  15.102  38.402   2.885
97795W        W59249  25.051  38.842  13.319
97796W        W59250   7.744  14.785  11.000
97797W        W59251  36.859  44.966   2.335
97798W        W59252   9.250  13.250  13.926
97799W        W59253  12.355  27.549   3.635
97800W        W59254  23.620   8.814  10.086
97801W        W59255  32.480  25.699   1.873
97802W        W59256  44.280  25.013   3.321
97803W        W59257  21.149   0.898   2.190
97804W        W59258  41.425  23.717  11.872
97805W        W59259  19.247  41.955   1.785
97806W        W59260  23.553  21.106   2.373
97807W        W59261  34.867  20.213   3.851
97808W        W59262  43.917  31.091   2.806
97809W        W59263  30.527   8.174  11.557
97810W        W59264  43.998   0.905  12.942
97811W        W59265  32.482   2.422  13.924
97812W        W59266  32.069  19.773   3.194
97813W        W59267  10.237  10.275  10.461
97814W        W59268  38.436  32.098  12.507
97815W        W59269  26.058   4.825   4.800
97816W        W59270  13.653  44.290   0.270
97817W        W59271  19.107  25.968  13.058
97818W        W59272  42.862   5.855   4.167
97819W        W59273  32.572  21.538   0.250
97820W        W59274  29.530  29.474   0.866
97821W        W59275  15.647   0.461   4.305
97822W        W59276  20.230  25.115   2.403
97823W        W59277  21.520  29.008   4.312
97824W        W59278   5.309  33.937  13.963
97825W        W59279   4.825   9.886  14.368
97826W        W59280  29.566   0.435   0.335
97827W        W59281  13.751  30.468  13.995
97828W        W59282  26.572  13.738   2.240
97829W        W59283  34.972   8.287   3.799
97830W        W59284  13.611  23.686   1.451
97831W        W59285   3.376  13.223   0.901
97832W        W59286  19.160  24.628  13.061
97833W        W59287  15.211  29.010  11.573
97834W        W59288   2.836   3.880  11.515
97835W        W59289  28.473  18.553  14.026
97836W        W59290   1.286   5.428  12.920
97837W        W59291   2.876   2.253   2.348
97838W        W59292  31.633  26.956   4.627
97839W        W59293  19.634  18.784  14.462
97840W        W59294  21.203  38.387  12.952
97841W        W59295  16.782  35.374   3.715
97842W        W59296  32.624  18.115   2.266
97843W        W59297  29.990   1.786  11.039
97844W        W59298  23.007  37.922  14.307
97845W        W59299  28.004  38.553  12.501
97846W        W59300   8.276  37.997   2.737
97847W        W59301   3.725   4.229  10.967
97848W        W59302  41.821  24.561   2.823
97849W        W59303  18.231  15.808   2.739
97850W        W59304  17.116  15.689   4.703
97851W        W59305   5.834  25.492  11.574
97852W        W59306   6.755  14.232  13.488
97853W        W59307  40.875   7.239   2.192
97854W        W59308  29.440   7.683   1.884
97855W        W59309  22.224  14.755  14.365
97856W        W59310  34.876  19.141  11.380
97857W        W59311  16.705   2.407   2.288
97858W        W59312  38.938  17.651  10.005
97859W        W59313  22.525  34.439  10.542
97860W        W59314   0.863  28.009   4.800
97861W        W59315  39.408  24.115  13.515
97862W        W59316  39.513  25.617   4.276
97863W        W59317  30.623  15.134   3.167
97864W        W59318   3.297   0.292  10.434
97865W        W59319   7.709   8.841   1.823
97866W        W59320  23.211  39.969  13.804
97867W        W59321  16.745  20.523   1.316
97868W        W59322   7.373  17.242   1.796
97869W        W59323  17.577   7.906   4.219
97870W        W59324  41.790  39.942   3.226
97871W        W59325   8.273  33.549  13.438
97872W        W59326  43.779   5.438  11.384
97873W        W59327  41.516  26.560   3.701
97874W        W59328  35.890   7.748   3.776
97875W        W59329   0.378   2.420  10.613
97876W        W59330  21.142  23.534  14.905
97877W        W59331  17.119   4.393   1.755
97878W        W59332  25.630   0.807   5.175
97879W        W59333  30.144  22.541   2.299
97880W        W59334   3.935  11.280   3.215
97881W        W59335  30.039  19.197   1.237
97882W        W59336  31.087   7.683   1.921
97883W        W59337  21.633  19.607   5.112
97884W        W59338  41.464  35.552   4.788
97885W        W59339  14.706  15.653  12.515
97886W        W59340  21.253   3.869   4.151
97887W        W59341  19.255  17.774   3.231
97888W        W59342  38.981   5.724  13.791
97889W        W59343  32.074  10.872   5.645
97890W        W59344   9.711   4.885   2.407
97891W        W59345  10.300  11.298  14.878
97892W        W59346  13.235  17.559  13.471
97893W        W59347  21.203  36.097  13.033
97894W        W59348  42.883   6.252   2.393
97895W        W59349  21.633  15.751  12.900
97896W        W59350  21.755  18.735  14.817
97897W        W59351  36.057  29.458  13.396
97898W        W59352  12.830  10.644  13.829
97899W        W59353   5.276  11.851  13.031
97900W        W59354   9.800   1.403  10.456
97901W        W59355   2.912  27.055   0.783
97902W        W59356  38.031  38.928   2.775
97903W        W59357  33.109   1.878  13.970
97904W        W59358   6.260  20.669  12.430
97905W        W59359  25.614  30.043   2.248
97906W        W59360   4.846  27.068   3.729
97907W        W59361  24.045  19.195   0.445
97908W        W59362  44.344   3.369   2.385
97909W        W59363   8.195  26.476   1.354
97910W        W59364  34.447  44.817   0.949
97911W        W59365  15.743  25.016   0.310
97912W        W59366  16.250  26.572   0.855
97913W        W59367  18.228  15.140  10.444
97914W        W59368   5.379  44.394  12.570
97915W        W59369  15.723  11.251  11.985
97916W        W59370  20.592  21.258  14.947
97917W        W59371  26.508  19.555  12.427
97918W        W59372   5.250  21.257   3.379
97919W        W59373  33.044  20.262   4.290
97920W        W59374   1.966  14.756  10.991
97921W        W59375   2.249  30.420   3.812
97922W        W59376  25.069   7.225  13.948
97923W        W59377  19.070  10.718   0.313
97924W        W59378  38.408  34.370  11.861
97925W        W59379  23.635   8.661  12.420
97926W        W59380  29.136  44.958   4.831
97927W        W59381  18.563  39.869  12.410
97928W        W59382  35.433  28.150  14.965
97929W        W59383  18.716   8.233  12.967
97930W        W59384  25.108   1.954   4.711
97931W        W59385   8.802  11.277   0.355
97932W        W59386   0.863  41.856   1.303
97933W        W59387  21.045  29.165  14.471
97934W        W59388  39.393  20.202   0.755
97935W        W59389  33.426   0.979  11.565
97936W        W59390   5.864   0.317  11.471
97937W        W59391  23.191  20.752   2.343
97938W        W59392  15.264  37.852  13.468
97939W        W59393  43.927  38.504  12.411
97940W        W59394   9.362  40.475   4.318
97941W        W59395  36.491   3.853  11.382
97942W        W59396  38.488   6.263   0.894
97943W        W59397  30.104  18.698  12.420
97944W        W59398  44.898  16.079   0.926
97945W        W59399  43.295  27.543  13.984
97946W        W59400   9.188  25.148   3.750
97947W        W59401  20.738  31.001  14.400
97948W        W59402   8.655  44.830   0.267
97949W        W59403   7.220  14.616   0.338
97950W        W59404  27.495  26.609   4.621
97951W        W59405  10.224  26.121  10.040
97952W        W59406   3.787  24.716   0.861
97953W        W59407  44.434  16.217  13.531
97954W        W59408  20.640  42.889  12.006
97955W        W59409  11.360  24.167   1.258
97956W        W59410   6.258   7.895   1.337
97957W        W59411  31.609   1.738  14.999
97958W        W59412  14.778   0.391   3.290
97959W        W59413  33.112  34.611  10.950
97960W        W59414  29.953   5.407  12.545
97961W        W59415  31.907  37.500   1.434
97962W        W59416  26.181  40.360  10.965
97963W        W59417   5.866  27.014  11.533
97964W        W59418  13.165  22.013   3.692
97965W        W59419   1.783  34.409  13.055
97966W        W59420  40.962   8.382   1.854
97967W        W59421  24.118  39.990  13.383
97968W        W59422   4.280  36.577  11.072
97969W        W59423  21.089   4.209  13.969
97970W        W59424  15.112  27.135  11.046
97971W        W59425  22.549  34.078  14.877
97972W        W59426  16.643  36.433   2.785
97973W        W59427  19.769  44.840   1.780
97974W        W59428  22.740  43.403  14.999
97975W        W59429  27.604  11.807   1.299
97976W        W59430   8.272  31.027   4.604
97977W        W59431  33.916  14.822  14.405
97978W        W59432  30.513  17.801   2.725
97979W        W59433  16.098  19.760   1.267
97980W        W59434  24.554  25.127   2.316
97981W        W59435   5.809  23.594  12.420
97982W        W59436   9.692  35.926  12.579
97983W        W59437  25.064  32.917  10.903
97984W        W59438  44.788   5.394  14.884
97985W        W59439  41.947  44.879   4.158
97986W        W59440   3.714  18.664   4.299
97987W        W59441   9.297  23.731  13.420
97988W        W59442   4.228  31.496   3.167
97989W        W59443   1.265  37.482   3.317
97990W        W59444  40.894  12.271  12.953
97991W        W59445  42.008  20.659   2.297
97992W        W59446   1.263  17.148  12.898
97993W        W59447  28.050   0.295   4.811
97994W        W59448  12.193  11.173  13.864
97995W        W59449  36.572  38.391   0.435
97996W        W59450  16.162  22.038   2.296
97997W        W59451  40.462   2.818   1.714
97998W        W59452   7.709   6.697  13.935
97999W        W59453  42.931  14.217   2.764
98000W        W59454   7.910  38.846   4.711
98001W        W59455  28.582  40.318   0.447
98002W        W59456  24.542  35.022   2.791
98003W        W59457  38.842  26.987  14.314
98004W        W59458  36.935  41.823   3.814
98005W        W59459  13.282  12.820   1.831
98006W        W59460  21.643  44.944   4.657
98007W        W59461  40.959  27.150   3.345
98008W        W59462  21.610   5.267  11.954
98009W        W59463  32.434  28.542  10.528
98010W        W59464  38.954  19.683   5.165
98011W        W59465  43.299  10.171  10.432
98012W        W59466  30.020  14.229   4.819
98013W        W59467  18.685  31.470  14.808
98014W        W59468  16.653   4.371   0.340
98015W        W59469  41.293   3.280  11.540
98016W        W59470  36.005   2.755   0.775
98017W        W59471  35.854  28.035  13.796
98018W        W59472  37.365  13.731   2.817
98019W        W59473  44.823  41.535   0.955
98020W        W59474  38.830  40.806   1.772
98021W        W59475  15.281  19.745  12.486
98022W        W59476   6.784   7.318   4.680
98023W        W59477  21.722  23.509  11.091
98024W        W59478  16.307  28.613  14.423
98025W        W59479  33.035  22.211  10.531
98026W        W59480  23.556  34.055   1.884
98027W        W59481   4.356  12.185  12.959
98028W        W59482  24.205   5.326   1.397
98029W        W59483   7.868  34.019  11.372
98030W        W59484   4.390  44.862  12.412
98031W        W59485  34.466  12.259   3.820
98032W        W59486  22.165  35.882   2.238
98033W        W59487  11.657   2.864  12.980
98034W        W59488  27.452  12.278  10.437
98035W        W59489  41.364  25.667   3.668
98036W        W59490  24.492  21.589   0.870
98037W        W59491  40.832  14.754   4.828
98038W        W59492  33.516  39.813   2.271
98039W        W59493  12.222   3.321  13.837
98040W        W59494   4.262   0.932   0.843
98041W        W59495  29.452  40.466   4.228
98042W        W59496  38.033   3.393  14.963
98043W        W59497  40.020  26.012   4.749
98044W        W59498  27.159  42.022   1.923
98045W        W59499   1.437  37.034  14.822
98046W        W59500   7.388  44.294   3.807
98047W        W59501  18.052  15.598  11.031
98048W        W59502  41.838   2.344  11.515
98049W        W59503  33.953  44.870   0.252
98050W        W59504  43.296  39.999  12.060
98051W        W59505  20.123  21.040   5.181
98052W        W59506  41.794  35.431   3.779
98053W        W59507   4.776  35.373   3.734
98054W        W59508  28.026  19.142  10.962
98055W        W59509  33.405  27.061   3.363
98056W        W59510  23.579  34.112  11.103
98057W        W59511  42.509  11.373  14.306
98058W        W59512  15.140  35.066   2.851
98059W        W59513   2.806  31.477  13.437
98060W        W59514  22.165  31.587   3.818
98061W        W59515  31.926  31.584  13.311
98062W        W59516  42.975  13.827  12.980
98063W        W59517  43.417   0.306  13.355
98064W        W59518  40.542   2.255   0.879
98065W        W59519  40.380   0.288   3.834
98066W        W59520  29.927  13.691  14.491
98067W        W59521  22.023  19.726  12.343
98068W        W59522  17.727  22.723  11.999
98069W        W59523  38.898  31.638   4.206
98070W        W59524  36.584  19.098   3.867
98071W        W59525  11.665  37.521  13.828
98072W        W59526   2.356  16.228   2.232
98073W        W59527  11.687  32.543   3.681
98074W        W59528   6.256  41.404  10.409
98075W        W59529  17.216  36.069  11.892
98076W        W59530  14.236  30.422  13.830
98077W        W59531  19.635   8.312  12.373
98078W        W59532   3.291   0.813  11.591
98079W        W59533  22.653  32.932   4.795
98080W        W59534  14.743  31.004   0.263
98081W        W59535  26.538  37.427   2.673
98082W        W59536  23.655   5.247  11.119
98083W        W59537  38.516  23.165   3.789
98084W        W59538   4.400  29.990  13.545
98085W        W59539  13.224  15.188  13.962
98086W        W59540  12.224  34.083  14.844
98087W        W59541   4.294  27.178  11.506
98088W        W59542  33.457  13.660  13.880
98089W        W59543   8.192  21.676   3.773
98090W        W59544  43.970  31.022  13.457
98091W        W59545   3.456  12.710   4.716
98092W        W59546  19.548  21.708   4.752
98093W        W59547   2.749   2.454   1.422
98094W        W59548  19.665  41.889   4.283
98095W        W59549  18.573  33.457  11.061
98096W        W59550  36.521   7.771   4.740
98097W        W59551  18.058  13.632   0.282
98098W        W59552  11.366  13.282  13.420
98099W        W59553  34.550  26.477   0.847
98100W        W59554  17.660  42.013   1.811
98101W        W59555  15.170   1.790  10.623
98102W        W59556  13.151   8.261   2.788
98103W        W59557   4.935  38.829   2.858
98104W        W59558  23.182  19.090  10.999
98105W        W59559  20.265  38.986   2.299
98106W        W59560  44.292   8.723  12.849
98107W        W59561  27.576  26.059  12.976
98108W        W59562  15.091  10.678  10.960
98109W        W59563  42.989  18.239  14.393
98110W        W59564  37.453  23.139  14.334
98111W        W59565   4.406  21.549  13.818
98112W        W59566   6.825  35.506  14.764
98113W        W59567  26.471  32.430   5.621
98114W        W59568  43.483   9.253  11.501
98115W        W59569  44.298  26.026   0.447
98116W        W59570   2.925  11.140  14.966
98117W        W59571  36.470  26.070  10.558
98118W        W59572  26.565  33.444   1.265
98119W        W59573  15.265  16.674  12.861
98120W        W59574  42.906  16.781   4.234
98121W        W59575  22.620  21.242   3.228
98122W        W59576  37.534  14.809  10.990
98123W        W59577  34.466  24.987   4.328
98124W        W59578   0.875   4.843  14.294
98125W        W59579   5.814  30.638  14.020
98126W        W59580   9.264  15.261  11.033
98127W        W59581  33.490   6.364  14.336
98128W        W59582   6.804  30.545  14.403
98129W        W59583  37.952  13.244   0.367
98130W        W59584  25.569  28.448  12.377
98131W        W59585   9.667  31.600  13.395
98132W        W59586  38.986  39.354  14.302
98133W        W59587  40.876  28.597   4.684
98134W        W59588  32.502  24.020  13.386
98135W        W59589   0.784  42.926   5.267
98136W        W59590  16.667  14.110  11.492
98137W        W59591  26.519  23.204   2.895
98138W        W59592  40.009  29.031  11.051
98139W        W59593  10.875  24.068  11.383
98140W        W59594  13.787  42.307   4.613
98141W        W59595   0.806  18.753  14.934
98142W        W59596  26.579  28.597  10.586
98143W        W59597  14.749  34.402  12.341
98144W        W59598   6.787  15.758   1.255
98145W        W59599  11.315  20.263  14.808
98146W        W59600  33.908  42.991   4.159
98147W        W59601   5.424   1.376  13.374
98148W        W59602  14.164   3.263  12.031
98149W        W59603   6.203  14.759   2.741
98150W        W59604  41.352  44.416  14.840
98151W        W59605  36.502   8.786  12.912
98152W        W59606  21.059  30.004   2.413
98153W        W59607  44.966  19.674   1.375
98154W        W59608  23.153   1.298  12.551
98155W        W59609  34.094  42.938   0.273
98156W        W59610   7.706  39.436   1.355
98157W        W59611  18.215  29.028  12.030
98158W        W59612  34.960  26.172  14.318
98159W        W59613  43.399  27.464   0.244
98160W        W59614  14.684  10.202  14.020
98161W        W59615  40.363  28.013  12.509
98162W        W59616  33.382  24.686   3.290
98163W        W59617  33.907  21.539   3.773
98164W        W59618  22.152   5.420  11.008
98165W        W59619  39.824  11.285  11.110
98166W        W59620  44.267   3.296   0.729
98167W        W59621  26.015  44.981   3.187
98168W        W59622  25.034  20.184  12.041
98169W        W59623  28.593  24.140   9.482
98170W        W59624   3.778  18.213   3.307
98171W        W59625  30.098  39.547   1.747
98172W        W59626   9.160  21.659   0.346
98173W        W59627  24.594  44.408  12.884
98174W        W59628  39.416  25.574   1.291
98175W        W59629  25.012   3.758  12.573
98176W        W59630  20.107   2.902   1.403
98177W        W59631  22.591  43.789   1.776
98178W        W59632  38.002  24.538   2.300
98179W        W59633   7.242  41.329  14.385
98180W        W59634  32.629  18.145   0.321
98181W        W59635  43.496  13.692   2.796
98182W        W59636   1.395  20.639   1.755
98183W        W59637  44.311  27.094   3.704
98184W        W59638   3.300  38.997   4.189
98185W        W59639  39.012   5.811   0.484
98186W        W59640  10.380   7.267  14.320
98187W        W59641  26.614  27.557   3.181
98188W        W59642  39.811  44.279   0.380
98189W        W59643  43.973  10.764   4.683
98190W        W59644   6.370  37.066  14.821
98191W        W59645  13.610  42.287   3.154
98192W        W59646   6.349  28.612  12.550
98193W        W59647   2.843  35.092   2.722
98194W        W59648  13.808  14.701   3.857
98195W        W59649   0.284   7.892   3.814
98196W        W59650  30.982   0.414   3.831
98197W        W59651  25.522  43.826   0.412
98198W        W59652   4.928  40.898  11.920
98199W        W59653  24.119  26.083  11.945
98200W        W59654   1.745   3.919   2.361
98201W        W59655  17.248  23.988   2.902
98202W        W59656  27.486  22.124   3.327
98203W        W59657  26.666  40.452  11.415
98204W        W59658  27.103  23.556  12.039
98205W        W59659  10.656  40.897  14.822
98206W        W59660  27.484   0.494  12.091
98207W        W59661  40.490  43.335  10.515
98208W        W59662  43.510   9.237   1.351
98209W        W59663   5.906  42.945   0.399
98210W        W59664  22.226  12.303   4.721
98211W        W59665  32.408  39.366  13.338
98212W        W59666  41.443  11.284  13.898
98213W        W59667  28.046  37.564   1.878
98214W        W59668  12.638   4.405  13.450
98215W        W59669  22.616  39.005  12.899
98216W        W59670  34.026   4.744   3.633
98217W        W59671  13.722   9.395  12.923
98218W        W59672  28.536   0.326   3.796
98219W        W59673  12.129  30.089  14.789
98220W        W59674  24.674  23.054   3.851
98221W        W59675  43.841  38.948  11.520
98222W        W59676   9.850  29.436  11.008
98223W        W59677  36.080  24.219  10.602
98224W        W59678   0.932  35.010  12.878
98225W        W59679  24.491  33.114  10.060
98226W        W59680  13.143  17.270  14.809
98227W        W59681  44.940   0.304   3.177
98228W        W59682   2.466  23.158  10.444
98229W        W59683  43.915   1.920  13.886
98230W        W59684   0.783  13.253  14.799
98231W        W59685  33.607   4.334  12.910
98232W        W59686  41.293  40.005  13.351
98233W        W59687  20.050  38.842   0.376
98234W        W59688  29.127   1.334   0.808
98235W        W59689   8.867   1.271  14.316
98236W        W59690  15.309  15.686  10.158
98237W        W59691  37.437   1.788  10.928
98238W        W59692   0.369   9.838  14.957
98239W        W59693  43.960  26.073   1.414
98240W        W59694  35.543  25.083   3.375
98241W        W59695  40.443  44.949   1.754
98242W        W59696  39.912  10.742  14.963
98243W        W59697  14.139   1.786  13.937
98244W        W59698  32.496  37.387  10.592
98245W        W59699  21.129  15.107   4.717
98246W        W59700  26.208  14.608  13.435
98247W        W59701  27.159   1.953  11.567
98248W        W59702   9.372  26.550   5.315
98249W        W59703   8.281  40.314   4.713
98250W        W59704   2.929  31.984  13.983
98251W        W59705  13.602  38.372  10.599
98252W        W59706  13.181  15.788   1.933
98253W        W59707   7.870  43.904  10.550
98254W        W59708   0.985  28.451  12.018
98255W        W59709  10.298  15.649   0.442
98256W        W59710   9.251  12.348  13.387
98257W        W59711  29.533  40.476  14.026
98258W        W59712  11.220  31.403   1.236
98259W        W59713  21.649   4.379   1.765
98260W        W59714  16.761  23.731   0.367
98261W        W59715  35.513  25.110  10.532
98262W        W59716  31.436  34.523   3.352
98263W        W59717  42.292  13.755  12.993
98264W        W59718  30.626   2.823  10.115
98265W        W59719  27.106  12.221  12.951
98266W        W59720  32.561  40.437  11.407
98267W        W59721  35.480  28.623   0.354
98268W        W59722  24.032  12.126   1.391
98269W        W59723   3.375  14.152  13.842
98270W        W59724  13.634  11.674   5.163
98271W        W59725  31.135   8.285  14.491
98272W        W59726   7.795   1.431  13.798
98273W        W59727  41.040  34.998   0.415
98274W        W59728  16.791  30.526   0.321
98275W        W59729  15.238  23.509  13.415
98276W        W59730  17.129  29.444  10.891
98277W        W59731  24.145   8.686  10.427
98278W        W59732  39.439  36.998   1.891
98279W        W59733  17.730  36.077   2.189
98280W        W59734  10.717  41.363   3.238
98281W        W59735  11.729   6.728   4.699
98282W        W59736  22.539  34.058   3.821
98283W        W59737  26.700  23.670   1.798
98284W        W59738  44.905  24.517   4.183
98285W        W59739  23.522  30.457  14.870
98286W        W59740  17.246  28.477   1.772
98287W        W59741  32.078  28.545   3.256
98288W        W59742   9.173   1.481  13.898
98289W        W59743  42.519  13.333   2.372
98290W        W59744  28.963  29.053   1.434
98291W        W59745  43.888   4.306  11.414
98292W        W59746  19.594   3.939   3.279
98293W        W59747   2.388   4.775   5.306
98294W        W59748  44.293  32.103  12.457
98295W        W59749  42.797  42.432  14.987
98296W        W59750  38.490  34.483   0.305
98297W        W59751  16.755  12.193  13.531
98298W        W59752  13.215  39.818   0.249
98299W        W59753   7.781  23.589   2.240
98300W        W59754   2.900  34.911  12.471
98301W        W59755  15.761  42.867   5.141
98302W        W59756   2.301  25.709   0.424
98303W        W59757  35.499  25.700  10.537
98304W        W59758  13.297  21.153  12.000
98305W        W59759  25.192  15.719  13.372
98306W        W59760   3.806  29.050   3.718
98307W        W59761  37.569  44.771   4.222
98308W        W59762  27.969  40.334   1.713
98309W        W59763   4.928   2.839  12.461
98310W        W59764  43.381  31.428  11.042
98311W        W59765  11.160  40.846   4.118
98312W        W59766  37.430  30.498   0.896
98313W        W59767  38.387   1.746  10.414
98314W        W59768  15.231  16.161   3.291
98315W        W59769  32.576  38.363  14.960
98316W        W59770  40.897   4.345  14.973
98317W        W59771  21.036   4.848  13.451
98318W        W59772  21.626   0.288   0.350
98319W        W59773  18.595   2.952   2.775
98320W        W59774  33.566  35.580   2.676
98321W        W59775  18.200   2.453   0.476
98322W        W59776   4.340  22.522   3.709
98323W        W59777  10.847  12.258   4.766
98324W        W59778  20.130  37.455  11.006
98325W        W59779   4.393   5.272  12.085
98326W        W59780  20.154  43.853   2.812
98327W        W59781  37.564  12.767  10.984
98328W        W59782  21.243  16.754   3.733
98329W        W59783   3.262  38.538   4.692
98330W        W59784  28.931   2.329  13.422
98331W        W59785  36.879  20.630  14.029
98332W        W59786   2.419  38.518   3.831
98333W        W59787  31.487  10.321  14.884
98334W        W59788  39.469  30.010  13.041
98335W        W59789  41.826   2.463  14.383
98336W        W59790  39.047  30.508   3.638
98337W        W59791  28.172  32.597   5.250
98338W        W59792  27.591  22.654  12.471
98339W        W59793   3.454  36.518   0.414
98340W        W59794  44.469   8.183  13.527
98341W        W59795  40.849   6.797   0.964
98342W        W59796   1.768  14.282   4.697
98343W        W59797   4.324  42.026  12.388
98344W        W59798  20.766  30.960   3.861
98345W        W59799  27.979   0.332   3.659
98346W        W59800   9.328  11.164  11.051
98347W        W59801  25.632  23.495  11.900
98348W        W59802   7.417   9.303  10.437
98349W        W59803  24.503  23.593   0.933
98350W        W59804  42.372  18.617  10.941
98351W        W59805  24.559  16.161   4.598
98352W        W59806  32.005  39.904   0.855
98353W        W59807  22.210  15.100  11.431
98354W        W59808  31.623  18.600   4.245
98355W        W59809  38.889  16.140  14.943
98356W        W59810  17.767   2.956  10.975
98357W        W59811  10.352  23.503   2.733
98358W        W59812   3.349  26.523   2.894
98359W        W59813  26.645  39.842  10.639
98360W        W59814  25.025  29.486   3.324
98361W        W59815  42.399  11.728   4.328
98362W        W59816  44.411  28.469  11.125
98363W        W59817   8.315  28.539  11.950
98364W        W59818  10.207  26.549  11.538
98365W        W59819  15.639   2.946   0.841
98366W        W59820   1.479  41.832  14.323
98367W        W59821   4.446  10.805   3.815
98368W        W59822  12.716  20.696  14.989
98369W        W59823  19.194  35.029  11.464
98370W        W59824   2.305  38.026   0.324
98371W        W59825   9.358   9.837   2.786
98372W        W59826  39.881  25.694   2.749
98373W        W59827  34.570  16.577  11.379
98374W        W59828  30.500  18.660  13.001
98375W        W59829  28.939   8.237   2.258
98376W        W59830   7.233  14.754  12.999
98377W        W59831  16.148  15.772  14.026
98378W        W59832  40.519   5.887   2.292
98379W        W59833  33.012  10.746   0.464
98380W        W59834  41.362  37.371   3.654
98381W        W59835   4.288  23.230  11.471
98382W        W59836  24.666  14.105   1.873
98383W        W59837  10.733  40.427   0.758
98384W        W59838  10.289  38.010   0.423
98385W        W59839  17.593   4.726   0.279
98386W        W59840  21.662   6.315   4.296
98387W        W59841  34.956  16.268   0.871
98388W        W59842  11.630  23.209   1.311
98389W        W59843  23.141  34.517   0.299
98390W        W59844  11.867  26.071  12.458
98391W        W59845   1.930   1.409   2.303
98392W        W59846   6.867  35.425  10.429
98393W        W59847   3.361  27.679   2.694
98394W        W59848  33.385  34.086  12.885
98395W        W59849   2.838  11.681   4.275
98396W        W59850  17.261   8.196   1.696
98397W        W59851  18.778  43.913  10.599
98398W        W59852  13.700   4.405   3.185
98399W        W59853  39.383   2.883  12.913
98400W        W59854  19.203   6.392   1.282
98401W        W59855  29.588  11.628  13.843
98402W        W59856   0.849  37.422  10.406
98403W        W59857  20.116  15.821  10.063
98404W        W59858  21.595  39.426   1.858
98405W        W59859  30.924  35.477  14.455
98406W        W59860  24.643  23.174  13.416
98407W        W59861  37.447   4.835  12.541
98408W        W59862   4.838  31.137   1.319
98409W        W59863   7.712  22.149   4.787
98410W        W59864  11.812  40.421   1.884
98411W        W59865  30.129   8.243  13.964
98412W        W59866  43.498  22.179   4.769
98413W        W59867  26.478  13.613   2.841
98414W        W59868  10.766  39.381  14.930
98415W        W59869  10.664   7.342  11.493
98416W        W59870  27.490  10.722   1.810
98417W        W59871  36.449  11.744   4.823
98418W        W59872  39.392  44.978  13.801
98419W        W59873  30.647  23.189   3.718
98420W        W59874  14.744   7.242   0.908
98421W        W59875  26.022   9.195   2.238
98422W        W59876  20.135  29.161  13.396
98423W        W59877  43.491  18.614   1.246
98424W        W59878   0.934  37.884  13.008
98425W        W59879  11.673  12.734   0.826
98426W        W59880   7.820  41.465   1.442
98427W        W59881  26.699  43.925   3.281
98428W        W59882  34.402   5.795   4.785
98429W        W59883  28.978  27.458   5.664
98430W        W59884  29.445  43.421   1.810
98431W        W59885   7.396  42.900  14.797
98432W        W59886  42.304  11.147   4.742
98433W        W59887  43.444   9.755  13.001
98434W        W59888   6.329  19.075   1.792
98435W        W59889  13.247   6.230  13.947
98436W        W59890   9.853  21.736   2.812
98437W        W59891  32.924   0.807   4.758
98438W        W59892  26.027   8.756   1.290
98439W        W59893  41.794  38.547   3.832
98440W        W59894  25.094  16.269   3.782
98441W        W59895  44.988  21.025  11.566
98442W        W59896  24.713  39.937  11.879
98443W        W59897  41.315  23.593   0.751
98444W        W59898  13.691  28.975  14.374
98445W        W59899  18.147   0.349   1.384
98446W        W59900  18.282  23.701   4.231
98447W        W59901  42.415  19.160  13.931
98448W        W59902  18.597  17.239  12.057
98449W        W59903  32.116  16.665   1.213
98450W        W59904   4.369   1.877  13.407
98451W        W59905  34.991  22.726   1.441
98452W        W59906  26.954   3.875  13.430
98453W        W59907   6.182  33.473   2.370
98454W        W59908  31.047  29.047   2.687
98455W        W59909  28.482   8.817   0.429
98456W        W59910  14.110  27.089  11.456
98457W        W59911   0.264  13.230   2.188
98458W        W59912  29.547  33.413  13.933
98459W        W59913  13.291  22.105   0.824
98460W        W59914  18.231  28.639   0.395
98461W        W59915  25.571  14.805  12.551
98462W        W59916   4.387  23.062   4.129
98463W        W59917   0.783  22.050   2.222
98464W        W59918  17.243  14.135  13.436
98465W        W59919  40.941  19.172  12.091
98466W        W59920  36.427  29.443   2.271
98467W        W59921  16.129  17.718  11.559
98468W        W59922  26.015  33.490  12.403
98469W        W59923  17.180  28.161  13.800
98470W        W59924  30.522  19.633   2.338
98471W        W59925  22.145  42.965   4.808
98472W        W59926  24.166  23.075   3.303
98473W        W59927  16.628  20.117  10.546
98474W        W59928  25.497  22.540  14.857
98475W        W59929  24.724  26.999   1.771
98476W        W59930  14.158  41.829  10.062
98477W        W59931   7.871  13.678  14.029
98478W        W59932  37.523  10.738   1.701
98479W        W59933  24.195  37.556  11.540
98480W        W59934  20.589   3.842   3.677
98481W        W59935  18.224  26.619  11.491
98482W        W59936  26.107  33.523   1.911
98483W        W59937  37.934  13.820  11.545
98484W        W59938  26.992  44.761  13.050
98485W        W59939  24.692  38.425  13.476
98486W        W59940   7.308  30.117   1.743
98487W        W59941   6.323   1.478  14.912
98488W        W59942  29.482  11.132   2.777
98489W        W59943  32.967   1.327  12.932
98490W        W59944  30.640  35.104   0.911
98491W        W59945  40.957  33.380   3.285
98492W        W59946  40.470  34.403  13.385
98493W        W59947   7.857  24.702  11.441
98494W        W59948   4.850   5.908   2.286
98495W        W59949  30.651  16.085  11.912
98496W        W59950  34.101   7.778  11.595
98497W        W59951  13.137  37.518   5.140
98498W        W59952  34.556  32.592  14.511
98499W        W59953  26.975  43.394  12.403
98500W        W59954  10.659   7.231   0.820
98501W        W59955  27.464   5.296   2.336
98502W        W59956  22.048  26.164  13.348
98503W        W59957  15.664  24.712   4.747
98504W        W59958  36.004  32.553   0.278
98505W        W59959   6.771   5.337  14.018
98506W        W59960  23.556  28.043  11.372
98507W        W59961  25.161  21.584   3.778
98508W        W59962  14.314  29.060   2.833
98509W        W59963  38.405  29.556   0.938
98510W        W59964   3.412  12.295   1.846
98511W        W59965   9.840   7.385  12.470
98512W        W59966  28.600   7.907   0.351
98513W        W59967   3.276   8.804  14.509
98514W        W59968  27.954  32.892   2.792
98515W        W59969  42.473  38.020   2.332
98516W        W59970  10.669  22.995   3.218
98517W        W59971  30.448   4.943  10.042
98518W        W59972  25.577  14.608   3.658
98519W        W59973   8.816  29.559  12.857
98520W        W59974  14.192   3.772   0.838
98521W        W59975   2.306  40.512   4.634
98522W        W59976  26.141  39.031   4.314
98523W        W59977  28.469  25.176  11.009
98524W        W59978  43.453  17.677   3.789
98525W        W59979  37.341  13.812   2.318
98526W        W59980  20.266  24.619  14.465
98527W        W59981   5.424   0.344  12.990
98528W        W59982  13.132   8.230   0.914
98529W        W59983  43.961  14.798   1.318
98530W        W59984  30.565  43.410  12.511
98531W        W59985  30.074  15.721   2.804
98532W        W59986  23.686  19.616  10.408
98533W        W59987  25.047  38.365   0.727
98534W        W59988  32.491  34.385   2.417
98535W        W59989  44.927   6.781  12.999
98536W        W59990  42.459  32.627   4.210
98537W        W59991   8.714  32.566   4.129
98538W        W59992   0.317  38.334  12.834
98539W        W59993  24.109  28.952   0.948
98540W        W59994  19.096   6.709   0.274
98541W        W59995  28.977  28.633   3.378
98542W        W59996   9.280   7.723   1.785
98543W        W59997  42.498  26.204  13.449
98544W        W59998  17.566  26.070   4.124
98545W        W59999  27.058   1.312   2.804
98546W        W60000  23.044  38.569  13.396
98547W        W60001   5.736  16.596  14.868
98548W        W60002  19.222  18.296  11.538
98549W        W60003  22.513   8.314  14.980
98550W        W60004  30.589  35.528  11.902
98551W        W60005  25.631  39.855   3.271
98552W        W60006  11.173  37.073  14.359
98553W        W60007  11.255  39.385  11.422
98554W        W60008  23.041  27.137  13.383
98555W        W60009  20.632  23.499   1.927
98556W        W60010  16.572  12.343   1.717
98557W        W60011  36.402  12.153   3.231
98558W        W60012  44.935  27.579  13.895
98559W        W60013  40.919  17.726   4.282
98560W        W60014  24.135  11.732   1.863
98561W        W60015  18.658  16.178   1.807
98562W        W60016  19.120   9.729   1.895
98563W        W60017  29.145  24.690  12.887
98564W        W60018  40.529   1.438  13.028
98565W        W60019  22.050  34.369  12.885
98566W        W60020  26.109  15.685  12.980
98567W        W60021  25.148   9.250   3.303
98568W        W60022   6.393  41.304   0.431
98569W        W60023  12.147  33.614   1.751
98570W        W60024  12.668  28.128  10.473
98571W        W60025  32.959  23.709  12.567
98572W        W60026  27.040  19.093   0.931
98573W        W60027   3.724  44.912  14.812
98574W        W60028  10.252  21.188  14.886
98575W        W60029   7.752   0.485   2.390
98576W        W60030  38.488  15.595   2.731
98577W        W60031  23.060  41.789  11.867
98578W        W60032  41.386  28.974   4.125
98579W        W60033   7.335  31.554   1.763
98580W        W60034  37.338  42.817  14.458
98581W        W60035  23.681   8.221   3.317
98582W        W60036   0.467   6.254   2.206
98583W        W60037  27.946  29.029   0.786
98584W        W60038   0.449  19.215   3.157
98585W        W60039   7.887  16.738   2.817
98586W        W60040  20.120  37.483   4.720
98587W        W60041  15.577  14.621  11.495
98588W        W60042   7.698   9.324  14.894
98589W        W60043  16.131  25.580   3.323
98590W        W60044  40.852  11.847   2.268
98591W        W60045  39.932  40.803  13.825
98592W        W60046  26.604  27.501  11.986
98593W        W60047  21.573  29.015   0.313
98594W        W60048  16.073  31.598  13.949
98595W        W60049  30.937  38.842   2.257
98596W        W60050  38.903  37.374   0.760
98597W        W60051  39.027  31.902  13.024
98598W        W60052  17.199  22.010  13.443
98599W        W60053  10.319  20.237  14.346
98600W        W60054  19.237  21.671  13.449
98601W        W60055  40.395  23.528  13.827
98602W        W60056  26.621   0.295   1.912
98603W        W60057  27.506   5.339   4.755
98604W        W60058  27.167   8.870  11.898
98605W        W60059  16.611   3.754  10.936
98606W        W60060  14.273  33.983  13.308
98607W        W60061   2.407   6.796   1.245
98608W        W60062  44.929   8.852  10.590
98609W        W60063   5.900  39.923   1.705
98610W        W60064  43.801  38.010   3.268
98611W        W60065   4.311  41.869  10.403
98612W        W60066  40.456   6.189   5.283
98613W        W60067  19.644  35.985  12.938
98614W        W60068   1.800  23.177   0.397
98615W        W60069  26.678   7.688   2.662
98616W        W60070  26.586  34.053  14.894
98617W        W60071  40.025  36.925  11.909
98618W        W60072  16.194  20.553   4.692
98619W        W60073  42.472  12.257   4.274
98620W        W60074  13.781  20.633  11.495
98621W        W60075  33.946  20.162   2.343
98622W        W60076  41.018  28.090  14.503
98623W        W60077  21.262  36.565  13.022
98624W        W60078  34.496  39.434   1.897
98625W        W60079  29.078  39.386  13.525
98626W        W60080  16.796  42.798  14.776
98627W        W60081  38.950  11.833   3.736
98628W        W60082  33.894   9.726   1.889
98629W        W60083   3.860  16.778  14.952
98630W        W60084  29.603   1.845  11.938
98631W        W60085   5.741  19.601  12.481
98632W        W60086  19.584   2.756  11.931
98633W        W60087  25.505  30.024   4.806
98634W        W60088  12.266   1.286   1.364
98635W        W60089  24.486  21.247  11.915
98636W        W60090  22.057  40.538  12.995
98637W        W60091   3.356  18.290  11.600
98638W        W60092   9.795  11.732   2.831
98639W        W60093  14.599  21.201   0.386
98640W        W60094   5.407  36.531   0.813
98641W        W60095  41.042  11.203   0.421
98642W        W60096   1.941  20.592  14.950
98643W        W60097  22.641  43.793  10.641
98644W        W60098   7.820  23.194   0.891
98645W        W60099  13.285  24.589   1.337
98646W        W60100   3.873  17.795  14.377
98647W        W60101  24.169  40.977  12.081
98648W        W60102  32.401  40.456   3.785
98649W        W60103   5.196  39.848  13.966
98650W        W60104  10.676  32.907   0.779
98651W        W60105   6.856  15.248  12.877
98652W        W60106  24.076   9.750  11.532
98653W        W60107  34.037   9.180  13.861
98654W        W60108  38.060   1.326   2.204
98655W        W60109  39.412  30.963  13.534
98656W        W60110  24.703  43.374   0.441
98657W        W60111   0.433  26.666   4.175
98658W        W60112  40.949  41.865   1.752
98659W        W60113  41.010   3.865  13.367
98660W        W60114  21.716  29.969  10.407
98661W        W60115   6.252   1.861   0.803
98662W        W60116  37.365  30.419  10.447
98663W        W60117  21.230  42.908   3.197
98664W        W60118  41.006   3.393  10.465
98665W        W60119  22.219  28.940   3.343
98666W        W60120  33.892  17.141  11.485
98667W        W60121  10.264  15.745  13.547
98668W        W60122   9.183  43.949  11.990
98669W        W60123   2.919  42.452   4.760
98670W        W60124  26.033  36.996  13.063
98671W        W60125  34.102   5.396   1.412
98672W        W60126   3.227   1.270   0.896
98673W        W60127  41.990  28.090   4.828
98674W        W60128  33.582  15.213   5.190
98675W        W60129  39.347   1.826   4.772
98676W        W60130  27.691  44.505  14.817
98677W        W60131  35.432  32.130  10.604
98678W        W60132  22.711  28.027   4.733
98679W        W60133   9.308  29.925  13.359
98680W        W60134  11.770  11.133   0.428
98681W        W60135  23.206  15.698   1.346
98682W        W60136  26.181  24.118   2.767
98683W        W60137   9.818   4.830   2.866
98684W        W60138  40.943  12.629  11.383
98685W        W60139   2.424  30.993  11.461
98686W        W60140  44.392  40.919   2.790
98687W        W60141  21.072  16.128   1.399
98688W        W60142  13.286  31.060  12.415
98689W        W60143  26.679   3.442  12.925
98690W        W60144  19.203  15.809  10.471
98691W        W60145   0.863  35.933   4.791
98692W        W60146  31.439  25.527  13.308
98693W        W60147  15.239   0.249   3.664
98694W        W60148  14.764  17.273  14.450
98695W        W60149  44.409  23.147   1.816
98696W        W60150  43.269  22.640  13.821
98697W        W60151   5.795  36.450   2.711
98698W        W60152  16.315  37.417  14.910
98699W        W60153  13.653  34.524  12.922
98700W        W60154  17.728  23.577   0.882
98701W        W60155  38.847  27.143   3.742
98702W        W60156  22.567  36.465  12.548
98703W        W60157  10.297  35.398  10.152
98704W        W60158  37.001  20.168   4.674
98705W        W60159  42.509  28.144   2.695
98706W        W60160  44.776  27.619  12.454
98707W        W60161  22.686  38.891  14.386
98708W        W60162  39.330  14.206   2.808
98709W        W60163   5.310   5.205   4.680
98710W        W60164   4.844  35.927   5.262
98711W        W60165  27.047  42.951  13.360
98712W        W60166  29.923  34.047  11.469
98713W        W60167   1.899  19.137   2.882
98714W        W60168   2.330   0.941   2.239
98715W        W60169  40.047  32.057  14.449
98716W        W60170  25.048  23.091  11.609
98717W        W60171  41.901  44.847  12.018
98718W        W60172  22.606  43.381   3.227
98719W        W60173  40.829  35.867  13.339
98720W        W60174   0.885   7.243  12.362
98721W        W60175  21.595  42.809  13.548
98722W        W60176  33.611  20.232  13.344
98723W        W60177  30.463  15.628  12.840
98724W        W60178   5.297   4.825  13.037
98725W        W60179  27.645   5.261   9.497
98726W        W60180   3.953  19.165   2.404
98727W        W60181  41.876  16.585  10.947
98728W        W60182  11.339  35.912  10.458
98729W        W60183  43.978  36.986   3.853
98730W        W60184  16.223  15.254   2.752
98731W        W60185  43.807  22.578   3.197
98732W        W60186  27.684  38.019  12.439
98733W        W60187  36.509   8.679  10.427
98734W        W60188  44.431   4.730  11.960
98735W        W60189  43.009  19.228   2.301
98736W        W60190   2.464  23.041  12.454
98737W        W60191  20.172  16.198  10.511
98738W        W60192  41.472  29.147   1.386
98739W        W60193  25.613  20.089  13.960
98740W        W60194   7.186  38.034   2.306
98741W        W60195  44.816  23.024  13.895
98742W        W60196   3.414   2.763  11.557
98743W        W60197  14.172   1.354  11.495
98744W        W60198  42.362  32.530  11.602
98745W        W60199  33.448  26.200  12.443
98746W        W60200  25.058  34.530   0.736
98747W        W60201  29.584  41.480  12.572
98748W        W60202   6.746  38.890  11.485
98749W        W60203  13.728  23.036  13.514
98750W        W60204  26.122  38.849  14.420
98751W        W60205  41.821  21.156  14.772
98752W        W60206  28.616  35.025   1.727
98753W        W60207  40.945   8.316  12.424
98754W        W60208  29.038  34.513   1.297
98755W        W60209   5.421  11.314  14.868
98756W        W60210  41.838   8.224  10.491
98757W        W60211   6.197  25.054   4.186
98758W        W60212  43.349  34.900  10.575
98759W        W60213  32.599  39.882   4.157
98760W        W60214  27.103   1.973   0.368
98761W        W60215  21.208   6.230  14.510
98762W        W60216  44.910  43.346   4.662
98763W        W60217   1.952   3.840   4.794
98764W        W60218  35.601  32.409   3.639
98765W        W60219   7.352  27.668   0.931
98766W        W60220  28.015  22.720   5.685
98767W        W60221  19.252   8.290  13.332
98768W        W60222  32.479  16.091  11.001
98769W        W60223  32.624  40.462   0.419
98770W        W60224  27.611   9.346  10.438
98771W        W60225  20.736  22.687  13.892
98772W        W60226  39.435  26.606   1.821
98773W        W60227  22.133  14.253   3.172
98774W        W60228  14.594  27.181  11.056
98775W        W60229  33.625  10.866   3.814
98776W        W60230  14.292   9.362   4.315
98777W        W60231  39.545  38.555   4.720
98778W        W60232  17.559  40.005  10.946
98779W        W60233  39.000  14.158   5.128
98780W        W60234  27.120  12.198  10.497
98781W        W60235  21.646  16.237  13.924
98782W        W60236  10.251  22.082  11.985
98783W        W60237   4.253  21.656  14.416
98784W        W60238  34.941  39.820   4.179
98785W        W60239   8.187  29.002   4.187
98786W        W60240  19.192  42.974   0.932
98787W        W60241   9.224  26.981   1.235
98788W        W60242   4.924  20.720   3.735
98789W        W60243  24.993   6.895  14.384
98790W        W60244  44.971   0.386   1.277
98791W        W60245  33.103  18.171   3.831
98792W        W60246   3.223  37.943  14.939
98793W        W60247  33.972   2.778   2.747
98794W        W60248  15.664  22.059  13.980
98795W        W60249  12.150  10.661   4.234
98796W        W60250   0.417   5.382  11.509
98797W        W60251   6.385  33.581  14.977
98798W        W60252  16.227  37.536   2.748
98799W        W60253  42.820  31.475   4.160
98800W        W60254  16.262  10.756   1.699
98801W        W60255  37.562  24.063   5.285
98802W        W60256  35.580  12.331  12.093
98803W        W60257  22.641  35.414  11.441
98804W        W60258   5.241  28.673   3.195
98805W        W60259  43.822  23.656   4.290
98806W        W60260  24.171  20.716   1.925
98807W        W60261   9.233  24.065   4.238
98808W        W60262  42.828   4.941  11.030
98809W        W60263  18.577  43.964   3.312
98810W        W60264   9.795  22.212  14.996
98811W        W60265  21.600   7.753   0.342
98812W        W60266   6.273  41.328  12.341
98813W        W60267  40.531   2.401  11.468
98814W        W60268  16.600  35.465   0.466
98815W        W60269  36.020   3.860  14.858
98816W        W60270  33.611  44.878  14.871
98817W        W60271   6.783  17.255   2.363
98818W        W60272  36.053  15.310  13.547
98819W        W60273  41.859   9.870  11.113
98820W        W60274  19.124  36.466  14.504
98821W        W60275  40.465  41.991  14.949
98822W        W60276  20.564  12.154  13.353
98823W        W60277  23.988   3.725   4.619
98824W        W60278   3.446  11.632   3.758
98825W        W60279   6.385  19.200   1.270
98826W        W60280  26.659  42.445  11.902
98827W        W60281   6.860  43.994   4.790
98828W        W60282  38.062   1.458   2.727
98829W        W60283  10.808  27.993  14.792
98830W        W60284   2.854   9.279  13.467
98831W        W60285  15.306  20.578  14.800
98832W        W60286  10.705  29.944   0.243
98833W        W60287   5.421  30.994  13.990
98834W        W60288  42.932   7.748  14.858
98835W        W60289  35.544  34.537  14.400
98836W        W60290  42.797  12.814  14.952
98837W        W60291  35.855   6.215   4.340
98838W        W60292  10.303   6.901  14.795
98839W        W60293  10.279  13.337  11.075
98840W        W60294  32.503  40.998  12.991
98841W        W60295   9.197   1.892  14.392
98842W        W60296  35.866  28.049  12.871
98843W        W60297  22.072  38.437  14.898
98844W        W60298   2.823  42.310   2.413
98845W        W60299   6.679   7.323  14.787
98846W        W60300  26.107  21.614   4.193
98847W        W60301  12.351  27.525   4.773
98848W        W60302  31.007  30.628   4.116
98849W        W60303   3.446  21.673   0.364
98850W        W60304  37.952   1.978   4.262
98851W        W60305  37.908  27.636  14.275
98852W        W60306  23.525   4.810  11.870
98853W        W60307  27.189  30.645   5.088
98854W        W60308  43.492  37.499   4.624
98855W        W60309   8.689  26.081   4.744
98856W        W60310  38.071  22.102  14.788
98857W        W60311  16.788  18.618  14.438
98858W        W60312  26.646  43.838   1.734
98859W        W60313   5.798  27.990   1.704
98860W        W60314  20.254  23.523  10.583
98861W        W60315  24.991  18.775  14.371
98862W        W60316  31.022  15.132   4.248
98863W        W60317  39.987   1.405  10.556
98864W        W60318   1.838  37.455   2.708
98865W        W60319  31.079  41.461  13.048
98866W        W60320  32.400  29.924   2.362
98867W        W60321  27.185   5.899   3.387
98868W        W60322  17.080   4.942   4.275
98869W        W60323  17.149  38.912  12.994
98870W        W60324  36.373  30.164   4.238
98871W        W60325  10.851  17.163   0.929
98872W        W60326  13.314  24.645  13.519
98873W        W60327  40.975  21.182   2.277
98874W        W60328  40.381  23.526   3.365
98875W        W60329  28.050  39.845   4.817
98876W        W60330  11.292   3.800   4.617
98877W        W60331  28.447  37.371   5.200
98878W        W60332   1.869  25.581   0.454
98879W        W60333  13.809   2.306  11.046
98880W        W60334   1.839   9.171   2.762
98881W        W60335   9.820  12.795  10.439
98882W        W60336   8.190   1.749   0.812
98883W        W60337  14.718  13.319   9.982
98884W        W60338  33.052  25.094   4.705
98885W        W60339  28.981  37.519  12.836
98886W        W60340  11.635   4.205  12.360
98887W        W60341  15.231  19.140  10.905
98888W        W60342  39.319   6.826  14.981
98889W        W60343  14.274  23.185  13.057
98890W        W60344   6.394  13.180  13.423
98891W        W60345  40.015  31.125  11.061
98892W        W60346  30.510  26.496   5.240
98893W        W60347   9.255  35.907  11.938
98894W        W60348  13.673  19.671  13.001
98895W        W60349  25.598   9.690  10.135
98896W        W60350  19.722  10.814  12.428
98897W        W60351  34.408  32.948  10.405
98898W        W60352   6.729  20.118  13.048
98899W        W60353  22.513  28.590  14.429
98900W        W60354  20.133  27.572   3.692
98901W        W60355  20.093  17.648   2.789
98902W        W60356  30.077  31.115  14.337
98903W        W60357  21.512  34.534   3.170
98904W        W60358  20.102  41.851   1.915
98905W        W60359  18.269  18.787  13.472
98906W        W60360  16.314  22.202   4.289
98907W        W60361   6.348   5.436  12.489
98908W        W60362  19.223  18.293   3.183
98909W        W60363  10.150  10.654   3.770
98910W        W60364  41.496  33.425  13.441
98911W        W60365  12.188  25.595   0.408
98912W        W60366  40.859  34.957  10.565
98913W        W60367   0.280  26.145  13.898
98914W        W60368  26.512   9.186   0.883
98915W        W60369  39.437   5.303  10.523
98916W        W60370  10.197  40.325   1.422
98917W        W60371  42.977   0.434   4.271
98918W        W60372  35.944  36.498  14.286
98919W        W60373  25.155  13.733  11.909
98920W        W60374  32.904  35.105   1.254
98921W        W60375  43.983  10.736  10.412
98922W        W60376   7.882   2.736  10.912
98923W        W60377   0.932  23.730  10.888
98924W        W60378  34.435   5.716  13.947
98925W        W60379  26.070  40.349  12.848
98926W        W60380  21.175  27.151  11.475
98927W        W60381  40.870  28.614   4.265
98928W        W60382   0.285  44.465  14.863
98929W        W60383  28.521  21.117  13.824
98930W        W60384  44.878  36.415   3.869
98931W        W60385  16.241  37.074  12.540
98932W        W60386   1.852  37.997  14.426
98933W        W60387   9.760  12.627  13.409
98934W        W60388  17.711  12.695   1.305
98935W        W60389  44.382  34.610  12.083
98936W        W60390  27.623   6.415  14.493
98937W        W60391   8.231  26.149   1.730
98938W        W60392   1.478  23.676  14.320
98939W        W60393   3.411  44.417   1.799
98940W        W60394  41.479   3.881   0.737
98941W        W60395  28.519  41.461  10.596
98942W        W60396  17.213  34.533  14.882
98943W        W60397  38.915  32.599   0.744
98944W        W60398  31.578  25.126   2.845
98945W        W60399  34.030  12.650  10.432
98946W        W60400   5.354  12.175   4.639
98947W        W60401   1.861   7.748   3.295
98948W        W60402  38.042  13.167  13.866
98949W        W60403  44.971  32.970   4.308
98950W        W60404   0.797  27.639   1.847
98951W        W60405  20.163  20.265   0.752
98952W        W60406  29.561  11.230   1.447
98953W        W60407  30.096   4.411   3.207
98954W        W60408   0.745  34.384   1.927
98955W        W60409  43.469   6.362  11.005
98956W        W60410  37.447  23.112   0.807
98957W        W60411  21.581   9.306  14.457
98958W        W60412  32.438  42.804  14.003
98959W        W60413  35.001   4.865   4.340
98960W        W60414  33.428  38.013   4.832
98961W        W60415   5.826  38.871   2.825
98962W        W60416  17.597  33.883   1.932
98963W        W60417  10.870  39.422   4.830
98964W        W60418   2.780  31.008   1.266
98965W        W60419  11.315  34.464   2.715
98966W        W60420  28.436  38.986   3.163
98967W        W60421  11.862  41.527   0.957
98968W        W60422   1.938  28.048   2.216
98969W        W60423  29.509  39.999  10.407
98970W        W60424  21.738   8.741  13.812
98971W        W60425  29.513  21.729   3.869
98972W        W60426  18.100  13.186   2.749
98973W        W60427   4.729  41.486   2.336
98974W        W60428   1.890   9.706  13.426
98975W        W60429  17.757  12.754  12.891
98976W        W60430  32.546   6.864   0.792
98977W        W60431  23.995   5.742   1.311
98978W        W60432  26.001  35.460   1.387
98979W        W60433  26.685   4.266   3.253
98980W        W60434   4.711  20.525   0.346
98981W        W60435  24.991  12.207   1.361
98982W        W60436  38.064  19.585  14.949
98983W        W60437   9.729   2.383   4.697
98984W        W60438  26.532  13.189  11.878
98985W        W60439  28.489  34.412   0.833
98986W        W60440  15.625  33.031   3.349
98987W        W60441  43.881  33.559   1.342
98988W        W60442   0.950  17.763  14.956
98989W        W60443  17.124  17.214   3.776
98990W        W60444  33.112  12.657  13.064
98991W        W60445   6.894   8.287  13.877
98992W        W60446  41.335   5.854   4.237
98993W        W60447  38.988   0.407   1.889
98994W        W60448  22.567  26.177  12.478
98995W        W60449   2.392  30.096  14.349
98996W        W60450  18.248  13.284  14.962
98997W        W60451  11.801  29.448   0.417
98998W        W60452  17.721   4.862   4.744
98999W        W60453   3.404  44.004   2.394
99000W        W60454  28.994  28.141  12.978
99001W        W60455  39.393  29.056   2.871
99002W        W60456  16.666  22.168   1.437
99003W        W60457  24.574  12.803  13.031
99004W        W60458  28.555  30.053  14.774
99005W        W60459  13.615  12.147   5.217
99006W        W60460  24.584   7.184  14.859
99007W        W60461  33.959  13.702  14.837
99008W        W60462  30.973  12.253   5.610
99009W        W60463  36.581  20.600  11.908
99010W        W60464  43.911  14.300   4.724
99011W        W60465   6.702  14.176  11.025
99012W        W60466  39.474  23.231   4.283
99013W        W60467  22.666  32.092  14.765
99014W        W60468  18.741  32.989   2.758
99015W        W60469  23.226  35.072   3.729
99016W        W60470  14.684  25.980   2.334
99017W        W60471  42.003  34.921   5.128
99018W        W60472  21.584   7.782   3.864
99019W        W60473   4.208  27.663  10.910
99020W        W60474  26.134   5.199  12.502
99021W        W60475  35.922  20.644  12.420
99022W        W60476   9.176   7.828   1.296
99023W        W60477  36.512  14.328   0.868
99024W        W60478  19.535  43.353  14.797
99025W        W60479   2.421  21.732  11.038
99026W        W60480   9.681  29.944   4.129
99027W        W60481  39.004  39.903   0.365
99028W        W60482  20.264  15.108  14.884
99029W        W60483  21.566   0.248   2.353
99030W        W60484  23.009  16.723  13.988
99031W        W60485   6.861  26.460   4.260
99032W        W60486  12.632  10.225  13.418
99033W        W60487   4.220  15.605   0.762
99034W        W60488   0.782  31.122   0.464
99035W        W60489  22.741   0.806   0.914
99036W        W60490  22.062   0.279   4.770
99037W        W60491   7.871  18.561   1.899
99038W        W60492  27.498  36.920   0.457
99039W        W60493   5.920  13.790   3.212
99040W        W60494  32.534  36.475   3.771
99041W        W60495  13.756  44.968   4.118
99042W        W60496  43.435  43.811   1.408
99043W        W60497   1.813   1.382  10.510
99044W        W60498  32.946  26.201   3.156
99045W        W60499   5.394  19.063   3.347
99046W        W60500   9.706  41.436  12.850
99047W        W60501  36.035   6.297  14.298
99048W        W60502  19.045  34.389  13.934
99049W        W60503  32.977  33.006   2.886
99050W        W60504   6.758   7.831   0.753
99051W        W60505  24.130  17.097  11.575
99052W        W60506  19.609  26.546  11.872
99053W        W60507  11.295   1.327   2.727
99054W        W60508  35.914  29.440  12.963
99055W        W60509  31.405  33.120   0.437
99056W        W60510   6.778   8.676   0.787
99057W        W60511   5.438  15.309   4.207
99058W        W60512  40.370  21.570  11.591
99059W        W60513   7.693   9.756  12.430
99060W        W60514  17.268  20.161   0.265
99061W        W60515  42.293  10.863  12.401
99062W        W60516   6.892   6.196  13.920
99063W        W60517  13.796  29.597  11.533
99064W        W60518   4.757  21.168   4.786
99065W        W60519   6.273  13.755   2.770
99066W        W60520  41.475  32.482  13.850
99067W        W60521  41.333  38.479   2.749
99068W        W60522  13.123  21.715   2.217
99069W        W60523  10.832  27.544   2.397
99070W        W60524  30.059  12.823  11.406
99071W        W60525  38.335  37.354   2.666
99072W        W60526   0.983  20.227  11.520
99073W        W60527  23.239  32.927   4.121
99074W        W60528  26.203  21.734  11.563
99075W        W60529  13.119  22.581   0.746
99076W        W60530  35.960  16.092  11.867
99077W        W60531  33.525  43.377   0.877
99078W        W60532  27.644  13.731  10.951
99079W        W60533   8.901  28.155   0.282
99080W        W60534  13.205  30.017  12.833
99081W        W60535   6.317  36.531   0.405
99082W        W60536   1.783  42.370  13.830
99083W        W60537  30.506  11.173  14.458
99084W        W60538  16.149  27.004  14.805
99085W        W60539  43.470  39.507   1.399
99086W        W60540  22.073  26.604  12.041
99087W        W60541  41.493   1.467  13.062
99088W        W60542  38.960  29.441   1.319
99089W        W60543  35.879  22.705   4.142
99090W        W60544  13.733  31.147   3.714
99091W        W60545  42.414  10.718  10.507
99092W        W60546  37.903  42.429   1.913
99093W        W60547  22.587  25.104   0.354
99094W        W60548  18.599  36.494  11.429
99095W        W60549  43.018  27.639   2.804
99096W        W60550  11.626  15.187   1.380
99097W        W60551  40.454  37.860   0.477
99098W        W60552  19.139  40.996   1.751
99099W        W60553  32.992  27.617   1.445
99100W        W60554  12.661  12.791   1.211
99101W        W60555  11.251   3.400  13.962
99102W        W60556  30.028  24.023   1.769
99103W        W60557  20.553  26.951   1.434
99104W        W60558  10.157  36.366   0.927
99105W        W60559  41.374   0.777   2.280
99106W        W60560  26.980  33.072   0.828
99107W        W60561  15.290  41.845  14.820
99108W        W60562  43.382  44.421  12.407
99109W        W60563  13.837  21.757   2.746
99110W        W60564  18.553  25.207   1.874
99111W        W60565  44.332  24.707  12.991
99112W        W60566  13.239  37.000  13.367
99113W        W60567  31.927  33.988   3.696
99114W        W60568  15.191   9.671  14.937
99115W        W60569  17.594  43.832   0.385
99116W        W60570   3.902  14.142   1.358
99117W        W60571   4.816  38.007   3.746
99118W        W60572   6.700  33.979  13.907
99119W        W60573  28.106   5.300  13.852
99120W        W60574  26.517  42.915  13.967
99121W        W60575  21.164  41.828   5.256
99122W        W60576  12.742  15.264  12.507
99123W        W60577  31.426   5.371   4.653
99124W        W60578  34.877  36.428  13.946
99125W        W60579  28.570   2.338  14.931
99126W        W60580  40.327   6.305  11.121
99127W        W60581   8.271  34.031  11.420
99128W        W60582  43.982  26.640   4.823
99129W        W60583  36.481  14.809   2.244
99130W        W60584   0.480  25.504  14.807
99131W        W60585  12.128   0.472  14.994
99132W        W60586  11.828   1.426   4.793
99133W        W60587   1.340  21.722  10.584
99134W        W60588  11.800  24.658   3.819
99135W        W60589  25.089   9.264   0.762
99136W        W60590  30.023  16.808   1.307
99137W        W60591  38.530  11.753  10.465
99138W        W60592  32.037  42.450   3.332
99139W        W60593  19.192  20.626  10.426
99140W        W60594   6.403   2.861  12.491
99141W        W60595  35.007  33.888  12.976
99142W        W60596  42.019  23.693   4.217
99143W        W60597  10.138  33.527  14.489
99144W        W60598  12.793   0.866  13.410
99145W        W60599  14.197   6.724  14.477
99146W        W60600  26.984  15.088   2.401
99147W        W60601   5.288  43.360   1.290
99148W        W60602  37.551  36.558   5.188
99149W        W60603   4.229  18.736  11.954
99150W        W60604   0.782  42.900  13.377
99151W        W60605  21.052  38.487  12.094
99152W        W60606  10.690  19.662   0.359
99153W        W60607  38.944  10.648   3.748
99154W        W60608   6.215  11.855  13.888
99155W        W60609  29.591  34.495  11.484
99156W        W60610  37.973  26.557   2.376
99157W        W60611  25.090   0.920  10.975
99158W        W60612  16.770  19.185  13.014
99159W        W60613   0.764   7.798   1.787
99160W        W60614  40.466   1.763   3.374
99161W        W60615  12.152  40.472  13.932
99162W        W60616   1.249   5.305   1.768
99163W        W60617  43.298  19.560   0.411
99164W        W60618   3.370  39.546  12.959
99165W        W60619  22.675  44.450  14.348
99166W        W60620  24.978  16.152  12.400
99167W        W60621  21.709   2.248  11.489
99168W        W60622   5.285  43.960   0.774
99169W        W60623   3.268  13.107   2.318
99170W        W60624  36.958  30.908  12.899
99171W        W60625  33.527  15.294  10.519
99172W        W60626  44.874   2.870  11.115
99173W        W60627   5.709  26.116   4.123
99174W        W60628  12.695  32.473   4.146
99175W        W60629  26.681   7.797   3.180
99176W        W60630   3.952  26.703  12.932
99177W        W60631  19.660   9.292  14.317
99178W        W60632  42.492  23.623  12.958
99179W        W60633  32.955   8.218   0.313
99180W        W60634  42.893  40.333  13.988
99181W        W60635   2.901   9.888  10.478
99182W        W60636   6.681   7.679   3.384
99183W        W60637   7.213  39.398  13.368
99184W        W60638  12.261   7.847  14.476
99185W        W60639   7.414   4.911  10.597
99186W        W60640  24.996  35.913   2.687
99187W        W60641   8.382  24.129   3.736
99188W        W60642  27.094  35.582   3.354
99189W        W60643   3.870  35.874  13.913
99190W        W60644   1.469  28.545   2.902
99191W        W60645   0.302  14.773   1.927
99192W        W60646  15.245   8.851  11.031
99193W        W60647  11.683  32.016   1.405
99194W        W60648  23.646   3.233  14.343
99195W        W60649   6.416  10.661  13.931
99196W        W60650  26.163  14.679   1.388
99197W        W60651  43.349  25.103   4.627
99198W        W60652  28.535  26.489   2.848
99199W        W60653  38.404  22.686  11.556
99200W        W60654  25.620  30.450   3.858
99201W        W60655  13.154  20.581   2.890
99202W        W60656   8.273  18.062   3.294
99203W        W60657  35.942  12.307  13.465
99204W        W60658  34.412  12.248   1.252
99205W        W60659  37.047   1.464   4.796
99206W        W60660  13.183   2.353  14.885
99207W        W60661   7.258  31.621  10.994
99208W        W60662  13.216  36.382   3.274
99209W        W60663  28.584  35.393   0.784
99210W        W60664  25.617  34.519  11.560
99211W        W60665  25.617  20.059   4.694
99212W        W60666  26.116  25.199  10.619
99213W        W60667  34.061  11.790   1.270
99214W        W60668  25.523  44.996  14.335
99215W        W60669   4.353  28.087   0.816
99216W        W60670   7.786   8.343  14.303
99217W        W60671  36.005  24.120  11.562
99218W        W60672  32.630  35.860  12.045
99219W        W60673   7.725  16.266   4.315
99220W        W60674  27.166  36.076   0.898
99221W        W60675  21.178  34.513   0.836
99222W        W60676  39.007   7.353  11.487
99223W        W60677  20.137  32.626   2.239
99224W        W60678  19.612  16.627  13.403
99225W        W60679   9.680  30.937  12.379
99226W        W60680  19.720  27.642  13.998
99227W        W60681  27.105  34.059  14.366
99228W        W60682  39.834   6.716   2.278
99229W        W60683  40.878  36.454   1.313
99230W        W60684   8.827  43.973  14.456
99231W        W60685  25.987  24.116   0.952
99232W        W60686  31.409   4.943  11.931
99233W        W60687  37.955  18.192   2.791
99234W        W60688  33.569   7.244   0.799
99235W        W60689   7.356  22.050   1.375
99236W        W60690  30.482  40.806  13.475
99237W        W60691   8.798  28.973  12.401
99238W        W60692  27.987  12.218   0.294
99239W        W60693  38.955  11.256   2.846
99240W        W60694   4.344  16.587   1.905
99241W        W60695  16.724   4.904  13.414
99242W        W60696  42.939  22.011  12.971
99243W        W60697  35.088  15.700   4.642
99244W        W60698  23.061   9.799  11.101
99245W        W60699  11.225  22.174  14.022
99246W        W60700   4.429  23.733   0.481
99247W        W60701  39.810  35.532  14.782
99248W        W60702   8.211   0.361   3.304
99249W        W60703  36.353  34.476   3.724
99250W        W60704   4.822   1.941  12.560
99251W        W60705  18.621  33.416  11.577
99252W        W60706  35.076  25.080   4.806
99253W        W60707  14.753  24.035  12.020
99254W        W60708  40.413  30.565  13.843
99255W        W60709  15.785   8.255   1.252
99256W        W60710   9.185  30.032   1.360
99257W        W60711  33.879  20.535   0.460
99258W        W60712  13.707  26.067   0.964
99259W        W60713  43.911   4.352  13.467
99260W        W60714  14.652  12.150   1.271
99261W        W60715  32.973  38.538   2.785
99262W        W60716  29.041  14.781   0.367
99263W        W60717  12.318  30.112   2.279
99264W        W60718  19.192  23.193  10.583
99265W        W60719  16.792  20.601  10.888
99266W        W60720   3.745  41.393  12.420
99267W        W60721  15.669  31.620  12.846
99268W        W60722  12.267   5.830  12.495
99269W        W60723  30.045  21.666   0.756
99270W        W60724  34.076  44.398  13.914
99271W        W60725  30.545  18.577  10.425
99272W        W60726  11.274  31.454  14.841
99273W        W60727  33.874  26.563  10.406
99274W        W60728  36.092  20.044   1.211
99275W        W60729  14.817   2.324   4.316
99276W        W60730  32.462  36.941   1.282
99277W        W60731  14.186  27.681   2.726
99278W        W60732  19.219  26.017  10.488
99279W        W60733  24.130  27.450  11.098
99280W        W60734  35.891   8.325   0.767
99281W        W60735  14.166  11.656   1.872
99282W        W60736  10.363   6.888   1.281
99283W        W60737  20.269  33.381  11.985
99284W        W60738   3.338  15.222   0.870
99285W        W60739  38.007  18.062   4.617
99286W        W60740   8.385   7.692  13.543
99287W        W60741  17.775  10.803   1.370
99288W        W60742  18.100  27.112  10.989
99289W        W60743  22.685  25.163  11.575
99290W        W60744  25.150   8.817   2.900
99291W        W60745  10.680   2.359   0.316
99292W        W60746   0.464  25.504  10.633
99293W        W60747  13.774  22.672  11.980
99294W        W60748  33.419  41.337   4.130
99295W        W60749  17.575  30.644   2.665
99296W        W60750  26.647   3.377  14.487
99297W        W60751  10.316  28.042   5.133
99298W        W60752  19.768  25.671   1.415
99299W        W60753  33.455   6.759  13.502
99300W        W60754  11.339   9.774   4.619
99301W        W60755  44.469  36.552   3.796
99302W        W60756  44.818  36.023   1.817
99303W        W60757  42.412  15.200   1.748
99304W        W60758   3.762  38.861  14.447
99305W        W60759   6.388  16.617  14.032
99306W        W60760  36.385  21.655   1.385
99307W        W60761  29.071  12.143  13.383
99308W        W60762  20.635  31.065  13.500
99309W        W60763  12.339  36.871  12.487
99310W        W60764  13.214  13.761  14.850
99311W        W60765  37.052  36.398   1.802
99312W        W60766  37.931  11.711  11.904
99313W        W60767   1.746  16.743   3.211
99314W        W60768  17.626   9.782  13.805
99315W        W60769  21.543  19.620  12.010
99316W        W60770  44.347  10.263   3.185
99317W        W60771  34.013   8.339  11.523
99318W        W60772   7.789   1.846   0.288
99319W        W60773  43.358  12.267  13.461
99320W        W60774  32.070  37.502   3.702
99321W        W60775  27.120   1.363   0.414
99322W        W60776  30.444  38.015  12.083
99323W        W60777  12.167  17.627   0.931
99324W        W60778  40.052   5.266  13.429
99325W        W60779  23.179  22.551   0.893
99326W        W60780  41.407  39.941   1.716
99327W        W60781  14.591  27.593   0.966
99328W        W60782  21.080  39.504  12.968
99329W        W60783  26.158  20.537   4.601
99330W        W60784  17.799   0.466   0.789
99331W        W60785  17.128   6.424  10.639
99332W        W60786  42.984  29.624  11.577
99333W        W60787  33.902   3.418  12.346
99334W        W60788  28.936   7.677   1.331
99335W        W60789  34.865  23.617   1.364
99336W        W60790  24.661  22.655  12.906
99337W        W60791  15.806   8.698  14.372
99338W        W60792  41.527  30.470  12.470
99339W        W60793  35.439  18.662   4.236
99340W        W60794  15.638  24.083  10.450
99341W        W60795  30.523  37.536   2.800
99342W        W60796  26.574   3.923   3.748
99343W        W60797  37.078   0.764  13.445
99344W        W60798  34.886  42.955  11.419
99345W        W60799  20.568   7.370   0.732
99346W        W60800  18.110  21.264   1.862
99347W        W60801  34.403  41.960  11.580
99348W        W60802  43.506  43.790  11.038
99349W        W60803  19.629  11.774  14.451
99350W        W60804  27.543   4.722   0.873
99351W        W60805  42.369  11.641  12.562
99352W        W60806  39.864  10.346  14.823
99353W        W60807  12.303  20.126  14.847
99354W        W60808  41.326  36.915  11.463
99355W        W60809  44.384  26.137  13.340
99356W        W60810   6.300  43.405  10.638
99357W        W60811   3.875  40.319  13.837
99358W        W60812  21.566  29.981   1.754
99359W        W60813  41.801   4.701   3.862
99360W        W60814   2.333  22.669   2.728
99361W        W60815   8.287  25.183  11.399
99362W        W60816  10.232  32.555   0.303
99363W        W60817   6.297  19.271  11.503
99364W        W60818  28.048   5.439  12.574
99365W        W60819   5.398  10.257  10.543
99366W        W60820  25.118  13.213   2.228
99367W        W60821  10.675  15.174   1.256
99368W        W60822   9.342  12.248  10.913
99369W        W60823  10.334   8.390  10.549
99370W        W60824  34.063  31.587  11.083
99371W        W60825  25.122  14.313   2.293
99372W        W60826  34.402  13.256   1.355
99373W        W60827  19.216  36.953   1.310
99374W        W60828   5.436  21.596  12.377
99375W        W60829  29.510  29.446  13.411
99376W        W60830  14.119  15.775   3.743
99377W        W60831  19.709   6.427  11.075
99378W        W60832   5.425  37.539   2.287
99379W        W60833   6.400  40.884  12.828
99380W        W60834  10.224  23.179   1.388
99381W        W60835  17.197  33.616   1.380
99382W        W60836  29.662  43.507   0.351
99383W        W60837  32.096  31.646  14.842
99384W        W60838   2.790  37.049  14.896
99385W        W60839  21.608  28.627   4.307
99386W        W60840   3.360  14.112   2.250
99387W        W60841  14.643  16.617   5.764
99388W        W60842  33.598  42.891   2.878
99389W        W60843  22.041  27.986   3.310
99390W        W60844  28.005  22.104   9.458
99391W        W60845  27.566   9.230   3.280
99392W        W60846  25.145  13.685   2.664
99393W        W60847   4.791   8.334   0.962
99394W        W60848   4.737   6.795  14.786
99395W        W60849  25.631  20.126  10.462
99396W        W60850  24.686  24.661  10.427
99397W        W60851  28.568  35.000  14.932
99398W        W60852  44.312  38.865   2.339
99399W        W60853  42.282  14.597   2.667
99400W        W60854   2.447  31.901   2.766
99401W        W60855  17.608  28.439  11.950
99402W        W60856  39.009  41.866   1.880
99403W        W60857  25.171  13.273  11.994
99404W        W60858  43.501  42.825   2.810
99405W        W60859  23.648  30.563   4.690
99406W        W60860  31.963   0.832  12.836
99407W        W60861  29.573   8.245  11.103
99408W        W60862  25.536   9.333   0.778
99409W        W60863  19.045  38.942  10.549
99410W        W60864  15.312  24.679   1.840
99411W        W60865  26.635  23.560  11.468
99412W        W60866  31.963  44.872   4.697
99413W        W60867   0.939  30.024   1.342
99414W        W60868   2.317  30.987   3.177
99415W        W60869  44.000  19.738  13.374
99416W        W60870  25.645   0.880   3.292
99417W        W60871  23.720  33.595  12.872
99418W        W60872  28.580  16.583  11.418
99419W        W60873  25.640  34.419   1.376
99420W        W60874   2.731  32.392  10.623
99421W        W60875   9.777  33.413   3.167
99422W        W60876  44.764  29.559   1.236
99423W        W60877  35.105  42.994   0.314
99424W        W60878   2.861  21.751   2.742
99425W        W60879  39.371  19.274   4.617
99426W        W60880  42.453  34.424  14.336
99427W        W60881  26.534   1.464   3.736
99428W        W60882   0.749  11.684   0.342
99429W        W60883  40.877  21.090  13.024
99430W        W60884  30.912  41.803   3.752
99431W        W60885  41.797   1.843  11.067
99432W        W60886  26.144  30.992  12.515
99433W        W60887   2.781  13.234   0.828
99434W        W60888  27.005  38.542   4.645
99435W        W60889  22.576  40.523   4.782
99436W        W60890  42.841  13.105  11.010
99437W        W60891   9.719   5.837  12.483
99438W        W60892  29.951  34.399  12.823
99439W        W60893  21.666  24.635   3.303
99440W        W60894  44.988  23.235   1.218
99441W        W60895  10.774   3.220   3.149
99442W        W60896  27.990  33.583   4.690
99443W        W60897  42.937   0.794   2.264
99444W        W60898   2.457  35.406   3.654
99445W        W60899  37.978  28.062  11.070
99446W        W60900  17.179  26.686  11.390
99447W        W60901  18.765  19.219   2.301
99448W        W60902   3.732   0.838  10.620
99449W        W60903  37.935  23.057  14.344
99450W        W60904   3.806  24.189  14.894
99451W        W60905  23.560   1.326  11.569
99452W        W60906  39.479  42.792  10.064
99453W        W60907  18.187  20.626   0.347
99454W        W60908   1.281  34.955   1.921
99455W        W60909  22.092  28.620  13.017
99456W        W60910  34.922  11.858   9.999
99457W        W60911   0.263   4.758   2.796
99458W        W60912  28.575  32.538   0.411
99459W        W60913  31.487  32.601   1.887
99460W        W60914  29.074  23.611  14.989
99461W        W60915  27.011  40.544  11.930
99462W        W60916  18.621  39.878   0.348
99463W        W60917  32.887  39.341  12.340
99464W        W60918  32.399  37.846  11.086
99465W        W60919  43.783  16.154   0.937
99466W        W60920  39.948  17.603   4.676
99467W        W60921  36.080  27.666   2.696
99468W        W60922   9.333  43.006   2.765
99469W        W60923  36.942  12.232   3.351
99470W        W60924  33.101  24.193   4.617
99471W        W60925   2.463  34.615   0.314
99472W        W60926  18.785  38.546  14.368
99473W        W60927  15.281  29.115   3.792
99474W        W60928  17.742  18.616   1.425
99475W        W60929  21.135  14.706  13.348
99476W        W60930  20.686   0.933  10.519
99477W        W60931   4.445  29.947  10.437
99478W        W60932  13.345  18.068  12.432
99479W        W60933  15.306  10.822   5.117
99480W        W60934  10.670   0.761   0.952
99481W        W60935  38.419  13.212  14.407
99482W        W60936  13.273  20.569   0.776
99483W        W60937  15.737   7.894   5.148
99484W        W60938   1.406  13.185  14.447
99485W        W60939   7.763   5.855   1.408
99486W        W60940   4.830  26.096   1.393
99487W        W60941  44.007  10.642  11.466
99488W        W60942  32.403  27.135   0.923
99489W        W60943  15.715  40.836  14.994
99490W        W60944   2.451   0.907   3.661
99491W        W60945  10.211  19.079   2.285
99492W        W60946   5.835  19.172   2.294
99493W        W60947  19.598  23.119  14.875
99494W        W60948  41.986  40.961  13.468
99495W        W60949  34.867  11.240   1.705
99496W        W60950  20.060  42.980  14.868
99497W        W60951  37.025  11.169  11.444
99498W        W60952  36.386  40.463  12.531
99499W        W60953   9.335  36.971  10.542
99500W        W60954  12.295  22.098  12.411
99501W        W60955   0.826  27.471  14.980
99502W        W60956  19.535   7.699   3.708
99503W        W60957  28.590   2.753   1.411
99504W        W60958  24.694  31.944   1.698
99505W        W60959  32.964  28.673   4.646
99506W        W60960   1.391  25.646  12.483
99507W        W60961  17.671  14.254  14.466
99508W        W60962   1.754  39.527  11.468
99509W        W60963  34.550  43.432  13.901
99510W        W60964  18.753  24.008  14.470
99511W        W60965  43.900  18.187   0.916
99512W        W60966   6.773  39.849   3.275
99513W        W60967  32.422   8.392  14.506
99514W        W60968  32.441  11.367  14.510
99515W        W60969  13.310  18.061  14.833
99516W        W60970  35.562   7.290  10.550
99517W        W60971  10.383   5.730   1.369
99518W        W60972  43.802   2.260  13.400
99519W        W60973  28.536  44.413   0.780
99520W        W60974   6.863  31.564   0.852
99521W        W60975  33.411   1.401   3.844
99522W        W60976  21.572  37.912   0.743
99523W        W60977   4.308  31.534   4.779
99524W        W60978  43.288  38.393   3.755
99525W        W60979   1.751  34.559  10.421
99526W        W60980  38.508  15.763  12.577
99527W        W60981   4.919  26.504  12.983
99528W        W60982  30.117  32.535  10.433
99529W        W60983  42.459   1.408   4.640
99530W        W60984  34.961  39.955   3.788
99531W        W60985  13.203   3.440  13.029
99532W        W60986   7.231  40.878   4.801
99533W        W60987  10.725  30.151   2.775
99534W        W60988  24.121   5.785   4.254
99535W        W60989  26.702  21.130   0.474
99536W        W60990  35.870  42.298   3.833
99537W        W60991  37.489   6.425  10.600
99538W        W60992  11.231   1.331  14.500
99539W        W60993  31.588  20.738   0.931
99540W        W60994  11.718   0.351   3.360
99541W        W60995  13.210  13.722  12.339
99542W        W60996  43.297  13.318  12.094
99543W        W60997  12.743  29.625   2.391
99544W        W60998  27.518   3.804   0.803
99545W        W60999  30.915  20.555   4.823
99546W        W61000  35.541  37.954  10.552
99547W        W61001  20.610  28.934   2.282
99548W        W61002  21.062  26.619   4.189
99549W        W61003  14.782  29.116   2.678
99550W        W61004   3.444  28.936  13.421
99551W        W61005  21.044  23.204   3.706
99552W        W61006  31.951  13.348   1.934
99553W        W61007  38.934  13.671   0.318
99554W        W61008  34.044   0.262  13.416
99555W        W61009  25.054  27.009   0.862
99556W        W61010   3.727  10.162  12.544
99557W        W61011  39.815   4.315   1.399
99558W        W61012   8.260  31.952  11.528
99559W        W61013  23.217  19.077  13.396
99560W        W61014   6.389  33.440  13.817
99561W        W61015   1.815  22.069   2.827
99562W        W61016   9.222  21.133  12.897
99563W        W61017   8.374   5.821  13.464
99564W        W61018   0.328   9.700  11.391
99565W        W61019  32.591  32.135  12.960
99566W        W61020  15.675   3.917  11.463
99567W        W61021  38.881   4.391  14.306
99568W        W61022  26.488  33.523  13.511
99569W        W61023  18.570  26.036   1.450
99570W        W61024  13.768  18.206  11.443
99571W        W61025   1.881  20.534   4.184
99572W        W61026  25.074  10.741   0.957
99573W        W61027  41.911   3.456   3.797
99574W        W61028   1.976   6.854   1.875
99575W        W61029   6.319  22.680   2.238
99576W        W61030  35.515   7.206   4.347
99577W        W61031   9.888   8.307   2.252
99578W        W61032  29.557  37.999  11.507
99579W        W61033  36.416  24.052  14.788
99580W        W61034   3.841  35.473   4.760
99581W        W61035   3.949  11.772  12.080
99582W        W61036   6.707  18.218   4.751
99583W        W61037   0.286   1.272   0.940
99584W        W61038  17.633  12.825   0.842
99585W        W61039   1.250  39.897   4.751
99586W        W61040  16.658  22.590  11.005
99587W        W61041  10.143  19.560   3.357
99588W        W61042  16.272  24.572  11.982
99589W        W61043  27.099  22.233  14.509
99590W        W61044  36.442  12.826   0.913
99591W        W61045  35.485  21.036   3.189
99592W        W61046  14.606  13.731   2.203
99593W        W61047   9.847  31.541  13.930
99594W        W61048  28.040   8.830  13.939
99595W        W61049  21.527  40.371   4.672
99596W        W61050  29.513  40.963   2.370
99597W        W61051  28.100  42.872  12.076
99598W        W61052  14.282  31.058  11.414
99599W        W61053  35.410  32.140   2.189
99600W        W61054  23.689  31.507  11.536
99601W        W61055   1.925  29.041  12.356
99602W        W61056   5.887  33.003   0.358
99603W        W61057  34.376  32.544  14.880
99604W        W61058  19.265  30.626   3.665
99605W        W61059  37.452  10.204   2.239
99606W        W61060  38.388  35.444   4.803
99607W        W61061   6.757  36.358   0.852
99608W        W61062  12.223  43.907   1.895
99609W        W61063   6.264  42.482   1.855
99610W        W61064  44.345   1.301  10.038
99611W        W61065  20.209   4.788  14.444
99612W        W61066  38.507  23.573  14.295
99613W        W61067   0.987  19.275   0.348
99614W        W61068  39.973  14.725  11.606
99615W        W61069  34.485   8.391   4.681
99616W        W61070  34.465  13.758   0.824
99617W        W61071  33.012  29.607   0.446
99618W        W61072   6.261   0.921   1.898
99619W        W61073   9.217  21.631   1.296
99620W        W61074  43.448  23.149   2.354
99621W        W61075  17.774  22.640  11.443
99622W        W61076  17.739  37.081  14.026
99623W        W61077  33.438  15.306  12.006
99624W        W61078  41.964  21.110   4.295
99625W        W61079  26.649  10.243   3.837
99626W        W61080  24.073  24.012  12.042
99627W        W61081  14.227  30.116  11.071
99628W        W61082  27.484  29.435  14.383
99629W        W61083  31.085   4.416  10.144
99630W        W61084  38.393  19.770  10.462
99631W        W61085  24.591  40.539  14.868
99632W        W61086  23.996  24.653   0.752
99633W        W61087  24.512  13.340   2.703
99634W        W61088  41.462  32.932   3.352
99635W        W61089  29.577  41.475  12.076
99636W        W61090  38.850   3.309   2.229
99637W        W61091  15.130  30.005   4.813
99638W        W61092   0.486  23.007  12.573
99639W        W61093  39.828   0.416   1.895
99640W        W61094  12.796  32.919   3.779
99641W        W61095  43.369  18.224   0.358
99642W        W61096  10.760   2.281   1.270
99643W        W61097  26.568   8.221   3.276
99644W        W61098  11.805  13.611  11.018
99645W        W61099  24.701   3.770  10.537
99646W        W61100   2.910  29.445   1.844
99647W        W61101   9.723  44.436   0.286
99648W        W61102  13.781   4.839  12.838
99649W        W61103  42.466  17.610  13.421
99650W        W61104  44.407  43.292  13.824
99651W        W61105  38.830  42.350  11.418
99652W        W61106   6.377  19.588   1.350
99653W        W61107   6.210  44.007   0.287
99654W        W61108  25.562  37.433   0.333
99655W        W61109  33.876  40.371   0.359
99656W        W61110   6.861  35.571   4.640
99657W        W61111  11.335   5.264   3.744
99658W        W61112  31.109   3.947  11.500
99659W        W61113  25.561  27.942   3.192
99660W        W61114   4.278  31.913   4.257
99661W        W61115  24.725  14.274  13.445
99662W        W61116  42.864  34.096   2.673
99663W        W61117   3.808  37.991  14.026
99664W        W61118   4.382  16.781  14.319
99665W        W61119   4.337  32.086   0.901
99666W        W61120  34.565   7.847  13.060
99667W        W61121  43.896  24.213  13.801
99668W        W61122  18.250  14.769   2.305
99669W        W61123  30.979  13.290   1.328
99670W        W61124  42.370  12.690  11.417
99671W        W61125  12.328  33.450  12.434
99672W        W61126  32.977   4.323  13.478
99673W        W61127  33.493  17.193  14.929
99674W        W61128  31.591  22.588  10.950
99675W        W61129  32.929   9.222   1.317
99676W        W61130  37.874  32.445   2.889
99677W        W61131  32.601  34.087  14.786
99678W        W61132  30.033  40.904   1.444
99679W        W61133  43.790  41.854   0.784
99680W        W61134  25.057  26.992   2.867
99681W        W61135  17.737  34.940  12.370
99682W        W61136  42.437  36.399   1.705
99683W        W61137   3.330   2.400   3.669
99684W        W61138  28.557  23.572   4.789
99685W        W61139  14.180  29.066  14.761
99686W        W61140  22.099  31.421   0.768
99687W        W61141  25.660  42.828   4.142
99688W        W61142  33.105  26.988   3.681
99689W        W61143   3.792  22.728  14.867
99690W        W61144  22.168  43.015   1.790
99691W        W61145  39.464  39.513   3.679
99692W        W61146  43.434   2.389  13.880
99693W        W61147  42.848  10.644   3.741
99694W        W61148  36.453  40.325   3.810
99695W        W61149  32.454  18.704  12.537
99696W        W61150  37.453  17.245  13.382
99697W        W61151   1.324  43.801  14.832
99698W        W61152  20.649  14.216  12.565
99699W        W61153  28.954   4.265  14.297
99700W        W61154  12.201   4.766  12.910
99701W        W61155  14.113   7.872   0.300
99702W        W61156   4.712   6.854  11.975
99703W        W61157  42.384  43.355  11.573
99704W        W61158  12.817   7.881   1.348
99705W        W61159  32.394  20.709   2.898
99706W        W61160  44.841  17.179  12.420
99707W        W61161  18.641  17.675   0.347
99708W        W61162  27.102  12.249   4.182
99709W        W61163  17.157  41.809   0.875
99710W        W61164  44.805  34.080   3.760
99711W        W61165  16.130  36.886  11.428
99712W        W61166  27.521  29.933  11.039
99713W        W61167  25.668   4.265  11.513
99714W        W61168  23.112   3.809   4.824
99715W        W61169  13.117  18.662   3.330
99716W        W61170   6.394  21.189   2.192
99717W        W61171  25.662  35.553   3.697
99718W        W61172  37.047  26.630  11.928
99719W        W61173  28.073  11.676   4.273
99720W        W61174  44.986  25.195  14.332
99721W        W61175   5.789  36.955   3.726
99722W        W61176  19.162  14.690  11.380
99723W        W61177   3.431  15.226  11.122
99724W        W61178  35.860  37.896  13.817
99725W        W61179  26.636  30.930   4.256
99726W        W61180   8.185  37.564   3.725
99727W        W61181  43.482  18.077  13.372
99728W        W61182  25.562  37.901   4.307
99729W        W61183  42.866  23.109  11.971
99730W        W61184  14.596  26.126  14.382
99731W        W61185  41.324   1.917   4.673
99732W        W61186  29.062  17.132   0.349
99733W        W61187  38.487   4.873  13.929
99734W        W61188  38.990  30.518   1.306
99735W        W61189   9.261  42.515  14.993
99736W        W61190  43.460  27.159   1.853
99737W        W61191  35.903  25.142   3.240
99738W        W61192  10.151  16.762  12.876
99739W        W61193  24.502  39.528  14.355
99740W        W61194   1.381  33.557   0.874
99741W        W61195  37.456   5.339  12.077
99742W        W61196  34.422   9.649   4.253
99743W        W61197  44.472   5.359   2.257
99744W        W61198  38.929  14.722   3.696
99745W        W61199  43.831  14.192  11.902
99746W        W61200  16.152  19.082   4.657
99747W        W61201  28.550  21.619   2.391
99748W        W61202  23.685   2.919   3.795
99749W        W61203  38.833  21.690  14.369
99750W        W61204  22.039  38.546   1.293
99751W        W61205  20.242  17.292   1.319
99752W        W61206  33.544  39.976  14.325
99753W        W61207  13.676  28.560   2.711
99754W        W61208   3.406  16.173   4.664
99755W        W61209  12.768   4.734   1.838
99756W        W61210  43.505  35.000   3.686
99757W        W61211  23.069  11.156  13.535
99758W        W61212   0.252   7.233  14.935
99759W        W61213  11.747   6.413  11.127
99760W        W61214  31.029  21.570  14.912
99761W        W61215  34.901  16.131   3.305
99762W        W61216  18.605  26.961  10.458
99763W        W61217   8.783  40.531   3.360
99764W        W61218  21.650  11.293  13.824
99765W        W61219   3.749  37.579   1.830
99766W        W61220  13.176  18.581   2.757
99767W        W61221  28.493  36.036   0.848
99768W        W61222  18.208  25.986  14.331
99769W        W61223  27.554   4.726   4.613
99770W        W61224  26.956   3.826   1.900
99771W        W61225  23.708  34.446  11.900
99772W        W61226  15.670  29.072  12.551
99773W        W61227  34.026  29.597   4.629
99774W        W61228  16.709  33.060   2.690
99775W        W61229   5.716  25.015  10.466
99776W        W61230  44.839  27.501   3.763
99777W        W61231  39.056   8.794  10.978
99778W        W61232  38.455  23.078  12.340
99779W        W61233  43.809   7.721   2.848
99780W        W61234  40.944  13.741   1.277
99781W        W61235  28.606  34.485  12.464
99782W        W61236  23.680   8.373  14.962
99783W        W61237   5.407  42.777   2.812
99784W        W61238   7.776  19.542   1.717
99785W        W61239  33.606  28.086  11.516
99786W        W61240  12.815  28.586   0.359
99787W        W61241  42.021   7.342  11.939
99788W        W61242   7.250  38.334  11.035
99789W        W61243   0.794  35.457  11.042
99790W        W61244  17.742  19.116   3.337
99791W        W61245  38.446  12.828  13.307
99792W        W61246  26.559  29.591  12.928
99793W        W61247  27.983  28.014  11.592
99794W        W61248  12.184  37.506  10.488
99795W        W61249  44.479  19.144  11.515
99796W        W61250  13.684  17.783  11.861
99797W        W61251  39.977  30.607   2.311
99798W        W61252  13.725  30.147  10.480
99799W        W61253   8.309  27.652  10.443
99800W        W61254  22.595  29.106   3.295
99801W        W61255  20.039  30.533   5.204
99802W        W61256   7.723  42.948  12.854
99803W        W61257  21.164  38.539  12.564
99804W        W61258  19.045  18.734   4.665
99805W        W61259  29.046  38.895  14.011
99806W        W61260   4.428  37.462  13.332
99807W        W61261  35.424   8.369  12.983
99808W        W61262   4.432  18.284  11.094
99809W        W61263  44.324  11.206  14.784
99810W        W61264  15.679   3.278  12.910
99811W        W61265  18.068  14.684  13.851
99812W        W61266  24.690  21.688  11.040
99813W        W61267  44.797  24.532   1.866
99814W        W61268   8.285  40.513  14.428
99815W        W61269   4.909  37.416   1.348
99816W        W61270  43.919  29.919  12.468
99817W        W61271  10.745  20.639  13.797
99818W        W61272   4.913   3.284   3.852
99819W        W61273  18.191  43.937  10.509
99820W        W61274  39.882  37.870   4.193
99821W        W61275  20.657  14.823   1.774
99822W        W61276  25.713  27.008   3.175
99823W        W61277  30.467   9.357   0.378
99824W        W61278  23.594   6.291   4.217
99825W        W61279  14.762   2.450   4.699
99826W        W61280  11.272   1.369  10.522
99827W        W61281  30.949  44.894  12.349
99828W        W61282   2.787  16.613   2.323
99829W        W61283  38.077   7.377   2.233
99830W        W61284  41.360   1.331  13.411
99831W        W61285  31.618  35.589   1.221
99832W        W61286  18.596   0.897  11.037
99833W        W61287  23.521   0.339  12.439
99834W        W61288  37.412   1.441   4.197
99835W        W61289  36.091   5.864   0.840
99836W        W61290  16.734  30.967  12.579
99837W        W61291  17.232   5.807  13.811
99838W        W61292  35.038  11.809   1.297
99839W        W61293  13.197  29.559  10.907
99840W        W61294  40.911  44.778   0.460
99841W        W61295   2.258  21.661   0.263
99842W        W61296  34.567  34.570   0.851
99843W        W61297  22.019  34.445   3.260
99844W        W61298  29.173  39.883   0.417
99845W        W61299   0.760  29.559  13.861
99846W        W61300  32.916  43.333  14.781
99847W        W61301   7.732  35.420   0.340
99848W        W61302  30.628  34.069   3.318
99849W        W61303   7.190  13.793   3.704
99850W        W61304  41.464  42.341   9.974
99851W        W61305  33.405   4.233  11.929
99852W        W61306  34.094  36.862   3.312
99853W        W61307  12.763   6.831   4.785
99854W        W61308  22.191  33.018  10.514
99855W        W61309   7.900  44.454   4.201
99856W        W61310   3.248  34.875   0.741
99857W        W61311  30.644  24.612  12.042
99858W        W61312  12.856   1.385   1.853
99859W        W61313  40.033   4.777  14.928
99860W        W61314  25.184  41.338   3.787
99861W        W61315   2.759  32.978  13.839
99862W        W61316  29.954  33.411  12.499
99863W        W61317  41.490  15.699  10.418
99864W        W61318   5.312  27.470   1.396
99865W        W61319  27.053   8.324  11.062
99866W        W61320   4.847  27.991  14.940
99867W        W61321  30.583  38.496   3.287
99868W        W61322  18.687  21.710  12.875
99869W        W61323   6.894  19.540  11.006
99870W        W61324  43.781  23.078  11.900
99871W        W61325  34.886  37.561   5.208
99872W        W61326  34.594  37.843   2.831
99873W        W61327  27.959   2.375  10.910
99874W        W61328  18.075  11.255   1.906
99875W        W61329  38.051  11.677  10.410
99876W        W61330  43.015  19.562   4.232
99877W        W61331   8.301  21.245   1.734
99878W        W61332  30.458  13.842  14.513
99879W        W61333  42.419  40.338   3.226
99880W        W61334  14.617  19.040  14.332
99881W        W61335  12.222  13.233   4.804
99882W        W61336  29.536  41.508  10.595
99883W        W61337  23.004  35.976   0.880
99884W        W61338  36.377   7.822   4.259
99885W        W61339  18.133   9.869   3.676
99886W        W61340  38.860   6.750   4.802
99887W        W61341  37.446  23.535   2.314
99888W        W61342  25.611   5.812  14.027
99889W        W61343  40.925  17.791  12.340
99890W        W61344  42.944   9.367   0.875
99891W        W61345  29.529  12.654  12.869
99892W        W61346  24.504  33.471  13.820
99893W        W61347  11.138  23.136  12.009
99894W        W61348  20.108  10.643  14.434
99895W        W61349  27.966  41.370  12.990
99896W        W61350  25.104  37.982   4.197
99897W        W61351  38.051  11.845   1.310
99898W        W61352  44.331  14.209  14.402
99899W        W61353  39.869   2.417  10.572
99900W        W61354   3.758   5.402  12.937
99901W        W61355  38.358  41.007  14.816
99902W        W61356  40.538  16.696   2.275
99903W        W61357  20.767  25.122  12.510
99904W        W61358  43.877  31.119  13.863
99905W        W61359  42.496  38.556  14.464
99906W        W61360  40.483  36.478  14.322
99907W        W61361  14.233  31.570   2.717
99908W        W61362   5.287   6.341  14.415
99909W        W61363   7.846   7.196   5.270
99910W        W61364  25.989  35.909   4.301
99911W        W61365  30.911  44.922   1.856
99912W        W61366   7.733  17.799  13.539
99913W        W61367  13.213  13.301   4.279
99914W        W61368  28.645   5.330   5.256
99915W        W61369   9.337  23.059  12.090
99916W        W61370  28.623  14.832   1.880
99917W        W61371  29.124   2.852  14.870
99918W        W61372  16.624  29.650  14.874
99919W        W61373  23.564  29.006  11.866
99920W        W61374  15.112  15.732   3.822
99921W        W61375  26.573  11.280  12.486
99922W        W61376   6.721   1.817  11.086
99923W        W61377  41.426  24.116  11.075
99924W        W61378  16.297  13.341   4.249
99925W        W61379  42.986  33.080  12.397
99926W        W61380  40.972  23.510   4.219
99927W        W61381  21.047  32.037  14.838
99928W        W61382  17.742  29.564   1.914
99929W        W61383  41.482  14.615  13.029
99930W        W61384  37.475  21.192   4.296
99931W        W61385  17.628  11.732   2.299
99932W        W61386  21.199  24.179  11.060
99933W        W61387  14.807  28.556  14.827
99934W        W61388  24.204   7.705   3.290
99935W        W61389  16.315  42.940  10.939
99936W        W61390  34.051  29.058  12.939
99937W        W61391   9.774  42.294   2.217
99938W        W61392   0.346  13.325   3.305
99939W        W61393  13.702  30.088   1.818
99940W        W61394  19.662  11.259   0.376
99941W        W61395  13.252   5.350   2.818
99942W        W61396  28.548  22.705  12.066
99943W        W61397  37.561  30.908  13.333
99944W        W61398  43.417  28.088   3.253
99945W        W61399  20.679  35.378   3.716
99946W        W61400  13.215   1.869  12.898
99947W        W61401  31.968  34.418   2.901
99948W        W61402  35.394  29.124  14.414
99949W        W61403   6.246   4.302   3.346
99950W        W61404  25.491  39.381   0.747
99951W        W61405   2.945  34.962  14.516
99952W        W61406  12.839   4.717  11.460
99953W        W61407  28.482   9.354   2.701
99954W        W61408  12.763  29.441  11.606
99955W        W61409  23.193   5.380  14.973
99956W        W61410  16.604  17.589   3.808
99957W        W61411  23.031  35.421   2.330
99958W        W61412  41.424  10.844   0.734
99959W        W61413   6.350  32.999  14.349
99960W        W61414  10.643  42.893  13.476
99961W        W61415  21.023  28.094   3.831
99962W        W61416  38.442  11.662  14.928
99963W        W61417   9.831   2.289  11.558
99964W        W61418  40.311  23.001  13.811
99965W        W61419  13.697  26.548  11.103
99966W        W61420  18.270  21.699   0.739
99967W        W61421  17.628  19.694  14.293
99968W        W61422  41.974  41.000   0.472
99969W        W61423   4.308  37.340   0.299
99970W        W61424   5.332  16.113  13.910
99971W        W61425   6.241  39.478   1.333
99972W        W61426  24.613  30.540   4.225
99973W        W61427   8.811  42.826  11.025
99974W        W61428  37.427   4.203  14.816
99975W        W61429  22.082  21.082   3.307
99976W        W61430  10.636  24.174  13.875
99977W        W61431  29.567  19.273  11.897
99978W        W61432   1.355  30.992  10.621
99979W        W61433  29.080  12.622  14.827
99980W        W61434  43.317   0.299   2.863
99981W        W61435  21.207  41.910   1.776
99982W        W61436  26.619   8.664  10.423
99983W        W61437  38.456  36.998   2.697
99984W        W61438  38.000  43.844  12.432
99985W        W61439  12.198  16.126   4.225
99986W        W61440  43.017  21.038   4.826
99987W        W61441  11.184  29.466   1.830
99988W        W61442   1.965   8.200   1.237
99989W        W61443   1.900   4.240  10.945
99990W        W61444  35.006  23.713  14.825
99991W        W61445   0.254   2.960  12.413
99992W        W61446  28.495   7.338  13.406
99993W        W61447  29.632  32.584   2.849
99994W        W61448  14.102  29.558  11.865
99995W        W61449   2.290  38.374  12.430
99996W        W61450   8.251   3.271   4.176
99997W        W61451  36.389   8.345   0.377
99998W        W61452  13.200  10.867  11.499
99999W        W61453   9.175   4.205   0.963
    0W        W61454  27.455   8.687   3.851
    1W        W61455  12.628  43.906   2.823
    2W        W61456  25.108  27.106   2.375
    3W        W61457  20.232   5.793   0.258
    4W        W61458  21.139  28.438   0.427
    5W        W61459  10.873  20.064  10.889
    6W        W61460  44.322   3.746  12.468
    7W        W61461  39.457   0.383   4.800
    8W        W61462  19.114  12.804   4.634
    9W        W61463  40.447  35.107  10.499
   10W        W61464  19.040  41.002  13.900
   11W        W61465   6.687  20.566   3.184
   12W        W61466  26.503  33.540   3.344
   13W        W61467   1.927  19.227  10.998
   14W        W61468  33.994  10.741  11.489
   15W        W61469   8.657   0.436  13.792
   16W        W61470  19.146   2.380   3.833
   17W        W61471  22.746  31.014  12.367
   18W        W61472  10.212   8.767  14.896
   19W        W61473  18.735  24.974   3.253
   20W        W61474  25.656  10.670  10.432
   21W        W61475  23.141   0.484  13.372
   22W        W61476  27.184  19.226  11.608
   23W        W61477  28.942  34.930  12.547
   24W        W61478  37.522   5.298   4.238
   25W        W61479  15.692  30.431  12.029
   26W        W61480  28.582  33.480   2.697
   27W        W61481   0.809  34.973  12.502
   28W        W61482  34.943  44.853   2.890
   29W        W61483   0.351  30.491  12.916
   30W        W61484   6.234   7.361  14.339
   31W        W61485   9.249  24.987  14.786
   32W        W61486  26.636  42.494   4.148
   33W        W61487  32.088   3.283   4.643
   34W        W61488  28.571  35.561  13.535
   35W        W61489   5.783  11.769  11.611
   36W        W61490  17.620  31.988  10.470
   37W        W61491  13.176  41.443   1.807
   38W        W61492  37.573  21.710   3.795
   39W        W61493  36.438  12.204   1.728
   40W        W61494  12.258  40.482   1.261
   41W        W61495   2.904  20.238   2.742
   42W        W61496   8.400  14.164   2.883
   43W        W61497  24.214   1.889   3.766
   44W        W61498  11.632   1.339   3.202
   45W        W61499  33.596  34.937  14.331
   46W        W61500  29.651  44.871  14.302
   47W        W61501  34.547  44.943   4.739
   48W        W61502  24.038  34.909   0.783
   49W        W61503  41.820  26.168  13.377
   50W        W61504  39.519  15.741   0.321
   51W        W61505   8.850  30.521   2.311
   52W        W61506  34.925  16.158   2.881
   53W        W61507  18.606  23.051  13.482
   54W        W61508  10.227  20.541  14.389
   55W        W61509  23.571  16.314  13.868
   56W        W61510  29.990   5.345  11.913
   57W        W61511  43.781  11.803  13.460
   58W        W61512  28.137  24.001   0.470
   59W        W61513  32.554  44.404  10.907
   60W        W61514   1.347  38.828   2.294
   61W        W61515  31.494  39.526  12.401
   62W        W61516  30.608  15.197   0.271
   63W        W61517  11.836  42.483   0.372
   64W        W61518  38.328  31.125  12.930
   65W        W61519  29.023  13.841  11.125
   66W        W61520  19.223  36.977   3.274
   67W        W61521  11.742  35.438  12.061
   68W        W61522  27.449  25.692   4.302
   69W        W61523  21.215  30.521   3.791
   70W        W61524   7.759  29.139  11.122
   71W        W61525  12.714  37.977  14.780
   72W        W61526  17.591   2.757  11.901
   73W        W61527  30.973  18.712   3.209
   74W        W61528  21.254  31.047   0.470
   75W        W61529  19.626  12.183   0.849
   76W        W61530  37.883  30.103  12.020
   77W        W61531   7.408  28.515   3.795
   78W        W61532  10.301  41.030   4.128
   79W        W61533   1.362   0.807  11.896
   80W        W61534  41.462  11.752  14.968
   81W        W61535   2.883  16.670  10.478
   82W        W61536   6.367  18.750  11.438
   83W        W61537  23.069  38.336  11.547
   84W        W61538   6.364  18.296  14.443
   85W        W61539  41.011   5.859  14.501
   86W        W61540   1.970  18.746   1.334
   87W        W61541  12.817  17.108  11.551
   88W        W61542  20.147  31.040  11.879
   89W        W61543  35.453   9.745  13.865
   90W        W61544  42.932  30.421  12.558
   91W        W61545   6.334  35.400  12.924
   92W        W61546   0.761   1.879  10.056
   93W        W61547  25.208   8.278   4.708
   94W        W61548   9.278  26.167  10.981
   95W        W61549  23.175  17.764   4.257
   96W        W61550   5.413  28.950   1.362
   97W        W61551  37.877  40.885   0.274
   98W        W61552  29.662  17.604  13.825
   99W        W61553  17.724  44.796  12.402
  100W        W61554  29.517  10.651   4.816
  101W        W61555  40.303  11.263  11.379
  102W        W61556   7.230   8.344  11.075
  103W        W61557  38.350  19.733  14.334
  104W        W61558  29.105  31.992   0.966
  105W        W61559  21.555  33.496   1.729
  106W        W61560  20.243   8.657   1.255
  107W        W61561  14.320  16.649   2.370
  108W        W61562   2.903  17.244  10.552
  109W        W61563  15.782  20.720   4.790
  110W        W61564   4.288  12.835  12.842
  111W        W61565   1.320  27.674  11.961
  112W        W61566  13.244   3.849   1.919
  113W        W61567  14.756  10.649   1.280
  114W        W61568   5.253  14.302   2.876
  115W        W61569  26.655   6.864   0.372
  116W        W61570   1.445   5.277   2.742
  117W        W61571  30.927  37.020   4.126
  118W        W61572  41.538  27.482   2.415
  119W        W61573  15.319   1.945  14.383
  120W        W61574  28.046  11.688  10.503
  121W        W61575  32.554  41.912  11.895
  122W        W61576  42.999  15.120   0.377
  123W        W61577  29.595  20.702   2.330
  124W        W61578  38.359  32.038  11.521
  125W        W61579   0.390  38.956  12.086
  126W        W61580   7.840  13.199  10.606
  127W        W61581  16.703  21.627   1.374
  128W        W61582  31.613   6.695   3.261
  129W        W61583  44.304  40.492  11.023
  130W        W61584  11.697   1.963   4.770
  131W        W61585  18.094  31.008  13.373
  132W        W61586  20.189  41.853  14.896
  133W        W61587  28.638  26.967  14.813
  134W        W61588  21.049  27.989   2.671
  135W        W61589  22.199  18.654   2.373
  136W        W61590  44.274  37.997   5.236
  137W        W61591  41.352  34.463  14.008
  138W        W61592  22.057  19.190   0.846
  139W        W61593  36.045  43.947   4.322
  140W        W61594  32.924  33.592   3.869
  141W        W61595  40.853  17.631  10.542
  142W        W61596  40.400   6.284   3.806
  143W        W61597  41.840  11.827   2.808
  144W        W61598  15.119  39.895   2.782
  145W        W61599  32.020   4.798  12.361
  146W        W61600  25.483  42.353   4.791
  147W        W61601  24.577  11.738  14.428
  148W        W61602  41.350  29.659   3.683
  149W        W61603  32.399  29.581   0.326
  150W        W61604   7.384  24.649   2.795
  151W        W61605   0.462  37.064  14.424
  152W        W61606   0.258  35.379  11.441
  153W        W61607  37.035  30.953   1.269
  154W        W61608  12.139  44.302  14.494
  155W        W61609  13.270  21.649   4.171
  156W        W61610   0.943  21.655  13.953
  157W        W61611   1.372  21.712  14.818
  158W        W61612  39.494  42.852   5.728
  159W        W61613  10.264  20.061   3.263
  160W        W61614  14.692  39.831  12.071
  161W        W61615  20.633  38.481  10.434
  162W        W61616  33.413  42.453  10.434
  163W        W61617  33.466  26.457  13.347
  164W        W61618  21.689  33.014  13.010
  165W        W61619  39.967  35.059   0.469
  166W        W61620  10.221   6.731  13.406
  167W        W61621  43.408  41.372   0.356
  168W        W61622  32.406   9.717   3.195
  169W        W61623   4.859  25.148  13.884
  170W        W61624  22.565  12.302   1.336
  171W        W61625   0.830  34.483  10.467
  172W        W61626  21.128  43.846  13.455
  173W        W61627  38.446  39.421   1.729
  174W        W61628   6.686   8.686  12.890
  175W        W61629   7.752   5.376  13.408
  176W        W61630  17.556  44.946  11.434
  177W        W61631  40.448  36.355   0.379
  178W        W61632  18.560  10.338  10.602
  179W        W61633  29.125  25.501  12.826
  180W        W61634  41.792   9.728   0.430
  181W        W61635  18.578   0.440   2.718
  182W        W61636  35.561   2.259  11.110
  183W        W61637  25.998  12.140   3.267
  184W        W61638  37.841  39.923   2.384
  185W        W61639   1.420  26.642  11.583
  186W        W61640   2.465  20.619   4.213
  187W        W61641   1.902  21.659   4.668
  188W        W61642  40.483   2.402   1.283
  189W        W61643  32.390   2.372   1.424
  190W        W61644  38.914  36.503   3.337
  191W        W61645  33.083   7.203   4.737
  192W        W61646   1.375   9.665  11.104
  193W        W61647  42.808  13.734   2.685
  194W        W61648  13.807  35.891  11.569
  195W        W61649  12.347  38.898  12.001
  196W        W61650  42.806  42.835   2.409
  197W        W61651  32.581  26.122  12.452
  198W        W61652  42.423  21.568  11.589
  199W        W61653  31.998  31.500   1.291
  200W        W61654  25.690   3.248  10.619
  201W        W61655  29.567  26.037  14.337
  202W        W61656   0.294  40.048   0.812
  203W        W61657  44.970  42.521   2.696
  204W        W61658  28.182  17.092   1.875
  205W        W61659  16.160  18.758  10.104
  206W        W61660  22.253  34.889   4.246
  207W        W61661  24.098  22.078  12.422
  208W        W61662  18.710   9.654  13.495
  209W        W61663  23.499  31.125   1.758
  210W        W61664   9.230  16.200  14.807
  211W        W61665   3.906  31.596  10.553
  212W        W61666   1.333  35.548   3.700
  213W        W61667  32.523  34.612   3.185
  214W        W61668  30.570  16.683   1.729
  215W        W61669   1.243  34.511   3.333
  216W        W61670  26.998  27.104   1.285
  217W        W61671  26.627  31.445   2.691
  218W        W61672  42.887  11.642   0.394
  219W        W61673   8.718  10.721   3.742
  220W        W61674  27.575  25.700  11.011
  221W        W61675  35.504  22.688  11.024
  222W        W61676  22.160  26.957   2.219
  223W        W61677   6.300  21.183  11.116
  224W        W61678   9.204   2.950   1.445
  225W        W61679   2.392  18.788   0.336
  226W        W61680  41.334  40.853  10.092
  227W        W61681  42.464  29.436  13.866
  228W        W61682   2.816  15.810  12.444
  229W        W61683  29.127  43.766  13.792
  230W        W61684  35.560  41.443   1.448
  231W        W61685  28.447   1.426   4.791
  232W        W61686  28.156  12.722   1.698
  233W        W61687   7.815  41.917  12.948
  234W        W61688  26.659  23.562  14.811
  235W        W61689  34.045  15.672   0.392
  236W        W61690  41.900   8.258  12.836
  237W        W61691  39.404   9.875   1.852
  238W        W61692  17.611   8.706   0.964
  239W        W61693  33.115  26.975  14.881
  240W        W61694   6.826  33.386  11.935
  241W        W61695  17.575   0.297  11.454
  242W        W61696  12.848  24.100  10.507
  243W        W61697  20.548  30.002   4.627
  244W        W61698  42.450  43.975   4.213
  245W        W61699  10.279  21.551  11.078
  246W        W61700  31.538  36.523  11.388
  247W        W61701  12.256  37.449  13.395
  248W        W61702  19.160  28.485   1.431
  249W        W61703   0.864   8.825  12.834
  250W        W61704  17.185  19.630  10.039
  251W        W61705  18.137  15.716  12.387
  252W        W61706  39.940  31.954   2.769
  253W        W61707  20.047  38.437   1.865
  254W        W61708  24.519  30.417  13.310
  255W        W61709  30.056  44.954  13.846
  256W        W61710  23.541  24.485   3.685
  257W        W61711  13.825  15.228  12.048
  258W        W61712  16.108  24.086  13.009
  259W        W61713  15.693  10.248   2.780
  260W        W61714   7.691  23.158   3.797
  261W        W61715   6.679  20.066   3.259
  262W        W61716  18.238  32.512  10.488
  263W        W61717  31.003  15.202   2.684
  264W        W61718  36.467  10.775   2.774
  265W        W61719  11.322  13.666   4.119
  266W        W61720   1.481  40.940   0.290
  267W        W61721  29.054   8.895  10.428
  268W        W61722  18.640  25.626  13.383
  269W        W61723   8.311  15.224  12.557
  270W        W61724   2.418  26.651   1.336
  271W        W61725   8.280   2.919   3.364
  272W        W61726  10.791   7.325  13.009
  273W        W61727  10.697  17.276   1.884
  274W        W61728  29.538  20.241  12.883
  275W        W61729  26.096  23.650  10.107
  276W        W61730   5.895  14.283   4.325
  277W        W61731  29.983  32.888   4.675
  278W        W61732   2.954   8.395   3.685
  279W        W61733  20.054  44.258  10.102
  280W        W61734  36.077  35.429   1.820
  281W        W61735  40.969  36.857   0.940
  282W        W61736  13.648   3.414   2.798
  283W        W61737  12.621  28.639  14.851
  284W        W61738  19.780  14.271  12.838
  285W        W61739  14.742  30.515  13.831
  286W        W61740   3.365  44.984   0.856
  287W        W61741  41.376  34.061   1.711
  288W        W61742  10.236  25.167   1.275
  289W        W61743  28.516   5.296  13.032
  290W        W61744   5.880  24.099  14.928
  291W        W61745   3.788  10.255   3.217
  292W        W61746  19.658   1.304   1.365
  293W        W61747  12.194   8.869  10.572
  294W        W61748  43.984   7.297  12.407
  295W        W61749  15.779   0.863  13.884
  296W        W61750  16.710  26.523  13.829
  297W        W61751  36.584  36.890   0.928
  298W        W61752   3.907  36.364   1.845
  299W        W61753  44.358   4.415  13.894
  300W        W61754  17.271   4.805   0.790
  301W        W61755  38.408  42.994   2.814
  302W        W61756  11.178  12.813   3.300
  303W        W61757   3.938  32.420  12.478
  304W        W61758  39.351  34.106   1.344
  305W        W61759   1.873   5.807  12.087
  306W        W61760  34.407   7.825  12.091
  307W        W61761  40.969   0.327   2.744
  308W        W61762  27.138   3.447  14.989
  309W        W61763   0.259  41.501   3.671
  310W        W61764  32.054   6.309   5.292
  311W        W61765  35.576  24.200   0.849
  312W        W61766   7.331  19.146  13.880
  313W        W61767  44.969  10.731   3.700
  314W        W61768  24.994   3.717  10.404
  315W        W61769   8.230  14.703  13.338
  316W        W61770   8.774  18.622  14.343
  317W        W61771  32.965  44.838  14.914
  318W        W61772  13.319   3.383   3.725
  319W        W61773   1.399  33.073  11.054
  320W        W61774  11.184  18.279  11.865
  321W        W61775  26.065   7.751  13.810
  322W        W61776   7.201  11.803  11.584
  323W        W61777  11.270  26.180  14.322
  324W        W61778   0.265   7.694   2.689
  325W        W61779  22.551  30.129  12.464
  326W        W61780  43.440  19.608  10.145
  327W        W61781  42.931   0.977   1.294
  328W        W61782   4.432   9.704  11.564
  329W        W61783  11.322   7.368  14.994
  330W        W61784  18.668  39.383   1.422
  331W        W61785  12.277   2.325  14.834
  332W        W61786  14.726  42.981   3.675
  333W        W61787  29.008  21.101  11.046
  334W        W61788  32.933   4.925   4.608
  335W        W61789   0.761   2.363   0.415
  336W        W61790  13.308   7.896  10.540
  337W        W61791  33.445  26.592  14.949
  338W        W61792  30.094  13.251   3.346
  339W        W61793   5.837  30.440  14.898
  340W        W61794  25.985   3.721  13.373
  341W        W61795  27.465  16.596  12.352
  342W        W61796  39.972  13.110   2.225
  343W        W61797  19.675   7.393  11.087
  344W        W61798  11.817  29.172  14.352
  345W        W61799  36.588   2.911   3.168
  346W        W61800   7.286  24.634   3.201
  347W        W61801  11.783  20.133   2.229
  348W        W61802  19.073  11.137  11.922
  349W        W61803  22.564  24.067   4.637
  350W        W61804  19.684   1.389  11.469
  351W        W61805  22.133  10.218  13.828
  352W        W61806   6.225   8.831  13.421
  353W        W61807  11.302  34.441  13.443
  354W        W61808  26.096   9.650   2.182
  355W        W61809  41.954  38.882   2.744
  356W        W61810  13.770  26.993   2.295
  357W        W61811   8.287  21.639   3.349
  358W        W61812  42.806  44.983   1.764
  359W        W61813  42.977  12.154   3.365
  360W        W61814  39.523   2.299  12.882
  361W        W61815  20.692  33.411   4.827
  362W        W61816  37.997   2.254   4.754
  363W        W61817   6.884  32.507  14.031
  364W        W61818  12.829  17.108   4.667
  365W        W61819   1.408  34.423   2.766
  366W        W61820  43.938  27.117  12.510
  367W        W61821  39.849  25.709  14.483
  368W        W61822  22.043  42.311   0.329
  369W        W61823  30.518  31.609  12.460
  370W        W61824   2.890   8.835   0.888
  371W        W61825  26.154  34.381   2.875
  372W        W61826  10.256  27.947   0.917
  373W        W61827  44.389  22.723   4.329
  374W        W61828  15.817  31.463   3.289
  375W        W61829  32.057  17.099  11.097
  376W        W61830  17.127  27.553   0.441
  377W        W61831  44.809  39.870  13.531
  378W        W61832   0.907  32.521  10.972
  379W        W61833  36.565   0.869   3.729
  380W        W61834  17.767  22.150   1.365
  381W        W61835  40.835  40.904  13.800
  382W        W61836  14.280  43.325  10.006
  383W        W61837  42.453  33.985  13.864
  384W        W61838   7.737  24.622  14.326
  385W        W61839  37.925  28.585   0.765
  386W        W61840  36.366  43.792   3.837
  387W        W61841  20.142  17.098  12.555
  388W        W61842  12.838  37.579  13.803
  389W        W61843  40.435  38.438  13.877
  390W        W61844  15.623   9.382  13.369
  391W        W61845  21.658   1.317   2.280
  392W        W61846   8.263  19.065  11.864
  393W        W61847   0.434  39.997   1.451
  394W        W61848  29.459   7.304  10.533
  395W        W61849  16.101  27.555   2.344
  396W        W61850  26.967  43.463  10.962
  397W        W61851  42.479  21.149  10.455
  398W        W61852   6.838  33.470  13.515
  399W        W61853  21.244  14.603  13.050
  400W        W61854  25.022  21.632  11.870
  401W        W61855  18.687  43.408   4.602
  402W        W61856  38.468  41.366  14.924
  403W        W61857   5.778  25.068   4.169
  404W        W61858  19.773   2.738   1.754
  405W        W61859  29.561  38.907   1.825
  406W        W61860  44.828   4.860  14.411
  407W        W61861  16.773  36.373  14.910
  408W        W61862   1.301  15.746  14.310
  409W        W61863  43.461   3.381  13.522
  410W        W61864  30.584   2.720   5.589
  411W        W61865   1.473  20.701  12.851
  412W        W61866  38.025  25.537   0.905
  413W        W61867  35.077  23.020  11.587
  414W        W61868  13.203  19.073  12.921
  415W        W61869  28.661  44.450  10.956
  416W        W61870   8.261  30.444   4.642
  417W        W61871   2.946  21.061   4.611
  418W        W61872  39.031  23.708   1.731
  419W        W61873  17.605  16.083   2.843
  420W        W61874  13.210  36.088  12.455
  421W        W61875   8.181  26.507  14.334
  422W        W61876  21.616  11.809   1.340
  423W        W61877  44.956  30.565   2.680
  424W        W61878  14.154   5.800  13.840
  425W        W61879   3.403  31.979  14.809
  426W        W61880  35.465   9.176   0.471
  427W        W61881  41.982  25.020   4.215
  428W        W61882   8.373  26.997  13.848
  429W        W61883  30.987  26.963  13.925
  430W        W61884  28.086   2.800  14.804
  431W        W61885  30.531  43.881  10.605
  432W        W61886  30.504  14.640  13.930
  433W        W61887  25.552  26.093  10.592
  434W        W61888  43.405  33.486  10.451
  435W        W61889  31.127   5.262  11.103
  436W        W61890  40.871  13.138  13.811
  437W        W61891  32.116   6.347   2.316
  438W        W61892  29.569   7.812  14.430
  439W        W61893  22.158  17.263  14.022
  440W        W61894  22.018  12.697  14.346
  441W        W61895   8.678  31.104  13.898
  442W        W61896  18.575  15.101   2.264
  443W        W61897  19.179  34.435   1.232
  444W        W61898  30.938   2.299  10.133
  445W        W61899   3.855  28.086  13.054
  446W        W61900  25.130   1.293  13.877
  447W        W61901  30.011   3.285   2.331
  448W        W61902  29.488   2.289   1.886
  449W        W61903   1.266  32.078   4.235
  450W        W61904  17.137  30.913  13.531
  451W        W61905  20.729  17.654   0.841
  452W        W61906  32.412  25.199  10.625
  453W        W61907   9.347  32.906   2.788
  454W        W61908  41.399  19.176   2.705
  455W        W61909  31.967  16.777  12.856
  456W        W61910  20.717  34.023  11.893
  457W        W61911  16.808   4.299   0.820
  458W        W61912  17.167  42.843  11.074
  459W        W61913   3.401  24.722  13.434
  460W        W61914  27.542  15.140  10.644
  461W        W61915   3.273  41.012  12.078
  462W        W61916  13.224   1.920   3.708
  463W        W61917   7.852  37.945  13.002
  464W        W61918   8.833  41.007   0.245
  465W        W61919  22.598  43.968   4.825
  466W        W61920   3.811  27.678  11.990
  467W        W61921  32.917  19.764   2.251
  468W        W61922  19.577  24.132   1.254
  469W        W61923  32.927   4.702  13.387
  470W        W61924  44.920  18.712   3.215
  471W        W61925   8.326  18.291   4.750
  472W        W61926   4.319  36.850  12.538
  473W        W61927  10.815   7.216   3.768
  474W        W61928  12.699   6.828   0.890
  475W        W61929  29.548   0.776  14.327
  476W        W61930   0.379  41.406  12.942
  477W        W61931  10.149  11.230  13.435
  478W        W61932  16.811  34.455   1.413
  479W        W61933   4.274   9.707  14.364
  480W        W61934  26.057   7.394  10.933
  481W        W61935   3.786  10.284   2.293
  482W        W61936  13.296  35.913   4.681
  483W        W61937  40.486  30.957   0.833
  484W        W61938  21.162  18.132  11.394
  485W        W61939   2.281  42.812  13.981
  486W        W61940  31.102  38.854  10.936
  487W        W61941   1.856  13.136   0.859
  488W        W61942  11.253  31.448   4.632
  489W        W61943   0.849  43.849   3.330
  490W        W61944  34.452  30.147   0.288
  491W        W61945   0.749   4.858  12.876
  492W        W61946   4.424   4.245  13.878
  493W        W61947  12.297  42.900  11.905
  494W        W61948  12.310  17.568  12.882
  495W        W61949  19.052  33.530   2.412
  496W        W61950   0.949   0.253  11.858
  497W        W61951  16.150  34.942  11.465
  498W        W61952  36.589  22.541   1.842
  499W        W61953   6.788   8.857   0.330
  500W        W61954  22.573   2.396  10.959
  501W        W61955  37.080   0.461  12.957
  502W        W61956  15.107  43.512   0.255
  503W        W61957  41.467   3.245  12.478
  504W        W61958  37.000  37.553   2.220
  505W        W61959   3.897  33.565  12.376
  506W        W61960  42.481   6.796   3.817
  507W        W61961  22.157  30.128   2.194
  508W        W61962  40.321   5.427   0.935
  509W        W61963  31.471   5.329  12.981
  510W        W61964  31.601  13.220  12.552
  511W        W61965  40.422  29.142  13.028
  512W        W61966  40.399  24.993   4.785
  513W        W61967  27.992  42.789  10.905
  514W        W61968  10.143  35.884   3.241
  515W        W61969  16.590  35.489  11.915
  516W        W61970  37.395  28.000  13.382
  517W        W61971   4.268  11.363   2.310
  518W        W61972  39.453  35.047  10.549
  519W        W61973   8.834  12.680  14.799
  520W        W61974   3.382  28.637   3.337
  521W        W61975  32.501  13.653   1.325
  522W        W61976  42.315   5.729   0.334
  523W        W61977  18.201  24.625   3.206
  524W        W61978  15.682   5.305  10.907
  525W        W61979  42.001  42.892  14.472
  526W        W61980  27.559  34.942   3.688
  527W        W61981  12.308   2.426  13.930
  528W        W61982  30.434   0.273  10.509
  529W        W61983  41.813  18.637   1.449
  530W        W61984  11.826  11.277   2.349
  531W        W61985  11.192  21.201  12.949
  532W        W61986  17.269   4.718   3.163
  533W        W61987  30.432   5.309  14.919
  534W        W61988   9.658   9.751  13.444
  535W        W61989  35.511  35.058   1.410
  536W        W61990  32.491  36.945  14.854
  537W        W61991  41.292   7.732   2.722
  538W        W61992   5.803   2.831  14.774
  539W        W61993  41.313   7.873   4.119
  540W        W61994  34.607  29.060   3.262
  541W        W61995   8.405   8.294  13.427
  542W        W61996   6.830   3.234  13.968
  543W        W61997  19.699   1.338  14.973
  544W        W61998   8.258  16.181   4.810
  545W        W61999  25.148  41.317  11.929
  546W        W62000  33.943  17.760   0.394
  547W        W62001  27.009  22.694  12.054
  548W        W62002  44.314  43.929  12.942
  549W        W62003  21.084  24.213   0.381
  550W        W62004   1.811   3.838   4.120
  551W        W62005   0.904  34.514  11.964
  552W        W62006   8.198   6.384  13.978
  553W        W62007   3.390  33.425  14.925
  554W        W62008  20.734   1.769   3.784
  555W        W62009  38.407  33.100  12.350
  556W        W62010   9.356  16.194  14.313
  557W        W62011   1.318  16.690  10.475
  558W        W62012  20.268  35.603   3.152
  559W        W62013  26.207   5.377  10.987
  560W        W62014  22.138  43.362   4.762
  561W        W62015  27.488  40.914  10.605
  562W        W62016  16.617   0.412  11.124
  563W        W62017  15.166  35.065   2.269
  564W        W62018  35.594  13.344   2.832
  565W        W62019  39.956  19.704   1.218
  566W        W62020  33.417  22.036  10.024
  567W        W62021   2.460  44.365  10.949
  568W        W62022  24.102   7.331   4.751
  569W        W62023  23.229   8.844  11.438
  570W        W62024  38.989  33.422  10.632
  571W        W62025  24.182  15.744   1.398
  572W        W62026  38.901   8.231   1.222
  573W        W62027  30.637  28.446  11.052
  574W        W62028  18.171  28.165   1.772
  575W        W62029  37.946  28.497  11.422
  576W        W62030  28.014  30.413   2.201
  577W        W62031  17.564  38.020  14.812
  578W        W62032  29.110  44.996  13.055
  579W        W62033  41.005  34.413  12.954
  580W        W62034  26.184  39.838  12.926
  581W        W62035  17.759   9.172   1.731
  582W        W62036  10.357  19.760   0.443
  583W        W62037   5.307  13.351   0.301
  584W        W62038   0.334  36.992  10.492
  585W        W62039  43.407  21.631  12.348
  586W        W62040   2.770  25.095   0.806
  587W        W62041  25.117  36.098  14.928
  588W        W62042  18.126   3.896  13.331
  589W        W62043   7.248  12.829  10.578
  590W        W62044  41.982  14.830  14.977
  591W        W62045  26.085  16.659   1.900
  592W        W62046  38.409  21.045   4.276
  593W        W62047  26.616  44.810   1.424
  594W        W62048  43.831  30.424  14.476
  595W        W62049  18.577   9.810  10.562
  596W        W62050  43.825   5.202   1.709
  597W        W62051  34.440  35.547   4.147
  598W        W62052  44.834  28.577  13.811
  599W        W62053  41.401  30.958  10.518
  600W        W62054  36.388  15.325   2.275
  601W        W62055  12.834  13.645  11.554
  602W        W62056  14.194  35.574  13.906
  603W        W62057  36.501   0.938  14.438
  604W        W62058  23.490  28.070   2.392
  605W        W62059  32.009   9.280  13.368
  606W        W62060  38.407  35.088   3.721
  607W        W62061  32.435   0.400   3.302
  608W        W62062  39.988  16.571   1.366
  609W        W62063   5.930  40.804   4.750
  610W        W62064   1.752   6.302  12.511
  611W        W62065  31.526   2.805  12.057
  612W        W62066  21.518  10.735  12.367
  613W        W62067  28.548   4.786  14.846
  614W        W62068  25.193   5.351   1.745
  615W        W62069  43.292  19.740   5.122
  616W        W62070  23.580  21.736   4.222
  617W        W62071  28.585   6.395   5.311
  618W        W62072  39.922  10.838  10.505
  619W        W62073  18.066  25.192  12.545
  620W        W62074  28.601  39.907  14.396
  621W        W62075  38.843  18.675  14.982
  622W        W62076  23.154   6.324  14.007
  623W        W62077  13.813  31.598  12.864
  624W        W62078  34.970   4.754  10.949
  625W        W62079  19.729   8.337   4.323
  626W        W62080  11.714  15.141  12.375
  627W        W62081  10.232  42.836  14.878
  628W        W62082   6.289  18.278  10.895
  629W        W62083  32.569   8.333  13.428
  630W        W62084   5.298  40.440   3.291
  631W        W62085  11.231  36.509  11.104
  632W        W62086  37.858  26.589  13.399
  633W        W62087  43.341  13.192   1.861
  634W        W62088  12.758  21.657   4.738
  635W        W62089  31.495  19.554   2.284
  636W        W62090   4.449   5.236  14.285
  637W        W62091   1.859  22.095  13.404
  638W        W62092  26.517  34.891  11.489
  639W        W62093  36.896  24.100   0.249
  640W        W62094  19.665  33.427   1.291
  641W        W62095  41.017  32.013   5.304
  642W        W62096  21.548  13.769  12.885
  643W        W62097  11.853  35.921   4.280
  644W        W62098   4.433  17.752   2.225
  645W        W62099  13.726  43.954  14.802
  646W        W62100  23.138   7.856  11.584
  647W        W62101  30.479  35.364  14.307
  648W        W62102  25.679  12.823  11.046
  649W        W62103   7.875  22.065  13.983
  650W        W62104  21.682  21.683  10.485
  651W        W62105  16.277  15.761   1.248
  652W        W62106  11.201   2.257  10.611
  653W        W62107  36.560  42.870   4.736
  654W        W62108   4.930   2.879  13.904
  655W        W62109  23.151  15.269   2.245
  656W        W62110  42.001  35.022   4.650
  657W        W62111  22.110   6.259   5.116
  658W        W62112  33.983  26.063  10.611
  659W        W62113  41.517  36.935  11.075
  660W        W62114  10.143  10.853   0.737
  661W        W62115  23.504   2.334   1.411
  662W        W62116   5.887  15.276   4.211
  663W        W62117  14.284  11.345   0.870
  664W        W62118  38.340   7.300  12.840
  665W        W62119  28.613  21.260  14.489
  666W        W62120  13.209  24.973  11.878
  667W        W62121  42.912   3.332   2.902
  668W        W62122  34.900  18.109  13.356
  669W        W62123  31.040  36.851  13.347
  670W        W62124  18.788  12.178   0.349
  671W        W62125  37.522  21.631   1.923
  672W        W62126  25.577   7.821   3.848
  673W        W62127  18.684  44.002   4.675
  674W        W62128  43.871  33.086   1.810
  675W        W62129  21.085   1.879   5.286
  676W        W62130  15.183  37.374   1.251
  677W        W62131  28.641  16.207  14.914
  678W        W62132  11.337  14.252   4.206
  679W        W62133  38.974  17.717   3.160
  680W        W62134   5.249  33.998  12.036
  681W        W62135  38.550  16.747   2.247
  682W        W62136  34.568  11.743   2.861
  683W        W62137  31.152  18.215   2.792
  684W        W62138  42.288  35.423  12.382
  685W        W62139  40.384   8.887   5.206
  686W        W62140  19.682  38.563  11.122
  687W        W62141  23.527  26.584   1.740
  688W        W62142  38.861  36.914   1.761
  689W        W62143  18.185  39.912   2.284
  690W        W62144  31.967  10.767   0.368
  691W        W62145  29.128  22.519   2.689
  692W        W62146  40.506  12.212  14.498
  693W        W62147  16.173  23.668   4.327
  694W        W62148  33.029  38.363   0.314
  695W        W62149  20.170  26.157  10.627
  696W        W62150  15.746  20.762   1.871
  697W        W62151   1.785  19.695   2.210
  698W        W62152  21.610  11.330   0.858
  699W        W62153   9.660  28.524   3.168
  700W        W62154  42.344   1.867  12.386
  701W        W62155  44.281   3.277   4.687
  702W        W62156   4.750  33.536   0.916
  703W        W62157  15.231  35.015  12.974
  704W        W62158   1.316  39.495  11.446
  705W        W62159   4.229  35.091  13.967
  706W        W62160  13.773  28.007   2.326
  707W        W62161  28.028  22.631   1.443
  708W        W62162  39.427  36.570  10.420
  709W        W62163  41.837   8.351  14.999
  710W        W62164  36.920  29.135  11.003
  711W        W62165  18.599  17.639  13.988
  712W        W62166  20.257  25.489   4.120
  713W        W62167  41.437  40.476  14.920
  714W        W62168  20.683   3.460   4.142
  715W        W62169  22.747  35.090   1.784
  716W        W62170   7.718  25.591   0.894
  717W        W62171  13.319  23.630   3.804
  718W        W62172  11.131  13.225  12.020
  719W        W62173  23.206  17.302   3.825
  720W        W62174  17.130  33.411  13.953
  721W        W62175   3.238   3.314  10.889
  722W        W62176  36.536  30.491   4.726
  723W        W62177  41.324  38.884  10.150
  724W        W62178  40.815  24.696  11.042
  725W        W62179  32.543   0.440  10.423
  726W        W62180  31.402  10.857   1.384
  727W        W62181  41.808  38.029   1.814
  728W        W62182   4.263  26.654  13.962
  729W        W62183  42.286  43.924   3.242
  730W        W62184  23.621  13.199   4.828
  731W        W62185  17.606   8.354  10.617
  732W        W62186   3.851   4.919   0.425
  733W        W62187  24.045  13.184   4.142
  734W        W62188  33.944  11.326   2.184
  735W        W62189  40.454  39.432   2.849
  736W        W62190  26.461  18.250   4.696
  737W        W62191   1.463   5.870   2.311
  738W        W62192  38.896  10.313   4.262
  739W        W62193  31.967  37.563  10.997
  740W        W62194  32.035  32.586   0.903
  741W        W62195  30.447   2.353   2.744
  742W        W62196  28.175  27.122   2.391
  743W        W62197  43.910  39.425   2.813
  744W        W62198   6.290  16.679  10.557
  745W        W62199  32.069  15.208   3.656
  746W        W62200  39.465   9.684   0.375
  747W        W62201  39.909   4.742  14.464
  748W        W62202  10.238  24.488  10.602
  749W        W62203  28.532  13.143   1.762
  750W        W62204  23.070  44.822  10.410
  751W        W62205  16.655  23.638   4.163
  752W        W62206   0.856  35.519   2.808
  753W        W62207  15.663  40.501   1.419
  754W        W62208  19.723  39.037  14.334
  755W        W62209  30.926  28.100  13.526
  756W        W62210  19.690  22.171   0.865
  757W        W62211  12.340  10.748  12.342
  758W        W62212  39.969  24.979   1.283
  759W        W62213  28.461  31.947  14.389
  760W        W62214  22.066  12.142  14.890
  761W        W62215  43.832  31.504  13.819
  762W        W62216  33.032  33.952   1.272
  763W        W62217  22.097   3.287  10.943
  764W        W62218  29.947  12.269   0.777
  765W        W62219  12.787  23.499   4.653
  766W        W62220  15.638   0.420   0.877
  767W        W62221  39.459  22.198   3.239
  768W        W62222  39.903  44.841   1.436
  769W        W62223  30.461  41.509  10.900
  770W        W62224  32.595  23.216  11.527
  771W        W62225  31.593  22.642  12.044
  772W        W62226  25.070   6.831   3.638
  773W        W62227   3.801  37.039  10.514
  774W        W62228  17.657  33.077   1.386
  775W        W62229  11.373  39.960  11.457
  776W        W62230  30.089  38.901   1.421
  777W        W62231  22.127  38.856   4.681
  778W        W62232   6.203   9.654  11.870
  779W        W62233  42.985  31.519  14.286
  780W        W62234   6.738  13.700  11.025
  781W        W62235  33.533  26.642  12.879
  782W        W62236   0.876  21.630   1.396
  783W        W62237   1.915  22.036   0.421
  784W        W62238  28.992  10.321  14.278
  785W        W62239   1.744  38.350   4.765
  786W        W62240  44.809  11.864  13.808
  787W        W62241  21.592  40.817  13.997
  788W        W62242  25.670   8.177   4.627
  789W        W62243   4.927  19.596  13.398
  790W        W62244  39.370  37.424  11.023
  791W        W62245  23.716  19.185   0.788
  792W        W62246  44.780  17.290   3.705
  793W        W62247  17.093  38.508  10.443
  794W        W62248  31.986  34.444  13.967
  795W        W62249  44.992  11.358   0.385
  796W        W62250   8.720  41.811  12.936
  797W        W62251  24.673  39.546  14.856
  798W        W62252  41.916  19.546   0.890
  799W        W62253   8.868  36.540  14.840
  800W        W62254  13.180  33.901   0.942
  801W        W62255   4.865  13.822  12.415
  802W        W62256  31.982   4.705   4.732
  803W        W62257   4.252  30.589   1.217
  804W        W62258   4.757   3.796   3.838
  805W        W62259  37.456  43.814  14.802
  806W        W62260  17.105   8.709   0.314
  807W        W62261  33.977  37.537   4.259
  808W        W62262  11.826  30.449  10.418
  809W        W62263   9.794  18.096   2.362
  810W        W62264   2.234  16.253   3.800
  811W        W62265  21.257  38.047  13.845
  812W        W62266  11.854  13.301  10.463
  813W        W62267  30.593   0.445   1.303
  814W        W62268   1.355   7.733   0.268
  815W        W62269   5.780  29.001  12.958
  816W        W62270   8.668  20.564  11.896
  817W        W62271   4.296  17.101  11.440
  818W        W62272  17.271  16.618   2.399
  819W        W62273  26.641  22.536  11.388
  820W        W62274  26.627  43.008  12.030
  821W        W62275  30.976  21.112  14.889
  822W        W62276   9.308  34.072  11.003
  823W        W62277  24.978  41.454   4.760
  824W        W62278  30.920  14.608  14.013
  825W        W62279  37.961  21.239   0.952
  826W        W62280  20.704  15.131   3.270
  827W        W62281  19.136  34.067   1.244
  828W        W62282  27.105  28.986  11.388
  829W        W62283  22.627  41.999   1.899
  830W        W62284   5.912  24.701   0.878
  831W        W62285  20.076  15.694   2.356
  832W        W62286  10.254  38.957   3.221
  833W        W62287  39.904   1.392   4.708
  834W        W62288  30.096  35.031   4.335
  835W        W62289  10.701  13.251   3.164
  836W        W62290   0.365  25.142  14.845
  837W        W62291  34.439  21.705   2.848
  838W        W62292  35.090  38.033  12.984
  839W        W62293  12.337  29.545  12.060
  840W        W62294   8.349  11.322  14.990
  841W        W62295   1.767   2.260  14.004
  842W        W62296  38.849  25.123   5.200
  843W        W62297  15.679  23.156  13.839
  844W        W62298  43.504  43.798  14.813
  845W        W62299  36.086  13.291   3.864
  846W        W62300  20.157  34.006  14.004
  847W        W62301  38.880  23.668   2.240
  848W        W62302   3.420  14.710  14.950
  849W        W62303  16.240  18.148   2.725
  850W        W62304  32.607  40.918  10.635
  851W        W62305  10.200   0.767  14.512
  852W        W62306  33.617   6.350   0.348
  853W        W62307  23.643  10.779   1.348
  854W        W62308  37.958  32.001   1.223
  855W        W62309  36.553  17.665   0.827
  856W        W62310   8.688  42.025  10.892
  857W        W62311  21.207  15.198  14.389
  858W        W62312  41.857  36.098   3.186
  859W        W62313  41.465  19.154   0.372
  860W        W62314  32.486  19.740  14.447
  861W        W62315  26.129  39.409  11.579
  862W        W62316  14.805  17.239  13.444
  863W        W62317  12.226  11.242  13.534
  864W        W62318  39.316   3.266  11.008
  865W        W62319  25.680  12.804   3.666
  866W        W62320  28.647   1.774  11.580
  867W        W62321   2.344  15.780  10.985
  868W        W62322  14.230  12.138  11.546
  869W        W62323  30.450  23.222   3.157
  870W        W62324  20.736  27.535   1.340
  871W        W62325  44.421  32.125   1.784
  872W        W62326   7.826  34.408   1.271
  873W        W62327  32.575  42.814   2.694
  874W        W62328  21.146  19.184  13.920
  875W        W62329  17.225  28.524  12.361
  876W        W62330  42.930  41.422  10.636
  877W        W62331  28.157  31.971  12.527
  878W        W62332  38.894  13.813  11.592
  879W        W62333  34.387   2.961  13.377
  880W        W62334  26.586  23.149  11.119
  881W        W62335  39.366  37.890   0.330
  882W        W62336  24.145  39.055  10.584
  883W        W62337  22.613  11.840   2.713
  884W        W62338  43.491  26.986  13.980
  885W        W62339  39.463   2.376   2.367
  886W        W62340  21.021  30.426  14.494
  887W        W62341  20.170  35.868   1.865
  888W        W62342  43.900  35.901  12.014
  889W        W62343   6.782  40.012   4.651
  890W        W62344  15.323  44.835  11.501
  891W        W62345  40.387  17.305   1.772
  892W        W62346  22.996  32.609  11.610
  893W        W62347  16.251  16.656   3.324
  894W        W62348  27.041  41.490   1.330
  895W        W62349  13.343  12.175   5.166
  896W        W62350  20.563  15.777   3.665
  897W        W62351  30.473  20.144   4.689
  898W        W62352  41.945  23.224   2.876
  899W        W62353  42.995  25.197  12.010
  900W        W62354  36.981  42.387  11.002
  901W        W62355  32.406  25.022   2.834
  902W        W62356  28.466  37.039   2.271
  903W        W62357  10.190  11.720  11.451
  904W        W62358   7.710  23.197   4.159
  905W        W62359  22.703  29.528  11.459
  906W        W62360  39.451  37.956   4.675
  907W        W62361  32.910  38.031  14.019
  908W        W62362  11.712  15.586   0.811
  909W        W62363  41.352  15.259   3.194
  910W        W62364   7.824  35.953  14.445
  911W        W62365  13.111  10.863   0.271
  912W        W62366  17.707  43.293  10.610
  913W        W62367  18.212   5.884   4.715
  914W        W62368  34.462  41.850   3.772
  915W        W62369  18.172  36.417   0.399
  916W        W62370  32.608  30.526  10.580
  917W        W62371  17.718   0.929  10.956
  918W        W62372  34.057  10.169  12.485
  919W        W62373  22.639  17.078  12.394
  920W        W62374  15.675  26.026  12.902
  921W        W62375  17.221  22.693   9.941
  922W        W62376  39.496  44.790  11.111
  923W        W62377  28.604  19.721   1.715
  924W        W62378  12.169  10.754   2.301
  925W        W62379  10.723  28.011  12.930
  926W        W62380  12.296  23.715   1.823
  927W        W62381   2.848  42.481  14.883
  928W        W62382  24.013  20.582   0.754
  929W        W62383  26.083   9.178  14.321
  930W        W62384  32.485  31.914  11.486
  931W        W62385  41.341  34.908   1.434
  932W        W62386  27.553  12.297  14.911
  933W        W62387  32.017  30.650   3.806
  934W        W62388  26.976  11.748   2.268
  935W        W62389  35.404  31.091   2.838
  936W        W62390  26.053  11.254  12.456
  937W        W62391   1.430   6.832   4.331
  938W        W62392  37.844  35.533  13.049
  939W        W62393  11.772  42.440   1.415
  940W        W62394  22.215  10.254  14.924
  941W        W62395   8.872  17.671   0.330
  942W        W62396  24.198  40.334   3.172
  943W        W62397  40.516   8.853  13.485
  944W        W62398  19.066  22.680  11.988
  945W        W62399  29.164   4.317   0.373
  946W        W62400  43.804  26.610   0.966
  947W        W62401  12.324   8.282  10.620
  948W        W62402  11.634  37.522   0.397
  949W        W62403   1.287  25.121   2.327
  950W        W62404   9.191  33.505  14.011
  951W        W62405   2.334  26.160   0.334
  952W        W62406  31.114  12.137  13.338
  953W        W62407  18.181  28.482  10.532
  954W        W62408  29.520  12.759  13.336
  955W        W62409   0.400  11.358   0.316
  956W        W62410  39.051  27.977  10.631
  957W        W62411  41.787  18.240  10.142
  958W        W62412  20.635  24.196   3.734
  959W        W62413   2.890  38.947  13.321
  960W        W62414  30.584   7.868   0.825
  961W        W62415   6.255  21.593   3.244
  962W        W62416  15.146  38.419  14.782
  963W        W62417  43.382  26.610  11.071
  964W        W62418   3.283  27.020  11.887
  965W        W62419  42.330  31.633  10.449
  966W        W62420  38.821   8.741   3.770
  967W        W62421   8.771  17.238  14.872
  968W        W62422  20.249  26.654  11.380
  969W        W62423  28.069  28.022   3.366
  970W        W62424  24.150   7.372  11.527
  971W        W62425  27.572  31.124   3.362
  972W        W62426   6.259  29.471   2.890
  973W        W62427  30.975  16.770  12.968
  974W        W62428   4.806  20.267   1.254
  975W        W62429  44.984  42.976  12.050
  976W        W62430  39.485  19.694   2.756
  977W        W62431  12.760   6.352   2.208
  978W        W62432  15.122  28.664   4.812
  979W        W62433  31.414  11.211   2.870
  980W        W62434   2.932  34.550  12.080
  981W        W62435  16.705  11.131   3.205
  982W        W62436  30.551   8.700  11.004
  983W        W62437  28.122   4.889   3.238
  984W        W62438   6.848  21.127  12.935
  985W        W62439   5.310  11.251   4.716
  986W        W62440  41.310  41.444   3.300
  987W        W62441  26.158   7.701  11.123
  988W        W62442  20.038  31.002  11.570
  989W        W62443   4.848  23.602   4.635
  990W        W62444   2.872  22.699  11.482
  991W        W62445   7.740   6.348  14.775
  992W        W62446  42.806   6.237  12.860
  993W        W62447  39.007   3.274  10.531
  994W        W62448  11.345  44.494   3.272
  995W        W62449  32.628  18.691  11.431
  996W        W62450  20.267   5.915  14.788
  997W        W62451  43.864  41.877   1.298
  998W        W62452   9.376  36.914  13.516
  999W        W62453  44.266  21.111  13.483
 1000W        W62454  25.703  39.890  14.780
 1001W        W62455  23.595  36.418   4.249
 1002W        W62456   3.862  22.506  14.503
 1003W        W62457  13.272   6.789   4.763
 1004W        W62458  36.504  25.179   3.809
 1005W        W62459  29.054  21.584   1.765
 1006W        W62460   1.917  33.979   0.441
 1007W        W62461   1.889  23.010  10.436
 1008W        W62462  25.612   2.263  11.587
 1009W        W62463  34.906  24.095   5.118
 1010W        W62464  43.993   8.691   4.268
 1011W        W62465  38.383  11.640   2.248
 1012W        W62466  37.038  13.629  10.479
 1013W        W62467  18.620   3.929   3.257
 1014W        W62468  31.455   8.375  12.017
 1015W        W62469  33.938  37.359  12.998
 1016W        W62470   8.866  27.604   0.902
 1017W        W62471   8.167  34.875  12.033
 1018W        W62472   5.931  13.143   2.782
 1019W        W62473   8.756   0.473  14.879
 1020W        W62474  28.540  37.396  11.102
 1021W        W62475  37.485  44.938   3.256
 1022W        W62476  41.444  29.951  14.808
 1023W        W62477  31.989  34.981   4.158
 1024W        W62478  27.667   3.797   1.858
 1025W        W62479  27.135  38.341  11.012
 1026W        W62480   9.667  10.378   4.731
 1027W        W62481   1.301  40.416   0.436
 1028W        W62482  15.176  31.518   1.815
 1029W        W62483  33.389  36.074   3.789
 1030W        W62484   9.333  12.745   3.814
 1031W        W62485  14.209  15.155  12.068
 1032W        W62486   6.309  20.258   3.185
 1033W        W62487  11.269  19.066   0.277
 1034W        W62488  36.497  32.463  11.932
 1035W        W62489  34.528  12.653   3.844
 1036W        W62490  41.883   2.354   4.278
 1037W        W62491  20.256  40.910   1.851
 1038W        W62492   0.952   5.868   1.893
 1039W        W62493  31.901  18.109  12.961
 1040W        W62494  13.193  28.487  10.979
 1041W        W62495  14.718  36.941  13.825
 1042W        W62496  38.426  33.497   4.831
 1043W        W62497  39.387   3.236  13.820
 1044W        W62498  41.449  11.252  13.326
 1045W        W62499  36.063  30.539   2.275
 1046W        W62500  34.550   6.772  12.832
 1047W        W62501   4.848  14.220  10.434
 1048W        W62502  35.362  19.237  10.623
 1049W        W62503  28.163  38.356  10.088
 1050W        W62504  40.535  35.511  10.487
 1051W        W62505  19.219   9.168  12.069
 1052W        W62506  36.043  18.154   4.127
 1053W        W62507  21.567   1.977   4.221
 1054W        W62508  27.042  18.548   1.448
 1055W        W62509  34.894   6.862  13.492
 1056W        W62510   0.403  30.917  13.012
 1057W        W62511  22.629  11.219   0.791
 1058W        W62512   3.952  25.520   1.695
 1059W        W62513  32.137  13.189  12.881
 1060W        W62514  36.470  11.699   0.481
 1061W        W62515  16.264  10.201   0.436
 1062W        W62516  39.337   9.686   1.405
 1063W        W62517  18.152  40.346  12.921
 1064W        W62518  16.298  12.770  11.607
 1065W        W62519   4.783  43.359   1.290
 1066W        W62520   8.786  29.533   3.158
 1067W        W62521   1.469   8.197  12.004
 1068W        W62522  21.124  40.819   0.859
 1069W        W62523  37.977  34.020  10.519
 1070W        W62524  27.048  23.044  12.429
 1071W        W62525  23.060  31.478   4.309
 1072W        W62526   1.735  36.939   3.650
 1073W        W62527  25.521  34.585   0.733
 1074W        W62528  32.580  15.587   0.319
 1075W        W62529  42.908  41.944   1.732
 1076W        W62530  30.587  19.089  14.444
 1077W        W62531  40.979  20.646   1.339
 1078W        W62532  33.574  35.389   2.266
 1079W        W62533   7.819   4.742  10.978
 1080W        W62534  43.499  33.405   1.436
 1081W        W62535  39.036   8.404  10.428
 1082W        W62536   6.194  39.553  13.348
 1083W        W62537  39.478   0.263   2.289
 1084W        W62538   0.796  30.086  12.520
 1085W        W62539  26.652  37.898  10.486
 1086W        W62540  32.961  11.636   1.210
 1087W        W62541  33.881  12.774  13.414
 1088W        W62542   7.215  33.958  12.444
 1089W        W62543  24.011  11.641  11.568
 1090W        W62544  35.875   6.774  12.556
 1091W        W62545  16.664   3.804  13.952
 1092W        W62546  18.280   5.198   2.248
 1093W        W62547  18.710   9.740   4.751
 1094W        W62548   3.362  39.374  12.574
 1095W        W62549  32.042  11.212  12.996
 1096W        W62550   6.786  33.037   2.811
 1097W        W62551  20.169  30.550   3.261
 1098W        W62552  20.705  12.342  10.521
 1099W        W62553  14.674  11.304  14.339
 1100W        W62554  17.306  35.378  12.875
 1101W        W62555  31.645  21.715  12.831
 1102W        W62556  40.533  42.784   4.682
 1103W        W62557  16.187   7.880   0.756
 1104W        W62558  31.439  14.182  10.632
 1105W        W62559  31.553  31.048  12.954
 1106W        W62560   7.386  24.485  12.561
 1107W        W62561  43.999  42.292  13.542
 1108W        W62562  39.872   5.263  12.558
 1109W        W62563  39.987  10.751   2.877
 1110W        W62564  44.778   1.357  14.027
 1111W        W62565  37.921  20.233   4.691
 1112W        W62566  10.317  40.991  12.523
 1113W        W62567  11.130  26.552  13.030
 1114W        W62568  37.978  24.189  10.525
 1115W        W62569  39.384  13.786   1.410
 1116W        W62570  34.409  41.909  13.507
 1117W        W62571  10.140  19.119   1.816
 1118W        W62572  10.790  25.571  10.586
 1119W        W62573  26.684   8.839   3.712
 1120W        W62574   3.253  26.464  10.533
 1121W        W62575   7.188  13.843  14.834
 1122W        W62576   9.339  32.044  14.985
 1123W        W62577  22.729  15.170  14.371
 1124W        W62578  23.035  30.582  12.346
 1125W        W62579  15.294  39.922  12.932
 1126W        W62580  34.031   5.278  11.480
 1127W        W62581  24.715   9.654  10.448
 1128W        W62582   0.784  27.649   2.806
 1129W        W62583  18.596   2.892   3.215
 1130W        W62584  36.087  39.426  13.899
 1131W        W62585  12.298  29.481   2.208
 1132W        W62586  39.904  27.071   3.755
 1133W        W62587  19.140  32.501   2.817
 1134W        W62588  20.754  34.987   2.284
 1135W        W62589  25.543  30.601  13.963
 1136W        W62590  35.382   5.914  11.382
 1137W        W62591   4.862  12.731  14.870
 1138W        W62592  38.893   6.422   0.902
 1139W        W62593  39.522  25.636  11.109
 1140W        W62594  28.957  42.936  10.488
 1141W        W62595  23.560   5.382  12.503
 1142W        W62596  37.364  18.626   3.799
 1143W        W62597  37.069   8.666  10.959
 1144W        W62598  12.804  38.407   0.462
 1145W        W62599   2.396  20.544  13.970
 1146W        W62600  43.996  44.314   0.845
 1147W        W62601  28.044  12.318   2.183
 1148W        W62602  44.972  26.055  10.437
 1149W        W62603   6.249  33.953   4.219
 1150W        W62604   0.272  23.534   3.813
 1151W        W62605  13.162  31.973  11.431
 1152W        W62606  43.305  21.027  12.560
 1153W        W62607  43.813  43.825  11.542
 1154W        W62608  12.623  21.029   0.405
 1155W        W62609  27.967  29.515   9.948
 1156W        W62610  40.513  33.982  13.914
 1157W        W62611  27.478  13.791   3.845
 1158W        W62612   0.375  34.987   0.746
 1159W        W62613   8.369   7.683   0.871
 1160W        W62614  26.510  38.929  12.977
 1161W        W62615  26.648  25.040   0.476
 1162W        W62616  14.635  21.610   3.655
 1163W        W62617  23.019  41.405   1.852
 1164W        W62618  21.612  40.826   1.747
 1165W        W62619  25.156  38.384  11.495
 1166W        W62620   4.354  23.725   3.801
 1167W        W62621   4.210  40.543   3.722
 1168W        W62622  11.809   8.171   4.290
 1169W        W62623  25.588  16.133  13.319
 1170W        W62624  22.675   0.923   0.270
 1171W        W62625  23.610  30.488  12.551
 1172W        W62626  28.495  16.684   2.338
 1173W        W62627   8.698  18.188  12.344
 1174W        W62628  39.440  28.584   3.695
 1175W        W62629  17.619  12.245  12.965
 1176W        W62630   6.234  22.536  12.866
 1177W        W62631  38.515   0.922  11.481
 1178W        W62632  43.783  41.441  10.413
 1179W        W62633  40.054   2.866  14.458
 1180W        W62634  43.428  19.170   4.117
 1181W        W62635  31.032  39.033   0.408
 1182W        W62636  36.478   9.290   1.740
 1183W        W62637  25.076  32.978   4.255
 1184W        W62638  23.020  16.682  12.082
 1185W        W62639  28.052  38.912   5.193
 1186W        W62640  32.398  41.415  11.402
 1187W        W62641  30.926   4.368  11.965
 1188W        W62642  29.562   1.434  12.429
 1189W        W62643  18.769  43.492  13.939
 1190W        W62644  20.196  21.257   1.725
 1191W        W62645  11.158  36.982   4.739
 1192W        W62646  38.366  27.544  14.996
 1193W        W62647   9.259  37.038   0.276
 1194W        W62648  16.227  41.041   5.117
 1195W        W62649  33.077  34.596   4.312
 1196W        W62650  17.091   3.255   3.175
 1197W        W62651  20.069  36.092   0.320
 1198W        W62652   0.406  30.422  13.488
 1199W        W62653  27.524  27.466   2.235
 1200W        W62654  20.052  39.896  14.422
 1201W        W62655  41.998  31.952  12.380
 1202W        W62656  44.911  28.607  13.438
 1203W        W62657  30.957  34.064  13.532
 1204W        W62658  30.907  27.623   3.261
 1205W        W62659   8.237   1.740  12.091
 1206W        W62660  18.134  10.369  13.917
 1207W        W62661   8.723   4.349  10.413
 1208W        W62662  14.661  23.219   1.708
 1209W        W62663  11.641  24.653   3.308
 1210W        W62664  26.000  13.760   1.355
 1211W        W62665  10.168  25.088   0.749
 1212W        W62666  44.366  40.939  13.356
 1213W        W62667   9.391   4.772   0.411
 1214W        W62668  11.790   3.357   4.277
 1215W        W62669  12.690  15.618  13.809
 1216W        W62670  19.570  35.877  13.371
 1217W        W62671  30.161  27.137  11.607
 1218W        W62672  44.421  18.788  13.818
 1219W        W62673   1.754  12.827  14.858
 1220W        W62674  40.915  36.973   2.847
 1221W        W62675  26.490  36.423  13.436
 1222W        W62676  32.594  32.628  11.994
 1223W        W62677  35.012  43.979   1.733
 1224W        W62678   5.206  15.166   1.719
 1225W        W62679  28.101  19.120  13.400
 1226W        W62680   4.803  22.105  12.991
 1227W        W62681  30.145  22.661  10.612
 1228W        W62682  15.782  41.443  13.963
 1229W        W62683  33.465  16.602   2.269
 1230W        W62684  42.846  20.237   0.939
 1231W        W62685  26.553  42.949   1.868
 1232W        W62686  11.190  19.749  12.440
 1233W        W62687  38.488  44.340  11.426
 1234W        W62688   2.231  32.918   2.865
 1235W        W62689  36.941  40.353  13.347
 1236W        W62690   6.264  30.005  11.939
 1237W        W62691  16.248  40.943   0.292
 1238W        W62692  24.165  35.898   4.305
 1239W        W62693  33.575  39.928  14.852
 1240W        W62694   6.366  13.125  12.094
 1241W        W62695   6.869  35.386   0.888
 1242W        W62696  37.487  35.870  11.015
 1243W        W62697  15.210  26.659   0.795
 1244W        W62698  27.035  32.497   3.344
 1245W        W62699  21.612   6.828  14.025
 1246W        W62700  17.092  25.017  11.127
 1247W        W62701  10.309   3.859   2.818
 1248W        W62702  35.537  39.383   5.620
 1249W        W62703  34.902  44.411   0.854
 1250W        W62704  11.154  28.630  14.311
 1251W        W62705   0.248   8.762  10.637
 1252W        W62706  38.957  19.237   3.791
 1253W        W62707  34.516   8.773  10.587
 1254W        W62708  27.487  23.226  12.513
 1255W        W62709  30.421   4.264  12.874
 1256W        W62710  17.583  37.047   1.239
 1257W        W62711   3.416   3.888   2.396
 1258W        W62712   6.892   1.252   3.658
 1259W        W62713  25.693  41.381   4.753
 1260W        W62714   9.180  35.864   1.740
 1261W        W62715  32.062  28.040   1.396
 1262W        W62716   8.744  35.453   4.135
 1263W        W62717  15.317  44.330  13.019
 1264W        W62718  34.871  24.046  14.389
 1265W        W62719  20.225  44.450   4.663
 1266W        W62720  11.849  36.484   0.290
 1267W        W62721  41.493  32.598  11.017
 1268W        W62722   7.411  19.191  14.281
 1269W        W62723  36.013  23.188  11.560
 1270W        W62724  28.640  13.815   4.282
 1271W        W62725  10.634  19.209   2.308
 1272W        W62726  14.726  16.193  14.433
 1273W        W62727  35.524  20.550   2.816
 1274W        W62728  19.595   6.729  11.570
 1275W        W62729  10.671  28.646  14.317
 1276W        W62730   4.340   0.284  10.486
 1277W        W62731   5.846  38.408   3.754
 1278W        W62732  39.503  26.984  12.889
 1279W        W62733  10.695  32.924  11.391
 1280W        W62734  34.997  24.029  14.766
 1281W        W62735  41.799  36.939   2.885
 1282W        W62736  34.490   7.777   2.664
 1283W        W62737  28.589  29.540  10.600
 1284W        W62738  43.338  21.108   2.663
 1285W        W62739  43.393  12.851   4.293
 1286W        W62740  29.635  19.576  13.379
 1287W        W62741  43.345   2.373  12.561
 1288W        W62742  10.727  40.444   0.454
 1289W        W62743  34.091  24.090  12.481
 1290W        W62744  21.236  22.132   4.344
 1291W        W62745  40.906  10.333   4.756
 1292W        W62746  32.074  32.892   1.229
 1293W        W62747  17.134   5.250  11.097
 1294W        W62748  41.291  42.294   3.312
 1295W        W62749  19.261  16.226  10.575
 1296W        W62750  40.480  12.361   4.192
 1297W        W62751   2.744  14.723  13.540
 1298W        W62752  16.162   7.176   1.218
 1299W        W62753  10.376  28.988   4.276
 1300W        W62754   7.255   8.256  13.838
 1301W        W62755   5.696  43.286   0.448
 1302W        W62756   2.297  38.947   3.688
 1303W        W62757  10.722  34.370   3.757
 1304W        W62758   1.874   6.405  11.037
 1305W        W62759  37.841  17.676   0.456
 1306W        W62760  11.170  37.940  11.457
 1307W        W62761  43.845  22.716   0.281
 1308W        W62762  32.535   0.903   2.388
 1309W        W62763  19.175  18.610  12.997
 1310W        W62764  34.957  10.769  11.539
 1311W        W62765  25.045  26.177   0.454
 1312W        W62766  24.160   2.369  11.923
 1313W        W62767  10.197  41.503   1.379
 1314W        W62768  22.139  21.172  10.987
 1315W        W62769  34.558  30.566   3.361
 1316W        W62770  40.355  24.221   4.305
 1317W        W62771  18.225  27.007  14.906
 1318W        W62772   9.237  13.169   0.480
 1319W        W62773  38.031   0.376  12.579
 1320W        W62774  28.600  10.708  14.896
 1321W        W62775  25.002  28.482   1.813
 1322W        W62776  42.472  40.315   0.756
 1323W        W62777  44.979  43.415  14.810
 1324W        W62778  32.068   3.239  13.539
 1325W        W62779  28.507   3.276   3.187
 1326W        W62780   1.340  17.714   3.800
 1327W        W62781  38.449  12.127   3.345
 1328W        W62782  16.312  30.576  11.028
 1329W        W62783   8.816  31.998  11.078
 1330W        W62784   7.209  40.999   4.302
 1331W        W62785  14.777  13.686  12.478
 1332W        W62786  14.785  12.847   1.872
 1333W        W62787   3.409  30.539  12.087
 1334W        W62788  33.452  21.652  11.940
 1335W        W62789   0.291  24.641  11.044
 1336W        W62790  10.158  34.978   3.232
 1337W        W62791   9.384  24.088  13.532
 1338W        W62792   8.287  16.615   4.805
 1339W        W62793  15.768  26.547  12.007
 1340W        W62794   9.207  23.495   1.321
 1341W        W62795  22.052   2.455   1.844
 1342W        W62796   1.268   0.343   1.374
 1343W        W62797  25.987  12.146  10.415
 1344W        W62798  19.766  28.604   0.454
 1345W        W62799  28.082   8.297  12.941
 1346W        W62800  15.742  44.376   4.354
 1347W        W62801   7.717   9.657  13.510
 1348W        W62802  19.192  44.326  13.495
 1349W        W62803  42.460  38.916  11.054
 1350W        W62804  19.045  42.377  12.902
 1351W        W62805  42.350  18.659   2.336
 1352W        W62806  40.870  26.461  14.280
 1353W        W62807  19.167  35.553   3.375
 1354W        W62808  28.595  10.682  14.514
 1355W        W62809  21.092  42.327  14.333
 1356W        W62810  36.374  19.639   1.248
 1357W        W62811  12.663  30.113   1.765
 1358W        W62812  39.392  35.366   1.737
 1359W        W62813  32.596  10.777  14.962
 1360W        W62814  13.717  37.492   1.927
 1361W        W62815  32.058  12.279  14.786
 1362W        W62816  26.519   8.805  11.455
 1363W        W62817  22.722  25.657   2.683
 1364W        W62818   4.212   5.803  11.892
 1365W        W62819  25.079  37.455  14.401
 1366W        W62820  18.729  41.999  11.007
 1367W        W62821   9.687  15.598   0.435
 1368W        W62822  22.712  18.606  10.426
 1369W        W62823  32.552   1.860   2.885
 1370W        W62824  11.353  43.423  12.531
 1371W        W62825  30.952  33.615  10.639
 1372W        W62826  20.718  37.843  13.349
 1373W        W62827  29.670  30.520   5.090
 1374W        W62828   2.761   6.188   4.623
 1375W        W62829   5.700  16.145   1.228
 1376W        W62830   3.240  30.641   2.782
 1377W        W62831  19.185  19.624  12.547
 1378W        W62832  11.373   8.876   0.750
 1379W        W62833  17.736  38.867   4.721
 1380W        W62834   2.736  14.196  12.402
 1381W        W62835  19.680   8.293  13.971
 1382W        W62836   0.396  37.511   1.443
 1383W        W62837   6.233  38.836   1.866
 1384W        W62838  12.314   3.248   0.845
 1385W        W62839  37.008  21.126   1.812
 1386W        W62840   1.321   8.277  13.417
 1387W        W62841   4.392  14.136   2.798
 1388W        W62842   2.406  25.552  11.124
 1389W        W62843  32.461  39.427  11.543
 1390W        W62844  15.273  19.140   2.209
 1391W        W62845  20.641  33.498  12.537
 1392W        W62846  38.970   9.813  14.468
 1393W        W62847   1.781  18.662   3.193
 1394W        W62848  22.995   8.725  12.952
 1395W        W62849   3.883  28.955   4.768
 1396W        W62850  27.458   8.300  12.535
 1397W        W62851  21.587  37.908   0.331
 1398W        W62852  31.002   6.401   2.367
 1399W        W62853  34.907  26.145   1.240
 1400W        W62854  14.279   6.912   1.711
 1401W        W62855  12.184  38.526  12.889
 1402W        W62856  19.639  16.163   3.210
 1403W        W62857   6.365  25.469   2.663
 1404W        W62858  44.367   2.831   4.783
 1405W        W62859  21.147   8.803   1.907
 1406W        W62860   7.363  19.187   2.785
 1407W        W62861  41.459  13.273   3.786
 1408W        W62862  35.971  36.546   4.777
 1409W        W62863   9.736   2.413  13.992
 1410W        W62864  44.838  33.918  13.379
 1411W        W62865   5.286  16.750  11.571
 1412W        W62866  28.077  14.303   2.299
 1413W        W62867   9.271   3.287  10.117
 1414W        W62868  42.382  22.547   3.213
 1415W        W62869  33.543  36.553  11.026
 1416W        W62870  31.071  25.706  14.941
 1417W        W62871   1.844  43.972   3.763
 1418W        W62872  34.472  25.611  14.514
 1419W        W62873  12.244  40.871  12.954
 1420W        W62874  40.980  34.064   0.454
 1421W        W62875  44.470  33.479  11.098
 1422W        W62876  40.356   2.849   3.370
 1423W        W62877  12.351  15.177   1.771
 1424W        W62878  40.303  30.009  12.408
 1425W        W62879   1.950  35.883   3.824
 1426W        W62880  15.232   4.882   0.878
 1427W        W62881  15.593  42.371  11.575
 1428W        W62882  21.223   6.834   4.599
 1429W        W62883  16.205  37.489  11.374
 1430W        W62884   0.389  40.374   2.811
 1431W        W62885  27.682  11.648  13.928
 1432W        W62886  43.831   7.798   3.788
 1433W        W62887  25.620  33.606   4.315
 1434W        W62888   0.322  13.142  12.516
 1435W        W62889  17.113  17.109   0.760
 1436W        W62890  42.403  17.635  12.046
 1437W        W62891  21.248  31.568   3.383
 1438W        W62892   1.977  40.961   4.750
 1439W        W62893   3.922  43.485   4.733
 1440W        W62894  13.349  13.687  11.611
 1441W        W62895  43.459   1.860   3.234
 1442W        W62896  14.170  19.115  13.392
 1443W        W62897   4.217  22.700   2.363
 1444W        W62898  38.413   8.829  13.950
 1445W        W62899  15.244   2.872  11.575
 1446W        W62900  33.453  13.690   0.928
 1447W        W62901  11.175  18.056  13.414
 1448W        W62902  11.771  15.661  10.529
 1449W        W62903  24.090   6.294   0.452
 1450W        W62904  13.211   4.307   0.777
 1451W        W62905   0.838  19.774  13.055
 1452W        W62906  17.176  31.001   1.868
 1453W        W62907  40.305  43.422   1.807
 1454W        W62908  26.185  41.885   4.640
 1455W        W62909  11.257   1.381   2.325
 1456W        W62910  39.064  35.446   4.314
 1457W        W62911  33.973  14.750  13.834
 1458W        W62912  34.412   3.433  12.902
 1459W        W62913  12.734  27.993  11.420
 1460W        W62914   5.355  38.966   3.694
 1461W        W62915  32.970   0.932  14.470
 1462W        W62916  23.489   5.353   0.275
 1463W        W62917   3.943   4.939  11.058
 1464W        W62918   5.284  23.555   3.779
 1465W        W62919  10.833  23.107   0.461
 1466W        W62920  26.169  39.331  12.984
 1467W        W62921  32.434  30.434   4.833
 1468W        W62922   9.226  40.803   3.362
 1469W        W62923  15.289  41.523  13.315
 1470W        W62924  40.352  36.512   3.219
 1471W        W62925  16.568   5.797   0.729
 1472W        W62926   7.253  23.219   2.410
 1473W        W62927  27.598  43.974  14.335
 1474W        W62928  40.937   6.352  10.910
 1475W        W62929  33.412  14.179  14.939
 1476W        W62930  44.959  41.909   3.732
 1477W        W62931  40.031  12.811   4.220
 1478W        W62932   1.294   4.290   3.670
 1479W        W62933   9.151   7.175  11.986
 1480W        W62934  19.092  10.652  13.984
 1481W        W62935  25.970  38.519  13.334
 1482W        W62936  11.739  24.642   1.855
 1483W        W62937  45.000  28.463  11.898
 1484W        W62938  27.165   9.296   0.422
 1485W        W62939   7.823  17.145  14.811
 1486W        W62940  33.921   6.360   1.253
 1487W        W62941  34.895  21.581  10.966
 1488W        W62942  20.205  29.665   4.698
 1489W        W62943  42.386   3.757  14.432
 1490W        W62944  40.308  16.096  10.571
 1491W        W62945   7.215   0.751   1.435
 1492W        W62946   4.327  29.628  13.832
 1493W        W62947  11.275  31.092  14.010
 1494W        W62948   9.702  26.164   3.689
 1495W        W62949  24.588  31.404  13.035
 1496W        W62950  12.200  28.990  12.849
 1497W        W62951  23.098  32.969  13.939
 1498W        W62952  34.399  15.710  13.538
 1499W        W62953  28.673  29.639   3.727
 1500W        W62954  20.154  10.307  12.978
 1501W        W62955  31.494   5.887  10.897
 1502W        W62956  39.921  42.844  12.927
 1503W        W62957  34.081  18.715  11.128
 1504W        W62958   1.932  13.345   4.661
 1505W        W62959  40.473  25.040   2.787
 1506W        W62960  37.427   6.348  12.477
 1507W        W62961  35.100  30.024  11.428
 1508W        W62962   2.834  35.981   2.258
 1509W        W62963   5.885   2.951   4.750
 1510W        W62964  41.459  11.273  12.531
 1511W        W62965  21.566   3.337   2.841
 1512W        W62966  11.325  36.441  13.034
 1513W        W62967  11.350   1.974  13.029
 1514W        W62968   4.307  30.428  11.048
 1515W        W62969   0.807  16.640  10.955
 1516W        W62970  39.937  38.571   2.409
 1517W        W62971  16.297   8.718   1.288
 1518W        W62972  34.013   1.242   0.900
 1519W        W62973  20.111  39.027  11.464
 1520W        W62974  35.453  13.734   1.304
 1521W        W62975   5.774  30.417   2.264
 1522W        W62976  41.972  20.675  13.545
 1523W        W62977  36.001   5.301   3.805
 1524W        W62978  14.820   5.311  12.989
 1525W        W62979  40.024  41.334   4.141
 1526W        W62980  44.929  21.048  12.352
 1527W        W62981  43.368   2.889  11.409
 1528W        W62982   3.947  29.941  12.550
 1529W        W62983  24.218   4.251  14.411
 1530W        W62984  32.969  17.620   3.286
 1531W        W62985   8.711  37.877  10.999
 1532W        W62986  44.258  39.315   2.877
 1533W        W62987  36.556  21.028  14.466
 1534W        W62988   8.311  10.689   2.755
 1535W        W62989  31.134  42.434   0.940
 1536W        W62990  18.150  37.560  10.588
 1537W        W62991   0.814  32.966   0.393
 1538W        W62992   6.867  34.470   3.317
 1539W        W62993  41.841  38.950  12.578
 1540W        W62994   9.656  10.810  13.063
 1541W        W62995  15.649   7.767   2.372
 1542W        W62996  31.079  31.479  14.025
 1543W        W62997  28.989   2.927   1.881
 1544W        W62998  34.603  30.579   4.832
 1545W        W62999  25.987  34.377  11.416
 1546W        W63000   0.434   5.246   2.874
 1547W        W63001  17.667  44.776   3.214
 1548W        W63002  28.072  14.161  12.573
 1549W        W63003  18.200  21.072  14.825
 1550W        W63004  35.921  40.481  13.062
 1551W        W63005   9.294   9.726   1.824
 1552W        W63006  39.007  43.406  14.345
 1553W        W63007  33.008  38.068   0.472
 1554W        W63008   0.936   9.277  12.003
 1555W        W63009  20.588   2.241   2.787
 1556W        W63010  41.515  32.005   4.627
 1557W        W63011   5.352  42.320  10.538
 1558W        W63012  10.275  38.026  10.897
 1559W        W63013  40.319  30.415   1.232
 1560W        W63014  43.895  38.462  14.980
 1561W        W63015  27.004   4.706  10.022
 1562W        W63016  15.799  15.579   1.897
 1563W        W63017  37.984  44.754  11.581
 1564W        W63018   5.705  11.129   3.276
 1565W        W63019  24.024  15.599  14.949
 1566W        W63020  26.062  10.207  13.808
 1567W        W63021  15.683   8.260  13.315
 1568W        W63022  15.248  18.245   1.817
 1569W        W63023  18.222   0.852  12.095
 1570W        W63024  27.505  27.514   0.809
 1571W        W63025  29.513  31.946   3.287
 1572W        W63026  25.202  41.516  14.363
 1573W        W63027  40.450  37.537  11.491
 1574W        W63028   3.255  18.548   3.816
 1575W        W63029  31.632  11.828   3.151
 1576W        W63030  35.502  42.806  11.999
 1577W        W63031  19.604  35.995   3.383
 1578W        W63032   7.391   4.870   1.883
 1579W        W63033  39.359  22.121  11.559
 1580W        W63034  24.194  10.343  11.933
 1581W        W63035  27.648  33.382  14.794
 1582W        W63036  15.643  32.505  12.950
 1583W        W63037  34.944  38.498   4.211
 1584W        W63038   5.880   2.754  10.896
 1585W        W63039  30.912   7.313   3.302
 1586W        W63040  25.608  22.216   3.194
 1587W        W63041  39.809  28.181   3.179
 1588W        W63042  10.329  16.659  12.416
 1589W        W63043  20.181  30.452  14.464
 1590W        W63044  35.405  10.381  11.059
 1591W        W63045  28.156  19.169  10.637
 1592W        W63046   5.835  15.304  14.335
 1593W        W63047  33.096  43.847  11.944
 1594W        W63048  41.391  40.864   3.379
 1595W        W63049  17.257   4.228   3.302
 1596W        W63050   5.327  14.190   4.296
 1597W        W63051  22.170  33.021   2.236
 1598W        W63052  15.609  40.850   4.236
 1599W        W63053  19.671  37.880   3.774
 1600W        W63054  22.098  33.546   3.235
 1601W        W63055  32.603  43.911  12.925
 1602W        W63056  17.610  17.562   0.964
 1603W        W63057  39.832   5.344   0.310
 1604W        W63058  32.624  16.294  14.502
 1605W        W63059  32.998   3.889  13.548
 1606W        W63060  40.489  30.604  11.867
 1607W        W63061  20.591   6.387  13.399
 1608W        W63062   3.267  15.729   5.286
 1609W        W63063  23.999  21.677   2.280
 1610W        W63064   8.765   1.425  11.532
 1611W        W63065  31.956   4.854   4.210
 1612W        W63066   2.807   5.375   0.256
 1613W        W63067   9.206  16.811  13.030
 1614W        W63068   4.750  10.292   0.470
 1615W        W63069  11.246   2.326   2.417
 1616W        W63070  28.615  17.640   2.774
 1617W        W63071   4.434  13.148   1.839
 1618W        W63072  15.821  18.631   3.774
 1619W        W63073  32.397   6.309  12.363
 1620W        W63074  30.657   0.467   3.763
 1621W        W63075  32.968  20.594   3.156
 1622W        W63076  37.948  40.029   0.758
 1623W        W63077  22.649  28.555   2.885
 1624W        W63078  41.800   9.799   2.252
 1625W        W63079   2.812   1.965  12.950
 1626W        W63080   6.702   2.841   1.444
 1627W        W63081   7.791  11.146  12.835
 1628W        W63082  43.304  38.888   4.161
 1629W        W63083  14.741   1.839   3.346
 1630W        W63084  32.995  40.807   1.705
 1631W        W63085  17.197  30.091   3.762
 1632W        W63086  26.607   2.327   1.349
 1633W        W63087  37.484  32.928   4.178
 1634W        W63088  12.708  24.151   2.708
 1635W        W63089   1.817  42.938  11.893
 1636W        W63090  17.072  33.428   1.932
 1637W        W63091  31.422   6.219   0.732
 1638W        W63092  39.034   0.295  10.565
 1639W        W63093   6.242  15.729   0.780
 1640W        W63094  26.702  39.550  14.787
 1641W        W63095  44.380  18.114  10.447
 1642W        W63096  27.143  44.455  13.947
 1643W        W63097  42.814  16.655   2.364
 1644W        W63098  35.044   1.735  14.297
 1645W        W63099  34.920   1.338  13.796
 1646W        W63100  39.321  44.444   5.260
 1647W        W63101  11.824  33.618   2.701
 1648W        W63102  22.570   1.367  14.822
 1649W        W63103  42.799   7.407   2.271
 1650W        W63104  21.587  39.981  13.062
 1651W        W63105  23.593  34.069  11.935
 1652W        W63106  44.340   6.350   4.176
 1653W        W63107  16.651  40.418  10.954
 1654W        W63108  13.169  43.421  11.567
 1655W        W63109  38.514  34.030  13.800
 1656W        W63110  16.073  16.184   3.682
 1657W        W63111  41.454  30.942   1.353
 1658W        W63112  13.288  35.430  12.060
 1659W        W63113   7.912  15.191   0.440
 1660W        W63114  26.118  25.199   0.278
 1661W        W63115  28.939  28.950  14.331
 1662W        W63116  15.135  37.063   3.239
 1663W        W63117  15.619  35.967  13.387
 1664W        W63118  41.383  39.947   1.216
 1665W        W63119   8.888  37.023  11.487
 1666W        W63120  32.525  16.623  13.353
 1667W        W63121  39.841  25.704   4.768
 1668W        W63122  28.929  26.568   1.231
 1669W        W63123  10.175  29.564   1.917
 1670W        W63124  29.512  15.726  14.785
 1671W        W63125  13.199  29.136   3.778
 1672W        W63126  43.794  19.689   2.232
 1673W        W63127  17.277   5.210  13.393
 1674W        W63128  39.875  24.576   2.812
 1675W        W63129  13.156   0.257   0.834
 1676W        W63130  30.006  12.616  12.943
 1677W        W63131  18.590  34.382   1.225
 1678W        W63132   4.743  25.041  12.968
 1679W        W63133  13.654  26.956  14.926
 1680W        W63134  22.129  17.788   2.211
 1681W        W63135  14.657   3.898   3.842
 1682W        W63136  28.093  14.792  11.127
 1683W        W63137  37.481  30.545   1.223
 1684W        W63138  42.884  31.940   4.221
 1685W        W63139  34.396  21.173  11.040
 1686W        W63140  28.451  42.514   1.784
 1687W        W63141  31.534   2.761   0.287
 1688W        W63142  17.726   4.439   3.232
 1689W        W63143   3.887  30.464   1.264
 1690W        W63144  11.359  42.969   0.774
 1691W        W63145  22.217   7.701  14.283
 1692W        W63146  23.143  24.088  11.466
 1693W        W63147  14.187  19.657   0.257
 1694W        W63148  23.620  29.981  10.544
 1695W        W63149  25.518  38.448  12.392
 1696W        W63150  28.584   7.886   1.767
 1697W        W63151   7.726  29.060   4.296
 1698W        W63152  21.218  10.367   0.299
 1699W        W63153  16.092  11.283  11.427
 1700W        W63154  43.504  11.217   4.724
 1701W        W63155  12.160  37.039  14.952
 1702W        W63156  29.102  11.777   2.765
 1703W        W63157  41.012  32.491   2.221
 1704W        W63158  14.179   5.826  13.399
 1705W        W63159  13.809  16.794  13.350
 1706W        W63160   7.369  24.191  10.535
 1707W        W63161  34.409  25.031   0.297
 1708W        W63162  38.389  44.502  14.902
 1709W        W63163  13.759  10.682   0.805
 1710W        W63164   4.846  24.517   2.373
 1711W        W63165  13.778  13.156   0.304
 1712W        W63166  33.962  27.122  14.306
 1713W        W63167  38.467  34.474   0.939
 1714W        W63168   6.221  36.482  12.523
 1715W        W63169  32.465   6.860  12.454
 1716W        W63170  44.930   8.273   1.352
 1717W        W63171  37.909  42.452   3.292
 1718W        W63172  16.129  38.569   1.710
 1719W        W63173  37.071  31.626  13.954
 1720W        W63174  10.812   3.848   0.761
 1721W        W63175  16.190  35.402  14.294
 1722W        W63176  14.161  22.695  10.447
 1723W        W63177  44.873  28.612   3.698
 1724W        W63178  16.313  42.521   4.820
 1725W        W63179  33.621   1.393  13.956
 1726W        W63180  39.061   1.860  10.054
 1727W        W63181  11.177  25.990   2.711
 1728W        W63182  42.406  15.645   4.627
 1729W        W63183  42.982  44.800  11.064
 1730W        W63184  12.350  20.036  14.022
 1731W        W63185  42.347  13.795   3.332
 1732W        W63186  29.074  39.362   3.726
 1733W        W63187  41.820  28.578  14.323
 1734W        W63188  16.592  19.284   0.901
 1735W        W63189  36.490  18.197   0.361
 1736W        W63190  15.779   9.730   5.277
 1737W        W63191  28.605  37.975   4.741
 1738W        W63192  30.971   2.837   0.383
 1739W        W63193   2.361  15.755   3.292
 1740W        W63194  20.129  11.177  14.374
 1741W        W63195  11.234   6.279   1.350
 1742W        W63196  19.182  24.655   3.257
 1743W        W63197  16.108  30.041   2.885
 1744W        W63198  41.929   3.719  11.394
 1745W        W63199  34.118  41.827  14.792
 1746W        W63200  43.799  15.186  13.873
 1747W        W63201   5.873  15.582  10.950
 1748W        W63202  30.647  43.972   4.182
 1749W        W63203  16.146   8.851   4.340
 1750W        W63204  33.051  34.950   4.278
 1751W        W63205  20.262  11.174  13.025
 1752W        W63206   5.692  31.020  12.831
 1753W        W63207   1.733   5.777  14.286
 1754W        W63208  41.902  19.640   2.235
 1755W        W63209   0.980  36.074  14.901
 1756W        W63210  33.421   8.770   1.372
 1757W        W63211  23.991   1.895  13.061
 1758W        W63212  21.659  31.632  12.503
 1759W        W63213   4.352   7.310  11.114
 1760W        W63214  16.613  32.096   4.228
 1761W        W63215   9.293  29.562  12.827
 1762W        W63216  40.935  34.057  12.505
 1763W        W63217  32.598  22.510  14.496
 1764W        W63218   6.754  22.210  13.912
 1765W        W63219  33.110  29.488  10.488
 1766W        W63220   6.328  30.490   1.777
 1767W        W63221  17.608  43.482   2.728
 1768W        W63222   4.746  39.555  10.439
 1769W        W63223   3.748  18.631   3.272
 1770W        W63224   8.896  42.316  12.002
 1771W        W63225  27.567   2.845   3.668
 1772W        W63226  22.063   8.243   2.821
 1773W        W63227   1.377  44.328  10.510
 1774W        W63228  26.148  11.258   2.367
 1775W        W63229  32.623  20.169  10.557
 1776W        W63230  32.991  42.425  13.392
 1777W        W63231  31.499  31.499   0.965
 1778W        W63232  20.610  28.574   0.736
 1779W        W63233   6.333  21.521  12.379
 1780W        W63234  33.921  33.521   4.173
 1781W        W63235  32.627  40.962  13.793
 1782W        W63236  39.523  22.690   2.763
 1783W        W63237  13.263  22.651   9.446
 1784W        W63238  34.492  40.828  13.429
 1785W        W63239  22.115  21.027  11.893
 1786W        W63240  24.174  36.011   0.356
 1787W        W63241   6.339  25.546  13.501
 1788W        W63242   1.875  12.623  14.276
 1789W        W63243  17.285  33.898   0.795
 1790W        W63244  12.782  36.441   2.320
 1791W        W63245  26.532  31.147  11.377
 1792W        W63246  19.229  22.235   2.690
 1793W        W63247  38.461  25.584   3.657
 1794W        W63248  11.361   2.305   4.692
 1795W        W63249   7.301  18.097  11.088
 1796W        W63250  34.593  31.523   4.754
 1797W        W63251  27.683  19.692   1.406
 1798W        W63252  32.424  34.962  14.349
 1799W        W63253   3.458  40.449  12.441
 1800W        W63254   8.881   7.369   3.656
 1801W        W63255  34.546  15.692  14.433
 1802W        W63256   6.877   5.282   1.748
 1803W        W63257  25.706  14.752   1.227
 1804W        W63258  19.598  44.261   3.731
 1805W        W63259   4.422  30.569  14.377
 1806W        W63260   3.725  20.560   0.930
 1807W        W63261  20.567   9.766  13.975
 1808W        W63262  37.551   4.933   0.798
 1809W        W63263  11.746  24.179   3.382
 1810W        W63264   4.913  39.052  12.058
 1811W        W63265   3.367  37.060  10.561
 1812W        W63266  31.547  26.568  12.443
 1813W        W63267   9.222  32.397  14.850
 1814W        W63268  27.041  34.398   1.301
 1815W        W63269  35.905  24.204  12.957
 1816W        W63270  12.830   8.758  14.030
 1817W        W63271  36.543  38.881  14.991
 1818W        W63272  15.312   8.805  12.070
 1819W        W63273   3.366   2.401  13.061
 1820W        W63274   6.349  11.675  12.039
 1821W        W63275   7.204  31.557   5.311
 1822W        W63276  33.598  43.850   4.260
 1823W        W63277  32.600  24.134  14.405
 1824W        W63278   7.900  10.813  12.905
 1825W        W63279  42.304  12.293  10.488
 1826W        W63280  44.281  31.014   5.199
 1827W        W63281  32.982  37.461  10.128
 1828W        W63282  22.645  14.195  13.355
 1829W        W63283  41.371   4.734  10.455
 1830W        W63284  26.027  44.773   1.883
 1831W        W63285  38.463  12.832   1.857
 1832W        W63286  31.127  22.025  13.993
 1833W        W63287  21.138  20.730  12.355
 1834W        W63288   6.824  21.738  10.415
 1835W        W63289  39.361  36.512   2.793
 1836W        W63290  23.492  41.995  11.117
 1837W        W63291  34.004   6.286   2.717
 1838W        W63292  44.317  23.660  13.041
 1839W        W63293  27.182  43.461  13.806
 1840W        W63294  31.628  32.042   5.112
 1841W        W63295  26.700  37.963   4.749
 1842W        W63296   3.404  29.556  13.932
 1843W        W63297  37.067  12.723   0.799
 1844W        W63298  27.001  19.688  13.376
 1845W        W63299  30.466   2.466  13.414
 1846W        W63300  11.782  40.360   5.284
 1847W        W63301  23.090  10.781   3.774
 1848W        W63302  33.394  16.283  13.402
 1849W        W63303  40.917  10.271   3.776
 1850W        W63304  23.644  37.426   2.871
 1851W        W63305  32.550   6.877   2.354
 1852W        W63306  21.140   7.895  14.855
 1853W        W63307  19.165  38.999  11.995
 1854W        W63308  16.132  44.430  11.955
 1855W        W63309  28.528  30.467  12.347
 1856W        W63310   9.168  28.009  10.443
 1857W        W63311  30.570  11.278   2.281
 1858W        W63312  15.581  19.239   4.657
 1859W        W63313  30.599   9.376  12.983
 1860W        W63314  17.607  25.145  13.968
 1861W        W63315  17.628   5.863  12.499
 1862W        W63316  20.670   5.775  10.996
 1863W        W63317   8.856   1.905   2.297
 1864W        W63318  20.702  30.634   3.156
 1865W        W63319  24.015  37.359   1.852
 1866W        W63320  31.006  40.952   3.658
 1867W        W63321  31.507  40.479   2.729
 1868W        W63322   5.228  17.800   4.186
 1869W        W63323  28.066  35.062   5.231
 1870W        W63324  16.201  13.216   0.788
 1871W        W63325  41.872  21.629  11.995
 1872W        W63326  23.146  14.103   3.857
 1873W        W63327   5.361  39.897  12.067
 1874W        W63328   8.741  29.974   4.345
 1875W        W63329  24.046  22.681  10.478
 1876W        W63330   3.805   0.973  14.911
 1877W        W63331   8.778  43.803  13.395
 1878W        W63332  27.191  26.059  14.496
 1879W        W63333   1.881  42.881  13.860
 1880W        W63334  13.187  26.044  12.517
 1881W        W63335  36.057   1.862  14.338
 1882W        W63336   0.792  35.493  13.921
 1883W        W63337   8.204   4.347  12.897
 1884W        W63338  35.924  14.255   2.827
 1885W        W63339  42.372  34.865  14.859
 1886W        W63340   2.892  24.524   3.344
 1887W        W63341  28.502  26.168  12.826
 1888W        W63342   9.232   8.805  10.608
 1889W        W63343  34.567  12.785  10.574
 1890W        W63344  32.020  10.304  12.072
 1891W        W63345  27.120  39.856   1.760
 1892W        W63346  26.673  16.125  14.487
 1893W        W63347  10.879  36.848  11.478
 1894W        W63348  33.928  40.996  12.858
 1895W        W63349  32.571  40.394  12.478
 1896W        W63350  26.121  44.949   0.369
 1897W        W63351   7.393  23.223  14.480
 1898W        W63352  32.142  38.827  12.543
 1899W        W63353  28.027  31.457  14.426
 1900W        W63354  26.596  23.500   1.435
 1901W        W63355  32.979  42.309  14.974
 1902W        W63356   2.250   4.903   2.669
 1903W        W63357  29.064  15.799   1.781
 1904W        W63358   6.327  40.022  11.465
 1905W        W63359  33.527  26.565   2.721
 1906W        W63360  30.073  44.827   3.293
 1907W        W63361  25.608   7.283  13.994
 1908W        W63362  33.908  27.572  12.878
 1909W        W63363   9.288  42.321   1.706
 1910W        W63364  17.214  34.927  14.988
 1911W        W63365  29.988  37.012  12.556
 1912W        W63366   8.722  28.555   3.814
 1913W        W63367  42.806   8.395   3.641
 1914W        W63368  28.141   8.674   1.820
 1915W        W63369   2.434   6.910   2.179
 1916W        W63370  33.425   5.419   2.355
 1917W        W63371  35.504  25.191  13.063
 1918W        W63372   4.249  20.078   2.397
 1919W        W63373  27.062   0.311   5.734
 1920W        W63374  38.453  31.937   1.836
 1921W        W63375   2.882  14.158  10.559
 1922W        W63376  12.135  43.279   2.890
 1923W        W63377  37.995  19.167   1.778
 1924W        W63378  37.572  18.712  10.442
 1925W        W63379  28.445  18.569   1.327
 1926W        W63380  30.645  13.807   0.923
 1927W        W63381  20.575  35.569   2.248
 1928W        W63382  16.098  30.490  10.589
 1929W        W63383  10.736  23.237   3.838
 1930W        W63384  40.523   9.871   3.809
 1931W        W63385  40.973  22.501   4.644
 1932W        W63386   5.239  42.359   4.305
 1933W        W63387   3.427  20.066   2.670
 1934W        W63388  39.482  20.060  10.472
 1935W        W63389  44.793  40.932  13.853
 1936W        W63390  11.664   7.302  14.429
 1937W        W63391   9.379  41.368  14.993
 1938W        W63392   7.365  29.623  10.430
 1939W        W63393  10.636  27.129   3.303
 1940W        W63394  39.892  43.889   2.260
 1941W        W63395  44.450   3.884   3.200
 1942W        W63396  18.158   5.279   0.915
 1943W        W63397  22.698  31.638   0.343
 1944W        W63398  17.206  23.722  13.862
 1945W        W63399  10.871  31.992  14.032
 1946W        W63400  39.024  36.583   4.146
 1947W        W63401   4.296  20.626  12.832
 1948W        W63402  29.621  43.765   3.279
 1949W        W63403  39.038  35.476  10.465
 1950W        W63404   2.434  24.541  11.976
 1951W        W63405  25.190  26.548  13.535
 1952W        W63406  43.849  42.363   4.260
 1953W        W63407   2.328  44.873   4.800
 1954W        W63408  20.654  25.064   0.903
 1955W        W63409  23.648  44.332  10.990
 1956W        W63410  23.171  30.488   4.820
 1957W        W63411  34.612  41.824   0.840
 1958W        W63412  41.468  26.611   2.903
 1959W        W63413  15.693  30.489   4.649
 1960W        W63414  13.777  24.644   3.712
 1961W        W63415  38.414   8.684  14.831
 1962W        W63416  42.474   4.854  13.497
 1963W        W63417  15.134  40.404   0.392
 1964W        W63418  24.988  38.456   4.349
 1965W        W63419  21.710  18.220  14.347
 1966W        W63420  31.495  40.029  10.503
 1967W        W63421   5.884  14.825   4.598
 1968W        W63422  22.707  43.875   0.250
 1969W        W63423   2.404  32.524   3.307
 1970W        W63424  26.624  42.869  14.943
 1971W        W63425   9.656   5.697   0.418
 1972W        W63426   5.250  35.365  13.401
 1973W        W63427  27.450  16.137   3.723
 1974W        W63428  19.176  33.998   2.686
 1975W        W63429  12.125   9.231   4.788
 1976W        W63430   6.323   2.894   4.155
 1977W        W63431  14.246   4.937  13.439
 1978W        W63432  37.447  20.625  12.955
 1979W        W63433  36.474  39.321   0.252
 1980W        W63434   5.263  21.537  13.337
 1981W        W63435  34.907  24.525   0.890
 1982W        W63436  27.468  13.210   3.785
 1983W        W63437  16.721  18.236   1.243
 1984W        W63438  19.226  30.576  10.522
 1985W        W63439  14.211  29.115  10.545
 1986W        W63440  18.771  32.026   3.784
 1987W        W63441   1.916  24.226  12.557
 1988W        W63442  44.346  18.168  11.522
 1989W        W63443  27.480  32.009  14.434
 1990W        W63444   2.823  11.355  11.540
 1991W        W63445  41.395  30.125  11.911
 1992W        W63446  30.922  34.098   4.799
 1993W        W63447  19.736   3.930  12.457
 1994W        W63448  32.594  16.710  14.920
 1995W        W63449  23.083   8.751   2.810
 1996W        W63450   8.860  25.519   0.864
 1997W        W63451  33.596  38.986   1.858
 1998W        W63452  17.558   2.880  13.414
 1999W        W63453   3.441  27.580   0.317
 2000W        W63454  37.023  15.675   1.832
 2001W        W63455  36.488  21.263  13.045
 2002W        W63456  30.488  40.932  12.512
 2003W        W63457  25.964  36.530  13.451
 2004W        W63458   6.793   4.434   1.927
 2005W        W63459  33.418  41.043   0.363
 2006W        W63460   9.845  35.430   4.225
 2007W        W63461  25.630  12.162   4.242
 2008W        W63462  44.333  10.837   0.906
 2009W        W63463   9.828  26.100  12.066
 2010W        W63464  34.393   7.305   1.742
 2011W        W63465  29.973  43.361   0.291
 2012W        W63466  23.197  33.914   2.854
 2013W        W63467   2.458  23.226   0.793
 2014W        W63468  25.040   5.437  14.455
 2015W        W63469  38.539  39.808  13.055
 2016W        W63470  32.430   2.460   0.253
 2017W        W63471   4.860  30.086  12.034
 2018W        W63472  30.508  31.430   0.392
 2019W        W63473  30.935  21.239   2.381
 2020W        W63474   0.795  12.339  13.406
 2021W        W63475   2.808   0.427   2.670
 2022W        W63476  14.766  43.395  11.923
 2023W        W63477   8.315  20.046   1.852
 2024W        W63478  44.443  16.674   2.268
 2025W        W63479  40.933  27.130   2.257
 2026W        W63480  28.505  41.501  13.822
 2027W        W63481  35.426  38.500   9.572
 2028W        W63482  26.599  27.673   1.413
 2029W        W63483  42.305  26.488  12.881
 2030W        W63484  10.313  16.142   2.318
 2031W        W63485  39.394  14.126   0.451
 2032W        W63486  22.091  38.826  14.342
 2033W        W63487  26.180  19.772  12.429
 2034W        W63488  37.414  33.580   1.816
 2035W        W63489  13.313  26.167   1.266
 2036W        W63490  37.968  39.008   9.472
 2037W        W63491  42.868   5.702   0.756
 2038W        W63492   3.716   4.808  14.005
 2039W        W63493  34.937  32.137   1.934
 2040W        W63494  34.411  41.304   0.880
 2041W        W63495  44.791  27.197  11.895
 2042W        W63496   0.787  31.500  11.087
 2043W        W63497  12.752  36.918   4.127
 2044W        W63498  17.788  18.552  13.336
 2045W        W63499  11.706  21.645   1.870
 2046W        W63500  35.879  35.071   2.695
 2047W        W63501  27.605  39.447  10.568
 2048W        W63502  43.006  28.155   1.907
 2049W        W63503  22.029  20.566  12.914
 2050W        W63504  31.531  24.518  10.431
 2051W        W63505  38.862  35.520   3.783
 2052W        W63506   2.847  40.500   0.822
 2053W        W63507  38.037   9.200  13.021
 2054W        W63508  31.908   1.283   0.826
 2055W        W63509   4.275  12.330  13.373
 2056W        W63510  19.040  23.160   4.132
 2057W        W63511  28.965  29.532  11.109
 2058W        W63512  36.010  26.961   2.870
 2059W        W63513  26.966  11.799  11.972
 2060W        W63514  29.536  41.526   1.890
 2061W        W63515  16.190  39.433  13.329
 2062W        W63516  44.298  26.618   4.242
 2063W        W63517  38.395  13.621  14.016
 2064W        W63518  31.980  36.569   5.161
 2065W        W63519  34.521  31.023  13.406
 2066W        W63520  37.069  44.339   4.693
 2067W        W63521   6.428   9.679  12.474
 2068W        W63522  30.620  25.210   4.275
 2069W        W63523  18.610  14.637   9.585
 2070W        W63524  38.006  10.280   2.192
 2071W        W63525   2.810  28.528  11.045
 2072W        W63526  35.492  10.145   4.653
 2073W        W63527  44.279  41.381   4.260
 2074W        W63528  17.150  25.968   0.762
 2075W        W63529  29.125  26.649   1.902
 2076W        W63530  11.213  16.811   5.313
 2077W        W63531   2.885   9.728   3.325
 2078W        W63532  13.311   7.808  13.965
 2079W        W63533   6.237  38.862  12.067
 2080W        W63534  20.579   4.860   4.645
 2081W        W63535  23.611   1.431   1.769
 2082W        W63536   1.830  43.344  14.808
 2083W        W63537   5.809  25.177   3.800
 2084W        W63538  37.386  17.637   1.233
 2085W        W63539  39.829  32.098  13.044
 2086W        W63540  17.560  33.613  14.462
 2087W        W63541  35.101  34.515   1.926
 2088W        W63542  30.954  16.145  13.865
 2089W        W63543  20.563  25.685  10.987
 2090W        W63544  37.929   7.198   4.829
 2091W        W63545   3.769  27.524  14.447
 2092W        W63546  32.989  30.942  14.385
 2093W        W63547  19.220  29.135   3.794
 2094W        W63548  25.642   8.402   2.402
 2095W        W63549   4.315  32.540   1.721
 2096W        W63550  38.986  26.039   2.293
 2097W        W63551  19.196  18.613   4.262
 2098W        W63552   8.216   3.344  12.871
 2099W        W63553  37.533   5.326   0.892
 2100W        W63554  41.466  14.117   1.210
 2101W        W63555  41.919  33.525  14.352
 2102W        W63556  16.153  42.953  11.923
 2103W        W63557  11.166  41.456   3.782
 2104W        W63558  17.627  15.115   4.248
 2105W        W63559  20.161  21.638  12.456
 2106W        W63560   3.902   9.824  13.791
 2107W        W63561   3.232  43.340   4.635
 2108W        W63562  43.853   2.305   3.302
 2109W        W63563  31.133  25.077  13.497
 2110W        W63564  20.183  22.643   4.270
 2111W        W63565  42.476  25.056   0.750
 2112W        W63566  12.779  30.539   1.761
 2113W        W63567  22.052  18.642  12.510
 2114W        W63568   7.405  11.708  12.024
 2115W        W63569  38.340  38.532  12.472
 2116W        W63570  18.124  32.928  12.836
 2117W        W63571   5.355  20.716  11.029
 2118W        W63572   0.974  18.252  11.888
 2119W        W63573   6.680   6.698  12.516
 2120W        W63574   4.747  39.415  12.909
 2121W        W63575   2.952  37.551   4.743
 2122W        W63576   6.877  41.880  13.421
 2123W        W63577  21.675   7.887  11.419
 2124W        W63578  15.194   4.339  10.511
 2125W        W63579   2.291  22.074  12.086
 2126W        W63580  16.698   4.261  11.032
 2127W        W63581   4.915  23.523  11.390
 2128W        W63582  28.671   0.334   1.783
 2129W        W63583   0.255  28.025   2.415
 2130W        W63584  28.170  12.314  10.418
 2131W        W63585  14.689  12.199  14.966
 2132W        W63586  39.492  11.720  10.484
 2133W        W63587   8.702  20.093  13.330
 2134W        W63588  35.917   4.718   1.789
 2135W        W63589  44.011  11.314  14.453
 2136W        W63590   2.365  24.526   4.353
 2137W        W63591  11.661  22.574  13.481
 2138W        W63592   6.302  14.301  10.411
 2139W        W63593   0.921  18.769   1.364
 2140W        W63594  20.151   8.399  11.859
 2141W        W63595  31.051   1.918  14.514
 2142W        W63596  11.171  42.028   1.381
 2143W        W63597   1.970  34.910   0.770
 2144W        W63598  21.549  15.188  12.957
 2145W        W63599   1.947  18.134  10.521
 2146W        W63600   4.216  17.220   0.941
 2147W        W63601  27.625   0.807   3.692
 2148W        W63602  24.623  37.569  12.562
 2149W        W63603   6.903   6.210   2.323
 2150W        W63604  38.055   2.746   4.280
 2151W        W63605  29.566  23.680  13.976
 2152W        W63606  29.567  10.368   0.772
 2153W        W63607  20.222   6.881  13.878
 2154W        W63608  30.555  30.964   0.942
 2155W        W63609   9.690  39.968  14.515
 2156W        W63610   9.777  18.734  13.873
 2157W        W63611   9.803  44.292  12.002
 2158W        W63612  10.737  44.438  11.881
 2159W        W63613  14.109  18.159   3.282
 2160W        W63614   9.768  35.566   3.814
 2161W        W63615  31.528   6.728   2.381
 2162W        W63616   6.401  41.962   0.438
 2163W        W63617  40.880  23.662  14.390
 2164W        W63618  22.143  37.030  11.057
 2165W        W63619  31.514  37.354  12.519
 2166W        W63620  41.828   2.788   2.875
 2167W        W63621  12.322  13.305  12.845
 2168W        W63622  24.605   8.396  13.484
 2169W        W63623  21.668  28.186   0.453
 2170W        W63624  20.060  14.700  10.983
 2171W        W63625  11.249  43.326   0.958
 2172W        W63626   0.782  44.431   1.929
 2173W        W63627   9.189  20.568   5.623
 2174W        W63628  13.163  13.804  13.534
 2175W        W63629  38.553  38.490   0.928
 2176W        W63630  37.033  25.137  13.464
 2177W        W63631  36.463   7.759   0.282
 2178W        W63632  41.932   0.829   4.726
 2179W        W63633  34.420  18.107  11.971
 2180W        W63634  28.486  18.791  14.868
 2181W        W63635   2.257  38.420   4.135
 2182W        W63636  20.055  24.048  10.966
 2183W        W63637   8.853   1.424   2.878
 2184W        W63638  14.767  34.961  11.893
 2185W        W63639  11.274   4.739  12.573
 2186W        W63640  38.880  30.550  12.024
 2187W        W63641  20.186  40.983   2.779
 2188W        W63642  44.848   4.249   1.224
 2189W        W63643  25.154  33.089   3.793
 2190W        W63644  23.078   5.376  12.533
 2191W        W63645   5.235  22.190  12.957
 2192W        W63646   8.849  26.640  13.492
 2193W        W63647  39.399  36.405  11.905
 2194W        W63648  39.932  37.402  14.282
 2195W        W63649  31.477  17.184   1.292
 2196W        W63650  39.880  13.159   0.417
 2197W        W63651  16.667  33.885   3.668
 2198W        W63652  32.912  18.102  13.462
 2199W        W63653  32.983   0.483  12.995
 2200W        W63654  44.757  10.212  14.788
 2201W        W63655   3.805  25.684   0.892
 2202W        W63656  10.337  24.008   0.304
 2203W        W63657  11.230  24.630  14.441
 2204W        W63658  44.975  18.135   2.205
 2205W        W63659   5.733  41.296  12.096
 2206W        W63660  25.156  10.770   2.408
 2207W        W63661  39.455  34.442   0.439
 2208W        W63662  29.523  43.466   4.686
 2209W        W63663  30.452  32.454   4.706
 2210W        W63664   2.408  37.865  13.861
 2211W        W63665   7.395   8.668  11.540
 2212W        W63666  33.039   7.711  13.476
 2213W        W63667  21.736  25.691   0.861
 2214W        W63668  36.994  22.573  11.378
 2215W        W63669  13.724  38.434   0.431
 2216W        W63670  39.848   3.285  14.421
 2217W        W63671   0.792  18.611  14.457
 2218W        W63672  29.092  36.078   2.241
 2219W        W63673  30.990   8.795   9.920
 2220W        W63674  27.156  18.208   3.277
 2221W        W63675  21.530  21.081  14.307
 2222W        W63676  30.142  22.676   1.424
 2223W        W63677  18.668  13.761   2.287
 2224W        W63678  27.598  41.821  10.939
 2225W        W63679   5.768   4.701   4.289
 2226W        W63680   7.228  23.640   3.265
 2227W        W63681   2.817   4.407  11.380
 2228W        W63682  32.587  44.776  12.490
 2229W        W63683  15.713  20.753  13.819
 2230W        W63684  31.426   1.401  13.332
 2231W        W63685  43.797  35.449  13.457
 2232W        W63686  40.888   8.758  13.001
 2233W        W63687  29.465  19.236  14.390
 2234W        W63688  27.672  13.611   1.409
 2235W        W63689  13.610  25.530   1.399
 2236W        W63690   2.852  17.622  12.069
 2237W        W63691  10.691  10.784  13.311
 2238W        W63692  34.948  21.250  13.490
 2239W        W63693   8.742  10.261  14.515
 2240W        W63694  21.035  30.009  13.055
 2241W        W63695  29.950  37.022   3.255
 2242W        W63696  18.154  19.139  13.525
 2243W        W63697  37.931  15.744   5.190
 2244W        W63698  40.905  25.967  14.937
 2245W        W63699  30.156  11.793  14.499
 2246W        W63700  23.077  33.964   4.204
 2247W        W63701  15.210  35.979  10.473
 2248W        W63702  29.540  40.545   2.309
 2249W        W63703  25.065  16.140   2.865
 2250W        W63704  21.097  34.389  14.381
 2251W        W63705   9.270  18.053   2.339
 2252W        W63706  27.638  22.659  11.455
 2253W        W63707   6.339  11.214   4.755
 2254W        W63708  33.406  11.259  12.541
 2255W        W63709  44.989   9.652  13.483
 2256W        W63710  44.373   8.785  10.633
 2257W        W63711  14.610  33.083   2.314
 2258W        W63712  32.424  25.530   1.243
 2259W        W63713  36.065  27.132  12.887
 2260W        W63714  43.994  12.274   1.239
 2261W        W63715   7.300  29.465  13.503
 2262W        W63716  39.379  23.184  14.505
 2263W        W63717  31.996  44.401   4.337
 2264W        W63718  32.097  27.659  14.488
 2265W        W63719  40.403  28.057   2.316
 2266W        W63720  12.828   5.201   2.363
 2267W        W63721   8.806  40.319   3.658
 2268W        W63722  18.207  24.992   3.681
 2269W        W63723   1.300  36.065   3.354
 2270W        W63724  29.097  24.598  14.774
 2271W        W63725   6.777   6.807   1.211
 2272W        W63726  34.922   1.901   0.342
 2273W        W63727  29.036  21.184   4.800
 2274W        W63728   8.696  32.948  14.283
 2275W        W63729  41.476  28.037   1.451
 2276W        W63730  32.032  34.939  13.005
 2277W        W63731  25.995   3.770  14.847
 2278W        W63732  32.082   3.840   5.096
 2279W        W63733  15.310  37.046   2.267
 2280W        W63734  31.414  26.189  12.855
 2281W        W63735  40.992  34.917   2.662
 2282W        W63736  30.991   9.734   9.437
 2283W        W63737  38.394  25.702  13.934
 2284W        W63738  19.688   3.943  11.087
 2285W        W63739  20.155   3.282   4.134
 2286W        W63740  21.210  14.335  10.431
 2287W        W63741  31.519  19.096   3.329
 2288W        W63742  13.330  22.238  11.939
 2289W        W63743  28.076  40.449  11.561
 2290W        W63744   5.313  16.596   0.348
 2291W        W63745  19.108  40.409  13.444
 2292W        W63746  17.786  37.407  12.898
 2293W        W63747  44.436  41.489   0.804
 2294W        W63748  44.986  38.459   1.322
 2295W        W63749  19.155  10.714   9.573
 2296W        W63750   4.846  34.949  13.458
 2297W        W63751  31.412  44.912   2.684
 2298W        W63752  25.993   4.808  14.471
 2299W        W63753  16.113   4.851  12.922
 2300W        W63754  16.566  39.848  12.047
 2301W        W63755  29.134  28.112   0.939
 2302W        W63756  12.717  13.705   2.664
 2303W        W63757  13.276  38.463  12.522
 2304W        W63758  24.514   4.721  14.427
 2305W        W63759  28.175   1.958   4.296
 2306W        W63760  22.235  39.377   0.746
 2307W        W63761  17.756   9.887  12.501
 2308W        W63762  35.532  21.193  12.896
 2309W        W63763   0.789  14.160  14.854
 2310W        W63764  27.944   5.802  12.050
 2311W        W63765  30.015  32.077  10.547
 2312W        W63766  33.025   2.401  12.506
 2313W        W63767  12.140  30.990  11.482
 2314W        W63768  27.000  14.727   1.369
 2315W        W63769  18.703  30.455  11.547
 2316W        W63770  20.074  21.675   2.812
 2317W        W63771   2.288  41.808   1.827
 2318W        W63772  26.688  25.977  12.930
 2319W        W63773  15.214  41.484   3.360
 2320W        W63774  22.735  43.321  11.072
 2321W        W63775  43.447  12.724   9.993
 2322W        W63776   3.787  42.287   4.227
 2323W        W63777  36.929  41.350   0.819
 2324W        W63778  32.432   7.745   3.664
 2325W        W63779  36.042   0.797  14.290
 2326W        W63780  23.045  29.622   4.750
 2327W        W63781  30.163  16.746  10.630
 2328W        W63782  32.522  23.140  13.006
 2329W        W63783  25.532  40.466  12.344
 2330W        W63784   1.851  33.111  11.931
 2331W        W63785  21.518  20.131  13.334
 2332W        W63786   7.893  41.349  10.473
 2333W        W63787   2.447  40.819   3.743
 2334W        W63788  17.632  18.120   1.899
 2335W        W63789  39.958  28.628  11.091
 2336W        W63790  37.487   8.793  11.962
 2337W        W63791  22.518  43.822  11.094
 2338W        W63792  10.841  26.580  12.833
 2339W        W63793  10.378  20.582  13.356
 2340W        W63794  13.697  27.652  13.335
 2341W        W63795  33.404  22.084   4.739
 2342W        W63796  16.258  44.832   1.729
 2343W        W63797   0.350  24.142   2.235
 2344W        W63798  37.040  38.910  14.348
 2345W        W63799  39.852  16.632   3.661
 2346W        W63800   2.299  34.428  12.522
 2347W        W63801  33.437  19.662  11.946
 2348W        W63802  17.661  21.751  11.426
 2349W        W63803   5.891  21.709   4.782
 2350W        W63804  20.267  14.811  12.454
 2351W        W63805   4.836   4.899   3.778
 2352W        W63806  18.655  27.112  11.008
 2353W        W63807  42.934   2.387   2.273
 2354W        W63808   4.871   0.359   5.201
 2355W        W63809  36.378   1.357   3.727
 2356W        W63810   3.244  27.063   2.322
 2357W        W63811  32.954  25.070  11.374
 2358W        W63812  43.384  44.264   0.838
 2359W        W63813  32.475   3.820   0.757
 2360W        W63814   9.648  11.159   2.894
 2361W        W63815  33.512  36.899  10.912
 2362W        W63816  34.927  21.189   0.811
 2363W        W63817  27.512   3.346  12.041
 2364W        W63818  33.887  36.996   4.202
 2365W        W63819  19.560   6.333  11.605
 2366W        W63820  34.499  12.781  13.038
 2367W        W63821  25.589  10.150   4.605
 2368W        W63822  14.600  16.170  10.598
 2369W        W63823  10.724  12.702   0.352
 2370W        W63824  23.602  38.521   3.739
 2371W        W63825   5.197  34.110   0.864
 2372W        W63826   0.901  41.512   4.647
 2373W        W63827  15.655  34.982   1.390
 2374W        W63828  35.549  42.802   0.276
 2375W        W63829   0.821  39.345  14.497
 2376W        W63830  27.460  11.856  10.541
 2377W        W63831  17.222  14.128  14.836
 2378W        W63832  15.223  26.680   2.295
 2379W        W63833  42.453  23.539   2.845
 2380W        W63834  30.540  33.613  14.306
 2381W        W63835  29.117  23.519   1.442
 2382W        W63836  18.222  34.084  13.963
 2383W        W63837  39.376   8.872   2.223
 2384W        W63838  31.137  32.058   1.864
 2385W        W63839  13.758  32.933  11.439
 2386W        W63840  14.667  31.018   4.745
 2387W        W63841  27.616  18.591  13.392
 2388W        W63842  37.550  41.846   3.670
 2389W        W63843  30.929   7.399  14.016
 2390W        W63844   6.308  34.564  11.581
 2391W        W63845  31.427  28.563   1.715
 2392W        W63846   0.431  10.644   1.372
 2393W        W63847  16.787   4.450   4.612
 2394W        W63848  14.158  39.854   1.855
 2395W        W63849   9.713   6.737   4.129
 2396W        W63850  18.621   8.863  12.013
 2397W        W63851  15.291  23.222  14.420
 2398W        W63852  27.145  31.570  10.599
 2399W        W63853  22.088   6.233  11.576
 2400W        W63854  19.734  30.145  14.437
 2401W        W63855   4.822  22.137  12.020
 2402W        W63856  43.917   7.395  12.833
 2403W        W63857  19.611  10.379   0.449
 2404W        W63858   4.387  20.263   1.258
 2405W        W63859   9.871  13.224  14.814
 2406W        W63860   6.706  22.232   2.761
 2407W        W63861  25.493   7.206   0.392
 2408W        W63862  33.584   9.337  13.527
 2409W        W63863   9.784  21.039  10.541
 2410W        W63864  12.218   6.372  10.888
 2411W        W63865  36.968  44.433  11.903
 2412W        W63866  23.222  39.528  10.465
 2413W        W63867  40.478   6.378  11.484
 2414W        W63868   1.809  26.491   4.237
 2415W        W63869  20.682  12.228  13.873
 2416W        W63870  26.022  44.880  12.406
 2417W        W63871   0.355  26.530   3.172
 2418W        W63872  12.261  18.730  10.932
 2419W        W63873  13.256  12.686   3.187
 2420W        W63874  22.008  37.537  12.515
 2421W        W63875  17.615  14.121   4.613
 2422W        W63876  42.336  41.327   4.322
 2423W        W63877  15.190  38.432   4.226
 2424W        W63878  18.068  20.740   3.806
 2425W        W63879  18.247  31.433  14.023
 2426W        W63880  43.813  25.702  14.030
 2427W        W63881  39.381   5.344   2.770
 2428W        W63882  24.209   1.789   2.180
 2429W        W63883  14.203  15.312   4.177
 2430W        W63884  33.388   5.913   4.741
 2431W        W63885  14.169  39.438  14.426
 2432W        W63886  35.065  33.932  10.894
 2433W        W63887  13.320  19.161   3.709
 2434W        W63888  43.419   7.339  12.516
 2435W        W63889  14.256  28.054  11.489
 2436W        W63890  18.723  29.630   2.701
 2437W        W63891  38.458   6.920   1.381
 2438W        W63892  40.801  11.198   3.631
 2439W        W63893   5.325   2.418   2.419
 2440W        W63894   4.779  33.499  11.551
 2441W        W63895  41.848  21.630  13.479
 2442W        W63896  26.463  20.034   1.224
 2443W        W63897  44.930  19.210   2.374
 2444W        W63898  25.659   7.371   3.633
 2445W        W63899  34.500   9.191   2.798
 2446W        W63900   3.248  16.637  10.610
 2447W        W63901  40.337   9.855   2.714
 2448W        W63902  33.948  34.468   0.846
 2449W        W63903   5.223  34.998  13.381
 2450W        W63904  33.989   2.746   1.835
 2451W        W63905  43.278  44.996  10.455
 2452W        W63906  16.688  31.428  11.864
 2453W        W63907   5.749  33.980   1.902
 2454W        W63908  35.060   6.890   0.752
 2455W        W63909  34.928  38.380   4.668
 2456W        W63910  11.293   8.232  12.417
 2457W        W63911   8.277  34.531  13.347
 2458W        W63912  14.777  17.106   4.624
 2459W        W63913  30.090   1.319  12.028
 2460W        W63914   9.249  10.380  11.537
 2461W        W63915   6.755  33.411  13.882
 2462W        W63916  16.673   1.421  12.831
 2463W        W63917  27.138  13.667   1.764
 2464W        W63918  39.503  44.856  12.996
 2465W        W63919   7.737  16.595  13.802
 2466W        W63920  14.707  37.572   0.427
 2467W        W63921  22.567  30.976  14.904
 2468W        W63922   8.705  35.576  11.013
 2469W        W63923  31.989  20.584  14.787
 2470W        W63924  13.760  28.147  12.409
 2471W        W63925   3.232   3.227   3.216
 2472W        W63926   6.272  37.914   2.890
 2473W        W63927   7.331  13.683   0.803
 2474W        W63928  24.653  38.032   4.275
 2475W        W63929  19.138   7.187   3.867
 2476W        W63930  28.624  33.613  14.397
 2477W        W63931  29.094  27.983  13.538
 2478W        W63932  14.226  35.443  10.899
 2479W        W63933   1.476  14.295  14.900
 2480W        W63934  26.088  29.963   4.822
 2481W        W63935   2.364  34.582   1.698
 2482W        W63936   5.924  36.381   1.250
 2483W        W63937  32.636  13.698  12.521
 2484W        W63938  41.931  22.653   5.098
 2485W        W63939   8.801  16.097   0.747
 2486W        W63940  44.916  12.747   2.337
 2487W        W63941   7.388   9.714   4.293
 2488W        W63942  13.841  40.378  13.922
 2489W        W63943   5.868  12.691  13.029
 2490W        W63944  13.696  10.845  10.468
 2491W        W63945  33.396   4.914   9.965
 2492W        W63946  24.647   3.930   3.256
 2493W        W63947  11.845  34.380   4.617
 2494W        W63948  42.008  30.620   1.751
 2495W        W63949   2.725  15.810  11.974
 2496W        W63950  43.342  38.424   2.281
 2497W        W63951  28.146  28.634   3.223
 2498W        W63952  30.939  18.226   9.957
 2499W        W63953   4.280  36.403   0.791
 2500W        W63954   6.747  21.150  14.999
 2501W        W63955  44.429   2.740   3.870
 2502W        W63956  20.524  26.699  12.520
 2503W        W63957  19.546  25.637  14.992
 2504W        W63958  17.143  25.207  12.951
 2505W        W63959   5.777  16.265   3.858
 2506W        W63960  11.702   3.718   1.803
 2507W        W63961  35.081  28.632  12.421
 2508W        W63962  23.550   4.914  12.546
 2509W        W63963  15.605  30.641   3.792
 2510W        W63964  42.982  23.204   3.799
 2511W        W63965  35.066  12.691  12.989
 2512W        W63966  44.304   6.770  13.848
 2513W        W63967   9.803  42.484  12.418
 2514W        W63968  40.350  12.802   1.888
 2515W        W63969  14.815  13.713   3.737
 2516W        W63970   8.251  37.878  12.843
 2517W        W63971  28.029  32.563  11.985
 2518W        W63972  29.508  23.140   0.294
 2519W        W63973   6.184  39.385   0.856
 2520W        W63974   5.282  12.223  14.899
 2521W        W63975  42.976  19.269  13.400
 2522W        W63976   1.394  24.189  12.549
 2523W        W63977  39.544  18.778   4.331
 2524W        W63978  41.458   7.899  14.771
 2525W        W63979  34.480  33.096   1.225
 2526W        W63980   4.267  40.447  10.899
 2527W        W63981  33.562   7.337   0.366
 2528W        W63982  16.301  43.337  11.098
 2529W        W63983  18.114  14.699   1.425
 2530W        W63984   8.768  31.106   3.795
 2531W        W63985  22.059  39.424   2.252
 2532W        W63986   8.864  24.988   2.768
 2533W        W63987  22.172  42.375  14.358
 2534W        W63988  13.135  28.994   2.846
 2535W        W63989  21.074  28.489   4.181
 2536W        W63990  29.954  20.566   1.251
 2537W        W63991  11.726  17.594  12.860
 2538W        W63992   6.262  17.221  14.015
 2539W        W63993  31.585   2.469  10.549
 2540W        W63994  39.360  43.959  14.773
 2541W        W63995  11.688  11.641  14.946
 2542W        W63996  29.645  18.266   0.732
 2543W        W63997   7.357  33.931   1.415
 2544W        W63998  34.560  26.486  13.801
 2545W        W63999   9.236  37.857   4.760
 2546W        W64000  39.951  35.574  11.907
 2547W        W64001  35.457  27.128   4.316
 2548W        W64002   7.743  42.525  14.400
 2549W        W64003  23.611  34.471   1.221
 2550W        W64004   8.164   8.258  14.973
 2551W        W64005  34.574   0.360  12.075
 2552W        W64006  17.576  13.226  14.995
 2553W        W64007  44.471  27.567   9.999
 2554W        W64008  33.401  31.445  13.342
 2555W        W64009  36.878  22.564  12.041
 2556W        W64010   9.886  30.006   3.838
 2557W        W64011  19.073   5.694   1.762
 2558W        W64012  19.725   4.905   4.326
 2559W        W64013  10.356  43.015  12.981
 2560W        W64014  41.439  17.774  14.852
 2561W        W64015  41.920  36.853  14.013
 2562W        W64016  28.176  17.774  12.920
 2563W        W64017  34.495  25.644   3.655
 2564W        W64018  41.902  22.065   1.429
 2565W        W64019  28.979  44.410   3.716
 2566W        W64020   6.290  40.867   3.651
 2567W        W64021  29.998  34.408   1.224
 2568W        W64022  12.255  11.251   3.737
 2569W        W64023  27.974  21.524   2.215
 2570W        W64024  18.641  25.513  11.376
 2571W        W64025  12.715  12.623  14.811
 2572W        W64026  12.307   5.379  14.439
 2573W        W64027  42.880  18.055  14.962
 2574W        W64028  40.990  14.160  12.412
 2575W        W64029  13.784   4.797   2.806
 2576W        W64030  16.270  27.591   1.926
 2577W        W64031   9.375   0.480   4.295
 2578W        W64032  14.811   8.752   1.412
 2579W        W64033  42.313  10.287  10.483
 2580W        W64034  26.594  17.670   2.831
 2581W        W64035  42.310  20.550   1.349
 2582W        W64036  40.033  31.100   1.392
 2583W        W64037   4.244   2.466   2.195
 2584W        W64038   1.888  17.106  13.990
 2585W        W64039  33.880  10.863   5.109
 2586W        W64040  20.266  37.556   4.316
 2587W        W64041  19.744  32.048  11.060
 2588W        W64042  38.508  10.729  11.523
 2589W        W64043  31.627  35.105   2.776
 2590W        W64044  12.844  16.577   2.803
 2591W        W64045  37.904  37.581  13.509
 2592W        W64046   0.435  24.104   0.789
 2593W        W64047  10.264  13.148   0.378
 2594W        W64048  31.928  27.189  14.979
 2595W        W64049  16.110  10.371   1.751
 2596W        W64050  34.371  40.027  13.337
 2597W        W64051  38.050  34.528  12.534
 2598W        W64052  43.826  39.991   2.869
 2599W        W64053  24.532   6.194  11.899
 2600W        W64054   2.807   9.211  12.572
 2601W        W64055  25.962  43.869  12.523
 2602W        W64056  26.088  23.564   0.912
 2603W        W64057  18.233   3.932   0.933
 2604W        W64058  17.240  42.943  10.584
 2605W        W64059  23.003  32.990  11.533
 2606W        W64060   8.278  13.710   0.284
 2607W        W64061  42.007  33.427   2.191
 2608W        W64062  27.006  42.940  10.922
 2609W        W64063   1.926  11.267  14.458
 2610W        W64064  13.198  21.048  11.524
 2611W        W64065   9.245  29.430   5.224
 2612W        W64066  39.888  31.543  14.791
 2613W        W64067  19.158  35.009  14.765
 2614W        W64068  27.978  43.991  12.009
 2615W        W64069  38.950  27.049  13.858
 2616W        W64070  23.183  14.305   0.806
 2617W        W64071  33.533  28.988  11.912
 2618W        W64072  15.205   3.726   4.765
 2619W        W64073   4.935  44.885  12.551
 2620W        W64074  44.274  11.861   2.718
 2621W        W64075  31.639  22.745   0.337
 2622W        W64076  22.546   6.689  14.870
 2623W        W64077  39.012  44.415   5.137
 2624W        W64078  13.835  19.238  12.424
 2625W        W64079  37.574  33.620  10.949
 2626W        W64080   5.317  30.436   0.940
 2627W        W64081   5.329   7.722   2.354
 2628W        W64082  29.012  31.940   2.835
 2629W        W64083   3.808   9.723   1.384
 2630W        W64084  16.781  17.161  10.991
 2631W        W64085   2.327  26.681   0.312
 2632W        W64086  26.610  14.611  14.802
 2633W        W64087  11.783  22.996  13.331
 2634W        W64088  30.948  18.711   2.290
 2635W        W64089   3.235  25.682  11.089
 2636W        W64090   3.856   4.744   0.966
 2637W        W64091  26.531  22.135   3.698
 2638W        W64092  18.143  38.962   4.731
 2639W        W64093   8.708  16.300  13.063
 2640W        W64094  37.074  40.351  13.928
 2641W        W64095  41.020   5.203  10.423
 2642W        W64096  42.890  44.276  10.046
 2643W        W64097  39.966  18.148   0.457
 2644W        W64098  37.006  28.155  13.985
 2645W        W64099   6.218  26.527   5.291
 2646W        W64100  36.545  24.511   4.163
 2647W        W64101  30.047  38.435   4.659
 2648W        W64102  23.195  33.397  10.607
 2649W        W64103  27.055  10.787  10.955
 2650W        W64104   7.212  41.028   1.424
 2651W        W64105  41.907  23.044   4.621
 2652W        W64106  26.076   8.339  13.019
 2653W        W64107   1.442  18.662  10.478
 2654W        W64108  12.756   6.833   2.802
 2655W        W64109   9.879  16.568  11.106
 2656W        W64110  39.955   8.161  11.388
 2657W        W64111  22.179  32.978  11.424
 2658W        W64112   6.365  22.558   1.835
 2659W        W64113  34.594  43.516  13.360
 2660W        W64114   0.913  19.612   0.461
 2661W        W64115  33.113  14.795  11.102
 2662W        W64116   8.766   5.907   1.343
 2663W        W64117  24.593  29.032   4.207
 2664W        W64118  28.493  25.604   4.342
 2665W        W64119   0.835  31.968   5.151
 2666W        W64120   9.805  15.723   1.307
 2667W        W64121  13.822  19.114   1.286
 2668W        W64122  31.075  24.695   9.959
 2669W        W64123  27.684   5.302  13.959
 2670W        W64124  12.358  22.511  14.838
 2671W        W64125  25.205   7.278  10.105
 2672W        W64126  33.062  16.644   1.842
 2673W        W64127  36.994  41.909  11.013
 2674W        W64128  10.196   4.752  11.864
 2675W        W64129  23.621  29.532  14.967
 2676W        W64130  26.112   9.826  11.587
 2677W        W64131   9.193  23.493  10.990
 2678W        W64132   4.352  38.361  11.506
 2679W        W64133  31.624  11.663   0.349
 2680W        W64134   5.397  37.350  14.785
 2681W        W64135  41.413  41.919  14.851
 2682W        W64136  44.428   5.844  12.544
 2683W        W64137  38.007   5.922  14.814
 2684W        W64138   5.912  16.682  10.581
 2685W        W64139  11.169  16.749   4.608
 2686W        W64140  11.153   0.403  13.373
 2687W        W64141  31.594  16.751  11.002
 2688W        W64142   9.369   0.852  11.408
 2689W        W64143  22.020   7.715  10.933
 2690W        W64144  28.094  43.506  13.871
 2691W        W64145   1.262  11.651  13.026
 2692W        W64146  39.486  25.543  12.572
 2693W        W64147  42.917  19.723  11.858
 2694W        W64148  44.370   1.401  14.465
 2695W        W64149  19.226  16.710   2.854
 2696W        W64150   0.413  20.245  13.502
 2697W        W64151  19.670  11.309  13.903
 2698W        W64152  34.873  25.518  14.301
 2699W        W64153  16.253  39.377   9.479
 2700W        W64154  10.349  26.176   0.369
 2701W        W64155  27.966   2.947   4.290
 2702W        W64156  35.604   0.311  11.127
 2703W        W64157  37.003  40.870   2.771
 2704W        W64158   1.391  33.577   1.747
 2705W        W64159  27.537  27.547   3.853
 2706W        W64160   9.240  18.239   1.284
 2707W        W64161  21.625  11.789   4.286
 2708W        W64162  25.985  28.065  12.963
 2709W        W64163   8.837   3.433   1.450
 2710W        W64164  41.490   4.238  12.445
 2711W        W64165  30.980  36.385  14.955
 2712W        W64166  11.134  40.471  12.943
 2713W        W64167  10.329  17.802  14.408
 2714W        W64168  18.272  25.184  14.406
 2715W        W64169  25.087   0.751   0.443
 2716W        W64170  42.000  40.984   1.926
 2717W        W64171  18.211  36.845   2.778
 2718W        W64172  35.018  19.043   0.807
 2719W        W64173  13.639  37.881  14.932
 2720W        W64174  28.004  14.146   4.166
 2721W        W64175  41.525  36.543  14.959
 2722W        W64176  32.451  33.482  12.092
 2723W        W64177  31.964  42.931   4.791
 2724W        W64178   3.792  24.162  13.014
 2725W        W64179  30.611  39.382  11.869
 2726W        W64180  15.583   9.286  11.528
 2727W        W64181  24.626  14.331  12.011
 2728W        W64182  19.045  36.846  14.901
 2729W        W64183  12.664  28.457  12.418
 2730W        W64184  11.664  26.040  13.454
 2731W        W64185   3.277  32.001   3.864
 2732W        W64186  13.754   5.841   2.333
 2733W        W64187  32.546  25.690  10.925
 2734W        W64188  30.415   6.217  11.977
 2735W        W64189  28.166  27.618  13.421
 2736W        W64190  38.455  15.285   2.733
 2737W        W64191  28.012  25.490  14.014
 2738W        W64192  19.108   2.463   0.327
 2739W        W64193  18.602   9.822   1.236
 2740W        W64194   9.178  26.984  12.459
 2741W        W64195  23.592  17.567  14.889
 2742W        W64196  24.667   7.390   3.270
 2743W        W64197  28.026   7.898  10.498
 2744W        W64198  28.958  25.583  14.881
 2745W        W64199   5.206  15.752   4.780
 2746W        W64200  14.743   6.738   0.375
 2747W        W64201  10.851  15.158   2.891
 2748W        W64202  15.606  20.205   4.129
 2749W        W64203  16.706  11.262  12.497
 2750W        W64204  28.587  29.151   0.326
 2751W        W64205  16.213  24.158   3.793
 2752W        W64206   1.374  10.816  13.796
 2753W        W64207  44.405  29.098   3.699
 2754W        W64208  14.615  18.636   1.839
 2755W        W64209  11.696   8.734  12.959
 2756W        W64210  14.772   6.808   0.838
 2757W        W64211  14.815  17.263  12.955
 2758W        W64212  16.767  32.127  12.854
 2759W        W64213  39.482   4.279  14.768
 2760W        W64214  21.073  24.133  10.569
 2761W        W64215  32.973  11.759  12.568
 2762W        W64216  16.135  14.716  10.993
 2763W        W64217  41.430  27.190   0.410
 2764W        W64218   9.182  33.964  14.360
 2765W        W64219  24.230  15.728   1.811
 2766W        W64220   3.295  31.504   2.768
 2767W        W64221  18.777   3.456   0.348
 2768W        W64222  23.148  23.542  13.832
 2769W        W64223  31.474  21.182  12.511
 2770W        W64224   6.361   5.802  12.844
 2771W        W64225  41.807   3.333   0.277
 2772W        W64226  23.210  34.399  12.432
 2773W        W64227   5.206  19.732  14.989
 2774W        W64228  38.347  10.191  12.917
 2775W        W64229  10.817  11.173  11.076
 2776W        W64230  32.550  29.988  10.593
 2777W        W64231  26.951  21.254  13.919
 2778W        W64232  28.525  43.394   4.334
 2779W        W64233  21.641  36.933  14.335
 2780W        W64234  17.709  24.584  14.317
 2781W        W64235  43.783  36.588  12.936
 2782W        W64236  42.887  10.182  11.383
 2783W        W64237  33.996  29.115   0.831
 2784W        W64238  14.281  37.921  11.523
 2785W        W64239  39.928  16.586  11.036
 2786W        W64240   2.734  33.547   2.367
 2787W        W64241  41.301  11.809  13.846
 2788W        W64242  41.482  12.174   1.742
 2789W        W64243   6.346  43.826   3.259
 2790W        W64244  40.935  29.480  12.002
 2791W        W64245  14.097  28.460  10.987
 2792W        W64246  43.478  15.714   1.748
 2793W        W64247   0.406  25.116   3.332
 2794W        W64248   8.369  20.717   0.328
 2795W        W64249   6.715  32.549   0.398
 2796W        W64250  30.908   9.248  12.428
 2797W        W64251  34.609  20.747   1.287
 2798W        W64252   9.738  43.371   0.453
 2799W        W64253  17.170  20.622  14.423
 2800W        W64254  19.258  43.987  10.536
 2801W        W64255  26.615   2.444  12.029
 2802W        W64256  28.508   7.876  13.002
 2803W        W64257  25.686  17.136  11.394
 2804W        W64258   5.363  32.412   0.750
 2805W        W64259   8.164  41.393  12.035
 2806W        W64260  21.698  39.498  11.127
 2807W        W64261  15.172  20.630   4.618
 2808W        W64262   1.740  28.555   0.272
 2809W        W64263  20.597   3.848  10.513
 2810W        W64264  24.560   9.683  12.905
 2811W        W64265  28.601  25.555  12.926
 2812W        W64266  12.360  14.745  11.107
 2813W        W64267  12.290  22.507  10.072
 2814W        W64268  44.283  13.670   1.809
 2815W        W64269  24.980  34.922   3.630
 2816W        W64270  20.059  17.753   1.349
 2817W        W64271  32.531  25.156   1.313
 2818W        W64272  44.923  28.178   0.862
 2819W        W64273   4.252  34.378  12.400
 2820W        W64274  31.422  44.370  13.529
 2821W        W64275  36.471  40.494   2.864
 2822W        W64276  18.699  35.069  14.468
 2823W        W64277  39.973  22.509   4.196
 2824W        W64278  36.502   7.768   3.211
 2825W        W64279  12.311  17.179  12.059
 2826W        W64280  26.601  44.412   4.629
 2827W        W64281   0.275   0.463   3.700
 2828W        W64282  38.871   0.786  12.065
 2829W        W64283  30.026  20.234   1.353
 2830W        W64284  38.954  33.394   4.171
 2831W        W64285  35.545  14.735  11.449
 2832W        W64286  20.081  21.172   4.128
 2833W        W64287   2.880  11.822  10.421
 2834W        W64288  36.976  11.248  14.373
 2835W        W64289  30.913  42.899   4.292
 2836W        W64290  43.851  22.540  11.399
 2837W        W64291  18.603  34.378   2.324
 2838W        W64292   9.188  32.471  13.025
 2839W        W64293  18.765  33.532   3.803
 2840W        W64294  30.547  24.106   1.934
 2841W        W64295   3.903  26.102  10.936
 2842W        W64296  29.963  18.714   3.164
 2843W        W64297  27.603   3.864   2.718
 2844W        W64298   5.268   2.371  13.827
 2845W        W64299  32.108  26.497   2.763
 2846W        W64300  19.546  42.942   0.868
 2847W        W64301  17.557   2.835  13.040
 2848W        W64302   8.808  28.636   2.717
 2849W        W64303  40.303  13.742  12.903
 2850W        W64304  33.970  27.141  10.537
 2851W        W64305  18.781  10.312   0.345
 2852W        W64306  22.542  14.767   2.293
 2853W        W64307  26.153   6.884  12.508
 2854W        W64308   9.831  44.370  10.555
 2855W        W64309  35.364  41.474  10.149
 2856W        W64310  36.350   1.777  11.495
 2857W        W64311   8.881  41.523  11.517
 2858W        W64312   4.806  23.623  12.531
 2859W        W64313  30.907   4.325   4.159
 2860W        W64314  28.023  18.772   4.765
 2861W        W64315  12.137  38.378  10.900
 2862W        W64316  27.614  18.686   4.765
 2863W        W64317  34.513  14.619   1.231
 2864W        W64318   5.924   2.289   1.293
 2865W        W64319  33.119  42.808  11.058
 2866W        W64320  31.638  15.818  12.494
 2867W        W64321   1.404   8.234  10.556
 2868W        W64322  35.378  38.544   9.930
 2869W        W64323  29.061  16.809   2.803
 2870W        W64324   8.658  13.663  13.845
 2871W        W64325  19.727  23.015   3.865
 2872W        W64326  19.060   0.315   0.421
 2873W        W64327   2.288  43.393   4.239
 2874W        W64328  27.140  38.951  14.841
 2875W        W64329  33.433   7.388   3.811
 2876W        W64330  19.058  36.987   4.824
 2877W        W64331  20.190  11.262  13.811
 2878W        W64332  43.343   7.315  14.803
 2879W        W64333  36.072   8.823   3.311
 2880W        W64334  27.634  37.073  10.473
 2881W        W64335   9.799  23.733  12.850
 2882W        W64336  36.855  42.777  14.991
 2883W        W64337  22.530   9.662   4.711
 2884W        W64338   8.807  34.517   3.691
 2885W        W64339   5.271   3.233  12.866
 2886W        W64340  42.836  30.637  14.969
 2887W        W64341  26.069  21.081   0.408
 2888W        W64342  42.303  36.022   0.935
 2889W        W64343  42.968  32.050   0.753
 2890W        W64344  28.966  37.033   2.179
 2891W        W64345   8.677  41.851  11.444
 2892W        W64346   4.718  27.958  13.025
 2893W        W64347  33.030  30.972  11.506
 2894W        W64348   4.259  17.292  13.458
 2895W        W64349  20.212  10.376  14.345
 2896W        W64350  18.605  17.588   4.195
 2897W        W64351  34.374  35.461   3.193
 2898W        W64352  23.990  31.513   4.805
 2899W        W64353  10.855  16.787  14.411
 2900W        W64354  30.551  20.617  11.042
 2901W        W64355  18.149  25.138   1.308
 2902W        W64356  22.134  14.289   1.781
 2903W        W64357   8.861  37.474   4.291
 2904W        W64358  29.924  10.670   2.898
 2905W        W64359   2.381  31.956  14.974
 2906W        W64360   6.853   0.476   4.738
 2907W        W64361  24.176  29.651   3.166
 2908W        W64362   6.707  26.997   4.224
 2909W        W64363  24.169  37.061   3.858
 2910W        W64364  26.693  15.656  13.388
 2911W        W64365  25.207  32.920   9.529
 2912W        W64366  14.125  44.373   2.701
 2913W        W64367  39.978  14.625  10.627
 2914W        W64368   3.460   0.909   4.293
 2915W        W64369  36.990  39.527  14.843
 2916W        W64370   7.394  34.529  14.299
 2917W        W64371  23.233  44.342  11.925
 2918W        W64372  17.247   1.921  12.062
 2919W        W64373   9.382   7.366   3.838
 2920W        W64374   6.837   5.361   3.781
 2921W        W64375  18.217   1.365   0.850
 2922W        W64376  27.589  35.363  10.064
 2923W        W64377  28.613   8.350  11.945
 2924W        W64378  21.142   1.945   3.248
 2925W        W64379  38.538   1.251   1.310
 2926W        W64380  36.543  41.037   4.322
 2927W        W64381  10.634   6.708  11.911
 2928W        W64382   5.711  29.109  12.343
 2929W        W64383  40.799   3.361  14.403
 2930W        W64384  12.725  42.897  12.478
 2931W        W64385  12.213  34.558   3.277
 2932W        W64386  12.716  34.915  12.019
 2933W        W64387  41.896  43.315  13.459
 2934W        W64388   3.223   5.889  10.616
 2935W        W64389  41.328   9.737  14.298
 2936W        W64390  44.782   2.380   0.840
 2937W        W64391  33.416  26.563   5.107
 2938W        W64392  30.535  30.113   0.340
 2939W        W64393  35.002  33.477   4.178
 2940W        W64394  27.603  15.633   1.313
 2941W        W64395  23.529  12.749   4.142
 2942W        W64396  20.594  20.035   3.748
 2943W        W64397   1.973   2.354  11.068
 2944W        W64398  34.458   5.709  10.626
 2945W        W64399  40.543  40.959   1.434
 2946W        W64400  15.805  15.689   0.802
 2947W        W64401  32.069  40.958  11.381
 2948W        W64402   2.445  33.956  11.096
 2949W        W64403  13.623  30.022  13.418
 2950W        W64404   6.902  26.655   3.208
 2951W        W64405  10.867  35.885  12.007
 2952W        W64406  35.446  22.732  14.825
 2953W        W64407  25.105  43.934   3.260
 2954W        W64408  36.346  32.091  13.836
 2955W        W64409  22.521  38.509   1.806
 2956W        W64410  37.432  28.022  12.573
 2957W        W64411  18.175  32.426  13.365
 2958W        W64412  12.336  39.983  11.383
 2959W        W64413  33.916  27.969   4.675
 2960W        W64414   1.951   8.212  12.493
 2961W        W64415  34.464  15.227   0.881
 2962W        W64416  24.559  12.275  14.275
 2963W        W64417  19.070  22.191   3.666
 2964W        W64418  41.528  40.330   3.655
 2965W        W64419  36.465  26.969  11.903
 2966W        W64420  36.901   7.304   0.317
 2967W        W64421   7.838  34.906  12.052
 2968W        W64422  22.045  13.252   1.751
 2969W        W64423  13.234  31.929  11.012
 2970W        W64424   7.341  18.246   1.302
 2971W        W64425   9.683  39.391  10.621
 2972W        W64426  37.535   2.396   2.828
 2973W        W64427  35.485  23.634  10.477
 2974W        W64428  28.639  20.580  14.776
 2975W        W64429  29.442   4.210  13.988
 2976W        W64430   0.923  22.651   5.253
 2977W        W64431   3.875  36.548   2.778
 2978W        W64432   7.356   3.248   0.271
 2979W        W64433  35.448  26.127   0.356
 2980W        W64434   2.305  42.997   4.745
 2981W        W64435  29.971   4.395   2.795
 2982W        W64436  12.718   1.358   2.900
 2983W        W64437  40.879   9.772  13.966
 2984W        W64438  28.467  36.875   1.870
 2985W        W64439  14.811  11.366   2.381
 2986W        W64440  32.960   6.792   3.255
 2987W        W64441   0.751  18.783  13.442
 2988W        W64442  20.606  31.129   2.891
 2989W        W64443  35.470  22.552  11.922
 2990W        W64444  15.626  14.145   0.779
 2991W        W64445  35.967  23.107  11.894
 2992W        W64446  30.975  28.931   1.421
 2993W        W64447  32.444   9.189  13.468
 2994W        W64448  32.624  17.232  10.914
 2995W        W64449   9.273  43.372  13.999
 2996W        W64450  21.101   0.300   0.873
 2997W        W64451  38.569  44.936   2.701
 2998W        W64452  34.459  15.106  12.394
 2999W        W64453  39.429   3.784  14.350
 3000W        W64454  24.481   1.296   0.449
 3001W        W64455   2.850  26.535  12.905
 3002W        W64456  20.577  31.124  11.906
 3003W        W64457   9.249  16.085   0.907
 3004W        W64458  44.816  31.560   3.266
 3005W        W64459   0.801  37.931   2.866
 3006W        W64460  26.202  11.290  13.397
 3007W        W64461   5.859   2.939  10.600
 3008W        W64462   4.919  18.086  10.442
 3009W        W64463  44.767  37.377  11.129
 3010W        W64464  24.654  16.776   1.867
 3011W        W64465   6.190   1.287  13.904
 3012W        W64466   3.856  22.542   2.824
 3013W        W64467  15.118  34.866   3.332
 3014W        W64468  44.807  10.270  10.497
 3015W        W64469  27.050  37.498   2.778
 3016W        W64470  19.108  23.735  10.481
 3017W        W64471  43.503   5.312  14.425
 3018W        W64472  15.269  34.396   3.288
 3019W        W64473   2.339  22.725  11.449
 3020W        W64474  17.790  14.263  12.079
 3021W        W64475   5.828   9.844   2.680
 3022W        W64476  38.393  37.401   1.268
 3023W        W64477  26.026  28.574   4.623
 3024W        W64478  25.997  24.653  14.509
 3025W        W64479  36.356  34.569   2.739
 3026W        W64480  19.210   0.419  11.886
 3027W        W64481  41.443  42.363  14.894
 3028W        W64482  35.406  44.302   2.417
 3029W        W64483  25.977  24.622  10.514
 3030W        W64484  23.989  30.594   1.229
 3031W        W64485  19.104  29.061   2.673
 3032W        W64486  31.411  16.127   3.664
 3033W        W64487  13.680  19.089  14.771
 3034W        W64488  35.024   9.846   0.446
 3035W        W64489  29.655  10.197   4.314
 3036W        W64490  15.314  37.540   5.306
 3037W        W64491  43.861  20.627  11.403
 3038W        W64492  17.646  35.514   1.363
 3039W        W64493  13.178  21.737  13.920
 3040W        W64494   3.864  15.630   0.944
 3041W        W64495  12.719  24.139  12.072
 3042W        W64496  36.033  12.616  13.347
 3043W        W64497  44.378  23.187  12.920
 3044W        W64498  38.892   2.319   3.713
 3045W        W64499  33.039  27.982  14.765
 3046W        W64500  19.095   7.814   4.705
 3047W        W64501   1.482  37.428   1.746
 3048W        W64502  10.659  15.639   3.383
 3049W        W64503  26.584  31.603  14.029
 3050W        W64504  35.387  14.826   4.149
 3051W        W64505   3.417  33.999   2.400
 3052W        W64506  40.937   7.819  11.074
 3053W        W64507  19.232  20.556   0.414
 3054W        W64508  14.766   7.855  12.968
 3055W        W64509  33.988  38.055  14.777
 3056W        W64510  35.926  29.076   1.742
 3057W        W64511  22.696  34.980   2.895
 3058W        W64512   2.312  19.678   9.996
 3059W        W64513  16.590   0.950  11.874
 3060W        W64514   9.395  40.816   2.896
 3061W        W64515  32.005  21.063   1.424
 3062W        W64516  29.966  18.168   3.257
 3063W        W64517  13.698   3.788  14.314
 3064W        W64518  12.653  40.916   1.422
 3065W        W64519  30.994  36.087   1.239
 3066W        W64520   2.816  27.664  12.078
 3067W        W64521   5.885  24.112   0.312
 3068W        W64522  35.018  10.817   4.270
 3069W        W64523  25.112  31.419  13.409
 3070W        W64524  24.543   1.427  10.536
 3071W        W64525  22.510  44.494  10.618
 3072W        W64526   3.300  31.530   1.821
 3073W        W64527  12.288   5.803  12.924
 3074W        W64528  28.626  27.476   1.405
 3075W        W64529  24.231   6.866  14.924
 3076W        W64530  34.018  19.741   4.750
 3077W        W64531  21.170  37.917  11.052
 3078W        W64532  16.085  29.974  12.855
 3079W        W64533   5.327  34.120   3.214
 3080W        W64534  21.608  26.618   0.305
 3081W        W64535  33.919  39.466  13.493
 3082W        W64536  25.627   9.388   1.755
 3083W        W64537  36.528  31.403   4.298
 3084W        W64538   5.314  14.820   4.761
 3085W        W64539  28.455  34.511  13.965
 3086W        W64540   3.404  28.635  13.982
 3087W        W64541  19.751  28.629   4.777
 3088W        W64542  35.360  26.475  11.488
 3089W        W64543   1.769  34.418   0.323
 3090W        W64544  22.012  17.269  13.342
 3091W        W64545  38.061   6.847  11.385
 3092W        W64546   4.896   4.210   1.243
 3093W        W64547  28.581  32.508   3.268
 3094W        W64548  18.549  25.130   4.252
 3095W        W64549   4.907   3.722   9.932
 3096W        W64550  15.152  38.451  11.972
 3097W        W64551  17.754  39.533   4.658
 3098W        W64552  26.670  43.495  10.910
 3099W        W64553  27.020  25.617  12.346
 3100W        W64554  41.484  17.154  10.469
 3101W        W64555   0.286  31.646   1.752
 3102W        W64556  41.884  32.957  11.114
 3103W        W64557  10.190  34.943   4.760
 3104W        W64558  24.716  35.864   0.432
 3105W        W64559  36.883   4.882   3.857
 3106W        W64560  20.261   9.801  13.487
 3107W        W64561  23.108  17.622   2.363
 3108W        W64562   7.271  31.513  11.591
 3109W        W64563  13.670  26.572  14.485
 3110W        W64564   7.799  37.005  10.511
 3111W        W64565  31.502  14.293   0.816
 3112W        W64566  24.614  33.595  12.001
 3113W        W64567   5.274  11.701  14.353
 3114W        W64568  26.554  32.403   0.901
 3115W        W64569  31.474  44.975  13.982
 3116W        W64570  12.140  16.253  12.944
 3117W        W64571  17.784  32.018  11.481
 3118W        W64572  21.164   5.874  12.873
 3119W        W64573  36.906  19.188   3.347
 3120W        W64574  15.328  40.817   2.777
 3121W        W64575   9.662  34.500   0.361
 3122W        W64576  10.339  14.116  13.522
 3123W        W64577  28.559  14.677   4.332
 3124W        W64578  27.094  15.266   3.352
 3125W        W64579   0.303   6.690  14.861
 3126W        W64580  27.488  25.659  13.867
 3127W        W64581  11.128  23.727  13.394
 3128W        W64582  20.088   1.801   4.351
 3129W        W64583  35.093  23.677  12.994
 3130W        W64584  22.567  23.595  10.921
 3131W        W64585  28.575  42.318  12.375
 3132W        W64586  38.554  23.219   1.753
 3133W        W64587  11.657  13.126  13.911
 3134W        W64588   2.791   5.721   1.700
 3135W        W64589   5.883  44.343   2.812
 3136W        W64590  29.079  10.720   1.255
 3137W        W64591  34.489  40.800   1.892
 3138W        W64592   5.719  11.367   1.226
 3139W        W64593  14.118  32.113  12.479
 3140W        W64594  16.581  35.933  11.080
 3141W        W64595   4.299  26.578   1.287
 3142W        W64596  11.712  36.522   0.868
 3143W        W64597   7.776  38.983   2.707
 3144W        W64598  30.479   1.778   0.891
 3145W        W64599  24.509  24.090   4.140
 3146W        W64600  26.530   8.327   0.457
 3147W        W64601  32.612   7.715   3.174
 3148W        W64602  25.015  44.319   1.934
 3149W        W64603  27.061  19.245  13.984
 3150W        W64604  29.443  38.923   0.464
 3151W        W64605   5.235  32.021  10.502
 3152W        W64606   7.892  42.807  11.084
 3153W        W64607  13.707  25.507   2.851
 3154W        W64608  37.443  22.105  13.379
 3155W        W64609  29.646  21.588   1.848
 3156W        W64610   4.723   6.765  10.934
 3157W        W64611  30.523  12.736   3.772
 3158W        W64612   5.807  38.402   3.337
 3159W        W64613  33.380  20.533  13.861
 3160W        W64614  18.763   9.317   3.732
 3161W        W64615  31.500  19.162   4.818
 3162W        W64616  38.547   3.882  13.392
 3163W        W64617  29.147   2.431  11.558
 3164W        W64618   9.182   8.891  13.957
 3165W        W64619  26.176  35.892   0.339
 3166W        W64620  27.492  17.589  11.880
 3167W        W64621  10.835   6.203   4.252
 3168W        W64622  28.459  32.058  11.996
 3169W        W64623  19.688  38.835   1.840
 3170W        W64624  12.717  40.495   3.206
 3171W        W64625   4.248  29.163  12.931
 3172W        W64626  20.060  40.905  14.410
 3173W        W64627  19.177  39.905   0.893
 3174W        W64628  24.026  23.214  12.466
 3175W        W64629  35.374   1.481   2.223
 3176W        W64630  21.539  17.106   9.923
 3177W        W64631  24.532  13.283   0.482
 3178W        W64632  26.108  29.966  11.965
 3179W        W64633   1.261  10.653   2.687
 3180W        W64634  20.540  36.960   2.695
 3181W        W64635   9.389  34.492  12.963
 3182W        W64636  22.729  17.161   2.770
 3183W        W64637  28.083   8.874   0.782
 3184W        W64638   2.790  41.847   0.921
 3185W        W64639   2.276   2.829  11.053
 3186W        W64640  32.490  40.885   2.394
 3187W        W64641  39.060  36.020  12.453
 3188W        W64642  41.493   5.196   0.827
 3189W        W64643   8.889  12.266   0.467
 3190W        W64644  43.367  13.637   4.214
 3191W        W64645   2.426  33.519  11.080
 3192W        W64646  21.605  20.642   1.840
 3193W        W64647  36.581  16.312   4.701
 3194W        W64648  10.826  14.656   4.705
 3195W        W64649  42.795  18.261  11.011
 3196W        W64650   3.380   0.816   0.850
 3197W        W64651  15.807  24.601  11.543
 3198W        W64652  21.613  21.152   0.393
 3199W        W64653  34.411  23.194   0.888
 3200W        W64654   3.336  17.120  13.515
 3201W        W64655  30.118  30.491   3.840
 3202W        W64656  18.259  26.995   1.410
 3203W        W64657  39.503   9.189  13.902
 3204W        W64658  12.358  37.499   5.189
 3205W        W64659  40.445  25.008  10.511
 3206W        W64660  19.689  31.479  12.519
 3207W        W64661  19.122  11.292   4.766
 3208W        W64662  35.880  37.390  13.915
 3209W        W64663   3.807  20.579   4.762
 3210W        W64664  20.756  42.775  12.519
 3211W        W64665  26.969  21.115  13.355
 3212W        W64666  38.382  30.645   4.613
 3213W        W64667   9.252  30.151  11.514
 3214W        W64668  32.406   5.915   1.254
 3215W        W64669  16.750  25.659   2.335
 3216W        W64670  44.304  32.390  10.433
 3217W        W64671   8.687  30.452  11.914
 3218W        W64672  20.108  32.397  13.954
 3219W        W64673  43.401  35.511   1.929
 3220W        W64674   2.904  14.219   2.782
 3221W        W64675   3.757  15.288   3.371
 3222W        W64676  37.381  32.135   2.679
 3223W        W64677  43.305  37.346   0.450
 3224W        W64678   9.371  25.580   1.249
 3225W        W64679   4.281   3.281   4.706
 3226W        W64680  27.536  16.773   2.728
 3227W        W64681  18.546  11.216  14.007
 3228W        W64682  28.937  39.938   3.757
 3229W        W64683  16.313   7.205  11.470
 3230W        W64684   1.952  26.100  12.392
 3231W        W64685   9.761  15.145   3.354
 3232W        W64686   4.230  30.536   0.747
 3233W        W64687  16.643   2.262   4.605
 3234W        W64688  11.807  41.991  14.852
 3235W        W64689   6.701   1.912  13.868
 3236W        W64690   7.228  22.507   4.174
 3237W        W64691  33.967  42.962   4.754
 3238W        W64692  35.867  36.050  14.916
 3239W        W64693  28.173  41.406  12.543
 3240W        W64694   6.320  18.724   4.332
 3241W        W64695  21.120  38.888  13.032
 3242W        W64696  12.806   9.181   0.952
 3243W        W64697  15.727  14.785   2.202
 3244W        W64698  10.233  16.790   3.638
 3245W        W64699  36.406  23.212   2.707
 3246W        W64700  37.905  14.288   0.479
 3247W        W64701  31.523   5.784   4.288
 3248W        W64702  32.988  20.730  10.895
 3249W        W64703  35.068  30.571  10.930
 3250W        W64704  23.220  12.362   3.207
 3251W        W64705   5.740   0.457  12.475
 3252W        W64706  20.218  12.251  14.983
 3253W        W64707   6.905   3.376  10.487
 3254W        W64708  40.461  27.125  12.522
 3255W        W64709  37.371  35.960   1.364
 3256W        W64710  25.082  34.974  14.288
 3257W        W64711  15.798   6.729   3.222
 3258W        W64712  38.831  19.551  14.850
 3259W        W64713   0.253  40.377  12.044
 3260W        W64714  16.125   2.421   3.767
 3261W        W64715  32.422  23.706  10.429
 3262W        W64716  16.080   8.282  14.767
 3263W        W64717  14.217  14.217  12.443
 3264W        W64718  14.689  25.513   1.419
 3265W        W64719  35.040  44.965   1.356
 3266W        W64720   3.882  42.323  11.881
 3267W        W64721  19.656   6.799   2.367
 3268W        W64722  15.692  34.905  14.957
 3269W        W64723  13.243  24.496   2.377
 3270W        W64724   7.692   0.894  12.470
 3271W        W64725  24.493   1.768  11.031
 3272W        W64726  13.182  31.959   1.362
 3273W        W64727  30.569  27.628  13.045
 3274W        W64728  20.691  24.496   0.365
 3275W        W64729   4.807  19.736  13.875
 3276W        W64730  40.423  42.938   3.155
 3277W        W64731  20.172  17.256   0.825
 3278W        W64732  33.473  25.077   0.861
 3279W        W64733  31.615   8.707  13.942
 3280W        W64734  41.318  34.002   0.418
 3281W        W64735  37.582  22.029   3.682
 3282W        W64736  17.734  29.074  14.477
 3283W        W64737   4.353  34.584  10.447
 3284W        W64738  20.134   6.761  12.005
 3285W        W64739  31.616   5.702  13.930
 3286W        W64740  28.933  10.669  10.968
 3287W        W64741  23.639  22.049   2.388
 3288W        W64742  34.559  38.481  13.432
 3289W        W64743  38.417  26.470   0.274
 3290W        W64744  38.561   0.868  12.517
 3291W        W64745  44.845  19.588  14.489
 3292W        W64746  23.985  35.485  11.423
 3293W        W64747  14.629  28.495  10.550
 3294W        W64748   8.752  19.232   4.182
 3295W        W64749  17.188   5.423   2.364
 3296W        W64750   9.788   9.199   0.885
 3297W        W64751  25.108  19.051   4.800
 3298W        W64752  24.156  40.038   1.446
 3299W        W64753  14.687  35.048  13.814
 3300W        W64754  29.454  42.295   4.335
 3301W        W64755  34.117  12.760  14.863
 3302W        W64756  38.897  17.177  14.013
 3303W        W64757  30.492   3.391  12.082
 3304W        W64758  24.536   5.909   2.322
 3305W        W64759  31.896  43.872   0.456
 3306W        W64760  38.555   9.227   0.471
 3307W        W64761  27.622  31.103  14.495
 3308W        W64762  10.333   8.256  14.893
 3309W        W64763   3.919  11.283  12.563
 3310W        W64764  35.864  10.739   4.265
 3311W        W64765  38.881  16.269  13.823
 3312W        W64766  21.071  14.679   4.143
 3313W        W64767  28.527  40.822   2.406
 3314W        W64768  20.528  44.797   3.250
 3315W        W64769  40.518  17.083  10.637
 3316W        W64770   8.331  30.063   1.745
 3317W        W64771  11.851  31.512  12.992
 3318W        W64772  43.898  24.999  14.779
 3319W        W64773  12.335   1.792  13.034
 3320W        W64774  17.783   3.283  13.351
 3321W        W64775  42.879   9.280   5.223
 3322W        W64776  33.980   5.402  10.526
 3323W        W64777  41.935  39.316   3.358
 3324W        W64778  29.945  36.854  13.848
 3325W        W64779  10.717  35.508  13.987
 3326W        W64780  21.165  13.127   1.403
 3327W        W64781  31.069   2.227   9.480
 3328W        W64782   4.934  18.742  11.922
 3329W        W64783  35.416  33.890   2.768
 3330W        W64784  29.049  24.481   1.215
 3331W        W64785  38.460  40.997   0.883
 3332W        W64786  42.832  24.699  12.526
 3333W        W64787  10.235  13.636  11.417
 3334W        W64788  39.434  33.436  10.417
 3335W        W64789   2.766  32.970   1.701
 3336W        W64790   6.905  23.147   1.924
 3337W        W64791  35.965   3.420   1.367
 3338W        W64792  36.928  26.460   0.348
 3339W        W64793   9.284  17.754  10.502
 3340W        W64794  21.741   0.277  14.868
 3341W        W64795  41.433   0.899   3.818
 3342W        W64796  24.987  37.474  10.939
 3343W        W64797  11.243   0.404   2.187
 3344W        W64798  40.897  30.977   4.715
 3345W        W64799   7.813  16.640   3.249
 3346W        W64800   4.841  31.061   3.245
 3347W        W64801   7.763  10.758   4.342
 3348W        W64802  43.927  10.862   0.939
 3349W        W64803  27.049  20.724   4.142
 3350W        W64804   3.419  25.133  11.028
 3351W        W64805  32.030  18.152   2.700
 3352W        W64806  32.489  34.609  14.333
 3353W        W64807  14.655  43.804   2.739
 3354W        W64808  24.629  28.575  13.846
 3355W        W64809  25.625  17.162  10.552
 3356W        W64810  39.524  18.182   4.656
 3357W        W64811   5.891   3.427  13.366
 3358W        W64812   7.367  39.347  10.968
 3359W        W64813   2.320  29.026   2.402
 3360W        W64814  19.056  31.899  14.307
 3361W        W64815   9.889  42.310  12.026
 3362W        W64816   9.292  24.006  13.022
 3363W        W64817  12.349  35.497   4.655
 3364W        W64818  34.111  28.979  11.035
 3365W        W64819  31.027   4.703   3.156
 3366W        W64820  34.943  31.601   3.838
 3367W        W64821   5.776   3.782  11.429
 3368W        W64822  43.289  39.424  12.036
 3369W        W64823  21.755  24.987  13.380
 3370W        W64824  42.402  20.211  13.798
 3371W        W64825   9.333  33.447   3.761
 3372W        W64826  33.457  10.728   2.205
 3373W        W64827  38.449  24.502  10.499
 3374W        W64828  43.306  19.559   3.774
 3375W        W64829  37.996   5.688   0.279
 3376W        W64830  37.439  39.983   1.253
 3377W        W64831  43.835  22.090   1.725
 3378W        W64832  44.924  23.556   4.791
 3379W        W64833  36.975  25.577   0.878
 3380W        W64834  40.444  41.952  12.869
 3381W        W64835   0.787  44.429  10.907
 3382W        W64836  42.474  25.477  13.388
 3383W        W64837   3.307  44.005  10.901
 3384W        W64838  27.684   0.253  11.521
 3385W        W64839  14.226   6.351   0.943
 3386W        W64840  28.024   1.373  13.944
 3387W        W64841  17.071   1.365  12.885
 3388W        W64842  20.165   4.352  13.346
 3389W        W64843  18.686   6.257  13.987
 3390W        W64844   7.348  37.049  14.994
 3391W        W64845  21.550  27.172   1.905
 3392W        W64846  25.053   7.897   1.800
 3393W        W64847  17.739   2.745   4.138
 3394W        W64848   8.722  10.367   4.296
 3395W        W64849   0.289  23.656  12.355
 3396W        W64850  21.045  35.585  13.358
 3397W        W64851  30.557  34.543  11.070
 3398W        W64852  22.183  27.680  13.543
 3399W        W64853   8.331  41.526   3.731
 3400W        W64854  36.949  13.753   1.297
 3401W        W64855  14.193  36.419   0.431
 3402W        W64856  37.980   7.301  10.615
 3403W        W64857  30.064  20.537  10.901
 3404W        W64858   4.934  25.527   2.236
 3405W        W64859   2.375  15.640  12.014
 3406W        W64860  17.757  14.798   0.901
 3407W        W64861  37.378  19.621  13.489
 3408W        W64862  17.715   8.899   3.154
 3409W        W64863  43.775  12.232   2.188
 3410W        W64864  11.747  44.326   9.992
 3411W        W64865  40.808   6.698  10.408
 3412W        W64866  15.580  36.843   3.631
 3413W        W64867  26.583  27.977   1.418
 3414W        W64868  34.570  40.818   4.762
 3415W        W64869  38.855  42.938  11.892
 3416W        W64870  37.444  28.531   3.828
 3417W        W64871  41.882  16.170  14.471
 3418W        W64872  33.532  34.044   3.665
 3419W        W64873   2.420  40.894  13.040
 3420W        W64874   1.352  33.430   2.329
 3421W        W64875  25.572  18.228  13.526
 3422W        W64876  19.244  30.578  11.488
 3423W        W64877  41.445   0.484  10.603
 3424W        W64878  33.381  35.932  13.828
 3425W        W64879  33.547  39.466   0.480
 3426W        W64880  21.041  18.651  13.005
 3427W        W64881  13.193   5.198   1.818
 3428W        W64882  39.445  36.420   3.809
 3429W        W64883  19.616  18.600  13.452
 3430W        W64884   3.909  21.733  13.402
 3431W        W64885  32.056  22.581   4.286
 3432W        W64886  33.948   9.212  11.371
 3433W        W64887   9.321  15.746  10.626
 3434W        W64888   7.368  22.132  14.438
 3435W        W64889  19.132  15.140  11.544
 3436W        W64890  37.568  24.048  14.452
 3437W        W64891  42.931  34.585  12.464
 3438W        W64892  17.626  20.136   1.899
 3439W        W64893  31.596  14.822   2.240
 3440W        W64894   1.449  24.105  12.900
 3441W        W64895   7.684  19.578  10.431
 3442W        W64896  11.143  38.333   0.815
 3443W        W64897  17.605   8.717   4.725
 3444W        W64898  37.488  39.044   2.246
 3445W        W64899   6.277  26.659   9.974
 3446W        W64900  34.469   2.785  10.616
 3447W        W64901   4.364  17.158  10.429
 3448W        W64902   5.732  25.622   3.746
 3449W        W64903  13.302  17.797   4.824
 3450W        W64904  24.512  18.171  12.524
 3451W        W64905   3.340   5.356  13.427
 3452W        W64906  21.237  23.147  14.765
 3453W        W64907  28.148  25.031  11.998
 3454W        W64908  12.704  30.519   4.138
 3455W        W64909  18.619  29.605   1.348
 3456W        W64910  19.779  44.967  12.529
 3457W        W64911  26.659  30.009   0.284
 3458W        W64912   6.711  31.522  11.431
 3459W        W64913  10.790  40.524   2.220
 3460W        W64914  35.397  16.692   2.759
 3461W        W64915  15.704  33.053   9.931
 3462W        W64916  33.089  23.000   0.368
 3463W        W64917  30.948  34.117  10.996
 3464W        W64918  35.021  19.621  14.848
 3465W        W64919  20.066   9.648   0.871
 3466W        W64920  16.578  35.493  14.982
 3467W        W64921  41.531   5.827   0.305
 3468W        W64922  16.281  19.266  12.562
 3469W        W64923  34.871  14.230  13.451
 3470W        W64924  16.634  11.171   2.794
 3471W        W64925  18.294  18.260   0.942
 3472W        W64926  11.162  32.591  12.824
 3473W        W64927  18.235  16.279   4.252
 3474W        W64928  12.654   8.289   1.813
 3475W        W64929   7.332  22.083   4.651
 3476W        W64930  25.617  34.433   1.930
 3477W        W64931  33.400  38.882   4.177
 3478W        W64932  42.796   9.303   2.714
 3479W        W64933  41.434  29.482  13.536
 3480W        W64934  24.480  36.953  11.950
 3481W        W64935   1.867   1.879   3.324
 3482W        W64936  42.814  17.687   2.275
 3483W        W64937  25.062  26.592   2.303
 3484W        W64938  29.607  22.531   1.382
 3485W        W64939  14.813  39.035  10.492
 3486W        W64940  30.023  15.146   2.376
 3487W        W64941  43.910  30.612   1.838
 3488W        W64942  21.716  26.963  12.398
 3489W        W64943  34.552  11.142   2.272
 3490W        W64944  34.974  11.624   2.844
 3491W        W64945  30.984  40.969  12.004
 3492W        W64946  40.345  11.710  12.823
 3493W        W64947  21.664   2.345  12.053
 3494W        W64948   0.463   9.694   4.350
 3495W        W64949  35.374  30.637  11.858
 3496W        W64950  14.207  33.994  10.924
 3497W        W64951  27.685  25.711   3.351
 3498W        W64952  26.667  33.580   3.644
 3499W        W64953  16.232  16.596  10.980
 3500W        W64954  35.891   9.328  10.924
 3501W        W64955   9.785  43.832  14.297
 3502W        W64956   5.774  37.349   0.463
 3503W        W64957  43.850   5.344   3.709
 3504W        W64958  17.580   9.757   0.865
 3505W        W64959  11.738  29.479  14.298
 3506W        W64960  28.069  30.069   4.185
 3507W        W64961  31.017   8.820  11.125
 3508W        W64962  20.126   1.930  13.390
 3509W        W64963  10.304  19.543  11.464
 3510W        W64964   1.318  30.497   3.764
 3511W        W64965  22.061   1.885   1.777
 3512W        W64966  12.639   8.875   4.286
 3513W        W64967   3.366  43.871   3.675
 3514W        W64968  42.849  29.565  11.928
 3515W        W64969  41.964   6.893  14.975
 3516W        W64970  38.465  33.552   0.367
 3517W        W64971  14.730   7.347   1.364
 3518W        W64972  19.228  29.628   2.745
 3519W        W64973  27.120  42.976  12.530
 3520W        W64974  28.179  44.010  13.046
 3521W        W64975   5.386  43.318  14.988
 3522W        W64976  42.421   1.857  14.984
 3523W        W64977  28.132  26.477   9.952
 3524W        W64978  19.217  42.792  13.993
 3525W        W64979  21.694   9.804   2.329
 3526W        W64980  18.273   9.352  11.491
 3527W        W64981  21.075  23.618  13.826
 3528W        W64982  40.462  39.325   1.240
 3529W        W64983   3.830  15.583   0.403
 3530W        W64984  13.733  12.187  12.511
 3531W        W64985   7.227  37.388  11.912
 3532W        W64986  26.462  29.164   0.959
 3533W        W64987  35.855  21.617   3.382
 3534W        W64988  41.507  12.790   4.123
 3535W        W64989  22.644  28.536   3.717
 3536W        W64990  28.604  25.180   5.732
 3537W        W64991   3.414  26.008  10.411
 3538W        W64992   2.425  35.912  10.596
 3539W        W64993  20.192  35.954   5.280
 3540W        W64994  35.072   1.838  13.855
 3541W        W64995   1.731  23.597  10.947
 3542W        W64996  40.495  13.150  12.512
 3543W        W64997  35.528  44.879  12.541
 3544W        W64998  32.393  42.009  14.391
 3545W        W64999  33.874   3.386  13.893
 3546W        W65000  23.059  37.427  12.823
 3547W        W65001  13.237  24.220   1.714
 3548W        W65002  20.207  43.982   0.382
 3549W        W65003  44.324   0.775   0.426
 3550W        W65004  10.322  27.138  11.612
 3551W        W65005   4.211  38.435  12.087
 3552W        W65006  13.347  25.182   0.799
 3553W        W65007  27.137  34.066  14.023
 3554W        W65008  38.010  30.533  12.976
 3555W        W65009  38.835  44.760   3.705
 3556W        W65010  18.676   4.394   1.861
 3557W        W65011  31.977   9.704  13.423
 3558W        W65012  11.128  41.473   0.317
 3559W        W65013   1.397   1.935   3.274
 3560W        W65014  24.085  19.194   3.284
 3561W        W65015  29.507   4.848   4.609
 3562W        W65016  27.990  27.560  10.594
 3563W        W65017  33.514  16.753   0.803
 3564W        W65018  18.579   4.775  14.995
 3565W        W65019  26.162  15.777   3.789
 3566W        W65020  16.662   6.744   0.462
 3567W        W65021   2.854  28.579  14.823
 3568W        W65022  25.703   4.831   4.334
 3569W        W65023  27.154   0.939  11.581
 3570W        W65024  29.523  43.976  14.294
 3571W        W65025  18.611  31.430   0.261
 3572W        W65026   3.899  38.363   3.638
 3573W        W65027  17.613   0.340   4.321
 3574W        W65028   0.357  32.397   4.194
 3575W        W65029   8.354   3.349   5.187
 3576W        W65030  25.035  12.613   4.232
 3577W        W65031   6.367   1.298  13.491
 3578W        W65032  24.188  19.236   2.299
 3579W        W65033  10.795  15.127  14.983
 3580W        W65034  33.397  37.986   0.945
 3581W        W65035   7.412  27.063  12.571
 3582W        W65036   3.406  28.990  14.918
 3583W        W65037  16.587  12.708  13.859
 3584W        W65038  20.047  22.011   3.711
 3585W        W65039  36.097  19.243   3.252
 3586W        W65040   6.383  32.905   4.808
 3587W        W65041   2.235  17.109  10.618
 3588W        W65042   7.674   1.839   2.370
 3589W        W65043  22.175  14.658  13.897
 3590W        W65044  16.281  16.751   2.802
 3591W        W65045  19.072  13.687  11.082
 3592W        W65046  11.296  25.112  10.498
 3593W        W65047  32.131  32.604   3.161
 3594W        W65048  30.613  40.502   2.662
 3595W        W65049  43.512  30.503  12.564
 3596W        W65050  17.710  44.441   1.925
 3597W        W65051   8.671  39.060  11.116
 3598W        W65052  44.385  10.802   2.851
 3599W        W65053  14.217   8.756   4.216
 3600W        W65054  19.703   1.890  10.150
 3601W        W65055  16.263  41.022  13.872
 3602W        W65056  34.067   0.411   3.770
 3603W        W65057   3.786  29.531   0.331
 3604W        W65058  23.700  21.568   1.872
 3605W        W65059  19.061  26.632  13.448
 3606W        W65060   9.305   5.733  13.811
 3607W        W65061  38.564  10.745  10.483
 3608W        W65062   5.308  38.887   4.163
 3609W        W65063  43.291   9.298  14.276
 3610W        W65064  27.588  17.769   0.332
 3611W        W65065  37.389  28.635   2.353
 3612W        W65066  28.965  22.679  14.903
 3613W        W65067  38.958  13.648  11.910
 3614W        W65068  44.378  16.679   3.206
 3615W        W65069  24.131  21.182  12.962
 3616W        W65070  13.143   8.900  11.005
 3617W        W65071  41.464  17.632   4.608
 3618W        W65072  27.033   2.452  10.091
 3619W        W65073  35.932  40.821  11.916
 3620W        W65074  13.134  23.646   2.263
 3621W        W65075  36.048  29.617  12.477
 3622W        W65076  23.000   1.733  12.010
 3623W        W65077  38.519  30.651   2.668
 3624W        W65078   7.895  17.136   1.767
 3625W        W65079  26.202  21.257   3.189
 3626W        W65080  30.443  42.453   3.386
 3627W        W65081  37.337  24.139  13.457
 3628W        W65082  24.089   7.359  12.933
 3629W        W65083   6.188  31.096   1.420
 3630W        W65084  12.238  22.624   0.409
 3631W        W65085  20.606  44.270  13.374
 3632W        W65086   0.415  32.454  10.631
 3633W        W65087   4.267  42.481   3.310
 3634W        W65088  35.060  34.900   4.685
 3635W        W65089  26.605  23.134   1.806
 3636W        W65090  21.206  13.699  10.549
 3637W        W65091  25.194  34.414   0.286
 3638W        W65092  36.030  44.952  13.038
 3639W        W65093  30.995   3.906   1.788
 3640W        W65094   3.933  23.096   1.293
 3641W        W65095  40.392  41.511   2.772
 3642W        W65096   0.925  40.405   3.299
 3643W        W65097  11.215   9.262   3.362
 3644W        W65098  44.867  29.941  13.905
 3645W        W65099  41.894  15.809  10.602
 3646W        W65100  11.179  37.376  14.832
 3647W        W65101  43.408   2.925   2.842
 3648W        W65102  29.470   2.442   4.189
 3649W        W65103   9.172  21.173   3.857
 3650W        W65104  10.647  40.904   4.666
 3651W        W65105  37.849  21.165  10.032
 3652W        W65106  39.865  19.139  13.945
 3653W        W65107  23.112  22.711   4.152
 3654W        W65108  17.758  13.246   1.828
 3655W        W65109   6.719  35.879   3.359
 3656W        W65110  36.881  39.002   4.643
 3657W        W65111  44.275  29.497   3.337
 3658W        W65112   4.826  26.507  11.078
 3659W        W65113  14.650  26.608   0.945
 3660W        W65114  17.700  24.973   3.304
 3661W        W65115  17.169   7.315   4.156
 3662W        W65116  24.193   3.722   4.297
 3663W        W65117  23.585  30.485   2.767
 3664W        W65118  19.614  18.251   1.246
 3665W        W65119   8.818   5.392  13.884
 3666W        W65120  19.665  40.806   3.317
 3667W        W65121  39.989  33.058   4.232
 3668W        W65122  27.095  10.158  10.036
 3669W        W65123  19.143  10.847   1.756
 3670W        W65124   0.352  44.761  12.838
 3671W        W65125  34.959  35.513   2.810
 3672W        W65126   7.769  15.820  11.105
 3673W        W65127  22.029  30.625   4.670
 3674W        W65128  10.204   0.922   1.384
 3675W        W65129  19.755  24.552  13.836
 3676W        W65130   6.792  20.140   4.121
 3677W        W65131   7.671  25.625  14.491
 3678W        W65132  25.965   6.378  11.426
 3679W        W65133  22.158  19.143   2.862
 3680W        W65134  44.904   3.257   2.760
 3681W        W65135  34.430  43.399   4.788
 3682W        W65136  36.926  43.787   1.803
 3683W        W65137   8.710   6.840  12.070
 3684W        W65138   1.396  21.539   3.804
 3685W        W65139  19.137  22.622  13.815
 3686W        W65140  42.907  44.382  11.949
 3687W        W65141  34.516  41.347  11.604
 3688W        W65142  25.604  42.291  10.897
 3689W        W65143  36.025  12.346  13.055
 3690W        W65144   6.692  20.719  10.457
 3691W        W65145   4.350  21.576   1.919
 3692W        W65146  17.297  10.327   3.251
 3693W        W65147   0.457   8.753  10.986
 3694W        W65148   2.437  28.106   0.938
 3695W        W65149  30.103   2.462  10.943
 3696W        W65150  27.542  33.983  12.452
 3697W        W65151  39.328   1.293  10.602
 3698W        W65152  11.778  38.058  12.882
 3699W        W65153  10.673  26.169  10.987
 3700W        W65154  17.626   0.849   4.192
 3701W        W65155  25.095  37.000  11.020
 3702W        W65156   2.333  36.354   1.308
 3703W        W65157   9.338  35.472  13.537
 3704W        W65158  44.468  23.985  13.328
 3705W        W65159  14.306  42.284   1.736
 3706W        W65160  33.423  23.013   1.770
 3707W        W65161  20.205  31.111  13.029
 3708W        W65162  25.042  31.060   0.826
 3709W        W65163  37.429  13.163  12.003
 3710W        W65164   9.273   8.867   4.798
 3711W        W65165  43.495   8.278   0.963
 3712W        W65166  22.621  35.395  12.044
 3713W        W65167  34.432  25.989   0.906
 3714W        W65168  28.179  29.116   3.281
 3715W        W65169  34.008  41.959   4.186
 3716W        W65170  31.079  38.332  11.947
 3717W        W65171  22.177  44.325   1.828
 3718W        W65172  24.583   2.290   3.279
 3719W        W65173   7.299  17.162   4.637
 3720W        W65174  29.497  25.664  13.020
 3721W        W65175  36.571  12.233  13.390
 3722W        W65176  26.577  30.601   2.749
 3723W        W65177  19.572  35.461   1.319
 3724W        W65178  28.585  43.009   0.344
 3725W        W65179  31.409  10.374   2.377
 3726W        W65180  38.964  18.131  11.995
 3727W        W65181  43.885  36.978  14.436
 3728W        W65182  25.981  10.671   3.218
 3729W        W65183  41.509  15.224  12.406
 3730W        W65184  38.355   7.332   1.702
 3731W        W65185  18.141  38.403  12.422
 3732W        W65186  44.504  33.072   0.848
 3733W        W65187   8.684   1.802   1.329
 3734W        W65188   7.670  18.114  11.403
 3735W        W65189  20.117  32.510  14.331
 3736W        W65190  17.177  19.120   3.846
 3737W        W65191   7.221  27.993  13.469
 3738W        W65192  27.986  10.338   4.317
 3739W        W65193  41.797  16.637  14.282
 3740W        W65194   1.367  15.266  10.542
 3741W        W65195  11.805  14.827  12.014
 3742W        W65196   6.802  20.571  13.007
 3743W        W65197   0.800  37.908   1.704
 3744W        W65198  26.538  27.172  12.497
 3745W        W65199   5.876   2.924   1.372
 3746W        W65200  31.619  10.834  12.375
 3747W        W65201  18.665  18.250  10.927
 3748W        W65202  39.537  19.232   0.896
 3749W        W65203  10.672  26.488  11.608
 3750W        W65204  27.141   7.227   2.383
 3751W        W65205  38.539   9.272   4.732
 3752W        W65206  30.122   5.907   4.165
 3753W        W65207  28.091   7.844  11.511
 3754W        W65208  42.420  30.630  13.840
 3755W        W65209  28.604  27.643  13.909
 3756W        W65210  36.941  19.773  14.804
 3757W        W65211  18.071  21.536  14.362
 3758W        W65212  38.452  39.508   9.443
 3759W        W65213  35.889   2.739   0.409
 3760W        W65214  44.291  28.070   0.323
 3761W        W65215  10.310   0.780   0.811
 3762W        W65216  35.569   7.829   1.400
 3763W        W65217  32.892  18.630  13.946
 3764W        W65218   5.224  12.633  13.836
 3765W        W65219  11.260  14.264   0.251
 3766W        W65220  36.588  10.305   3.682
 3767W        W65221  36.861  40.541  12.366
 3768W        W65222  27.090  23.648  11.599
 3769W        W65223  20.068  26.076  14.458
 3770W        W65224  22.112   4.375   4.643
 3771W        W65225  15.125  41.896  11.072
 3772W        W65226   9.176  33.918  11.925
 3773W        W65227  44.409  16.666   0.743
 3774W        W65228  16.089  23.545   3.781
 3775W        W65229  13.738  40.394  11.605
 3776W        W65230  42.797  27.464   3.782
 3777W        W65231  11.353  18.267   3.837
 3778W        W65232  42.515  12.652  10.893
 3779W        W65233  13.818  43.924  13.028
 3780W        W65234  11.700  13.256  13.382
 3781W        W65235  24.506  17.065   0.267
 3782W        W65236  30.140   5.781   0.281
 3783W        W65237   2.281   7.248   9.919
 3784W        W65238  12.259  13.803  11.042
 3785W        W65239   4.796  21.229   2.894
 3786W        W65240  36.420  12.822   0.347
 3787W        W65241  10.337   0.876   2.332
 3788W        W65242  40.467  20.134  12.875
 3789W        W65243  40.423   9.738   0.341
 3790W        W65244  26.601  32.560   4.256
 3791W        W65245   3.841  33.080   0.966
 3792W        W65246  35.990  26.132   4.193
 3793W        W65247   7.249  32.549  13.018
 3794W        W65248  38.012  30.583  13.411
 3795W        W65249  13.640  38.016  14.308
 3796W        W65250   1.738  28.604  14.898
 3797W        W65251  33.984   6.920  14.923
 3798W        W65252  36.055  43.273   1.715
 3799W        W65253  25.062  40.886  11.563
 3800W        W65254  32.997  23.134   4.741
 3801W        W65255   0.268  22.567   3.332
 3802W        W65256  22.643   9.787   0.790
 3803W        W65257  30.123   5.789   0.951
 3804W        W65258   9.713  19.065   2.722
 3805W        W65259  38.539  11.338  11.043
 3806W        W65260  18.556  35.971   3.816
 3807W        W65261  39.486  25.137  10.593
 3808W        W65262  37.425  36.949   1.857
 3809W        W65263  14.723   0.935  11.413
 3810W        W65264  22.148   3.926  12.900
 3811W        W65265  41.952  44.294   2.720
 3812W        W65266  15.271  26.136   4.677
 3813W        W65267  34.016   5.197  13.338
 3814W        W65268   2.325  33.016  12.569
 3815W        W65269  30.515  18.780  12.064
 3816W        W65270  41.900  41.795   3.848
 3817W        W65271  36.460  29.940  10.539
 3818W        W65272  25.062  33.066   5.256
 3819W        W65273  31.570  32.952   1.837
 3820W        W65274  44.958  40.821  11.000
 3821W        W65275   1.242  27.498  13.908
 3822W        W65276  14.240  16.266   0.941
 3823W        W65277   8.662  20.172  11.470
 3824W        W65278  36.040  31.081  10.569
 3825W        W65279  27.517  12.204   1.382
 3826W        W65280  23.193  36.008   4.655
 3827W        W65281   7.355  18.775   3.159
 3828W        W65282   8.227   1.467   2.715
 3829W        W65283  34.936  32.625  11.012
 3830W        W65284  39.032  38.031  10.450
 3831W        W65285  17.741  17.242  12.450
 3832W        W65286  30.512  44.980   0.400
 3833W        W65287  15.132  39.036   3.858
 3834W        W65288  10.782  22.686  13.426
 3835W        W65289   8.316  29.510   0.815
 3836W        W65290  29.013  41.953  11.111
 3837W        W65291  31.622   8.250  14.917
 3838W        W65292  27.171  35.980   3.337
 3839W        W65293  28.555  35.558  11.430
 3840W        W65294  21.545   2.851   0.742
 3841W        W65295  29.534  22.241   0.918
 3842W        W65296  35.968   0.959  12.563
 3843W        W65297   3.240  35.032  10.920
 3844W        W65298  20.541  32.037   2.699
 3845W        W65299  10.307   4.203  11.113
 3846W        W65300  21.086  17.604   4.151
 3847W        W65301   5.932  37.006   1.237
 3848W        W65302  11.333   1.815   3.665
 3849W        W65303  31.986  14.672   1.881
 3850W        W65304   6.720  14.612  12.961
 3851W        W65305  30.573  38.543  10.955
 3852W        W65306  31.609  16.639  12.886
 3853W        W65307  28.022  43.781   1.259
 3854W        W65308   6.313  35.981  10.029
 3855W        W65309  11.352  24.153  10.466
 3856W        W65310   0.966  41.353  14.775
 3857W        W65311  10.378   0.250  12.574
 3858W        W65312  43.945  44.992   0.359
 3859W        W65313  44.803  44.878   3.691
 3860W        W65314   4.311  24.523   0.745
 3861W        W65315  18.602  21.120  13.970
 3862W        W65316   9.317  22.200   4.163
 3863W        W65317  41.015  16.789  13.806
 3864W        W65318  16.255  35.981   0.434
 3865W        W65319  40.815  19.199   4.123
 3866W        W65320  15.271  34.960   3.683
 3867W        W65321  17.570   6.679  12.922
 3868W        W65322   7.821   8.278   4.774
 3869W        W65323   7.384  29.537  13.043
 3870W        W65324  15.752  37.975   4.733
 3871W        W65325  20.029  40.846  14.780
 3872W        W65326  32.101  38.415  11.435
 3873W        W65327   9.788  26.028  13.808
 3874W        W65328  14.272  28.513   3.867
 3875W        W65329  28.559  33.918  13.402
 3876W        W65330  26.009   3.744   1.367
 3877W        W65331  11.644   2.751   4.726
 3878W        W65332  19.659  39.485  13.965
 3879W        W65333  30.563  38.470  10.589
 3880W        W65334   1.809   4.890   2.805
 3881W        W65335  22.534  34.402   3.630
 3882W        W65336   5.384  33.431  14.313
 3883W        W65337   0.464  37.867  10.598
 3884W        W65338  11.319  43.320  11.106
 3885W        W65339  16.133   3.846  11.604
 3886W        W65340  18.630  25.088  13.358
 3887W        W65341  11.136  12.637  11.504
 3888W        W65342  35.532  30.563   4.816
 3889W        W65343  16.314  23.573  12.869
 3890W        W65344  26.568  20.579  13.064
 3891W        W65345  38.368  22.201  10.451
 3892W        W65346  21.126  15.782  14.370
 3893W        W65347  11.364  30.093  11.079
 3894W        W65348  32.538   2.926   0.770
 3895W        W65349  12.668  36.547   3.758
 3896W        W65350  44.828  30.602   1.412
 3897W        W65351  20.637  17.667   1.326
 3898W        W65352  12.713  37.392  10.110
 3899W        W65353  26.061   4.357   5.318
 3900W        W65354  35.420  11.352  14.030
 3901W        W65355  42.329  19.710   3.736
 3902W        W65356  26.469   8.750   0.871
 3903W        W65357  28.611  24.620   3.339
 3904W        W65358   1.403  22.025   1.750
 3905W        W65359   0.481  43.832   0.767
 3906W        W65360  44.379   4.907   2.385
 3907W        W65361  33.004  42.799  14.482
 3908W        W65362   2.379  22.058  14.313
 3909W        W65363   4.713  23.662  14.772
 3910W        W65364  12.776  27.951  11.103
 3911W        W65365  43.805  16.172   1.326
 3912W        W65366  21.218  26.537  12.571
 3913W        W65367  22.522   2.331   0.760
 3914W        W65368   8.214  18.083  14.371
 3915W        W65369  44.421  21.104   1.221
 3916W        W65370   2.301  29.550   3.749
 3917W        W65371  24.658   9.185   4.639
 3918W        W65372  32.140  18.611   3.178
 3919W        W65373  43.277  29.517   2.848
 3920W        W65374  41.917  13.610  12.449
 3921W        W65375   6.416  18.293   1.694
 3922W        W65376   1.426  33.072  13.943
 3923W        W65377  24.657   8.221   9.623
 3924W        W65378  44.411   0.280   0.948
 3925W        W65379  12.621  16.751  11.066
 3926W        W65380  38.477  25.133  12.962
 3927W        W65381  21.631  32.568   1.841
 3928W        W65382  34.108  31.984  12.458
 3929W        W65383   8.826  29.973  14.901
 3930W        W65384  25.707   1.906  13.419
 3931W        W65385  44.979  27.978  10.618
 3932W        W65386  29.538  30.475  11.443
 3933W        W65387  21.019  18.160   4.755
 3934W        W65388  30.124  16.644   2.369
 3935W        W65389  32.038  15.291   1.225
 3936W        W65390  21.745  38.853  13.511
 3937W        W65391  21.627  19.099  13.471
 3938W        W65392  25.051  15.329   1.441
 3939W        W65393  27.686  35.527   0.965
 3940W        W65394  40.368  33.113  11.551
 3941W        W65395  11.182  34.037   2.901
 3942W        W65396  23.606  36.059   3.718
 3943W        W65397  19.245  25.650  11.066
 3944W        W65398  28.047  18.206   1.325
 3945W        W65399  41.846  18.623  10.478
 3946W        W65400  33.891  14.795   2.277
 3947W        W65401  33.548   8.727   2.179
 3948W        W65402  30.130   0.851   2.699
 3949W        W65403  22.065  14.266  10.564
 3950W        W65404  30.019  29.581   4.303
 3951W        W65405   9.723  10.327   1.314
 3952W        W65406  20.699   5.812   1.245
 3953W        W65407  37.987   7.415  11.470
 3954W        W65408  43.296  19.099   3.344
 3955W        W65409  26.039  29.034   4.263
 3956W        W65410  10.743  31.532   1.395
 3957W        W65411  25.167  16.618   3.208
 3958W        W65412  34.482  23.572   4.717
 3959W        W65413  15.642  23.188  14.290
 3960W        W65414  25.619   5.315   3.181
 3961W        W65415   7.290  29.471  13.989
 3962W        W65416  30.920  10.744  11.881
 3963W        W65417  20.706  44.463   4.240
 3964W        W65418  41.525  17.729  13.462
 3965W        W65419  24.548  23.013  11.454
 3966W        W65420  20.768  34.391   3.746
 3967W        W65421  16.626  34.993  13.818
 3968W        W65422  41.325  31.977  14.003
 3969W        W65423  15.665  12.680   1.791
 3970W        W65424  36.019   7.315  11.879
 3971W        W65425  38.876   4.819   3.679
 3972W        W65426  28.083  36.523  11.557
 3973W        W65427   6.365  22.571   5.111
 3974W        W65428  26.510  31.930  14.833
 3975W        W65429  26.985   2.862  13.342
 3976W        W65430   2.375  16.572  12.423
 3977W        W65431   4.706  11.183   0.756
 3978W        W65432   4.811   9.228   4.115
 3979W        W65433  17.127  42.947   0.747
 3980W        W65434  25.487  30.609   0.377
 3981W        W65435  16.667  16.795   3.636
 3982W        W65436   1.399   3.409   1.214
 3983W        W65437  11.636  40.049   1.356
 3984W        W65438  44.441  17.298   0.798
 3985W        W65439  41.305  19.749   0.361
 3986W        W65440  22.229   8.206  13.824
 3987W        W65441  14.215  29.982  11.375
 3988W        W65442  12.333  32.591   3.700
 3989W        W65443  14.095  41.967   2.199
 3990W        W65444   3.844  11.682   4.684
 3991W        W65445  16.150  31.568  13.366
 3992W        W65446  37.897   6.275  10.968
 3993W        W65447  21.619  27.648  13.366
 3994W        W65448  22.506  21.578  12.395
 3995W        W65449  30.080  19.759   0.853
 3996W        W65450   7.284   4.420   0.938
 3997W        W65451  42.454  25.542  10.476
 3998W        W65452  36.585  33.963   2.816
 3999W        W65453   5.723  11.351  13.334
 4000W        W65454  17.200  31.989   3.232
 4001W        W65455  26.017  13.326  14.809
 4002W        W65456  31.942  35.452   4.123
 4003W        W65457  44.381  25.534   3.792
 4004W        W65458   3.867   4.757   3.308
 4005W        W65459  14.763  29.624   2.231
 4006W        W65460  32.038  27.515  11.439
 4007W        W65461  25.041  30.549   4.772
 4008W        W65462   4.252  43.976   4.218
 4009W        W65463  19.193  36.487  14.817
 4010W        W65464  19.201   4.895   0.243
 4011W        W65465  27.010  22.537  13.534
 4012W        W65466  22.247   2.326  13.508
 4013W        W65467  26.987  32.077  11.424
 4014W        W65468  22.584   1.893  11.426
 4015W        W65469  34.440  29.529   2.343
 4016W        W65470  24.018  26.155  12.953
 4017W        W65471  39.855  30.153  14.026
 4018W        W65472  14.816  43.302   2.720
 4019W        W65473  16.809  28.020   3.660
 4020W        W65474  37.036   9.207  13.863
 4021W        W65475  27.027  13.258  10.460
 4022W        W65476  18.741   1.348  11.495
 4023W        W65477   5.407  24.573  13.970
 4024W        W65478  25.998  17.707  14.826
 4025W        W65479  10.802  29.954   4.684
 4026W        W65480  38.343  30.413   1.444
 4027W        W65481  12.839  33.487  12.057
 4028W        W65482  36.459  26.001  12.449
 4029W        W65483  37.857  41.379   2.248
 4030W        W65484  24.141   2.875   0.810
 4031W        W65485  38.851  34.506  14.340
 4032W        W65486  25.671  14.822   0.857
 4033W        W65487  40.946  20.588  10.625
 4034W        W65488  21.175  13.151  13.048
 4035W        W65489  37.567  37.570  13.384
 4036W        W65490  19.146  41.017  14.906
 4037W        W65491  33.021   2.409  11.067
 4038W        W65492  39.819  12.236   4.244
 4039W        W65493  28.934  36.919  10.540
 4040W        W65494  37.025  10.874  13.385
 4041W        W65495  11.749  19.155   2.275
 4042W        W65496   0.447   5.751  14.440
 4043W        W65497  26.197  39.422   4.715
 4044W        W65498  29.027   3.814  14.768
 4045W        W65499  26.628  38.433  14.354
 4046W        W65500  38.563  27.661   1.770
 4047W        W65501  22.606  30.479  11.491
 4048W        W65502  24.686   7.192   1.867
 4049W        W65503   2.953  15.117   1.719
 4050W        W65504  21.063  19.242   1.847
 4051W        W65505  19.559  34.539  11.373
 4052W        W65506  13.308  38.448   0.306
 4053W        W65507   7.669  14.777   0.290
 4054W        W65508   2.831  29.026  13.497
 4055W        W65509  17.223   7.749  12.447
 4056W        W65510   7.695   7.840   2.391
 4057W        W65511   6.287  23.515  13.896
 4058W        W65512  23.732  18.279   4.293
 4059W        W65513   2.270  37.452  14.929
 4060W        W65514   0.412   7.896   1.304
 4061W        W65515   5.370  24.482   2.214
 4062W        W65516  12.679   4.321  13.866
 4063W        W65517  32.476   9.784  13.481
 4064W        W65518  41.975  33.588  13.885
 4065W        W65519  35.441   7.325   4.717
 4066W        W65520   2.342  34.508   2.668
 4067W        W65521  35.892  39.533  12.885
 4068W        W65522   8.406  20.684  13.457
 4069W        W65523  20.539  41.347   0.934
 4070W        W65524   8.831  29.496  10.562
 4071W        W65525  12.636  27.603  11.025
 4072W        W65526  11.753   0.792   2.414
 4073W        W65527   4.217  42.430   4.747
 4074W        W65528  22.545   0.778  14.883
 4075W        W65529  44.963  28.563  12.900
 4076W        W65530  22.193   5.809  10.580
 4077W        W65531  37.556  40.828   2.188
 4078W        W65532   8.794  16.159  13.342
 4079W        W65533  31.478  37.855   2.290
 4080W        W65534   2.923   6.775  11.407
 4081W        W65535  13.134  37.559  11.452
 4082W        W65536  22.730   7.848  14.456
 4083W        W65537  33.590  28.561   2.745
 4084W        W65538  39.318  35.602   1.281
 4085W        W65539   8.200  15.610  11.061
 4086W        W65540  27.960  37.545   2.692
 4087W        W65541   2.781   5.763  13.430
 4088W        W65542  32.442   0.749   3.753
 4089W        W65543  37.543  12.171  11.375
 4090W        W65544  18.680  23.496   2.753
 4091W        W65545  28.549  30.964  11.051
 4092W        W65546   8.817  35.507  11.855
 4093W        W65547  15.592  27.062   0.837
 4094W        W65548  34.576   6.204  12.017
 4095W        W65549   3.252  14.211   4.173
 4096W        W65550  44.279  44.992  14.849
 4097W        W65551   0.358   6.290  12.066
 4098W        W65552  23.191  38.504  11.115
 4099W        W65553  32.460  44.897   3.209
 4100W        W65554   6.919   2.953   0.318
 4101W        W65555  26.669  41.810  11.977
 4102W        W65556  28.561  43.441   3.765
 4103W        W65557   3.410  25.150   1.884
 4104W        W65558  26.109  26.514  13.540
 4105W        W65559  40.940   4.217   4.328
 4106W        W65560  12.254  42.375   4.618
 4107W        W65561  41.327  22.017   4.191
 4108W        W65562   6.864  29.079   3.809
 4109W        W65563  20.270   6.834   0.479
 4110W        W65564   3.327  35.015   4.607
 4111W        W65565   3.946  34.568   1.341
 4112W        W65566  33.059  42.990  12.477
 4113W        W65567  18.106  24.526   1.335
 4114W        W65568  40.497  18.683   1.714
 4115W        W65569  21.568  30.120   1.256
 4116W        W65570   1.433  25.220   0.940
 4117W        W65571  31.507  11.150  13.469
 4118W        W65572  30.502  41.888  13.976
 4119W        W65573  13.686  22.213   4.662
 4120W        W65574  10.250  26.659  12.392
 4121W        W65575  36.984  37.567  12.060
 4122W        W65576  15.581   4.937   5.180
 4123W        W65577   1.961  37.069  11.450
 4124W        W65578  32.452  26.985  14.313
 4125W        W65579  30.496  17.137  10.523
 4126W        W65580  25.106  11.635   2.864
 4127W        W65581  19.224  11.199   1.356
 4128W        W65582  13.831  38.013   2.345
 4129W        W65583  41.470   1.881   3.294
 4130W        W65584  16.134   7.336   3.668
 4131W        W65585  10.828  28.165  12.419
 4132W        W65586  35.961  39.921  14.463
 4133W        W65587  30.015  22.646  10.078
 4134W        W65588  42.959   8.680   4.195
 4135W        W65589  40.425  39.061  13.523
 4136W        W65590  17.561   7.198   2.392
 4137W        W65591   3.871   9.212   2.892
 4138W        W65592  34.546  14.210   1.376
 4139W        W65593   5.200  27.587  12.435
 4140W        W65594  42.374  26.524  10.911
 4141W        W65595  10.729   6.185  14.405
 4142W        W65596  42.864  36.437   3.648
 4143W        W65597  31.625  32.614  14.768
 4144W        W65598  27.647  34.978  11.453
 4145W        W65599   2.400  24.669   4.669
 4146W        W65600  33.395  17.711  12.883
 4147W        W65601  30.017   1.306   0.848
 4148W        W65602   4.861  43.299  12.936
 4149W        W65603  32.545  16.689   1.430
 4150W        W65604  11.336  14.714  13.939
 4151W        W65605  39.037  20.669   1.884
 4152W        W65606  21.160  35.987  10.640
 4153W        W65607  17.290  37.427   2.878
 4154W        W65608  12.765  43.801  13.009
 4155W        W65609  41.882  29.606   3.338
 4156W        W65610  16.209  37.965   2.690
 4157W        W65611  18.290  20.755  12.429
 4158W        W65612  43.994  25.683   3.712
 4159W        W65613  37.525  31.904  10.029
 4160W        W65614  33.929  41.867   3.648
 4161W        W65615  14.621  21.259  11.548
 4162W        W65616  30.494   5.810  14.477
 4163W        W65617  33.489  14.318   1.405
 4164W        W65618   5.418  27.006   4.767
 4165W        W65619   3.396  14.809   0.454
 4166W        W65620  26.583  37.010  12.514
 4167W        W65621  27.119  14.319   2.358
 4168W        W65622   3.302  20.732   1.231
 4169W        W65623   5.239  32.573   4.234
 4170W        W65624  12.690   8.675   2.378
 4171W        W65625  40.369   1.953   4.634
 4172W        W65626  10.659  32.543   5.574
 4173W        W65627  15.216   9.839  10.093
 4174W        W65628  28.498  22.224   5.184
 4175W        W65629   4.921  43.963  12.906
 4176W        W65630  34.070  22.627   2.894
 4177W        W65631  36.347  13.294   1.270
 4178W        W65632  44.004  18.141  13.406
 4179W        W65633  42.290   9.388  13.901
 4180W        W65634   1.281  16.572   1.440
 4181W        W65635  18.651  24.182  11.022
 4182W        W65636  41.891  12.146  11.507
 4183W        W65637  39.477  39.044  12.927
 4184W        W65638   7.266  15.648  13.958
 4185W        W65639  13.728  39.362  11.982
 4186W        W65640  12.238  42.479  11.858
 4187W        W65641  22.553  37.549  10.916
 4188W        W65642  36.994   6.205  13.918
 4189W        W65643   0.339  26.194  12.027
 4190W        W65644  17.247  42.432   3.830
 4191W        W65645  35.551  23.035  13.430
 4192W        W65646  26.544  20.218   4.299
 4193W        W65647  44.825  28.970  14.427
 4194W        W65648  20.611  13.774  14.848
 4195W        W65649  34.901  37.531  14.944
 4196W        W65650  41.800  33.920   0.929
 4197W        W65651  29.519   6.259  12.576
 4198W        W65652  32.450  43.902  13.369
 4199W        W65653  40.537  30.157   1.246
 4200W        W65654  15.145  40.364  13.927
 4201W        W65655   1.338  27.977   4.597
 4202W        W65656   0.297   7.397  12.093
 4203W        W65657  14.819  35.954  12.429
 4204W        W65658  43.001   3.724  11.894
 4205W        W65659  37.540   2.469  10.440
 4206W        W65660  43.426  27.984   4.292
 4207W        W65661  33.878  23.687   2.779
 4208W        W65662  43.934  30.542   0.275
 4209W        W65663   6.784  14.782  13.369
 4210W        W65664  12.613  17.573   1.790
 4211W        W65665  44.845  43.390  13.884
 4212W        W65666  15.790  28.150  14.410
 4213W        W65667  12.165  16.627  11.960
 4214W        W65668  34.097   1.361  13.024
 4215W        W65669  12.174  14.098  11.007
 4216W        W65670  43.861  11.828   4.790
 4217W        W65671  12.128  20.723   0.862
 4218W        W65672  42.516  36.419   2.178
 4219W        W65673   6.351   2.375   4.772
 4220W        W65674   2.836  24.214   0.774
 4221W        W65675  36.903  13.773  11.428
 4222W        W65676  34.481  20.597  11.490
 4223W        W65677   4.331   3.738  14.450
 4224W        W65678   3.252  32.956  10.914
 4225W        W65679  21.549  23.032   1.289
 4226W        W65680   6.391  28.447  12.900
 4227W        W65681  11.732  15.691   2.809
 4228W        W65682  27.134  22.582   2.664
 4229W        W65683  32.393  43.436  13.794
 4230W        W65684  29.441  15.777   0.341
 4231W        W65685  11.312  39.021   1.704
 4232W        W65686  27.488  27.980  14.825
 4233W        W65687  15.163  18.066  12.458
 4234W        W65688  28.056  41.510  10.635
 4235W        W65689  39.837  11.795   1.242
 4236W        W65690   4.352  34.064   4.159
 4237W        W65691  37.541  44.449   4.345
 4238W        W65692  13.158  17.570  11.533
 4239W        W65693  23.614  21.682   3.162
 4240W        W65694  39.976  38.464  12.838
 4241W        W65695  19.735  29.450  11.880
 4242W        W65696  30.117  10.727  13.398
 4243W        W65697  44.459   6.745  10.914
 4244W        W65698  26.073  43.791   1.755
 4245W        W65699  12.703  38.418  12.904
 4246W        W65700  21.631   0.250  11.998
 4247W        W65701  13.685   7.707   2.719
 4248W        W65702  35.555   0.925  10.589
 4249W        W65703   7.865  29.581  12.914
 4250W        W65704   9.779   1.785  12.439
 4251W        W65705  29.485  11.801   3.354
 4252W        W65706  11.696  23.164   3.857
 4253W        W65707  23.656   6.756   2.887
 4254W        W65708  24.229  24.137   2.268
 4255W        W65709  22.672  12.359   0.756
 4256W        W65710   6.704  35.457   4.350
 4257W        W65711  43.421  44.769   0.314
 4258W        W65712   0.960  41.482  12.966
 4259W        W65713   0.854   9.727  14.977
 4260W        W65714  31.558  44.402  14.475
 4261W        W65715  42.855  42.947  11.573
 4262W        W65716  22.072  18.202  14.911
 4263W        W65717  42.377  28.059   1.353
 4264W        W65718   2.963  12.317  11.454
 4265W        W65719  41.373  39.911   0.429
 4266W        W65720  14.648  42.883  13.883
 4267W        W65721  24.142  23.578   4.224
 4268W        W65722  27.558  10.834   0.900
 4269W        W65723  29.026  14.324   9.971
 4270W        W65724  42.892  29.664  11.090
 4271W        W65725  18.735  13.690  14.331
 4272W        W65726  18.291   4.904   1.720
 4273W        W65727  30.144  16.157   1.930
 4274W        W65728  17.563   2.809  10.508
 4275W        W65729  40.531   5.710  14.311
 4276W        W65730  14.650  35.058  12.529
 4277W        W65731  34.593  24.076  11.982
 4278W        W65732  40.034  10.831   3.687
 4279W        W65733  37.468   0.865  11.906
 4280W        W65734  38.935  21.524   5.249
 4281W        W65735  37.534  30.460   1.833
 4282W        W65736  27.136  43.309   4.758
 4283W        W65737  23.597  36.989  10.905
 4284W        W65738  37.398   8.227  14.912
 4285W        W65739   7.682  36.013   3.243
 4286W        W65740  35.571   8.388   3.150
 4287W        W65741  42.518   9.296   3.836
 4288W        W65742  42.297  17.582   1.342
 4289W        W65743   5.240  12.610  10.453
 4290W        W65744  36.890  27.466   3.345
 4291W        W65745  18.192   3.416  14.477
 4292W        W65746  34.902   2.726  14.777
 4293W        W65747  40.410  32.413   0.297
 4294W        W65748  17.235  38.562   3.291
 4295W        W65749  12.837  29.426   0.871
 4296W        W65750   3.746  18.097   1.336
 4297W        W65751  14.786  25.533  14.763
 4298W        W65752  33.914   7.226  12.380
 4299W        W65753  21.172  31.035   0.919
 4300W        W65754  35.483  42.463  11.524
 4301W        W65755  39.502  28.052  13.496
 4302W        W65756  16.185   3.825   4.796
 4303W        W65757  41.920  35.022  11.101
 4304W        W65758   8.782  44.440  11.579
 4305W        W65759  23.496  42.816   2.381
 4306W        W65760  10.832  23.702   0.839
 4307W        W65761  24.700  20.121  11.525
 4308W        W65762  11.776  36.868   4.649
 4309W        W65763  10.690  42.503   4.724
 4310W        W65764  42.899   5.259   3.871
 4311W        W65765  29.576  13.186   4.326
 4312W        W65766  16.784   8.759  14.965
 4313W        W65767  38.345  19.536   4.667
 4314W        W65768  11.638  42.455   2.351
 4315W        W65769  27.120  39.345   3.868
 4316W        W65770  30.423  39.479  14.811
 4317W        W65771  10.192   1.866   3.324
 4318W        W65772   0.776  27.511   4.150
 4319W        W65773   7.305  44.334  13.812
 4320W        W65774   9.713   9.305   2.862
 4321W        W65775   4.923  22.199   3.348
 4322W        W65776  29.054  31.434  12.070
 4323W        W65777  42.895  27.082  12.518
 4324W        W65778  25.087  17.138   2.861
 4325W        W65779   9.330  31.931   0.909
 4326W        W65780   7.240  41.903  13.840
 4327W        W65781  33.933  41.794  13.876
 4328W        W65782  24.598  15.780  14.805
 4329W        W65783  34.424  25.037  14.353
 4330W        W65784  17.568  19.050   1.859
 4331W        W65785  42.827  26.028  12.449
 4332W        W65786  30.535   2.932  13.848
 4333W        W65787   0.947  29.538  12.522
 4334W        W65788  20.184   9.701  12.373
 4335W        W65789  39.984  41.869   3.811
 4336W        W65790  39.537  19.187  13.840
 4337W        W65791  15.304   0.345   3.210
 4338W        W65792  27.968  41.493   0.891
 4339W        W65793  25.096  32.457  11.914
 4340W        W65794  14.667  21.227  12.010
 4341W        W65795  28.016  38.940   1.368
 4342W        W65796   6.319   5.885   3.351
 4343W        W65797   4.854   5.764   4.824
 4344W        W65798  31.985  20.745   1.802
 4345W        W65799  21.056  18.232   3.285
 4346W        W65800  11.834  34.602  14.954
 4347W        W65801   2.924  26.558  11.412
 4348W        W65802   0.301  37.987  13.544
 4349W        W65803  28.556  12.711   3.865
 4350W        W65804  37.462  11.753   0.835
 4351W        W65805  17.688  34.379   0.334
 4352W        W65806   2.240  41.410   3.336
 4353W        W65807  10.156  36.033   3.839
 4354W        W65808  35.381  12.731   0.753
 4355W        W65809   3.782   4.917  11.373
 4356W        W65810  18.647   0.916   1.827
 4357W        W65811   5.254  16.194  12.380
 4358W        W65812  41.012  42.348  13.358
 4359W        W65813  20.226  25.009  11.908
 4360W        W65814  39.872   6.918   4.151
 4361W        W65815  24.531  16.240   1.265
 4362W        W65816   8.800  24.060  12.571
 4363W        W65817  44.463  16.145   0.433
 4364W        W65818  44.892  28.536   1.742
 4365W        W65819   8.247  39.457  12.546
 4366W        W65820  29.493   0.802   1.227
 4367W        W65821   2.310  39.463   2.358
 4368W        W65822   0.804   2.228  12.506
 4369W        W65823   0.339  31.436  12.358
 4370W        W65824  11.302  26.182  11.005
 4371W        W65825  41.989  34.492   1.272
 4372W        W65826  25.668  33.427   1.376
 4373W        W65827  41.339  42.960  10.426
 4374W        W65828   3.709  20.175  11.438
 4375W        W65829  35.500  39.523   3.235
 4376W        W65830  11.772   2.724   2.257
 4377W        W65831  39.011  35.505   0.766
 4378W        W65832  17.663  24.570  14.992
 4379W        W65833  35.041  19.699   3.360
 4380W        W65834  32.408  13.709   2.808
 4381W        W65835  17.199  30.098   1.285
 4382W        W65836  43.479  36.913  14.778
 4383W        W65837  29.040   8.882  12.483
 4384W        W65838  22.227  28.524   0.288
 4385W        W65839  33.064   8.395   1.762
 4386W        W65840  26.029  43.975  10.912
 4387W        W65841  21.194   2.789  14.465
 4388W        W65842   6.797   1.884   3.238
 4389W        W65843  32.084  14.108  11.998
 4390W        W65844  29.058  16.269  12.393
 4391W        W65845  31.450  11.690   1.388
 4392W        W65846  20.546  17.243  14.852
 4393W        W65847  13.768  24.025  12.833
 4394W        W65848  22.545   5.311  10.501
 4395W        W65849   4.377   8.395   2.862
 4396W        W65850  29.031   4.393   2.713
 4397W        W65851  38.509   8.791   4.282
 4398W        W65852  18.565  41.464   5.155
 4399W        W65853  22.008   4.777   4.311
 4400W        W65854   0.794  27.650  10.441
 4401W        W65855  28.046   5.345  14.373
 4402W        W65856  40.478  24.225  12.978
 4403W        W65857  27.602  26.512   4.156
 4404W        W65858   2.726   1.936   2.337
 4405W        W65859  35.949   9.799  14.508
 4406W        W65860  31.925  23.697  10.144
 4407W        W65861   2.421   0.276  12.903
 4408W        W65862  20.574  28.481   3.273
 4409W        W65863  36.852  36.516  14.979
 4410W        W65864  17.099  38.018   0.900
 4411W        W65865  28.658   9.654   0.879
 4412W        W65866  14.790  37.974  12.981
 4413W        W65867  15.803  32.067   0.782
 4414W        W65868  30.612  30.969   0.317
 4415W        W65869  35.031  39.526  14.324
 4416W        W65870   9.868  18.247   4.670
 4417W        W65871  26.514  22.119  14.794
 4418W        W65872  29.090  37.961  11.032
 4419W        W65873  44.919  30.530  11.607
 4420W        W65874   9.734  37.910   0.955
 4421W        W65875  24.061   0.809   2.310
 4422W        W65876  32.607   4.710  13.454
 4423W        W65877  26.604  35.038   4.188
 4424W        W65878  32.978  25.641   3.629
 4425W        W65879  32.499  10.217   2.738
 4426W        W65880  20.244  18.216   4.300
 4427W        W65881  28.114  36.082  11.064
 4428W        W65882  20.585  16.665   3.791
 4429W        W65883   9.711  11.341  13.369
 4430W        W65884  24.089   9.798   1.359
 4431W        W65885  11.822  12.637   2.334
 4432W        W65886  28.460  10.724  13.503
 4433W        W65887  22.605  38.405   3.344
 4434W        W65888  17.120   1.761  12.464
 4435W        W65889  12.277  38.395  13.382
 4436W        W65890  37.526  42.508  14.826
 4437W        W65891  10.674   0.817   0.444
 4438W        W65892  37.433   0.843   3.294
 4439W        W65893   1.478  44.294  13.363
 4440W        W65894  24.220  39.421  14.806
 4441W        W65895   6.853  15.707   1.715
 4442W        W65896  25.177  33.003  10.036
 4443W        W65897  11.221  15.682  12.911
 4444W        W65898  31.547  27.189   3.375
 4445W        W65899  29.505   0.314  10.109
 4446W        W65900  19.634   3.229  14.348
 4447W        W65901  17.623  18.183  12.977
 4448W        W65902  41.390   1.863  12.082
 4449W        W65903  40.997  17.214  13.046
 4450W        W65904  34.448  44.859  14.879
 4451W        W65905   5.746  37.887   1.845
 4452W        W65906  20.127  31.004  14.842
 4453W        W65907  27.620  35.599   1.810
 4454W        W65908  36.039   7.878   0.823
 4455W        W65909  20.168  37.080  13.373
 4456W        W65910  30.028  40.913  11.497
 4457W        W65911   5.225  16.192  14.365
 4458W        W65912  22.220  36.963  14.511
 4459W        W65913   3.726  22.730   4.138
 4460W        W65914  16.248  19.133   0.429
 4461W        W65915  30.456  28.566   0.367
 4462W        W65916  14.251  19.044   5.794
 4463W        W65917  31.137  40.029   2.872
 4464W        W65918   9.224  17.214  12.566
 4465W        W65919  16.748   5.878  14.948
 4466W        W65920  17.146  42.020   2.809
 4467W        W65921   5.839  44.381  14.916
 4468W        W65922   8.783   1.418  12.507
 4469W        W65923  16.746  12.746  12.521
 4470W        W65924  18.664  11.318  13.504
 4471W        W65925  35.364  18.137  13.972
 4472W        W65926  32.065  15.742   1.902
 4473W        W65927  41.491   0.420   3.153
 4474W        W65928  37.947  22.132   3.804
 4475W        W65929  19.251  12.735   2.864
 4476W        W65930   7.248  30.504  12.574
 4477W        W65931  27.692  23.092  14.928
 4478W        W65932  40.898  29.940  12.499
 4479W        W65933   7.750  20.752  12.967
 4480W        W65934   0.852  13.137   1.923
 4481W        W65935  34.448  12.709   0.455
 4482W        W65936  41.291  28.613  11.929
 4483W        W65937  40.898  12.714  13.461
 4484W        W65938  11.648  34.528   3.168
 4485W        W65939  35.569   6.311   4.113
 4486W        W65940   7.224  19.072  12.954
 4487W        W65941   9.177   4.769   1.251
 4488W        W65942  15.669   5.427   3.215
 4489W        W65943   7.321  10.789   0.407
 4490W        W65944  21.750   5.837  10.991
 4491W        W65945  31.633  39.502   0.867
 4492W        W65946  14.326  35.376   1.392
 4493W        W65947  12.131   9.663   0.346
 4494W        W65948  36.008  17.801  13.808
 4495W        W65949   4.855  23.073  14.935
 4496W        W65950  21.165   4.911  12.562
 4497W        W65951  38.548  20.644  13.928
 4498W        W65952   9.734   6.386  11.128
 4499W        W65953  26.670  21.193   2.769
 4500W        W65954  10.769  10.679   2.777
 4501W        W65955  33.937  22.672   1.764
 4502W        W65956  21.158  22.649   0.861
 4503W        W65957  26.043   2.725  12.479
 4504W        W65958  36.038  27.188   0.443
 4505W        W65959  30.648  14.256  10.600
 4506W        W65960  28.940  15.178  12.867
 4507W        W65961   7.277   6.348  14.465
 4508W        W65962  35.550  19.233   0.890
 4509W        W65963  28.440   3.786  12.002
 4510W        W65964  15.682  32.447  12.384
 4511W        W65965  44.835  17.769   3.252
 4512W        W65966  34.376  20.266   3.727
 4513W        W65967  40.886   1.788  14.279
 4514W        W65968  11.367   8.306  12.036
 4515W        W65969  30.472   6.755   0.446
 4516W        W65970  11.283   2.857  13.520
 4517W        W65971   5.200   0.314   0.297
 4518W        W65972  16.115  22.572   1.262
 4519W        W65973  14.674  19.133   3.184
 4520W        W65974   9.784  16.813  11.451
 4521W        W65975  11.644   1.870   3.347
 4522W        W65976  33.395  16.210  10.131
 4523W        W65977  29.603   2.949  14.460
 4524W        W65978   9.887  39.866   0.840
 4525W        W65979  27.048  44.771  10.905
 4526W        W65980  37.954  42.523   4.322
 4527W        W65981  22.208  27.001   0.391
 4528W        W65982  17.185  14.703  13.346
 4529W        W65983   9.807  25.038   0.299
 4530W        W65984  35.562  24.087  10.417
 4531W        W65985  29.467  19.677   5.272
 4532W        W65986  17.262  10.167   4.275
 4533W        W65987  33.502  37.946   3.750
 4534W        W65988  40.484  17.137   2.758
 4535W        W65989  25.523   3.382   3.647
 4536W        W65990  41.367   6.264   1.736
 4537W        W65991  13.199  20.177  12.471
 4538W        W65992  43.461  26.514   3.186
 4539W        W65993   7.212  17.094  13.507
 4540W        W65994  23.220   5.730  13.339
 4541W        W65995   3.917  36.403  14.896
 4542W        W65996  23.660  20.122  12.014
 4543W        W65997  44.485  41.529  10.541
 4544W        W65998  16.294  27.979   0.727
 4545W        W65999   3.248   1.420  14.485
 4546W        W66000   4.263  37.485   2.266
 4547W        W66001  17.793  26.108   1.763
 4548W        W66002  44.820   5.277   3.867
 4549W        W66003  38.986  39.332  14.949
 4550W        W66004   8.379  33.453  11.118
 4551W        W66005  14.783  43.970  10.996
 4552W        W66006  26.027  12.790  12.437
 4553W        W66007   0.345  38.070   4.650
 4554W        W66008   0.408   0.472  14.495
 4555W        W66009  42.003   9.711   2.699
 4556W        W66010   9.381  13.839  13.809
 4557W        W66011   2.882  20.167   1.342
 4558W        W66012  40.424  30.945  14.400
 4559W        W66013  36.918  14.128  12.379
 4560W        W66014  12.647   9.189   2.719
 4561W        W66015  40.809  21.219  13.950
 4562W        W66016  38.562  39.382   0.880
 4563W        W66017   4.887  41.900   1.842
 4564W        W66018  10.159   2.947  13.435
 4565W        W66019  43.488  34.890   1.392
 4566W        W66020  11.300   0.942  11.490
 4567W        W66021  37.527  13.264   1.730
 4568W        W66022  41.850   3.869  12.376
 4569W        W66023   1.814  36.857   2.736
 4570W        W66024  30.146  37.486   4.210
 4571W        W66025  17.770   4.879   2.895
 4572W        W66026   3.894  18.582   2.838
 4573W        W66027   4.307  26.540   5.195
 4574W        W66028  31.480  17.161   2.673
 4575W        W66029  34.877   1.934  11.436
 4576W        W66030   9.878  34.925  14.834
 4577W        W66031  24.639  29.976   3.829
 4578W        W66032  24.482  29.507   1.414
 4579W        W66033  30.630  11.329  12.390
 4580W        W66034   8.815  44.375   4.609
 4581W        W66035  14.146  10.827   1.775
 4582W        W66036  41.837   9.746   3.253
 4583W        W66037   5.369  33.066   1.228
 4584W        W66038   8.809  39.952   4.701
 4585W        W66039  31.580  42.313   3.772
 4586W        W66040  31.131  25.553   4.253
 4587W        W66041   5.252  35.908   3.712
 4588W        W66042  25.545   1.471   5.155
 4589W        W66043  41.819  35.044   2.417
 4590W        W66044  36.349  35.412  11.468
 4591W        W66045  18.581  21.081   5.170
 4592W        W66046   6.393  37.479  12.933
 4593W        W66047  22.051   3.432   0.837
 4594W        W66048  36.488  10.192   4.313
 4595W        W66049  19.121  29.444  11.901
 4596W        W66050  17.270  21.198  12.042
 4597W        W66051  21.092  14.646   0.927
 4598W        W66052   9.284   7.382   2.768
 4599W        W66053  33.433  39.924   1.896
 4600W        W66054  38.850  34.103   0.739
 4601W        W66055  32.480  39.924  10.443
 4602W        W66056   4.829  28.465   2.290
 4603W        W66057  13.341  25.975   3.825
 4604W        W66058  44.426  34.988   1.215
 4605W        W66059  11.228   2.933   4.132
 4606W        W66060   5.700  31.995   2.837
 4607W        W66061  29.427  23.560  12.398
 4608W        W66062  36.880  15.669  14.371
 4609W        W66063  40.011  42.988   4.712
 4610W        W66064  18.108  22.572  13.534
 4611W        W66065  13.307  41.295  12.533
 4612W        W66066  12.729   4.319  12.502
 4613W        W66067  36.983  28.090  11.112
 4614W        W66068  32.603  30.108   4.347
 4615W        W66069   8.233  37.533   2.800
 4616W        W66070  39.543  41.926  10.908
 4617W        W66071   0.870   5.926   2.731
 4618W        W66072  27.476  14.640   0.298
 4619W        W66073  15.183   8.810  12.383
 4620W        W66074  17.709  40.871  10.607
 4621W        W66075  15.796   1.942   4.670
 4622W        W66076  27.665  19.593  12.997
 4623W        W66077   2.860   1.376   0.774
 4624W        W66078  30.624  41.518   4.170
 4625W        W66079  12.157  26.107   1.835
 4626W        W66080   6.699  17.658  12.449
 4627W        W66081  31.542   0.925  12.379
 4628W        W66082  43.921  30.112  14.013
 4629W        W66083   9.365  10.218   2.722
 4630W        W66084   6.840  10.328   4.200
 4631W        W66085  33.885  33.524  14.413
 4632W        W66086   8.165  38.995  13.843
 4633W        W66087  19.684  33.552  12.418
 4634W        W66088  34.965  12.617   0.940
 4635W        W66089   2.387  28.996  12.951
 4636W        W66090   0.460   6.798  12.087
 4637W        W66091   8.656  27.011   4.321
 4638W        W66092  33.421  38.994  10.518
 4639W        W66093  36.430   8.699  12.029
 4640W        W66094   1.808  32.478   4.203
 4641W        W66095  43.814   6.828   4.626
 4642W        W66096  18.656  16.761  11.388
 4643W        W66097  19.715  26.960  11.113
 4644W        W66098   3.228  14.601   3.785
 4645W        W66099  22.042  28.480   1.306
 4646W        W66100  25.654   1.896   3.724
 4647W        W66101  35.884  31.059  11.096
 4648W        W66102  42.983  31.954   4.726
 4649W        W66103  12.142  27.006   1.439
 4650W        W66104  43.905  41.956   3.232
 4651W        W66105  24.725   5.718   2.677
 4652W        W66106   8.745  20.750   1.357
 4653W        W66107  21.240   0.897   5.176
 4654W        W66108  41.898  27.450  12.542
 4655W        W66109  38.858  40.338  12.486
 4656W        W66110  29.478  34.494  14.959
 4657W        W66111  29.594  25.012   3.754
 4658W        W66112  30.600  17.156  13.013
 4659W        W66113   7.250  10.872   0.966
 4660W        W66114  39.997  11.327  11.933
 4661W        W66115  36.507  42.285   4.605
 4662W        W66116  25.672   1.371   5.685
 4663W        W66117  11.769  20.717   0.396
 4664W        W66118   7.293  22.599  14.854
 4665W        W66119   5.436   1.373  13.854
 4666W        W66120  15.313  31.899   1.330
 4667W        W66121  17.555  19.146  10.466
 4668W        W66122  17.700  38.390   3.776
 4669W        W66123  29.951  26.999   0.248
 4670W        W66124  40.320  12.237  11.964
 4671W        W66125  34.476  13.152   0.830
 4672W        W66126  44.955  18.176  13.343
 4673W        W66127  10.650   7.363   4.199
 4674W        W66128  31.577  13.332   0.337
 4675W        W66129   0.250  28.665   3.180
 4676W        W66130   4.277  19.194   3.332
 4677W        W66131  19.251   9.232   0.261
 4678W        W66132  33.459  12.127   1.421
 4679W        W66133  33.093  33.556   0.824
 4680W        W66134  21.223  41.875   2.395
 4681W        W66135   6.751  12.738  14.374
 4682W        W66136  29.588  36.407  12.575
 4683W        W66137  36.852  41.452  13.357
 4684W        W66138  22.111   3.444   2.285
 4685W        W66139  30.528   0.797  12.011
 4686W        W66140  17.138  32.964  13.311
 4687W        W66141  13.780   2.441   3.767
 4688W        W66142  31.906   4.282   9.935
 4689W        W66143  41.374   3.299  14.954
 4690W        W66144   5.734  25.973   3.281
 4691W        W66145   7.282  22.670   3.305
 4692W        W66146  14.245  35.405  13.499
 4693W        W66147   8.880  36.447   2.384
 4694W        W66148  30.065  30.910   0.811
 4695W        W66149  12.347  13.146  12.378
 4696W        W66150  29.987  29.594  11.472
 4697W        W66151  36.037  14.632  12.461
 4698W        W66152  13.152   4.699  10.972
 4699W        W66153  27.450  15.628  13.819
 4700W        W66154  19.690  17.605  10.407
 4701W        W66155   7.367  20.170   3.202
 4702W        W66156  40.494  22.730   1.404
 4703W        W66157  34.987  14.261  10.620
 4704W        W66158   9.310  38.473   3.675
 4705W        W66159  26.022  28.950  13.919
 4706W        W66160  19.060  37.081  12.896
 4707W        W66161  11.130   7.804   4.123
 4708W        W66162  10.242  40.935  10.076
 4709W        W66163   2.280   7.845   3.342
 4710W        W66164  44.477  31.513  12.969
 4711W        W66165   9.309  23.693  12.459
 4712W        W66166  33.498  27.629   4.822
 4713W        W66167  25.194  31.994  13.458
 4714W        W66168   2.944  27.066   3.652
 4715W        W66169  14.149  27.025   4.826
 4716W        W66170  22.676  11.672  10.573
 4717W        W66171  29.670  31.486   0.461
 4718W        W66172  36.015   5.904   4.653
 4719W        W66173  21.136  12.817   1.433
 4720W        W66174  14.275   6.726  10.542
 4721W        W66175  32.432  12.230  14.875
 4722W        W66176  10.253  34.496  12.362
 4723W        W66177  18.193  43.020  14.357
 4724W        W66178  27.517  19.148  14.895
 4725W        W66179  17.585   5.761  13.387
 4726W        W66180   1.904  37.865   1.778
 4727W        W66181  27.051   7.689   2.798
 4728W        W66182  39.515   4.204  13.538
 4729W        W66183  22.562  44.793   1.346
 4730W        W66184   1.277  23.072  13.378
 4731W        W66185  36.062  44.479   4.258
 4732W        W66186   8.777  30.155  11.496
 4733W        W66187  27.590  19.576   3.314
 4734W        W66188  11.785   6.866  12.924
 4735W        W66189  34.572  15.097   1.411
 4736W        W66190  18.255   1.279  12.985
 4737W        W66191  34.106  36.050  13.482
 4738W        W66192  22.699  44.314  13.374
 4739W        W66193  22.693  18.564  12.392
 4740W        W66194   4.259  15.775   2.761
 4741W        W66195   0.960  26.491   2.384
 4742W        W66196   0.300   6.697  13.403
 4743W        W66197  15.730  16.614   3.273
 4744W        W66198  23.157  41.871   4.336
 4745W        W66199  23.125  11.320   0.916
 4746W        W66200   3.883   5.709  11.567
 4747W        W66201   4.327  38.016   1.378
 4748W        W66202  21.227  19.547   2.668
 4749W        W66203  18.630  43.400  13.373
 4750W        W66204  10.656  43.362  14.866
 4751W        W66205  15.260  39.445   9.522
 4752W        W66206  26.636  39.318  14.377
 4753W        W66207  38.413  12.714  14.838
 4754W        W66208  29.939  39.818  11.579
 4755W        W66209  37.365  44.358  12.415
 4756W        W66210  33.955  10.742   3.686
 4757W        W66211  39.978  15.185   2.181
 4758W        W66212  15.782  43.513   1.928
 4759W        W66213  30.118  43.339  11.121
 4760W        W66214   6.371  42.990   5.167
 4761W        W66215  44.876  28.146  10.952
 4762W        W66216   0.922  33.035  13.486
 4763W        W66217   8.708  37.350   3.709
 4764W        W66218   8.230  23.108  13.539
 4765W        W66219  40.048  14.194  12.457
 4766W        W66220   9.812  24.199   1.221
 4767W        W66221   8.878   1.403   4.165
 4768W        W66222  15.213  23.120   0.299
 4769W        W66223  27.604  19.627  13.420
 4770W        W66224  40.532  24.579  14.941
 4771W        W66225  42.927   4.908   4.633
 4772W        W66226  14.282  27.126   3.794
 4773W        W66227  24.091  13.292   0.752
 4774W        W66228  36.497  30.056   3.277
 4775W        W66229  44.361   1.333  13.963
 4776W        W66230  21.256   2.756  10.975
 4777W        W66231  30.048  43.432  11.574
 4778W        W66232  34.028   1.349  12.440
 4779W        W66233  23.147  11.133  11.936
 4780W        W66234  44.770  35.564   2.730
 4781W        W66235   2.954   4.223  12.414
 4782W        W66236  22.226   2.472  11.473
 4783W        W66237  26.993  21.202  12.470
 4784W        W66238  35.862  38.060  14.775
 4785W        W66239  16.772  36.014   0.812
 4786W        W66240  28.967  25.993   3.199
 4787W        W66241  20.084  37.955  13.365
 4788W        W66242   5.217  43.787  13.533
 4789W        W66243  26.202   5.745  13.892
 4790W        W66244   2.450  34.966  14.392
 4791W        W66245  15.581  20.536   2.293
 4792W        W66246   9.874  13.272   4.797
 4793W        W66247   2.226  38.559   0.755
 4794W        W66248  31.103  27.022   2.207
 4795W        W66249  32.502  18.566   4.606
 4796W        W66250   5.818  13.170  11.585
 4797W        W66251  10.837   1.345  13.839
 4798W        W66252   1.852  42.385  11.933
 4799W        W66253  40.335  17.601   4.262
 4800W        W66254   1.469  21.565  13.394
 4801W        W66255   4.332  38.333  11.106
 4802W        W66256   5.838  23.984  12.893
 4803W        W66257  31.076   0.458   3.243
 4804W        W66258  21.699  12.700   4.260
 4805W        W66259  34.603  16.124   3.220
 4806W        W66260  11.759  35.050   2.378
 4807W        W66261  19.282  34.872   4.323
 4808W        W66262  12.187  12.236  13.864
 4809W        W66263  19.694   6.749  13.051
 4810W        W66264  18.268  38.358   3.820
 4811W        W66265  14.145  33.569  11.405
 4812W        W66266  17.188  16.314  10.894
 4813W        W66267  13.837   5.350   4.668
 4814W        W66268  41.515  10.787   3.191
 4815W        W66269  15.614  24.033   2.801
 4816W        W66270  25.468   1.342   2.295
 4817W        W66271  14.747   4.422   2.787
 4818W        W66272   1.400  40.798   1.315
 4819W        W66273   1.770   7.804  10.598
 4820W        W66274  27.971   1.732   5.198
 4821W        W66275   6.821  26.025   4.314
 4822W        W66276   8.363   0.468  12.499
 4823W        W66277  37.466  44.774   2.274
 4824W        W66278  15.260   3.749  12.891
 4825W        W66279  29.146  22.544  10.975
 4826W        W66280  32.078  41.499   1.438
 4827W        W66281  27.657  12.844  13.536
 4828W        W66282  30.053  21.128   1.281
 4829W        W66283   8.826  25.582  12.879
 4830W        W66284  30.591  33.552   0.470
 4831W        W66285   7.814  22.218  14.778
 4832W        W66286  21.643  10.384   0.404
 4833W        W66287  17.115  12.637   5.704
 4834W        W66288  44.365  19.720   2.256
 4835W        W66289  25.211   4.863   3.376
 4836W        W66290  10.738  21.734  12.544
 4837W        W66291  19.585  36.373   3.360
 4838W        W66292  25.537  41.958   4.699
 4839W        W66293  41.797  20.061  14.994
 4840W        W66294   2.885  43.932  12.415
 4841W        W66295   1.255  43.919  13.798
 4842W        W66296  20.606  43.314   4.708
 4843W        W66297  36.038  19.081  13.911
 4844W        W66298  21.577  10.343   1.400
 4845W        W66299  27.953  42.971  12.929
 4846W        W66300  13.161  13.671   4.296
 4847W        W66301  16.242   8.707   1.874
 4848W        W66302   0.468  38.990   4.140
 4849W        W66303  17.755  26.127  11.954
 4850W        W66304  32.432  26.102   0.766
 4851W        W66305  35.891  34.896   2.313
 4852W        W66306   8.271   1.953   0.351
 4853W        W66307  42.500   6.303   3.754
 4854W        W66308  39.457  22.999  13.791
 4855W        W66309  10.798  38.042   4.659
 4856W        W66310  39.874  18.734  12.012
 4857W        W66311  37.076  32.482   2.337
 4858W        W66312  35.386  10.794  11.552
 4859W        W66313  30.513   8.655   4.171
 4860W        W66314  25.042  33.517  11.912
 4861W        W66315   5.851  35.392   1.279
 4862W        W66316   7.700  21.041  14.296
 4863W        W66317  13.773  26.522   1.927
 4864W        W66318  20.186   9.266  10.891
 4865W        W66319  17.290  42.776   2.684
 4866W        W66320  20.663  42.486   0.370
 4867W        W66321  32.041  22.626   3.376
 4868W        W66322   0.449   3.412   0.741
 4869W        W66323   1.959  30.021   3.643
 4870W        W66324  13.778  10.870  13.330
 4871W        W66325  32.398   9.771  11.978
 4872W        W66326  37.024  10.267   2.871
 4873W        W66327  29.444  44.463   1.895
 4874W        W66328  29.667  17.173  12.829
 4875W        W66329  42.511   9.815   4.255
 4876W        W66330  23.579  10.279   2.274
 4877W        W66331  22.048   5.331   0.826
 4878W        W66332  28.558   6.197  14.341
 4879W        W66333   0.282   9.171   2.869
 4880W        W66334  16.132  42.977   0.929
 4881W        W66335  35.476  37.967  12.927
 4882W        W66336  11.199  42.866   4.170
 4883W        W66337  33.595  24.639   2.181
 4884W        W66338  31.037  23.631  11.972
 4885W        W66339  37.546  16.686  14.493
 4886W        W66340  41.348   9.855  13.453
 4887W        W66341  40.836  17.632   1.441
 4888W        W66342   4.424  17.720  14.363
 4889W        W66343  25.622  33.991  13.371
 4890W        W66344  11.241  29.489   2.705
 4891W        W66345   2.935  34.437   0.267
 4892W        W66346  23.185  28.046   3.694
 4893W        W66347  18.220  41.339   3.254
 4894W        W66348  44.380  22.528  10.908
 4895W        W66349  34.896  38.990   3.174
 4896W        W66350  14.233  17.753  13.396
 4897W        W66351   1.316   7.677  13.852
 4898W        W66352   1.478   0.771  11.067
 4899W        W66353   8.383   3.283   2.399
 4900W        W66354   1.793  39.868   3.155
 4901W        W66355  33.072  11.699   0.901
 4902W        W66356  12.133  20.205   5.094
 4903W        W66357   7.854  36.035   0.867
 4904W        W66358  42.408  36.935  12.567
 4905W        W66359  27.474  24.587  14.442
 4906W        W66360  16.179  25.114  12.515
 4907W        W66361  34.415  33.132  13.944
 4908W        W66362   2.930  28.004   3.690
 4909W        W66363  41.449  10.177  12.868
 4910W        W66364  26.540   9.661  13.400
 4911W        W66365  31.518  13.735   3.767
 4912W        W66366  26.045  12.684   3.276
 4913W        W66367   0.471   3.884  12.556
 4914W        W66368  33.600   2.957  11.059
 4915W        W66369   3.270   3.822   1.401
 4916W        W66370  28.964  23.199  12.537
 4917W        W66371  22.667  11.704   4.281
 4918W        W66372  35.369  36.078   0.737
 4919W        W66373  20.240  10.276   3.167
 4920W        W66374  12.661  29.436  12.890
 4921W        W66375   7.189  31.937  11.879
 4922W        W66376  13.716  32.499   4.163
 4923W        W66377  20.038   3.807  12.387
 4924W        W66378  19.074  38.908   2.812
 4925W        W66379  19.102  34.049   3.792
 4926W        W66380  42.507  10.294  10.981
 4927W        W66381   0.335  19.595  14.796
 4928W        W66382  42.797  10.636   3.281
 4929W        W66383  42.825  38.386   4.185
 4930W        W66384  44.469   2.929  13.000
 4931W        W66385  21.028  20.708  12.915
 4932W        W66386  44.304   7.766   4.771
 4933W        W66387   9.365   2.900  10.962
 4934W        W66388  43.373  30.606   0.448
 4935W        W66389   7.224  13.647  12.438
 4936W        W66390  21.085  19.678   3.740
 4937W        W66391  20.176   5.869  11.933
 4938W        W66392   3.938   4.386   4.314
 4939W        W66393  18.747  40.407   3.310
 4940W        W66394   1.809  19.766   4.812
 4941W        W66395  21.249   3.454   3.689
 4942W        W66396   3.370  41.386  13.035
 4943W        W66397  39.365   0.312   2.878
 4944W        W66398  32.101  38.839  10.494
 4945W        W66399  29.458   8.294  14.963
 4946W        W66400  38.993   5.844  13.328
 4947W        W66401  42.866  10.338  14.809
 4948W        W66402  41.905   5.194  11.036
 4949W        W66403  10.341  19.146   0.319
 4950W        W66404  32.076  21.064  14.914
 4951W        W66405  26.000  43.434  12.340
 4952W        W66406  31.480  32.609  11.555
 4953W        W66407  12.259  29.534  13.469
 4954W        W66408  42.812   9.209  11.456
 4955W        W66409   7.737  33.446  11.010
 4956W        W66410  12.855  28.984  12.462
 4957W        W66411  24.672   8.761  11.492
 4958W        W66412  23.543  35.913   2.808
 4959W        W66413   2.817  11.855   0.817
 4960W        W66414   0.961  20.594   4.635
 4961W        W66415  20.536  34.520  10.608
 4962W        W66416  34.900  13.832  10.502
 4963W        W66417  19.059  25.478  11.551
 4964W        W66418  37.346  30.488  12.050
 4965W        W66419  20.651  26.985  11.003
 4966W        W66420  16.573  18.158   0.827
 4967W        W66421  25.043  19.271   2.784
 4968W        W66422  10.301   8.281  12.354
 4969W        W66423  16.144  36.988   3.831
 4970W        W66424  31.926  14.334   3.275
 4971W        W66425   2.392  30.106   0.252
 4972W        W66426  44.307   3.345  14.830
 4973W        W66427  23.018  35.395   4.711
 4974W        W66428  42.900  19.574   2.390
 4975W        W66429  12.275  26.024  13.393
 4976W        W66430  30.942  10.799  13.904
 4977W        W66431   9.211  26.683   3.313
 4978W        W66432  15.797   8.211  13.996
 4979W        W66433   4.410   3.419   5.151
 4980W        W66434  14.744  14.177   1.429
 4981W        W66435  42.310  11.650   0.916
 4982W        W66436  35.869  39.036   0.318
 4983W        W66437  35.919  12.276   3.784
 4984W        W66438   8.828  12.847   3.709
 4985W        W66439   5.906  20.742  11.388
 4986W        W66440  43.782  38.520   4.194
 4987W        W66441  24.056  39.049  12.092
 4988W        W66442  24.570  44.305  11.468
 4989W        W66443  35.539  38.472  13.984
 4990W        W66444  17.768  15.169   0.901
 4991W        W66445  22.150  10.248  10.597
 4992W        W66446   4.742  40.303   3.166
 4993W        W66447   8.704  25.574   1.346
 4994W        W66448  11.357  22.201   3.198
 4995W        W66449  36.569  32.118  14.401
 4996W        W66450   3.728  19.208   1.856
 4997W        W66451  28.180  39.450  13.970
 4998W        W66452  25.639  18.596   3.635
 4999W        W66453  16.103   1.736  12.512
 5000W        W66454  26.036  40.438   3.859
 5001W        W66455  18.060  41.949  14.434
 5002W        W66456  27.488  13.211  11.028
 5003W        W66457  10.878  33.464   2.263
 5004W        W66458  22.141  41.307   3.739
 5005W        W66459  11.801  28.484  10.978
 5006W        W66460  18.061  27.636  13.481
 5007W        W66461   9.663  37.369  12.855
 5008W        W66462   8.248  42.382   3.807
 5009W        W66463  43.972  18.260  14.010
 5010W        W66464  31.147  26.561  11.494
 5011W        W66465  37.845  20.560   2.340
 5012W        W66466  30.974  23.005  13.918
 5013W        W66467  42.913  19.623   2.885
 5014W        W66468  23.586  22.586   1.221
 5015W        W66469  14.832  14.119   2.714
 5016W        W66470  12.155  27.033  14.278
 5017W        W66471  24.566   3.796   4.286
 5018W        W66472  16.171   0.744   3.680
 5019W        W66473  28.518  34.463   3.380
 5020W        W66474  17.674   4.271   2.779
 5021W        W66475  30.491  27.953  12.866
 5022W        W66476   4.211  41.954   3.726
 5023W        W66477  22.156  15.602   0.345
 5024W        W66478  43.342  35.574   2.203
 5025W        W66479  39.909   4.740   2.407
 5026W        W66480  39.440   6.761   1.323
 5027W        W66481  14.160  33.485  12.426
 5028W        W66482  22.158   9.210  14.371
 5029W        W66483  22.139  28.126  13.517
 5030W        W66484  25.059  14.206  13.418
 5031W        W66485   0.310  16.262  14.855
 5032W        W66486  27.092  14.305   4.156
 5033W        W66487  40.812   4.805   0.965
 5034W        W66488  40.376  15.209   1.267
 5035W        W66489   3.453   9.690   0.750
 5036W        W66490  36.555  11.756   1.333
 5037W        W66491   8.694  43.899   4.311
 5038W        W66492  20.606   2.939  10.954
 5039W        W66493  44.388   8.877  14.951
 5040W        W66494  41.399   2.465  14.934
 5041W        W66495  33.930  26.546  14.847
 5042W        W66496  14.254   9.767  10.613
 5043W        W66497  25.161  18.261  13.010
 5044W        W66498  18.772   4.777  13.360
 5045W        W66499  39.901   8.786  13.014
 5046W        W66500  28.149  28.951  14.495
 5047W        W66501  44.370   8.758   4.648
 5048W        W66502  24.139  20.681  14.511
 5049W        W66503  28.567  23.646   2.809
 5050W        W66504  13.641  34.526   1.341
 5051W        W66505   5.317  21.041  13.794
 5052W        W66506  13.290  34.000  14.998
 5053W        W66507  32.964  40.383   3.846
 5054W        W66508   8.384  32.912  14.490
 5055W        W66509  11.222  35.909  12.914
 5056W        W66510   5.311  33.121  12.556
 5057W        W66511  39.532  30.144   0.790
 5058W        W66512   6.339  29.651   0.318
 5059W        W66513  39.440  36.528  11.611
 5060W        W66514  32.506  37.452  12.831
 5061W        W66515  28.673  33.027   2.342
 5062W        W66516  41.343   8.773  10.984
 5063W        W66517  10.747  29.644   4.727
 5064W        W66518  40.843  19.069   1.268
 5065W        W66519  36.089   6.427  13.874
 5066W        W66520   4.729  10.221  12.345
 5067W        W66521  21.568  15.762   4.812
 5068W        W66522  42.343   5.829   4.148
 5069W        W66523  37.336  12.224  12.383
 5070W        W66524  27.038  19.554   0.827
 5071W        W66525   2.872  22.090   0.737
 5072W        W66526   2.942  22.032   1.441
 5073W        W66527  12.122  31.063   4.710
 5074W        W66528  26.653   8.841   3.166
 5075W        W66529  37.420   6.796  14.445
 5076W        W66530  44.501  17.707   1.790
 5077W        W66531  11.269  27.120  11.382
 5078W        W66532   8.391  18.678  14.945
 5079W        W66533   9.226  10.257   0.919
 5080W        W66534  14.697   9.668   0.953
 5081W        W66535  22.093  12.840   4.740
 5082W        W66536  34.470   0.289   1.696
 5083W        W66537  39.922  21.128   3.809
 5084W        W66538  26.636   1.926  11.857
 5085W        W66539  39.957  11.330  13.349
 5086W        W66540   5.303  33.126   1.731
 5087W        W66541  30.513  12.299   0.915
 5088W        W66542  22.590  21.674   0.803
 5089W        W66543  41.038   4.841  12.043
 5090W        W66544  11.750   5.429   1.792
 5091W        W66545  31.591  38.940   2.863
 5092W        W66546  21.634  40.937   2.282
 5093W        W66547  11.684  31.904   3.248
 5094W        W66548  18.127  43.798   2.283
 5095W        W66549  25.686   8.162   2.862
 5096W        W66550  30.957  43.000  13.819
 5097W        W66551   5.386  22.724   1.221
 5098W        W66552   9.240  25.032   1.859
 5099W        W66553  15.634  40.967  12.450
 5100W        W66554  22.566  36.525   4.349
 5101W        W66555   8.248  11.798  10.471
 5102W        W66556  22.079  40.049  10.920
 5103W        W66557  19.102  21.038   1.865
 5104W        W66558  20.749   3.285   4.616
 5105W        W66559  39.865  27.656  13.012
 5106W        W66560  34.424  17.148   0.791
 5107W        W66561  32.518  15.217   4.251
 5108W        W66562  25.483  18.151  12.834
 5109W        W66563  32.504  36.370   1.223
 5110W        W66564  33.104   3.430  14.955
 5111W        W66565  28.579  38.400  14.373
 5112W        W66566  21.659  27.193   3.718
 5113W        W66567   6.339  30.079  10.911
 5114W        W66568   0.384   3.741   2.367
 5115W        W66569  12.307  14.767   3.704
 5116W        W66570   7.894  16.151   4.790
 5117W        W66571  21.678  17.641   4.348
 5118W        W66572  39.056  39.487   2.327
 5119W        W66573  34.087  31.606   3.733
 5120W        W66574  34.965  27.125   4.815
 5121W        W66575  27.025  43.846   1.217
 5122W        W66576  23.683   6.228   3.185
 5123W        W66577  25.693   8.888  14.494
 5124W        W66578   2.352  27.647   3.215
 5125W        W66579  22.251  34.598  13.965
 5126W        W66580  26.489  43.416   5.193
 5127W        W66581  18.548  13.301  12.905
 5128W        W66582  12.611   9.788   3.312
 5129W        W66583   3.772  32.636   0.932
 5130W        W66584   2.346  25.503   1.728
 5131W        W66585   2.852  11.823  14.779
 5132W        W66586  20.091  41.342   5.107
 5133W        W66587  43.918  19.754  14.286
 5134W        W66588   2.915  27.976   0.291
 5135W        W66589  12.155   1.414  10.404
 5136W        W66590  26.520  36.894  13.330
 5137W        W66591  12.265   7.404  12.406
 5138W        W66592  22.584  39.844  13.343
 5139W        W66593   7.731  37.932  11.934
 5140W        W66594  40.937  39.509  12.524
 5141W        W66595   0.313  34.950   0.325
 5142W        W66596  22.066  33.032   0.248
 5143W        W66597  12.795   6.762  11.958
 5144W        W66598  34.593  15.762  11.394
 5145W        W66599  36.371  17.291  13.541
 5146W        W66600  17.601  27.973   0.292
 5147W        W66601   2.927  39.851   2.322
 5148W        W66602  11.807  42.891   3.263
 5149W        W66603  23.502  19.607   3.159
 5150W        W66604  30.137  27.166   4.152
 5151W        W66605  33.095  17.262   2.733
 5152W        W66606   2.785   5.695   3.275
 5153W        W66607  14.325  41.862   5.202
 5154W        W66608  39.855  34.912  12.500
 5155W        W66609  25.480   2.385   2.697
 5156W        W66610  24.715  43.840  10.469
 5157W        W66611  18.743  17.239  11.493
 5158W        W66612   8.748   5.699  12.856
 5159W        W66613  43.853  33.526  11.020
 5160W        W66614  33.951   0.888   3.330
 5161W        W66615  41.826  16.626   2.396
 5162W        W66616  25.679  29.628   3.674
 5163W        W66617   8.327  39.480   1.752
 5164W        W66618  38.539  19.063  13.386
 5165W        W66619  33.401   3.857   1.757
 5166W        W66620  40.373  20.714  13.064
 5167W        W66621  21.563  36.559  12.573
 5168W        W66622  14.733   4.864   1.795
 5169W        W66623  26.577  21.115   2.358
 5170W        W66624  24.064   9.162  12.005
 5171W        W66625  43.906  23.212  11.389
 5172W        W66626  29.669  35.415  12.463
 5173W        W66627  44.427  10.306   1.409
 5174W        W66628  40.503   2.724  13.014
 5175W        W66629  15.820   2.737  13.329
 5176W        W66630  39.329   7.348  11.036
 5177W        W66631  44.336  27.084  14.287
 5178W        W66632  19.106   4.434  11.549
 5179W        W66633  23.210   1.368  14.789
 5180W        W66634   8.216  13.182   3.714
 5181W        W66635  17.561   2.364  12.392
 5182W        W66636  33.079  41.496   0.379
 5183W        W66637  33.626  12.187   9.564
 5184W        W66638  18.545  29.031  14.014
 5185W        W66639  32.923  19.100  10.950
 5186W        W66640  21.652  15.782   0.432
 5187W        W66641  41.915  26.998   0.344
 5188W        W66642  41.849  25.511  14.420
 5189W        W66643  34.054  13.767   3.825
 5190W        W66644  44.925   0.773   1.237
 5191W        W66645  16.657  43.370   4.338
 5192W        W66646   9.703  35.103  14.004
 5193W        W66647  18.252  38.904   0.465
 5194W        W66648  24.996   1.957  11.515
 5195W        W66649  15.126  24.133   0.466
 5196W        W66650   9.835   2.908  14.811
 5197W        W66651  30.446   2.787  12.416
 5198W        W66652  17.595  18.669   2.408
 5199W        W66653  17.720   9.217   2.223
 5200W        W66654   9.301  43.418   3.780
 5201W        W66655  16.625  15.587  11.054
 5202W        W66656  14.291   2.275   0.352
 5203W        W66657   1.361  36.347  10.640
 5204W        W66658  24.566  25.700   2.230
 5205W        W66659   9.285   5.349   1.874
 5206W        W66660   2.398  30.949   0.909
 5207W        W66661  27.960  40.993   3.192
 5208W        W66662  36.848  28.974   1.806
 5209W        W66663  26.124   5.433   4.768
 5210W        W66664  28.564  18.082  11.003
 5211W        W66665   1.460   3.248   0.809
 5212W        W66666  23.158  31.506  13.501
 5213W        W66667  37.894   7.851   2.393
 5214W        W66668  43.777  24.578  14.452
 5215W        W66669   4.797  38.424   1.778
 5216W        W66670  27.127  37.434   1.915
 5217W        W66671   6.382  10.316   3.276
 5218W        W66672  21.651  35.583   2.269
 5219W        W66673  40.501  15.679  14.907
 5220W        W66674   6.825  31.899   0.397
 5221W        W66675  30.137  19.567  11.067
 5222W        W66676  39.549  15.176  11.077
 5223W        W66677   9.666  43.812  14.773
 5224W        W66678  33.875  38.462  12.908
 5225W        W66679   8.781   6.293  14.287
 5226W        W66680  27.522  40.054   4.286
 5227W        W66681  24.105  36.030   3.736
 5228W        W66682  28.531  34.053   1.757
 5229W        W66683  25.542  43.917   4.833
 5230W        W66684   0.851  11.772   0.870
 5231W        W66685  19.536  13.656   2.236
 5232W        W66686  32.885   1.471  11.514
 5233W        W66687   2.343  32.476  13.864
 5234W        W66688  42.876  29.639   2.754
 5235W        W66689  30.529  19.228   4.220
 5236W        W66690  16.273  25.539   4.214
 5237W        W66691   8.351  42.829   3.752
 5238W        W66692   1.888  10.723  14.822
 5239W        W66693  34.600  35.906   0.377
 5240W        W66694   9.823   0.815   3.848
 5241W        W66695  38.956  42.789  14.959
 5242W        W66696  33.069  17.158   1.913
 5243W        W66697   7.699  32.524  14.779
 5244W        W66698  16.153  34.439  12.997
 5245W        W66699  42.015   4.724   3.241
 5246W        W66700  34.995  13.794   4.284
 5247W        W66701   2.746  28.678   4.155
 5248W        W66702  39.411   9.866  12.453
 5249W        W66703  28.069  26.162   2.760
 5250W        W66704   7.869  11.644   3.743
 5251W        W66705  18.194  18.723  14.426
 5252W        W66706  35.039  11.278  10.416
 5253W        W66707  25.102   6.294   0.256
 5254W        W66708   5.265  39.901   4.784
 5255W        W66709  31.582  41.957  11.051
 5256W        W66710  21.225  17.677   4.670
 5257W        W66711  15.219  43.501  12.551
 5258W        W66712  17.270  13.144  12.573
 5259W        W66713  22.539  18.653   4.678
 5260W        W66714  26.149  35.008  12.904
 5261W        W66715  34.586  13.339  10.023
 5262W        W66716  22.664   3.803  12.995
 5263W        W66717  42.384  29.452   2.209
 5264W        W66718  20.715  34.447  12.920
 5265W        W66719   6.411  18.079   0.881
 5266W        W66720  43.810   7.207  11.127
 5267W        W66721  11.793  31.486  13.851
 5268W        W66722  44.766   6.803   2.271
 5269W        W66723  39.395  21.567  11.411
 5270W        W66724  30.983  14.287   2.748
 5271W        W66725  41.032  42.032  11.979
 5272W        W66726  15.585  32.937  14.327
 5273W        W66727  43.270  15.759   0.910
 5274W        W66728   0.935   8.295   2.232
 5275W        W66729  24.641  22.698   0.867
 5276W        W66730  36.874   2.425   4.627
 5277W        W66731  12.185  37.370  12.890
 5278W        W66732  20.067  19.173   3.840
 5279W        W66733  25.211  13.692  13.055
 5280W        W66734   4.244  33.463  14.977
 5281W        W66735  13.341  22.157  12.834
 5282W        W66736  27.941  40.521   2.344
 5283W        W66737  37.000  11.762  10.473
 5284W        W66738  10.167  21.623  12.429
 5285W        W66739  39.504  29.961   2.397
 5286W        W66740  31.460  38.957   3.719
 5287W        W66741  17.702  41.013   4.155
 5288W        W66742  36.943  36.087   4.655
 5289W        W66743  29.930  31.610   2.902
 5290W        W66744  13.803   7.799  12.527
 5291W        W66745  37.918  34.469   0.416
 5292W        W66746  26.064  29.111   3.173
 5293W        W66747  14.236   2.448  13.357
 5294W        W66748   2.791   1.325  14.425
 5295W        W66749  25.621   0.355  14.992
 5296W        W66750  15.149  31.569   3.796
 5297W        W66751  25.516  20.654   1.707
 5298W        W66752  44.755  40.887   2.351
 5299W        W66753  38.921  43.285   1.318
 5300W        W66754  28.172  37.407   2.294
 5301W        W66755  11.669  32.899  10.487
 5302W        W66756  41.426  26.181  13.493
 5303W        W66757  38.982  25.561   0.440
 5304W        W66758  14.704  20.653   3.233
 5305W        W66759  20.028  28.564  12.036
 5306W        W66760  25.644  30.002  13.807
 5307W        W66761  16.179  36.470  13.383
 5308W        W66762  19.285  39.969  14.355
 5309W        W66763   7.760   4.338  10.587
 5310W        W66764  44.967  44.763   4.202
 5311W        W66765  43.504  31.952  10.411
 5312W        W66766  25.525   9.228   9.554
 5313W        W66767  17.732  15.650   1.430
 5314W        W66768  15.286  25.654  14.844
 5315W        W66769  13.187  38.447  11.480
 5316W        W66770  33.562  27.456  11.384
 5317W        W66771   5.823  32.908   5.566
 5318W        W66772  32.890  44.867  11.018
 5319W        W66773  30.461  33.084  14.010
 5320W        W66774   5.369  14.663  14.857
 5321W        W66775  22.223  17.651   3.644
 5322W        W66776  20.068  12.302   0.454
 5323W        W66777   3.890  31.595  12.079
 5324W        W66778  38.379  16.227  11.902
 5325W        W66779  22.552  10.288  13.527
 5326W        W66780  40.050  23.581  13.518
 5327W        W66781  42.327  32.481  14.775
 5328W        W66782  44.856   2.912  13.339
 5329W        W66783   0.344  28.650   1.900
 5330W        W66784  35.435   9.236   4.148
 5331W        W66785   3.736  35.532  12.906
 5332W        W66786  11.769  39.371   3.716
 5333W        W66787  19.744  31.935   1.906
 5334W        W66788  36.019  38.969  12.423
 5335W        W66789  36.033  17.177   2.733
 5336W        W66790  37.465  40.491   0.466
 5337W        W66791  37.841  21.077  14.960
 5338W        W66792   4.310  28.459  10.524
 5339W        W66793   8.234   4.383   1.340
 5340W        W66794   8.804  19.590  11.053
 5341W        W66795  39.352   6.853   0.924
 5342W        W66796  19.044  21.643  11.062
 5343W        W66797   0.833   2.928  11.880
 5344W        W66798   4.413   5.232   1.431
 5345W        W66799  37.922  37.477  14.792
 5346W        W66800   9.819   9.743   3.714
 5347W        W66801  20.069   4.339  14.319
 5348W        W66802   5.229  29.160  14.397
 5349W        W66803  26.174  17.796   2.730
 5350W        W66804  43.880  44.308  14.292
 5351W        W66805  17.597  35.440   4.221
 5352W        W66806  24.582   9.192   4.153
 5353W        W66807  37.547  40.802  13.815
 5354W        W66808   6.797  24.519  12.958
 5355W        W66809  11.690  15.731  14.452
 5356W        W66810  24.659  20.643  11.858
 5357W        W66811  28.466  32.095   9.987
 5358W        W66812  40.399   2.754  13.864
 5359W        W66813   6.207   6.204  11.075
 5360W        W66814  16.682  14.622   1.307
 5361W        W66815  15.714  10.325  10.077
 5362W        W66816  37.402  39.899   3.740
 5363W        W66817  12.222  20.181  11.501
 5364W        W66818   5.284  14.764   4.298
 5365W        W66819  41.043  15.807  13.366
 5366W        W66820  34.552  20.747  12.382
 5367W        W66821  23.493  24.973  10.933
 5368W        W66822  40.808  18.732   4.153
 5369W        W66823  37.452  31.404   4.664
 5370W        W66824   5.433   8.397  11.041
 5371W        W66825  22.683  22.209   2.844
 5372W        W66826  32.098   8.385  12.855
 5373W        W66827  21.256   2.346  11.028
 5374W        W66828  36.876  23.200   3.729
 5375W        W66829  36.853  25.074  14.780
 5376W        W66830   4.933   7.405   1.834
 5377W        W66831   8.794   2.772  11.456
 5378W        W66832  33.447  18.623  12.882
 5379W        W66833  13.194   3.365   4.620
 5380W        W66834   1.733  22.663   1.848
 5381W        W66835  20.572  22.695   0.918
 5382W        W66836  24.504   2.405  12.062
 5383W        W66837  17.175   9.854   2.866
 5384W        W66838  37.346  43.822  13.420
 5385W        W66839  39.853  34.099  11.531
 5386W        W66840   7.716  25.591   1.866
 5387W        W66841  40.907  40.035   0.829
 5388W        W66842  43.359  33.416   9.989
 5389W        W66843  12.772   8.310   4.783
 5390W        W66844  10.658  10.662  13.868
 5391W        W66845  25.488  21.709  13.374
 5392W        W66846  30.502  16.160   1.778
 5393W        W66847  43.430   0.917  13.061
 5394W        W66848  41.460  34.507   3.811
 5395W        W66849  39.337  35.919  14.326
 5396W        W66850  44.407  26.201  12.028
 5397W        W66851  32.916  29.501   4.336
 5398W        W66852  17.272  24.045   0.739
 5399W        W66853   7.388  29.574   3.787
 5400W        W66854  16.590  44.897   4.599
 5401W        W66855  28.169  20.238   4.284
 5402W        W66856  43.923  32.940   4.708
 5403W        W66857  17.627  43.359  11.902
 5404W        W66858  37.495  39.967  13.002
 5405W        W66859  27.057   1.323  12.846
 5406W        W66860  30.500  39.049  14.364
 5407W        W66861   5.818  18.133  13.501
 5408W        W66862  20.060  29.950   2.350
 5409W        W66863  15.123  31.109  14.014
 5410W        W66864  27.173   1.817   2.380
 5411W        W66865  39.340   1.968  10.533
 5412W        W66866  33.458  15.295  14.766
 5413W        W66867  22.201  35.984   2.881
 5414W        W66868  33.979  37.482  11.990
 5415W        W66869  10.251  19.583  12.943
 5416W        W66870  43.321  18.621   1.846
 5417W        W66871  30.577   4.343  14.763
 5418W        W66872  24.541  16.569   1.278
 5419W        W66873  36.501   1.963   3.296
 5420W        W66874   5.360  18.139   4.156
 5421W        W66875  17.610  38.905  11.090
 5422W        W66876   7.907  24.144   4.826
 5423W        W66877  29.918   9.243   5.660
 5424W        W66878  21.558   7.354   3.208
 5425W        W66879   4.415  38.918  11.948
 5426W        W66880  42.318  42.899   1.450
 5427W        W66881  44.859  43.379   3.691
 5428W        W66882   9.184  29.940   1.772
 5429W        W66883  18.547   8.665  11.007
 5430W        W66884  26.058  11.831   0.928
 5431W        W66885  11.714  40.873  11.604
 5432W        W66886  16.220  11.228   2.251
 5433W        W66887  33.010  17.231   0.864
 5434W        W66888  11.633  19.652   1.866
 5435W        W66889  41.535   6.754  14.022
 5436W        W66890  21.728  21.025   1.726
 5437W        W66891  32.941  37.529   4.312
 5438W        W66892  15.682  42.983  12.504
 5439W        W66893  37.488  43.417  12.399
 5440W        W66894  11.659  22.500   9.972
 5441W        W66895   0.330  11.827   2.733
 5442W        W66896  23.022  38.326   2.870
 5443W        W66897  23.589  44.863   3.290
 5444W        W66898  21.124   5.320   3.754
 5445W        W66899   5.240  10.197  13.373
 5446W        W66900  10.794  16.619   2.859
 5447W        W66901  23.565  14.772  14.417
 5448W        W66902   7.272  16.091   2.754
 5449W        W66903  17.174  28.091   5.271
 5450W        W66904   6.879  21.228  13.872
 5451W        W66905   3.860  13.284   1.414
 5452W        W66906  39.989  43.419   3.246
 5453W        W66907   9.721  39.847  11.522
 5454W        W66908   6.302  39.887  11.898
 5455W        W66909  11.329   7.329   4.615
 5456W        W66910   0.475   2.440  11.465
 5457W        W66911  12.156  15.173   4.238
 5458W        W66912  35.501   2.227  12.076
 5459W        W66913  21.546  10.833  14.866
 5460W        W66914   4.815   7.888  11.585
 5461W        W66915  14.136   5.727  11.016
 5462W        W66916   7.787  19.244   3.157
 5463W        W66917  25.673  22.674   0.740
 5464W        W66918  21.728  10.656   2.723
 5465W        W66919  25.578  42.859  11.049
 5466W        W66920  15.688  10.231   1.834
 5467W        W66921  19.104  31.438  10.983
 5468W        W66922  30.606   4.256  14.493
 5469W        W66923  44.769  19.129  10.438
 5470W        W66924  16.272  30.955  12.558
 5471W        W66925   3.461  13.305  12.452
 5472W        W66926   2.934   7.835   4.798
 5473W        W66927  12.207   6.796   4.133
 5474W        W66928   7.290  37.501  10.601
 5475W        W66929  13.703   1.479   2.184
 5476W        W66930  37.404  18.563  11.092
 5477W        W66931  21.052  23.565  10.491
 5478W        W66932  34.936  11.809   0.323
 5479W        W66933   2.893  25.990   2.341
 5480W        W66934   0.812  34.111  10.484
 5481W        W66935  10.867  44.956   4.163
 5482W        W66936  29.133   2.779  12.083
 5483W        W66937   6.895  12.696  13.806
 5484W        W66938  19.780  14.769   4.342
 5485W        W66939  11.638  13.739  14.321
 5486W        W66940  16.647  18.670  11.862
 5487W        W66941   1.850  21.022  11.478
 5488W        W66942   8.275  10.866  12.421
 5489W        W66943   7.673   4.368  14.904
 5490W        W66944  38.977  10.767   3.163
 5491W        W66945  10.324  22.592   0.283
 5492W        W66946  42.439  18.612  11.976
 5493W        W66947  26.486  36.903   0.880
 5494W        W66948  40.416  19.170  12.864
 5495W        W66949   4.781  13.269  10.061
 5496W        W66950  37.950  35.449  13.422
 5497W        W66951  37.877  21.615   1.366
 5498W        W66952  39.065  33.566  10.949
 5499W        W66953  31.903  37.868   0.420
 5500W        W66954   0.322  34.443   3.164
 5501W        W66955  36.553  31.410  13.044
 5502W        W66956  22.742  16.141   2.831
 5503W        W66957   9.352   4.907  12.347
 5504W        W66958  37.574  19.662   0.883
 5505W        W66959  14.671  32.894  11.105
 5506W        W66960  43.283  10.369  14.972
 5507W        W66961  43.440   9.847   3.798
 5508W        W66962  12.682  11.155  12.380
 5509W        W66963  33.479   0.412   4.282
 5510W        W66964  30.425  32.576  12.355
 5511W        W66965  33.897   6.242   2.300
 5512W        W66966  22.181  34.029  11.897
 5513W        W66967   5.342  20.120  12.851
 5514W        W66968  30.573  37.928  13.507
 5515W        W66969  20.572  26.144  14.975
 5516W        W66970  29.970  38.334   3.200
 5517W        W66971  30.938  24.172  14.354
 5518W        W66972  18.743  37.856   0.925
 5519W        W66973  32.043  32.093   0.252
 5520W        W66974  42.507  29.435  13.435
 5521W        W66975  24.179  19.661  13.975
 5522W        W66976  23.492  37.933   4.762
 5523W        W66977  16.192   3.854  13.875
 5524W        W66978  39.848  23.582   3.803
 5525W        W66979  39.520  25.142  12.494
 5526W        W66980  10.795  15.800   1.231
 5527W        W66981  11.711   4.258   1.719
 5528W        W66982  10.204  28.996  14.026
 5529W        W66983  37.457  19.737  10.074
 5530W        W66984  11.714   6.194   4.783
 5531W        W66985  35.431  24.065  11.977
 5532W        W66986  38.010  34.404  10.471
 5533W        W66987   8.696  38.532  13.031
 5534W        W66988  18.105  26.981  11.509
 5535W        W66989  24.681  16.792   2.328
 5536W        W66990  27.103  40.391  10.955
 5537W        W66991  43.446  30.483  14.503
 5538W        W66992   3.449   5.789   1.391
 5539W        W66993  38.948  11.145  14.516
 5540W        W66994   2.759  20.656  12.452
 5541W        W66995  14.232  28.654   4.348
 5542W        W66996  32.903  25.517  10.606
 5543W        W66997  32.636  29.598   2.346
 5544W        W66998  30.070  19.066  10.416
 5545W        W66999  42.027  18.658   2.822
 5546W        W67000  39.897  31.466   1.910
 5547W        W67001  27.628   9.755  11.986
 5548W        W67002  29.437  44.477   4.281
 5549W        W67003  16.634  38.906  11.857
 5550W        W67004  39.037   0.919   5.317
 5551W        W67005  34.973   0.862   1.723
 5552W        W67006  27.664  11.838  12.475
 5553W        W67007  31.917  23.690   0.905
 5554W        W67008   2.851  25.986   0.937
 5555W        W67009  20.083   8.656   4.599
 5556W        W67010   3.923  40.501  14.379
 5557W        W67011   4.228  42.844   2.896
 5558W        W67012  22.538  12.241   4.631
 5559W        W67013  42.291  32.590  12.976
 5560W        W67014  43.366  24.538   3.639
 5561W        W67015  31.434  10.663   1.842
 5562W        W67016  29.924   6.726  13.418
 5563W        W67017  24.977  14.656  12.063
 5564W        W67018  38.950  37.392   1.757
 5565W        W67019  29.516  30.502   0.306
 5566W        W67020  31.607  25.483   4.181
 5567W        W67021  43.955  26.505  14.972
 5568W        W67022  44.279  42.401   0.807
 5569W        W67023  24.595  40.985  14.024
 5570W        W67024  20.120  25.626   2.194
 5571W        W67025   7.816   0.934  14.334
 5572W        W67026  35.032  22.059  14.449
 5573W        W67027  18.702  37.935   1.797
 5574W        W67028  15.649  26.010   2.342
 5575W        W67029  37.562   4.335  13.541
 5576W        W67030  21.738  15.735   2.823
 5577W        W67031  13.335  40.053   1.866
 5578W        W67032  38.869  25.507   3.350
 5579W        W67033  34.940  15.588  12.955
 5580W        W67034  18.278  14.759   1.821
 5581W        W67035  23.654  39.548   0.948
 5582W        W67036  15.242   7.803  13.515
 5583W        W67037  12.292  18.248   1.817
 5584W        W67038  29.978  23.049   5.767
 5585W        W67039   6.282  41.867   4.819
 5586W        W67040   9.652  41.909  11.925
 5587W        W67041  15.635   5.902  13.981
 5588W        W67042   4.727  14.192  12.941
 5589W        W67043  14.194  29.504   4.718
 5590W        W67044  42.501  42.290  13.891
 5591W        W67045   9.161  28.987   4.343
 5592W        W67046  30.157  25.567  10.598
 5593W        W67047  26.075  35.042   4.129
 5594W        W67048  43.358   0.442   3.653
 5595W        W67049  38.947  31.522  11.563
 5596W        W67050  35.476  41.017  14.826
 5597W        W67051  20.042  14.798   1.800
 5598W        W67052  18.765  14.709  12.888
 5599W        W67053  17.141  16.804   0.889
 5600W        W67054  11.709  41.848   2.781
 5601W        W67055  22.746  27.612   1.363
 5602W        W67056  32.975   3.788  11.398
 5603W        W67057  23.588  35.861  11.531
 5604W        W67058  39.414   8.807   2.852
 5605W        W67059  17.747  41.367   1.277
 5606W        W67060  32.610  19.547  12.339
 5607W        W67061   6.911  39.383  10.496
 5608W        W67062  22.048  33.499   2.891
 5609W        W67063   6.786  10.670   4.650
 5610W        W67064   5.269  41.503  11.434
 5611W        W67065  43.869  20.090  11.471
 5612W        W67066   2.761  28.995   3.266
 5613W        W67067  38.565  22.037   2.726
 5614W        W67068   8.901  23.204   3.272
 5615W        W67069  42.859  17.202   3.260
 5616W        W67070  28.070  30.052  13.516
 5617W        W67071  34.562  27.676  12.424
 5618W        W67072  24.589   0.902  11.380
 5619W        W67073  17.151  40.038   4.694
 5620W        W67074  21.559   7.355  10.962
 5621W        W67075  21.719   8.274   3.723
 5622W        W67076  26.553  20.229   0.966
 5623W        W67077   5.823   3.781   1.363
 5624W        W67078   4.706  39.538   3.151
 5625W        W67079  32.135   7.202   4.190
 5626W        W67080  26.097   3.877  12.486
 5627W        W67081   0.955  22.129   0.796
 5628W        W67082   5.301  32.466  11.955
 5629W        W67083  34.392  26.546  13.527
 5630W        W67084  23.086  11.703   0.928
 5631W        W67085   3.244   9.693   1.930
 5632W        W67086  21.669  43.459   4.672
 5633W        W67087  28.005  15.766   4.639
 5634W        W67088  17.589  10.687  14.985
 5635W        W67089  10.250  44.289   2.355
 5636W        W67090  29.123   1.245   4.754
 5637W        W67091  16.625  17.200  14.774
 5638W        W67092  22.064   5.728  13.548
 5639W        W67093  14.756  36.050   5.096
 5640W        W67094  11.691   8.337  10.445
 5641W        W67095   1.738  32.953  11.025
 5642W        W67096  26.516  21.614   0.896
 5643W        W67097  41.453  31.920  14.302
 5644W        W67098  21.254   3.747   2.699
 5645W        W67099  27.102  11.739  10.582
 5646W        W67100  12.142   8.286  14.020
 5647W        W67101  25.182   9.308  10.485
 5648W        W67102  32.504  22.202  11.037
 5649W        W67103   1.868  18.181   4.152
 5650W        W67104  18.114  39.032  12.077
 5651W        W67105  23.612  38.365  13.954
 5652W        W67106  26.689   6.745  14.874
 5653W        W67107  35.084  16.072  10.632
 5654W        W67108  37.895  11.155   4.605
 5655W        W67109  16.776  21.752  13.405
 5656W        W67110   8.800   6.397   0.406
 5657W        W67111  34.953   3.285  12.073
 5658W        W67112  44.434  39.365   4.744
 5659W        W67113  26.595  33.452   0.292
 5660W        W67114  23.180  34.394   1.286
 5661W        W67115  34.923  22.008   1.926
 5662W        W67116  43.447  15.757  12.907
 5663W        W67117   7.874  26.137   0.837
 5664W        W67118  31.103   1.863   4.631
 5665W        W67119  39.818   3.360  14.898
 5666W        W67120  29.093  13.843  14.502
 5667W        W67121  28.051  21.175  13.975
 5668W        W67122  19.068  25.548   1.447
 5669W        W67123   5.256   1.864   3.243
 5670W        W67124  18.268  14.113  13.840
 5671W        W67125  34.054  17.673   3.815
 5672W        W67126  28.157  14.608  12.554
 5673W        W67127  43.311  11.324   1.382
 5674W        W67128   0.416  41.952   4.116
 5675W        W67129  21.593  27.159  13.328
 5676W        W67130  21.053  26.481   3.774
 5677W        W67131   8.352   5.892  14.885
 5678W        W67132   2.729  33.923   3.855
 5679W        W67133   0.453  21.570  13.883
 5680W        W67134   9.154  24.512   0.842
 5681W        W67135   5.290  24.996   0.826
 5682W        W67136  32.573  11.852  14.351
 5683W        W67137  37.024  14.681   2.307
 5684W        W67138   9.817  41.876  10.445
 5685W        W67139  29.646   0.812   1.747
 5686W        W67140  21.204  20.104  12.023
 5687W        W67141   9.306   1.433  11.567
 5688W        W67142  36.869  27.549   0.813
 5689W        W67143  14.138  29.428  10.602
 5690W        W67144  44.362  31.427   3.352
 5691W        W67145  27.545  13.666   0.814
 5692W        W67146  40.892  39.835  14.400
 5693W        W67147  28.612  39.970  13.885
 5694W        W67148  20.672  29.085  10.448
 5695W        W67149   2.447  10.224   4.351
 5696W        W67150   6.349   8.351  13.454
 5697W        W67151   1.265  29.586   1.445
 5698W        W67152  44.408  43.487   1.303
 5699W        W67153  27.972  32.913  10.442
 5700W        W67154  13.625   8.872  11.056
 5701W        W67155  40.967   3.917  12.477
 5702W        W67156   3.888  40.805  14.918
 5703W        W67157  18.640  11.357  14.397
 5704W        W67158  28.603   5.773  12.480
 5705W        W67159  43.463  24.207   3.372
 5706W        W67160  23.146  42.465  14.764
 5707W        W67161  36.094   5.311  10.575
 5708W        W67162  11.673  28.586  12.509
 5709W        W67163  43.307  34.017   4.340
 5710W        W67164  28.937   7.386   1.336
 5711W        W67165  22.625  36.577  13.795
 5712W        W67166  23.043   3.731  14.381
 5713W        W67167  10.635  29.995   1.934
 5714W        W67168  34.892  15.319   1.344
 5715W        W67169  43.927  44.323   1.763
 5716W        W67170   2.350  18.616  13.538
 5717W        W67171  28.095  26.093  10.630
 5718W        W67172   2.430  28.933   0.451
 5719W        W67173  35.423  35.484   4.617
 5720W        W67174   4.265  43.332  11.924
 5721W        W67175  22.150  20.238   1.827
 5722W        W67176  28.156   4.832  14.795
 5723W        W67177  43.280   1.394   1.756
 5724W        W67178  29.453  22.164  12.079
 5725W        W67179  43.502  37.011   3.386
 5726W        W67180  22.715  28.956  14.877
 5727W        W67181  25.639  38.881   0.443
 5728W        W67182   2.898  33.463   1.837
 5729W        W67183  40.954  27.115   4.836
 5730W        W67184  44.928  21.195   4.662
 5731W        W67185  26.991   2.788  14.401
 5732W        W67186  20.207  44.466   4.117
 5733W        W67187  10.753   4.711   4.297
 5734W        W67188  19.685  40.926   2.357
 5735W        W67189  41.538  18.622  11.598
 5736W        W67190  35.070  29.501   5.162
 5737W        W67191  20.689  13.222   3.776
 5738W        W67192  33.129  34.495  14.347
 5739W        W67193  35.953  30.969   4.291
 5740W        W67194  24.653  44.810   2.215
 5741W        W67195  15.167  43.379  10.409
 5742W        W67196  10.720  26.656  12.371
 5743W        W67197  34.029  30.655  11.887
 5744W        W67198  32.016  40.981  11.049
 5745W        W67199  11.833  21.581  11.899
 5746W        W67200  24.082  43.863   1.886
 5747W        W67201  29.653  30.968  14.285
 5748W        W67202  36.995   6.923  11.024
 5749W        W67203  31.113   6.915  14.357
 5750W        W67204  43.348  31.027   2.891
 5751W        W67205  29.139  34.534   5.268
 5752W        W67206   7.258  39.495   4.349
 5753W        W67207  26.160  24.122   5.301
 5754W        W67208   4.275   5.710   0.770
 5755W        W67209  44.323   9.279   2.734
 5756W        W67210  25.640   6.879  11.926
 5757W        W67211  38.868  29.036   3.248
 5758W        W67212  31.903  41.433  12.060
 5759W        W67213  33.518  39.559   3.817
 5760W        W67214  35.385  35.460  14.869
 5761W        W67215  22.185  32.114  14.894
 5762W        W67216  40.866  31.634   2.745
 5763W        W67217   6.908  38.545   3.160
 5764W        W67218  23.600   1.369  14.878
 5765W        W67219  29.508  28.448   1.932
 5766W        W67220  41.031   4.433  11.535
 5767W        W67221  35.013  13.159   4.343
 5768W        W67222  27.098  33.584   3.719
 5769W        W67223  27.150   8.733   1.857
 5770W        W67224  33.119  10.678   3.254
 5771W        W67225  27.161  36.502   1.861
 5772W        W67226  20.601  41.797  13.033
 5773W        W67227   4.368  21.670   4.200
 5774W        W67228   4.731  16.665   3.373
 5775W        W67229  20.237  35.925   4.670
 5776W        W67230  16.094  32.522  11.125
 5777W        W67231  16.304  25.518   3.669
 5778W        W67232  32.997  30.090  14.435
 5779W        W67233  25.073  24.511  12.888
 5780W        W67234  12.226  12.611   2.732
 5781W        W67235  17.141  39.542  10.989
 5782W        W67236  26.477  37.987  14.405
 5783W        W67237  32.140  18.741  12.376
 5784W        W67238  42.379  36.997  13.941
 5785W        W67239  33.124  16.127  14.987
 5786W        W67240   5.792  39.528   0.933
 5787W        W67241  27.033  25.009   5.316
 5788W        W67242  22.075  39.327   4.240
 5789W        W67243  22.023  44.348  11.403
 5790W        W67244  27.140  21.576  13.339
 5791W        W67245  17.636   5.690  14.806
 5792W        W67246  15.252  35.452   4.658
 5793W        W67247   4.863   0.430  10.527
 5794W        W67248  25.147  33.900  12.072
 5795W        W67249  18.665  16.633  13.375
 5796W        W67250  38.513  15.309   4.215
 5797W        W67251  26.544   1.301  14.434
 5798W        W67252  18.607   6.905  13.035
 5799W        W67253   1.795  44.499   0.422
 5800W        W67254   6.209   0.960   0.451
 5801W        W67255  39.827  34.999  11.889
 5802W        W67256  32.590  36.059  12.986
 5803W        W67257  33.905  20.046   2.890
 5804W        W67258  43.483  26.206   4.737
 5805W        W67259   8.357   8.861   1.869
 5806W        W67260  20.230  19.172   1.343
 5807W        W67261  19.248  31.984   3.757
 5808W        W67262  30.635  15.178  14.414
 5809W        W67263  34.548  17.169  14.007
 5810W        W67264  37.538  15.167   2.757
 5811W        W67265  24.069  43.434   2.188
 5812W        W67266  30.523  25.522  13.944
 5813W        W67267  33.624  24.723  13.032
 5814W        W67268  22.107  44.368  10.557
 5815W        W67269  27.094   5.917  12.552
 5816W        W67270  32.511  11.704   2.396
 5817W        W67271   8.879  21.229   1.840
 5818W        W67272  43.949  19.586   3.687
 5819W        W67273  39.434  34.450  10.611
 5820W        W67274  13.641   8.310  10.954
 5821W        W67275  17.555   6.233   4.718
 5822W        W67276  18.699   7.348  11.554
 5823W        W67277  15.252  10.162  12.058
 5824W        W67278  11.359   3.295  13.421
 5825W        W67279  20.682  14.138  14.824
 5826W        W67280   8.812  26.201   0.957
 5827W        W67281  16.798  24.691   0.949
 5828W        W67282  20.197  14.169  12.344
 5829W        W67283  35.005  15.779   0.298
 5830W        W67284  37.545   9.371   2.222
 5831W        W67285  25.050   4.782   1.255
 5832W        W67286  17.218   7.228   0.791
 5833W        W67287  27.612  11.811   4.277
 5834W        W67288  44.458  20.574  14.808
 5835W        W67289  30.951  33.034   4.280
 5836W        W67290  38.962   8.734  14.499
 5837W        W67291  14.827  25.200  10.525
 5838W        W67292  35.995  40.942  11.391
 5839W        W67293  21.636  37.353  12.005
 5840W        W67294   1.348  18.277   1.836
 5841W        W67295  23.101  29.010  12.833
 5842W        W67296   1.285  42.991  10.546
 5843W        W67297  26.605  13.244  11.601
 5844W        W67298  24.634  12.849   4.325
 5845W        W67299  22.741  12.727  11.110
 5846W        W67300  14.165  37.017   4.754
 5847W        W67301  37.873  43.857  13.888
 5848W        W67302  15.631  39.531   3.833
 5849W        W67303  11.202  32.408   2.181
 5850W        W67304  11.161  12.755   1.753
 5851W        W67305  35.463  27.555  13.483
 5852W        W67306  28.461  30.522   2.361
 5853W        W67307   3.743  10.806  14.861
 5854W        W67308  44.853  17.257   3.302
 5855W        W67309  32.978  11.700  11.434
 5856W        W67310   3.820  31.414  13.975
 5857W        W67311  38.834   9.256   4.722
 5858W        W67312   7.765   7.198   3.317
 5859W        W67313  24.039  12.345   2.399
 5860W        W67314  10.281   0.491   2.209
 5861W        W67315   5.401  10.268  14.027
 5862W        W67316  28.538  40.507   0.770
 5863W        W67317  26.008  38.539   2.839
 5864W        W67318   7.214  37.932  13.312
 5865W        W67319  21.166   5.897  13.372
 5866W        W67320  39.428  31.143  11.082
 5867W        W67321  34.069  16.661   0.300
 5868W        W67322  28.583  25.597   5.802
 5869W        W67323  13.703   5.439  12.509
 5870W        W67324   8.719  20.219   1.743
 5871W        W67325   4.298  27.609  14.319
 5872W        W67326  32.071   4.942   0.389
 5873W        W67327  28.498  34.930  12.835
 5874W        W67328  28.999  25.473  12.447
 5875W        W67329  11.363  10.260  10.959
 5876W        W67330  39.451   3.898  12.970
 5877W        W67331   4.897  15.686   0.918
 5878W        W67332  42.875  25.171   0.425
 5879W        W67333  25.714  28.602   1.342
 5880W        W67334  38.381  42.908  10.920
 5881W        W67335  12.665  33.916   4.300
 5882W        W67336   4.790   3.881   1.904
 5883W        W67337  36.460  38.020  10.505
 5884W        W67338   4.858   7.211   0.380
 5885W        W67339  42.012  44.990  11.468
 5886W        W67340  28.551  36.005  14.370
 5887W        W67341  38.523   1.908  14.872
 5888W        W67342  25.711  30.917  14.456
 5889W        W67343  26.457  23.549  13.475
 5890W        W67344  44.796   4.708  11.496
 5891W        W67345   2.376  18.594  12.869
 5892W        W67346  30.516  37.878  11.598
 5893W        W67347  39.057  25.000   4.326
 5894W        W67348  28.131  35.967   9.976
 5895W        W67349  32.422  13.244   3.858
 5896W        W67350  34.542  11.813   1.422
 5897W        W67351   5.718  15.245   1.425
 5898W        W67352  27.031   6.797  10.922
 5899W        W67353  22.147  35.457  12.082
 5900W        W67354   2.366  30.620  12.540
 5901W        W67355  30.643  14.788  14.474
 5902W        W67356  13.695  37.880  12.408
 5903W        W67357  21.209  33.603   2.299
 5904W        W67358  17.636  34.935   4.781
 5905W        W67359  12.637  23.087  11.897
 5906W        W67360  11.764  22.058  13.870
 5907W        W67361  33.393  38.544   3.708
 5908W        W67362  17.678   5.740  14.448
 5909W        W67363  21.243  26.553   4.784
 5910W        W67364   9.802  16.709  12.021
 5911W        W67365  14.633  26.132   2.839
 5912W        W67366  28.644  22.683   9.594
 5913W        W67367   1.405  34.449  13.961
 5914W        W67368  22.025  33.481  11.103
 5915W        W67369  25.644  37.917  10.964
 5916W        W67370  27.688  44.426  11.937
 5917W        W67371   9.697  34.934  12.358
 5918W        W67372   3.903  26.575  11.469
 5919W        W67373  30.016  37.874   0.387
 5920W        W67374  10.688  19.226   3.811
 5921W        W67375  18.268  30.915   2.783
 5922W        W67376  19.131  21.622  14.801
 5923W        W67377   6.257  16.229   0.927
 5924W        W67378  34.567   0.461   0.454
 5925W        W67379  16.733   4.805  12.924
 5926W        W67380  39.835  30.657   4.341
 5927W        W67381   4.841  15.696   2.333
 5928W        W67382  41.480   2.301  13.364
 5929W        W67383  18.708  22.733   2.858
 5930W        W67384  16.292  11.325  13.470
 5931W        W67385  16.684  12.629  11.420
 5932W        W67386  14.794   3.265   2.785
 5933W        W67387  13.627   3.460   1.449
 5934W        W67388  20.153  14.700   0.758
 5935W        W67389  41.372  21.600  13.933
 5936W        W67390  11.668  39.904  13.059
 5937W        W67391  19.220  23.572  12.364
 5938W        W67392  27.965  12.615   1.307
 5939W        W67393   1.766  43.282   4.693
 5940W        W67394  28.556  19.691  12.547
 5941W        W67395  41.317  35.541  12.352
 5942W        W67396   1.345  27.526   2.740
 5943W        W67397   8.358   1.846   3.814
 5944W        W67398  36.483  43.328  14.022
 5945W        W67399  23.183  12.826  14.952
 5946W        W67400  21.538  26.002  14.305
 5947W        W67401  43.494  26.958   4.680
 5948W        W67402  35.864  14.195  12.555
 5949W        W67403  28.007  31.981  11.930
 5950W        W67404  26.000  26.958   1.213
 5951W        W67405  13.714   1.757   0.273
 5952W        W67406  27.979  31.975   0.421
 5953W        W67407  11.277  25.559  11.128
 5954W        W67408   6.680   2.902   4.205
 5955W        W67409   9.861   1.312  11.386
 5956W        W67410  24.670  10.742  12.999
 5957W        W67411  37.407  29.629   4.615
 5958W        W67412  27.616  21.640  11.415
 5959W        W67413  39.000  33.962   4.175
 5960W        W67414  27.534  20.268  11.525
 5961W        W67415  23.118  19.661   3.171
 5962W        W67416  32.054  23.106   2.855
 5963W        W67417  28.009  31.505  13.415
 5964W        W67418  32.985   9.262   1.895
 5965W        W67419  34.598  32.103  10.599
 5966W        W67420  30.034  33.946   2.764
 5967W        W67421  29.946  37.577  12.396
 5968W        W67422  24.104  18.184   1.731
 5969W        W67423  30.105  26.481  13.308
 5970W        W67424  14.806   6.252   2.340
 5971W        W67425  37.516  27.616   1.901
 5972W        W67426  32.464  12.201  14.449
 5973W        W67427   1.284  11.761  13.815
 5974W        W67428  32.619   4.251  13.422
 5975W        W67429  32.019  18.645   4.312
 5976W        W67430  10.640  14.108   1.247
 5977W        W67431  43.376  33.432   2.258
 5978W        W67432  35.524  39.503  11.872
 5979W        W67433  21.189   6.800  11.423
 5980W        W67434  30.016  24.002  11.966
 5981W        W67435  16.115   2.276   1.435
 5982W        W67436  25.129  27.109  11.392
 5983W        W67437  32.507  17.700   4.118
 5984W        W67438   5.841   7.675   2.359
 5985W        W67439  30.451  33.014  11.392
 5986W        W67440   6.312  36.416  13.920
 5987W        W67441   3.378  24.621  12.390
 5988W        W67442   9.850  16.118   2.256
 5989W        W67443  41.828   6.258   4.244
 5990W        W67444  26.548  20.630  10.636
 5991W        W67445  21.216  10.351   2.673
 5992W        W67446  33.944  23.127  13.349
 5993W        W67447   0.266  23.627   1.934
 5994W        W67448  28.607  17.650   4.335
 5995W        W67449  30.940  23.710  14.850
 5996W        W67450  10.670  34.921   0.417
 5997W        W67451   3.321   7.268   0.329
 5998W        W67452  24.206  32.035   2.378
 5999W        W67453   0.394  25.698  12.341
 6000W        W67454  36.390  11.779   2.202
 6001W        W67455  33.051  25.666  14.383
 6002W        W67456  10.769   3.917  13.529
 6003W        W67457  30.047  30.494  11.380
 6004W        W67458  30.161  13.214  11.108
 6005W        W67459  39.970  12.839   4.738
 6006W        W67460  25.633  26.142  10.944
 6007W        W67461  30.563  22.185   1.894
 6008W        W67462   3.316   4.919  14.288
 6009W        W67463  36.402  16.731  11.513
 6010W        W67464  16.679  25.165   0.834
 6011W        W67465  15.712  33.596  14.859
 6012W        W67466  14.316   9.773  11.042
 6013W        W67467  31.134   4.311  14.998
 6014W        W67468  29.921  14.171   0.953
 6015W        W67469   1.270   6.764   3.669
 6016W        W67470  11.845  43.336  13.430
 6017W        W67471  28.561  21.752   4.606
 6018W        W67472  21.210  16.767   9.939
 6019W        W67473  26.982  39.397   3.250
 6020W        W67474  27.097   3.427  12.466
 6021W        W67475  26.693  19.658   4.824
 6022W        W67476   5.321  41.407  14.901
 6023W        W67477   1.244  42.481  12.954
 6024W        W67478  14.119  17.740  12.008
 6025W        W67479  37.966   2.458   0.727
 6026W        W67480  19.757  37.936  13.368
 6027W        W67481  15.726  40.828   5.199
 6028W        W67482   3.221  39.919  14.475
 6029W        W67483  43.424  24.149   0.734
 6030W        W67484  14.822   9.715   4.267
 6031W        W67485   6.773  15.816  13.042
 6032W        W67486   2.438   5.409   1.776
 6033W        W67487  43.281  32.010   1.846
 6034W        W67488  28.481   3.302  13.425
 6035W        W67489   7.400   1.826  14.478
 6036W        W67490   6.327  27.106  10.627
 6037W        W67491  29.662   3.919   0.439
 6038W        W67492  23.134   2.312  10.460
 6039W        W67493  16.669  19.281   1.879
 6040W        W67494  12.734  36.024   0.807
 6041W        W67495   6.349  27.526   3.821
 6042W        W67496  28.027  28.093   4.769
 6043W        W67497  40.337   9.313   4.661
 6044W        W67498  39.375  30.472  12.460
 6045W        W67499  35.977  32.584   4.806
 6046W        W67500  40.017  15.154  14.953
 6047W        W67501  43.929  37.959   2.340
 6048W        W67502   5.226  22.588  12.917
 6049W        W67503  31.441  20.642  13.004
 6050W        W67504  15.781  15.171   0.469
 6051W        W67505  44.407  22.604  11.953
 6052W        W67506  27.465  28.450   1.923
 6053W        W67507  16.097  22.186  10.406
 6054W        W67508  37.512   6.321   4.818
 6055W        W67509   9.808  35.026   3.680
 6056W        W67510  29.138  11.288   0.838
 6057W        W67511  38.560  15.269  12.574
 6058W        W67512  30.045  25.694   3.855
 6059W        W67513  35.092   4.866  13.365
 6060W        W67514  22.567   6.199  11.877
 6061W        W67515  41.894   4.267  10.909
 6062W        W67516  22.654  11.827  11.033
 6063W        W67517  18.291  21.721   2.250
 6064W        W67518  14.681   4.729   4.114
 6065W        W67519  42.408   8.340  11.568
 6066W        W67520   9.225   4.894  14.436
 6067W        W67521  19.614  16.802  11.432
 6068W        W67522  40.332  28.636   0.806
 6069W        W67523  33.067  32.537   1.403
 6070W        W67524  24.639   8.261   1.431
 6071W        W67525  35.957   5.358  12.976
 6072W        W67526   1.390  13.837   3.300
 6073W        W67527  33.559  12.789   1.826
 6074W        W67528   5.265  33.019   3.166
 6075W        W67529  25.523  25.556   0.823
 6076W        W67530  32.908   5.352  13.347
 6077W        W67531  32.431  20.259   4.320
 6078W        W67532  36.877  38.497  14.809
 6079W        W67533  24.567  31.471   2.311
 6080W        W67534  29.482   8.268  13.386
 6081W        W67535   1.294  36.002  11.928
 6082W        W67536  38.519  38.531  13.062
 6083W        W67537   6.829  28.998   2.205
 6084W        W67538   2.815  25.647  14.845
 6085W        W67539   3.875   8.163  10.456
 6086W        W67540   5.235  35.396  12.563
 6087W        W67541  22.013  19.190  12.011
 6088W        W67542  25.186   2.410   1.862
 6089W        W67543  17.149   3.371  14.308
 6090W        W67544  19.575  30.553  13.433
 6091W        W67545  22.535  32.509  12.369
 6092W        W67546  14.783   2.938   2.207
 6093W        W67547  23.200  13.664  10.917
 6094W        W67548  20.221   5.348   4.681
 6095W        W67549   9.189  28.946  12.532
 6096W        W67550  41.399  22.670  14.406
 6097W        W67551  30.989  30.548   1.334
 6098W        W67552  25.583  28.482  14.825
 6099W        W67553   6.317  21.094   0.255
 6100W        W67554  12.839  20.176   0.262
 6101W        W67555  22.138  18.751   4.133
 6102W        W67556  37.424   5.916  10.404
 6103W        W67557  27.512  23.143   1.702
 6104W        W67558  12.163  11.763  12.544
 6105W        W67559  15.216  37.973   3.171
 6106W        W67560  25.520  34.432  12.995
 6107W        W67561  22.097   8.838   4.200
 6108W        W67562  12.288  43.281  13.833
 6109W        W67563   2.778   3.377   0.264
 6110W        W67564   1.911  42.996   4.811
 6111W        W67565  27.626  31.023  11.938
 6112W        W67566  24.493  29.070  14.954
 6113W        W67567  33.477   0.486   4.681
 6114W        W67568  16.292   6.299   3.699
 6115W        W67569   3.415  39.337  13.464
 6116W        W67570  43.021  13.623  10.906
 6117W        W67571  38.958  39.005   4.770
 6118W        W67572   6.278  23.085  14.314
 6119W        W67573  37.969  11.861  10.989
 6120W        W67574  25.964  44.327   1.870
 6121W        W67575  35.016  22.077   3.808
 6122W        W67576  16.652   5.383  10.449
 6123W        W67577  42.990  39.990   4.246
 6124W        W67578  37.561  32.932  11.949
 6125W        W67579  11.240  14.745   4.266
 6126W        W67580  18.752   8.812  14.290
 6127W        W67581  27.480  23.009   2.380
 6128W        W67582   3.721  20.222   0.781
 6129W        W67583  32.944   7.756   1.211
 6130W        W67584  29.025   7.405  11.478
 6131W        W67585  11.178  32.636   4.313
 6132W        W67586  30.626  32.016  13.936
 6133W        W67587  26.547  15.163  10.628
 6134W        W67588  26.552  13.805  11.601
 6135W        W67589  31.910   4.791  10.572
 6136W        W67590   4.293   0.422  12.436
 6137W        W67591   0.358  22.685  14.516
 6138W        W67592  12.149  12.664   1.870
 6139W        W67593  20.525  44.891  11.862
 6140W        W67594  35.985  16.805   0.952
 6141W        W67595  21.099  26.142   2.248
 6142W        W67596  31.124  14.250   1.748
 6143W        W67597  29.497  13.323  10.543
 6144W        W67598  22.224  44.415  14.398
 6145W        W67599  18.276  43.305  12.892
 6146W        W67600   9.868   2.853  11.582
 6147W        W67601  16.179  34.002  11.592
 6148W        W67602   5.842  23.041   1.268
 6149W        W67603  13.277  29.011  10.074
 6150W        W67604   7.808   6.317   4.629
 6151W        W67605   3.310  29.115  10.535
 6152W        W67606   6.823  26.461  12.474
 6153W        W67607  19.141  37.557  11.015
 6154W        W67608  14.763  32.471   0.377
 6155W        W67609  14.271  36.871  10.127
 6156W        W67610  34.477   9.818  14.482
 6157W        W67611  17.260  39.538  14.007
 6158W        W67612   0.765   1.404   1.316
 6159W        W67613  38.916  24.030   1.857
 6160W        W67614  35.102  19.736   4.709
 6161W        W67615   9.777  12.221   4.687
 6162W        W67616   7.720  30.526  11.077
 6163W        W67617  30.992  17.668  11.046
 6164W        W67618  32.592  42.423   0.247
 6165W        W67619  11.676  26.609  11.981
 6166W        W67620  19.042  18.133   0.831
 6167W        W67621   8.869   7.411   2.830
 6168W        W67622  42.879  30.639   9.958
 6169W        W67623  15.805  29.474   1.212
 6170W        W67624  35.898   8.211   2.741
 6171W        W67625  30.648   2.303  10.115
 6172W        W67626   8.662  17.290   0.861
 6173W        W67627  11.151  10.258   1.927
 6174W        W67628  12.184  10.362   1.849
 6175W        W67629  12.714  15.584   2.662
 6176W        W67630  25.483  24.083   4.183
 6177W        W67631   9.871  30.932   4.715
 6178W        W67632  36.403  12.776   3.186
 6179W        W67633  41.444  21.578  11.506
 6180W        W67634  22.182  21.512   0.859
 6181W        W67635  16.779  10.172   4.202
 6182W        W67636   5.803  44.470   1.776
 6183W        W67637  35.379  40.519   0.269
 6184W        W67638  17.061  18.561  14.814
 6185W        W67639  42.376  31.520   3.828
 6186W        W67640  14.128  28.056  12.540
 6187W        W67641  34.551  25.702   2.241
 6188W        W67642  27.620   2.306   3.283
 6189W        W67643   4.403  24.637  12.911
 6190W        W67644   6.306  40.422   4.342
 6191W        W67645  31.093   2.827  11.989
 6192W        W67646  25.116  19.216  14.300
 6193W        W67647  31.030   2.293   4.707
 6194W        W67648  37.076  39.837  13.479
 6195W        W67649  20.114  35.980   4.190
 6196W        W67650  28.438  12.309   0.270
 6197W        W67651   1.422   9.162   1.335
 6198W        W67652   2.251  44.414  13.505
 6199W        W67653  22.221  15.208  10.457
 6200W        W67654   6.357  14.821   1.717
 6201W        W67655   5.238  15.591   0.412
 6202W        W67656  10.804  29.656   3.339
 6203W        W67657   6.427   8.328   3.766
 6204W        W67658  31.643   3.325   2.705
 6205W        W67659  31.007  42.778  11.987
 6206W        W67660  27.579   2.913  14.974
 6207W        W67661  35.858   9.282   1.254
 6208W        W67662  19.260  36.003   0.348
 6209W        W67663  28.665   6.707   0.461
 6210W        W67664  10.347  18.547   2.900
 6211W        W67665  19.676  11.347   3.672
 6212W        W67666  15.149  23.532   1.872
 6213W        W67667  34.020  29.446   4.147
 6214W        W67668  10.772   3.346  11.004
 6215W        W67669  32.636  23.572   3.319
 6216W        W67670  36.991  23.489  11.404
 6217W        W67671   0.424  26.688  14.363
 6218W        W67672   0.903  14.295   1.768
 6219W        W67673  37.949  34.097   0.778
 6220W        W67674  38.945  33.419   0.775
 6221W        W67675   9.267  38.546   1.855
 6222W        W67676  42.495  14.234  12.435
 6223W        W67677  20.545   2.840  13.975
 6224W        W67678  37.396  18.164  10.955
 6225W        W67679  10.800  33.625  11.376
 6226W        W67680   7.337  27.530  12.560
 6227W        W67681  34.493  36.552  12.944
 6228W        W67682  44.772  28.147   3.664
 6229W        W67683  35.045   0.869  14.329
 6230W        W67684  37.935  31.599  12.893
 6231W        W67685  11.311  22.010   4.794
 6232W        W67686   4.301  29.429  14.928
 6233W        W67687   6.785  17.255   1.299
 6234W        W67688   7.264  15.193  13.479
 6235W        W67689  11.749  20.698  13.476
 6236W        W67690  43.971  42.876  13.984
 6237W        W67691  36.443   0.322  10.439
 6238W        W67692  10.263   6.783   0.783
 6239W        W67693  12.846  44.949   0.826
 6240W        W67694   8.889   8.191  12.556
 6241W        W67695  30.565  23.206   0.365
 6242W        W67696  30.636  16.638  10.941
 6243W        W67697  22.703  31.439  12.442
 6244W        W67698  30.071  30.043   0.463
 6245W        W67699   0.428  27.987  14.788
 6246W        W67700  11.223  37.383  11.512
 6247W        W67701  10.696  26.045   3.727
 6248W        W67702  34.087  24.012   0.451
 6249W        W67703  35.425  28.533   2.674
 6250W        W67704  41.029  41.375  11.993
 6251W        W67705  10.230  22.156  10.494
 6252W        W67706  25.117   3.754  12.096
 6253W        W67707  37.001  33.886  14.982
 6254W        W67708   9.697  35.924  10.924
 6255W        W67709   8.281  28.129  11.428
 6256W        W67710  31.013  32.467   0.771
 6257W        W67711  29.659  20.104  10.933
 6258W        W67712   4.789  14.629  11.003
 6259W        W67713  39.510  34.392  10.897
 6260W        W67714  26.577   0.883  10.486
 6261W        W67715  19.592   6.794  13.350
 6262W        W67716  13.809  36.083  10.568
 6263W        W67717  28.539   0.486  11.609
 6264W        W67718  21.628   2.252  13.375
 6265W        W67719   0.819  15.226   0.819
 6266W        W67720  29.521  33.570  12.845
 6267W        W67721   7.794  36.861   4.272
 6268W        W67722  13.169  37.884   5.773
 6269W        W67723  35.019  40.460   5.180
 6270W        W67724  26.468  41.382   3.842
 6271W        W67725  39.964  32.088   1.910
 6272W        W67726  34.534  21.658   0.248
 6273W        W67727  21.584   1.932   1.448
 6274W        W67728   8.257   3.835   3.359
 6275W        W67729   1.816  33.542  11.893
 6276W        W67730  28.472  35.581   2.785
 6277W        W67731   9.644  28.185   1.878
 6278W        W67732  44.823  24.695  14.345
 6279W        W67733   1.844   6.373   0.423
 6280W        W67734  29.526  10.378   1.231
 6281W        W67735  38.478  23.667   2.798
 6282W        W67736   7.672  13.650   1.728
 6283W        W67737  43.894  21.551   2.385
 6284W        W67738  23.081  39.937   3.365
 6285W        W67739   9.228  13.346   4.323
 6286W        W67740  23.700  42.319  11.909
 6287W        W67741  30.420  17.145   4.166
 6288W        W67742  11.679  32.482  14.516
 6289W        W67743   4.746  37.467  13.859
 6290W        W67744  15.748  22.252   0.372
 6291W        W67745  11.243  26.460  12.432
 6292W        W67746  33.085   3.846   2.208
 6293W        W67747   8.724  29.644  14.970
 6294W        W67748  20.673  21.211   1.775
 6295W        W67749   7.690  18.718   4.122
 6296W        W67750  12.314   1.440  13.812
 6297W        W67751   4.350  22.212   0.446
 6298W        W67752  21.176  21.720   0.747
 6299W        W67753  22.046  13.704   0.807
 6300W        W67754  36.492  16.259  10.580
 6301W        W67755  22.623  17.275   0.859
 6302W        W67756  14.833  38.929  14.991
 6303W        W67757  33.608  20.663  12.906
 6304W        W67758  11.195   5.273  12.857
 6305W        W67759   3.362  41.823   3.334
 6306W        W67760  31.574  22.209  12.570
 6307W        W67761   0.376  33.055   4.354
 6308W        W67762  23.027  44.377  10.624
 6309W        W67763  43.944  10.363   1.751
 6310W        W67764  40.973  31.065  10.635
 6311W        W67765  43.323   6.342   1.873
 6312W        W67766  42.971  38.829  13.327
 6313W        W67767  19.196  18.111   1.867
 6314W        W67768  26.963  22.077   0.336
 6315W        W67769   8.385   3.423   0.483
 6316W        W67770  28.169  26.673   1.785
 6317W        W67771  43.509  20.160  11.522
 6318W        W67772  33.496  32.134   3.827
 6319W        W67773  32.007  33.017   9.961
 6320W        W67774  13.663   9.686   4.615
 6321W        W67775  36.036  29.986  11.558
 6322W        W67776  15.313  40.430   2.789
 6323W        W67777  23.047  16.649   1.801
 6324W        W67778  33.896  20.063  14.294
 6325W        W67779  16.659   5.823   0.348
 6326W        W67780  14.340  34.563  10.965
 6327W        W67781  16.166  39.371  14.897
 6328W        W67782  10.255  40.542  11.997
 6329W        W67783  29.963  25.182  12.885
 6330W        W67784  19.649  38.452  14.342
 6331W        W67785  15.291  19.542  14.796
 6332W        W67786   7.408  44.307   3.283
 6333W        W67787  36.868   7.242  10.430
 6334W        W67788  32.044  34.515  13.434
 6335W        W67789  28.010  42.283   3.379
 6336W        W67790  25.038   0.439  14.469
 6337W        W67791  41.411  36.972  14.955
 6338W        W67792   6.681   5.915   1.413
 6339W        W67793  27.517  17.733   2.872
 6340W        W67794  12.719  42.340  12.929
 6341W        W67795  43.966   4.252   4.685
 6342W        W67796  27.448  31.062   4.348
 6343W        W67797  24.608  29.501   0.394
 6344W        W67798  42.918  27.635  10.486
 6345W        W67799  24.074  34.068  10.608
 6346W        W67800  10.753  22.574   2.704
 6347W        W67801  41.007  22.069   2.310
 6348W        W67802  29.589  32.536  12.893
 6349W        W67803  42.440  40.011  13.881
 6350W        W67804  18.119  38.498   3.247
 6351W        W67805   3.818  42.334  11.486
 6352W        W67806  10.851  39.468   2.723
 6353W        W67807   9.217  30.971   4.325
 6354W        W67808  29.165   1.743   4.148
 6355W        W67809  36.913   5.891  10.489
 6356W        W67810  24.531  16.286  11.579
 6357W        W67811  33.509   2.258   0.411
 6358W        W67812  30.983  13.746   4.605
 6359W        W67813  19.670  32.456   2.214
 6360W        W67814  21.711   4.227  13.396
 6361W        W67815  19.760   8.249   3.697
 6362W        W67816   1.771  44.335   3.745
 6363W        W67817  39.956  29.619   1.414
 6364W        W67818  43.960  36.001   4.743
 6365W        W67819  28.972  41.411  10.946
 6366W        W67820  13.726  24.655   2.788
 6367W        W67821  20.238  25.067   0.451
 6368W        W67822  35.466  39.946  13.547
 6369W        W67823  34.014   6.904   2.324
 6370W        W67824  12.810  11.768  11.491
 6371W        W67825  21.031  17.261  12.393
 6372W        W67826   5.207  14.738   2.861
 6373W        W67827  41.948  10.847   4.173
 6374W        W67828  16.805  13.823   4.117
 6375W        W67829  37.447   0.248  12.522
 6376W        W67830  19.271  16.257   1.361
 6377W        W67831  21.607  41.355  14.004
 6378W        W67832  25.078  21.754  13.546
 6379W        W67833  26.976   1.442   3.309
 6380W        W67834  44.972   0.402   0.905
 6381W        W67835  21.617   4.929   0.914
 6382W        W67836  43.410  15.699   4.782
 6383W        W67837  20.211  37.517   5.158
 6384W        W67838  27.548   2.844  11.121
 6385W        W67839  32.096  30.073  11.468
 6386W        W67840  21.116   7.271  13.803
 6387W        W67841  42.941   8.734  12.012
 6388W        W67842  38.045  20.147  11.471
 6389W        W67843  29.028  19.619   3.741
 6390W        W67844  40.308  10.865   4.295
 6391W        W67845   0.784  17.578   4.818
 6392W        W67846  28.535  22.684   5.605
 6393W        W67847  35.371  42.408  12.929
 6394W        W67848  11.631   5.434   1.423
 6395W        W67849   8.743  11.180  12.943
 6396W        W67850  32.118  22.194  12.462
 6397W        W67851  23.053   1.296  13.476
 6398W        W67852   3.942  29.154   3.272
 6399W        W67853   8.832  17.195  13.319
 6400W        W67854   9.201   1.882   2.901
 6401W        W67855  27.121   5.347  13.481
 6402W        W67856   9.197  12.853  10.916
 6403W        W67857  38.018  25.682   4.191
 6404W        W67858  43.775   7.304   0.951
 6405W        W67859   2.278  22.066  13.476
 6406W        W67860   5.278  16.599   4.319
 6407W        W67861   4.400  36.072  13.371
 6408W        W67862  41.451  27.512  12.388
 6409W        W67863  11.314  38.014  12.492
 6410W        W67864   4.872  27.112   0.804
 6411W        W67865  23.549  44.947   0.242
 6412W        W67866  40.851  37.514   0.266
 6413W        W67867  21.062   0.453  11.078
 6414W        W67868  17.083  25.182  13.432
 6415W        W67869  30.968   6.712  12.503
 6416W        W67870  34.587  22.709   2.865
 6417W        W67871  33.070   5.418   0.841
 6418W        W67872  13.256  24.012  14.296
 6419W        W67873   1.818  30.472   1.395
 6420W        W67874  31.137   0.916  13.933
 6421W        W67875  35.972  41.501  11.949
 6422W        W67876  28.463  21.635  11.532
 6423W        W67877   8.267  16.571   3.286
 6424W        W67878  38.859  36.906  14.337
 6425W        W67879  15.302  41.018  10.485
 6426W        W67880  42.382  32.568   0.380
 6427W        W67881  22.009  21.517  13.967
 6428W        W67882  16.101  11.223  13.049
 6429W        W67883   4.299  21.143  11.010
 6430W        W67884   0.313  44.829  14.389
 6431W        W67885  22.039  13.180   4.672
 6432W        W67886   3.361  26.656   1.339
 6433W        W67887   6.310  40.532   3.315
 6434W        W67888  11.259  23.605  10.475
 6435W        W67889   5.410  12.347   1.369
 6436W        W67890  32.911   9.654  10.508
 6437W        W67891  23.226  20.247   4.599
 6438W        W67892  11.625  27.955  14.015
 6439W        W67893  16.141  40.048   3.805
 6440W        W67894  26.683  43.503   2.687
 6441W        W67895  35.927  35.897  13.949
 6442W        W67896  22.687   4.905   0.412
 6443W        W67897  27.497  32.071   5.613
 6444W        W67898  29.126   1.464   1.858
 6445W        W67899  31.965  42.448  11.605
 6446W        W67900  39.365  37.996  13.378
 6447W        W67901   1.342  24.189  11.119
 6448W        W67902   4.802  44.380  13.852
 6449W        W67903  15.196  15.822   0.875
 6450W        W67904   0.435   3.221  14.352
 6451W        W67905   3.882  20.708  11.060
 6452W        W67906  33.466  19.664   2.315
 6453W        W67907  39.361  30.463  11.010
 6454W        W67908  41.929  32.569   0.866
 6455W        W67909  13.164   4.207   4.658
 6456W        W67910  15.647   7.210   2.769
 6457W        W67911  28.167  16.753  13.469
 6458W        W67912  11.763  26.521   1.919
 6459W        W67913   8.380  21.689   4.744
 6460W        W67914  23.168   9.350  11.885
 6461W        W67915  25.080  34.940   5.201
 6462W        W67916  14.219  42.783   0.265
 6463W        W67917  20.165  20.542   0.483
 6464W        W67918  36.074  36.944  14.407
 6465W        W67919  13.218  31.932   0.298
 6466W        W67920   1.755  44.359  14.982
 6467W        W67921  34.499  26.059  13.526
 6468W        W67922  29.633  39.971   0.453
 6469W        W67923  18.205  19.044   1.877
 6470W        W67924  28.087  36.045   3.655
 6471W        W67925   6.822   5.296  11.982
 6472W        W67926  28.058  33.035  14.946
 6473W        W67927  13.205  25.474  13.052
 6474W        W67928  44.419  31.452   0.727
 6475W        W67929  40.426  13.138  11.881
 6476W        W67930  29.042  29.060  14.886
 6477W        W67931  22.504  22.190  12.829
 6478W        W67932  30.010   7.313  12.074
 6479W        W67933  31.125  42.992  14.782
 6480W        W67934  34.396  19.044   3.773
 6481W        W67935  11.729  43.307  14.763
 6482W        W67936  35.429  30.634  10.590
 6483W        W67937  32.072  25.616   4.255
 6484W        W67938  20.718  32.975  13.993
 6485W        W67939  22.117  20.147   4.313
 6486W        W67940  35.471   1.821  14.411
 6487W        W67941  34.385  23.048  12.550
 6488W        W67942   2.277  20.716  14.277
 6489W        W67943  22.650   9.787   4.167
 6490W        W67944  36.359  31.623  10.555
 6491W        W67945  36.891  24.042  10.553
 6492W        W67946  44.259  42.472   1.330
 6493W        W67947  24.179  34.439   5.301
 6494W        W67948  30.127  22.723   4.118
 6495W        W67949  26.168   6.351  10.965
 6496W        W67950  35.590  17.226   1.720
 6497W        W67951  22.054  25.644  13.316
 6498W        W67952  22.052   9.677  10.506
 6499W        W67953  41.040  38.894   1.448
 6500W        W67954  44.929   5.344   1.323
 6501W        W67955  32.552  42.011   4.771
 6502W        W67956  25.000  12.180   2.391
 6503W        W67957  26.164  22.112   3.834
 6504W        W67958  30.093  16.675   4.779
 6505W        W67959  15.624  40.883   0.304
 6506W        W67960  14.185  38.984  13.474
 6507W        W67961  39.445   2.242  10.616
 6508W        W67962   4.779  11.328  13.880
 6509W        W67963  17.661  23.034  12.548
 6510W        W67964   1.429  17.283   2.779
 6511W        W67965  35.101  19.538  10.609
 6512W        W67966  19.194  19.622   2.351
 6513W        W67967  19.744  19.049  14.860
 6514W        W67968  11.780   8.218  12.845
 6515W        W67969  29.979  13.652   2.700
 6516W        W67970  38.436  40.047  10.527
 6517W        W67971   2.798  22.614  13.849
 6518W        W67972  43.363  32.434   4.784
 6519W        W67973  24.497  22.189  14.957
 6520W        W67974   2.866  38.457  11.564
 6521W        W67975  34.031   5.824  14.476
 6522W        W67976  17.142  17.599  12.411
 6523W        W67977  22.046  10.648   4.761
 6524W        W67978  28.663  40.336   4.731
 6525W        W67979  38.464  17.712  12.499
 6526W        W67980  18.709   7.815   1.447
 6527W        W67981   2.728   8.828   2.310
 6528W        W67982  41.404  28.626   3.734
 6529W        W67983  22.686  10.230   2.372
 6530W        W67984   4.824   2.786  10.436
 6531W        W67985   8.839  38.336  14.469
 6532W        W67986  43.889  25.116  11.440
 6533W        W67987  20.193  37.440  13.390
 6534W        W67988  29.137  42.853  13.023
 6535W        W67989  41.022  40.949   3.806
 6536W        W67990  26.602  29.606  14.365
 6537W        W67991  22.590  38.889  11.437
 6538W        W67992  33.957  12.749  11.475
 6539W        W67993  13.204  15.615   0.920
 6540W        W67994   7.806  33.517  13.919
 6541W        W67995  20.110  34.966  11.524
 6542W        W67996  27.632  30.437   5.304
 6543W        W67997  32.905  32.900   4.799
 6544W        W67998  23.221  11.256   9.486
 6545W        W67999  29.536  35.852   2.694
 6546W        W68000  40.891  33.541   1.413
 6547W        W68001   9.307  12.243  12.846
 6548W        W68002  33.886  24.227  12.065
 6549W        W68003  29.997  25.964  11.520
 6550W        W68004   7.183  34.375   3.378
 6551W        W68005  33.542  20.217   3.804
 6552W        W68006  18.575  13.240   1.233
 6553W        W68007  17.562  27.469   3.769
 6554W        W68008  19.099  10.871   4.663
 6555W        W68009  42.509  18.076   4.338
 6556W        W68010  31.915  35.962  11.909
 6557W        W68011   4.710  40.350   0.276
 6558W        W68012  15.821  33.939   0.914
 6559W        W68013  12.350  22.241  14.504
 6560W        W68014  38.985   7.323  10.972
 6561W        W68015   9.816  25.206   0.738
 6562W        W68016  20.137  31.963   3.164
 6563W        W68017  41.326  23.628   1.292
 6564W        W68018   5.195   8.889  11.538
 6565W        W68019   8.370  43.408  13.308
 6566W        W68020   5.803  31.978   0.270
 6567W        W68021  10.261  14.638  12.378
 6568W        W68022  22.518   2.289  11.424
 6569W        W68023   4.357  42.802  13.460
 6570W        W68024   1.886  32.489  11.020
 6571W        W68025  34.088  27.577   2.234
 6572W        W68026  27.582   4.278  14.869
 6573W        W68027   6.890  20.657   1.798
 6574W        W68028  13.317   6.193  11.901
 6575W        W68029  10.165  38.555   0.316
 6576W        W68030  41.953  11.666   3.378
 6577W        W68031  12.258  31.091  13.342
 6578W        W68032  19.631   4.807   4.768
 6579W        W68033   4.848  37.851   2.293
 6580W        W68034   9.849  33.973   1.415
 6581W        W68035  35.984   0.750   1.261
 6582W        W68036  36.382  20.223   1.237
 6583W        W68037   4.422  38.337  13.404
 6584W        W68038   9.765   7.266   3.695
 6585W        W68039  11.770  23.601   3.298
 6586W        W68040  26.489  38.444  12.446
 6587W        W68041  21.157  14.222   2.709
 6588W        W68042  16.174  29.150   0.296
 6589W        W68043  36.920  21.076  12.062
 6590W        W68044   8.402   7.378  12.575
 6591W        W68045  11.282  31.038   4.212
 6592W        W68046   6.387   2.814   2.346
 6593W        W68047  16.738   9.293   4.296
 6594W        W68048  26.061  33.585  14.856
 6595W        W68049  26.158  13.695   0.316
 6596W        W68050  28.078  31.022   5.255
 6597W        W68051  43.834  21.739   1.920
 6598W        W68052  27.163  32.448   3.718
 6599W        W68053  25.043  11.344  13.331
 6600W        W68054  32.029  16.153   4.810
 6601W        W68055   9.858  26.544  13.866
 6602W        W68056  14.774  37.932   4.311
 6603W        W68057  36.851  38.031   1.226
 6604W        W68058   7.220  35.537   0.879
 6605W        W68059  22.515  17.306  11.089
 6606W        W68060  31.911  37.849  11.410
 6607W        W68061  28.987   0.758  10.464
 6608W        W68062  37.977  31.053   2.222
 6609W        W68063  36.537  28.578  14.328
 6610W        W68064  18.610  40.340   4.206
 6611W        W68065   5.392  42.871  13.314
 6612W        W68066  24.560   5.315  12.002
 6613W        W68067  30.012  14.796  12.063
 6614W        W68068  40.321  34.977  11.413
 6615W        W68069  28.526  11.298   3.373
 6616W        W68070  43.002   5.400  11.576
 6617W        W68071   2.768  35.458   1.304
 6618W        W68072   7.759  16.121  13.344
 6619W        W68073  19.543   2.762   0.251
 6620W        W68074  31.515  42.006   3.387
 6621W        W68075  42.998  10.665   0.311
 6622W        W68076   4.939  29.430  12.000
 6623W        W68077  43.271  21.033   0.945
 6624W        W68078   3.740  23.707   5.265
 6625W        W68079  24.083  20.624   2.827
 6626W        W68080   5.362  29.041  13.400
 6627W        W68081  28.073   3.717   4.204
 6628W        W68082  15.166  12.295   0.915
 6629W        W68083  38.871   9.243   1.365
 6630W        W68084   1.422  36.402  14.432
 6631W        W68085  35.545  42.282   4.658
 6632W        W68086  34.053  22.132   3.283
 6633W        W68087  32.439  28.152  13.037
 6634W        W68088  34.875  28.606   1.250
 6635W        W68089  38.450   9.866   2.399
 6636W        W68090  12.735  32.053   3.330
 6637W        W68091   9.837  40.831  13.909
 6638W        W68092   2.917  27.456  14.789
 6639W        W68093   8.769  40.390   4.765
 6640W        W68094  24.693   2.452  10.460
 6641W        W68095  12.267  30.508   0.870
 6642W        W68096   8.235   5.715   2.224
 6643W        W68097  32.899  25.135   1.356
 6644W        W68098  39.522  43.462  13.333
 6645W        W68099   3.413  27.174  13.476
 6646W        W68100  26.625  32.506   2.216
 6647W        W68101   7.881  27.579  10.992
 6648W        W68102  39.887  35.597  13.352
 6649W        W68103  23.671  32.097   4.763
 6650W        W68104  15.595  35.980   0.358
 6651W        W68105  13.119  30.543   4.831
 6652W        W68106  20.060  32.483   1.782
 6653W        W68107  44.929  31.933  12.010
 6654W        W68108  14.818  44.973  14.456
 6655W        W68109   5.875  17.596   1.776
 6656W        W68110   4.718  16.660   2.191
 6657W        W68111  20.723   8.874  14.426
 6658W        W68112  36.989  42.983  11.489
 6659W        W68113  40.443  10.184  14.860
 6660W        W68114  12.743  25.696   2.791
 6661W        W68115   0.939   6.712   3.704
 6662W        W68116  36.075  38.044   2.892
 6663W        W68117  17.238  28.968   1.241
 6664W        W68118   9.676  28.550   4.793
 6665W        W68119  38.024  33.531  13.850
 6666W        W68120  13.818  27.538   2.215
 6667W        W68121  32.926  10.861  12.020
 6668W        W68122  20.757  27.569   4.795
 6669W        W68123   0.969  41.984  14.989
 6670W        W68124  24.121  29.605  13.323
 6671W        W68125  14.652   4.900  11.454
 6672W        W68126   7.736  34.891   4.770
 6673W        W68127  14.122  35.026  10.558
 6674W        W68128   3.306  40.896  11.105
 6675W        W68129  36.391   0.865  10.014
 6676W        W68130   6.775   1.258  12.059
 6677W        W68131   9.784  12.226   1.720
 6678W        W68132  13.285  43.410   2.847
 6679W        W68133  41.034   3.214   0.873
 6680W        W68134  36.537  11.228   0.435
 6681W        W68135  22.155  20.252  14.857
 6682W        W68136  43.936  35.857   1.831
 6683W        W68137  25.190   4.217   2.221
 6684W        W68138  25.646  26.537  12.406
 6685W        W68139  25.037   8.166  10.464
 6686W        W68140   7.691   9.360  12.393
 6687W        W68141   1.775  23.583   0.434
 6688W        W68142  20.048  18.202   0.856
 6689W        W68143  17.725   0.839   2.715
 6690W        W68144  33.381  28.966  12.539
 6691W        W68145   5.846  29.989  12.871
 6692W        W68146  15.239  30.431  14.818
 6693W        W68147  25.182  22.747   3.657
 6694W        W68148  19.619  25.686   0.428
 6695W        W68149  13.184  12.841   3.820
 6696W        W68150  27.563  37.368   4.710
 6697W        W68151  15.589  37.081   1.926
 6698W        W68152  32.609  33.592   2.831
 6699W        W68153  42.504  20.752  11.396
 6700W        W68154  20.195   3.777  13.047
 6701W        W68155  10.790  41.427  12.866
 6702W        W68156   9.881  41.496   0.247
 6703W        W68157  26.161  13.326  14.450
 6704W        W68158  12.353  28.515   4.627
 6705W        W68159  10.876   8.196   3.219
 6706W        W68160  19.083  35.558   1.796
 6707W        W68161  43.270   9.337   3.302
 6708W        W68162  37.068  22.520   2.775
 6709W        W68163  18.223  38.916  12.830
 6710W        W68164  34.393  40.548   3.148
 6711W        W68165  34.611  33.042   3.307
 6712W        W68166  14.170  42.897  11.119
 6713W        W68167  18.722  23.595  13.373
 6714W        W68168  29.157   5.787  11.076
 6715W        W68169   5.418  35.951   1.850
 6716W        W68170  42.456   4.250  13.371
 6717W        W68171  41.529  26.604  11.973
 6718W        W68172  19.747  21.229  10.906
 6719W        W68173  18.774  39.473   4.752
 6720W        W68174  39.533  16.730  14.425
 6721W        W68175  27.610  31.988   2.237
 6722W        W68176   6.231  39.950   4.338
 6723W        W68177  23.515  18.163  12.833
 6724W        W68178  13.269  29.920   1.853
 6725W        W68179  36.382  40.811  12.918
 6726W        W68180  11.786  27.096  14.905
 6727W        W68181  21.105   8.819  11.889
 6728W        W68182   5.743  16.097  14.881
 6729W        W68183  27.549   2.371   2.817
 6730W        W68184   6.400   9.697  13.323
 6731W        W68185   8.850   5.756   2.754
 6732W        W68186  28.570  24.532   1.919
 6733W        W68187  15.811  34.383  10.158
 6734W        W68188  16.687  11.357  12.879
 6735W        W68189  18.709   3.241   3.686
 6736W        W68190  31.625  40.366   4.691
 6737W        W68191  29.507  29.156  14.375
 6738W        W68192  11.289  28.100  13.954
 6739W        W68193   1.839  33.989   4.734
 6740W        W68194  17.063   4.222   1.354
 6741W        W68195   5.916  16.280  12.875
 6742W        W68196  21.201  34.081  11.399
 6743W        W68197   0.922   9.676  10.600
 6744W        W68198  37.368  41.813  11.920
 6745W        W68199  42.807  17.173   1.380
 6746W        W68200   0.411  19.138   1.414
 6747W        W68201   3.389  22.075   1.348
 6748W        W68202  39.487  34.462   2.871
 6749W        W68203  12.203  11.266   0.369
 6750W        W68204  25.502  37.354   5.294
 6751W        W68205   0.480   0.388   2.218
 6752W        W68206   6.406  22.232  11.014
 6753W        W68207  20.555  44.292   1.871
 6754W        W68208  23.578  18.172  13.540
 6755W        W68209  14.833  13.154   2.231
 6756W        W68210  16.764   2.793   3.862
 6757W        W68211  25.568  28.092   0.376
 6758W        W68212  34.403  34.112  10.911
 6759W        W68213  20.578  24.683  11.469
 6760W        W68214  27.525   9.840   2.805
 6761W        W68215  32.894  28.499  12.432
 6762W        W68216  41.335   2.324  12.017
 6763W        W68217  26.611   9.871   0.837
 6764W        W68218  29.622  19.068  12.576
 6765W        W68219  42.516   9.712   0.824
 6766W        W68220  44.974   1.320   0.267
 6767W        W68221  22.119  36.367  14.371
 6768W        W68222   6.234   2.249  10.966
 6769W        W68223  37.000  31.623   4.799
 6770W        W68224  12.166   8.190   0.310
 6771W        W68225  15.213  17.580   2.856
 6772W        W68226   3.220  26.690   2.251
 6773W        W68227  31.062  40.398  12.854
 6774W        W68228  14.817  28.602   1.447
 6775W        W68229   4.415  40.497   1.716
 6776W        W68230   7.222  43.822  10.907
 6777W        W68231  41.299   1.736   1.340
 6778W        W68232   3.283   7.777  12.835
 6779W        W68233  22.703  28.147   5.236
 6780W        W68234  15.600   6.270  13.942
 6781W        W68235  23.237   6.922   4.279
 6782W        W68236  23.222  43.833  11.537
 6783W        W68237  12.262  16.302   3.644
 6784W        W68238   9.772  38.026  10.541
 6785W        W68239  31.406   9.203   5.215
 6786W        W68240  41.398  30.031  14.414
 6787W        W68241  24.536  22.051  13.032
 6788W        W68242  22.149   8.225   5.293
 6789W        W68243  11.820  10.635   4.333
 6790W        W68244   4.356  39.315   1.306
 6791W        W68245  35.433  43.399  10.642
 6792W        W68246   9.647  13.741   0.733
 6793W        W68247   5.929  20.596  14.817
 6794W        W68248  24.132  19.101  14.380
 6795W        W68249  25.073  43.360  14.433
 6796W        W68250   4.914  44.903  11.436
 6797W        W68251  41.922  18.095   1.338
 6798W        W68252  20.665  20.121   3.175
 6799W        W68253   4.397   6.730   0.876
 6800W        W68254   0.424  16.677  10.943
 6801W        W68255   0.803  30.006   4.661
 6802W        W68256  34.404   7.791  13.926
 6803W        W68257  27.029  30.599  10.985
 6804W        W68258  43.820  29.075  10.972
 6805W        W68259  13.105  16.188   4.818
 6806W        W68260   1.455  34.066  10.522
 6807W        W68261  23.130   9.177   3.723
 6808W        W68262  38.503   3.732   1.715
 6809W        W68263   4.881  42.370  13.925
 6810W        W68264   5.830  18.725  14.980
 6811W        W68265   3.430  23.554   3.697
 6812W        W68266  11.173  25.974  13.340
 6813W        W68267  38.857  13.772   3.160
 6814W        W68268  18.657   5.848  11.939
 6815W        W68269  32.893   3.338   1.390
 6816W        W68270  10.743  33.549   1.371
 6817W        W68271  21.584  15.694   3.192
 6818W        W68272  17.193  41.346  12.848
 6819W        W68273  23.686  15.086   1.895
 6820W        W68274  18.552   4.233  14.417
 6821W        W68275   7.890  31.405   1.758
 6822W        W68276  30.983  10.359  11.068
 6823W        W68277   8.780  31.090  14.814
 6824W        W68278  14.143   6.824   4.782
 6825W        W68279  43.310  39.435   2.895
 6826W        W68280  34.555  31.551   2.375
 6827W        W68281  16.778   6.422  14.940
 6828W        W68282  38.402  37.378   4.189
 6829W        W68283  30.534  36.588  10.909
 6830W        W68284  19.574   7.759  14.792
 6831W        W68285  25.107  13.836   4.703
 6832W        W68286  21.621  27.011   0.831
 6833W        W68287  40.843  10.795   4.147
 6834W        W68288  15.631  15.191  11.018
 6835W        W68289  21.150  16.624   3.150
 6836W        W68290   8.676  34.932  12.045
 6837W        W68291   9.769  43.007   0.785
 6838W        W68292  21.066   0.832   4.694
 6839W        W68293  16.718  32.606   1.250
 6840W        W68294  19.586   1.327  10.575
 6841W        W68295   7.719  14.315   4.668
 6842W        W68296  36.575  41.004  11.476
 6843W        W68297   2.274   8.237  12.528
 6844W        W68298  40.858  38.823  14.471
 6845W        W68299  13.656   8.849   3.371
 6846W        W68300   3.266  39.048  10.407
 6847W        W68301  24.097  33.409  14.930
 6848W        W68302  15.701  22.695   1.422
 6849W        W68303  20.721  29.021  11.989
 6850W        W68304  16.243  43.966   3.719
 6851W        W68305  43.284  34.018  10.486
 6852W        W68306  38.902  10.195  13.336
 6853W        W68307  10.240  23.156   4.670
 6854W        W68308  14.638  16.775   2.225
 6855W        W68309  40.493  40.487  13.857
 6856W        W68310   0.801   0.771  12.022
 6857W        W68311  40.443  39.373  14.338
 6858W        W68312  25.079  24.034  10.135
 6859W        W68313  39.932   3.773  11.972
 6860W        W68314  21.146  42.776   2.857
 6861W        W68315  31.999  27.691  13.815
 6862W        W68316  29.490  33.989   2.396
 6863W        W68317  36.420  21.071  14.937
 6864W        W68318  39.910  36.545   1.695
 6865W        W68319   8.164  42.402  10.564
 6866W        W68320  16.194  15.635   4.255
 6867W        W68321   0.804  38.418  10.415
 6868W        W68322   9.707  42.469   0.859
 6869W        W68323  25.032  13.661   0.766
 6870W        W68324  37.005   6.727   2.188
 6871W        W68325  15.263  10.199  14.505
 6872W        W68326  13.138  10.228   0.267
 6873W        W68327  10.345  44.811  11.534
 6874W        W68328  19.612   5.364   1.412
 6875W        W68329  22.704  17.192   9.989
 6876W        W68330  12.839  38.076  11.498
 6877W        W68331  13.700  42.292  14.336
 6878W        W68332  31.424  24.079  10.892
 6879W        W68333   9.247  19.165   1.447
 6880W        W68334  32.939  26.630  11.533
 6881W        W68335  28.540  36.848   0.474
 6882W        W68336  35.568  12.132  14.314
 6883W        W68337  18.668   2.786   0.309
 6884W        W68338  22.666  44.279  14.975
 6885W        W68339  29.507  29.542  12.471
 6886W        W68340  39.407  30.026   1.842
 6887W        W68341  22.541  24.580  14.859
 6888W        W68342   4.331  36.424   1.842
 6889W        W68343  22.057  43.457   1.706
 6890W        W68344  39.384  25.056  10.939
 6891W        W68345  29.144  39.931   4.134
 6892W        W68346  12.719  22.153   2.874
 6893W        W68347   8.296  24.156   1.838
 6894W        W68348   6.389  43.278   4.289
 6895W        W68349   3.234  20.652  11.905
 6896W        W68350  16.288  24.168   4.256
 6897W        W68351   4.726  28.008  11.912
 6898W        W68352  14.831  10.775   3.690
 6899W        W68353  33.563   5.756   4.260
 6900W        W68354  40.824   0.476  12.021
 6901W        W68355   3.746  24.977   2.878
 6902W        W68356  25.598  13.789   3.863
 6903W        W68357  20.557  32.067   0.803
 6904W        W68358  17.645   0.305  13.524
 6905W        W68359  10.825  36.568  10.578
 6906W        W68360  33.591  42.867   3.219
 6907W        W68361  20.172  10.661   1.800
 6908W        W68362   0.799  15.724   0.291
 6909W        W68363  13.214  12.168   1.243
 6910W        W68364   2.350  44.813   1.917
 6911W        W68365  40.870  41.971  13.052
 6912W        W68366   5.211   2.351  12.497
 6913W        W68367  39.882  29.128   3.348
 6914W        W68368  34.082  35.032  12.912
 6915W        W68369  44.855  17.719   3.804
 6916W        W68370  39.455  23.593   3.178
 6917W        W68371  26.624  39.365   2.259
 6918W        W68372  33.522  12.776   2.730
 6919W        W68373  24.178   0.409   2.857
 6920W        W68374   1.335  39.810   1.694
 6921W        W68375  29.608   0.473  12.927
 6922W        W68376  14.105  26.125  11.104
 6923W        W68377   7.842  30.488  12.042
 6924W        W68378  18.054  33.613  10.435
 6925W        W68379   2.393  39.949   0.265
 6926W        W68380   3.273  17.142  13.820
 6927W        W68381   0.925  11.635  12.958
 6928W        W68382  31.147  12.831   3.246
 6929W        W68383  15.646   0.397  10.481
 6930W        W68384  36.894  23.527   0.479
 6931W        W68385  16.679  33.551  11.083
 6932W        W68386  24.570  24.083  12.493
 6933W        W68387   3.294  12.189  14.425
 6934W        W68388   3.801  33.007   0.264
 6935W        W68389  38.510  24.208  13.988
 6936W        W68390  28.498   0.484  11.995
 6937W        W68391  23.681  37.076  12.830
 6938W        W68392  33.071  42.003   4.161
 6939W        W68393   3.314  26.010   0.264
 6940W        W68394  43.913   2.877   3.184
 6941W        W68395   9.262  26.108  13.458
 6942W        W68396  43.877  29.992   0.827
 6943W        W68397  43.823  34.926   0.247
 6944W        W68398  19.137   0.860  14.910
 6945W        W68399  38.871  18.240  14.313
 6946W        W68400  30.617  24.129  11.958
 6947W        W68401  36.535  10.146  11.001
 6948W        W68402  19.064  39.347  14.380
 6949W        W68403  37.004  35.991   0.822
 6950W        W68404  11.784  28.952   1.268
 6951W        W68405   2.903   5.215  11.430
 6952W        W68406  10.251   6.766   2.677
 6953W        W68407  38.938  12.344   4.725
 6954W        W68408  23.712  13.273   2.317
 6955W        W68409  33.898  27.137  13.996
 6956W        W68410  26.655  19.109   4.142
 6957W        W68411  21.539  14.177  14.906
 6958W        W68412  28.185  37.566   0.317
 6959W        W68413  40.886  33.626  11.488
 6960W        W68414  40.543  10.219   2.758
 6961W        W68415   4.249  32.573   3.166
 6962W        W68416   0.751  23.590   4.800
 6963W        W68417  30.576  34.608  12.890
 6964W        W68418  10.673  25.624   4.305
 6965W        W68419  20.646  21.164   1.310
 6966W        W68420  19.142  37.883   3.326
 6967W        W68421  25.630  41.843  14.963
 6968W        W68422  44.423   0.346  10.897
 6969W        W68423  41.999  28.027   5.160
 6970W        W68424  14.738  41.340  13.446
 6971W        W68425   6.680   7.680  12.083
 6972W        W68426  15.670  23.995   4.622
 6973W        W68427  29.635   5.405  12.977
 6974W        W68428  14.598  26.180  10.436
 6975W        W68429   3.820   4.366  13.943
 6976W        W68430  18.564  22.157   4.232
 6977W        W68431  39.844   7.878  14.915
 6978W        W68432  15.095   3.724  11.603
 6979W        W68433  13.291  42.832  12.959
 6980W        W68434  37.458  30.915   5.128
 6981W        W68435  35.458  13.281   0.371
 6982W        W68436  34.502   0.474   3.639
 6983W        W68437  33.528   3.451   2.797
 6984W        W68438  41.532   4.820  11.463
 6985W        W68439  27.104   8.884  13.037
 6986W        W68440  33.891  42.375  10.607
 6987W        W68441   9.260  20.165  10.598
 6988W        W68442  17.116   0.882  10.630
 6989W        W68443   6.264  19.052   4.754
 6990W        W68444  25.174  29.062  11.898
 6991W        W68445   0.434  36.502   2.353
 6992W        W68446  12.656  18.582  14.786
 6993W        W68447  24.657  20.624  13.428
 6994W        W68448  27.604  36.912  12.947
 6995W        W68449  40.821   7.667  13.026
 6996W        W68450   5.430  44.754  14.433
 6997W        W68451  19.067  13.180   5.142
 6998W        W68452  18.109  42.809  13.996
 6999W        W68453  32.394  27.489   4.763
 7000W        W68454  41.001  40.367   0.782
 7001W        W68455  43.390  36.951  12.345
 7002W        W68456  14.774  12.853  12.987
 7003W        W68457  21.117   5.923   4.338
 7004W        W68458  38.429   0.813   1.818
 7005W        W68459   0.389  35.376  13.855
 7006W        W68460  19.259  29.460  14.951
 7007W        W68461  21.660  22.601  11.987
 7008W        W68462  43.830   4.308   2.380
 7009W        W68463  21.169  35.572  12.450
 7010W        W68464  10.797   5.806   0.911
 7011W        W68465  28.935  36.513   1.791
 7012W        W68466   1.442  42.498   4.812
 7013W        W68467  30.032  33.516  14.363
 7014W        W68468  32.526  13.272   3.365
 7015W        W68469  44.390  27.661   2.722
 7016W        W68470  19.657  34.529   4.283
 7017W        W68471  20.079  41.451  13.482
 7018W        W68472  41.331  39.548   1.714
 7019W        W68473  17.639  38.934  10.403
 7020W        W68474   3.414  34.400  12.371
 7021W        W68475   2.865  15.244  13.414
 7022W        W68476  38.904   4.768  13.907
 7023W        W68477  44.891  41.869  11.507
 7024W        W68478  33.384  29.537  12.824
 7025W        W68479  31.099  28.630  13.370
 7026W        W68480  17.101  17.702   4.614
 7027W        W68481   9.336  28.511  11.918
 7028W        W68482  11.219  23.023   0.316
 7029W        W68483  11.126  21.661   1.726
 7030W        W68484  12.228  12.788   3.247
 7031W        W68485  27.181  11.147  11.540
 7032W        W68486  13.307  21.250   2.186
 7033W        W68487  37.444  22.504  13.935
 7034W        W68488  19.042  11.832   2.698
 7035W        W68489   6.868  13.816   0.726
 7036W        W68490  28.126  23.081   3.145
 7037W        W68491  25.105  29.954  13.460
 7038W        W68492  27.503  32.968   2.321
 7039W        W68493   2.429  34.463  12.843
 7040W        W68494  22.195   9.887  14.958
 7041W        W68495   9.711   1.747  11.541
 7042W        W68496  41.933  16.091   4.741
 7043W        W68497  33.576  15.816  10.607
 7044W        W68498   8.842  41.349   0.353
 7045W        W68499  41.535  41.308  12.875
 7046W        W68500  23.095  38.960  12.472
 7047W        W68501   9.829  24.570   4.117
 7048W        W68502  19.147   4.866  12.569
 7049W        W68503   2.809  14.828   3.241
 7050W        W68504   4.764  20.536  12.555
 7051W        W68505   7.713   9.191  14.295
 7052W        W68506  37.451  41.428   2.732
 7053W        W68507  42.966  18.175  10.000
 7054W        W68508   0.883  42.820   4.237
 7055W        W68509  40.000  43.359  10.962
 7056W        W68510  42.321  11.825   2.260
 7057W        W68511   2.888  20.578   2.783
 7058W        W68512  35.578  34.459  11.938
 7059W        W68513  19.754  21.182  10.578
 7060W        W68514   9.648  30.493   1.769
 7061W        W68515  10.732  19.131  13.062
 7062W        W68516  43.782   0.936  10.909
 7063W        W68517   5.898  17.233  13.974
 7064W        W68518  22.609  13.191   4.286
 7065W        W68519  31.431  13.639   1.357
 7066W        W68520   2.444  41.791   2.814
 7067W        W68521  44.378  25.038   1.389
 7068W        W68522  30.035  10.245  14.787
 7069W        W68523  35.411  21.198   0.408
 7070W        W68524  15.754  38.449  14.286
 7071W        W68525  22.720   1.757  13.929
 7072W        W68526  11.197  43.954   3.294
 7073W        W68527  39.934  40.463  13.020
 7074W        W68528  33.460  26.539  12.037
 7075W        W68529  23.576  24.587   3.254
 7076W        W68530   2.312   1.366   1.830
 7077W        W68531  29.963  10.284  14.461
 7078W        W68532   0.396  24.146  13.439
 7079W        W68533  40.948   6.709   0.286
 7080W        W68534  23.081   1.268   2.262
 7081W        W68535  17.585  44.287  13.850
 7082W        W68536  42.451  12.745   1.696
 7083W        W68537  22.153  28.530  13.864
 7084W        W68538  10.373  40.519  12.385
 7085W        W68539  22.652  38.519  13.528
 7086W        W68540  40.357  31.068  11.560
 7087W        W68541  38.397  20.724   2.866
 7088W        W68542   8.365  15.717  11.599
 7089W        W68543  20.627  15.741   4.197
 7090W        W68544  15.621  10.774  13.405
 7091W        W68545  22.184  12.205   3.721
 7092W        W68546  11.264  25.660   1.235
 7093W        W68547  25.159  30.012   1.283
 7094W        W68548  14.747  11.264  11.021
 7095W        W68549   0.474  10.213  13.811
 7096W        W68550  12.290  28.659  12.528
 7097W        W68551  27.992   9.390   1.403
 7098W        W68552  41.943  20.221   1.896
 7099W        W68553  21.616   5.289  14.887
 7100W        W68554  18.693  15.097  12.992
 7101W        W68555   0.836  14.124  13.401
 7102W        W68556  14.138   5.931  10.424
 7103W        W68557  26.165  42.899  12.091
 7104W        W68558  41.328  18.651  11.988
 7105W        W68559  24.193  16.185   1.299
 7106W        W68560  36.936  14.764  12.360
 7107W        W68561   7.793  27.178   3.260
 7108W        W68562  14.326  18.092   0.291
 7109W        W68563   6.286   5.214  13.334
 7110W        W68564  17.762  29.920  13.401
 7111W        W68565  28.936   3.451   3.684
 7112W        W68566  25.964  14.709  11.102
 7113W        W68567  32.596   9.181   2.386
 7114W        W68568  22.010  24.133   4.736
 7115W        W68569   5.433  10.186  12.527
 7116W        W68570  28.557  34.921  11.571
 7117W        W68571  44.504  32.553  14.808
 7118W        W68572  37.017   5.801  10.939
 7119W        W68573  20.073  10.371   3.742
 7120W        W68574  10.852   0.285   3.668
 7121W        W68575   3.827  25.557  10.546
 7122W        W68576  43.917   2.302  11.442
 7123W        W68577  31.144   9.266  10.578
 7124W        W68578  33.592   1.398  12.435
 7125W        W68579  31.045  21.106   0.906
 7126W        W68580  34.388   6.679  14.868
 7127W        W68581  34.071  12.175   9.990
 7128W        W68582  43.293  23.712  13.847
 7129W        W68583  26.002  10.264  12.888
 7130W        W68584  34.459  21.175  13.452
 7131W        W68585  14.737  38.854   3.248
 7132W        W68586  32.424  40.841   1.848
 7133W        W68587  44.348  21.707   4.769
 7134W        W68588  22.727  22.696  14.900
 7135W        W68589  41.423  27.546  10.442
 7136W        W68590  24.107  20.192   0.332
 7137W        W68591  12.230   0.276  13.035
 7138W        W68592  20.526  14.752   1.340
 7139W        W68593  20.652  41.809  13.979
 7140W        W68594  23.038  15.231  13.449
 7141W        W68595  10.872  24.999   0.883
 7142W        W68596  37.364  18.081   1.432
 7143W        W68597  28.630  20.647   2.373
 7144W        W68598  18.294  14.152  11.084
 7145W        W68599  18.170  10.852   2.342
 7146W        W68600  32.999   7.417   2.835
 7147W        W68601  10.828   4.328   4.665
 7148W        W68602   6.330  44.416  14.341
 7149W        W68603  31.500   6.386  14.361
 7150W        W68604  37.906   4.886   3.208
 7151W        W68605   5.694  25.642  10.894
 7152W        W68606  33.410  13.247  13.446
 7153W        W68607  38.499  43.866  10.613
 7154W        W68608  33.007  14.193  13.043
 7155W        W68609  15.726  38.901   2.862
 7156W        W68610  12.657  33.433   2.256
 7157W        W68611  24.111  42.965   1.237
 7158W        W68612  38.525   6.757  13.923
 7159W        W68613  17.208  28.945  11.911
 7160W        W68614  31.950  22.537  11.436
 7161W        W68615  44.432  20.578   3.198
 7162W        W68616   6.398  21.100  12.016
 7163W        W68617  12.304   4.929  13.968
 7164W        W68618  41.914  43.286   1.780
 7165W        W68619  26.075  14.616  11.471
 7166W        W68620  14.774  33.540   2.830
 7167W        W68621   2.944  36.896  14.415
 7168W        W68622   6.858  12.345  10.638
 7169W        W68623  20.642   9.200  14.872
 7170W        W68624  15.789  12.174   0.823
 7171W        W68625  24.550  16.102  14.009
 7172W        W68626  43.963  12.308  12.959
 7173W        W68627  40.361  27.520   1.350
 7174W        W68628  18.095  24.013   0.894
 7175W        W68629  16.742  37.847  12.898
 7176W        W68630   7.905  15.807  14.471
 7177W        W68631   5.700  10.863  11.075
 7178W        W68632  11.709  27.584  14.943
 7179W        W68633  10.676  11.788  12.948
 7180W        W68634  15.577  19.738   3.680
 7181W        W68635  29.007   1.919   2.775
 7182W        W68636   2.382  25.012   3.247
 7183W        W68637   9.349  11.711   3.799
 7184W        W68638  18.270  34.029  10.928
 7185W        W68639   7.381  32.490  12.419
 7186W        W68640  35.863  24.061   3.654
 7187W        W68641   3.794  38.441  13.046
 7188W        W68642  37.373   1.756   2.662
 7189W        W68643  30.517   2.390  10.418
 7190W        W68644   9.739  37.528  10.041
 7191W        W68645   5.272   2.791  11.477
 7192W        W68646  17.068  36.489   0.324
 7193W        W68647  44.497   5.726  11.983
 7194W        W68648  35.876  41.307   1.881
 7195W        W68649  43.977  43.371  13.936
 7196W        W68650   8.890   7.760   2.742
 7197W        W68651  18.274  12.615   9.975
 7198W        W68652  29.556  28.032   5.108
 7199W        W68653  29.549  18.737   5.143
 7200W        W68654  39.377  40.048   0.747
 7201W        W68655  28.144  32.946   0.898
 7202W        W68656  23.504  14.637  13.968
 7203W        W68657  30.910   0.934   2.186
 7204W        W68658  19.633   4.401  11.565
 7205W        W68659  37.019  26.628  11.540
 7206W        W68660   4.862   9.837  10.643
 7207W        W68661  42.779  17.152   1.858
 7208W        W68662  24.207  44.798  10.425
 7209W        W68663  37.024   0.354  12.382
 7210W        W68664  13.711  38.056   3.210
 7211W        W68665   1.887  28.546  11.940
 7212W        W68666  13.119  13.329   2.205
 7213W        W68667  44.801  14.190  12.855
 7214W        W68668   2.761  12.685  14.849
 7215W        W68669  15.750   1.403   1.811
 7216W        W68670  26.094  38.530  14.834
 7217W        W68671  14.255  39.357  12.928
 7218W        W68672  12.245  31.567  13.393
 7219W        W68673  15.128   6.783  12.469
 7220W        W68674  43.927  11.313  10.986
 7221W        W68675  11.846  41.909  12.094
 7222W        W68676  28.622  21.263   2.343
 7223W        W68677  19.755  39.867  13.412
 7224W        W68678  40.415   5.436   3.801
 7225W        W68679  15.631   0.440   3.853
 7226W        W68680   7.405  37.432   5.321
 7227W        W68681  22.220  14.129  14.492
 7228W        W68682  19.703  28.108   4.294
 7229W        W68683  36.089  37.457   3.150
 7230W        W68684  30.033  41.004   0.379
 7231W        W68685  42.011   8.218  11.478
 7232W        W68686  32.037  26.550  12.495
 7233W        W68687  20.749  39.935   0.789
 7234W        W68688   2.945   4.223   1.801
 7235W        W68689  10.861   6.421  14.827
 7236W        W68690   1.928   2.866  13.406
 7237W        W68691  12.322   1.362  14.933
 7238W        W68692  13.320   7.316   5.266
 7239W        W68693  26.037  35.381  14.008
 7240W        W68694  33.500  36.965   1.416
 7241W        W68695  12.779  42.413   3.228
 7242W        W68696  38.372  44.492   1.899
 7243W        W68697  38.935   0.747   1.348
 7244W        W68698  26.537  44.424   1.736
 7245W        W68699  12.127  23.125  10.404
 7246W        W68700  38.557  34.994   2.310
 7247W        W68701  28.961  40.824  13.049
 7248W        W68702  36.392  23.058  14.784
 7249W        W68703   4.323  41.800   4.795
 7250W        W68704  25.649  19.106  13.044
 7251W        W68705  11.306  17.117   4.188
 7252W        W68706  17.729  31.415  10.490
 7253W        W68707  33.422   4.897   2.393
 7254W        W68708  17.568  37.439   4.265
 7255W        W68709  27.941  31.076  12.859
 7256W        W68710  24.123  33.998   1.397
 7257W        W68711  29.611  37.015   2.419
 7258W        W68712  16.687  20.042  13.408
 7259W        W68713  24.531  28.599   4.640
 7260W        W68714   7.291  15.645  13.393
 7261W        W68715  37.479   1.339  14.977
 7262W        W68716   5.439  23.547   4.755
 7263W        W68717   1.783  25.050  10.505
 7264W        W68718  15.232  42.478  11.116
 7265W        W68719   7.849  29.174   1.269
 7266W        W68720  16.794  39.064  13.353
 7267W        W68721  35.049  32.017   9.987
 7268W        W68722   4.713  41.325  11.371
 7269W        W68723   5.355  20.755   3.292
 7270W        W68724   0.411   5.408   1.227
 7271W        W68725  41.865  38.027   0.785
 7272W        W68726  35.070  24.482  12.076
 7273W        W68727   8.815  16.284  12.552
 7274W        W68728  42.889   5.357  13.055
 7275W        W68729   1.412  11.709   1.816
 7276W        W68730  23.155  41.466  14.871
 7277W        W68731  34.460   6.905  11.527
 7278W        W68732  14.657  18.170   4.185
 7279W        W68733  15.238  10.222   0.845
 7280W        W68734  22.150  35.393   0.829
 7281W        W68735   3.345  25.087   4.206
 7282W        W68736  15.174  33.984  11.098
 7283W        W68737  22.238  42.366  11.062
 7284W        W68738  17.091  19.095   4.227
 7285W        W68739  43.773   1.447   2.218
 7286W        W68740   7.260  38.381  14.355
 7287W        W68741  38.393   5.759  12.527
 7288W        W68742  22.224  22.011  13.820
 7289W        W68743  14.724  25.589   1.919
 7290W        W68744  37.084   2.723  13.809
 7291W        W68745  21.578  24.020   4.653
 7292W        W68746  43.311  25.196   3.871
 7293W        W68747  21.663  42.997   4.182
 7294W        W68748   9.873  35.053   5.321
 7295W        W68749   9.802  18.227  11.057
 7296W        W68750  13.217  25.578   4.670
 7297W        W68751   2.958   5.217   1.272
 7298W        W68752  37.517  31.479   3.787
 7299W        W68753  25.058   8.404   3.251
 7300W        W68754   2.831  15.735   3.149
 7301W        W68755  31.965   6.913   2.811
 7302W        W68756  27.600   6.348   1.856
 7303W        W68757  16.168  20.564   3.147
 7304W        W68758  42.527  37.442  11.492
 7305W        W68759  36.003   8.292   3.372
 7306W        W68760  21.127  39.522  11.556
 7307W        W68761  18.170  24.588  11.481
 7308W        W68762  25.675  43.930  11.016
 7309W        W68763  29.574  15.814   2.329
 7310W        W68764   1.801  10.344   1.379
 7311W        W68765  35.918  44.470  12.953
 7312W        W68766  40.826  20.270   2.203
 7313W        W68767   7.239   8.266  11.479
 7314W        W68768  44.364   7.721  12.391
 7315W        W68769  27.501   2.374  14.901
 7316W        W68770  10.237  12.666   3.735
 7317W        W68771  11.330  19.204  11.878
 7318W        W68772  42.008   8.314   3.826
 7319W        W68773  34.964  18.667  13.357
 7320W        W68774  18.653   2.352   4.226
 7321W        W68775  23.155  11.725  11.532
 7322W        W68776  40.445   0.915   2.759
 7323W        W68777  34.481  29.602   0.964
 7324W        W68778  32.461  19.174  14.993
 7325W        W68779  13.344  43.312   3.354
 7326W        W68780   5.756  25.215   2.756
 7327W        W68781   1.817  44.001  11.407
 7328W        W68782   0.296  26.483  12.852
 7329W        W68783  21.156  21.086  14.761
 7330W        W68784  24.577  43.796   0.415
 7331W        W68785  43.858  17.679   2.336
 7332W        W68786  30.415   1.463   0.315
 7333W        W68787  27.535   5.222  14.774
 7334W        W68788  24.213  33.953   1.773
 7335W        W68789   2.959  21.042   1.717
 7336W        W68790  39.027  27.565  10.639
 7337W        W68791  22.247  25.076   3.737
 7338W        W68792  36.916  18.083  14.382
 7339W        W68793   2.316  43.002   2.238
 7340W        W68794  24.192  12.802   1.802
 7341W        W68795  18.551  39.951  10.450
 7342W        W68796  29.632  27.589   5.259
 7343W        W68797  43.288   5.718   4.761
 7344W        W68798   8.229  40.984  10.994
 7345W        W68799  28.520  23.185  10.996
 7346W        W68800  28.653  34.878   5.201
 7347W        W68801  39.389   9.212  10.615
 7348W        W68802   7.222   6.336   3.213
 7349W        W68803  32.969  35.866   2.766
 7350W        W68804   2.954   4.920   4.681
 7351W        W68805  42.849  20.236   1.716
 7352W        W68806  21.591  14.227   1.261
 7353W        W68807  41.965  26.955   1.769
 7354W        W68808  32.581  20.658  13.796
 7355W        W68809  39.559  38.338   2.397
 7356W        W68810  16.104  28.071   4.740
 7357W        W68811   2.227  29.174   0.896
 7358W        W68812  22.726  33.912   4.301
 7359W        W68813  19.165   2.443   2.783
 7360W        W68814  44.819  33.468  10.404
 7361W        W68815   9.656  43.844  11.599
 7362W        W68816  13.821  14.240   4.598
 7363W        W68817   1.441  44.396   2.373
 7364W        W68818  34.377  20.095  11.921
 7365W        W68819  30.938  10.248   9.586
 7366W        W68820   7.720  27.088   4.724
 7367W        W68821   1.875  24.073  10.936
 7368W        W68822  16.236  11.662  14.451
 7369W        W68823  18.163  43.821  12.356
 7370W        W68824  43.901  44.504  11.882
 7371W        W68825   2.861  41.462   3.160
 7372W        W68826   3.396  20.202  10.452
 7373W        W68827  25.080   6.299  13.446
 7374W        W68828  12.800  40.389  14.511
 7375W        W68829  35.085  16.715  12.926
 7376W        W68830  26.146  32.605  13.797
 7377W        W68831   8.842   7.363   0.326
 7378W        W68832  32.915  37.539   3.829
 7379W        W68833  24.491  17.229   2.330
 7380W        W68834  36.943   9.374  12.475
 7381W        W68835  26.505  44.356   0.880
 7382W        W68836   3.918  35.486   4.276
 7383W        W68837  16.114   8.401   1.832
 7384W        W68838   4.275  25.694   1.377
 7385W        W68839   0.910  33.505  14.393
 7386W        W68840  14.629  21.620  12.894
 7387W        W68841   3.826  23.558   1.404
 7388W        W68842   4.352  33.996   3.724
 7389W        W68843  31.517  12.225   3.709
 7390W        W68844   1.361  37.426   4.673
 7391W        W68845   7.680   3.745  12.478
 7392W        W68846   9.702  15.798   1.734
 7393W        W68847  32.418  38.456  10.478
 7394W        W68848  43.302   2.397   1.432
 7395W        W68849  19.114  24.088   0.424
 7396W        W68850  33.482   4.782   1.299
 7397W        W68851  24.224  41.940   4.218
 7398W        W68852  39.548  18.566   3.171
 7399W        W68853   6.335   3.438  12.461
 7400W        W68854  31.970  33.929   4.189
 7401W        W68855  18.756  22.201  13.536
 7402W        W68856  34.515  19.233   0.801
 7403W        W68857  18.592   0.938  13.547
 7404W        W68858  33.390  43.465   3.304
 7405W        W68859  32.021   3.915   1.881
 7406W        W68860  23.104  27.671   2.685
 7407W        W68861  21.652   0.809   1.705
 7408W        W68862   4.837  33.618   1.328
 7409W        W68863  29.092  44.954   0.277
 7410W        W68864   9.301   6.202  13.943
 7411W        W68865  30.955  30.508  14.439
 7412W        W68866  35.446  16.730   3.375
 7413W        W68867  28.151  35.493  11.613
 7414W        W68868  42.506   6.276  11.956
 7415W        W68869  28.028  39.542  14.422
 7416W        W68870  36.870  43.322   9.658
 7417W        W68871  29.954   3.410  13.458
 7418W        W68872  31.105  13.736   2.373
 7419W        W68873  17.676   9.219  14.984
 7420W        W68874  31.583  29.024  14.421
 7421W        W68875  20.269  22.251  14.322
 7422W        W68876  44.339  14.322  11.539
 7423W        W68877  40.441  30.626   2.412
 7424W        W68878   2.355   9.366   4.353
 7425W        W68879  14.655   0.331   0.319
 7426W        W68880   7.372   5.425  14.921
 7427W        W68881   9.257  26.099   4.634
 7428W        W68882   3.922  16.695  13.983
 7429W        W68883  38.455  33.498  14.824
 7430W        W68884  43.336  19.097  10.496
 7431W        W68885  41.961  14.650   4.212
 7432W        W68886   9.867  12.161   0.398
 7433W        W68887  40.335  20.251   2.884
 7434W        W68888  42.324  13.616   0.300
 7435W        W68889  31.091  29.644  10.589
 7436W        W68890   5.924  27.586   3.382
 7437W        W68891   4.255  24.007   2.285
 7438W        W68892   0.913  29.010  13.443
 7439W        W68893   2.861   7.732  13.459
 7440W        W68894  15.803  17.654  11.403
 7441W        W68895  21.263  26.684   2.256
 7442W        W68896  33.000  28.109  11.472
 7443W        W68897  44.263  23.576   1.328
 7444W        W68898   5.830   6.867  14.879
 7445W        W68899  36.036  36.970   2.318
 7446W        W68900  32.998  39.444   4.194
 7447W        W68901  11.709  29.582   1.288
 7448W        W68902  40.421  17.734  11.423
 7449W        W68903  37.538  20.177  13.978
 7450W        W68904  36.468  12.615  11.371
 7451W        W68905  39.957  13.334   3.838
 7452W        W68906  11.365  28.604   2.769
 7453W        W68907  37.534  39.859  13.525
 7454W        W68908  17.750  26.652   0.352
 7455W        W68909  30.077  15.234   2.901
 7456W        W68910  37.421  23.144  14.960
 7457W        W68911  30.628  22.578  11.930
 7458W        W68912   0.778   7.903   1.434
 7459W        W68913  33.539  12.701   2.332
 7460W        W68914  43.002  15.811  11.414
 7461W        W68915  38.997  23.988  13.827
 7462W        W68916  38.450  25.009   1.238
 7463W        W68917   4.891  41.371   3.767
 7464W        W68918  34.466  26.989  11.451
 7465W        W68919  10.375  36.365  12.070
 7466W        W68920  39.374  12.824   3.775
 7467W        W68921  44.777  32.040  10.003
 7468W        W68922   0.959  13.712  11.881
 7469W        W68923  19.223   2.759   4.602
 7470W        W68924   4.855  19.277  14.337
 7471W        W68925  41.965  38.882  14.847
 7472W        W68926  38.416   7.385   4.821
 7473W        W68927  15.581  38.344  11.089
 7474W        W68928  37.841  24.700  12.079
 7475W        W68929   6.401  31.096  12.564
 7476W        W68930  28.046  41.353   0.257
 7477W        W68931   6.809  22.686   4.614
 7478W        W68932  15.722  19.121   1.925
 7479W        W68933  12.310  35.441   0.336
 7480W        W68934  15.607  35.891  13.809
 7481W        W68935  14.282  22.624  12.010
 7482W        W68936  17.626  15.631  13.820
 7483W        W68937  27.487  28.468  10.604
 7484W        W68938  22.581  25.996  13.537
 7485W        W68939  42.875   1.321  12.536
 7486W        W68940   7.841  12.177   2.816
 7487W        W68941  26.965   3.860  12.093
 7488W        W68942  23.110   4.320   0.322
 7489W        W68943  44.370   3.771   1.293
 7490W        W68944   7.728  17.102   0.810
 7491W        W68945  33.483  36.423   4.238
 7492W        W68946   3.433  16.633   2.795
 7493W        W68947  24.510  37.395   0.409
 7494W        W68948  42.343   5.877  11.502
 7495W        W68949  27.161  43.862   4.748
 7496W        W68950  40.401  34.453  11.061
 7497W        W68951   0.794  23.583  12.868
 7498W        W68952  27.123   0.890   2.834
 7499W        W68953   6.887  36.014   2.761
 7500W        W68954   1.869   4.848   4.715
 7501W        W68955  14.236  36.058  11.526
 7502W        W68956   6.916  22.739  13.863
 7503W        W68957  38.960  26.624  14.976
 7504W        W68958  19.092   1.294  13.317
 7505W        W68959  33.005   6.411   3.194
 7506W        W68960  25.713   4.411   4.136
 7507W        W68961  29.517   7.327   4.676
 7508W        W68962  40.957  39.059   3.159
 7509W        W68963  19.187  32.039   4.178
 7510W        W68964  10.675   9.725   2.673
 7511W        W68965  43.390  40.367   4.831
 7512W        W68966  28.660   3.941   1.752
 7513W        W68967  38.018  11.251   4.183
 7514W        W68968  15.684  32.938   3.844
 7515W        W68969  43.474  30.107  14.331
 7516W        W68970  39.955  10.340   4.759
 7517W        W68971  20.185  33.435   0.260
 7518W        W68972  26.531  10.637  10.966
 7519W        W68973  27.533  43.365  14.466
 7520W        W68974  11.632   1.384   0.770
 7521W        W68975  11.325  31.101  12.041
 7522W        W68976  19.598  33.454  12.032
 7523W        W68977   9.870  27.676   4.163
 7524W        W68978  42.887  30.573  13.523
 7525W        W68979  32.958  22.239  10.951
 7526W        W68980  31.093  37.908  11.080
 7527W        W68981  28.514   8.722   1.373
 7528W        W68982   8.871  32.391   2.861
 7529W        W68983  10.726  16.197   4.762
 7530W        W68984  40.832  19.749   2.848
 7531W        W68985  43.863  37.851   4.226
 7532W        W68986  34.986  12.663   5.203
 7533W        W68987  12.305   1.913   0.271
 7534W        W68988  35.585  44.394  11.900
 7535W        W68989  38.429  11.192  12.546
 7536W        W68990  40.042  16.640  11.917
 7537W        W68991  40.848  40.493   2.295
 7538W        W68992   1.964  22.189   1.303
 7539W        W68993  29.445   6.416  11.957
 7540W        W68994  41.347   7.827  12.513
 7541W        W68995  40.036  27.064   2.771
 7542W        W68996  24.635  34.603   0.332
 7543W        W68997  30.941  37.879   2.245
 7544W        W68998  17.087  24.137   4.730
 7545W        W68999  32.626  33.896   2.332
 7546W        W69000  13.230  44.775   0.454
 7547W        W69001  44.887  29.531  14.834
 7548W        W69002  21.258  19.078   2.813
 7549W        W69003  32.562  13.740   0.841
 7550W        W69004  12.340  31.565  10.057
 7551W        W69005  12.776  10.703   3.172
 7552W        W69006  13.260  30.457  11.893
 7553W        W69007  27.537  36.943   4.225
 7554W        W69008  26.612  24.629   3.645
 7555W        W69009  11.373  11.837   3.868
 7556W        W69010   6.689  41.899  12.877
 7557W        W69011   3.724  22.606   3.277
 7558W        W69012  32.977  12.141   2.767
 7559W        W69013  20.628  29.455  13.901
 7560W        W69014  10.346   4.450  12.540
 7561W        W69015   7.882  18.157  12.830
 7562W        W69016  40.848  40.326  12.504
 7563W        W69017  12.151  24.172  11.968
 7564W        W69018  44.277  22.736   1.816
 7565W        W69019  23.597   5.229   1.764
 7566W        W69020   1.789  12.323   3.809
 7567W        W69021  16.665  37.454  12.829
 7568W        W69022  16.644  22.171  13.915
 7569W        W69023  26.029  29.652   0.761
 7570W        W69024  12.765  39.053   0.373
 7571W        W69025   1.845   6.907   0.399
 7572W        W69026  13.829   8.819   1.876
 7573W        W69027  23.222   0.369  13.854
 7574W        W69028  28.136   7.276   4.161
 7575W        W69029  19.281  20.158  12.827
 7576W        W69030  15.680  18.099  14.795
 7577W        W69031   4.339   8.248  10.534
 7578W        W69032   4.872  19.092  10.936
 7579W        W69033  40.384  16.590   0.392
 7580W        W69034  32.960   7.858  11.541
 7581W        W69035  29.670  10.264  14.860
 7582W        W69036  16.290   9.301  10.979
 7583W        W69037  39.841  14.323  11.063
 7584W        W69038   8.810   9.318   4.308
 7585W        W69039  29.084  38.849  11.911
 7586W        W69040   0.881   2.307   2.867
 7587W        W69041   9.881  33.557   1.852
 7588W        W69042   7.324  28.034  10.416
 7589W        W69043  44.469  16.227   1.853
 7590W        W69044  30.972  32.439  14.789
 7591W        W69045  30.046  35.520   3.717
 7592W        W69046  13.677  33.516   3.254
 7593W        W69047  44.381  11.864  14.956
 7594W        W69048  40.979  16.267   3.661
 7595W        W69049  32.619  28.448   1.743
 7596W        W69050   5.779  17.604   3.751
 7597W        W69051  29.476  23.034  14.870
 7598W        W69052  33.425  39.812   4.212
 7599W        W69053   8.259  14.614   0.908
 7600W        W69054   6.897   1.971   0.731
 7601W        W69055  11.363  33.063  10.078
 7602W        W69056  16.289  22.068  12.535
 7603W        W69057   8.718  43.945  11.093
 7604W        W69058  14.765  19.748   5.240
 7605W        W69059  10.735  23.077  13.825
 7606W        W69060  14.099  13.725  12.012
 7607W        W69061  40.829  15.788   3.720
 7608W        W69062  25.193  11.320   1.846
 7609W        W69063   5.778  18.779   4.293
 7610W        W69064  34.460  15.262   0.411
 7611W        W69065  24.678   2.469   1.337
 7612W        W69066  32.539   6.240  14.895
 7613W        W69067   6.767   6.295  12.004
 7614W        W69068  41.320  17.666  12.906
 7615W        W69069  43.766  41.323   4.131
 7616W        W69070  38.375  20.548  12.562
 7617W        W69071  24.682  39.559  12.036
 7618W        W69072  31.545  25.637  10.496
 7619W        W69073  33.091  25.541   2.662
 7620W        W69074  15.653  10.873  14.958
 7621W        W69075  35.030   0.813   0.459
 7622W        W69076  17.306  18.736   4.269
 7623W        W69077  22.716  39.959   1.338
 7624W        W69078  20.131   3.888  14.385
 7625W        W69079   6.917  23.122  11.412
 7626W        W69080  24.156  29.446  11.862
 7627W        W69081  40.321  19.688  14.308
 7628W        W69082  39.888   8.655   4.259
 7629W        W69083  39.892  19.090  13.537
 7630W        W69084  12.136  19.557  10.448
 7631W        W69085  15.264  26.464   3.157
 7632W        W69086   5.829   9.718   0.262
 7633W        W69087  14.702  19.085  14.833
 7634W        W69088  28.661  41.373  11.514
 7635W        W69089  36.416  17.107   2.400
 7636W        W69090  14.633  23.241   1.239
 7637W        W69091  27.057   1.798  14.359
 7638W        W69092  32.040  20.077   5.083
 7639W        W69093  10.773  17.175  11.566
 7640W        W69094  24.980  29.636   5.237
 7641W        W69095  38.460  14.338   1.356
 7642W        W69096  31.455  36.059   0.749
 7643W        W69097  34.543  15.629  12.410
 7644W        W69098  35.015   0.361  10.557
 7645W        W69099  41.040  37.463  13.033
 7646W        W69100   3.814  41.800  10.525
 7647W        W69101  36.579  37.048   4.657
 7648W        W69102  13.820  44.842  14.788
 7649W        W69103  26.521  22.070  13.526
 7650W        W69104  25.065  21.030   3.660
 7651W        W69105  43.447   5.692   1.819
 7652W        W69106  41.515   6.236  10.989
 7653W        W69107  21.082  44.368   4.835
 7654W        W69108  16.799  27.165  14.432
 7655W        W69109  35.427   9.775   0.484
 7656W        W69110  12.346   8.734   0.892
 7657W        W69111   1.848  23.184   4.701
 7658W        W69112  22.031  32.124  12.339
 7659W        W69113  13.775  10.792   3.673
 7660W        W69114   9.777  13.249   3.687
 7661W        W69115  16.730  43.305  12.854
 7662W        W69116  33.944   0.770  11.388
 7663W        W69117  44.907  28.122   4.187
 7664W        W69118  42.845  31.539   2.385
 7665W        W69119   7.683  34.895   0.911
 7666W        W69120   2.394   7.198   3.286
 7667W        W69121  35.452   5.724   4.651
 7668W        W69122  37.457  41.960  13.440
 7669W        W69123   9.803   7.411  13.971
 7670W        W69124   4.240   9.694   1.315
 7671W        W69125  40.440  28.457  11.518
 7672W        W69126  44.348  20.231   0.244
 7673W        W69127  24.720  41.534  12.578
 7674W        W69128  38.920  32.447  13.419
 7675W        W69129  16.575   3.229   2.264
 7676W        W69130  16.779   6.760   4.819
 7677W        W69131  26.586  40.509   4.719
 7678W        W69132  40.990  42.500  13.979
 7679W        W69133  34.971  42.432   4.758
 7680W        W69134  13.340  12.133   5.565
 7681W        W69135  13.137  44.971  11.518
 7682W        W69136   3.367  21.135  10.498
 7683W        W69137  15.218  28.487  14.398
 7684W        W69138  37.058  34.911  12.889
 7685W        W69139   0.493  39.012   2.374
 7686W        W69140  44.859   8.821  13.470
 7687W        W69141  27.502  28.176   3.799
 7688W        W69142  15.202  27.992   1.792
 7689W        W69143  20.664  39.927  11.018
 7690W        W69144  27.998   7.212   0.352
 7691W        W69145   3.869  12.698   4.742
 7692W        W69146  25.006  11.802  13.527
 7693W        W69147   6.199   1.853   2.191
 7694W        W69148  32.011  23.590   1.923
 7695W        W69149  15.235  21.209  12.988
 7696W        W69150  31.925  37.372   2.290
 7697W        W69151  44.819   6.743  10.978
 7698W        W69152  42.992  35.599  14.342
 7699W        W69153   8.399   2.942  11.990
 7700W        W69154  39.029  43.866   2.810
 7701W        W69155   8.863  10.727  12.371
 7702W        W69156  30.100  33.506   2.754
 7703W        W69157  35.441  21.636  13.541
 7704W        W69158  18.624  23.632  11.084
 7705W        W69159   4.749  15.278   4.601
 7706W        W69160  16.617  26.522  12.849
 7707W        W69161  19.764  37.001  12.542
 7708W        W69162   4.835  39.322   3.646
 7709W        W69163  17.061  19.213  13.986
 7710W        W69164  25.068  41.879   1.306
 7711W        W69165  38.382  30.565  14.841
 7712W        W69166  44.901   1.426  10.567
 7713W        W69167   8.764  41.941  14.479
 7714W        W69168   9.336  12.737  10.511
 7715W        W69169   7.262  12.618   1.795
 7716W        W69170  38.453  30.968  14.853
 7717W        W69171  30.534  19.557   1.317
 7718W        W69172  18.265  43.391  14.849
 7719W        W69173  43.399  22.510   0.391
 7720W        W69174  44.371  24.600  11.480
 7721W        W69175  12.164  42.921  11.596
 7722W        W69176  30.640  21.721  12.417
 7723W        W69177  37.576  33.587  13.999
 7724W        W69178   6.885  42.987  12.562
 7725W        W69179  38.907  35.404  14.430
 7726W        W69180  25.569  43.954  12.876
 7727W        W69181  20.748  16.210   4.834
 7728W        W69182  18.708  27.134   2.869
 7729W        W69183  40.427  18.777   3.861
 7730W        W69184  39.394  30.565   4.220
 7731W        W69185  43.491  39.361   3.807
 7732W        W69186   2.360  42.351   4.238
 7733W        W69187  18.719   3.392  13.805
 7734W        W69188  11.300  21.172   2.369
 7735W        W69189  32.422  32.396   4.625
 7736W        W69190  16.684  27.170  11.954
 7737W        W69191  27.944  29.441  12.342
 7738W        W69192   4.872   4.448   4.636
 7739W        W69193  38.928  13.785  12.516
 7740W        W69194  36.373  26.153   3.819
 7741W        W69195  38.830  25.149   1.898
 7742W        W69196   8.885  29.169   3.788
 7743W        W69197  21.589   4.732   3.287
 7744W        W69198  11.640  44.498   3.165
 7745W        W69199  40.866  10.147   1.213
 7746W        W69200   6.761  20.578  11.122
 7747W        W69201  22.049  38.038  12.574
 7748W        W69202  42.925  33.054   1.290
 7749W        W69203  24.589  43.393   4.292
 7750W        W69204  36.437  33.625   3.368
 7751W        W69205  17.166  42.410  12.880
 7752W        W69206   9.825  32.470   0.730
 7753W        W69207  33.877  29.951  13.548
 7754W        W69208  35.017  35.431  11.912
 7755W        W69209  29.441  20.132  11.501
 7756W        W69210  28.492   8.818  14.510
 7757W        W69211  14.302   9.707  11.434
 7758W        W69212  37.536  32.586   4.255
 7759W        W69213  13.298   8.672   2.859
 7760W        W69214  44.421   9.858   3.657
 7761W        W69215  13.172  21.199  14.356
 7762W        W69216  37.025  19.058  14.981
 7763W        W69217  26.546  24.000   0.403
 7764W        W69218  31.066   5.307   5.277
 7765W        W69219  14.115  17.210  12.031
 7766W        W69220   2.452  23.198  14.779
 7767W        W69221  38.027   1.254  12.070
 7768W        W69222  38.928  44.893  11.078
 7769W        W69223  30.141   6.415   2.279
 7770W        W69224  37.015   8.237  13.438
 7771W        W69225  11.367  25.159  12.084
 7772W        W69226   5.421   3.241   5.099
 7773W        W69227  18.119  16.140  11.502
 7774W        W69228  17.623  18.184  12.557
 7775W        W69229  10.144  11.270  10.918
 7776W        W69230   7.372  32.546  11.483
 7777W        W69231  35.104   0.824   5.142
 7778W        W69232  17.679  44.914   1.225
 7779W        W69233  32.605  42.991   0.478
 7780W        W69234  32.403  43.349  13.330
 7781W        W69235  27.601   9.796  11.584
 7782W        W69236  20.250  20.202  13.315
 7783W        W69237  17.100  30.990  13.865
 7784W        W69238  16.282  35.875   3.786
 7785W        W69239  36.367  37.469   0.737
 7786W        W69240   8.321  42.292   4.274
 7787W        W69241  36.527  15.098   4.166
 7788W        W69242   0.404  23.217  13.417
 7789W        W69243  28.019  15.807  14.863
 7790W        W69244   8.889  38.076  12.071
 7791W        W69245  34.492  28.475   3.701
 7792W        W69246  36.049  16.230  14.858
 7793W        W69247  30.954  33.612   3.721
 7794W        W69248  10.339   2.393  13.985
 7795W        W69249  26.600   7.758   1.407
 7796W        W69250  14.199  14.219   2.378
 7797W        W69251  20.144   5.897   2.822
 7798W        W69252  30.998  17.663   4.352
 7799W        W69253   2.918  14.713  12.416
 7800W        W69254   3.852  32.918  12.448
 7801W        W69255  31.596  36.958   4.289
 7802W        W69256   4.883  39.948   4.157
 7803W        W69257  22.723  34.525   0.755
 7804W        W69258  36.485  21.694  13.820
 7805W        W69259  43.779   0.832   2.849
 7806W        W69260   9.348   2.818   3.319
 7807W        W69261  20.234   4.450  10.608
 7808W        W69262   3.929  37.440  12.839
 7809W        W69263  30.430  16.116   0.752
 7810W        W69264  36.549  31.100   1.347
 7811W        W69265  18.157  39.028   2.215
 7812W        W69266  41.486  40.924  14.439
 7813W        W69267  44.503  18.053  10.955
 7814W        W69268  25.513  29.500   1.847
 7815W        W69269  32.924  29.543  12.997
 7816W        W69270   6.365  27.113  11.389
 7817W        W69271  31.612   9.882  14.867
 7818W        W69272   2.279  24.046  12.060
 7819W        W69273  43.485   0.805   4.765
 7820W        W69274  34.057  24.010   0.894
 7821W        W69275  25.967  16.249  11.860
 7822W        W69276   8.331  17.218   2.721
 7823W        W69277  12.631  43.781   3.355
 7824W        W69278  42.398   2.454   1.854
 7825W        W69279  20.238  41.331  13.938
 7826W        W69280   9.728  22.509   3.222
 7827W        W69281  26.137  41.469   3.652
 7828W        W69282   5.711  43.508  14.965
 7829W        W69283  19.583   5.880  11.508
 7830W        W69284  42.939  18.209  11.956
 7831W        W69285  19.132  13.290   9.996
 7832W        W69286  21.106  26.537   0.942
 7833W        W69287  29.147   5.244  12.376
 7834W        W69288   4.785   8.344  10.928
 7835W        W69289  24.540  16.273   0.833
 7836W        W69290  36.463  16.810  14.322
 7837W        W69291  38.547  20.159   2.675
 7838W        W69292  26.207  20.634   0.380
 7839W        W69293  32.004  37.049  10.999
 7840W        W69294   9.861  13.685  11.440
 7841W        W69295   2.455  40.496  14.874
 7842W        W69296   4.818  17.770   2.336
 7843W        W69297  26.464  24.724   0.481
 7844W        W69298   9.823  16.588  12.513
 7845W        W69299  26.951  19.729   0.262
 7846W        W69300  31.588  37.402  14.828
 7847W        W69301  15.281  30.939  10.613
 7848W        W69302   8.314  12.667  10.552
 7849W        W69303  18.115   4.225  10.993
 7850W        W69304  14.198  31.012   1.363
 7851W        W69305  34.960  44.405   0.476
 7852W        W69306   5.863   7.734   1.372
 7853W        W69307  35.091  32.970   3.164
 7854W        W69308  37.943  30.550  13.854
 7855W        W69309  28.507  44.341  14.825
 7856W        W69310  14.102  31.150  14.369
 7857W        W69311  18.679  31.006  13.447
 7858W        W69312  32.532  17.584   3.312
 7859W        W69313  41.845  24.117   1.315
 7860W        W69314  37.378  29.136   3.690
 7861W        W69315  12.684  32.022  11.391
 7862W        W69316  15.717  43.364   4.821
 7863W        W69317  43.979   4.338   0.825
 7864W        W69318  13.129   8.654   4.735
 7865W        W69319  43.486  11.363  11.942
 7866W        W69320  37.352  41.012   3.659
 7867W        W69321  31.973  24.198   1.354
 7868W        W69322  30.054  35.471  12.523
 7869W        W69323  25.999  16.805  14.884
 7870W        W69324   7.318   3.881   0.283
 7871W        W69325  23.100  12.665   0.825
 7872W        W69326  10.366  44.402   4.741
 7873W        W69327  32.997  25.667  11.864
 7874W        W69328  37.512  42.998  11.073
 7875W        W69329  27.594  12.180   0.377
 7876W        W69330  10.190  17.094   3.148
 7877W        W69331  44.812  25.002   2.852
 7878W        W69332  25.604  12.323  12.839
 7879W        W69333  14.609  35.426  10.584
 7880W        W69334  17.593  31.595   4.168
 7881W        W69335  29.606  29.605   1.914
 7882W        W69336   7.793   5.891   0.300
 7883W        W69337  38.070  44.274   1.434
 7884W        W69338  19.253  11.685  14.466
 7885W        W69339  40.372  42.365  13.841
 7886W        W69340  21.623  15.679   2.186
 7887W        W69341  18.078  20.698  14.898
 7888W        W69342   9.813  44.923  14.851
 7889W        W69343  17.144   6.864   1.829
 7890W        W69344  10.179  25.003  13.951
 7891W        W69345  13.143  14.183   2.707
 7892W        W69346   4.286  31.543  11.497
 7893W        W69347  25.572  32.947  11.100
 7894W        W69348  39.465  14.336  10.530
 7895W        W69349   7.194   8.395   4.612
 7896W        W69350  15.192  23.613  11.105
 7897W        W69351   4.717  25.588   0.332
 7898W        W69352   7.770  37.030  13.931
 7899W        W69353  23.200  29.102  14.404
 7900W        W69354  16.646  15.578  13.797
 7901W        W69355  33.045  26.206  10.964
 7902W        W69356   4.431  25.603  11.433
 7903W        W69357  41.854  39.836   0.803
 7904W        W69358  42.525  43.923  14.868
 7905W        W69359  44.404  28.050   1.404
 7906W        W69360  11.254   6.884   0.761
 7907W        W69361  37.447   1.816  11.433
 7908W        W69362  39.052   5.434  13.382
 7909W        W69363  41.329  27.657   3.670
 7910W        W69364   5.202  23.025  10.621
 7911W        W69365  26.488  38.967  11.950
 7912W        W69366  33.104  39.378  13.857
 7913W        W69367   6.922  30.600   0.261
 7914W        W69368  12.679   5.384  14.764
 7915W        W69369  33.129  30.146   4.226
 7916W        W69370   6.291  41.993  11.873
 7917W        W69371  26.574  33.056   3.265
 7918W        W69372  26.621  41.445  14.917
 7919W        W69373  44.284  25.013   4.652
 7920W        W69374  11.276  29.003   1.330
 7921W        W69375   2.294  24.595   0.377
 7922W        W69376  12.676   7.270   0.391
 7923W        W69377  33.624  39.003   3.835
 7924W        W69378  11.810  16.213  10.405
 7925W        W69379   0.828  40.837  14.973
 7926W        W69380  17.734  15.269   2.373
 7927W        W69381  37.413  16.220   2.328
 7928W        W69382  10.675  30.626   1.315
 7929W        W69383   9.172   9.207   3.370
 7930W        W69384  41.309  19.759   4.182
 7931W        W69385  24.664  27.153   4.759
 7932W        W69386  42.399   6.302  11.592
 7933W        W69387  16.746  15.100  12.965
 7934W        W69388  20.062  40.828  11.020
 7935W        W69389  21.199  14.151  13.017
 7936W        W69390   4.712   4.211   3.325
 7937W        W69391  33.130  25.123   4.285
 7938W        W69392   8.675   6.810  14.781
 7939W        W69393  39.042   4.411   3.263
 7940W        W69394  31.971  38.975   0.803
 7941W        W69395  11.631  34.949  11.570
 7942W        W69396  22.119  38.962   3.273
 7943W        W69397   8.699  19.732  14.488
 7944W        W69398  14.200  43.854  14.506
 7945W        W69399  36.493  24.986   0.415
 7946W        W69400  17.256  28.665  14.845
 7947W        W69401  36.372  28.577   4.326
 7948W        W69402   4.210   3.331  11.480
 7949W        W69403  14.252  24.110  14.403
 7950W        W69404  17.277  11.772   1.286
 7951W        W69405  30.963   9.315  14.918
 7952W        W69406   3.910  14.779   0.842
 7953W        W69407  14.184  12.739   1.896
 7954W        W69408  24.640  44.889   3.176
 7955W        W69409  11.752  34.005  12.356
 7956W        W69410  15.213   8.894  14.351
 7957W        W69411  25.073  36.015  10.989
 7958W        W69412  23.000  42.919   0.736
 7959W        W69413   8.848  25.985   1.778
 7960W        W69414  34.382   1.356  11.554
 7961W        W69415  12.784  34.111   4.688
 7962W        W69416  31.479  34.962  11.565
 7963W        W69417  13.797   6.722   4.207
 7964W        W69418   8.838  44.326   4.165
 7965W        W69419  25.697  30.100  13.336
 7966W        W69420   6.817   6.304  12.998
 7967W        W69421  36.856  11.659   1.397
 7968W        W69422   6.772   9.878  12.444
 7969W        W69423  30.475   3.859  12.064
 7970W        W69424  38.881  30.018   2.416
 7971W        W69425  34.032  30.133  13.898
 7972W        W69426  42.386   2.869   2.350
 7973W        W69427  19.743  12.652  11.420
 7974W        W69428  13.288  16.289   3.697
 7975W        W69429   7.886  15.606   0.814
 7976W        W69430  39.390   4.448   4.236
 7977W        W69431  42.495  40.500   4.345
 7978W        W69432   1.420  24.633  14.798
 7979W        W69433  40.457  33.481  12.825
 7980W        W69434  22.022   2.331  14.381
 7981W        W69435  30.123  38.507  11.037
 7982W        W69436   8.836  23.112  10.966
 7983W        W69437  44.969  36.485   4.673
 7984W        W69438  36.519  12.158  14.515
 7985W        W69439   4.367  29.091   3.776
 7986W        W69440  42.775  37.464  10.104
 7987W        W69441  14.243   3.884   2.267
 7988W        W69442  39.898  28.004   3.863
 7989W        W69443  20.250  28.579   1.447
 7990W        W69444  40.316  19.541   2.842
 7991W        W69445  44.945   3.368   0.316
 7992W        W69446  43.888  31.942   1.848
 7993W        W69447  35.990  16.199  13.874
 7994W        W69448  10.680  21.519   2.789
 7995W        W69449  42.836  21.157  14.466
 7996W        W69450   7.798   5.244   0.905
 7997W        W69451  25.712  43.426   4.286
 7998W        W69452  34.954   7.726   1.434
 7999W        W69453  29.483  14.275   1.339
 8000W        W69454  17.556  31.123  14.479
 8001W        W69455   9.165  10.666   1.235
 8002W        W69456   5.269  44.790   2.363
 8003W        W69457  26.030  34.450   0.288
 8004W        W69458  28.612  29.073   1.329
 8005W        W69459   3.812  21.203   4.598
 8006W        W69460  38.351  35.418  14.911
 8007W        W69461  41.348  34.489  14.902
 8008W        W69462  34.949  44.503  13.867
 8009W        W69463  17.673  40.961   3.783
 8010W        W69464  10.161   7.180  11.032
 8011W        W69465   8.247  30.423  11.959
 8012W        W69466  33.915   0.857   4.151
 8013W        W69467  15.233  42.818  12.966
 8014W        W69468  36.995   4.403   0.922
 8015W        W69469   3.870   4.866  14.396
 8016W        W69470  25.964  41.361  14.920
 8017W        W69471  40.959   9.691   3.761
 8018W        W69472  26.109  35.461   4.153
 8019W        W69473  44.385  12.811  11.001
 8020W        W69474  30.442  21.597  11.937
 8021W        W69475  24.100  17.148  13.360
 8022W        W69476   8.712  10.786  14.948
 8023W        W69477   5.758  37.487  11.521
 8024W        W69478  24.517  18.593  14.760
 8025W        W69479   0.370  36.467   4.153
 8026W        W69480   4.356  36.861  13.857
 8027W        W69481  43.857  32.937   0.870
 8028W        W69482  29.148  37.938   3.689
 8029W        W69483  26.555  13.767  14.966
 8030W        W69484  35.385  34.431   2.739
 8031W        W69485  18.077  40.356  13.818
 8032W        W69486   4.778  40.007  12.000
 8033W        W69487  29.119  39.855   3.241
 8034W        W69488  43.401  34.427   2.251
 8035W        W69489   9.267  43.395  14.494
 8036W        W69490  29.043  13.604   3.287
 8037W        W69491  35.888  17.244   0.891
 8038W        W69492  27.586  13.274  12.849
 8039W        W69493  42.456  19.217  10.637
 8040W        W69494  31.050  27.031  12.072
 8041W        W69495  27.993   4.264  13.450
 8042W        W69496  21.257  34.561  11.418
 8043W        W69497   9.796  15.685   3.815
 8044W        W69498  33.558  44.978  13.898
 8045W        W69499   9.878  29.597   2.204
 8046W        W69500   5.319  14.339   3.867
 8047W        W69501  44.277  10.858  13.340
 8048W        W69502   5.763  43.469  11.579
 8049W        W69503   5.900  22.126   1.226
 8050W        W69504  43.328  19.179   0.470
 8051W        W69505  29.504  24.975   4.732
 8052W        W69506  20.183   1.831  10.892
 8053W        W69507  33.398  12.190   5.086
 8054W        W69508  38.047   4.730   2.258
 8055W        W69509  18.215  30.536  11.401
 8056W        W69510  21.758   9.174  12.571
 8057W        W69511   1.968   5.694   1.297
 8058W        W69512  35.957  41.503   0.779
 8059W        W69513  22.631  14.186  14.487
 8060W        W69514  35.068  21.613  13.831
 8061W        W69515  10.350   9.703   3.331
 8062W        W69516  36.041   2.393  12.908
 8063W        W69517  32.060  26.672   3.336
 8064W        W69518  15.310  38.071   1.351
 8065W        W69519  39.024  40.340   2.706
 8066W        W69520  41.923   1.941   3.256
 8067W        W69521  21.213  36.988  11.480
 8068W        W69522  12.814  39.389  12.970
 8069W        W69523  18.718   4.246   0.335
 8070W        W69524  16.757  14.790   2.900
 8071W        W69525  29.668  27.950  10.618
 8072W        W69526  17.756  23.077  13.050
 8073W        W69527  37.549  12.660  12.358
 8074W        W69528  25.643  26.096   1.803
 8075W        W69529  43.375  32.946   0.906
 8076W        W69530  20.527  13.626   1.921
 8077W        W69531  15.235  44.771   4.333
 8078W        W69532  35.460   5.389  12.551
 8079W        W69533   0.287  35.961   0.821
 8080W        W69534  38.064  23.191   0.758
 8081W        W69535  36.428   7.400  11.929
 8082W        W69536  33.490   5.833  13.334
 8083W        W69537  17.124  43.476  13.873
 8084W        W69538  30.559  17.616   3.679
 8085W        W69539  17.280   8.743  10.075
 8086W        W69540  20.561  29.565   4.599
 8087W        W69541   8.878  16.291  11.031
 8088W        W69542  32.083  22.535   0.251
 8089W        W69543   7.218  10.156  13.355
 8090W        W69544   4.357  20.545   2.279
 8091W        W69545  41.840  36.061   3.730
 8092W        W69546  39.352  22.563  10.512
 8093W        W69547  42.372   3.782  13.347
 8094W        W69548  20.066  35.910  12.030
 8095W        W69549  36.878   2.750  11.498
 8096W        W69550   4.288   2.467  10.549
 8097W        W69551  33.009  22.242  14.307
 8098W        W69552  29.482  27.627  13.505
 8099W        W69553  20.696  32.619  10.580
 8100W        W69554  44.265  14.318  13.475
 8101W        W69555  15.190  18.684  13.928
 8102W        W69556  41.027   6.254  14.899
 8103W        W69557  29.090  42.286  12.486
 8104W        W69558  23.174  43.858   1.356
 8105W        W69559   9.345  38.471  11.450
 8106W        W69560  41.794  41.303  10.957
 8107W        W69561  39.876   4.892   0.897
 8108W        W69562  31.633  10.326   0.352
 8109W        W69563  10.255  36.020  10.637
 8110W        W69564  18.172  21.118  12.412
 8111W        W69565   5.752   4.783   0.269
 8112W        W69566  13.709  39.899   4.286
 8113W        W69567  11.708   9.365  10.097
 8114W        W69568  40.368  40.004  11.441
 8115W        W69569  30.095  37.985   4.784
 8116W        W69570  38.838  24.629  14.865
 8117W        W69571  25.066   9.862  10.421
 8118W        W69572   6.691  12.737  11.011
 8119W        W69573  38.555  15.744   0.887
 8120W        W69574  19.067  19.713  13.928
 8121W        W69575  26.672  19.713  11.941
 8122W        W69576  21.134  31.531  13.397
 8123W        W69577  10.823  33.426   3.767
 8124W        W69578  39.964  43.343   0.777
 8125W        W69579  18.580  34.089   2.231
 8126W        W69580  43.299   2.774  12.833
 8127W        W69581  11.242  35.418   2.411
 8128W        W69582  16.721  43.992   0.384
 8129W        W69583  44.970  14.283   0.933
 8130W        W69584   2.810  36.455  11.954
 8131W        W69585  21.261  33.439  11.115
 8132W        W69586  42.025  17.201   4.193
 8133W        W69587  31.967  26.556  10.463
 8134W        W69588  34.542  25.172  11.465
 8135W        W69589  22.145  23.556   4.805
 8136W        W69590  43.456  25.085  14.315
 8137W        W69591  27.041  39.547  10.987
 8138W        W69592  33.396  31.097   0.818
 8139W        W69593  23.140   3.394   4.273
 8140W        W69594  41.325  16.279   0.820
 8141W        W69595  28.149  33.573  12.050
 8142W        W69596  12.758  15.622  12.839
 8143W        W69597   5.790  20.037   0.936
 8144W        W69598  25.654  41.439  10.895
 8145W        W69599  44.280  31.925   0.483
 8146W        W69600   9.652  33.986   1.801
 8147W        W69601   7.904   6.702  10.995
 8148W        W69602  16.072  24.478   1.695
 8149W        W69603  21.209   2.298   3.714
 8150W        W69604  16.308  20.188   1.814
 8151W        W69605   0.898  36.453   4.693
 8152W        W69606   4.730  28.505  12.890
 8153W        W69607  31.119  42.417  13.468
 8154W        W69608  28.085  12.250  13.366
 8155W        W69609  12.173   2.352   1.318
 8156W        W69610  12.255  39.341  11.492
 8157W        W69611   7.706  35.030   4.142
 8158W        W69612  20.079  13.241  13.899
 8159W        W69613  28.963  26.591   4.133
 8160W        W69614  40.026   6.276   3.864
 8161W        W69615  10.194  36.556   2.781
 8162W        W69616  16.231   1.811  11.918
 8163W        W69617   1.899   8.165  12.831
 8164W        W69618  36.505  38.834  13.934
 8165W        W69619  16.173  40.879  10.887
 8166W        W69620   5.802  33.510   3.693
 8167W        W69621  20.244  22.642  11.955
 8168W        W69622  27.617  12.239   3.316
 8169W        W69623  44.767  27.028  13.398
 8170W        W69624  15.279  11.370  11.872
 8171W        W69625  39.447  12.802  14.011
 8172W        W69626  42.312  13.731  10.496
 8173W        W69627  18.568  42.805  11.894
 8174W        W69628   4.263  14.637   1.313
 8175W        W69629  32.479   1.958  11.612
 8176W        W69630  16.593  34.905   3.309
 8177W        W69631  27.495  26.682   0.910
 8178W        W69632  13.244  33.119  14.387
 8179W        W69633  12.132  17.689   0.463
 8180W        W69634  26.526  12.789  12.910
 8181W        W69635  42.987  19.231  14.918
 8182W        W69636  16.318  44.000   4.308
 8183W        W69637   3.788  11.348  14.283
 8184W        W69638  15.234  41.378  13.935
 8185W        W69639  13.284  37.872   4.263
 8186W        W69640  30.589   5.394  10.899
 8187W        W69641  16.733  37.020   4.336
 8188W        W69642  39.904  26.992  14.330
 8189W        W69643  25.511  28.448   3.671
 8190W        W69644  30.910  38.949  13.448
 8191W        W69645  15.279  18.254  12.091
 8192W        W69646   9.675  43.771  11.934
 8193W        W69647  25.002  11.711   4.252
 8194W        W69648  33.481  38.448  13.920
 8195W        W69649  43.849   0.858  14.296
 8196W        W69650  29.173  24.980   1.375
 8197W        W69651  29.002  34.959  12.069
 8198W        W69652  42.420   1.265  13.528
 8199W        W69653  43.275  10.721   2.344
 8200W        W69654  17.614   2.424  12.866
 8201W        W69655   6.368  10.202   1.341
 8202W        W69656  41.966  37.373   4.755
 8203W        W69657  35.029  30.639  10.546
 8204W        W69658  24.655  35.884   2.205
 8205W        W69659  43.974   0.823   4.691
 8206W        W69660  21.084  17.165  14.435
 8207W        W69661  44.801  18.665  14.845
 8208W        W69662  20.151  11.209  14.807
 8209W        W69663  33.102  17.779  14.448
 8210W        W69664  15.276  17.610   2.405
 8211W        W69665  26.056   4.751  12.559
 8212W        W69666  35.537  11.356  12.916
 8213W        W69667   9.209  15.155   1.411
 8214W        W69668  18.594  13.832   1.245
 8215W        W69669  27.536  42.024   0.349
 8216W        W69670   2.872  34.066  10.475
 8217W        W69671   4.918   5.288  11.426
 8218W        W69672  41.427  32.420  13.382
 8219W        W69673   9.301   4.877  11.978
 8220W        W69674  27.655   7.666  14.459
 8221W        W69675  37.555  33.931   0.465
 8222W        W69676   6.424   0.409  10.921
 8223W        W69677  39.884  12.742  13.493
 8224W        W69678  27.956   1.959  10.438
 8225W        W69679  10.774  43.474   2.738
 8226W        W69680  31.502  19.255   2.869
 8227W        W69681  20.743  35.933   2.881
 8228W        W69682  14.163   6.759   3.256
 8229W        W69683  27.087   8.770   4.703
 8230W        W69684  37.545  22.242   4.330
 8231W        W69685  40.399   6.289   9.992
 8232W        W69686  41.320  23.144   4.113
 8233W        W69687  31.911   1.787   2.218
 8234W        W69688  37.350   6.803  12.913
 8235W        W69689   9.834  40.890   4.709
 8236W        W69690   4.912   5.399   0.349
 8237W        W69691  32.440  32.609   0.782
 8238W        W69692  43.401  35.974   0.915
 8239W        W69693   7.274  32.128  12.531
 8240W        W69694  33.524  42.425   0.937
 8241W        W69695  23.663  18.736  12.436
 8242W        W69696  39.815   2.416   2.732
 8243W        W69697  31.469  31.623   2.785
 8244W        W69698  12.309  13.121  13.317
 8245W        W69699  41.821   4.806  14.790
 8246W        W69700  38.840  16.252   3.217
 8247W        W69701  40.973  13.213   1.260
 8248W        W69702  39.400  29.600   0.448
 8249W        W69703  40.490  14.122   4.190
 8250W        W69704  37.571  31.553   2.698
 8251W        W69705  21.166  17.132  10.893
 8252W        W69706  10.185  14.132  10.975
 8253W        W69707   1.823  34.607  12.391
 8254W        W69708   2.465   1.395  14.809
 8255W        W69709   2.918  29.102   1.698
 8256W        W69710  32.041   9.208   1.247
 8257W        W69711   4.746  21.044  13.336
 8258W        W69712  28.109  28.045   0.855
 8259W        W69713  33.560  33.115   1.831
 8260W        W69714  21.257  36.534  10.595
 8261W        W69715  29.930  24.716  13.497
 8262W        W69716  22.617  11.837   9.950
 8263W        W69717  43.845  11.218   1.746
 8264W        W69718  36.396  16.576   1.350
 8265W        W69719  26.481   7.238  10.074
 8266W        W69720  19.565  37.875   2.865
 8267W        W69721  15.717  13.159  10.581
 8268W        W69722  23.541  21.046  14.827
 8269W        W69723   2.261  25.590   0.908
 8270W        W69724   8.222  33.484   2.277
 8271W        W69725  42.412  23.660   3.851
 8272W        W69726  39.916  24.029  11.557
 8273W        W69727  34.097  27.119  11.997
 8274W        W69728  40.503   0.806  13.467
 8275W        W69729  27.585   0.979  11.569
 8276W        W69730  11.230  16.172  12.544
 8277W        W69731  30.091   7.749  14.817
 8278W        W69732  15.273  35.403  12.903
 8279W        W69733  42.781  34.095  14.762
 8280W        W69734  27.558   6.311   4.749
 8281W        W69735  40.422  24.650   2.280
 8282W        W69736   2.264  32.123  13.383
 8283W        W69737  13.198  32.016   4.837
 8284W        W69738  30.556  11.761  10.939
 8285W        W69739   2.846  32.557   3.301
 8286W        W69740  18.738   5.876  14.355
 8287W        W69741   3.423   6.760  12.999
 8288W        W69742  37.947  43.890   3.831
 8289W        W69743  21.709  34.387   0.263
 8290W        W69744  13.831  41.331   2.892
 8291W        W69745  42.364  31.566   4.674
 8292W        W69746  42.957   3.931  14.968
 8293W        W69747  16.158  34.478   1.720
 8294W        W69748  14.651   8.784  10.418
 8295W        W69749   9.152  21.679  13.975
 8296W        W69750  12.236  31.638  13.921
 8297W        W69751   2.944  17.697   1.254
 8298W        W69752  36.480   5.428  14.764
 8299W        W69753  43.362  37.897  13.875
 8300W        W69754   7.209   9.709  11.009
 8301W        W69755  35.399  34.873  13.013
 8302W        W69756   7.678  44.772   4.631
 8303W        W69757  19.550  35.534  12.954
 8304W        W69758  35.090  20.137   3.231
 8305W        W69759  30.497   3.913   1.921
 8306W        W69760  12.834  43.872  13.314
 8307W        W69761  42.867   7.722   2.832
 8308W        W69762  42.472  26.654   1.827
 8309W        W69763   2.374  37.467   2.873
 8310W        W69764  33.472  11.665   4.803
 8311W        W69765  13.212   6.889   0.464
 8312W        W69766  34.527  15.648   3.846
 8313W        W69767   9.670  17.163   5.262
 8314W        W69768   7.230  40.413  11.535
 8315W        W69769  16.284  22.536  14.979
 8316W        W69770  44.863   1.780  14.995
 8317W        W69771  19.590  41.039   4.135
 8318W        W69772  22.719  11.756   1.405
 8319W        W69773  37.016   1.245  10.517
 8320W        W69774  24.157  43.865  13.995
 8321W        W69775  13.717  30.997   0.961
 8322W        W69776  40.499  24.211  10.540
 8323W        W69777  20.245  43.910  11.443
 8324W        W69778  20.171   1.359   1.326
 8325W        W69779   7.769  14.665  10.600
 8326W        W69780  28.120  40.543   1.303
 8327W        W69781  10.243  38.528   4.157
 8328W        W69782  28.574  28.511   3.782
 8329W        W69783  25.119  11.288   2.836
 8330W        W69784  43.819  19.091  11.024
 8331W        W69785  29.589  21.680   1.338
 8332W        W69786  10.293  35.920  14.857
 8333W        W69787  14.761  28.951   2.189
 8334W        W69788  19.144  12.744   1.351
 8335W        W69789  16.300  43.781  13.940
 8336W        W69790  42.478  23.507  14.846
 8337W        W69791   1.302  40.855   0.815
 8338W        W69792  34.948   4.332  13.315
 8339W        W69793  25.600  31.485  13.052
 8340W        W69794  26.140  25.051   2.885
 8341W        W69795  14.596   6.183  11.371
 8342W        W69796  20.076  36.978  12.091
 8343W        W69797  17.177  24.010   2.365
 8344W        W69798  31.040  31.560   0.943
 8345W        W69799  36.523   2.438  13.014
 8346W        W69800  44.872   2.262  11.917
 8347W        W69801  43.343  41.485   3.756
 8348W        W69802  10.331  11.782   1.417
 8349W        W69803  15.715  35.587   3.219
 8350W        W69804  30.453  34.021   0.377
 8351W        W69805   8.747  16.244   0.309
 8352W        W69806  37.510  28.939   3.174
 8353W        W69807  42.921  43.378   4.792
 8354W        W69808   1.949   6.714   2.814
 8355W        W69809  15.778  44.787   2.307
 8356W        W69810  14.212  38.979   1.779
 8357W        W69811  36.439  26.995  13.919
 8358W        W69812  42.362  22.098   2.358
 8359W        W69813  43.285  11.269   0.827
 8360W        W69814  16.253   4.762   4.141
 8361W        W69815   2.952  18.694   1.734
 8362W        W69816   9.332  11.749   1.749
 8363W        W69817  27.151   4.940   3.304
 8364W        W69818  23.128  22.167   0.265
 8365W        W69819  20.189   4.733  11.605
 8366W        W69820  13.313  33.622  11.509
 8367W        W69821  37.421  18.052   4.599
 8368W        W69822  12.362  14.273   4.258
 8369W        W69823  20.120  41.897   3.258
 8370W        W69824  11.269  26.689  14.027
 8371W        W69825  13.635  17.205   2.208
 8372W        W69826  23.181   7.328  14.874
 8373W        W69827   1.433  44.801  10.511
 8374W        W69828  43.929  39.453  14.942
 8375W        W69829  17.266  33.980   2.745
 8376W        W69830  12.815   4.723  12.494
 8377W        W69831  16.733  44.870  14.923
 8378W        W69832  40.876  32.009  14.780
 8379W        W69833  38.838  25.539  10.446
 8380W        W69834  24.019   2.955   3.752
 8381W        W69835  20.532  18.104   4.314
 8382W        W69836  20.111   0.442   0.875
 8383W        W69837  32.498  43.810   0.842
 8384W        W69838  12.672  28.450  14.032
 8385W        W69839  13.696  27.634  11.941
 8386W        W69840  36.978  42.027   3.374
 8387W        W69841   6.252  38.371   0.928
 8388W        W69842  28.475  43.395  14.875
 8389W        W69843  20.094  40.475   4.808
 8390W        W69844   1.408  35.930  10.411
 8391W        W69845  23.016  40.913  10.954
 8392W        W69846  28.464  30.160   2.804
 8393W        W69847   1.462   1.779  13.023
 8394W        W69848   1.462   1.893  12.096
 8395W        W69849  22.650  30.086   1.828
 8396W        W69850  21.707  35.046   2.895
 8397W        W69851  39.938  14.317   4.762
 8398W        W69852  28.526  28.138  12.570
 8399W        W69853  21.149  44.321  13.450
 8400W        W69854  13.350  19.584   9.448
 8401W        W69855  33.886  32.956  12.962
 8402W        W69856   2.471  19.118   3.705
 8403W        W69857  37.531  42.775   1.729
 8404W        W69858  15.749  29.520   0.255
 8405W        W69859  39.953  30.050   1.875
 8406W        W69860   3.940  25.169  11.449
 8407W        W69861  16.168   1.271   3.825
 8408W        W69862  39.048  37.504   4.767
 8409W        W69863   4.886   9.390  14.361
 8410W        W69864  35.495  32.391  12.339
 8411W        W69865   1.354  24.058   2.680
 8412W        W69866  38.834  26.972   4.260
 8413W        W69867  44.420  34.480   2.677
 8414W        W69868  41.437   5.770  11.058
 8415W        W69869  34.057  41.397   0.913
 8416W        W69870   0.977  41.362   9.955
 8417W        W69871  12.705   9.299  13.424
 8418W        W69872  14.716  42.970  10.637
 8419W        W69873  42.390   2.854  12.436
 8420W        W69874   0.353  34.464  12.090
 8421W        W69875  40.048  39.843   2.813
 8422W        W69876   1.461   7.837  11.922
 8423W        W69877  31.643  31.496   2.283
 8424W        W69878  15.199  37.579   3.744
 8425W        W69879  23.666  23.182  10.944
 8426W        W69880  11.130  19.126   2.798
 8427W        W69881  28.152   6.742  14.932
 8428W        W69882  29.934  38.495  14.376
 8429W        W69883  30.604  20.740   3.292
 8430W        W69884  35.037  11.218   0.847
 8431W        W69885  16.283   4.913  13.336
 8432W        W69886   6.334  37.558  14.938
 8433W        W69887  18.212   0.943   0.887
 8434W        W69888  24.140  36.456   0.893
 8435W        W69889  35.107  37.915   4.339
 8436W        W69890  11.727  21.548   3.367
 8437W        W69891  35.031   7.391   4.351
 8438W        W69892  15.693  11.723  14.494
 8439W        W69893  39.040  27.984  12.071
 8440W        W69894  28.979  10.717  14.291
 8441W        W69895  11.824   7.752   2.689
 8442W        W69896  28.116  28.606  12.084
 8443W        W69897   8.280  38.917  12.993
 8444W        W69898  36.351  20.626   1.784
 8445W        W69899  38.547  38.438   4.333
 8446W        W69900  17.574  16.567  11.060
 8447W        W69901  39.424   2.324  13.338
 8448W        W69902  30.646  17.223   0.248
 8449W        W69903  38.845  28.082  13.959
 8450W        W69904   8.314  42.819   4.819
 8451W        W69905  34.468  19.563   3.828
 8452W        W69906  32.558  26.967  11.532
 8453W        W69907  20.549  35.985   1.296
 8454W        W69908   8.798  39.820   2.802
 8455W        W69909  39.450  14.241  12.840
 8456W        W69910  20.714  33.891   2.844
 8457W        W69911   6.711   0.367  14.275
 8458W        W69912  28.649  41.817   4.793
 8459W        W69913   0.335  34.103   1.442
 8460W        W69914   3.720   1.373  14.908
 8461W        W69915   6.888  13.672  11.911
 8462W        W69916  18.239   2.763   2.239
 8463W        W69917  35.965   3.453   0.803
 8464W        W69918  10.216   4.772   1.321
 8465W        W69919  22.027   1.788  13.876
 8466W        W69920  19.587  29.080  10.595
 8467W        W69921  44.868   6.746   1.230
 8468W        W69922  39.984  44.815   2.894
 8469W        W69923  34.606  39.932   1.431
 8470W        W69924   2.468  30.032  12.033
 8471W        W69925  38.428   2.335  11.901
 8472W        W69926  40.436  26.040  13.354
 8473W        W69927   8.268  18.137  13.538
 8474W        W69928  30.428  15.643   5.144
 8475W        W69929  19.134  29.042  13.362
 8476W        W69930   9.764   8.310  13.863
 8477W        W69931  28.085  21.023   3.768
 8478W        W69932  43.514  21.590   3.202
 8479W        W69933  30.587  40.909   3.754
 8480W        W69934  39.030  23.120   0.818
 8481W        W69935   0.978   8.318   0.767
 8482W        W69936  24.111  15.156   4.618
 8483W        W69937   8.830  26.474   0.761
 8484W        W69938  30.594  16.288  10.480
 8485W        W69939  23.218  33.925   3.742
 8486W        W69940  15.803  14.259   9.970
 8487W        W69941  10.797  18.176  12.850
 8488W        W69942  38.864   6.821   1.788
 8489W        W69943   1.338  39.418  13.870
 8490W        W69944  35.432   9.876  12.491
 8491W        W69945  18.641   3.801  11.010
 8492W        W69946  39.510  13.844   3.759
 8493W        W69947  39.398  16.225  11.433
 8494W        W69948  11.127  23.618   3.778
 8495W        W69949  44.276  42.313  14.766
 8496W        W69950  18.609  19.115  13.339
 8497W        W69951  35.021  18.092   1.751
 8498W        W69952   9.707  43.913   4.236
 8499W        W69953  44.411   7.359   2.230
 8500W        W69954  29.507  35.008   0.941
 8501W        W69955  40.015  27.531   0.437
 8502W        W69956  14.824  15.790   3.172
 8503W        W69957  11.281  21.676  14.803
 8504W        W69958  18.724  18.676  10.943
 8505W        W69959  21.243  37.059  10.988
 8506W        W69960   2.941  12.131  14.301
 8507W        W69961  40.946  27.516  13.966
 8508W        W69962  38.009   5.808   2.821
 8509W        W69963  44.832  16.686  10.458
 8510W        W69964  27.069  19.069   1.770
 8511W        W69965  35.976   9.817   2.746
 8512W        W69966  28.933   2.795  10.524
 8513W        W69967  24.616  18.598   1.316
 8514W        W69968  36.573  39.050   0.905
 8515W        W69969  43.410  14.141   2.217
 8516W        W69970   7.331  22.677   0.760
 8517W        W69971   1.742  22.129   3.715
 8518W        W69972   7.400  23.063   2.687
 8519W        W69973  17.596  23.500  12.421
 8520W        W69974  36.565   8.663   2.896
 8521W        W69975  30.019  28.055  11.951
 8522W        W69976   5.320  12.261  10.938
 8523W        W69977  23.003  12.151  10.404
 8524W        W69978  31.583  19.110  11.940
 8525W        W69979  40.335  37.891  11.489
 8526W        W69980  11.817   5.758   1.883
 8527W        W69981  20.567  11.365  12.853
 8528W        W69982   6.247  41.817  13.942
 8529W        W69983   0.902  30.470   3.285
 8530W        W69984  17.617   8.338  14.452
 8531W        W69985   0.401  31.040  11.884
 8532W        W69986   3.247   7.227  13.952
 8533W        W69987   4.805  34.598   2.748
 8534W        W69988   7.714  26.186   3.229
 8535W        W69989  19.229  10.280   4.173
 8536W        W69990  41.409  27.487   2.722
 8537W        W69991  30.978  16.732   2.898
 8538W        W69992  34.374  21.050  11.989
 8539W        W69993   9.326   0.266   3.157
 8540W        W69994  10.699   3.389   0.271
 8541W        W69995  12.704  25.028  11.494
 8542W        W69996  28.046  40.330   5.264
 8543W        W69997  25.640  26.695   4.334
 8544W        W69998  20.537  12.254   4.117
 8545W        W69999   6.402  27.973   1.447
 8546W        W70000   9.765  40.456  14.000
 8547W        W70001  13.173  21.635  13.487
 8548W        W70002  28.501  44.384  14.328
 8549W        W70003   0.462  37.511   0.414
 8550W        W70004  24.487   3.889   9.655
 8551W        W70005  38.568  16.239  14.325
 8552W        W70006   4.706  12.249   2.848
 8553W        W70007   9.275  44.857  13.047
 8554W        W70008   7.246  14.685  12.003
 8555W        W70009  20.097  11.173   2.279
 8556W        W70010  24.712  15.262  11.578
 8557W        W70011  27.175   7.898   0.246
 8558W        W70012  41.921  11.370  12.531
 8559W        W70013   2.441  33.417  12.559
 8560W        W70014  35.488   6.787  12.533
 8561W        W70015  30.150  22.037  13.469
 8562W        W70016  37.899  42.954   0.908
 8563W        W70017   2.367  10.844   0.753
 8564W        W70018  42.366  40.034   0.910
 8565W        W70019  16.252   8.347  11.970
 8566W        W70020  38.825  38.499   2.312
 8567W        W70021  42.916  17.659  12.353
 8568W        W70022   5.249  33.528  14.778
 8569W        W70023  39.467  15.676  11.865
 8570W        W70024  32.448   1.380   1.723
 8571W        W70025  12.135  25.977   4.351
 8572W        W70026  35.989  40.820  14.419
 8573W        W70027  26.549  25.593  14.311
 8574W        W70028  25.210  15.128  10.526
 8575W        W70029  34.481  20.616   0.399
 8576W        W70030  37.019  21.752  13.378
 8577W        W70031  18.184  23.666   2.877
 8578W        W70032  25.535  24.179   1.834
 8579W        W70033   8.189   4.285   2.832
 8580W        W70034  40.041  40.856  14.364
 8581W        W70035   5.762  35.004   2.201
 8582W        W70036  37.924  27.973   2.822
 8583W        W70037  34.115  13.651   2.662
 8584W        W70038  24.212  35.596   4.613
 8585W        W70039  10.328   5.231  14.394
 8586W        W70040  27.014  12.314   2.318
 8587W        W70041  30.636  29.085  14.407
 8588W        W70042  28.537  32.095   2.895
 8589W        W70043  42.816  34.945  12.852
 8590W        W70044   4.754  34.482  11.943
 8591W        W70045   5.224  42.938   3.819
 8592W        W70046  36.038   6.370   1.332
 8593W        W70047  42.291  21.684   4.685
 8594W        W70048  30.582  36.458  11.901
 8595W        W70049   8.763  33.096   0.778
 8596W        W70050  23.732   3.397   4.763
 8597W        W70051  27.529   9.653   0.334
 8598W        W70052  24.622  12.698  12.447
 8599W        W70053  34.001  20.684   1.270
 8600W        W70054   3.247  35.042   2.764
 8601W        W70055   7.802   1.449   0.300
 8602W        W70056   8.333  17.781  12.401
 8603W        W70057  17.223  17.796   0.860
 8604W        W70058   6.222  30.057   2.319
 8605W        W70059  41.017  31.150   4.275
 8606W        W70060  14.748  20.732  13.331
 8607W        W70061   8.711  44.293   5.110
 8608W        W70062  19.569  42.889  13.480
 8609W        W70063  16.176  32.141  13.003
 8610W        W70064  38.543  24.667   2.836
 8611W        W70065  10.179  12.300  13.964
 8612W        W70066   9.370   2.723   0.953
 8613W        W70067  16.572  22.577  14.327
 8614W        W70068   6.680  42.427   0.817
 8615W        W70069   7.190  16.783   3.217
 8616W        W70070  13.705   4.844   0.803
 8617W        W70071   0.436  40.323   4.215
 8618W        W70072  41.319   3.372   4.709
 8619W        W70073  36.891  32.949   1.919
 8620W        W70074   9.718  22.061   3.280
 8621W        W70075   2.288  20.209  14.297
 8622W        W70076  24.692   0.291  12.413
 8623W        W70077   3.262  32.555  12.988
 8624W        W70078  25.124  44.463   4.281
 8625W        W70079   5.412   8.383  11.473
 8626W        W70080  10.303  35.543  14.959
 8627W        W70081  36.023   9.339   0.851
 8628W        W70082  44.349  24.580  11.897
 8629W        W70083  17.731  22.701  12.509
 8630W        W70084  20.600  23.491   2.233
 8631W        W70085  38.565   3.302   1.859
 8632W        W70086   5.372   4.438  13.502
 8633W        W70087  15.186  36.959  14.284
 8634W        W70088  25.125   9.664  13.910
 8635W        W70089  37.900  11.654  13.453
 8636W        W70090  35.056  35.990  13.797
 8637W        W70091   6.265  39.973   1.752
 8638W        W70092  40.889  31.962  12.386
 8639W        W70093  15.235  12.280  14.392
 8640W        W70094  37.042  20.682   4.818
 8641W        W70095   2.315  35.365   3.261
 8642W        W70096  32.591  15.600  10.579
 8643W        W70097  15.270   5.775   3.858
 8644W        W70098  21.581  14.218  10.913
 8645W        W70099  25.019  25.044   1.215
 8646W        W70100  33.887  21.207  11.381
 8647W        W70101  15.785  40.319  12.379
 8648W        W70102  27.136   0.300  13.403
 8649W        W70103  11.264   6.913   0.447
 8650W        W70104  16.140  23.104   3.339
 8651W        W70105   3.219  15.126   4.296
 8652W        W70106  30.493  23.583  12.867
 8653W        W70107  10.333  35.078  14.826
 8654W        W70108   9.651  28.446   0.426
 8655W        W70109  13.257   8.684  13.428
 8656W        W70110  36.576   8.775  14.510
 8657W        W70111   9.883  17.296   0.476
 8658W        W70112  11.354  34.964  11.862
 8659W        W70113  26.146  24.102  14.360
 8660W        W70114   1.373  39.421   0.860
 8661W        W70115  28.006   8.315   4.634
 8662W        W70116  28.139  13.307   4.778
 8663W        W70117   9.679  34.557   9.621
 8664W        W70118  35.008  35.057  13.889
 8665W        W70119  29.667  13.272  12.495
 8666W        W70120  35.022   9.696  12.871
 8667W        W70121  38.004  39.417  11.872
 8668W        W70122   5.823   7.796   1.732
 8669W        W70123  19.600   8.196  10.475
 8670W        W70124  19.106   4.944  10.563
 8671W        W70125   6.299  11.761   2.285
 8672W        W70126   4.434  36.068  10.537
 8673W        W70127  39.527  12.689  11.537
 8674W        W70128  36.574  41.900  11.025
 8675W        W70129  20.524  29.482   2.375
 8676W        W70130  32.023   7.847  11.951
 8677W        W70131  32.006  34.072   0.726
 8678W        W70132  40.003  21.690   1.223
 8679W        W70133  37.417  25.468   2.776
 8680W        W70134  30.429  40.857   1.427
 8681W        W70135  14.833  19.130   5.647
 8682W        W70136   5.699  39.036   0.737
 8683W        W70137   7.211   9.264  12.857
 8684W        W70138   1.784   2.799   1.445
 8685W        W70139  31.036   2.939   1.793
 8686W        W70140  18.166  44.934  11.390
 8687W        W70141  41.905  31.604   4.272
 8688W        W70142  21.080   9.889  10.982
 8689W        W70143  11.344  31.643  11.568
 8690W        W70144   8.804  10.177   3.764
 8691W        W70145  11.714  38.557  14.890
 8692W        W70146  32.578  19.702   2.393
 8693W        W70147  39.977  26.201  10.631
 8694W        W70148   6.320  11.236   3.182
 8695W        W70149  35.502  30.582  12.507
 8696W        W70150  19.164   5.237  14.996
 8697W        W70151   5.297   2.888  12.424
 8698W        W70152  24.120  35.090  12.039
 8699W        W70153  26.160  22.601   3.272
 8700W        W70154  18.070   4.357   3.842
 8701W        W70155  29.038  40.988  11.562
 8702W        W70156   3.274   0.454  12.433
 8703W        W70157   3.413  18.654  13.470
 8704W        W70158   2.302  27.676  11.555
 8705W        W70159  31.628  16.621  13.360
 8706W        W70160  35.012  22.251  11.557
 8707W        W70161  39.345   2.932  13.441
 8708W        W70162  34.450  35.528  10.477
 8709W        W70163  30.122  31.574   1.234
 8710W        W70164   6.913   0.321   3.658
 8711W        W70165   1.254  14.605  12.372
 8712W        W70166  44.789  20.255  10.914
 8713W        W70167   4.729  22.148   4.187
 8714W        W70168  29.459  22.137  14.408
 8715W        W70169  42.009  16.204  10.436
 8716W        W70170  28.047  41.480   1.441
 8717W        W70171  44.370  22.215   0.827
 8718W        W70172  14.247  44.460  12.511
 8719W        W70173  34.489  35.386   3.752
 8720W        W70174  14.165   1.888  10.938
 8721W        W70175  29.108   6.836   2.319
 8722W        W70176  21.079  33.996   4.332
 8723W        W70177  10.658   3.841   3.749
 8724W        W70178  10.237   6.781   4.136
 8725W        W70179   4.887  27.680  12.371
 8726W        W70180   3.308  27.153   4.690
 8727W        W70181  29.483  16.315   0.786
 8728W        W70182  21.623  14.219   0.830
 8729W        W70183   9.648  23.209  12.094
 8730W        W70184  37.888  27.559  13.027
 8731W        W70185  31.490  19.556  10.894
 8732W        W70186  37.420  33.578   3.785
 8733W        W70187  28.985  41.534   0.936
 8734W        W70188   5.731  13.770   4.233
 8735W        W70189  44.852  14.648   2.846
 8736W        W70190  43.413  41.521   2.378
 8737W        W70191  10.807  13.188   0.858
 8738W        W70192  23.147  42.328  14.463
 8739W        W70193  26.144  23.113   4.198
 8740W        W70194  29.456  26.002   3.212
 8741W        W70195  22.539  36.099  11.090
 8742W        W70196  19.257  44.917   4.697
 8743W        W70197  25.651  17.159  12.853
 8744W        W70198  33.889  14.778  11.044
 8745W        W70199  13.702  23.102   0.879
 8746W        W70200  11.621  33.999   2.784
 8747W        W70201  27.667  41.396   0.269
 8748W        W70202  29.110  26.132  13.015
 8749W        W70203   1.941  14.660  10.442
 8750W        W70204  42.840  44.314   1.763
 8751W        W70205  37.496   1.330  12.067
 8752W        W70206  20.624   3.926   1.799
 8753W        W70207   4.721   9.215   1.751
 8754W        W70208  29.133  20.078   0.841
 8755W        W70209  17.300  39.030  14.956
 8756W        W70210   1.434  21.026  13.893
 8757W        W70211  38.955  10.234  14.781
 8758W        W70212  29.603  36.958   0.370
 8759W        W70213  32.986  23.203  11.060
 8760W        W70214  33.006  43.937   2.273
 8761W        W70215  26.644  40.446  10.502
 8762W        W70216  24.177   0.332   3.662
 8763W        W70217  38.860   8.373  13.979
 8764W        W70218  31.043  10.705   1.900
 8765W        W70219  10.816  14.590   3.692
 8766W        W70220  13.167   7.204   0.852
 8767W        W70221  22.670   7.752   3.312
 8768W        W70222  26.496   9.337  11.383
 8769W        W70223   0.412  29.455  14.383
 8770W        W70224   1.297  26.982  11.099
 8771W        W70225  44.827  15.711   0.857
 8772W        W70226  15.143  13.305  10.083
 8773W        W70227   0.292  26.167  10.497
 8774W        W70228  15.201   1.843  13.390
 8775W        W70229  18.130  40.532  10.503
 8776W        W70230  30.593  44.402  12.577
 8777W        W70231  15.657  41.825   2.386
 8778W        W70232  21.670  44.907   0.413
 8779W        W70233  41.353  40.952   5.783
 8780W        W70234  20.125  38.371   3.147
 8781W        W70235  12.300  33.948   3.690
 8782W        W70236  11.791   3.899  12.381
 8783W        W70237   4.331  16.679   4.682
 8784W        W70238  38.368  17.780   3.686
 8785W        W70239  35.935  25.709  14.347
 8786W        W70240  12.267  41.823  12.910
 8787W        W70241  30.564  30.454  12.046
 8788W        W70242  31.069   6.804   0.407
 8789W        W70243  26.631   5.398   0.741
 8790W        W70244  38.512  13.279   4.263
 8791W        W70245  29.655  14.273  14.955
 8792W        W70246   0.288  41.481   0.850
 8793W        W70247  24.129  22.157   3.265
 8794W        W70248   3.253  38.940  10.908
 8795W        W70249  36.522  29.152   0.481
 8796W        W70250  21.619  28.039  10.054
 8797W        W70251  39.385  29.058  10.964
 8798W        W70252  21.205   3.394  14.358
 8799W        W70253  33.551  41.469   1.414
 8800W        W70254  11.181  33.109   5.241
 8801W        W70255  32.458  21.607  10.567
 8802W        W70256  13.827  15.684   1.363
 8803W        W70257  35.572  43.277  14.771
 8804W        W70258  16.782   9.711   0.852
 8805W        W70259   5.307  12.847   1.764
 8806W        W70260  22.130  32.443   2.369
 8807W        W70261  21.693  19.766  14.313
 8808W        W70262  27.979   2.385  12.952
 8809W        W70263   3.901  44.369   4.122
 8810W        W70264  41.892  28.082  11.387
 8811W        W70265  31.511   7.676   2.285
 8812W        W70266   9.190  38.931  13.884
 8813W        W70267  38.493  44.465  11.978
 8814W        W70268  31.154  28.455   2.259
 8815W        W70269  23.171  27.613   4.293
 8816W        W70270  33.989   2.385   3.214
 8817W        W70271  17.072  29.584  12.441
 8818W        W70272  30.915   8.187   0.808
 8819W        W70273  44.767   7.763   3.764
 8820W        W70274  32.083  14.755  14.466
 8821W        W70275  11.223  44.890  10.514
 8822W        W70276  31.999  19.656  11.970
 8823W        W70277   9.743  36.556  10.478
 8824W        W70278  44.883   9.215   0.280
 8825W        W70279  30.034  24.521   2.405
 8826W        W70280  16.798  44.882  12.569
 8827W        W70281  39.526   2.763   1.788
 8828W        W70282  43.773  12.129  13.376
 8829W        W70283  33.087   7.827   0.835
 8830W        W70284  15.727  41.378  14.477
 8831W        W70285  27.017  32.986   3.638
 8832W        W70286  33.476  33.991  11.895
 8833W        W70287  44.003  27.125  14.291
 8834W        W70288  39.396  43.791  13.364
 8835W        W70289  13.300  28.082  11.375
 8836W        W70290   0.895  44.432  14.504
 8837W        W70291  22.719  43.340   1.815
 8838W        W70292  37.013  29.003   3.186
 8839W        W70293  31.950   6.898   2.319
 8840W        W70294  16.753   6.385   4.295
 8841W        W70295  23.004  22.724   2.178
 8842W        W70296  11.761  38.385  13.415
 8843W        W70297  31.544   6.236  14.921
 8844W        W70298  10.818  44.492  11.543
 8845W        W70299  23.058  22.207  14.355
 8846W        W70300  21.533  30.911  12.339
 8847W        W70301   5.887  32.032   1.729
 8848W        W70302   2.845  38.478   4.731
 8849W        W70303  20.670   2.227   1.777
 8850W        W70304  13.816  14.643   0.325
 8851W        W70305   2.304  44.884   3.374
 8852W        W70306  27.551   6.182  13.513
 8853W        W70307  15.579  35.856   2.872
 8854W        W70308  40.803  23.502  12.548
 8855W        W70309  23.124  33.423   2.688
 8856W        W70310   8.881   6.884   2.896
 8857W        W70311  26.993  18.280  12.341
 8858W        W70312   7.385  32.482   3.287
 8859W        W70313  29.033   3.831  11.085
 8860W        W70314  11.129  17.198   3.792
 8861W        W70315  34.508  10.181  13.528
 8862W        W70316  41.351   3.892   3.780
 8863W        W70317  24.019  23.181   2.373
 8864W        W70318  37.549  25.185   0.432
 8865W        W70319  43.941  36.407   1.786
 8866W        W70320  19.257   6.379   4.204
 8867W        W70321  22.995  39.850  11.533
 8868W        W70322  18.687  39.874   3.745
 8869W        W70323  39.388  12.700   0.415
 8870W        W70324   9.678   3.825  11.072
 8871W        W70325  24.003  13.760   4.205
 8872W        W70326   4.792  22.122   1.713
 8873W        W70327   0.479  26.630   3.743
 8874W        W70328   1.808  33.877  12.046
 8875W        W70329  27.459  40.527  13.486
 8876W        W70330   9.369  14.181  12.392
 8877W        W70331  19.128  16.664  14.831
 8878W        W70332   1.921  44.874   1.779
 8879W        W70333  29.052   8.721   1.348
 8880W        W70334   6.187  41.385  10.981
 8881W        W70335  44.439  40.472   0.344
 8882W        W70336  16.127  36.896   2.327
 8883W        W70337  42.414  44.399   3.294
 8884W        W70338  22.618  15.726   0.412
 8885W        W70339  13.242  24.523  11.457
 8886W        W70340  35.057  31.540   4.779
 8887W        W70341  30.056  22.154   0.830
 8888W        W70342  40.967   1.889  12.493
 8889W        W70343  23.631  36.007  13.995
 8890W        W70344  18.730  40.325  13.972
 8891W        W70345   5.905  30.580   2.738
 8892W        W70346  42.907  16.569   1.342
 8893W        W70347   6.373  28.580  11.548
 8894W        W70348  10.357   6.727   1.845
 8895W        W70349  11.198  40.861  13.365
 8896W        W70350  41.338  37.843  11.981
 8897W        W70351   4.395  38.992   3.239
 8898W        W70352   7.313  37.056  12.087
 8899W        W70353  10.359  37.413  12.353
 8900W        W70354   0.797  21.164   4.147
 8901W        W70355  44.382  37.939  13.965
 8902W        W70356  16.719  18.071   3.178
 8903W        W70357  24.688  11.342  10.416
 8904W        W70358  18.168  35.072  10.509
 8905W        W70359  15.709   2.816   3.756
 8906W        W70360  17.596   8.380  12.551
 8907W        W70361   3.920  35.859   0.824
 8908W        W70362   8.827  23.697   1.420
 8909W        W70363  34.093  15.110  13.018
 8910W        W70364  42.787  14.159   4.341
 8911W        W70365   4.219  10.234   1.441
 8912W        W70366  25.487  13.311  13.527
 8913W        W70367  30.973  38.961   4.837
 8914W        W70368  38.431   8.382  14.454
 8915W        W70369  27.182  18.717  13.381
 8916W        W70370   2.949  10.872  10.474
 8917W        W70371  19.722   5.298   4.807
 8918W        W70372  10.714  23.500  14.847
 8919W        W70373  25.628  32.065   2.264
 8920W        W70374  33.549  16.727  13.524
 8921W        W70375  15.602  28.435   3.697
 8922W        W70376  35.065  10.715  13.903
 8923W        W70377  42.967  27.584  14.289
 8924W        W70378  12.651  34.009   1.212
 8925W        W70379   7.190  19.115  13.387
 8926W        W70380  27.549  16.202  12.531
 8927W        W70381  18.770  39.510  12.432
 8928W        W70382  35.096  30.063  14.364
 8929W        W70383  30.960  39.939  13.058
 8930W        W70384  11.823   7.731  14.452
 8931W        W70385  39.063  14.747   1.862
 8932W        W70386  26.676  44.909  12.986
 8933W        W70387  42.414  17.577  11.542
 8934W        W70388  11.234  29.488  12.509
 8935W        W70389  34.095  19.084   4.295
 8936W        W70390   5.207   7.321   0.400
 8937W        W70391  30.014  43.429  14.280
 8938W        W70392  36.379   9.281  11.439
 8939W        W70393  14.120   8.881  10.015
 8940W        W70394  21.105  24.089  14.986
 8941W        W70395  38.903  31.999   3.787
 8942W        W70396  18.690  33.614   5.125
 8943W        W70397  34.555  19.718   4.721
 8944W        W70398  39.549  44.797  11.861
 8945W        W70399  32.017   8.847   0.389
 8946W        W70400   1.857  13.309   3.842
 8947W        W70401  43.456   0.248  12.937
 8948W        W70402  36.467  41.415   1.342
 8949W        W70403   6.275  11.229   2.741
 8950W        W70404  44.999  34.501  11.940
 8951W        W70405  34.118  28.088  10.549
 8952W        W70406  20.104  15.204   1.437
 8953W        W70407   6.286  17.679  13.837
 8954W        W70408  17.201  27.955   2.794
 8955W        W70409  22.547   2.301   3.315
 8956W        W70410  34.943  10.203   2.269
 8957W        W70411  12.235  22.198   1.889
 8958W        W70412   8.200   6.211  11.078
 8959W        W70413   3.379  32.484  12.465
 8960W        W70414  21.111  38.854  11.607
 8961W        W70415  39.394  31.151   1.451
 8962W        W70416  39.900  32.629   4.203
 8963W        W70417  25.034  10.716   3.860
 8964W        W70418  40.917  36.079  13.041
 8965W        W70419  28.969  32.528  13.474
 8966W        W70420  15.816  37.531  13.902
 8967W        W70421  20.669  39.843   4.187
 8968W        W70422   1.946  12.176   2.698
 8969W        W70423  42.013  19.085   0.959
 8970W        W70424   1.872  39.005   1.298
 8971W        W70425  28.157   9.790   1.354
 8972W        W70426  29.075  23.708   2.718
 8973W        W70427  41.842  27.077  10.523
 8974W        W70428   5.751  11.170   2.182
 8975W        W70429   3.350   2.300  13.792
 8976W        W70430  21.262  15.316   1.366
 8977W        W70431  41.893  30.986  13.019
 8978W        W70432  15.824  31.542  13.484
 8979W        W70433  14.145  13.227   2.865
 8980W        W70434  19.697   8.169  12.984
 8981W        W70435   7.736  39.324   1.843
 8982W        W70436  31.998  26.531   1.730
 8983W        W70437  32.537  26.066   4.625
 8984W        W70438   6.810  37.399   3.857
 8985W        W70439   6.737   6.213   1.389
 8986W        W70440  30.088  12.245   9.576
 8987W        W70441  23.160  42.923  10.971
 8988W        W70442   6.745  34.567   0.794
 8989W        W70443  16.230  13.136   0.483
 8990W        W70444   1.359   9.167   1.913
 8991W        W70445  44.328  39.998   4.261
 8992W        W70446  23.129  29.016   4.115
 8993W        W70447  41.520  15.642   1.421
 8994W        W70448   7.863   7.376  14.378
 8995W        W70449  34.970  34.003   0.404
 8996W        W70450   2.426  13.809  10.961
 8997W        W70451  37.893  32.087   2.715
 8998W        W70452   3.340  19.597   3.740
 8999W        W70453  29.425  15.657  11.610
 9000W        W70454  37.381  35.968  11.919
 9001W        W70455  19.760  16.628  12.957
 9002W        W70456  16.634  37.075  11.452
 9003W        W70457  44.952   0.392   2.824
 9004W        W70458  42.876  22.704  11.878
 9005W        W70459  43.512  37.428  14.401
 9006W        W70460  18.192   7.673   3.234
 9007W        W70461  22.711  42.333  12.919
 9008W        W70462  36.544  34.525  11.573
 9009W        W70463  17.100  10.257   3.804
 9010W        W70464   0.901  38.354  12.375
 9011W        W70465  33.047  15.143   0.958
 9012W        W70466   6.358   4.761  12.997
 9013W        W70467  18.134  22.204  11.118
 9014W        W70468  33.603   9.833   1.696
 9015W        W70469  41.930   2.950  11.478
 9016W        W70470  13.151  41.794  14.437
 9017W        W70471   7.178  28.470   4.792
 9018W        W70472  37.868  32.624  14.852
 9019W        W70473  43.839  38.936   3.344
 9020W        W70474   9.294  17.598   3.679
 9021W        W70475  38.333  13.602   1.353
 9022W        W70476  33.538  44.987  11.037
 9023W        W70477  25.695  34.021   1.848
 9024W        W70478  11.232  38.329   1.819
 9025W        W70479  33.597   2.381  11.066
 9026W        W70480  34.045  24.147  11.058
 9027W        W70481   3.767  21.019   3.722
 9028W        W70482  13.713  19.194   2.751
 9029W        W70483   3.801  11.811  13.417
 9030W        W70484  44.960  41.879  10.435
 9031W        W70485  44.946   4.703   1.838
 9032W        W70486  35.535   4.287  10.611
 9033W        W70487  17.256  17.736   4.170
 9034W        W70488  16.735  15.578   1.819
 9035W        W70489  37.038   7.380   2.227
 9036W        W70490  35.407  37.446   1.243
 9037W        W70491   1.961   4.868  11.872
 9038W        W70492   6.841   9.802  11.915
 9039W        W70493  27.117  34.381   5.320
 9040W        W70494  42.877  28.106   3.716
 9041W        W70495  20.063   2.904  14.873
 9042W        W70496  30.913  10.784   9.464
 9043W        W70497  40.876   5.317  14.823
 9044W        W70498   7.808  10.741   3.383
 9045W        W70499  14.173  25.175   2.195
 9046W        W70500  22.523  16.081   0.470
 9047W        W70501   3.870  44.342  13.887
 9048W        W70502   5.879  44.306  10.946
 9049W        W70503  40.012  22.636  13.009
 9050W        W70504  17.752   3.851   2.317
 9051W        W70505  33.397  38.921  10.973
 9052W        W70506  36.061   6.362   2.815
 9053W        W70507  12.196  13.288   0.853
 9054W        W70508   7.318  40.478   2.843
 9055W        W70509  11.659  11.154  14.958
 9056W        W70510  18.782   7.757   3.656
 9057W        W70511  30.145  42.776  10.480
 9058W        W70512   9.724  35.029   3.362
 9059W        W70513  27.657  28.026   4.618
 9060W        W70514   4.317  13.150   0.319
 9061W        W70515  29.541  31.555   3.719
 9062W        W70516  13.164  23.061   1.837
 9063W        W70517   9.696  10.697  10.899
 9064W        W70518   8.228   4.805   1.872
 9065W        W70519  16.146   3.847   1.783
 9066W        W70520  31.940  14.685   3.696
 9067W        W70521  17.109  24.714  11.561
 9068W        W70522  25.177  36.020  13.381
 9069W        W70523  11.255  38.554  10.574
 9070W        W70524  33.584  18.603   4.766
 9071W        W70525  41.875  18.110   3.248
 9072W        W70526   9.723   2.954   2.728
 9073W        W70527  23.604  36.859  12.495
 9074W        W70528   4.746  29.028   5.317
 9075W        W70529  40.401  32.433   4.726
 9076W        W70530  34.863  23.554  10.065
 9077W        W70531   2.765  37.000   2.767
 9078W        W70532   2.922  44.765  13.878
 9079W        W70533  40.045  19.040   4.187
 9080W        W70534  19.144  10.264   3.843
 9081W        W70535  40.327  44.315   3.308
 9082W        W70536  18.235  15.163   2.808
 9083W        W70537  29.454  44.986   1.840
 9084W        W70538  31.129  42.407  14.767
 9085W        W70539  14.682  27.024   2.359
 9086W        W70540  26.130   6.389  13.525
 9087W        W70541  30.453   4.313  10.439
 9088W        W70542  16.141  20.183   1.232
 9089W        W70543  11.792  43.400   3.345
 9090W        W70544   8.328  25.038   0.871
 9091W        W70545  15.795   4.863  14.324
 9092W        W70546  14.095  33.539  12.024
 9093W        W70547  43.435  41.404   4.236
 9094W        W70548  18.577  44.876  11.087
 9095W        W70549  35.582  43.482   3.250
 9096W        W70550   4.861  36.533  12.992
 9097W        W70551  34.053   7.804   1.302
 9098W        W70552  18.161  24.994   3.208
 9099W        W70553  19.245   6.774   0.744
 9100W        W70554  26.053  36.009  13.395
 9101W        W70555  19.568  29.534  10.422
 9102W        W70556   9.348   4.354   0.335
 9103W        W70557  23.645  39.968  14.441
 9104W        W70558  16.172  12.668   1.442
 9105W        W70559  34.119   7.356   1.255
 9106W        W70560   5.802  31.537   9.439
 9107W        W70561  32.964  25.139   2.388
 9108W        W70562  18.548  11.781   0.354
 9109W        W70563  44.481  37.577   0.430
 9110W        W70564   8.359  41.317   0.319
 9111W        W70565  37.560  34.372   0.731
 9112W        W70566  44.365  14.803  14.021
 9113W        W70567   0.984  18.772  10.929
 9114W        W70568  44.427  27.452   3.379
 9115W        W70569  38.334   9.738   3.216
 9116W        W70570  28.458  15.805  14.909
 9117W        W70571  39.480   8.701   3.318
 9118W        W70572  39.433   8.405   1.728
 9119W        W70573  10.790  14.142  14.416
 9120W        W70574  42.789  22.698   0.780
 9121W        W70575  41.015  13.179   4.694
 9122W        W70576  14.208   0.261  11.944
 9123W        W70577   8.700  20.152   3.343
 9124W        W70578   7.287  41.805   3.664
 9125W        W70579  22.136  38.389  13.858
 9126W        W70580  14.652  25.657   4.650
 9127W        W70581   8.764  19.107   0.301
 9128W        W70582  12.335   3.278   4.297
 9129W        W70583  37.492  14.279   4.205
 9130W        W70584  39.522  35.478   2.729
 9131W        W70585  14.111  43.788   1.436
 9132W        W70586  10.827  27.093  13.410
 9133W        W70587  37.071  12.626  13.811
 9134W        W70588   0.857  41.332   0.257
 9135W        W70589  41.994  34.405  14.975
 9136W        W70590  24.979  41.349   2.195
 9137W        W70591   6.404  24.481   1.696
 9138W        W70592  43.499   7.685   0.348
 9139W        W70593  14.099  14.291   4.129
 9140W        W70594   5.236   6.222   2.898
 9141W        W70595  12.617  19.281   3.206
 9142W        W70596  15.583  14.715   1.818
 9143W        W70597   1.362  41.834   3.761
 9144W        W70598  25.964  43.383   1.712
 9145W        W70599   8.170  39.410   4.256
 9146W        W70600   6.794  34.501   4.316
 9147W        W70601  42.337  20.069   4.838
 9148W        W70602  37.431  22.016  11.007
 9149W        W70603  29.564  26.199   2.342
 9150W        W70604   5.263  27.979   4.672
 9151W        W70605   5.779  35.996  11.125
 9152W        W70606  17.642  19.660  11.969
 9153W        W70607   5.862   3.455  13.928
 9154W        W70608  20.210   7.906  11.121
 9155W        W70609  34.081  25.585   4.121
 9156W        W70610  38.894   2.802  11.583
 9157W        W70611  31.620   0.870  14.773
 9158W        W70612  30.022  44.769  12.433
 9159W        W70613  17.149   3.843  13.501
 9160W        W70614   6.850   2.320  11.439
 9161W        W70615   3.437  30.932   0.424
 9162W        W70616  33.515  37.566  13.946
 9163W        W70617  12.157   0.401  11.112
 9164W        W70618  33.092  12.727  13.398
 9165W        W70619  41.028  34.532  10.620
 9166W        W70620  20.724  18.618  13.454
 9167W        W70621  13.214  20.173  14.771
 9168W        W70622   5.381   2.331  14.782
 9169W        W70623  14.690  36.995  13.525
 9170W        W70624  28.484  12.236   2.250
 9171W        W70625  36.933   0.757   3.669
 9172W        W70626  27.057  24.209   3.722
 9173W        W70627   5.885  41.926   3.380
 9174W        W70628   3.914  39.421   0.396
 9175W        W70629  25.169  40.859  12.996
 9176W        W70630  14.322   7.327   4.215
 9177W        W70631  42.876  35.951  10.537
 9178W        W70632  23.125   9.878   0.868
 9179W        W70633  40.527  22.071   3.265
 9180W        W70634  29.657  32.591   4.189
 9181W        W70635   8.826  17.161   3.373
 9182W        W70636   7.388  13.835  12.966
 9183W        W70637  23.537   2.407   4.301
 9184W        W70638   2.787  10.368  11.929
 9185W        W70639  16.097  29.114  12.053
 9186W        W70640  15.229  22.643  14.492
 9187W        W70641  18.593  11.726   1.394
 9188W        W70642  21.678   7.779  11.890
 9189W        W70643  16.676  13.259  12.971
 9190W        W70644  34.888  37.885  12.398
 9191W        W70645  22.097  32.622   0.894
 9192W        W70646  13.117  17.122   4.131
 9193W        W70647  40.893  15.094   2.759
 9194W        W70648  28.481  40.440  11.479
 9195W        W70649  19.267  19.121   3.353
 9196W        W70650  17.266  13.642  13.883
 9197W        W70651  11.772  30.026   4.344
 9198W        W70652  43.515  12.160  13.981
 9199W        W70653  20.557  14.660  10.924
 9200W        W70654  18.613   1.793  14.395
 9201W        W70655  24.051  34.873   2.190
 9202W        W70656  43.376  34.383   3.255
 9203W        W70657  27.581  43.817  13.517
 9204W        W70658  42.782  22.611   0.375
 9205W        W70659   4.766  36.438   4.224
 9206W        W70660  33.397  37.449  11.054
 9207W        W70661  29.075  14.268  13.937
 9208W        W70662  23.096  28.500   1.370
 9209W        W70663  23.009  19.588  12.358
 9210W        W70664  39.939  20.206   3.355
 9211W        W70665   4.235  13.815   3.184
 9212W        W70666  14.302   2.464   4.817
 9213W        W70667   1.911  12.718   4.728
 9214W        W70668  17.084  28.622   1.380
 9215W        W70669  18.605   7.286   2.348
 9216W        W70670  21.599  25.600  14.459
 9217W        W70671  42.350  17.216   1.331
 9218W        W70672  27.621  28.059   5.262
 9219W        W70673  11.229  31.622   9.592
 9220W        W70674  29.580  29.069  10.599
 9221W        W70675  18.253  18.661  13.981
 9222W        W70676   8.401  28.051  13.373
 9223W        W70677  32.610  32.930  12.948
 9224W        W70678  21.576  12.342   3.165
 9225W        W70679  18.734  13.288   3.799
 9226W        W70680  13.137  34.053  10.891
 9227W        W70681  18.077  34.477   3.177
 9228W        W70682  31.051  36.965   2.781
 9229W        W70683  20.181  29.623  11.942
 9230W        W70684  39.390  19.101   3.347
 9231W        W70685   6.343  14.096   1.898
 9232W        W70686  16.103  31.999  14.476
 9233W        W70687  32.478  38.907  12.427
 9234W        W70688  15.711   8.658   3.376
 9235W        W70689   7.267   9.383   4.321
 9236W        W70690  34.023  31.600  13.382
 9237W        W70691  32.088  31.116   0.923
 9238W        W70692   2.249  29.023  11.081
 9239W        W70693  29.146   6.189  13.910
 9240W        W70694   3.937   2.950  11.099
 9241W        W70695  26.535  25.593   3.721
 9242W        W70696  23.194   4.266   3.174
 9243W        W70697  41.514  41.972  12.954
 9244W        W70698   5.255  40.436  12.015
 9245W        W70699  12.178  12.266   3.323
 9246W        W70700  41.926  30.479  13.062
 9247W        W70701  33.980  37.341   1.217
 9248W        W70702  29.019  21.659   0.825
 9249W        W70703  27.497  12.831   2.708
 9250W        W70704   4.867  32.584  12.549
 9251W        W70705   6.396  24.687   0.900
 9252W        W70706  10.655  11.745  10.632
 9253W        W70707   3.919  37.340   4.325
 9254W        W70708  25.583   6.744   2.260
 9255W        W70709  12.288  36.865   1.222
 9256W        W70710   3.236  13.250  11.559
 9257W        W70711  15.578  12.740   3.802
 9258W        W70712  36.019  35.471   3.154
 9259W        W70713  35.948  17.215   3.342
 9260W        W70714  17.748  35.514   3.237
 9261W        W70715  25.558  44.371   4.616
 9262W        W70716  14.158  15.284   3.679
 9263W        W70717  11.361  21.109  13.427
 9264W        W70718   4.759  27.092  12.381
 9265W        W70719  43.784  36.564  11.013
 9266W        W70720  24.021  39.523  12.498
 9267W        W70721  32.474  13.729  12.909
 9268W        W70722   8.369  43.922  13.414
 9269W        W70723   9.150  23.523   2.674
 9270W        W70724  41.006  22.633   2.790
 9271W        W70725   2.850   1.353   4.769
 9272W        W70726  23.163  12.619   4.641
 9273W        W70727   9.861  13.652   1.790
 9274W        W70728   8.770  31.624  14.975
 9275W        W70729  22.188  10.310   1.273
 9276W        W70730  40.802   7.692  12.003
 9277W        W70731  21.158  18.705   4.650
 9278W        W70732  37.374  32.430  13.803
 9279W        W70733  39.877  15.671  11.911
 9280W        W70734   3.340   8.870   3.340
 9281W        W70735   6.275  36.940  13.987
 9282W        W70736  26.958  10.802  14.893
 9283W        W70737  24.647  17.173  13.386
 9284W        W70738  36.944  14.327   4.744
 9285W        W70739  38.479  10.716   3.197
 9286W        W70740  43.491  20.174  12.453
 9287W        W70741   7.327  35.941   3.379
 9288W        W70742   2.375  36.492   1.836
 9289W        W70743  19.221  30.017  10.554
 9290W        W70744  31.464  17.300   0.953
 9291W        W70745  16.768   6.714  14.834
 9292W        W70746  10.844   5.856  14.931
 9293W        W70747  32.897   1.777   0.484
 9294W        W70748  29.965  28.162  13.474
 9295W        W70749  42.981   2.336   1.788
 9296W        W70750  43.456  38.832   2.182
 9297W        W70751  35.912  27.131  10.614
 9298W        W70752  10.290  11.154  10.581
 9299W        W70753  32.625  31.566  10.613
 9300W        W70754  36.028  27.490   4.301
 9301W        W70755  11.362   9.754   3.280
 9302W        W70756  44.841  36.844   2.865
 9303W        W70757   9.773  36.371   2.185
 9304W        W70758  16.116  35.480   4.698
 9305W        W70759   0.977   2.870   0.467
 9306W        W70760  23.126  36.905  13.376
 9307W        W70761  35.579   2.408   1.847
 9308W        W70762  38.820  37.498   5.201
 9309W        W70763  37.474  36.945  13.838
 9310W        W70764  42.835  11.222  12.864
 9311W        W70765  20.596  17.226  10.899
 9312W        W70766  25.711  44.347  10.964
 9313W        W70767  19.154  32.037   0.480
 9314W        W70768  35.460   1.268  11.117
 9315W        W70769  39.351   7.724  13.861
 9316W        W70770  24.110  34.469  14.360
 9317W        W70771  29.608   4.341   2.208
 9318W        W70772  32.907  26.515  12.969
 9319W        W70773   6.861   4.743  14.905
 9320W        W70774  32.940   5.765   3.777
 9321W        W70775  14.621  15.795   1.311
 9322W        W70776  22.007  35.557   1.431
 9323W        W70777  14.318  13.806   0.311
 9324W        W70778  28.511  15.780  13.818
 9325W        W70779   9.276  30.994   9.605
 9326W        W70780  31.533  24.214   1.922
 9327W        W70781  22.060  39.987  10.488
 9328W        W70782  17.194  28.573   2.342
 9329W        W70783  33.551  21.202  10.015
 9330W        W70784   1.466  40.884  11.952
 9331W        W70785  37.427   9.699   3.247
 9332W        W70786  24.180  15.787  12.967
 9333W        W70787  21.744  42.484  12.552
 9334W        W70788  34.904  34.532   5.099
 9335W        W70789  37.511  32.511   2.861
 9336W        W70790  25.650  38.890  14.847
 9337W        W70791  35.403  19.056   2.747
 9338W        W70792  11.246  33.132  11.577
 9339W        W70793  22.998  43.355  13.880
 9340W        W70794  29.100   2.407   2.730
 9341W        W70795  44.990  22.194  14.969
 9342W        W70796  44.875   2.265   3.673
 9343W        W70797   9.215  21.185   3.280
 9344W        W70798  11.226   1.970   1.835
 9345W        W70799   6.883  13.795  11.500
 9346W        W70800  15.688  17.115   0.424
 9347W        W70801   8.741  25.073  13.491
 9348W        W70802  12.315  30.985  11.053
 9349W        W70803  16.704   7.245   1.854
 9350W        W70804  36.566  27.689   1.857
 9351W        W70805  34.096   3.895  12.028
 9352W        W70806  12.303  35.103  14.279
 9353W        W70807  28.093  18.575  14.027
 9354W        W70808   6.846  38.538  13.050
 9355W        W70809  19.605   4.424   2.827
 9356W        W70810  37.365  41.406  10.126
 9357W        W70811  19.738  21.596  11.540
 9358W        W70812  32.619  23.139   0.471
 9359W        W70813  19.203   4.945  13.359
 9360W        W70814   7.746  18.059   9.993
 9361W        W70815  44.896  36.937  11.478
 9362W        W70816  34.072   8.178   1.837
 9363W        W70817  34.009  41.386   2.333
 9364W        W70818  30.973  31.106  13.988
 9365W        W70819   6.820  12.813   2.670
 9366W        W70820  42.429  21.068   4.660
 9367W        W70821   8.184  40.017   0.765
 9368W        W70822  43.274  36.420   1.738
 9369W        W70823   0.836  19.209   4.125
 9370W        W70824  37.449  39.940   3.326
 9371W        W70825  16.194  28.636   3.658
 9372W        W70826  43.442  42.526   0.319
 9373W        W70827  24.989  28.998  13.038
 9374W        W70828  34.596  28.012  12.444
 9375W        W70829  28.010  22.669  14.319
 9376W        W70830  16.705  16.674   1.751
 9377W        W70831  21.100  36.069  13.917
 9378W        W70832  25.602   0.927   0.309
 9379W        W70833  27.019  36.849  14.029
 9380W        W70834  40.526  29.972   4.319
 9381W        W70835  20.601  24.545   4.805
 9382W        W70836  30.522   3.388  11.453
 9383W        W70837   1.386  22.514   2.412
 9384W        W70838  37.892   6.206  13.314
 9385W        W70839  32.913   1.878   3.269
 9386W        W70840  25.031  38.999  11.445
 9387W        W70841  28.440  43.397   1.746
 9388W        W70842  30.971  44.477  10.994
 9389W        W70843  43.405   6.767  11.580
 9390W        W70844  28.458   4.741   2.231
 9391W        W70845  35.582  42.833   3.161
 9392W        W70846   8.718  34.899  12.827
 9393W        W70847  37.924  15.194  13.919
 9394W        W70848  43.783   7.198   2.818
 9395W        W70849  10.162  41.303  13.427
 9396W        W70850  20.135  18.627   5.261
 9397W        W70851  30.423  33.579   5.314
 9398W        W70852  12.221  41.868  11.888
 9399W        W70853  26.099  11.657  11.085
 9400W        W70854  36.936   6.291   2.302
 9401W        W70855  44.275  43.000  11.419
 9402W        W70856   6.863  18.191  12.379
 9403W        W70857  16.614   4.356  11.985
 9404W        W70858  18.148  35.590   2.784
 9405W        W70859  23.168  15.658   2.788
 9406W        W70860  11.239  17.252  11.562
 9407W        W70861  28.603  10.146  11.554
 9408W        W70862   0.422  12.167   2.715
 9409W        W70863   9.810  44.412  13.470
 9410W        W70864  37.366  15.746   3.238
 9411W        W70865  25.584  27.065   0.808
 9412W        W70866   3.255  13.819   1.832
 9413W        W70867  15.201  35.950   3.264
 9414W        W70868   3.436   2.283  11.018
 9415W        W70869  42.479  38.934   4.341
 9416W        W70870  26.637  24.628   1.212
 9417W        W70871  26.551  38.830  14.430
 9418W        W70872  17.635  15.254  12.466
 9419W        W70873   6.677  40.032  12.523
 9420W        W70874  20.545  34.919  14.510
 9421W        W70875  43.440  15.626  10.455
 9422W        W70876   0.466  16.183  13.497
 9423W        W70877  41.822  30.643   2.721
 9424W        W70878   4.896  41.973   1.211
 9425W        W70879   6.187  21.733   2.316
 9426W        W70880   9.802  16.749  14.868
 9427W        W70881  30.037   1.320   0.423
 9428W        W70882  38.832  10.859  12.091
 9429W        W70883  23.024  10.289  12.449
 9430W        W70884  30.585  24.698  10.148
 9431W        W70885   3.945   4.252   1.374
 9432W        W70886   4.891   5.811  14.807
 9433W        W70887   9.305  21.149  10.954
 9434W        W70888  16.253  42.776  11.518
 9435W        W70889  31.438   3.231   2.230
 9436W        W70890  15.085   7.348  10.588
 9437W        W70891   3.450   9.789  10.581
 9438W        W70892  32.101  19.262  11.861
 9439W        W70893   2.226  12.196   4.222
 9440W        W70894  24.101   5.414   3.671
 9441W        W70895   4.719  10.692  11.067
 9442W        W70896  35.074  40.505   3.176
 9443W        W70897  33.002   0.793   1.871
 9444W        W70898   7.323  21.511   1.306
 9445W        W70899  33.096  23.017   1.338
 9446W        W70900  10.175  43.831  14.362
 9447W        W70901  10.332  40.941  14.926
 9448W        W70902  27.579  41.374  14.767
 9449W        W70903  43.415   7.222   2.845
 9450W        W70904   6.339  36.074  11.929
 9451W        W70905  27.450  30.572  11.072
 9452W        W70906  33.079  25.079   3.675
 9453W        W70907  32.493  32.410   4.225
 9454W        W70908  41.501  33.952  13.842
 9455W        W70909  20.738  23.072   0.366
 9456W        W70910  32.994  39.397   2.285
 9457W        W70911  27.039  41.954  11.505
 9458W        W70912  28.494   1.457   1.705
 9459W        W70913  29.982  20.236   3.681
 9460W        W70914   3.833  32.013   4.215
 9461W        W70915  39.363  17.299  10.438
 9462W        W70916  44.489  37.904  10.942
 9463W        W70917  18.179  29.970   1.251
 9464W        W70918  39.434  23.998  11.392
 9465W        W70919   7.230  22.074   3.638
 9466W        W70920  42.435  44.990   0.915
 9467W        W70921   6.810  24.665  11.914
 9468W        W70922   0.399  19.652   3.152
 9469W        W70923   7.769   7.738  11.538
 9470W        W70924  17.666  19.187  14.277
 9471W        W70925  17.688  39.462  13.395
 9472W        W70926  15.779   6.228  12.957
 9473W        W70927  25.121  10.365   2.279
 9474W        W70928  40.518   7.172  10.423
 9475W        W70929  40.328  18.107   1.346
 9476W        W70930   0.253  18.085   0.883
 9477W        W70931  23.227  44.445  10.081
 9478W        W70932  23.588  27.074   0.815
 9479W        W70933  29.464   1.446  11.476
 9480W        W70934   2.272   8.170  11.563
 9481W        W70935   6.701  32.004   3.666
 9482W        W70936  42.486  24.696   2.408
 9483W        W70937   9.805  13.725   2.294
 9484W        W70938  22.711  24.720   4.671
 9485W        W70939  40.852  40.526  10.967
 9486W        W70940  44.371   1.407   3.164
 9487W        W70941  11.727  21.095   3.761
 9488W        W70942  39.516  24.097  14.879
 9489W        W70943  11.164   9.168   3.795
 9490W        W70944  28.481   5.841   3.635
 9491W        W70945   4.251  42.464  11.490
 9492W        W70946  22.024  32.027  13.030
 9493W        W70947  41.526   8.854   2.316
 9494W        W70948  12.171  34.378  11.435
 9495W        W70949  34.884  38.517   1.378
 9496W        W70950  10.254  38.526  13.906
 9497W        W70951   2.304   3.952  10.579
 9498W        W70952   8.722  34.450   2.796
 9499W        W70953  40.361   0.831  11.578
 9500W        W70954  25.979  25.684  13.025
 9501W        W70955  24.499   2.809  12.824
 9502W        W70956  24.088  43.459   1.868
 9503W        W70957  36.847   4.731   3.264
 9504W        W70958  38.993  25.181   0.266
 9505W        W70959  43.404   3.833   1.768
 9506W        W70960  18.714  23.646   4.275
 9507W        W70961  12.275  22.177   0.325
 9508W        W70962  10.195   1.828   0.919
 9509W        W70963   2.430  20.234  12.350
 9510W        W70964  20.544   2.319  13.046
 9511W        W70965  12.702  28.058   1.803
 9512W        W70966   2.948  30.078   3.340
 9513W        W70967  30.579  16.106  13.993
 9514W        W70968  30.476  30.085  14.368
 9515W        W70969  19.776   9.186   3.352
 9516W        W70970  30.042  34.537  13.531
 9517W        W70971  33.043   8.870  13.028
 9518W        W70972  27.465  25.665   1.427
 9519W        W70973  27.024  19.153   2.841
 9520W        W70974  13.125  28.454  12.507
 9521W        W70975  25.507  21.113   1.791
 9522W        W70976   7.887  30.981  12.405
 9523W        W70977  43.319  30.162   4.818
 9524W        W70978  36.517  24.111   3.720
 9525W        W70979  35.865  40.899  13.408
 9526W        W70980  19.775  18.272   3.343
 9527W        W70981  35.899   9.220  14.920
 9528W        W70982  17.154  43.989  11.866
 9529W        W70983   5.802  20.044  12.355
 9530W        W70984   0.859  13.254  14.392
 9531W        W70985  40.430  29.592  12.848
 9532W        W70986  21.080  42.313   0.377
 9533W        W70987  41.867  37.921   3.320
 9534W        W70988   2.439  11.622  10.998
 9535W        W70989  21.633   1.827   1.853
 9536W        W70990  38.393  27.169   3.701
 9537W        W70991  29.590  14.246   3.748
 9538W        W70992  38.476  12.679  10.894
 9539W        W70993  19.235  44.779  11.114
 9540W        W70994  43.767  12.237  13.939
 9541W        W70995  26.979   4.772   2.338
 9542W        W70996  34.536  36.870   0.813
 9543W        W70997  30.910  41.387   3.735
 9544W        W70998  25.482  39.414   0.418
 9545W        W70999  38.069  31.039  13.330
 9546W        W71000  36.973  37.918   3.714
 9547W        W71001  35.002  30.116   3.153
 9548W        W71002  23.070  19.564   4.837
 9549W        W71003  28.056   7.745   3.765
 9550W        W71004   9.754  34.047   9.614
 9551W        W71005  35.360  32.082   4.121
 9552W        W71006   6.766  14.120   3.285
 9553W        W71007  28.673  12.168  12.983
 9554W        W71008   3.284  12.229   4.659
 9555W        W71009   0.922  32.092  13.964
 9556W        W71010  16.214   7.749   3.679
 9557W        W71011  35.438  14.262   1.793
 9558W        W71012   2.284  29.669  10.413
 9559W        W71013   8.709  31.034   1.818
 9560W        W71014  21.236  36.428   1.880
 9561W        W71015   7.828   6.863   0.911
 9562W        W71016  44.265  33.120  14.905
 9563W        W71017  38.862  24.655   9.990
 9564W        W71018  31.144  14.681   0.418
 9565W        W71019   7.283   5.702   1.926
 9566W        W71020  36.980  30.082   4.811
 9567W        W71021  17.150  31.566  14.940
 9568W        W71022  27.061   8.726  10.952
 9569W        W71023  26.584  36.904  11.916
 9570W        W71024  25.077   7.415   2.353
 9571W        W71025  44.978  29.661   0.344
 9572W        W71026  10.256  19.051  12.031
 9573W        W71027  17.570   2.303   2.734
 9574W        W71028   2.426  33.380   0.884
 9575W        W71029  29.563  14.106  12.362
 9576W        W71030   7.301   7.678   0.397
 9577W        W71031  11.218  43.483  13.854
 9578W        W71032  23.085  39.322  13.051
 9579W        W71033  35.459  27.490   3.291
 9580W        W71034  13.771   7.214  12.062
 9581W        W71035  32.055  15.627  11.956
 9582W        W71036   1.784   7.204   3.808
 9583W        W71037  10.850  21.164  14.320
 9584W        W71038  32.497  15.302   3.276
 9585W        W71039   6.791  27.171   1.333
 9586W        W71040  33.432  18.278   4.317
 9587W        W71041  24.008  37.976   2.312
 9588W        W71042   2.872  13.657  14.377
 9589W        W71043  26.012   7.290  13.330
 9590W        W71044   1.834  25.987   3.770
 9591W        W71045  34.468  37.087   2.309
 9592W        W71046   9.378  10.246   4.745
 9593W        W71047  10.640   9.784   0.752
 9594W        W71048   5.876  10.145  13.514
 9595W        W71049  21.555  21.654  13.829
 9596W        W71050  18.647  14.766   4.116
 9597W        W71051  12.804   2.368  12.042
 9598W        W71052   7.185  28.954   1.378
 9599W        W71053   8.378  29.154   4.706
 9600W        W71054  39.325   5.357   1.763
 9601W        W71055   4.246   4.354  12.825
 9602W        W71056  35.044  30.578  14.987
 9603W        W71057  27.511   5.720  11.464
 9604W        W71058  36.944   8.324  14.316
 9605W        W71059  23.636   4.387  13.330
 9606W        W71060  18.727   6.843   4.336
 9607W        W71061  34.589  42.393  13.370
 9608W        W71062   4.703  27.070  13.419
 9609W        W71063  10.742  22.020  14.839
 9610W        W71064  38.562   2.263  14.903
 9611W        W71065  28.111  31.102   0.405
 9612W        W71066   7.904  13.172  11.889
 9613W        W71067   9.303  32.978   4.819
 9614W        W71068  10.339  17.650   4.826
 9615W        W71069  33.626  31.440   0.733
 9616W        W71070  38.473  17.623   1.399
 9617W        W71071  17.261  40.499  12.996
 9618W        W71072  31.005  32.573   3.708
 9619W        W71073  17.591  35.461   3.683
 9620W        W71074  36.955  27.086  14.863
 9621W        W71075  25.569  43.796   1.851
 9622W        W71076   3.427  16.318   0.315
 9623W        W71077  15.139  12.269   1.845
 9624W        W71078  11.741  20.666   1.882
 9625W        W71079   1.376  40.968   2.840
 9626W        W71080  42.461   7.213  13.992
 9627W        W71081  15.678   9.745   3.655
 9628W        W71082  34.886  13.835   1.336
 9629W        W71083  42.372  42.950  12.979
 9630W        W71084  11.634  23.631  12.073
 9631W        W71085  18.163  22.591   3.761
 9632W        W71086  19.538  32.492   4.213
 9633W        W71087  12.797  12.672   2.720
 9634W        W71088   2.254  38.822   4.809
 9635W        W71089  33.625  23.731  14.413
 9636W        W71090  42.471  16.221   1.780
 9637W        W71091   2.742   2.328   3.184
 9638W        W71092  25.712  29.922   1.889
 9639W        W71093   9.644  19.670   2.410
 9640W        W71094  36.025  34.943   0.901
 9641W        W71095  20.743  13.314  13.451
 9642W        W71096  13.292  23.622  14.380
 9643W        W71097  35.588  44.766   0.767
 9644W        W71098  13.682  38.838   3.257
 9645W        W71099  28.940  41.866  13.513
 9646W        W71100   7.720  22.590  12.431
 9647W        W71101   8.310  38.512  13.328
 9648W        W71102  38.076  16.704  11.484
 9649W        W71103  31.087  28.064   9.967
 9650W        W71104  43.378   0.310   4.633
 9651W        W71105  42.885  12.714  14.301
 9652W        W71106  39.475  24.012   4.633
 9653W        W71107  17.101  17.701  11.973
 9654W        W71108  23.714  35.519   0.796
 9655W        W71109  42.400   9.821   1.848
 9656W        W71110  15.301  15.215   3.286
 9657W        W71111   4.762  37.992  12.988
 9658W        W71112  35.968  40.466  14.348
 9659W        W71113  21.676  16.261  13.539
 9660W        W71114  37.479  44.973   0.287
 9661W        W71115   7.679  24.209  14.390
 9662W        W71116  29.127  44.861  10.976
 9663W        W71117  43.435  39.464   0.888
 9664W        W71118  31.620  20.528  12.375
 9665W        W71119  11.205   2.954   0.431
 9666W        W71120  14.210  39.918  14.981
 9667W        W71121  10.875   9.679  11.858
 9668W        W71122  22.252  17.168   0.324
 9669W        W71123  25.064  30.448  11.504
 9670W        W71124   3.450  43.406  14.333
 9671W        W71125  17.255  33.879  11.437
 9672W        W71126  18.052   4.256   2.761
 9673W        W71127  32.540   8.351   4.773
 9674W        W71128  15.706  17.589  11.088
 9675W        W71129  17.662   2.240   1.394
 9676W        W71130  11.164  28.074   0.743
 9677W        W71131  28.137  33.033  13.899
 9678W        W71132  33.904   4.934  14.840
 9679W        W71133  39.403  35.601  14.275
 9680W        W71134  25.621  37.366   1.299
 9681W        W71135   7.685  38.958   3.187
 9682W        W71136  38.051  41.909   4.129
 9683W        W71137  30.142  37.952  14.395
 9684W        W71138  25.012  16.723  12.007
 9685W        W71139  17.080   0.778   0.955
 9686W        W71140  40.488  26.128  12.835
 9687W        W71141  18.711  10.742  12.349
 9688W        W71142  33.480  40.371   4.682
 9689W        W71143  32.033  28.536  11.857
 9690W        W71144  35.978  39.552  10.625
 9691W        W71145  35.504  38.978   4.751
 9692W        W71146  15.581  35.434  14.396
 9693W        W71147  40.006  43.909  14.367
 9694W        W71148  33.615  40.961   1.847
 9695W        W71149  37.009  39.064   3.850
 9696W        W71150  12.818  21.598  12.463
 9697W        W71151  12.308  20.092  12.431
 9698W        W71152  19.197  17.606  10.468
 9699W        W71153  11.234  19.658  13.311
 9700W        W71154  33.568   9.218  11.486
 9701W        W71155  21.664  29.040   2.265
 9702W        W71156  10.142  11.674   4.751
 9703W        W71157  40.048  14.208  14.478
 9704W        W71158  28.942  18.202   1.360
 9705W        W71159  42.949  28.932   2.879
 9706W        W71160  19.646   7.218   4.183
 9707W        W71161  23.716  14.703  12.083
 9708W        W71162  19.119  22.641  12.883
 9709W        W71163  35.384  15.318  13.812
 9710W        W71164  28.126   0.944   0.831
 9711W        W71165   2.229   7.211   1.395
 9712W        W71166   6.787  32.573   9.479
 9713W        W71167   7.818  35.602   1.285
 9714W        W71168  17.724   1.361  13.868
 9715W        W71169  13.295   1.400   2.273
 9716W        W71170  18.191  12.658  14.839
 9717W        W71171  41.792   1.769   3.781
 9718W        W71172  13.251  22.523  14.330
 9719W        W71173   0.876  25.148  11.411
 9720W        W71174  14.112   2.382  11.011
 9721W        W71175  42.983  28.937   4.288
 9722W        W71176  18.200   6.372   3.308
 9723W        W71177  38.031  32.623  13.838
 9724W        W71178   5.293  31.511   0.459
 9725W        W71179  21.080  11.241  10.956
 9726W        W71180   6.428  18.186   2.853
 9727W        W71181  41.989  40.485   2.192
 9728W        W71182   8.257  18.551  13.347
 9729W        W71183  42.033  23.055   1.408
 9730W        W71184  26.599  23.149  14.868
 9731W        W71185  33.908  38.385  11.977
 9732W        W71186  19.130  35.546  14.880
 9733W        W71187  18.253  36.990  11.942
 9734W        W71188  30.506  44.776   4.809
 9735W        W71189  26.192  20.535  11.884
 9736W        W71190  30.534  18.224  10.913
 9737W        W71191  38.841  34.465  11.523
 9738W        W71192  37.400  23.031   1.710
 9739W        W71193  12.723  43.022   3.839
 9740W        W71194  19.051  33.114  12.977
 9741W        W71195   5.256  37.867   0.844
 9742W        W71196  31.076   4.254  13.361
 9743W        W71197  17.091  12.343  12.514
 9744W        W71198   1.453  41.886  10.896
 9745W        W71199  24.612  31.586  13.426
 9746W        W71200  40.389  24.091  13.355
 9747W        W71201  43.290  17.645   2.313
 9748W        W71202  21.072  20.747   4.649
 9749W        W71203  30.621  13.224  11.052
 9750W        W71204  15.785  13.724  10.944
 9751W        W71205  25.128  25.114   2.842
 9752W        W71206  38.490  39.519  12.424
 9753W        W71207   7.798  37.388  14.017
 9754W        W71208  11.849  24.153  10.958
 9755W        W71209  14.724   0.956  10.436
 9756W        W71210  42.360   6.194   1.407
 9757W        W71211   3.456  26.052  14.841
 9758W        W71212  39.883  29.523   2.875
 9759W        W71213  23.016   7.298   2.230
 9760W        W71214  26.160   5.759  11.500
 9761W        W71215   7.909  18.573  12.417
 9762W        W71216  11.833  32.423   2.213
 9763W        W71217  19.599  34.487  10.630
 9764W        W71218  14.333  10.834  14.313
 9765W        W71219  18.136  32.944  10.458
 9766W        W71220  34.538  18.150  11.124
 9767W        W71221  15.722  23.043   0.293
 9768W        W71222  23.615   1.324  12.991
 9769W        W71223  35.974  39.550   2.697
 9770W        W71224  40.433  36.975   3.702
 9771W        W71225  42.963  33.030   0.457
 9772W        W71226   2.396  41.023   2.797
 9773W        W71227  42.837  16.742  13.844
 9774W        W71228  33.010   1.863   0.888
 9775W        W71229   0.926  32.097   4.742
 9776W        W71230  17.074  30.474   3.843
 9777W        W71231  43.299  28.178   0.386
 9778W        W71232  30.137  19.652   4.684
 9779W        W71233  24.653  10.849   2.756
 9780W        W71234  26.543  43.002   1.406
 9781W        W71235  27.052  11.184  12.920
 9782W        W71236  10.308  28.987  11.900
 9783W        W71237  17.615  31.513  13.436
 9784W        W71238  17.725  43.873   2.661
 9785W        W71239  16.153  13.770  12.042
 9786W        W71240  35.963  11.845  12.852
 9787W        W71241   3.365  22.596  10.902
 9788W        W71242   9.293  31.138  13.987
 9789W        W71243  27.038  29.073   4.284
 9790W        W71244  31.449   4.723   2.792
 9791W        W71245  29.158   3.875  13.927
 9792W        W71246  32.059  23.989   3.709
 9793W        W71247  18.770  14.207  12.860
 9794W        W71248  23.533  11.158  14.283
 9795W        W71249  43.854   5.331  14.810
 9796W        W71250  33.510   5.780   3.175
 9797W        W71251  30.115  36.560  11.397
 9798W        W71252  38.336   1.359   3.692
 9799W        W71253   2.460  36.449   2.388
 9800W        W71254  28.086  38.864  11.493
 9801W        W71255  31.411  14.280   2.838
 9802W        W71256  33.941  29.122   2.223
 9803W        W71257  10.370  10.870   4.292
 9804W        W71258  28.986  33.415   3.166
 9805W        W71259  16.218  40.549   1.845
 9806W        W71260  17.061  16.182  11.977
 9807W        W71261  20.231  35.962   1.310
 9808W        W71262  35.060  20.040   4.732
 9809W        W71263  44.456  10.228  11.905
 9810W        W71264  23.663  24.216  12.469
 9811W        W71265  28.639  27.972  12.866
 9812W        W71266  13.335   1.386   2.826
 9813W        W71267  36.088  44.420  10.557
 9814W        W71268  20.761  37.543  11.864
 9815W        W71269  30.976  36.561  12.047
 9816W        W71270   6.405  13.750   0.855
 9817W        W71271  42.366  24.598  11.391
 9818W        W71272   8.797  12.348   1.397
 9819W        W71273  28.099  37.035  11.594
 9820W        W71274  23.527  29.161  12.874
 9821W        W71275   8.393  29.032  13.452
 9822W        W71276   5.381  36.006  12.071
 9823W        W71277   5.845  14.302   1.302
 9824W        W71278  29.037   8.778  13.946
 9825W        W71279  16.803  25.171   2.701
 9826W        W71280   2.777   9.231  12.096
 9827W        W71281  31.597  34.587  13.872
 9828W        W71282   5.233  29.641  12.968
 9829W        W71283  43.009   8.334  14.497
 9830W        W71284  41.430  30.575  10.431
 9831W        W71285  23.237  22.173  12.076
 9832W        W71286  38.398  24.210  12.041
 9833W        W71287  32.491   7.672  11.984
 9834W        W71288   5.370  39.368   0.482
 9835W        W71289   6.250  25.639   0.914
 9836W        W71290  44.479  16.184   3.274
 9837W        W71291  35.935  17.695   1.832
 9838W        W71292  40.327  17.576  14.955
 9839W        W71293  35.506  17.681  14.498
 9840W        W71294  18.717  33.068   3.362
 9841W        W71295  21.648  43.927  10.987
 9842W        W71296  36.461  22.692  14.281
 9843W        W71297   8.862  36.946  14.350
 9844W        W71298  29.016  20.667  11.529
 9845W        W71299  29.985  34.572   1.914
 9846W        W71300  25.697  12.287   4.655
 9847W        W71301  16.788  23.022   2.387
 9848W        W71302   6.232  39.010   4.191
 9849W        W71303  13.738  30.029   2.757
 9850W        W71304   4.447  12.160  14.017
 9851W        W71305  27.949  14.157   1.365
 9852W        W71306  10.294  37.388   1.355
 9853W        W71307   9.732  23.039  13.400
 9854W        W71308   2.250   9.779  10.887
 9855W        W71309  32.625  19.674   3.340
 9856W        W71310  10.212  34.381   3.667
 9857W        W71311   2.788  19.763   2.240
 9858W        W71312  39.331   3.780   1.337
 9859W        W71313  18.655   9.716  11.101
 9860W        W71314  33.105   3.423   0.406
 9861W        W71315  13.813  40.523   3.191
 9862W        W71316  27.013  19.562   4.661
 9863W        W71317  20.118  15.314  13.859
 9864W        W71318  19.622   3.222  10.562
 9865W        W71319   8.723  42.938  12.965
 9866W        W71320  44.847   4.423  14.278
 9867W        W71321  12.829  15.234  11.414
 9868W        W71322  14.695  32.466   3.845
 9869W        W71323  40.351   6.313   2.888
 9870W        W71324  43.514  37.054   4.712
 9871W        W71325  13.117  21.025  14.782
 9872W        W71326   0.888  44.915   3.738
 9873W        W71327  15.781  17.296   1.904
 9874W        W71328  20.740   6.727   0.959
 9875W        W71329  40.860  10.244  10.901
 9876W        W71330  34.088  10.206   0.469
 9877W        W71331   7.380  11.834  10.489
 9878W        W71332   1.746  26.547   0.263
 9879W        W71333   0.965  41.019  13.061
 9880W        W71334  28.525  25.473   1.928
 9881W        W71335   5.862   1.733  11.980
 9882W        W71336  37.066   8.837  13.490
 9883W        W71337  24.571   8.241  14.770
 9884W        W71338  41.301   2.788  11.529
 9885W        W71339  24.668   9.888   2.303
 9886W        W71340   6.227   3.751  12.508
 9887W        W71341   9.837   7.867  13.505
 9888W        W71342   9.883  16.616   9.998
 9889W        W71343   6.783  26.639   0.336
 9890W        W71344  15.142   0.888  13.333
 9891W        W71345  11.313  27.097  11.058
 9892W        W71346  30.996  11.290  12.516
 9893W        W71347  27.121  15.101  14.019
 9894W        W71348  44.368   5.413  13.819
 9895W        W71349  22.606  14.268  11.599
 9896W        W71350  42.284  40.399  10.432
 9897W        W71351  31.530  29.520   1.718
 9898W        W71352  37.422  34.516   3.765
 9899W        W71353   8.364  18.770   4.746
 9900W        W71354   1.745  38.569  10.913
 9901W        W71355  34.002  19.132   1.852
 9902W        W71356  36.886   2.837   4.642
 9903W        W71357  14.797  37.016   1.719
 9904W        W71358  11.660  28.048   0.911
 9905W        W71359  36.001  16.282  14.369
 9906W        W71360  33.404  13.796   4.775
 9907W        W71361   5.692  12.355  14.372
 9908W        W71362  33.074  10.297   0.399
 9909W        W71363   7.240  21.748  12.578
 9910W        W71364  37.555  30.100   3.347
 9911W        W71365   3.443  36.426   4.700
 9912W        W71366  14.684  29.001   0.400
 9913W        W71367  33.131  33.944  13.466
 9914W        W71368  29.523  28.638   2.217
 9915W        W71369  33.453  17.792  14.948
 9916W        W71370  32.426   4.215  12.869
 9917W        W71371  31.033  32.932  13.502
 9918W        W71372  18.123   3.324  11.537
 9919W        W71373  36.993  36.014  10.504
 9920W        W71374  11.685  16.731  13.391
 9921W        W71375  10.705   5.275  11.396
 9922W        W71376  25.168  11.171  14.480
 9923W        W71377  29.569  22.099  11.472
 9924W        W71378  38.355  41.813  11.612
 9925W        W71379   0.304  24.128   2.694
 9926W        W71380  42.518   2.740   4.225
 9927W        W71381  39.003  11.836   0.914
 9928W        W71382   9.273   4.790   0.873
 9929W        W71383  13.695  24.491   0.458
 9930W        W71384   0.325   4.321   4.835
 9931W        W71385  17.687  40.952  13.849
 9932W        W71386   6.687   6.803  14.828
 9933W        W71387  31.053  38.368  14.489
 9934W        W71388   4.721   8.876  14.908
 9935W        W71389  22.581  24.609  12.838
 9936W        W71390  11.351  13.233   3.347
 9937W        W71391   7.224  21.110   4.728
 9938W        W71392  26.660  37.384   1.737
 9939W        W71393  20.267  12.670   4.135
 9940W        W71394   9.262   9.219  13.929
 9941W        W71395  44.311  32.542  11.037
 9942W        W71396  28.126  41.909   1.356
 9943W        W71397  21.170   6.257   0.399
 9944W        W71398  41.968  25.018   5.133
 9945W        W71399   9.744  38.967   0.907
 9946W        W71400  41.336  31.561  10.582
 9947W        W71401   8.377  20.087  12.089
 9948W        W71402  26.953  29.108  10.567
 9949W        W71403  15.307   4.744   1.868
 9950W        W71404  25.155  21.634   4.196
 9951W        W71405  37.078  34.549  14.332
 9952W        W71406   8.750  43.963   9.960
 9953W        W71407  15.778  41.029   2.216
 9954W        W71408  41.462  43.365  14.431
 9955W        W71409  30.624  42.386   1.888
 9956W        W71410  22.155  33.439   3.742
 9957W        W71411  14.595  11.285   3.200
 9958W        W71412  24.987  16.575   2.264
 9959W        W71413  11.832  41.944   3.371
 9960W        W71414  12.834  32.410   2.848
 9961W        W71415   5.778  29.922   0.481
 9962W        W71416  18.635  38.895   1.256
 9963W        W71417  29.492  18.583   4.293
 9964W        W71418  40.011  43.959   1.889
 9965W        W71419  42.414  39.861  13.326
 9966W        W71420  18.277  42.897   1.405
 9967W        W71421   0.808   5.295  14.499
 9968W        W71422  29.464  29.937  11.464
 9969W        W71423   9.216   1.343  12.854
 9970W        W71424  39.838  29.006  14.952
 9971W        W71425  41.294   2.926  11.997
 9972W        W71426   2.469  31.539  14.913
 9973W        W71427  12.673  42.380   3.843
 9974W        W71428  43.009   0.425  11.111
 9975W        W71429  37.362  21.125   9.946
 9976W        W71430  41.411  25.471   4.253
 9977W        W71431  37.086  40.842  13.942
 9978W        W71432  14.817  28.089   3.871
 9979W        W71433  33.884  15.188  12.028
 9980W        W71434  35.027  14.141   5.181
 9981W        W71435  18.636  18.548   1.316
 9982W        W71436  12.808   1.385   0.329
 9983W        W71437  27.027  33.434  14.980
 9984W        W71438  43.279  33.900   1.818
 9985W        W71439  37.570  14.645  14.278
 9986W        W71440  12.654  24.668  13.834
 9987W        W71441  40.932   2.790   3.764
 9988W        W71442  36.529  31.586   0.403
 9989W        W71443   2.908  41.441   4.650
 9990W        W71444   6.275  28.548   0.311
 9991W        W71445   8.669  39.361   1.315
 9992W        W71446  35.046  30.963   1.433
 9993W        W71447  14.211  35.560   2.229
 9994W        W71448  14.834  11.130   0.737
 9995W        W71449   5.753   7.839  14.837
 9996W        W71450   8.661  13.234  12.081
 9997W        W71451  43.015  18.112   0.909
 9998W        W71452  12.277  42.347  13.538
 9999W        W71453   8.852  32.901  12.540
10000W        W71454  15.326   3.940   3.150
10001W        W71455   9.240  25.076   2.712
10002W        W71456   4.362  37.925  12.068
10003W        W71457  44.797  26.598   3.706
10004W        W71458  41.412  30.516  13.971
10005W        W71459   6.826  39.031   3.669
10006W        W71460  27.110   3.724   0.906
10007W        W71461   2.433  37.989  14.990
10008W        W71462   2.793   3.282   0.944
10009W        W71463  27.024  20.065   2.877
10010W        W71464  28.515   1.813  13.804
10011W        W71465  18.746  27.108  14.022
10012W        W71466   5.214  35.062   2.832
10013W        W71467  18.124  44.925   2.322
10014W        W71468  19.058  41.409  11.116
10015W        W71469  15.200  10.659  13.834
10016W        W71470  40.979  10.853  12.955
10017W        W71471   0.480  30.516   4.215
10018W        W71472   9.200  44.420  11.026
10019W        W71473  18.742  33.993   3.781
10020W        W71474  31.966  32.001  13.040
10021W        W71475  23.003  43.021  13.794
10022W        W71476  11.687  17.089  13.445
10023W        W71477  36.886  38.989   1.406
10024W        W71478   3.289  16.294  13.854
10025W        W71479  28.166   1.973  11.887
10026W        W71480  14.671  17.760  11.423
10027W        W71481  32.133  11.759  13.410
10028W        W71482  18.684  15.130  11.004
10029W        W71483  13.734   9.244   2.667
10030W        W71484  34.496  34.908   0.735
10031W        W71485   2.304  43.437   4.738
10032W        W71486  27.629  10.839   3.201
10033W        W71487  12.847  44.473   3.187
10034W        W71488  37.023   1.472   3.869
10035W        W71489   9.744  11.759   1.737
10036W        W71490  39.021  42.306   1.297
10037W        W71491  22.746   1.248  13.348
10038W        W71492  41.521  43.509  11.949
10039W        W71493  11.640  37.476   3.858
10040W        W71494  43.509   9.196   1.922
10041W        W71495  20.577  29.105   3.756
10042W        W71496  38.499  22.015   1.350
10043W        W71497   9.301  14.662  10.607
10044W        W71498  40.529  35.595   4.177
10045W        W71499  13.125  36.022   4.222
10046W        W71500   9.886  24.121  10.910
10047W        W71501  19.208  39.904  10.642
10048W        W71502   9.864  39.347   1.699
10049W        W71503  23.098   7.858  13.813
10050W        W71504  11.671  40.407   4.335
10051W        W71505  32.100  20.161   4.603
10052W        W71506  35.897  32.443  14.861
10053W        W71507   5.262  26.983   1.331
10054W        W71508  18.772  34.399   0.928
10055W        W71509  21.536  26.540  11.108
10056W        W71510  34.479  35.976   2.774
10057W        W71511  11.736  28.973   0.747
10058W        W71512  15.133  39.888   0.294
10059W        W71513  21.235  27.650   4.329
10060W        W71514  11.322  40.319  11.055
10061W        W71515   9.809  20.271   3.315
10062W        W71516   1.851  25.545   3.167
10063W        W71517  33.552  44.010   0.360
10064W        W71518  14.166   2.440  10.613
10065W        W71519  37.912  42.390   3.770
10066W        W71520  23.166  42.357   4.204
10067W        W71521  34.542  22.664  10.521
10068W        W71522   7.857  16.220  10.407
10069W        W71523   3.386  44.320  13.857
10070W        W71524  15.216  14.596   2.341
10071W        W71525  28.450  27.537  12.031
10072W        W71526  42.915  41.339  12.048
10073W        W71527   9.186  21.220   0.843
10074W        W71528  34.994  27.970  11.611
10075W        W71529  42.346  23.731   1.756
10076W        W71530   2.268  22.047  10.532
10077W        W71531  44.298  41.943   5.259
10078W        W71532  13.648  34.937   3.252
10079W        W71533   5.306  30.030   3.377
10080W        W71534  12.128   6.269   1.858
10081W        W71535  38.850  14.311  11.433
10082W        W71536  37.057  15.273   0.741
10083W        W71537   4.768  12.710  14.502
10084W        W71538  40.398  15.720   3.285
10085W        W71539  26.646  33.576  12.358
10086W        W71540  30.585   2.431  11.563
10087W        W71541  31.644  17.165   1.772
10088W        W71542  21.615  19.663   0.351
10089W        W71543  27.652  16.244  14.505
10090W        W71544  31.640  21.130   4.763
10091W        W71545   2.370  36.091  11.981
10092W        W71546  23.056  24.213   2.848
10093W        W71547  36.871   7.750   1.262
10094W        W71548  19.187  20.705   4.681
10095W        W71549  36.913  17.715  11.926
10096W        W71550  12.693  30.461  10.500
10097W        W71551  31.916  28.971  12.084
10098W        W71552  29.490  13.625   3.353
10099W        W71553   4.762  28.033  13.519
10100W        W71554  12.333  39.981  14.297
10101W        W71555   3.755  34.111  11.065
10102W        W71556  26.501  30.989   1.898
10103W        W71557  36.005  15.682  10.973
10104W        W71558   0.460  29.045  14.408
10105W        W71559  25.522  16.291   3.296
10106W        W71560  24.660  13.602  12.411
10107W        W71561  37.946  35.483  14.408
10108W        W71562  41.978  23.083  10.962
10109W        W71563  33.624  41.533  14.462
10110W        W71564  34.027  24.498   4.329
10111W        W71565  16.604  27.071   3.855
10112W        W71566  11.349  22.529  13.995
10113W        W71567  17.569  15.263  14.421
10114W        W71568  11.868  10.693  12.547
10115W        W71569  38.978  14.319   0.940
10116W        W71570  18.633  24.126  12.340
10117W        W71571   3.886  26.129   2.307
10118W        W71572  11.158  22.044  11.030
10119W        W71573   7.691  40.979   3.382
10120W        W71574  24.176   5.223  14.807
10121W        W71575  32.576  40.385   1.439
10122W        W71576   4.914  32.914  10.995
10123W        W71577   7.762  20.133   1.210
10124W        W71578  32.472  33.975   0.882
10125W        W71579  12.188  22.203  10.433
10126W        W71580  39.943  41.900  10.525
10127W        W71581  43.902  36.941   2.336
10128W        W71582  31.983   5.436   3.308
10129W        W71583   6.296  33.913   1.258
10130W        W71584  31.449  20.266   2.222
10131W        W71585  39.994  38.841  10.601
10132W        W71586  22.085  43.828  13.838
10133W        W71587  29.985   5.427  13.953
10134W        W71588  16.756  40.478  14.833
10135W        W71589  40.890  12.711   0.319
10136W        W71590  26.481  42.902  10.591
10137W        W71591  23.606  14.625  13.474
10138W        W71592  43.447  40.392   2.892
10139W        W71593   2.247  44.767  14.322
10140W        W71594  19.556  15.593  12.436
10141W        W71595  25.984   7.876  11.513
10142W        W71596  40.836   1.783   0.953
10143W        W71597   0.429   5.910  11.555
10144W        W71598  22.236  35.377   4.334
10145W        W71599  15.329  41.023   1.442
10146W        W71600  12.624   6.290   4.300
10147W        W71601  41.902  44.865  13.931
10148W        W71602  41.024  14.773   3.773
10149W        W71603  43.271  22.115  11.514
10150W        W71604  30.503   1.922  13.511
10151W        W71605  26.660  30.488   4.692
10152W        W71606  37.447   2.764  11.043
10153W        W71607   9.282  11.351   0.411
10154W        W71608  27.123  11.367  10.568
10155W        W71609   0.328  42.973   1.716
10156W        W71610  18.115  32.552   0.414
10157W        W71611  35.956  20.622   0.305
10158W        W71612  38.561  34.456  10.981
10159W        W71613  20.176  36.906   4.321
10160W        W71614  27.535  30.526   3.268
10161W        W71615  34.013  16.624   3.703
10162W        W71616   5.396  37.442  10.149
10163W        W71617  43.414  40.496   4.178
10164W        W71618  42.961  30.081   2.341
10165W        W71619  38.556  32.594  10.473
10166W        W71620  16.801  14.231   9.654
10167W        W71621  23.724  44.301   4.776
10168W        W71622   2.250  19.641   2.855
10169W        W71623  42.857  25.171   1.364
10170W        W71624  34.922  37.576   2.819
10171W        W71625  32.577  30.427   1.329
10172W        W71626  35.357  28.443   2.273
10173W        W71627  15.194  28.477  13.534
10174W        W71628   0.360  18.050   3.641
10175W        W71629  37.364  19.154  14.506
10176W        W71630   4.892  17.656   1.724
10177W        W71631  34.538  24.107   0.859
10178W        W71632   3.449  24.630   0.426
10179W        W71633  35.574  22.707   0.382
10180W        W71634  30.518   9.280   1.382
10181W        W71635  17.150  43.989  12.374
10182W        W71636  40.356  22.071  14.004
10183W        W71637  16.177  12.147  14.907
10184W        W71638  13.711   2.724  13.402
10185W        W71639  33.890   3.843  14.291
10186W        W71640  38.067   7.700   3.671
10187W        W71641  12.635  14.161  11.537
10188W        W71642   9.293  24.018  14.930
10189W        W71643  13.684  31.567  10.930
10190W        W71644  14.175  20.090  12.848
10191W        W71645  11.154  32.065   4.247
10192W        W71646   2.929  39.879  12.577
10193W        W71647  38.864  23.226  12.879
10194W        W71648  20.675   2.795  12.542
10195W        W71649  20.607  10.869   0.331
10196W        W71650  25.077  21.720   4.667
10197W        W71651   9.376   8.377  12.065
10198W        W71652  39.930  33.988  12.420
10199W        W71653  10.697  25.129  13.527
10200W        W71654  34.971  17.083   0.390
10201W        W71655  24.151  41.433  14.478
10202W        W71656  17.720  22.219  13.361
10203W        W71657  20.707  17.766   4.252
10204W        W71658   4.384   9.230   0.822
10205W        W71659  14.713  35.492   4.646
10206W        W71660   2.961  39.433   2.721
10207W        W71661  10.177  26.674   5.083
10208W        W71662   8.287   6.268   4.353
10209W        W71663  34.863  20.259  14.398
10210W        W71664  13.823  21.543   2.272
10211W        W71665  43.348   2.271  14.474
10212W        W71666  39.541  44.446  14.874
10213W        W71667   7.327   2.792   1.355
10214W        W71668  37.411  34.469  11.102
10215W        W71669   6.278  18.209  12.020
10216W        W71670  31.520  14.797   3.767
10217W        W71671  33.469  13.220  12.944
10218W        W71672  42.031  25.649  12.949
10219W        W71673  14.238  13.845  10.539
10220W        W71674  30.125  29.628  12.054
10221W        W71675  22.537  26.477   2.366
10222W        W71676   4.423  30.912   1.236
10223W        W71677  25.672  12.780   2.716
10224W        W71678  11.689  28.437  14.855
10225W        W71679  33.127  37.343   1.370
10226W        W71680  38.516  27.616  12.969
10227W        W71681  32.453  35.974  11.379
10228W        W71682  21.035  21.120   2.725
10229W        W71683  44.393  20.755   1.761
10230W        W71684  44.361   8.346   3.373
10231W        W71685   0.843   2.929  13.335
10232W        W71686  28.976   6.380  13.513
10233W        W71687  37.951  33.512   2.294
10234W        W71688  13.120  42.849   4.830
10235W        W71689   3.325  41.988   0.743
10236W        W71690  29.933   7.375   4.825
10237W        W71691  35.049  41.323  14.875
10238W        W71692  39.527  32.891   0.858
10239W        W71693  44.335  17.653  12.028
10240W        W71694  36.998   6.745   2.818
10241W        W71695  42.284  35.443  14.330
10242W        W71696   5.908  16.659   4.232
10243W        W71697   6.214  17.067  10.429
10244W        W71698  29.549  14.743  10.451
10245W        W71699   6.194  23.227  13.346
10246W        W71700   7.750  35.481  11.390
10247W        W71701   4.261  18.294  11.491
10248W        W71702   5.789  43.015  13.365
10249W        W71703   0.279  10.265   2.352
10250W        W71704  37.850  25.115   5.114
10251W        W71705  15.612  24.510  11.868
10252W        W71706   3.881   7.368  10.432
10253W        W71707  39.056  31.414   1.374
10254W        W71708   2.451   3.364   4.218
10255W        W71709  42.503  29.036   2.206
10256W        W71710  39.451  11.790  13.317
10257W        W71711  42.907  26.549   4.661
10258W        W71712  36.914  41.339   1.397
10259W        W71713  28.567  18.665  12.875
10260W        W71714  44.290  40.407   3.218
10261W        W71715  23.536   3.801  14.850
10262W        W71716  31.072   1.323  14.450
10263W        W71717  35.047   2.834  10.483
10264W        W71718  21.171  34.898  10.931
10265W        W71719   6.701  31.995  11.542
10266W        W71720   4.925   9.645  11.442
10267W        W71721  11.741  30.574   0.732
10268W        W71722  27.598   7.758   3.846
10269W        W71723  10.871   9.875  13.946
10270W        W71724   2.798  27.656  14.373
10271W        W71725   1.906  29.609  12.948
10272W        W71726   4.299  19.229   4.142
10273W        W71727  29.523  14.253   2.693
10274W        W71728   8.326   4.884   1.342
10275W        W71729  33.008  40.477  11.515
10276W        W71730   4.744  14.321   9.944
10277W        W71731  10.835   1.441  10.951
10278W        W71732  10.815  27.056   4.785
10279W        W71733   5.330  32.614   0.267
10280W        W71734  17.721  19.052   3.643
10281W        W71735  39.988  41.311  13.991
10282W        W71736  22.620  26.537   9.930
10283W        W71737  12.855  15.255  14.847
10284W        W71738  22.236  42.518   3.775
10285W        W71739  44.357  14.305   2.265
10286W        W71740  42.838   6.374  14.505
10287W        W71741  40.386  44.452   3.797
10288W        W71742   2.720  35.498   4.134
10289W        W71743  43.460  22.655  10.160
10290W        W71744  25.006  21.667  12.414
10291W        W71745   4.755   0.955  14.394
10292W        W71746  20.250   3.786   3.273
10293W        W71747  43.461  35.951  13.927
10294W        W71748  32.135  42.005   4.249
10295W        W71749  39.508  19.661  13.500
10296W        W71750   4.312  19.257   1.404
10297W        W71751  38.973  24.495  12.082
10298W        W71752  12.281  36.365   3.639
10299W        W71753   0.985  42.993  11.118
10300W        W71754  42.320  23.501  11.887
10301W        W71755   7.704  34.017   3.356
10302W        W71756  21.562  39.865   1.934
10303W        W71757  23.165  32.621  12.946
10304W        W71758  29.107  43.769  13.501
10305W        W71759  14.328  39.890  13.340
10306W        W71760  13.160  43.971  12.470
10307W        W71761   7.669  30.607  10.484
10308W        W71762  22.550   1.322  11.563
10309W        W71763  31.645   8.806   4.219
10310W        W71764  19.631  33.124  12.951
10311W        W71765  26.954  13.685  13.475
10312W        W71766  24.217  22.203   3.845
10313W        W71767  39.929  33.551   0.376
10314W        W71768  18.067  34.479   0.759
10315W        W71769  41.796   5.321  12.957
10316W        W71770  35.413   5.392   1.844
10317W        W71771  17.114  21.529  11.974
10318W        W71772   7.173   2.721  13.379
10319W        W71773  17.189   5.390   1.387
10320W        W71774  39.352  37.374   2.337
10321W        W71775  20.224  25.160  10.473
10322W        W71776  41.523  37.451  11.372
10323W        W71777  35.857  20.194   2.193
10324W        W71778  30.101   8.297   5.303
10325W        W71779   5.339  33.055  13.966
10326W        W71780  36.518  44.766  13.847
10327W        W71781   9.703  20.133  13.325
10328W        W71782  10.730  44.774   2.898
10329W        W71783  33.006  40.974  13.826
10330W        W71784  42.482  31.049  12.536
10331W        W71785  43.947  32.039   0.394
10332W        W71786   1.958  37.571   1.387
10333W        W71787  26.471  10.741  14.002
10334W        W71788   8.895  24.611  14.782
10335W        W71789   6.245  24.607   3.704
10336W        W71790  38.404   9.731   4.141
10337W        W71791   3.725  22.145   2.863
10338W        W71792  26.117  44.833   2.297
10339W        W71793   5.814  36.090   4.252
10340W        W71794  39.320  26.106   0.885
10341W        W71795  27.026  37.511  12.830
10342W        W71796  37.055   7.903  14.870
10343W        W71797  16.765  43.841  11.887
10344W        W71798  28.105   2.350  14.801
10345W        W71799  25.086  15.600   2.374
10346W        W71800  40.347  40.847  12.037
10347W        W71801  35.424  23.017  12.979
10348W        W71802  38.486  37.474  11.901
10349W        W71803  13.256   5.828  12.449
10350W        W71804  36.061   5.929  10.408
10351W        W71805  36.978  33.883  11.917
10352W        W71806  39.439  43.435  10.980
10353W        W71807  43.335  26.525  11.921
10354W        W71808   7.317   8.188   2.301
10355W        W71809  13.291  39.064  12.823
10356W        W71810  35.883  41.371  12.575
10357W        W71811  13.759  38.881  11.940
10358W        W71812  30.092  19.622  14.761
10359W        W71813   3.395  11.148  10.589
10360W        W71814   7.701   0.390  11.920
10361W        W71815  10.264   6.266  10.496
10362W        W71816   2.893  35.402   2.665
10363W        W71817  15.271  44.912  12.542
10364W        W71818  27.175  39.450  10.490
10365W        W71819  20.620   7.275   1.866
10366W        W71820   7.360  34.073   3.149
10367W        W71821  23.500  17.234  10.422
10368W        W71822  13.205  21.099   3.316
10369W        W71823  24.012  42.822   2.887
10370W        W71824   7.370  41.816   0.423
10371W        W71825   6.239  39.050  13.952
10372W        W71826  12.836  26.679   4.833
10373W        W71827  15.813  29.652   2.723
10374W        W71828  21.155  12.135  13.854
10375W        W71829  33.036  24.541   3.669
10376W        W71830  17.786   9.182  13.456
10377W        W71831   5.223  21.055  11.513
10378W        W71832   9.672  27.191   4.236
10379W        W71833  17.746  27.486   0.841
10380W        W71834  41.851  10.821  11.573
10381W        W71835  32.495  23.044  13.539
10382W        W71836   6.291   2.949   0.849
10383W        W71837  13.268   4.365  13.496
10384W        W71838   3.358  43.293   1.777
10385W        W71839  43.369  15.247   2.205
10386W        W71840  17.195  21.694   2.851
10387W        W71841  22.149   7.344  13.032
10388W        W71842   5.775  38.860   4.213
10389W        W71843  12.264  11.809   3.366
10390W        W71844   6.374   4.826   0.945
10391W        W71845  38.382   3.905   2.355
10392W        W71846   5.916   3.409  11.597
10393W        W71847  23.504  30.084  11.406
10394W        W71848  23.494  43.509   4.278
10395W        W71849  27.944  25.993  11.521
10396W        W71850  38.977  14.139   0.332
10397W        W71851  24.502  41.310  12.827
10398W        W71852  19.700   8.326   1.747
10399W        W71853  43.477   8.886   3.658
10400W        W71854  34.119   8.264  14.495
10401W        W71855  17.578  31.418   1.710
10402W        W71856  40.803   3.417   4.774
10403W        W71857   5.315   9.242   0.344
10404W        W71858  18.729  27.452  11.015
10405W        W71859   0.962   5.722   3.160
10406W        W71860  40.804  42.962   2.238
10407W        W71861  27.168  25.521  13.993
10408W        W71862  13.118   1.324  11.867
10409W        W71863  24.106   1.336   3.646
10410W        W71864  32.026   5.690  12.549
10411W        W71865  26.107   6.327  14.421
10412W        W71866   7.305   2.966  14.292
10413W        W71867   5.353   7.844   4.215
10414W        W71868  15.651  22.031   2.335
10415W        W71869  23.551  20.688  11.112
10416W        W71870  13.291  16.656  12.984
10417W        W71871   3.861   0.840   3.806
10418W        W71872   8.699  39.527  11.948
10419W        W71873   0.308  25.652  13.453
10420W        W71874  28.544  29.443   1.913
10421W        W71875   9.344  27.030   0.801
10422W        W71876   3.910  29.533  10.434
10423W        W71877  43.418   4.430   0.748
10424W        W71878  19.712  44.285  14.316
10425W        W71879   3.387  25.169  11.899
10426W        W71880   5.862  38.509   2.663
10427W        W71881   7.338   5.270   3.156
10428W        W71882  30.993  10.300   5.617
10429W        W71883  43.888  38.843   3.803
10430W        W71884   3.427  41.909  11.470
10431W        W71885  19.160   0.809  11.457
10432W        W71886  16.223  32.026   4.334
10433W        W71887  27.494  35.908   9.966
10434W        W71888  35.380  37.500  10.027
10435W        W71889  19.205  37.994   0.869
10436W        W71890  22.731  33.576   9.979
10437W        W71891  16.085  34.912   0.299
10438W        W71892  27.196   2.781   1.221
10439W        W71893  21.158   0.474  11.530
10440W        W71894  28.005   3.361   2.233
10441W        W71895   3.826  22.671  12.376
10442W        W71896  22.161  23.517   1.316
10443W        W71897   2.892  19.057   2.239
10444W        W71898  11.348  41.509  14.788
10445W        W71899   5.281  18.774  11.436
10446W        W71900  14.779  37.419   4.668
10447W        W71901  22.170  27.960   2.321
10448W        W71902  22.675  23.546  11.520
10449W        W71903  32.142  21.676   4.340
10450W        W71904  33.508   8.866   0.936
10451W        W71905  36.085  16.101  11.459
10452W        W71906   8.356   5.353  14.955
10453W        W71907   5.243   8.687  12.989
10454W        W71908  32.906  23.544  13.498
10455W        W71909  16.314  43.388  11.938
10456W        W71910  24.198  37.428  14.433
10457W        W71911  38.536   4.321   4.719
10458W        W71912   3.758  22.561  12.842
10459W        W71913   5.433  43.438   3.864
10460W        W71914  18.067  37.564  12.827
10461W        W71915  24.665  29.582  11.444
10462W        W71916  17.786  44.442  11.467
10463W        W71917  11.855   5.295   4.306
10464W        W71918  43.316  37.945  14.448
10465W        W71919  28.183   1.458  11.929
10466W        W71920  18.737  34.969   0.339
10467W        W71921  33.086  22.223  13.935
10468W        W71922  23.563   9.748   2.379
10469W        W71923  29.054  25.017   1.800
10470W        W71924  40.379  23.215  11.973
10471W        W71925  30.029  26.165  12.038
10472W        W71926  10.713  25.622   1.416
10473W        W71927  11.343  16.144  12.967
10474W        W71928  29.527  21.703  10.424
10475W        W71929  39.954  12.137  12.007
10476W        W71930  12.798  35.387  13.980
10477W        W71931   0.846   7.677   3.268
10478W        W71932  28.453   0.286   0.405
10479W        W71933  35.885  31.051  13.855
10480W        W71934  41.889  43.773   4.185
10481W        W71935  22.537  41.931   5.203
10482W        W71936   1.919  39.051   4.690
10483W        W71937  15.112  19.665   1.409
10484W        W71938   2.253   8.850   4.800
10485W        W71939  38.350  26.516   1.356
10486W        W71940  12.750  31.424  11.120
10487W        W71941  18.776   2.893  13.937
10488W        W71942   0.361   5.437  13.911
10489W        W71943   0.492  32.894  12.023
10490W        W71944  10.663   9.158  13.488
10491W        W71945  33.505  28.058   1.709
10492W        W71946  34.587  31.555  14.812
10493W        W71947  32.022  35.861   0.748
10494W        W71948  31.114  35.490  12.910
10495W        W71949  26.645   7.403   1.744
10496W        W71950   8.725  21.246  10.483
10497W        W71951  11.645  30.921   0.958
10498W        W71952  25.503   0.380   0.371
10499W        W71953  27.978  22.550  10.501
10500W        W71954  26.109  38.468  14.453
10501W        W71955  30.972  33.589  12.846
10502W        W71956  17.795  36.841   2.387
10503W        W71957   4.318  14.299   0.385
10504W        W71958  25.121  10.359   1.876
10505W        W71959  25.556   8.245   3.288
10506W        W71960  13.685   3.766   1.877
10507W        W71961   4.886  34.473   1.347
10508W        W71962  31.052   2.272   2.723
10509W        W71963   7.677  25.520   2.879
10510W        W71964  28.478  40.320  14.496
10511W        W71965  11.758   2.469  12.848
10512W        W71966  28.113   0.776   4.246
10513W        W71967  11.694  44.919  12.382
10514W        W71968   9.766  28.951   2.728
10515W        W71969  26.524  16.763   3.361
10516W        W71970  23.596  35.552  10.561
10517W        W71971   8.879  39.811  11.034
10518W        W71972  27.503  21.118  12.380
10519W        W71973  18.191  18.123  14.978
10520W        W71974  33.078  19.730  11.588
10521W        W71975   2.925  34.605   4.328
10522W        W71976  42.848  27.486  11.462
10523W        W71977   9.788  29.012   1.261
10524W        W71978  31.112  23.989  10.923
10525W        W71979  34.067   0.861  13.843
10526W        W71980   3.720  42.949   3.643
10527W        W71981  18.587  37.883   3.347
10528W        W71982  42.292  43.877   4.788
10529W        W71983  42.347  11.841  10.612
10530W        W71984  38.472  32.061   2.219
10531W        W71985   5.362   4.942   3.862
10532W        W71986  36.352  19.279  11.480
10533W        W71987   4.281   9.273  11.862
10534W        W71988  28.181  41.883   4.687
10535W        W71989   6.866  13.212   0.748
10536W        W71990  26.486  17.065   1.700
10537W        W71991  21.562  19.563  14.957
10538W        W71992  11.141  17.728   4.149
10539W        W71993   7.215  38.391  11.596
10540W        W71994   5.404  21.716   0.271
10541W        W71995  30.522  25.480  12.061
10542W        W71996  31.631  44.846   0.899
10543W        W71997   4.444  20.608  14.984
10544W        W71998  35.370  19.116   1.930
10545W        W71999  16.212  11.690   3.165
10546W        W72000  38.481  28.988  13.017
10547W        W72001  39.556  37.353   0.361
10548W        W72002  10.205   5.397  13.380
10549W        W72003  26.071  42.023  11.927
10550W        W72004  35.081  32.106   0.771
10551W        W72005   1.952  31.098   0.771
10552W        W72006  36.088  42.958  10.942
10553W        W72007  23.995  30.582  11.923
10554W        W72008  34.977  27.111  12.088
10555W        W72009   2.803   3.415   3.681
10556W        W72010  25.612  32.547  10.957
10557W        W72011  25.592  33.436   3.749
10558W        W72012  36.462   2.281  13.932
10559W        W72013   7.751  23.493  11.373
10560W        W72014  42.339  38.831   2.743
10561W        W72015  25.150   5.756  12.877
10562W        W72016  39.054  23.020   3.663
10563W        W72017  30.067  42.489  10.445
10564W        W72018  32.416   6.403   3.729
10565W        W72019  18.712  43.938   1.393
10566W        W72020   9.733  36.428  10.976
10567W        W72021   2.368  27.554  13.959
10568W        W72022  15.637  32.065  12.435
10569W        W72023   6.216   0.462   0.770
10570W        W72024  24.184  13.704  12.942
10571W        W72025  29.511   9.767   1.334
10572W        W72026  14.650  37.924  14.372
10573W        W72027  43.942  41.462  13.443
10574W        W72028  42.978  41.443  11.462
10575W        W72029  16.755  12.282  11.428
10576W        W72030   2.466  27.145  12.570
10577W        W72031  12.135  22.743  13.335
10578W        W72032  19.621   4.784  13.483
10579W        W72033  30.030  42.357  11.988
10580W        W72034  30.566  12.282  12.086
10581W        W72035   7.774  12.284  13.396
10582W        W72036  12.320  14.204   1.291
10583W        W72037  39.895  19.683  12.086
10584W        W72038   2.348  11.691  14.895
10585W        W72039  25.679  24.017  10.643
10586W        W72040  21.737   6.255  14.435
10587W        W72041   4.878  36.929   0.265
10588W        W72042   8.849  12.165  14.032
10589W        W72043  12.331  22.587  10.481
10590W        W72044  39.467  11.854   1.914
10591W        W72045  20.049  39.344   3.153
10592W        W72046  22.048  35.032   4.798
10593W        W72047  21.182  15.290  10.544
10594W        W72048  10.302   3.424   4.293
10595W        W72049  30.107   9.707  12.092
10596W        W72050  17.302  11.336  14.853
10597W        W72051  14.747   2.938   3.636
10598W        W72052  17.089  25.478   3.300
10599W        W72053  18.775  39.475  13.943
10600W        W72054  20.065  10.717   1.320
10601W        W72055  30.942  11.862  11.960
10602W        W72056   4.758  40.970   2.869
10603W        W72057  43.463  22.006   3.863
10604W        W72058  33.393  15.779  10.099
10605W        W72059  26.996  25.712   3.329
10606W        W72060  27.047  16.217   3.320
10607W        W72061  32.524  11.144  14.025
10608W        W72062   4.446  41.335  14.498
10609W        W72063  38.973   7.185   2.366
10610W        W72064  12.229  24.162  11.530
10611W        W72065  16.668   9.810  13.433
10612W        W72066  17.632  13.839   1.811
10613W        W72067   2.871  43.855  13.944
10614W        W72068  17.274  25.580  14.900
10615W        W72069  25.696   8.753   3.671
10616W        W72070  35.470   8.868   1.736
10617W        W72071   6.222  10.161  14.460
10618W        W72072  15.637  30.146   4.266
10619W        W72073   0.937  38.047  13.353
10620W        W72074  19.727  38.471  11.457
10621W        W72075  44.359   1.861   3.774
10622W        W72076  17.569   0.800   3.183
10623W        W72077  44.387  13.125   4.597
10624W        W72078  28.636  25.565   3.652
10625W        W72079   3.948   9.731   4.661
10626W        W72080  38.064  36.922  12.029
10627W        W72081  29.064  33.019  13.358
10628W        W72082  29.921  44.316  12.467
10629W        W72083  25.597   7.319   3.275
10630W        W72084  14.755  26.169   4.242
10631W        W72085  12.703  19.565   2.758
10632W        W72086  25.967  37.543  12.092
10633W        W72087  41.408  31.152   3.230
10634W        W72088  35.417  29.021   2.266
10635W        W72089  41.431   2.280   0.251
10636W        W72090  37.546  32.541  12.072
10637W        W72091  39.011   5.894   2.202
10638W        W72092  34.955  28.175  12.034
10639W        W72093   6.355  15.759   5.208
10640W        W72094  42.471  16.625  11.528
10641W        W72095  35.898  43.816  14.930
10642W        W72096  19.603   4.328   1.433
10643W        W72097  16.073  33.964  14.458
10644W        W72098  39.345  36.917  14.927
10645W        W72099  11.636  29.126  14.888
10646W        W72100  40.459  21.131  12.375
10647W        W72101  41.935  21.564   4.180
10648W        W72102  15.688   6.374  12.386
10649W        W72103  23.694   1.885  10.993
10650W        W72104  33.975  21.170   4.749
10651W        W72105  19.069  23.003  11.578
10652W        W72106   6.330  26.185  12.884
10653W        W72107  40.446  41.964   1.704
10654W        W72108  25.073   8.734  12.061
10655W        W72109  20.762  38.471  12.999
10656W        W72110  29.486  18.229   3.849
10657W        W72111  22.638  31.066   3.243
10658W        W72112  44.945  33.588   1.426
10659W        W72113  34.016  41.788  11.885
10660W        W72114  41.479  26.092  11.044
10661W        W72115   6.732  39.376  12.007
10662W        W72116  31.008   6.748   3.274
10663W        W72117  26.171   2.326  12.414
10664W        W72118   5.247  25.588   0.901
10665W        W72119  22.134  43.297  13.482
10666W        W72120  43.495  20.568   4.757
10667W        W72121  11.624  12.125   2.709
10668W        W72122  29.477  11.792  14.808
10669W        W72123  43.995  20.716   1.361
10670W        W72124  39.942  17.142  10.477
10671W        W72125  37.968  17.232  13.532
10672W        W72126  11.339  30.111   1.219
10673W        W72127  31.631  40.814  10.996
10674W        W72128  11.688   0.377  12.567
10675W        W72129  31.034   6.276   9.974
10676W        W72130  20.629  28.621   2.256
10677W        W72131  20.235  28.091   4.785
10678W        W72132  36.566  11.856   2.878
10679W        W72133  36.934   5.913   4.727
10680W        W72134  21.085  17.637  12.425
10681W        W72135   9.714  11.630  12.904
10682W        W72136  16.086  24.213  10.587
10683W        W72137  12.784  42.015   2.828
10684W        W72138   3.441  36.865  11.526
10685W        W72139  13.286   8.282  14.316
10686W        W72140  31.605  37.408   3.651
10687W        W72141  24.039   0.306  14.396
10688W        W72142  10.783   8.885  13.406
10689W        W72143   1.247  11.281   4.131
10690W        W72144  10.330  37.056  14.800
10691W        W72145  13.805  20.163   3.857
10692W        W72146   4.353  13.843  10.893
10693W        W72147  42.422  29.494   1.403
10694W        W72148   0.371  43.965  12.934
10695W        W72149   3.735  20.555   2.302
10696W        W72150   7.187   2.253   4.817
10697W        W72151  23.217  34.907   0.903
10698W        W72152  32.051  25.473  12.377
10699W        W72153  14.814  11.248   3.682
10700W        W72154  39.337  42.903   1.359
10701W        W72155  33.101   3.886   1.339
10702W        W72156   4.274   6.380   4.731
10703W        W72157  25.023  38.499   0.343
10704W        W72158  16.583   6.730   3.630
10705W        W72159  36.465   5.884   4.625
10706W        W72160  27.039   2.877   2.220
10707W        W72161  29.499   2.341  11.072
10708W        W72162  30.101   8.163   1.844
10709W        W72163  15.592  30.046   4.779
10710W        W72164  15.120  36.369   2.709
10711W        W72165  40.477   6.268   0.318
10712W        W72166  34.559  41.379   3.807
10713W        W72167  41.884  21.078   1.722
10714W        W72168  40.484  18.722   2.305
10715W        W72169   2.339  32.010  14.000
10716W        W72170  23.540  30.636  12.962
10717W        W72171  43.492  44.463  11.019
10718W        W72172  17.083  20.575  14.777
10719W        W72173  21.097  25.995   3.324
10720W        W72174  12.210  15.751  13.517
10721W        W72175  14.832   0.878  12.476
10722W        W72176  38.430  40.361  13.060
10723W        W72177  23.017  11.715   3.204
10724W        W72178  36.922   0.323   3.210
10725W        W72179  34.918   7.811  13.375
10726W        W72180   3.413  44.299  10.932
10727W        W72181  33.452  13.795   3.753
10728W        W72182  14.316  11.757  13.794
10729W        W72183  31.052  30.997   3.719
10730W        W72184  16.283  38.859   0.427
10731W        W72185  10.723  24.982  11.523
10732W        W72186  25.550  39.427  12.881
10733W        W72187   7.221   6.395  13.503
10734W        W72188  29.111  43.384  13.406
10735W        W72189  12.690  10.685  10.064
10736W        W72190  33.959  11.129  10.416
10737W        W72191   4.231   5.872  10.550
10738W        W72192   9.249  30.157  12.078
10739W        W72193  29.565  26.622  14.441
10740W        W72194  29.652  20.104   0.334
10741W        W72195  26.989  33.624   2.807
10742W        W72196  36.920  20.146   0.412
10743W        W72197  37.841  42.844   3.317
10744W        W72198  10.357  23.575  13.941
10745W        W72199  37.387  35.548   2.381
10746W        W72200  35.535  41.529   4.630
10747W        W72201  25.552  37.943  12.524
10748W        W72202  14.810   1.827  12.051
10749W        W72203  28.436  34.472   1.744
10750W        W72204  29.565  27.013   4.268
10751W        W72205  10.173  14.157  10.458
10752W        W72206   6.281   0.441  10.570
10753W        W72207  41.441  29.435  12.462
10754W        W72208  11.776  44.492   2.410
10755W        W72209  19.644  37.028  14.952
10756W        W72210   8.805  17.289   4.606
10757W        W72211  22.021  11.293   4.745
10758W        W72212  37.898   6.832   4.155
10759W        W72213   8.886  27.990   2.337
10760W        W72214  21.527  10.781   4.196
10761W        W72215  24.481  30.501   3.631
10762W        W72216  30.587  12.748  12.378
10763W        W72217  34.888  11.314   3.270
10764W        W72218   1.835  31.970  13.317
10765W        W72219   8.771   3.348   0.850
10766W        W72220  28.979   0.778   4.260
10767W        W72221  23.511  44.884  11.899
10768W        W72222  36.842   1.350  12.058
10769W        W72223  21.671  41.515  14.371
10770W        W72224  31.099   4.872   1.239
10771W        W72225  27.649  30.078   1.920
10772W        W72226  33.456  38.015   1.806
10773W        W72227  42.463  35.438  14.882
10774W        W72228  14.111  43.998  10.442
10775W        W72229  39.458   6.821  12.416
10776W        W72230  43.374  38.037   2.749
10777W        W72231  39.533  17.579   1.935
10778W        W72232  20.052  14.824  12.949
10779W        W72233  16.159  10.344  12.835
10780W        W72234  36.982  28.173   3.152
10781W        W72235  16.123  37.532  12.059
10782W        W72236  44.806  43.963  14.359
10783W        W72237  30.027  41.788   3.791
10784W        W72238  26.178  22.162   0.729
10785W        W72239  34.573  42.823  11.410
10786W        W72240  41.879  20.606  10.495
10787W        W72241  21.218  20.699  14.939
10788W        W72242  32.415   4.360   2.716
10789W        W72243  23.042  33.095  10.981
10790W        W72244  14.320  16.237   1.930
10791W        W72245  42.473  25.573   2.796
10792W        W72246  16.618  13.737  14.955
10793W        W72247  16.082  42.301  11.103
10794W        W72248   0.787  34.512  14.768
10795W        W72249  33.938   3.334   1.819
10796W        W72250  38.356  24.033   2.265
10797W        W72251  28.518  42.399  14.282
10798W        W72252  26.586  38.425  10.531
10799W        W72253  19.734  38.514   4.255
10800W        W72254   5.320   1.321   3.257
10801W        W72255  41.535  15.099   2.666
10802W        W72256   8.832  16.684   1.236
10803W        W72257  36.000  20.694   4.612
10804W        W72258  17.724  14.700   2.733
10805W        W72259  37.974  26.513   2.877
10806W        W72260  42.319  20.175  11.932
10807W        W72261   0.354  18.685   0.419
10808W        W72262   4.713   1.297   0.732
10809W        W72263   5.388  30.955   1.761
10810W        W72264   1.474  32.889   4.833
10811W        W72265  18.187  30.657  12.074
10812W        W72266  34.379  42.496   3.796
10813W        W72267   8.229  11.798  14.390
10814W        W72268  20.029  43.855  12.843
10815W        W72269  13.831  44.923  11.020
10816W        W72270  10.651   1.341  14.484
10817W        W72271  18.704  22.617  12.933
10818W        W72272   1.803  14.287  13.488
10819W        W72273   8.897  18.672   1.696
10820W        W72274  15.719   1.412  12.529
10821W        W72275   8.239  12.351   4.834
10822W        W72276  10.853   7.849   2.400
10823W        W72277  41.355  23.518  13.864
10824W        W72278  26.624  38.892   2.192
10825W        W72279   2.274  32.955  13.371
10826W        W72280  17.195  36.446  12.938
10827W        W72281  29.458  27.602   4.799
10828W        W72282  22.708  39.845   3.773
10829W        W72283  30.124  22.695  11.963
10830W        W72284  14.244   5.256  14.492
10831W        W72285  35.095  34.034  14.841
10832W        W72286   6.780   7.210   2.890
10833W        W72287  19.558  33.109  12.339
10834W        W72288  17.216  30.414  14.927
10835W        W72289   1.334   3.752  14.342
10836W        W72290   2.831  36.491  11.381
10837W        W72291   8.254  37.429   0.778
10838W        W72292  35.097  22.540  11.390
10839W        W72293  19.640  16.664   0.287
10840W        W72294   5.210   5.358   1.913
10841W        W72295   0.438  33.007   0.774
10842W        W72296  17.749   6.891   0.901
10843W        W72297  28.973  16.783  11.564
10844W        W72298  35.515  43.830   4.692
10845W        W72299  15.273  35.451  13.898
10846W        W72300  26.121  40.514   2.211
10847W        W72301  35.948   0.391  11.455
10848W        W72302  31.005  23.642  13.911
10849W        W72303  16.573  15.666   9.543
10850W        W72304  14.728  19.617  14.987
10851W        W72305  32.574   4.278   1.258
10852W        W72306  40.850  32.951  14.797
10853W        W72307  44.505  39.536   2.255
10854W        W72308  36.093  35.513   0.247
10855W        W72309  16.136   6.790   1.211
10856W        W72310  35.876  40.861   9.949
10857W        W72311   9.803   9.717  13.020
10858W        W72312   3.778  18.698  12.967
10859W        W72313  30.124  34.110  10.957
10860W        W72314   6.866  22.239   4.704
10861W        W72315   5.263  34.541  13.938
10862W        W72316  13.707  22.126   1.293
10863W        W72317  37.489  28.093   5.265
10864W        W72318  10.780  39.436   0.354
10865W        W72319  28.176  34.866   4.181
10866W        W72320  29.468   9.692  14.887
10867W        W72321  14.656  28.555   4.668
10868W        W72322   3.377  16.209   3.256
10869W        W72323  18.757  36.508  10.895
10870W        W72324  20.649   1.288  12.509
10871W        W72325  33.605  39.491  12.506
10872W        W72326  25.133  23.574  14.952
10873W        W72327  33.492  12.648  14.294
10874W        W72328  21.175  25.645  11.087
10875W        W72329  21.715  29.930  11.519
10876W        W72330  36.975  41.308   3.366
10877W        W72331  25.971   8.667  11.909
10878W        W72332  41.853   9.649  11.950
10879W        W72333  13.347  26.017   1.875
10880W        W72334  16.291  30.637  12.355
10881W        W72335  24.633  14.774  13.536
10882W        W72336  26.528  16.188   3.774
10883W        W72337  44.941  30.525  13.503
10884W        W72338   1.856  14.255   0.728
10885W        W72339  41.529   1.840  14.488
10886W        W72340  29.587  25.024  12.537
10887W        W72341  13.765  15.314   1.310
10888W        W72342  16.130  12.293   2.253
10889W        W72343  14.304  15.170   3.285
10890W        W72344  35.994  30.917  12.884
10891W        W72345  25.134   1.267   3.187
10892W        W72346  26.573  43.921  10.476
10893W        W72347   7.826   4.352  12.401
10894W        W72348  34.410  23.579  10.498
10895W        W72349  37.547   2.428   1.697
10896W        W72350   8.299  19.165   1.769
10897W        W72351  42.007  23.591   3.792
10898W        W72352  44.991   6.181  12.377
10899W        W72353  41.009  21.713  14.985
10900W        W72354  33.001  13.213  11.608
10901W        W72355  14.213  32.114  12.063
10902W        W72356  10.368   5.385   1.824
10903W        W72357  19.121  13.186   4.336
10904W        W72358  36.051  37.079  14.015
10905W        W72359   0.752  30.539  10.521
10906W        W72360  38.486  24.992   3.848
10907W        W72361  26.015  26.148  11.946
10908W        W72362  34.914  10.352  12.926
10909W        W72363  11.722  40.041  13.897
10910W        W72364  38.035  13.347   4.167
10911W        W72365   1.394  26.548   3.337
10912W        W72366  22.211  29.137   1.708
10913W        W72367  38.538  20.180  11.927
10914W        W72368  31.451  28.106  12.933
10915W        W72369   6.839   2.934   0.773
10916W        W72370  29.016  19.068   1.307
10917W        W72371  40.311  42.428   2.376
10918W        W72372   2.249  18.137  12.417
10919W        W72373  19.217  22.079  11.932
10920W        W72374  23.735  27.623  13.340
10921W        W72375   2.906   2.747   2.748
10922W        W72376   6.900  25.059  12.480
10923W        W72377  18.783   5.288  13.055
10924W        W72378  26.682  35.414  13.938
10925W        W72379  36.590  14.625  10.964
10926W        W72380  20.591   6.695   3.774
10927W        W72381   2.854   6.274   4.130
10928W        W72382  16.121  10.377   2.847
10929W        W72383  41.308  27.655   1.764
10930W        W72384  38.824  36.896   2.360
10931W        W72385  27.531  28.587   4.798
10932W        W72386  15.605  11.848   0.897
10933W        W72387  11.302  35.598   0.767
10934W        W72388  26.040  33.051  12.398
10935W        W72389  30.982  35.074   4.197
10936W        W72390  44.964  26.585   1.846
10937W        W72391  31.065  17.573   1.866
10938W        W72392  36.094  20.118   3.820
10939W        W72393  16.690  13.621   4.670
10940W        W72394  24.528  22.159   2.774
10941W        W72395  27.058  10.377  11.947
10942W        W72396  33.495   6.886   1.288
10943W        W72397  35.503   6.193   3.704
10944W        W72398  18.766  16.137  10.466
10945W        W72399   1.364  36.457  12.065
10946W        W72400  27.575  23.067   3.190
10947W        W72401  39.372  43.499   1.251
10948W        W72402  23.985  29.958  13.529
10949W        W72403  18.767  30.613  13.850
10950W        W72404  32.615  37.574   1.919
10951W        W72405  42.295   7.190  14.812
10952W        W72406  35.109   5.365   0.860
10953W        W72407   3.402  25.476  11.954
10954W        W72408  28.006  35.596  13.535
10955W        W72409  27.574   9.252  12.505
10956W        W72410  24.085  16.721   4.734
10957W        W72411  11.175   3.912   4.222
10958W        W72412  15.087  21.111   0.299
10959W        W72413   5.789   2.263  14.894
10960W        W72414   8.206  37.949  11.116
10961W        W72415   5.919  18.650   2.762
10962W        W72416   5.803  35.033  13.010
10963W        W72417  27.091   0.468  14.968
10964W        W72418  32.102  44.820   4.332
10965W        W72419  35.514  29.442   1.221
10966W        W72420  32.512  42.394   1.402
10967W        W72421  13.109  26.652  11.599
10968W        W72422  40.420  14.659  12.542
10969W        W72423  39.540   2.772   0.463
10970W        W72424  19.536   8.349   0.469
10971W        W72425   3.768  40.416   4.136
10972W        W72426   1.962  15.161   3.288
10973W        W72427   5.224  28.031  11.021
10974W        W72428  25.493  28.601   4.768
10975W        W72429   5.738  42.461  13.492
10976W        W72430   4.422   1.382   0.242
10977W        W72431  15.232   9.755   2.286
10978W        W72432   3.315  23.189  12.885
10979W        W72433  23.685  31.990  10.957
10980W        W72434   2.939  16.692   3.666
10981W        W72435  29.590  26.023   0.289
10982W        W72436  37.027  32.599  13.326
10983W        W72437  29.953  17.583   1.385
10984W        W72438   5.806   0.339  14.397
10985W        W72439  43.357  22.201  10.903
10986W        W72440  17.709  24.546   2.795
10987W        W72441  19.149  36.387   4.666
10988W        W72442  19.713  17.181   3.812
10989W        W72443   5.741   9.154   4.825
10990W        W72444   7.231  41.851   1.310
10991W        W72445   0.472  30.001  14.971
10992W        W72446  15.130  27.053  14.336
10993W        W72447   1.267   2.764  13.494
10994W        W72448  14.602  42.996   1.223
10995W        W72449  11.296  29.535  13.486
10996W        W72450  34.055  13.781  13.423
10997W        W72451  28.458  35.579   1.711
10998W        W72452  15.154  25.696  11.881
10999W        W72453  32.935  44.917  10.643
11000W        W72454  31.472  27.952  11.968
11001W        W72455   0.800  37.390  12.825
11002W        W72456  31.022   3.321   2.374
11003W        W72457  44.783  29.951   4.827
11004W        W72458  24.060  18.668  11.476
11005W        W72459  40.884  44.830  10.459
11006W        W72460   1.838  17.624   0.878
11007W        W72461  42.353   2.362  10.508
11008W        W72462   5.723   5.222   1.844
11009W        W72463   6.921  13.749   0.291
11010W        W72464  18.644  13.718  11.430
11011W        W72465   8.391   9.386  13.833
11012W        W72466   4.884  37.004  14.846
11013W        W72467  11.853  10.747  14.343
11014W        W72468   3.254  37.914  12.078
11015W        W72469  20.225  39.916   3.675
11016W        W72470  37.968  13.220  11.116
11017W        W72471   7.199  21.203   4.259
11018W        W72472  16.099  21.515   1.259
11019W        W72473  28.468   2.331   3.300
11020W        W72474  35.476  17.707   4.230
11021W        W72475   5.429  42.022  12.009
11022W        W72476  22.236  29.569   1.326
11023W        W72477  29.129  12.206   0.362
11024W        W72478  17.652   7.245   2.866
11025W        W72479  36.965   4.320  12.382
11026W        W72480  33.939  44.812   1.706
11027W        W72481  39.839  14.272  14.994
11028W        W72482  44.419  38.406  14.839
11029W        W72483  28.475  16.625   1.435
11030W        W72484  40.366  17.740   1.734
11031W        W72485  18.729  21.738  13.869
11032W        W72486   5.262  21.606  10.407
11033W        W72487   4.846  21.720  11.035
11034W        W72488  21.557   3.828  13.913
11035W        W72489   4.888  36.465   2.679
11036W        W72490  30.962  37.357  11.978
11037W        W72491  19.633  30.537   3.816
11038W        W72492   9.772  39.058   4.174
11039W        W72493  39.019  40.961   4.809
11040W        W72494  13.270  22.540   4.640
11041W        W72495  35.893  20.105   2.785
11042W        W72496  14.829  34.390   3.184
11043W        W72497  19.754   2.802   2.418
11044W        W72498   3.764  38.470   0.822
11045W        W72499  19.719  35.028  11.581
11046W        W72500   6.897  31.561   4.710
11047W        W72501  22.513  40.305   3.680
11048W        W72502  26.095   2.284   2.288
11049W        W72503  28.939  16.229   0.314
11050W        W72504  41.006   6.765   1.397
11051W        W72505   8.805   3.724  14.320
11052W        W72506  16.107   5.754  13.851
11053W        W72507  13.731  43.290  12.973
11054W        W72508  40.036  26.971   0.947
11055W        W72509  33.938  21.071  12.409
11056W        W72510   2.316  33.422   0.369
11057W        W72511  12.358   5.872  11.862
11058W        W72512   1.892  32.631  10.575
11059W        W72513  34.388  29.598  14.452
11060W        W72514  29.918   8.254   3.770
11061W        W72515  11.639  16.741  14.994
11062W        W72516  37.428  20.103  12.425
11063W        W72517  42.947  40.454   1.260
11064W        W72518  32.453  16.251   2.829
11065W        W72519  19.050  42.507   0.391
11066W        W72520  10.353  22.137   2.279
11067W        W72521  20.539  42.427  13.327
11068W        W72522  19.127  34.488   4.650
11069W        W72523  28.438  27.571  10.988
11070W        W72524  42.879  13.296   0.472
11071W        W72525  12.758  18.579  12.072
11072W        W72526  28.004  22.025   4.794
11073W        W72527  42.997  23.537   1.697
11074W        W72528  23.638  27.573   3.344
11075W        W72529  14.232  23.131   2.836
11076W        W72530  40.977  22.734  14.000
11077W        W72531  33.911   4.924   2.218
11078W        W72532  22.118  19.083   3.221
11079W        W72533  12.211  11.761  14.883
11080W        W72534  10.365  26.071  11.562
11081W        W72535  23.106  30.568  13.052
11082W        W72536  39.880  36.878  10.500
11083W        W72537  17.078  14.740  14.308
11084W        W72538   3.380  27.531   3.163
11085W        W72539  21.164  27.609   3.149
11086W        W72540  20.111  28.576  11.517
11087W        W72541  25.610  24.126   3.769
11088W        W72542  27.151  25.021   4.126
11089W        W72543   2.268  12.613   5.282
11090W        W72544  29.666  19.128   1.710
11091W        W72545  26.967  10.665  11.550
11092W        W72546  13.710   8.274  13.053
11093W        W72547  24.141   3.455  10.157
11094W        W72548  13.804  22.250   3.831
11095W        W72549  38.027  30.477  10.631
11096W        W72550   1.251  12.353   0.448
11097W        W72551  32.007  22.730   5.106
11098W        W72552   6.195  39.931  12.430
11099W        W72553   2.809  14.711  11.931
11100W        W72554  44.784  42.939   3.335
11101W        W72555   0.825  31.616  14.279
11102W        W72556  44.314  24.079  11.412
11103W        W72557   5.692  19.651  12.090
11104W        W72558  38.405  31.935  12.981
11105W        W72559  34.001  11.715  11.024
11106W        W72560  31.909   8.801   3.285
11107W        W72561   4.775  33.459   1.738
11108W        W72562   8.183  13.117   0.782
11109W        W72563   7.236  20.615   4.272
11110W        W72564  31.494  35.581   1.859
11111W        W72565  31.098  26.538   4.265
11112W        W72566   2.441   4.816   1.408
11113W        W72567  43.416  34.593  13.519
11114W        W72568  17.203  42.983   3.165
11115W        W72569   4.322  32.521   2.898
11116W        W72570  14.734  33.921   0.915
11117W        W72571  33.042  42.492  11.005
11118W        W72572  31.542  33.513   4.690
11119W        W72573  28.447  27.143  13.909
11120W        W72574  20.250   7.254   2.200
11121W        W72575  11.734  24.175  14.958
11122W        W72576   4.325  32.433   1.262
11123W        W72577   5.787  41.357   0.908
11124W        W72578  21.141  36.906  13.404
11125W        W72579  31.072  29.070  10.431
11126W        W72580  40.886  30.654  14.860
11127W        W72581  26.519  35.536   0.308
11128W        W72582   2.287   8.726  10.474
11129W        W72583  36.071  17.752  11.463
11130W        W72584  26.144  19.049   2.743
11131W        W72585  27.962  21.047  11.015
11132W        W72586  28.128  29.508   4.130
11133W        W72587  36.545  19.101  14.857
11134W        W72588  37.484   0.475  13.806
11135W        W72589  41.816  20.123  12.457
11136W        W72590  41.507   2.326   1.334
11137W        W72591  32.446  22.095   1.331
11138W        W72592  44.943  13.660   2.366
11139W        W72593  23.612  34.386   2.721
11140W        W72594  19.227  29.542   0.766
11141W        W72595  11.622  42.522  14.433
11142W        W72596  35.865  40.867   5.296
11143W        W72597  44.311   7.372   1.842
11144W        W72598   0.985  24.179   0.825
11145W        W72599  28.959  18.762  14.442
11146W        W72600  35.367  43.958   4.333
11147W        W72601  44.338  26.627   3.354
11148W        W72602  17.300  37.084  12.440
11149W        W72603   4.750  34.398  14.484
11150W        W72604  34.075  25.983   1.325
11151W        W72605  23.216  29.137   2.197
11152W        W72606  31.000  12.174  10.501
11153W        W72607  22.683  18.722  10.932
11154W        W72608  36.381   3.946   0.930
11155W        W72609  19.087   6.753  13.016
11156W        W72610  17.158  35.018  11.586
11157W        W72611  36.983  35.065  13.880
11158W        W72612  23.585  24.536   1.810
11159W        W72613  29.533   1.280   4.297
11160W        W72614  19.229  17.291   3.691
11161W        W72615   8.229  38.548   1.308
11162W        W72616  23.086  16.097   3.718
11163W        W72617  36.033  11.245  12.526
11164W        W72618  13.158  44.879  12.471
11165W        W72619   1.797  21.718  14.505
11166W        W72620  41.854  15.706   0.324
11167W        W72621  11.313  43.814  13.847
11168W        W72622   0.413  21.060   3.746
11169W        W72623  34.111  23.729  10.904
11170W        W72624   9.240  29.070   9.996
11171W        W72625  40.817  35.968   1.293
11172W        W72626  34.484  40.361   1.381
11173W        W72627   9.864  39.393   3.257
11174W        W72628  10.342  41.998  12.542
11175W        W72629  40.338  16.087  10.942
11176W        W72630   4.272  36.880   3.206
11177W        W72631  24.549   6.778   2.710
11178W        W72632   6.367  27.499  10.538
11179W        W72633  30.163  16.217  12.402
11180W        W72634  27.975  33.093  10.918
11181W        W72635  15.680  38.969  14.296
11182W        W72636  39.343   0.867  11.454
11183W        W72637  39.529  37.483  13.366
11184W        W72638  14.336  27.559  13.847
11185W        W72639   2.325   6.842   0.887
11186W        W72640  14.781  16.126  11.877
11187W        W72641  17.772  37.065  10.947
11188W        W72642  12.281   2.821  14.506
11189W        W72643  44.833  10.799  11.894
11190W        W72644  17.090   1.271  13.793
11191W        W72645  12.257  23.104   2.805
11192W        W72646  16.203  36.522  11.609
11193W        W72647  29.519   0.883  14.838
11194W        W72648  24.160  21.577  14.924
11195W        W72649  31.922  33.041   4.712
11196W        W72650  15.577   7.325  13.486
11197W        W72651   0.470  11.629  12.019
11198W        W72652  31.072  19.591  10.626
11199W        W72653  27.549  37.500  14.891
11200W        W72654  23.040  33.432   2.360
11201W        W72655  24.491  34.920   1.745
11202W        W72656   8.856  25.473   0.289
11203W        W72657  21.588  38.410  10.551
11204W        W72658  26.623  26.521  12.517
11205W        W72659   3.434  31.109  10.608
11206W        W72660  36.475  21.208  12.459
11207W        W72661   6.346  21.682   0.433
11208W        W72662  15.733  34.899   2.286
11209W        W72663   2.790  31.951   2.745
11210W        W72664  10.646  20.253   5.136
11211W        W72665  29.537  12.850  13.963
11212W        W72666  41.338  18.670  14.939
11213W        W72667  36.537  17.616   4.789
11214W        W72668  11.157  38.458   0.458
11215W        W72669  30.023  36.527  10.925
11216W        W72670  30.481  16.596   0.912
11217W        W72671  19.126  13.726   3.855
11218W        W72672   4.720  39.444   2.394
11219W        W72673  33.545   7.408   3.302
11220W        W72674  25.637  29.065  13.903
11221W        W72675  12.719  36.562   4.709
11222W        W72676  28.170  31.094  12.553
11223W        W72677  41.811  32.029  14.002
11224W        W72678   3.758   6.755   3.651
11225W        W72679  44.380  31.036   4.189
11226W        W72680  42.362  28.449   2.810
11227W        W72681   3.435   6.802  13.965
11228W        W72682  23.996  17.276   4.212
11229W        W72683  19.657  13.129  12.034
11230W        W72684  10.652   9.148  12.542
11231W        W72685  16.143  12.130  11.510
11232W        W72686  21.116  32.101   0.386
11233W        W72687  25.981   1.879  11.125
11234W        W72688  43.988  17.724   4.259
11235W        W72689  42.392  37.840   4.290
11236W        W72690  33.474  43.293  14.382
11237W        W72691   0.294   6.811  11.111
11238W        W72692  13.254  33.610   1.233
11239W        W72693  38.822  44.430   4.224
11240W        W72694  23.721  37.999   2.269
11241W        W72695  26.091  24.623  12.350
11242W        W72696  39.553  21.245   3.190
11243W        W72697  19.534  31.927  10.602
11244W        W72698  13.776  16.234  11.464
11245W        W72699   1.972  34.931  11.918
11246W        W72700  10.172  20.067   4.317
11247W        W72701  44.299  10.684  10.601
11248W        W72702  32.113  31.586   9.940
11249W        W72703   0.279  26.973  13.952
11250W        W72704  31.987  31.582   1.842
11251W        W72705  43.768  41.355   0.902
11252W        W72706  10.764  42.358  12.870
11253W        W72707  27.031  31.083   2.789
11254W        W72708  18.713  31.972   0.912
11255W        W72709  30.976  20.132   4.187
11256W        W72710   1.399   4.737   1.334
11257W        W72711  32.978  37.879   2.258
11258W        W72712  32.996   0.327  12.543
11259W        W72713  26.545  42.794   3.307
11260W        W72714  36.520  14.650  12.484
11261W        W72715  21.149  16.712  10.932
11262W        W72716  44.496  31.133  14.969
11263W        W72717   0.878   2.363  13.405
11264W        W72718  15.680  32.946  13.525
11265W        W72719  32.570   8.237   1.848
11266W        W72720  13.674   5.337  11.096
11267W        W72721  25.643  27.194   0.421
11268W        W72722  42.850  39.458  13.999
11269W        W72723  41.391  14.239   1.783
11270W        W72724  34.602  20.260   0.389
11271W        W72725  40.835  13.290   0.386
11272W        W72726  18.244  39.022  11.111
11273W        W72727  35.942  10.820  11.002
11274W        W72728  18.120   8.263   0.448
11275W        W72729   8.836   5.306  12.857
11276W        W72730   8.343  18.253  10.412
11277W        W72731   8.404  10.299   2.325
11278W        W72732  10.303  37.466  13.520
11279W        W72733  29.999  25.515   2.349
11280W        W72734  15.170  13.239  14.509
11281W        W72735  28.605  23.197   0.352
11282W        W72736   5.260  12.203  12.417
11283W        W72737  16.166   0.784   1.428
11284W        W72738  22.542  10.650  13.858
11285W        W72739  40.859  27.955   4.834
11286W        W72740   9.775  27.169   0.914
11287W        W72741  19.696  42.492  13.884
11288W        W72742  10.764  32.052   1.299
11289W        W72743   2.737  13.278   3.378
11290W        W72744   8.327  34.467  10.530
11291W        W72745   0.405  42.445   2.288
11292W        W72746  28.609  20.109   3.781
11293W        W72747   5.414  38.939  14.985
11294W        W72748   6.906  19.095  12.963
11295W        W72749  10.878  18.567  12.345
11296W        W72750  40.809   8.848  14.364
11297W        W72751   3.709  25.205  10.563
11298W        W72752  10.707  37.480  11.051
11299W        W72753  35.588  19.248  12.411
11300W        W72754  32.994  27.078  11.398
11301W        W72755  44.765   4.729   2.334
11302W        W72756  35.959  32.592  13.384
11303W        W72757  33.399  11.648   2.301
11304W        W72758  27.689  27.065  14.835
11305W        W72759  13.831  41.926   1.795
11306W        W72760  40.468  37.032  10.419
11307W        W72761  24.480  18.149   0.828
11308W        W72762  24.060  39.362  14.343
11309W        W72763  26.176  15.102  12.482
11310W        W72764   9.331  28.528   0.287
11311W        W72765  19.092  44.324   3.154
11312W        W72766  18.658  40.425  11.094
11313W        W72767  14.320   5.232   0.423
11314W        W72768  40.890  39.060   0.286
11315W        W72769  20.057  30.979   0.900
11316W        W72770  26.019  25.708  13.426
11317W        W72771   1.317  18.293   2.317
11318W        W72772  25.696  19.772   0.913
11319W        W72773  44.972   7.912   4.122
11320W        W72774  10.786  30.024  10.436
11321W        W72775  36.933  27.648  13.840
11322W        W72776  43.015  15.321   4.310
11323W        W72777   5.919  30.443   0.464
11324W        W72778  44.435   0.352   0.290
11325W        W72779  16.150  21.038   2.416
11326W        W72780  38.332  10.316  12.403
11327W        W72781  28.475  28.667   2.791
11328W        W72782  13.654  18.066   0.862
11329W        W72783  35.955  16.077   0.480
11330W        W72784  38.527  37.496  11.522
11331W        W72785  24.038   0.443  13.527
11332W        W72786  24.531   1.412  11.096
11333W        W72787   6.202  25.590   1.817
11334W        W72788  38.981  21.158   2.784
11335W        W72789  41.938  31.478   2.413
11336W        W72790  44.835  28.111   2.776
11337W        W72791  28.955  31.575   4.720
11338W        W72792  40.527  20.607  12.404
11339W        W72793  40.515  25.070   2.324
11340W        W72794  18.706  10.669  12.912
11341W        W72795  24.643   6.370  11.030
11342W        W72796   6.392  17.735   3.809
11343W        W72797  34.590   2.778   0.330
11344W        W72798  27.987  34.058   4.778
11345W        W72799  37.563  21.152   3.321
11346W        W72800  16.758  25.689  14.505
11347W        W72801  13.289  12.356  12.565
11348W        W72802  30.921   2.892   5.150
11349W        W72803  10.691  15.611   0.793
11350W        W72804  42.487  23.542   0.367
11351W        W72805  33.543  17.640  11.054
11352W        W72806   5.772   8.733   0.341
11353W        W72807  39.519  16.279  14.281
11354W        W72808  18.267  39.933  13.972
11355W        W72809  12.163  32.439   4.316
11356W        W72810  35.542  14.149  12.857
11357W        W72811   6.764   6.389   3.300
11358W        W72812  39.397  30.531  14.919
11359W        W72813  39.914   3.242   3.712
11360W        W72814  20.123   1.382   3.363
11361W        W72815  21.237  35.906  10.034
11362W        W72816  22.148   2.847  11.573
11363W        W72817  17.299  12.243  13.442
11364W        W72818  26.474  39.406   3.270
11365W        W72819   1.397   9.797   4.708
11366W        W72820   3.287  18.579  10.466
11367W        W72821  42.518  24.680   1.251
11368W        W72822  26.035   1.952   1.826
11369W        W72823   8.320  43.815  12.009
11370W        W72824  22.531  30.640  11.961
11371W        W72825   9.738  41.449  10.599
11372W        W72826  10.280  34.040   4.602
11373W        W72827  40.940   9.890  14.996
11374W        W72828  42.976   2.444   2.871
11375W        W72829  21.203  25.517  12.381
11376W        W72830  16.806  26.208  11.098
11377W        W72831   5.317  39.502   1.785
11378W        W72832   0.281  22.191  14.338
11379W        W72833  34.918  43.782   4.807
11380W        W72834  28.154  13.298   3.801
11381W        W72835  22.996  28.108   0.881
11382W        W72836  33.114  42.451  14.458
11383W        W72837  40.862  31.593  12.485
11384W        W72838  24.675  12.752   1.778
11385W        W72839   4.266  25.013  12.859
11386W        W72840  42.472  17.732   0.272
11387W        W72841   7.238   2.268   2.774
11388W        W72842  43.826  12.663   2.816
11389W        W72843  13.796   8.811   3.864
11390W        W72844  24.076  22.511  10.897
11391W        W72845  35.458  43.380  13.810
11392W        W72846  33.425   5.326  12.398
11393W        W72847   3.334  31.467   3.360
11394W        W72848   1.329   8.227  12.446
11395W        W72849  31.622  29.968  13.462
11396W        W72850  24.227  23.014  14.355
11397W        W72851  36.486  11.640  13.379
11398W        W72852  19.247  21.078  13.518
11399W        W72853  37.848  14.675   0.365
11400W        W72854   3.416  14.105  12.472
11401W        W72855   5.833  11.653   3.227
11402W        W72856  39.358   7.365  12.012
11403W        W72857   2.843   8.831  14.358
11404W        W72858  22.666  35.539  13.491
11405W        W72859  36.509  31.143  11.056
11406W        W72860  31.072  36.890   2.309
11407W        W72861  34.540  43.885   0.448
11408W        W72862  17.099  26.479   0.963
11409W        W72863  22.162  38.373   0.926
11410W        W72864  44.408  26.153   2.357
11411W        W72865  37.843   7.376   2.733
11412W        W72866  17.238   3.726   0.406
11413W        W72867   9.271  25.198  11.543
11414W        W72868   8.296   9.875  14.822
11415W        W72869  36.937  15.246   1.873
11416W        W72870  22.624  12.652   1.339
11417W        W72871  35.461  25.966  14.762
11418W        W72872  11.844  17.102   5.239
11419W        W72873   3.841  41.378  13.462
11420W        W72874  30.079  25.161  10.973
11421W        W72875  14.264  44.288  14.993
11422W        W72876  35.492  25.133   0.879
11423W        W72877   8.222   5.275  14.484
11424W        W72878   1.442  15.802   4.211
11425W        W72879  23.187  16.297  10.524
11426W        W72880  22.175  23.559  11.383
11427W        W72881  10.750   9.177   2.741
11428W        W72882  19.715   4.892   3.374
11429W        W72883  23.046  27.057  12.515
11430W        W72884  13.599  27.551   3.649
11431W        W72885  21.652  43.910   2.837
11432W        W72886  15.206   9.169   2.250
11433W        W72887  19.064  11.750   3.748
11434W        W72888  44.277  40.472  13.831
11435W        W72889  18.576  10.177   1.240
11436W        W72890  23.172  44.773  12.034
11437W        W72891  27.451  21.261  12.956
11438W        W72892  43.870   1.763  13.352
11439W        W72893  28.534  28.535  13.870
11440W        W72894  17.226   5.419  10.159
11441W        W72895   9.687  19.727  12.897
11442W        W72896  38.872  35.857  11.010
11443W        W72897   3.712   6.206  10.935
11444W        W72898   4.362   6.328  12.532
11445W        W72899  10.383  44.805  10.981
11446W        W72900  41.302  11.635  10.594
11447W        W72901  20.184  35.435  12.033
11448W        W72902   4.825  13.811  11.112
11449W        W72903  21.201  30.947   2.293
11450W        W72904  36.862   8.162  14.019
11451W        W72905  31.023  28.656   1.841
11452W        W72906   4.892   0.919  11.884
11453W        W72907   8.864  40.400  11.495
11454W        W72908  17.285   5.778   4.346
11455W        W72909  26.500   4.940  13.049
11456W        W72910  38.414  24.113  12.566
11457W        W72911  41.894   4.242  13.409
11458W        W72912  36.560  11.684   4.291
11459W        W72913  13.678  32.969   3.379
11460W        W72914   6.682  24.076  12.440
11461W        W72915  25.528  15.695   4.616
11462W        W72916  10.826  41.864  14.407
11463W        W72917  34.609   9.309  14.007
11464W        W72918  24.651  25.500   4.811
11465W        W72919  44.422  20.263  13.321
11466W        W72920  42.427  31.552  12.869
11467W        W72921  15.100  43.282  14.401
11468W        W72922  41.001  28.637   2.792
11469W        W72923  35.441  28.043   4.804
11470W        W72924   2.370  18.655  14.516
11471W        W72925  12.256   1.893   1.915
11472W        W72926   8.672  34.498   1.269
11473W        W72927  33.592  25.189  12.452
11474W        W72928  12.677   8.371   0.322
11475W        W72929  13.712  24.107   4.350
11476W        W72930  31.614  15.662   1.932
11477W        W72931   6.376  25.587   4.772
11478W        W72932   3.341  32.898   3.653
11479W        W72933  23.535  15.187   0.328
11480W        W72934  18.189  13.217  13.001
11481W        W72935   7.327  13.136   1.417
11482W        W72936  22.203  35.853   4.657
11483W        W72937  12.248  32.028   3.637
11484W        W72938  37.357   6.916  11.398
11485W        W72939   5.239  25.488  10.467
11486W        W72940  23.544  33.472   1.262
11487W        W72941  30.580  28.991  11.542
11488W        W72942  29.930  13.118   4.320
11489W        W72943   3.317  29.105  14.017
11490W        W72944   7.873  22.189  11.987
11491W        W72945  17.153  23.599   0.335
11492W        W72946  22.218  20.755  14.801
11493W        W72947  36.387  14.688   1.862
11494W        W72948  13.678  26.479   2.806
11495W        W72949  15.640   7.410   3.837
11496W        W72950  32.411  10.242   4.660
11497W        W72951  13.321   8.292   1.816
11498W        W72952   5.881  32.409   4.749
11499W        W72953  16.750  30.091   1.378
11500W        W72954  36.503  17.208   3.200
11501W        W72955   5.745   1.329  14.439
11502W        W72956   7.689  36.525   2.727
11503W        W72957   5.730  37.931  13.991
11504W        W72958  10.856  11.749  10.132
11505W        W72959  17.291  11.178   3.211
11506W        W72960  19.189  29.923   4.716
11507W        W72961  28.136   6.209  12.014
11508W        W72962  32.986  23.095  13.958
11509W        W72963  25.554   7.713   1.726
11510W        W72964  35.474  29.099   1.865
11511W        W72965  13.272  15.263  14.311
11512W        W72966  21.243  43.014  11.923
11513W        W72967  24.490  24.006  11.936
11514W        W72968  40.359  39.323   5.649
11515W        W72969   3.384  26.073  11.038
11516W        W72970  34.026   0.981  14.947
11517W        W72971  10.167  37.977   4.301
11518W        W72972  39.054  12.783  13.451
11519W        W72973  33.107   1.331   4.652
11520W        W72974  15.254  34.486  13.913
11521W        W72975  32.552  16.106   3.346
11522W        W72976  29.158  40.356   1.288
11523W        W72977  10.266  24.085  10.495
11524W        W72978  13.212  25.467   1.352
11525W        W72979  23.493  34.509  13.940
11526W        W72980  11.666  37.954   2.350
11527W        W72981   7.383   3.739  14.032
11528W        W72982   0.442   0.892  11.042
11529W        W72983   5.340  30.086   1.740
11530W        W72984  41.380  22.215   0.810
11531W        W72985  36.010  31.102  11.982
11532W        W72986  29.639  36.499  10.442
11533W        W72987  44.503   3.781   9.940
11534W        W72988  13.770   3.901  11.120
11535W        W72989  35.877  39.346   5.223
11536W        W72990  35.495  38.026  11.046
11537W        W72991  42.889   3.849  12.968
11538W        W72992  16.576  15.709   3.290
11539W        W72993   0.329  27.116   2.844
11540W        W72994  13.220  40.956   9.552
11541W        W72995  17.562  39.000   4.249
11542W        W72996  13.213  30.960   0.466
11543W        W72997  40.458   6.693   4.763
11544W        W72998   9.833  39.378   0.864
11545W        W72999  22.501  27.120   3.739
11546W        W73000  37.402   1.742   4.711
11547W        W73001  37.038   8.236  12.902
11548W        W73002   0.372  22.636  12.027
11549W        W73003  36.394  42.002   3.786
11550W        W73004  34.422   0.957  10.462
11551W        W73005  32.438  39.835  12.083
11552W        W73006   7.178   8.304  11.973
11553W        W73007  17.238  12.322   0.304
11554W        W73008  31.918   3.343  14.978
11555W        W73009   9.767  40.936  14.398
11556W        W73010   6.369  13.713   1.282
11557W        W73011  13.311  26.198  10.465
11558W        W73012   7.263  22.523  13.904
11559W        W73013  27.549   3.907   2.236
11560W        W73014  23.222  19.728   0.298
11561W        W73015  17.260  44.796   3.710
11562W        W73016   1.798  28.128  14.465
11563W        W73017  30.585  29.026   0.751
11564W        W73018  16.256  15.713   2.204
11565W        W73019  24.620   1.354  14.974
11566W        W73020   2.346  31.981  11.407
11567W        W73021  31.914  30.132   0.304
11568W        W73022  14.202   5.736   3.163
11569W        W73023  44.458  20.707   4.738
11570W        W73024  27.616  44.799  14.980
11571W        W73025  30.604  31.136  12.352
11572W        W73026  27.041  43.970  14.318
11573W        W73027  13.747   4.799   3.239
11574W        W73028  41.951  22.537   0.285
11575W        W73029   7.670   0.423  13.046
11576W        W73030  13.110  12.666   9.949
11577W        W73031   5.253  26.081   4.752
11578W        W73032  15.578   9.287   4.145
11579W        W73033  22.022  14.099   2.828
11580W        W73034   8.655  21.543  13.438
11581W        W73035  29.450  12.335  13.929
11582W        W73036   1.251  33.126   2.711
11583W        W73037   5.227   6.703  11.414
11584W        W73038  27.147  20.759  11.963
11585W        W73039   3.372  21.050  13.026
11586W        W73040  14.633  10.681  12.029
11587W        W73041  41.524  32.049  12.350
11588W        W73042  33.013  34.416  10.439
11589W        W73043   6.760  33.450   3.305
11590W        W73044  41.424  40.856  12.901
11591W        W73045  21.680  21.684  11.582
11592W        W73046   5.325  19.759  10.978
11593W        W73047   6.800   1.239  12.435
11594W        W73048  25.508  28.948   0.430
11595W        W73049  27.554  41.968  13.362
11596W        W73050  27.134  36.986   1.849
11597W        W73051  28.520  21.134   0.347
11598W        W73052   2.309  38.998  14.940
11599W        W73053  30.519  18.590  13.544
11600W        W73054  28.171  33.496   0.466
11601W        W73055   2.904  26.951  12.059
11602W        W73056  29.152   0.319  14.435
11603W        W73057  33.410  13.681  12.561
11604W        W73058  33.393  44.894   2.393
11605W        W73059  17.206  33.088   1.826
11606W        W73060  17.734   8.366   1.697
11607W        W73061   7.258  44.377   5.081
11608W        W73062  16.232  15.152   3.325
11609W        W73063   2.829   8.693   1.792
11610W        W73064  22.143  44.305  11.961
11611W        W73065  19.629   2.469  10.419
11612W        W73066  16.221  30.161   0.366
11613W        W73067   0.854  12.280   3.791
11614W        W73068  37.071   9.257  10.971
11615W        W73069  40.045  41.901   2.355
11616W        W73070  41.912  36.472   4.753
11617W        W73071  11.297  36.881  13.414
11618W        W73072  13.209  34.031   2.743
11619W        W73073  11.649  39.813  14.365
11620W        W73074  15.806  11.701  11.074
11621W        W73075   7.765  26.053  13.534
11622W        W73076   9.770  16.132  13.528
11623W        W73077  14.121  37.013  12.560
11624W        W73078  14.734   2.826   0.287
11625W        W73079  13.801   4.851   2.226
11626W        W73080  17.640  14.339  11.591
11627W        W73081  10.667  28.110  12.060
11628W        W73082  31.147  42.522   3.815
11629W        W73083   8.777  29.647  11.467
11630W        W73084  39.043  20.615   4.804
11631W        W73085  29.920  27.454  12.469
11632W        W73086  14.249   2.777  14.490
11633W        W73087   8.769   9.717   3.778
11634W        W73088   1.956  24.024  13.948
11635W        W73089  24.989  11.221  10.503
11636W        W73090  10.270   0.975  12.850
11637W        W73091   9.847   2.311   2.843
11638W        W73092  36.085  39.503   1.343
11639W        W73093   6.243   7.303  13.381
11640W        W73094  37.553  18.092   4.270
11641W        W73095  38.908  40.320   4.179
11642W        W73096  26.129  13.200   3.641
11643W        W73097  26.051   3.458  11.982
11644W        W73098   2.302  15.785  12.464
11645W        W73099  18.751  39.419   0.458
11646W        W73100  16.171   8.853  12.433
11647W        W73101  24.489  18.248   1.289
11648W        W73102  39.339   9.390   3.832
11649W        W73103  35.996   5.929  13.479
11650W        W73104  26.595   3.811  11.389
11651W        W73105  17.253  20.714  12.961
11652W        W73106  38.021  26.060   4.245
11653W        W73107   5.357  20.089   3.201
11654W        W73108  31.418  36.963   0.934
11655W        W73109   0.341   8.809  12.089
11656W        W73110  13.180  20.122  12.922
11657W        W73111  42.973  23.076   0.905
11658W        W73112  20.157  15.785  11.445
11659W        W73113   6.731  24.604   2.203
11660W        W73114  26.170  32.459   4.699
11661W        W73115  28.168   0.451   0.757
11662W        W73116  36.513  11.274   4.823
11663W        W73117  35.536  34.553  10.457
11664W        W73118  13.745  29.946   0.380
11665W        W73119  23.616  18.583  13.487
11666W        W73120  22.213  20.727   2.274
11667W        W73121   1.812  25.087   2.768
11668W        W73122  20.603   6.709  12.889
11669W        W73123  41.294  42.953   3.311
11670W        W73124  25.569  25.151   4.658
11671W        W73125  34.902  19.114   0.376
11672W        W73126  27.146   8.391   0.435
11673W        W73127  39.812  21.668  12.041
11674W        W73128  27.075  16.680  11.910
11675W        W73129  27.192  27.540   4.304
11676W        W73130   2.464   6.729  12.989
11677W        W73131  28.169  16.312  10.426
11678W        W73132   6.382  44.757   0.882
11679W        W73133  14.702  38.053   1.261
11680W        W73134  42.863  22.507   3.669
11681W        W73135   9.826  37.878   4.741
11682W        W73136  10.683   0.982  10.937
11683W        W73137  43.356  16.204   3.757
11684W        W73138  38.539  29.515   4.652
11685W        W73139   5.259  16.196  10.914
11686W        W73140   2.817  23.223  14.955
11687W        W73141   0.841  35.080  11.483
11688W        W73142  30.462  33.993   3.705
11689W        W73143  11.798  23.999   3.745
11690W        W73144   3.367  44.817  12.482
11691W        W73145   2.842  34.058  11.097
11692W        W73146   8.327  13.265   1.413
11693W        W73147   1.837  16.098  11.524
11694W        W73148  16.745  42.846   0.792
11695W        W73149   9.780  23.560  10.455
11696W        W73150  35.445  26.015   3.232
11697W        W73151  29.500  20.631  13.428
11698W        W73152  30.514  15.820   3.846
11699W        W73153  14.205   0.840   1.788
11700W        W73154   0.382  10.750   4.837
11701W        W73155  20.241  34.873   2.891
11702W        W73156  39.348  21.616   4.603
11703W        W73157  27.461  36.915  14.914
11704W        W73158  36.042  17.754   4.650
11705W        W73159   7.175  18.085  11.991
11706W        W73160  37.491  42.876   1.278
11707W        W73161  31.111  30.990  11.065
11708W        W73162  41.467  33.567  14.983
11709W        W73163   8.679   5.321   0.420
11710W        W73164  13.320  43.295   1.862
11711W        W73165  37.844  32.101   4.172
11712W        W73166  37.491   0.310  10.480
11713W        W73167  18.601  12.346   4.167
11714W        W73168  10.863  37.957   1.246
11715W        W73169  20.634  20.033  11.966
11716W        W73170   4.216  17.243   1.450
11717W        W73171  10.157  41.429  13.886
11718W        W73172  12.618  29.561  14.496
11719W        W73173  10.796  10.726   2.251
11720W        W73174   1.939  40.006   1.760
11721W        W73175  44.937  18.244  13.060
11722W        W73176  19.612  31.451   0.796
11723W        W73177  11.209  37.370   2.700
11724W        W73178  16.211  33.941  11.043
11725W        W73179  18.262  15.763   1.781
11726W        W73180  29.610  38.461   0.806
11727W        W73181  39.829  17.278   1.403
11728W        W73182  10.678  42.858   3.858
11729W        W73183  18.678  32.425   3.637
11730W        W73184  39.051   9.866   2.263
11731W        W73185  23.094  38.514  11.908
11732W        W73186  15.110  26.078  10.939
11733W        W73187  41.883  23.206   2.399
11734W        W73188  24.143   7.814  11.923
11735W        W73189  29.963  27.189   2.375
11736W        W73190   8.176  40.050   4.744
11737W        W73191  26.152   8.188  10.501
11738W        W73192   2.284  28.539   1.803
11739W        W73193  13.215   0.787  11.023
11740W        W73194  15.765  15.193   2.706
11741W        W73195  13.843   9.819  12.967
11742W        W73196   7.684  42.981   9.966
11743W        W73197   0.471  10.704   0.453
11744W        W73198  18.565  17.690   1.260
11745W        W73199  25.965  11.308   1.897
11746W        W73200  15.702  34.030  13.016
11747W        W73201  20.688  26.608  13.890
11748W        W73202   9.357  30.634  13.539
11749W        W73203   1.264  10.683   3.704
11750W        W73204  32.996  22.740  12.348
11751W        W73205  32.071  31.113  14.449
11752W        W73206   6.264  40.395  13.488
11753W        W73207  10.162  12.206   0.356
11754W        W73208  34.609   9.219   4.736
11755W        W73209  38.453   4.785   1.398
11756W        W73210  40.003  18.229   1.225
11757W        W73211  22.692   3.461  10.470
11758W        W73212   5.402  39.887  11.416
11759W        W73213  28.125  15.592  13.799
11760W        W73214  12.270  27.968  11.945
11761W        W73215  40.954  32.948   3.270
11762W        W73216  44.401   8.310  12.030
11763W        W73217  24.548  40.424   1.871
11764W        W73218  44.293  22.015  14.374
11765W        W73219  10.256   1.294   3.751
11766W        W73220  37.341   0.793  11.044
11767W        W73221  38.548   0.248   4.683
11768W        W73222  36.567  16.245   0.845
11769W        W73223  29.514  44.872  11.033
11770W        W73224  11.189  26.522   3.333
11771W        W73225   8.166  40.509   0.734
11772W        W73226  26.531  32.508   4.710
11773W        W73227  24.160  23.623  10.559
11774W        W73228  38.532  36.079  13.912
11775W        W73229  17.579  44.481   0.355
11776W        W73230  11.292  41.909  13.866
11777W        W73231  25.068  14.262  11.501
11778W        W73232   2.725  25.179   3.836
11779W        W73233  18.563  13.136   5.658
11780W        W73234  27.629  44.984  13.372
11781W        W73235  44.888  18.733   2.184
11782W        W73236  33.935  42.947  14.946
11783W        W73237  28.585   1.399   2.262
11784W        W73238  16.744  43.290  10.585
11785W        W73239  14.287   4.287  10.914
11786W        W73240  35.509   1.894   1.921
11787W        W73241  38.523  23.506   2.242
11788W        W73242   9.282  24.129  10.046
11789W        W73243  43.903  23.075  13.016
11790W        W73244  25.142  44.438   2.414
11791W        W73245  31.417   9.156   3.346
11792W        W73246  16.605  38.921   4.183
11793W        W73247  11.221  44.889   3.773
11794W        W73248  22.025  36.352   2.279
11795W        W73249  17.629   3.430   4.783
11796W        W73250  30.163   3.902   1.880
11797W        W73251   8.307  19.581  10.893
11798W        W73252  42.358   4.392  12.090
11799W        W73253  44.334  34.575  13.968
11800W        W73254  19.704   1.451   0.322
11801W        W73255   6.290   7.730   4.614
11802W        W73256   8.392   1.911  11.428
11803W        W73257  27.017  35.358   0.864
11804W        W73258  18.668   2.865  14.783
11805W        W73259  43.386  33.417   2.751
11806W        W73260   8.711  26.682   1.403
11807W        W73261  10.662  15.317   3.313
11808W        W73262  41.885  26.010  14.291
11809W        W73263  22.143  41.386  14.850
11810W        W73264  42.325  38.875  12.091
11811W        W73265  10.703  37.980   2.216
11812W        W73266   7.197  34.514  12.874
11813W        W73267  10.765  36.449  13.343
11814W        W73268  23.996  21.024   0.291
11815W        W73269   7.377  13.765  13.309
11816W        W73270   1.289  14.646  10.480
11817W        W73271   1.776  27.060   1.717
11818W        W73272  42.501  24.533   2.806
11819W        W73273  19.636   8.362   2.743
11820W        W73274   5.292  17.617   0.862
11821W        W73275  40.546   5.345   2.848
11822W        W73276   4.939  12.833  12.095
11823W        W73277   9.889   3.237   2.772
11824W        W73278  23.656  16.576   3.810
11825W        W73279   3.911  35.867   1.374
11826W        W73280   6.388   4.759  10.892
11827W        W73281   6.834  36.889  12.489
11828W        W73282   1.921  29.581  13.812
11829W        W73283  15.089  16.684  11.929
11830W        W73284  11.781  30.520  12.494
11831W        W73285  21.049  25.060   4.746
11832W        W73286  36.895   3.857   4.155
11833W        W73287  33.064   4.404   3.251
11834W        W73288   8.330  15.756   0.928
11835W        W73289  28.627  41.343   2.791
11836W        W73290  31.502  31.125  13.396
11837W        W73291  29.562   8.290   0.866
11838W        W73292  18.728  34.495   2.901
11839W        W73293   8.762  20.580  11.074
11840W        W73294  16.216  23.500  10.561
11841W        W73295  25.502  26.457  13.993
11842W        W73296  44.476  40.981   1.298
11843W        W73297  41.456  21.209   2.788
11844W        W73298  26.123   1.463   2.190
11845W        W73299   1.926  16.731  10.932
11846W        W73300  24.723  29.505   2.900
11847W        W73301   9.223  11.780   1.332
11848W        W73302  12.152   1.390  13.466
11849W        W73303   1.470   2.787  13.959
11850W        W73304  22.566  29.012  12.449
11851W        W73305  34.914  20.712  14.932
11852W        W73306  14.707  43.461   2.264
11853W        W73307  29.050   6.344   2.305
11854W        W73308  35.993  22.584   5.122
11855W        W73309  25.505   1.860   5.242
11856W        W73310  33.007  40.513  12.023
11857W        W73311  16.186  17.148   2.810
11858W        W73312  14.188   8.173  11.113
11859W        W73313  30.592   2.349   3.334
11860W        W73314  33.577  25.674  10.008
11861W        W73315  34.089  43.994  12.520
11862W        W73316  43.824  19.147   0.357
11863W        W73317  16.659   4.742   0.929
11864W        W73318  31.932  35.872   1.799
11865W        W73319  29.509  31.597  11.901
11866W        W73320   8.887  27.950  14.887
11867W        W73321   8.361   3.354   3.692
11868W        W73322  23.016  35.502  11.128
11869W        W73323   0.809  26.979  11.117
11870W        W73324   2.411  24.109   0.296
11871W        W73325  19.758  13.264   1.788
11872W        W73326   1.937   1.374   4.324
11873W        W73327   8.299   3.381   1.220
11874W        W73328  37.069  10.788   1.322
11875W        W73329  40.857  29.011  14.781
11876W        W73330  42.432  36.421  10.994
11877W        W73331   2.720  12.740  10.628
11878W        W73332  36.842   6.209   1.818
11879W        W73333  39.966  32.399  14.291
11880W        W73334  14.244  17.148  10.544
11881W        W73335  42.984   8.182   3.262
11882W        W73336  29.174  42.394  12.956
11883W        W73337  26.680  15.273   3.205
11884W        W73338  39.966   9.268   3.212
11885W        W73339  43.988  42.954   1.778
11886W        W73340   0.817  40.503   0.323
11887W        W73341  24.567  16.696   4.695
11888W        W73342  23.184  30.593   0.425
11889W        W73343   5.281  11.853   4.142
11890W        W73344  24.496  36.536  10.567
11891W        W73345  40.954  16.680  11.535
11892W        W73346  10.241  17.076  14.460
11893W        W73347  33.071  33.019  12.368
11894W        W73348   5.687  20.252   3.775
11895W        W73349  29.995  16.205   3.827
11896W        W73350  12.196   7.325  12.850
11897W        W73351  36.088  28.162   3.183
11898W        W73352  26.085  43.888  13.311
11899W        W73353   7.769  10.166   0.308
11900W        W73354  41.434  32.476   0.962
11901W        W73355  34.011  43.393   0.336
11902W        W73356  12.271  41.340  14.332
11903W        W73357   9.363  36.400  14.951
11904W        W73358  42.419  44.777   3.824
11905W        W73359  21.550  36.846   0.748
11906W        W73360  10.653  24.171   1.696
11907W        W73361   4.738  38.386   9.925
11908W        W73362  33.011  35.406  11.436
11909W        W73363  30.140  35.460  11.571
11910W        W73364  17.773   8.240  13.814
11911W        W73365  44.872  34.991   3.150
11912W        W73366  24.672   2.333  10.036
11913W        W73367  35.998  23.678   1.870
11914W        W73368  39.063   4.805   2.200
11915W        W73369  24.029  31.613   4.168
11916W        W73370   7.720  14.169  10.968
11917W        W73371  31.624  41.373  11.567
11918W        W73372  23.598  33.993   1.220
11919W        W73373  23.100  21.031  14.785
11920W        W73374  42.775  14.613  12.434
11921W        W73375  18.247  30.943  14.871
11922W        W73376   4.795   1.332   3.270
11923W        W73377  27.542  30.076   3.235
11924W        W73378  38.861   7.839   1.300
11925W        W73379  20.274  17.236  11.945
11926W        W73380  30.146  21.123  13.349
11927W        W73381  37.857  41.422  13.964
11928W        W73382   1.839  22.729  11.958
11929W        W73383  24.014  11.222  11.092
11930W        W73384  13.604  23.681   4.659
11931W        W73385  23.497  15.786   4.659
11932W        W73386   3.875  35.409  10.542
11933W        W73387  33.972  24.643  12.993
11934W        W73388  26.164   8.893   0.839
11935W        W73389  14.239   2.736  11.856
11936W        W73390   9.336  19.654   2.833
11937W        W73391  33.993  10.146  10.463
11938W        W73392   1.359  41.446   0.741
11939W        W73393  16.572  10.366  13.858
11940W        W73394  40.867   0.463  14.770
11941W        W73395  28.167  40.930  10.995
11942W        W73396  19.130  10.381  12.350
11943W        W73397  29.626   8.765   3.247
11944W        W73398   2.230  42.842  11.982
11945W        W73399  30.978  14.641   0.855
11946W        W73400  36.374  10.743  12.408
11947W        W73401  21.755  15.816  14.773
11948W        W73402  41.446  29.428  12.061
11949W        W73403  15.701  14.177  12.845
11950W        W73404  37.972   0.887   0.898
11951W        W73405   8.789  22.161  10.976
11952W        W73406  41.023   6.836  13.423
11953W        W73407  38.052   0.944   3.810
11954W        W73408  40.477  41.800   0.313
11955W        W73409   9.362  19.610   2.218
11956W        W73410  38.327  13.138   4.746
11957W        W73411   8.833  15.164   3.651
11958W        W73412  31.107   0.384   2.310
11959W        W73413  11.350  31.997  13.889
11960W        W73414  37.876  27.995   4.153
11961W        W73415   3.846  19.716  11.047
11962W        W73416  20.729  15.709  10.926
11963W        W73417   5.195  29.128   2.828
11964W        W73418  30.618  37.060   4.311
11965W        W73419  10.833  11.173  12.429
11966W        W73420  11.323  21.590  13.347
11967W        W73421  27.587  15.656  14.454
11968W        W73422  28.075   9.370   2.311
11969W        W73423   3.801  39.007  13.891
11970W        W73424   5.284  35.454   3.854
11971W        W73425   1.345   9.670   1.275
11972W        W73426  23.151   2.804  14.942
11973W        W73427  19.071  12.343   3.330
11974W        W73428  24.132  29.437   2.813
11975W        W73429  14.207  38.413   1.703
11976W        W73430  26.987  37.901   3.275
11977W        W73431  21.249  39.950   0.462
11978W        W73432  18.130  29.084   4.287
11979W        W73433  20.214   2.948   0.944
11980W        W73434  24.620   7.693  10.072
11981W        W73435  25.598   0.803   1.325
11982W        W73436  28.658  17.083   3.340
11983W        W73437  12.834  32.036  13.922
11984W        W73438  42.297  11.265   1.276
11985W        W73439   0.362   0.873  14.436
11986W        W73440  20.585  28.627   4.819
11987W        W73441  10.692  11.281  13.354
11988W        W73442   0.742  30.000  13.479
11989W        W73443  44.955  23.205  12.537
11990W        W73444  29.127  29.640  12.433
11991W        W73445  17.121   0.409   1.697
11992W        W73446  22.195  12.686  14.819
11993W        W73447  21.662  42.523  14.929
11994W        W73448   1.438  32.942  10.465
11995W        W73449  32.121  13.335  14.354
11996W        W73450   2.393  39.026   4.134
11997W        W73451  39.460   3.238   2.825
11998W        W73452  40.545  28.665   3.204
11999W        W73453   7.883   2.265  10.965
12000W        W73454  36.043  42.024  14.010
12001W        W73455  16.117  10.373   1.434
12002W        W73456  14.126  12.313   1.449
12003W        W73457  16.741   6.329   2.740
12004W        W73458  16.302  26.017  13.960
12005W        W73459  13.196  21.708   1.261
12006W        W73460  36.550  30.021  11.106
12007W        W73461  25.069  13.214  13.479
12008W        W73462  29.465   4.925  10.160
12009W        W73463  21.562   2.886  11.460
12010W        W73464  22.591  44.892   4.160
12011W        W73465  36.047  25.508  13.943
12012W        W73466  22.107   7.685  12.079
12013W        W73467   8.784  30.966  12.022
12014W        W73468   0.744  32.517   1.422
12015W        W73469   1.330  10.250  13.391
12016W        W73470  24.492  14.786  14.928
12017W        W73471  12.282  14.157   2.733
12018W        W73472   8.740  13.343   3.237
12019W        W73473  17.237  34.114  14.810
12020W        W73474  16.137   0.472  13.544
12021W        W73475  26.114  35.480  12.437
12022W        W73476  11.632  10.205  11.538
12023W        W73477  36.415   4.825   1.714
12024W        W73478  34.396   7.403   1.214
12025W        W73479  16.769  41.939  13.345
12026W        W73480   3.296   4.444   1.891
12027W        W73481  25.504  37.011   4.194
12028W        W73482  37.365  29.595   0.441
12029W        W73483  18.128  12.788   0.484
12030W        W73484  16.226   7.804  14.779
12031W        W73485  34.395  13.121   0.397
12032W        W73486   4.942  39.525  14.356
12033W        W73487  13.845  10.246   3.336
12034W        W73488  24.112  32.410  14.001
12035W        W73489  42.804   0.866  10.488
12036W        W73490  36.481  32.967  12.095
12037W        W73491   5.201  36.377  12.034
12038W        W73492  26.564   9.359   0.277
12039W        W73493   2.963  28.016  11.047
12040W        W73494  18.091  17.767   3.183
12041W        W73495  34.371   5.848   4.237
12042W        W73496  40.513  33.398   2.269
12043W        W73497  28.627   2.841   9.539
12044W        W73498  15.281   0.305   4.150
12045W        W73499   0.887  41.801  14.419
12046W        W73500   9.272  43.961  11.532
12047W        W73501  25.582  24.601  13.009
12048W        W73502  37.917  19.736  10.982
12049W        W73503  21.194   9.197   3.192
12050W        W73504  39.920  17.723   0.821
12051W        W73505  37.904  13.272   1.383
12052W        W73506   6.203  31.590   1.245
12053W        W73507   5.366  33.416   0.920
12054W        W73508  13.267  17.140  12.572
12055W        W73509  37.987  41.038   2.894
12056W        W73510  28.587  12.650  14.420
12057W        W73511  13.332  42.461  11.876
12058W        W73512  32.034  42.383  12.882
12059W        W73513   9.211   7.875  12.570
12060W        W73514  24.533  27.055  14.803
12061W        W73515   4.765  41.940  13.026
12062W        W73516  33.490  29.452  14.435
12063W        W73517   8.365  31.064   5.233
12064W        W73518  41.333  24.102   0.749
12065W        W73519  25.133  15.282   3.771
12066W        W73520  12.699  24.712   1.324
12067W        W73521  19.769  38.464  13.433
12068W        W73522  13.681  25.056  11.050
12069W        W73523  42.792  31.489  14.763
12070W        W73524  17.755  36.550   2.244
12071W        W73525   1.392  32.587  10.549
12072W        W73526  14.633  17.259  13.999
12073W        W73527  21.698  13.634   1.385
12074W        W73528  10.792  26.481   4.166
12075W        W73529  20.671  29.083   1.287
12076W        W73530  44.776  13.338   1.828
12077W        W73531  44.450  28.113   0.946
12078W        W73532  41.023  16.246   1.296
12079W        W73533  42.470  27.520  14.932
12080W        W73534  18.091  10.720   0.860
12081W        W73535  33.898  15.290  10.510
12082W        W73536   6.693  35.066   2.403
12083W        W73537  10.326  24.703  14.513
12084W        W73538   1.387  14.263  13.398
12085W        W73539   2.387  37.563   0.365
12086W        W73540   3.807  44.875  14.391
12087W        W73541   5.851  34.391  13.860
12088W        W73542  27.064  26.076  12.497
12089W        W73543   6.882  15.186  11.993
12090W        W73544  37.360  21.205   2.255
12091W        W73545  18.236   7.683   4.283
12092W        W73546  31.475  14.624  10.449
12093W        W73547  10.653  35.391   0.950
12094W        W73548  36.356  29.071   2.736
12095W        W73549  33.397  33.617   1.385
12096W        W73550  12.140   2.790   4.726
12097W        W73551  44.893  43.894  13.928
12098W        W73552  21.585  38.072   1.750
12099W        W73553  22.099  20.769   3.647
12100W        W73554  39.437  22.712   2.317
12101W        W73555   5.424   9.859   0.831
12102W        W73556  20.222  28.493   1.717
12103W        W73557   0.945  10.640   2.250
12104W        W73558  28.666   9.873  14.329
12105W        W73559  39.933  21.114  10.408
12106W        W73560  31.102   9.371   0.948
12107W        W73561   6.425  12.798  14.414
12108W        W73562  23.991   8.229  13.993
12109W        W73563  40.461  21.227  10.023
12110W        W73564  22.544  40.925   1.739
12111W        W73565  10.186  20.668  13.064
12112W        W73566   7.310  26.980   0.455
12113W        W73567  39.504  21.569   0.466
12114W        W73568  34.551  31.485   1.249
12115W        W73569  42.417  12.301  14.956
12116W        W73570  39.894  21.164  12.052
12117W        W73571   0.270  37.410  11.871
12118W        W73572  11.804  33.122   3.738
12119W        W73573  30.454  28.184   4.211
12120W        W73574  40.542  28.599   4.298
12121W        W73575  13.734  24.593  13.811
12122W        W73576  38.372  24.157   0.261
12123W        W73577   7.754  11.623   1.807
12124W        W73578  20.533   9.768  11.557
12125W        W73579  35.498  32.080   1.786
12126W        W73580   8.823  22.613   5.230
12127W        W73581  30.076  42.805   3.689
12128W        W73582  37.046  34.500  10.965
12129W        W73583  38.481   4.260   1.812
12130W        W73584  43.912  26.481   2.413
12131W        W73585  25.036   9.855   0.847
12132W        W73586  42.427  31.118   0.330
12133W        W73587  24.685   1.427  14.443
12134W        W73588  40.857   0.848  14.832
12135W        W73589  15.176  33.532   3.706
12136W        W73590  41.370  30.637   1.285
12137W        W73591  35.045  43.934  11.419
12138W        W73592   0.392   0.276  12.450
12139W        W73593  27.057  35.413  10.561
12140W        W73594  17.751  42.013   2.250
12141W        W73595  33.996  34.050  10.999
12142W        W73596  33.913  38.460   4.697
12143W        W73597  43.290  41.520  14.394
12144W        W73598  25.046  15.322  13.540
12145W        W73599  40.022  20.633   0.748
12146W        W73600  32.910  19.722  13.002
12147W        W73601   5.704  24.486   2.895
12148W        W73602  21.532  33.522  12.857
12149W        W73603  24.103   7.284  12.398
12150W        W73604  32.029   4.922  12.932
12151W        W73605  31.021  43.846   2.278
12152W        W73606  18.081  44.422  10.891
12153W        W73607  16.172  24.124  11.963
12154W        W73608  10.741  12.240  13.454
12155W        W73609  23.711  19.155   3.683
12156W        W73610  14.162  40.905  13.835
12157W        W73611  24.074   5.860  12.544
12158W        W73612  42.435   8.887   1.450
12159W        W73613  24.095  14.268   3.366
12160W        W73614  24.196  42.384  13.027
12161W        W73615  39.479  25.553  13.830
12162W        W73616  40.474   9.370   3.830
12163W        W73617  32.973   2.749   1.235
12164W        W73618  43.905  24.134   4.190
12165W        W73619  23.139  24.022  14.918
12166W        W73620  25.511  10.811  11.402
12167W        W73621  27.609  31.953   5.251
12168W        W73622   5.202  10.634   2.790
12169W        W73623  12.782   4.304  14.775
12170W        W73624  18.096   1.917   0.931
12171W        W73625  22.162  10.726   2.270
12172W        W73626  22.630  11.236  11.508
12173W        W73627  12.675  17.074  13.517
12174W        W73628  22.033  23.514   3.157
12175W        W73629   7.692  27.627  13.031
12176W        W73630  12.835  37.859   2.754
12177W        W73631   4.324   3.383   2.783
12178W        W73632  12.629  36.051  13.513
12179W        W73633  39.817   2.386   3.795
12180W        W73634  27.994  43.377  12.482
12181W        W73635  33.484  36.075  11.870
12182W        W73636  27.983  28.633   4.276
12183W        W73637  11.269  43.307   2.718
12184W        W73638  35.882  35.559   4.768
12185W        W73639   0.494  16.644   0.343
12186W        W73640  19.746  33.558  10.938
12187W        W73641  10.680  23.159  14.963
12188W        W73642  40.901   3.766  10.888
12189W        W73643  15.084   7.269   4.280
12190W        W73644  11.670  30.471   1.870
12191W        W73645   5.286  41.493   4.336
12192W        W73646   9.667   7.305   3.159
12193W        W73647   5.772  40.340  13.883
12194W        W73648  13.768   8.301   4.698
12195W        W73649  14.779  24.720  10.948
12196W        W73650  34.596  21.572   4.692
12197W        W73651   2.419   1.941  13.495
12198W        W73652  35.854  12.699  11.501
12199W        W73653  19.682  26.192   0.265
12200W        W73654  14.258  32.924   1.786
12201W        W73655  23.654  37.423   3.191
12202W        W73656  26.006  27.071  12.425
12203W        W73657  26.619  31.992   2.898
12204W        W73658  10.260  24.041  13.424
12205W        W73659  22.211  28.118  11.546
12206W        W73660  37.541  14.687   2.789
12207W        W73661  22.143  22.637   1.824
12208W        W73662  39.985   6.779  14.375
12209W        W73663  25.680  16.795   1.847
12210W        W73664  17.633  20.611   1.922
12211W        W73665  35.454  31.096  12.984
12212W        W73666  23.080  18.601   3.339
12213W        W73667  25.984   9.199   3.258
12214W        W73668  44.949  26.664   2.834
12215W        W73669  36.073  14.305   4.345
12216W        W73670   6.757  16.109  14.820
12217W        W73671  31.095   8.193   4.602
12218W        W73672  38.425  25.041  11.487
12219W        W73673   2.820  15.672  13.025
12220W        W73674   7.834   2.333  13.415
12221W        W73675  24.210  11.759  13.959
12222W        W73676  17.180  33.116  11.003
12223W        W73677  20.211   4.349  11.521
12224W        W73678  10.173  40.477  14.383
12225W        W73679  21.169  22.231  13.427
12226W        W73680  15.671   1.962   1.862
12227W        W73681  42.890   6.890   2.375
12228W        W73682   4.700  13.744   1.218
12229W        W73683  42.286  43.935  11.382
12230W        W73684   3.751  39.473  12.504
12231W        W73685  39.424  18.674   1.785
12232W        W73686  17.126  37.367   2.213
12233W        W73687  18.285  13.307   4.308
12234W        W73688  16.795   0.943  13.540
12235W        W73689   7.182   0.393  11.597
12236W        W73690   4.728  26.543   0.280
12237W        W73691  36.059  28.072  13.387
12238W        W73692  28.004  11.695   3.865
12239W        W73693  20.673  28.660  13.989
12240W        W73694  31.962   9.194  13.887
12241W        W73695  19.225  38.524  11.081
12242W        W73696  15.651  26.183   4.651
12243W        W73697  28.061  15.222  11.036
12244W        W73698  31.103   8.397   1.794
12245W        W73699  35.060  10.743   5.173
12246W        W73700  40.819  24.993   4.250
12247W        W73701  21.516  14.266   2.752
12248W        W73702  27.462  43.409  12.384
12249W        W73703  18.283   4.715   4.815
12250W        W73704   1.969   5.767  11.576
12251W        W73705  22.165  21.667  10.507
12252W        W73706  13.220  25.112   1.930
12253W        W73707  28.952  13.282  12.886
12254W        W73708  21.511  21.573   1.266
12255W        W73709  39.455  10.878   1.741
12256W        W73710  15.811  35.987  11.047
12257W        W73711  38.354  28.112  13.952
12258W        W73712   2.405  39.524  14.017
12259W        W73713  31.510   3.306  10.506
12260W        W73714  24.222  37.409   0.465
12261W        W73715   0.775  17.622   0.797
12262W        W73716  13.770  30.136  14.323
12263W        W73717   3.289   0.867   0.452
12264W        W73718  16.293  12.284  11.107
12265W        W73719  27.081  19.071  14.783
12266W        W73720  17.629  14.740  14.837
12267W        W73721  14.208   8.389   1.783
12268W        W73722  24.680  37.048   2.417
12269W        W73723  29.637  25.110   3.327
12270W        W73724  32.002  41.800   2.374
12271W        W73725  14.734   5.209  14.469
12272W        W73726  44.343  29.560  12.908
12273W        W73727  31.612  36.432   0.923
12274W        W73728  14.142  41.455  11.481
12275W        W73729   7.212  30.973   3.716
12276W        W73730  32.068   2.782  10.634
12277W        W73731  26.159  35.385  13.519
12278W        W73732   2.432   1.395   1.389
12279W        W73733  35.522  41.491   3.707
12280W        W73734  29.516   7.238   0.873
12281W        W73735  29.527  36.064  13.055
12282W        W73736   6.771  29.441   0.784
12283W        W73737  14.803  32.446   4.144
12284W        W73738  31.037   4.836  10.148
12285W        W73739  37.870  16.657   2.696
12286W        W73740  33.098  36.434  13.449
12287W        W73741   9.301  39.530  14.876
12288W        W73742  30.647  43.423   2.762
12289W        W73743   3.812  23.150  14.312
12290W        W73744  16.743  27.110  10.614
12291W        W73745  43.850  42.479   2.884
12292W        W73746  41.810  42.422   1.292
12293W        W73747  21.578  33.972  13.354
12294W        W73748  23.223  21.159   0.953
12295W        W73749  42.397  34.596  13.846
12296W        W73750  23.489   4.397  11.411
12297W        W73751  36.851  17.656   4.769
12298W        W73752  29.137   5.747   2.846
12299W        W73753  39.898  39.529   1.760
12300W        W73754  19.071  32.886   0.423
12301W        W73755   2.231  40.001  10.608
12302W        W73756   2.390   9.690   0.798
12303W        W73757  21.239  12.814   3.338
12304W        W73758   8.307  12.283   0.366
12305W        W73759  43.480  18.757  11.513
12306W        W73760  30.917   9.293   1.418
12307W        W73761   7.203  11.284   4.743
12308W        W73762  19.221  42.985  11.912
12309W        W73763  14.646  11.629   2.685
12310W        W73764  20.268  14.711   3.674
12311W        W73765   1.302  19.643   4.160
12312W        W73766   9.187  19.587  13.010
12313W        W73767  31.151  44.476  10.044
12314W        W73768  43.305   0.451   1.705
12315W        W73769  20.571  39.023  10.592
12316W        W73770   8.176  26.167  11.562
12317W        W73771   5.703  17.090  11.103
12318W        W73772  12.635  43.933   0.909
12319W        W73773   9.739  26.539   4.735
12320W        W73774  10.198  14.754  11.978
12321W        W73775   3.729  35.006  11.867
12322W        W73776  30.041  13.136  12.091
12323W        W73777  43.778   9.387  11.875
12324W        W73778  19.763  41.909   5.319
12325W        W73779   5.841  31.132   3.658
12326W        W73780  43.415  32.611  11.856
12327W        W73781  37.532   7.183  12.860
12328W        W73782   8.370  15.649   5.205
12329W        W73783   3.788  40.899  10.927
12330W        W73784  14.236  34.421   4.776
12331W        W73785  24.980  41.429   0.846
12332W        W73786   7.740  16.774   3.785
12333W        W73787  27.161  16.660  10.611
12334W        W73788  15.107  44.924  13.445
12335W        W73789   2.371   6.680  10.483
12336W        W73790  15.605  20.271   2.714
12337W        W73791   8.295  34.551   3.181
12338W        W73792  28.073  31.645  11.554
12339W        W73793  23.220  16.591  14.459
12340W        W73794  13.190  23.533   2.806
12341W        W73795   1.975  31.942   2.242
12342W        W73796  41.791  31.490  12.032
12343W        W73797  40.426  34.013   2.378
12344W        W73798   3.837  41.833   1.713
12345W        W73799  37.839   4.748   2.845
12346W        W73800  36.388  40.995   1.916
12347W        W73801  27.990  37.845   4.794
12348W        W73802  28.472  18.707  13.315
12349W        W73803  30.599  37.354   3.711
12350W        W73804  23.630  41.389  11.987
12351W        W73805  38.951   8.774   5.206
12352W        W73806  44.905   5.934  13.897
12353W        W73807   2.252   8.185  13.852
12354W        W73808  20.741  13.334  13.923
12355W        W73809  44.359  36.881   2.679
12356W        W73810   4.243  33.124  12.081
12357W        W73811  11.804   5.928  11.505
12358W        W73812  36.362   8.296   1.361
12359W        W73813  16.746  18.665  13.330
12360W        W73814  31.504  21.212  12.892
12361W        W73815  29.446  27.630  10.584
12362W        W73816  44.852  43.823   2.240
12363W        W73817  14.703  35.942  12.907
12364W        W73818  31.448   8.327  11.476
12365W        W73819  19.625  23.044  10.522
12366W        W73820  27.079  37.919   4.770
12367W        W73821  28.173   4.915   1.897
12368W        W73822  10.182  30.915  11.076
12369W        W73823  41.895  27.686  13.334
12370W        W73824  39.971  25.121  13.538
12371W        W73825  12.116  35.405  13.422
12372W        W73826   9.366  15.224   4.803
12373W        W73827   5.370   2.341   3.167
12374W        W73828  44.312  16.276   3.775
12375W        W73829  22.073  37.477  12.876
12376W        W73830  30.482  22.736  12.856
12377W        W73831  22.008   5.220  11.949
12378W        W73832  27.562  11.291   5.660
12379W        W73833  37.982  33.892   0.477
12380W        W73834  16.573  20.180  12.555
12381W        W73835  20.247  42.457   3.375
12382W        W73836  20.173   5.921   1.740
12383W        W73837  14.324  31.568  10.424
12384W        W73838  44.000   4.714  14.027
12385W        W73839  20.201  43.834  13.987
12386W        W73840   9.761  28.954   0.852
12387W        W73841  10.830  37.578   3.652
12388W        W73842   1.352  15.677   0.406
12389W        W73843  41.000  12.809  14.950
12390W        W73844  33.052  26.472   4.690
12391W        W73845  25.175  25.693   3.166
12392W        W73846  36.523  37.488   3.632
12393W        W73847  23.495  34.096  10.408
12394W        W73848  25.984  41.984  13.409
12395W        W73849  13.136   3.221  14.899
12396W        W73850  17.570  23.134   4.672
12397W        W73851  34.940   5.346  14.514
12398W        W73852  30.082  29.604   3.278
12399W        W73853  38.325  33.085   1.213
12400W        W73854  44.287  13.643  13.963
12401W        W73855   7.853   2.954  11.500
12402W        W73856  15.251   7.754   0.301
12403W        W73857   6.780  21.130   2.319
12404W        W73858   4.261  30.518  12.488
12405W        W73859  25.689  21.060  13.040
12406W        W73860   8.710  16.734   4.270
12407W        W73861  35.052  16.116  13.535
12408W        W73862  13.688  30.547   4.767
12409W        W73863   9.346  39.467   3.847
12410W        W73864  26.006  34.610   4.750
12411W        W73865  22.056  39.406   1.300
12412W        W73866  23.078  19.165   4.345
12413W        W73867   5.370  18.202   3.835
12414W        W73868  31.623  13.783  12.987
12415W        W73869  19.183   0.783  11.901
12416W        W73870  33.934  42.002  10.621
12417W        W73871  26.622  34.445   3.685
12418W        W73872  31.510  24.579  13.794
12419W        W73873  23.023  35.933  11.394
12420W        W73874  18.248  26.556   2.399
12421W        W73875  24.575  13.625  13.877
12422W        W73876   0.250  19.704  12.378
12423W        W73877  17.775  37.957  13.990
12424W        W73878   8.759  22.603   3.861
12425W        W73879  41.312  41.465   0.260
12426W        W73880  34.948   6.356  10.895
12427W        W73881  43.511  41.989  13.340
12428W        W73882  34.047  17.760   1.335
12429W        W73883  34.908   7.689   0.955
12430W        W73884  24.068  11.693  13.011
12431W        W73885  32.901  27.538  10.442
12432W        W73886  24.982  31.452   0.346
12433W        W73887  17.680  32.093   4.755
12434W        W73888  28.092   4.273   0.900
12435W        W73889  19.596  22.013   1.367
12436W        W73890  20.635  11.639   4.324
12437W        W73891  28.667   0.485  14.385
12438W        W73892   0.341  29.592  12.527
12439W        W73893  25.980  37.906  12.849
12440W        W73894  30.937  11.668   4.728
12441W        W73895  35.887  39.521   3.694
12442W        W73896  29.613   4.302   1.932
12443W        W73897  19.646  29.495  14.412
12444W        W73898  31.028  38.434   2.240
12445W        W73899  39.021  32.066  14.476
12446W        W73900   3.711   0.289  11.593
12447W        W73901  31.581  24.688  12.835
12448W        W73902  31.569  12.358  12.992
12449W        W73903   7.265  36.497  13.897
12450W        W73904  26.665  10.167   0.823
12451W        W73905  26.508  39.517  12.006
12452W        W73906   1.257   3.726   1.705
12453W        W73907  36.474  25.670   0.923
12454W        W73908  25.076  37.528  13.395
12455W        W73909  27.981   9.699  10.455
12456W        W73910  31.010   1.869   4.346
12457W        W73911  30.599  34.064  11.056
12458W        W73912  35.529  41.808  14.305
12459W        W73913   1.873  35.918  12.980
12460W        W73914   3.941  38.472  10.428
12461W        W73915  18.186  22.694  10.507
12462W        W73916  10.750  22.038   0.848
12463W        W73917  12.175  22.593  11.462
12464W        W73918  10.377  25.181   0.429
12465W        W73919  44.762  16.129   1.240
12466W        W73920   7.677  33.062  12.045
12467W        W73921  11.194  36.939  12.093
12468W        W73922  34.033  26.982   2.833
12469W        W73923   9.829   2.268  14.321
12470W        W73924  22.242  13.344  14.898
12471W        W73925  16.797   8.856  14.408
12472W        W73926  28.531  16.627   0.319
12473W        W73927   8.355  35.881  10.445
12474W        W73928  43.396  43.764   0.462
12475W        W73929   9.237  20.611   4.679
12476W        W73930  37.874  30.109   3.347
12477W        W73931  42.360   7.900  13.987
12478W        W73932  40.799  23.654   2.669
12479W        W73933  11.734  43.326  12.401
12480W        W73934  29.072  27.445   2.271
12481W        W73935  43.283  16.300  11.901
12482W        W73936   6.416  26.131   1.252
12483W        W73937  13.718  11.248   4.220
12484W        W73938  31.464   3.841   3.637
12485W        W73939  31.979  14.621  12.927
12486W        W73940  15.091  25.039  10.582
12487W        W73941  44.945  31.905  13.806
12488W        W73942  39.427  30.926  10.431
12489W        W73943  27.074   9.861  13.319
12490W        W73944  29.490   8.761  10.521
12491W        W73945  42.027  17.129  13.802
12492W        W73946   3.228  29.605   0.832
12493W        W73947  14.790  39.330   1.229
12494W        W73948  36.563  19.039   2.346
12495W        W73949  26.060  22.587   3.643
12496W        W73950  25.218  22.126   2.710
12497W        W73951  42.859  36.966   4.829
12498W        W73952  38.409   0.277  14.334
12499W        W73953  32.098   1.250   5.131
12500W        W73954  15.225  31.915  13.860
12501W        W73955  40.930  37.919   3.754
12502W        W73956  20.059  35.587   1.900
12503W        W73957   3.942  36.414   4.834
12504W        W73958  22.037  15.173  12.472
12505W        W73959  29.491   0.946  13.992
12506W        W73960  33.595  19.049  11.990
12507W        W73961  19.675  44.351  10.432
12508W        W73962   3.276  40.927   3.204
12509W        W73963  20.129   6.182   3.668
12510W        W73964  44.265  30.537   2.190
12511W        W73965   0.794  42.989   4.611
12512W        W73966  19.744  42.442   2.186
12513W        W73967  35.899  44.999   0.870
12514W        W73968   7.879   6.291  13.875
12515W        W73969  41.871  22.640  11.023
12516W        W73970  15.798   6.376   3.818
12517W        W73971  32.073  11.781  11.010
12518W        W73972  11.145  44.996  14.505
12519W        W73973  28.553  15.750  10.068
12520W        W73974  34.055  30.015   4.113
12521W        W73975  20.146   4.344   3.226
12522W        W73976  26.486  18.176  13.347
12523W        W73977   2.959  23.026  11.032
12524W        W73978  11.625   5.884   2.898
12525W        W73979  13.130  40.367  11.445
12526W        W73980   9.664  24.579   0.758
12527W        W73981   9.846  34.978  12.075
12528W        W73982  41.530  34.982   1.916
12529W        W73983  32.017  24.179  11.122
12530W        W73984  41.505  33.131  13.421
12531W        W73985  44.374  33.874  14.938
12532W        W73986  16.778  40.452   4.232
12533W        W73987  16.626  40.422   3.319
12534W        W73988  26.521  30.946   4.795
12535W        W73989  35.550  12.152  11.528
12536W        W73990  10.292  28.635  11.082
12537W        W73991   4.273   2.281  11.993
12538W        W73992  13.617  22.649  10.895
12539W        W73993  32.539  19.583  12.993
12540W        W73994  29.979  34.565   3.173
12541W        W73995  15.264  22.720  10.911
12542W        W73996  31.964   9.183   4.633
12543W        W73997   9.862  10.244   3.811
12544W        W73998  18.753  27.464   3.825
12545W        W73999  11.258  11.329   0.429
12546W        W74000  21.239  24.588   4.793
12547W        W74001  32.921  31.145   0.460
12548W        W74002   2.396   9.276   0.779
12549W        W74003  38.877  23.094  14.910
12550W        W74004   8.790   8.274  10.610
12551W        W74005  37.517   1.935   0.727
12552W        W74006  16.103  13.107   5.161
12553W        W74007  23.707   7.171   4.222
12554W        W74008  17.064  41.512   3.713
12555W        W74009  31.930  30.118  13.864
12556W        W74010   3.793  37.076  14.885
12557W        W74011  17.754  34.061  11.504
12558W        W74012  31.593  41.924  11.581
12559W        W74013  28.154  38.568  14.030
12560W        W74014  43.903   0.348  12.491
12561W        W74015  30.961  38.975   0.937
12562W        W74016  22.692  23.582  13.360
12563W        W74017  27.977   4.320  14.277
12564W        W74018  16.263   1.368   4.193
12565W        W74019  32.103  16.299  12.060
12566W        W74020  17.579   3.758   1.894
12567W        W74021  10.165  19.126  13.898
12568W        W74022  25.513  44.805  11.483
12569W        W74023  20.650   9.829  12.450
12570W        W74024  23.647  20.243   2.789
12571W        W74025  19.539  37.055  13.376
12572W        W74026  38.950  12.292  14.289
12573W        W74027  33.580  22.122  11.862
12574W        W74028  11.789  29.460   3.174
12575W        W74029  22.139  20.243  11.875
12576W        W74030   8.239  41.911  12.459
12577W        W74031  10.138  37.446   5.277
12578W        W74032  41.517   6.822   3.309
12579W        W74033   8.183  37.904   3.303
12580W        W74034  40.888  11.741  14.946
12581W        W74035   4.288   7.320  11.882
12582W        W74036  24.627   4.331   3.762
12583W        W74037  39.427  37.975  10.914
12584W        W74038  23.574  27.455  11.463
12585W        W74039  34.538  29.445  13.442
12586W        W74040  12.275  29.578  10.570
12587W        W74041   6.905  39.941  14.470
12588W        W74042  14.096  34.008   1.391
12589W        W74043   6.343  15.759  14.428
12590W        W74044  44.274  11.138  11.992
12591W        W74045  35.956   6.904  10.644
12592W        W74046  12.639  10.719  11.441
12593W        W74047  39.878  36.093  14.915
12594W        W74048  36.088  22.604  11.997
12595W        W74049   2.272  41.299  11.885
12596W        W74050  13.118  22.058   0.380
12597W        W74051  21.680   6.306   5.629
12598W        W74052  12.244  32.632  13.327
12599W        W74053  41.824  14.785  13.905
12600W        W74054  36.999  19.070   1.867
12601W        W74055  39.837  37.514  13.452
12602W        W74056  28.136   0.359   3.288
12603W        W74057  29.655  44.319   2.685
12604W        W74058   9.152   8.708   4.127
12605W        W74059  25.002  21.224  11.452
12606W        W74060   3.226  40.540  13.960
12607W        W74061  44.861  40.915  14.505
12608W        W74062   8.208   1.961  10.421
12609W        W74063  34.492  26.102   3.258
12610W        W74064   7.219   9.248  14.403
12611W        W74065  16.716  30.433  13.016
12612W        W74066  29.636  23.179   0.944
12613W        W74067  24.493   7.776  14.019
12614W        W74068  40.805  23.043   4.242
12615W        W74069  28.004  34.881  12.499
12616W        W74070  29.174  18.293   3.864
12617W        W74071  26.200  22.177  11.903
12618W        W74072  38.944   7.716  13.472
12619W        W74073   2.430  39.476  10.471
12620W        W74074   5.218   2.456  13.374
12621W        W74075  19.537   7.171  10.428
12622W        W74076  35.394  15.816  13.423
12623W        W74077  29.638  13.793   1.265
12624W        W74078  12.842   6.387  14.371
12625W        W74079  13.110  21.603  12.983
12626W        W74080  38.036  40.804   2.392
12627W        W74081  28.161  37.943   1.391
12628W        W74082  25.577  35.065  10.519
12629W        W74083   3.316  18.217  10.014
12630W        W74084  13.251  24.648   4.655
12631W        W74085   8.300  33.479   4.268
12632W        W74086  23.153   7.809  14.312
12633W        W74087  23.009  11.845  14.373
12634W        W74088  32.074   8.744   0.837
12635W        W74089  22.113  13.163   1.411
12636W        W74090  35.470  29.463   1.709
12637W        W74091  39.829   7.785  12.403
12638W        W74092   8.291  35.009  13.383
12639W        W74093  36.500  21.653   0.870
12640W        W74094   5.915  25.217   3.330
12641W        W74095   1.893  10.219  12.872
12642W        W74096  37.934  15.644   1.434
12643W        W74097  41.950  15.724   3.358
12644W        W74098  20.574  24.197  11.403
12645W        W74099  42.448  30.567   0.895
12646W        W74100  16.767  21.129  11.983
12647W        W74101   7.209   0.396  13.883
12648W        W74102  12.357  18.568  13.451
12649W        W74103  36.970  30.574  14.323
12650W        W74104  29.666  22.738  10.552
12651W        W74105  14.213  15.239  12.495
12652W        W74106  32.573  33.383   3.278
12653W        W74107   0.855   0.366  11.456
12654W        W74108  23.096  24.558  12.553
12655W        W74109  28.167  11.188   0.745
12656W        W74110  36.008  12.153   4.245
12657W        W74111  34.977  21.623  13.434
12658W        W74112  38.429   0.951   3.761
12659W        W74113   6.765   9.844   3.318
12660W        W74114  24.105  12.665  10.470
12661W        W74115  32.914  40.408   3.253
12662W        W74116  34.522  37.887  13.026
12663W        W74117  11.742   7.822  12.994
12664W        W74118  41.446   9.764   4.745
12665W        W74119  26.594  38.402   0.837
12666W        W74120  18.106  15.789   3.757
12667W        W74121  37.508   4.357   0.301
12668W        W74122   4.446  26.594  12.028
12669W        W74123  21.209  10.149   0.763
12670W        W74124  38.994  17.627  11.409
12671W        W74125  39.840  32.993   3.793
12672W        W74126  33.595   8.894  11.566
12673W        W74127  25.155   0.758  13.955
12674W        W74128  44.808  13.817   4.170
12675W        W74129  39.334  36.435  13.026
12676W        W74130   8.170  40.995  11.552
12677W        W74131  37.398  18.764  14.319
12678W        W74132  35.513  22.676  13.862
12679W        W74133  28.616  34.394   5.736
12680W        W74134  15.818  20.134   5.179
12681W        W74135  15.715  25.043  13.974
12682W        W74136  30.517  41.497  11.382
12683W        W74137  25.573  18.573  10.487
12684W        W74138  32.985  20.171  14.910
12685W        W74139  34.579  32.605   0.460
12686W        W74140  35.104  11.269   0.309
12687W        W74141  15.154  22.584  14.993
12688W        W74142  32.116  22.182   3.300
12689W        W74143  15.625  20.580   3.805
12690W        W74144  25.141  16.669   1.412
12691W        W74145  41.417  20.224   4.696
12692W        W74146   3.300   6.425   1.295
12693W        W74147  18.607  10.788   3.797
12694W        W74148  29.579  41.818  10.448
12695W        W74149  21.156  19.043  14.904
12696W        W74150   4.793   3.244  11.024
12697W        W74151   4.377   4.936   0.754
12698W        W74152  15.774  39.976   2.838
12699W        W74153  29.425   6.295  14.415
12700W        W74154  12.298  44.754  12.345
12701W        W74155   2.864  23.561   3.842
12702W        W74156  44.413  19.106  14.351
12703W        W74157  11.184   0.958   2.794
12704W        W74158  28.571  14.818  13.504
12705W        W74159  24.530  44.982   4.352
12706W        W74160   8.657  24.602  13.519
12707W        W74161  34.873  14.283   0.380
12708W        W74162  22.728  44.911   3.325
12709W        W74163  19.696  42.854   1.352
12710W        W74164   8.819   2.786   1.265
12711W        W74165  32.559  25.595  11.942
12712W        W74166  38.392  29.140  10.978
12713W        W74167  32.131  40.850  12.861
12714W        W74168   5.856  24.494  13.805
12715W        W74169  15.614  40.947  12.992
12716W        W74170  26.618  44.962  11.547
12717W        W74171  31.923  43.395   4.664
12718W        W74172  20.592  43.442   3.760
12719W        W74173  43.493   9.839   4.778
12720W        W74174   6.193   8.790   3.737
12721W        W74175  44.274  17.555   4.268
12722W        W74176  22.051  44.412  14.986
12723W        W74177  26.197  12.781   3.723
12724W        W74178  29.491  38.559  13.435
12725W        W74179  25.591  41.933   1.823
12726W        W74180  22.557  39.421   2.788
12727W        W74181  15.604  33.963   4.606
12728W        W74182  38.569  16.254   0.734
12729W        W74183  37.547  29.096   4.803
12730W        W74184  44.354  10.859   1.303
12731W        W74185  24.192  37.062  14.908
12732W        W74186  19.154  12.280   0.300
12733W        W74187  12.358   7.308  11.435
12734W        W74188  37.918  41.308  12.557
12735W        W74189  26.555  25.125   0.756
12736W        W74190  19.652  36.565   0.421
12737W        W74191   2.734  28.980   4.249
12738W        W74192  20.642  37.064   1.288
12739W        W74193  42.968  19.209  13.028
12740W        W74194  15.754  29.542  13.532
12741W        W74195  26.118  42.284  10.443
12742W        W74196  24.224  35.052  14.991
12743W        W74197  38.466   0.444   1.251
12744W        W74198  34.061  44.401   0.441
12745W        W74199  38.857   8.655  13.944
12746W        W74200  26.996  22.044  14.791
12747W        W74201  10.314   9.150  13.317
12748W        W74202  12.801  15.252   4.690
12749W        W74203  24.053   7.414   3.865
12750W        W74204  42.961  11.212  12.001
12751W        W74205  23.506  24.492   2.793
12752W        W74206  14.302   6.780   2.369
12753W        W74207  18.130  34.108   4.300
12754W        W74208   4.258  42.869  10.618
12755W        W74209  19.639  18.736   2.243
12756W        W74210  44.337  15.590  10.127
12757W        W74211  28.438   6.718   3.804
12758W        W74212  15.632  27.625  14.368
12759W        W74213  24.019  14.605   3.224
12760W        W74214   6.409  12.153   1.426
12761W        W74215  25.172  15.592  10.948
12762W        W74216  20.612   3.234   0.415
12763W        W74217  29.082  13.832   0.745
12764W        W74218  40.366   8.720   3.307
12765W        W74219  15.703  25.590  14.479
12766W        W74220   5.869   6.830  11.038
12767W        W74221   4.711  34.920  13.004
12768W        W74222  26.663  40.889  14.413
12769W        W74223  36.531   1.409   3.235
12770W        W74224  43.968  14.230  10.433
12771W        W74225  13.160  19.083   1.725
12772W        W74226  10.817  35.103   3.233
12773W        W74227   9.680  14.595  11.889
12774W        W74228   8.694  34.542   3.251
12775W        W74229  11.863   9.689  14.762
12776W        W74230  13.629  26.594  13.909
12777W        W74231  30.528  15.609  10.471
12778W        W74232   5.263   6.295   1.210
12779W        W74233  25.121  10.193   0.346
12780W        W74234  36.942  38.509  10.920
12781W        W74235  25.536  19.614  12.415
12782W        W74236  25.053  42.949  12.445
12783W        W74237  14.123  21.589  14.497
12784W        W74238   0.472  40.368  13.988
12785W        W74239  32.411  44.364  10.079
12786W        W74240  16.149  16.699   0.943
12787W        W74241   7.851   0.795   2.213
12788W        W74242  26.058  39.003   0.417
12789W        W74243  39.429  21.616   3.188
12790W        W74244  43.422   9.387   2.758
12791W        W74245  19.087   9.165   4.342
12792W        W74246  17.281  19.708   2.404
12793W        W74247  15.804  29.474  13.060
12794W        W74248  37.937  34.068  12.395
12795W        W74249  38.901  35.525  11.033
12796W        W74250   2.752  29.514   1.239
12797W        W74251  40.310  30.535  12.933
12798W        W74252  10.802  41.484   2.189
12799W        W74253  29.075  26.189   2.773
12800W        W74254  22.115  36.858   0.455
12801W        W74255  33.879  14.291  14.915
12802W        W74256  14.816  12.664   1.403
12803W        W74257  41.488  21.138  14.347
12804W        W74258  38.490  40.472  12.506
12805W        W74259  14.598   1.863   4.115
12806W        W74260  42.315  20.724  13.043
12807W        W74261  15.819  38.550  13.486
12808W        W74262  26.152  36.897   3.633
12809W        W74263  42.397  22.547   1.310
12810W        W74264   9.184  35.033   0.460
12811W        W74265  29.989   2.766   1.839
12812W        W74266  41.536  14.833   4.772
12813W        W74267  36.442   5.749  14.876
12814W        W74268  22.598  19.195   1.829
12815W        W74269   6.377  31.954  10.615
12816W        W74270  20.100  33.962  10.645
12817W        W74271  32.633  17.282  13.962
12818W        W74272  43.985  25.181   4.206
12819W        W74273  13.322  20.582  11.505
12820W        W74274  33.575   7.346  11.544
12821W        W74275  16.151  35.079  14.283
12822W        W74276   8.772  41.956  10.463
12823W        W74277   4.237   2.766   4.647
12824W        W74278   7.233  20.227   4.177
12825W        W74279  20.194  11.305   1.879
12826W        W74280   3.403  18.547   3.382
12827W        W74281  14.723  29.043  12.824
12828W        W74282  33.038   9.257   3.238
12829W        W74283  36.991  44.914   1.319
12830W        W74284   9.701   5.358  13.828
12831W        W74285  10.767  32.587  14.843
12832W        W74286  43.999  40.549   0.319
12833W        W74287  34.098  21.722   4.614
12834W        W74288  38.888   2.959   1.333
12835W        W74289   8.216  31.613   3.279
12836W        W74290   1.437  13.751  13.972
12837W        W74291  39.046  18.147   4.659
12838W        W74292  32.906   9.326   0.903
12839W        W74293  37.409  15.585  13.460
12840W        W74294  34.980  31.500  14.772
12841W        W74295  15.315   1.890   2.842
12842W        W74296   7.767  14.775  14.516
12843W        W74297  35.421   1.272   0.869
12844W        W74298  27.071   2.455   1.375
12845W        W74299   7.754  34.464  13.351
12846W        W74300  29.667  31.409  13.408
12847W        W74301   2.868  40.434  13.911
12848W        W74302  25.483  38.924  14.452
12849W        W74303  42.031  22.593   2.403
12850W        W74304   5.913  36.010   2.212
12851W        W74305  42.315  22.051  13.014
12852W        W74306   2.236  44.342   4.192
12853W        W74307  22.128  23.680   1.846
12854W        W74308  37.432  15.293  10.559
12855W        W74309  12.805  41.488  10.644
12856W        W74310   7.904  14.612  14.828
12857W        W74311   1.905  18.101  11.926
12858W        W74312  14.317  30.574  14.367
12859W        W74313  42.976  23.148  10.889
12860W        W74314  21.746  13.148   4.287
12861W        W74315  22.719  38.516   2.191
12862W        W74316  27.164  30.006   1.713
12863W        W74317  34.874  42.787  14.461
12864W        W74318   0.266  17.714  11.061
12865W        W74319   8.717  44.802  14.857
12866W        W74320  37.485  13.671  13.814
12867W        W74321  44.492  29.987   3.278
12868W        W74322   1.827  14.099  14.357
12869W        W74323  11.655  14.770   1.873
12870W        W74324  21.222  31.994   5.255
12871W        W74325   1.288  18.768   3.178
12872W        W74326   3.360  13.255   5.310
12873W        W74327  12.337  18.632   5.106
12874W        W74328  22.233  38.429  10.439
12875W        W74329   2.751  24.076  11.120
12876W        W74330   9.664  29.121   4.253
12877W        W74331  31.115  30.466  12.900
12878W        W74332  39.509  24.201  14.341
12879W        W74333   9.284   9.361  13.324
12880W        W74334  44.766   9.661  11.607
12881W        W74335   4.927  29.600  12.832
12882W        W74336  36.490  21.750   2.358
12883W        W74337  38.034  26.064  10.587
12884W        W74338  23.088   0.932  13.482
12885W        W74339  29.929  44.427   2.844
12886W        W74340  22.699  33.409  12.498
12887W        W74341  34.397  28.568   0.810
12888W        W74342  10.871  38.945   1.875
12889W        W74343  15.271  11.677   1.929
12890W        W74344  10.236  29.496   3.173
12891W        W74345   7.750  21.603  11.413
12892W        W74346   0.986  40.375   1.851
12893W        W74347  16.114   9.834   3.350
12894W        W74348  14.598  39.002  12.388
12895W        W74349  23.661  40.854  11.090
12896W        W74350  32.025   5.737   4.747
12897W        W74351  29.088  33.608  11.529
12898W        W74352  41.809  38.961   4.350
12899W        W74353  28.491   3.304   0.910
12900W        W74354  23.231   6.407   4.246
12901W        W74355  36.941   9.782  14.280
12902W        W74356   2.418  43.480  14.017
12903W        W74357   6.794  42.829   1.727
12904W        W74358  28.058  13.152  10.053
12905W        W74359   4.720  43.863   3.227
12906W        W74360  18.159  22.996  13.966
12907W        W74361   7.770  21.098   4.775
12908W        W74362  26.126   6.264   0.453
12909W        W74363  33.095  14.208  13.958
12910W        W74364  14.693  22.706   4.254
12911W        W74365  16.192   6.772  11.889
12912W        W74366  14.742  15.086   4.231
12913W        W74367   7.749  35.518  11.869
12914W        W74368   5.404  44.873   2.831
12915W        W74369  26.656   5.856  14.953
12916W        W74370  15.271   1.405  13.940
12917W        W74371  29.033  41.981   1.373
12918W        W74372  35.046  40.306   0.414
12919W        W74373  38.531   9.255  13.376
12920W        W74374  13.311   4.378  14.868
12921W        W74375   0.414  15.245  13.980
12922W        W74376  37.479   9.377  12.444
12923W        W74377  25.587  11.756  12.983
12924W        W74378   5.268  16.305   4.294
12925W        W74379  29.005  24.185  10.054
12926W        W74380   3.386  11.697  12.983
12927W        W74381  40.384   3.757   2.747
12928W        W74382  38.440  39.893   3.282
12929W        W74383  28.124   9.377  10.613
12930W        W74384  15.229  17.665  10.626
12931W        W74385   9.658  26.074   2.389
12932W        W74386  27.136  20.212  13.937
12933W        W74387   8.890  26.030   0.378
12934W        W74388  22.647  40.859  10.536
12935W        W74389   6.365  33.880   4.828
12936W        W74390  10.283  24.070  14.435
12937W        W74391  41.297  18.227   2.375
12938W        W74392  33.482  21.196   1.831
12939W        W74393  43.411  40.019  11.565
12940W        W74394  24.026  25.074   1.364
12941W        W74395  25.152  10.797   3.332
12942W        W74396  33.580  17.788   3.813
12943W        W74397  43.379  24.721   0.870
12944W        W74398  40.909   5.328  12.836
12945W        W74399  35.563  20.177  14.347
12946W        W74400  41.451  28.643   0.256
12947W        W74401  24.171  38.941   0.755
12948W        W74402  21.653  16.780   4.725
12949W        W74403  41.340  35.057  14.299
12950W        W74404  22.030  10.323   2.285
12951W        W74405  36.901  16.175   3.713
12952W        W74406   5.724  38.485  13.473
12953W        W74407  41.801  10.351   5.266
12954W        W74408  14.162   2.806   3.673
12955W        W74409  31.919  39.470  12.441
12956W        W74410   0.825  18.712  12.380
12957W        W74411   1.312  18.167   4.206
12958W        W74412  13.155  43.783   1.819
12959W        W74413   7.206  21.229   2.785
12960W        W74414  42.779  22.735  13.537
12961W        W74415  15.247  25.983  12.415
12962W        W74416  37.546  27.008   1.788
12963W        W74417  21.695   5.734   1.883
12964W        W74418  22.550  29.492  10.599
12965W        W74419   4.416  39.474  13.904
12966W        W74420  18.241   6.712   3.670
12967W        W74421  28.034  44.437  14.793
12968W        W74422  36.939  31.114   3.686
12969W        W74423  41.390   4.420   4.250
12970W        W74424  11.163  22.038  12.422
12971W        W74425   6.251  33.987  11.563
12972W        W74426   4.802  32.023  11.006
12973W        W74427   3.738  12.244   2.234
12974W        W74428  22.613  17.720  12.487
12975W        W74429  44.890   2.722  13.920
12976W        W74430   0.943  33.097  12.514
12977W        W74431   9.864   5.329  11.435
12978W        W74432  22.093  12.834   1.897
12979W        W74433  23.730   6.308  14.854
12980W        W74434  35.565  34.873   3.213
12981W        W74435  11.178  16.739   9.630
12982W        W74436  33.599  39.445  14.020
12983W        W74437  17.236  21.093  13.956
12984W        W74438  39.383  26.617   4.684
12985W        W74439   3.928  17.716   2.735
12986W        W74440  25.981  24.078  11.582
12987W        W74441  44.423  23.101   3.379
12988W        W74442  25.130   1.923   4.159
12989W        W74443   4.353  13.213  12.074
12990W        W74444  31.115  26.561  12.002
12991W        W74445   5.231  15.777   1.912
12992W        W74446   9.673  43.515   3.304
12993W        W74447  15.134  27.618  12.575
12994W        W74448  28.085  21.590   1.819
12995W        W74449  28.111   3.831  13.530
12996W        W74450  37.337   8.849  14.330
12997W        W74451  44.279  22.226  13.441
12998W        W74452  37.886  35.078  10.156
12999W        W74453   8.751   8.774  13.312
13000W        W74454  39.966  40.847  11.963
13001W        W74455  30.950   7.414  12.962
13002W        W74456  33.598   2.234  10.636
13003W        W74457  30.118  44.395   1.346
13004W        W74458  34.555  32.391   1.695
13005W        W74459  10.635  25.978   0.933
13006W        W74460  36.406  24.035   0.848
13007W        W74461  39.941  28.071  12.992
13008W        W74462  39.483  18.680  13.847
13009W        W74463  21.671  38.362  14.770
13010W        W74464  40.053  23.532   4.750
13011W        W74465  43.787  37.338   3.365
13012W        W74466  32.448   3.268   3.795
13013W        W74467  11.242   4.335  14.818
13014W        W74468   9.166  24.549  12.091
13015W        W74469  14.245   8.197  13.902
13016W        W74470  16.596  20.043   2.750
13017W        W74471  37.430  24.113   1.770
13018W        W74472   9.390  35.550   1.420
13019W        W74473  20.050  36.849   0.482
13020W        W74474   5.249  28.444  14.473
13021W        W74475   7.858  15.581   3.325
13022W        W74476  11.771  15.736  13.862
13023W        W74477  10.639   6.386  13.476
13024W        W74478  38.067  33.123   0.377
13025W        W74479  13.825  12.238   3.275
13026W        W74480   7.199  44.397  11.450
13027W        W74481  40.933  23.600  12.847
13028W        W74482  31.415  25.040  11.540
13029W        W74483   5.353  32.071  10.045
13030W        W74484  30.523  26.510  14.892
13031W        W74485  22.138   5.764   0.369
13032W        W74486  40.500  29.493  11.096
13033W        W74487  16.104  19.269   1.705
13034W        W74488  16.592  15.654   3.666
13035W        W74489  36.847   7.382  11.106
13036W        W74490   0.958   9.371   0.434
13037W        W74491  18.185  31.597   1.836
13038W        W74492  44.482  27.073  11.406
13039W        W74493  14.262  26.523   2.791
13040W        W74494   5.832  12.677   4.829
13041W        W74495   8.771  25.135   0.774
13042W        W74496   3.216   0.852  10.564
13043W        W74497  34.000  27.043  12.347
13044W        W74498  21.521  12.172   2.398
13045W        W74499   0.968  44.262  10.637
13046W        W74500  25.592  10.283  12.030
13047W        W74501  20.228   5.718  10.565
13048W        W74502  15.310  28.436  11.066
13049W        W74503   8.361   3.889   4.678
13050W        W74504  43.972  17.213   3.721
13051W        W74505  44.777  11.742  14.514
13052W        W74506  40.936  40.807   2.691
13053W        W74507  41.509  36.540  12.436
13054W        W74508   7.792  34.991  14.796
13055W        W74509  14.266  24.020  14.872
13056W        W74510  33.431  41.994  14.792
13057W        W74511  28.161   8.900  12.060
13058W        W74512   3.846  44.852   0.380
13059W        W74513  22.112  32.428  12.470
13060W        W74514  35.943  13.240   0.431
13061W        W74515  15.672  25.195   1.244
13062W        W74516  13.640   3.232  14.333
13063W        W74517   3.304   9.220   3.809
13064W        W74518  11.360  16.773  13.547
13065W        W74519  17.701  11.625   2.831
13066W        W74520  31.629  26.098   1.340
13067W        W74521  35.016  13.652  12.934
13068W        W74522  32.090  20.679  10.457
13069W        W74523  43.904   5.403   0.434
13070W        W74524  24.178   3.297   1.432
13071W        W74525  41.519   6.193  11.469
13072W        W74526  12.699  20.588   5.683
13073W        W74527  21.186  12.654  11.101
13074W        W74528  42.483  14.185  14.274
13075W        W74529  38.456  27.025   2.357
13076W        W74530  36.430  12.661   4.219
13077W        W74531  43.818   0.390  10.443
13078W        W74532  13.134  37.528   4.625
13079W        W74533   5.405  33.017  13.517
13080W        W74534  37.982  25.532   3.237
13081W        W74535  42.841  10.341   4.315
13082W        W74536  17.714  19.562   4.171
13083W        W74537   9.645  40.452   1.315
13084W        W74538  29.453  31.563   4.770
13085W        W74539  36.407  34.586   0.427
13086W        W74540   7.264  35.072  13.478
13087W        W74541  37.395  37.038   0.373
13088W        W74542  20.754   0.950   0.454
13089W        W74543  42.911  33.495   3.670
13090W        W74544  16.172  32.941  12.024
13091W        W74545  26.059   4.244   2.707
13092W        W74546  23.524  27.987  13.019
13093W        W74547  37.490  13.182  13.344
13094W        W74548  28.643  16.117  10.533
13095W        W74549   2.891  15.237  11.958
13096W        W74550  30.523  27.545   1.418
13097W        W74551   0.421  42.311   4.169
13098W        W74552   9.746  13.293  13.412
13099W        W74553   5.770  10.149   4.616
13100W        W74554  23.638  41.798  10.641
13101W        W74555  42.296  27.447  11.103
13102W        W74556  13.665  36.393   1.726
13103W        W74557  44.390  33.903   0.761
13104W        W74558  24.223  21.153   4.231
13105W        W74559   3.805  20.555   3.654
13106W        W74560  19.231   9.337   5.584
13107W        W74561   8.732  25.136  10.124
13108W        W74562  36.560  44.918  13.025
13109W        W74563   2.868  41.442  13.535
13110W        W74564  41.896  11.623  11.528
13111W        W74565  42.983  35.927  13.378
13112W        W74566  25.102  34.065   3.363
13113W        W74567  25.703   3.301   4.319
13114W        W74568  40.359   0.876   1.399
13115W        W74569  31.122  44.367   0.297
13116W        W74570  20.076   4.297   4.221
13117W        W74571   1.758   2.950   2.667
13118W        W74572  41.038  28.670  12.826
13119W        W74573   1.260  14.278   4.713
13120W        W74574  44.911   6.851  11.589
13121W        W74575  26.089  35.083  11.959
13122W        W74576  16.752  31.061  11.086
13123W        W74577  43.307   6.225  11.987
13124W        W74578  23.147  39.509   1.726
13125W        W74579   2.353  22.121   4.788
13126W        W74580  12.325  37.870   0.376
13127W        W74581  18.553   7.864  13.955
13128W        W74582  41.461  43.886  11.600
13129W        W74583  19.672  14.272  13.384
13130W        W74584  15.174  29.509  11.889
13131W        W74585  39.456  30.464  13.335
13132W        W74586  39.347   7.341  14.766
13133W        W74587   1.332  41.353   3.253
13134W        W74588  39.393  33.440  12.348
13135W        W74589  24.701   8.893  14.308
13136W        W74590  28.586  31.910   4.336
13137W        W74591   2.291  42.804   4.246
13138W        W74592  30.999  33.939   4.326
13139W        W74593  20.068  19.106  14.992
13140W        W74594   2.933  14.620   1.288
13141W        W74595  11.216  20.124   3.771
13142W        W74596  16.293  17.177  12.008
13143W        W74597  43.501  44.379  11.999
13144W        W74598  38.935  15.175   4.702
13145W        W74599   9.231  27.611   3.865
13146W        W74600   9.663  40.030  13.047
13147W        W74601  24.576  31.468  12.090
13148W        W74602  23.044  21.220  11.074
13149W        W74603  17.604  34.951  13.934
13150W        W74604   8.844  19.671   2.745
13151W        W74605  15.727  34.103  13.964
13152W        W74606  19.208   2.402   3.360
13153W        W74607  22.567  36.561  10.490
13154W        W74608  17.694  31.133  13.388
13155W        W74609  39.999  34.372   2.736
13156W        W74610  15.172  40.041  13.545
13157W        W74611   7.841  20.166   3.816
13158W        W74612   2.250   8.342   1.309
13159W        W74613  12.622  44.384  14.840
13160W        W74614  39.030   5.901  12.061
13161W        W74615  22.201  41.368  11.881
13162W        W74616  42.448  21.075   4.347
13163W        W74617  18.760   4.411  11.055
13164W        W74618  27.494  43.327   1.825
13165W        W74619  33.880  28.659   1.225
13166W        W74620   9.187  24.979   3.292
13167W        W74621  41.526   7.844   1.220
13168W        W74622  33.973  10.822  14.322
13169W        W74623  10.700   2.779  13.314
13170W        W74624   9.364  14.834  14.019
13171W        W74625  43.890  17.627   0.388
13172W        W74626  40.449  36.004  13.799
13173W        W74627  30.007  15.813  11.512
13174W        W74628  18.705  22.145   3.654
13175W        W74629   0.304  25.692  11.555
13176W        W74630  42.483   9.868  13.540
13177W        W74631  18.613  13.610   0.405
13178W        W74632  43.497   7.183   4.756
13179W        W74633  19.729  44.811  12.082
13180W        W74634  32.490  12.798   3.260
13181W        W74635   5.737  35.404  13.852
13182W        W74636  33.951   3.326  11.865
13183W        W74637  20.099  13.831  14.022
13184W        W74638  12.637  18.600   3.774
13185W        W74639  39.915   6.368   1.770
13186W        W74640   2.392  16.644  11.108
13187W        W74641   0.915  21.194   2.199
13188W        W74642  26.960  30.124   2.353
13189W        W74643  24.484  10.281  11.890
13190W        W74644  42.393  17.702   4.211
13191W        W74645  34.085  38.865  14.006
13192W        W74646  13.141  35.592   4.838
13193W        W74647  30.467  12.841  11.446
13194W        W74648  17.164  37.545  11.492
13195W        W74649  16.272  18.551  13.903
13196W        W74650   4.756  28.447   1.722
13197W        W74651   1.929  11.642   2.901
13198W        W74652  18.270  29.631  11.948
13199W        W74653  36.920  36.470  12.982
13200W        W74654  38.991  25.520  12.442
13201W        W74655  37.075  28.562  11.985
13202W        W74656   8.842   7.201  14.852
13203W        W74657   5.351  32.994   2.761
13204W        W74658  22.523  30.147   2.860
13205W        W74659  11.844   2.720   3.216
13206W        W74660  15.620  37.072  13.859
13207W        W74661  28.555  14.313   4.178
13208W        W74662  17.118  32.045   1.734
13209W        W74663  17.180  29.476   3.864
13210W        W74664   2.834  37.876  13.847
13211W        W74665  18.573  35.047  11.415
13212W        W74666  40.995  28.139  13.534
13213W        W74667  33.598   3.936  14.907
13214W        W74668  13.615  26.639   1.390
13215W        W74669  16.568  11.812   2.390
13216W        W74670   6.417  39.818  12.981
13217W        W74671   3.855  33.571   0.355
13218W        W74672  20.623  16.073   0.947
13219W        W74673  16.584  13.197  14.405
13220W        W74674   4.881   5.216   3.344
13221W        W74675  18.762   2.732  11.990
13222W        W74676   2.349  29.062  14.362
13223W        W74677   6.914   5.243   4.762
13224W        W74678   9.724  44.260  13.860
13225W        W74679  25.207  43.353  12.492
13226W        W74680  22.692  29.946   4.195
13227W        W74681  19.135  28.641   4.320
13228W        W74682  44.981   2.357  13.384
13229W        W74683  11.659   0.895  11.056
13230W        W74684  40.357  31.050   4.768
13231W        W74685   7.377  24.005  12.442
13232W        W74686  13.273  44.003  13.511
13233W        W74687   9.653  25.589   2.753
13234W        W74688  32.924  30.536   3.255
13235W        W74689  33.953  27.187   3.694
13236W        W74690  38.021  44.793   4.352
13237W        W74691   9.298  39.014   0.886
13238W        W74692   4.708  30.001  11.515
13239W        W74693  11.851   4.307   0.921
13240W        W74694  33.384  25.144   2.727
13241W        W74695  34.118  32.085   0.297
13242W        W74696   7.395  32.060   2.293
13243W        W74697   2.911  43.402  11.555
13244W        W74698   2.372  39.001  13.437
13245W        W74699  19.649  32.623   0.739
13246W        W74700   4.291  42.025  13.426
13247W        W74701  27.968  19.069   0.928
13248W        W74702  28.933   9.858  12.907
13249W        W74703  38.479  19.603  11.396
13250W        W74704  42.522  43.773  14.290
13251W        W74705  30.653  26.022  14.360
13252W        W74706  13.782   7.795   3.686
13253W        W74707  27.665  40.475   3.810
13254W        W74708  20.578   3.819   2.380
13255W        W74709  16.269   8.802   3.223
13256W        W74710  11.660  15.222  13.518
13257W        W74711  38.922  18.681   4.709
13258W        W74712  35.961  22.155   1.883
13259W        W74713  13.771  44.806   2.370
13260W        W74714  27.692  10.791  10.982
13261W        W74715  19.161  42.007  11.022
13262W        W74716  40.520   8.160   4.762
13263W        W74717  11.857   0.426   4.665
13264W        W74718  42.984  12.201  14.850
13265W        W74719  27.106  18.068  11.118
13266W        W74720   8.177  41.329  14.966
13267W        W74721   3.263  26.678   3.818
13268W        W74722   5.367   2.302  11.554
13269W        W74723  25.024  39.340   4.828
13270W        W74724  43.273  40.042   2.384
13271W        W74725   6.308   1.966   3.212
13272W        W74726  35.900  16.296   1.227
13273W        W74727  39.007  11.689   2.812
13274W        W74728  16.677   6.406   0.281
13275W        W74729  28.520  28.517   1.353
13276W        W74730  21.698   6.919  10.418
13277W        W74731  16.239   2.357  13.828
13278W        W74732  40.498  23.208  12.561
13279W        W74733  44.305   5.363  12.867
13280W        W74734  31.623  11.746   2.419
13281W        W74735  38.350  28.147  12.461
13282W        W74736  44.800  31.421  11.394
13283W        W74737   7.682  20.575   1.853
13284W        W74738  25.577  18.088  10.901
13285W        W74739  29.067  32.993  13.948
13286W        W74740  23.615   0.485  14.451
13287W        W74741  30.638  28.450   3.799
13288W        W74742  43.351  44.768   1.306
13289W        W74743  41.004  28.970   2.322
13290W        W74744  20.526   4.367   0.445
13291W        W74745   3.279  32.917  12.573
13292W        W74746  24.147  19.777  12.033
13293W        W74747   7.388  34.874  14.963
13294W        W74748  27.957  19.152  12.551
13295W        W74749  40.522  34.077  11.520
13296W        W74750   0.869  27.970   4.249
13297W        W74751  15.240  22.573   4.663
13298W        W74752   0.829   2.250  12.869
13299W        W74753  24.148  31.586   2.198
13300W        W74754  16.227  14.684  13.042
13301W        W74755  40.998  11.261   1.833
13302W        W74756  13.682  36.983   0.358
13303W        W74757   3.888  20.536  13.054
13304W        W74758  43.474  37.936  11.394
13305W        W74759  37.951  19.668   3.304
13306W        W74760   0.897  28.083  10.990
13307W        W74761  44.916  38.488   0.458
13308W        W74762  12.157  12.359   1.841
13309W        W74763  31.530  20.564   1.372
13310W        W74764  22.734  37.577  14.017
13311W        W74765  17.556   1.249  13.462
13312W        W74766  39.336  44.890   4.736
13313W        W74767   9.301  12.781  14.794
13314W        W74768  39.537  32.489   0.755
13315W        W74769  36.480  27.621   2.867
13316W        W74770  42.910  29.141   1.226
13317W        W74771  25.596   2.817  12.078
13318W        W74772  10.285   9.810   0.463
13319W        W74773  41.386  27.135  13.950
13320W        W74774   1.468  31.979  13.985
13321W        W74775  29.554  27.081  13.034
13322W        W74776  43.978  11.804   0.245
13323W        W74777  42.453   0.903   2.348
13324W        W74778  44.416  42.427  12.872
13325W        W74779  22.642  14.684  10.960
13326W        W74780  12.651  34.114   0.365
13327W        W74781  19.573   1.875   2.842
13328W        W74782  22.114   5.853   4.643
13329W        W74783   9.746  14.792   2.851
13330W        W74784  35.450  28.079  14.397
13331W        W74785   6.299  16.173   2.750
13332W        W74786   3.877  44.829   4.307
13333W        W74787  31.558  30.087  14.915
13334W        W74788  34.035  27.986   4.317
13335W        W74789  10.840  37.928   0.930
13336W        W74790  18.595   1.748  12.875
13337W        W74791  23.001   5.332   0.907
13338W        W74792  21.119  12.315   4.722
13339W        W74793  28.106  30.612  13.822
13340W        W74794   2.294  26.470  10.984
13341W        W74795  11.212  44.492  13.414
13342W        W74796  37.889  32.079  13.316
13343W        W74797  36.880  32.557  14.835
13344W        W74798  20.142  16.661  10.983
13345W        W74799   8.285  16.748   0.368
13346W        W74800  10.871  18.552   1.875
13347W        W74801  10.665  19.711  13.540
13348W        W74802   0.403   1.447  13.537
13349W        W74803  24.208  26.996  11.013
13350W        W74804  37.473  35.523  13.875
13351W        W74805  13.351  14.154   3.746
13352W        W74806   5.292  21.655   1.264
13353W        W74807  30.115   3.226   4.614
13354W        W74808  28.131  20.058   2.671
13355W        W74809  10.233  18.563   2.292
13356W        W74810  33.057  20.267   1.905
13357W        W74811  11.231  36.060   3.224
13358W        W74812  25.600  22.705   2.262
13359W        W74813  36.437  30.994  11.609
13360W        W74814   5.354   3.793  14.854
13361W        W74815  36.368  12.822  14.831
13362W        W74816  16.682  25.630  10.939
13363W        W74817   1.465  13.615  11.382
13364W        W74818  12.829  40.906  14.503
13365W        W74819  23.080   2.451   0.280
13366W        W74820  17.255  29.971  14.284
13367W        W74821  43.461  32.570  14.405
13368W        W74822   4.906   8.254   3.205
13369W        W74823   6.407  25.495  11.470
13370W        W74824   1.974   3.858  12.084
13371W        W74825  25.193   4.391   4.601
13372W        W74826   9.235  16.579  14.987
13373W        W74827  26.462  36.016  13.889
13374W        W74828  34.084  22.029   4.776
13375W        W74829  17.289  43.498   2.240
13376W        W74830  41.982  11.221  13.032
13377W        W74831  29.655  31.476   2.360
13378W        W74832  31.139  19.212  10.439
13379W        W74833   4.314   6.402  12.955
13380W        W74834  30.547   7.273   4.833
13381W        W74835  19.270   6.783  12.002
13382W        W74836  19.218  23.573   4.326
13383W        W74837  11.725  13.198   0.372
13384W        W74838   9.828  31.008  12.976
13385W        W74839  18.080   7.272   1.851
13386W        W74840   7.191  44.795   1.756
13387W        W74841  19.672  10.853   2.831
13388W        W74842   0.280   8.259  11.428
13389W        W74843  23.712   8.671   0.471
13390W        W74844  27.549  21.612  13.344
13391W        W74845  25.197  41.420  12.569
13392W        W74846  17.618  12.250  13.909
13393W        W74847   3.866  14.254  13.839
13394W        W74848  31.988   5.901  13.031
13395W        W74849   2.231   8.794   5.172
13396W        W74850  22.566  29.955  13.945
13397W        W74851   9.185  18.594  14.444
13398W        W74852  20.151  34.039  13.344
13399W        W74853  27.039  38.933  14.414
13400W        W74854  17.728  23.993  12.346
13401W        W74855   0.398  13.116   1.245
13402W        W74856  32.110  38.864   1.446
13403W        W74857  12.355   9.720  11.543
13404W        W74858  38.883  41.449  14.827
13405W        W74859  41.478  31.476  12.451
13406W        W74860  30.955  14.141   4.772
13407W        W74861  27.553   7.335   1.404
13408W        W74862  31.991  13.735  10.133
13409W        W74863   9.388  11.690  11.072
13410W        W74864  17.182   3.803  10.451
13411W        W74865   3.334  19.204   0.909
13412W        W74866  36.867   9.786   1.269
13413W        W74867  26.567  19.255   1.800
13414W        W74868  21.141  42.841   4.164
13415W        W74869  13.145  35.099   1.338
13416W        W74870  37.442  43.935  12.094
13417W        W74871  28.502  31.453  12.527
13418W        W74872  19.554  25.557  13.988
13419W        W74873   6.690  29.128  13.807
13420W        W74874   4.341  21.200   0.830
13421W        W74875  14.594  16.132   3.826
13422W        W74876   9.714   3.829  11.940
13423W        W74877  12.645   9.885  11.414
13424W        W74878  41.937   5.287  13.541
13425W        W74879  41.807  31.448   3.291
13426W        W74880   5.696  27.473  11.607
13427W        W74881  38.987  32.574   5.253
13428W        W74882  34.472  14.213   3.630
13429W        W74883  41.423  44.383   2.846
13430W        W74884   6.298  14.758   3.182
13431W        W74885  27.484   3.387  14.318
13432W        W74886   2.366  40.029   1.216
13433W        W74887   2.836  17.158   3.352
13434W        W74888   5.721  32.132   1.394
13435W        W74889  30.984  27.107  14.422
13436W        W74890  22.183  14.254   2.310
13437W        W74891  21.145  16.714   1.376
13438W        W74892  20.200  24.626  13.826
13439W        W74893  42.993   4.922  11.967
13440W        W74894  15.723   9.245   0.366
13441W        W74895  23.640  22.715   2.326
13442W        W74896  24.478   3.361   5.569
13443W        W74897   2.867  11.816   3.298
13444W        W74898   1.813  42.824  11.409
13445W        W74899  38.858  37.875  12.455
13446W        W74900  18.629  15.688  13.891
13447W        W74901  42.914  32.929   3.859
13448W        W74902  29.622  32.944  12.540
13449W        W74903  25.518  27.529   4.799
13450W        W74904  36.948  16.239   4.117
13451W        W74905  30.973  11.818  14.921
13452W        W74906  20.693  12.163   0.890
13453W        W74907  28.116  41.489   4.610
13454W        W74908  35.596   5.802   0.378
13455W        W74909   3.828   6.914  11.530
13456W        W74910  25.109  22.214   0.783
13457W        W74911   2.394   8.246  13.051
13458W        W74912  29.000  41.794   3.801
13459W        W74913  33.945  34.029  10.483
13460W        W74914  11.372  17.217  10.095
13461W        W74915  10.793  36.853  14.409
13462W        W74916  38.936  39.924   1.433
13463W        W74917   2.435  23.591  11.104
13464W        W74918  39.910   9.306   3.660
13465W        W74919  19.053   4.893   1.828
13466W        W74920  10.333  23.113   3.327
13467W        W74921   0.268   5.863  10.979
13468W        W74922   7.187  22.747   1.778
13469W        W74923   6.380  35.001   3.305
13470W        W74924  31.134  42.523  12.905
13471W        W74925   6.918  42.507   2.724
13472W        W74926   7.186  32.991  12.578
13473W        W74927   2.953  35.512   3.287
13474W        W74928  25.046  17.180  11.886
13475W        W74929  18.244  30.977  11.090
13476W        W74930  29.529  42.825  12.041
13477W        W74931  44.864  24.503  11.580
13478W        W74932  34.088  24.677   3.301
13479W        W74933  10.218  41.326   4.210
13480W        W74934  15.768  18.183  14.432
13481W        W74935  19.242  42.012   4.614
13482W        W74936  23.090  37.872  13.899
13483W        W74937  20.677  41.038   1.257
13484W        W74938  17.283  37.040  10.444
13485W        W74939   6.342  39.434   4.290
13486W        W74940  30.458  13.689   3.854
13487W        W74941   0.885  30.618  11.561
13488W        W74942   3.846  35.575   3.385
13489W        W74943  32.557  25.087  14.860
13490W        W74944  44.804  18.553  13.537
13491W        W74945   8.877  31.633   5.252
13492W        W74946  39.889   0.464  14.872
13493W        W74947   4.915  24.676  10.941
13494W        W74948  35.875  19.554   3.689
13495W        W74949  41.974   7.686   2.375
13496W        W74950  28.170  34.958   3.355
13497W        W74951  37.434  12.350   2.334
13498W        W74952  23.165  25.641   4.301
13499W        W74953  11.659  17.131  12.089
13500W        W74954  20.522  25.127  10.546
13501W        W74955   8.852  35.587  14.816
13502W        W74956  31.939  16.729   0.455
13503W        W74957  11.809   1.769   0.838
13504W        W74958  40.971  40.464   1.833
13505W        W74959  44.356  24.051   0.863
13506W        W74960   9.665  21.116   1.899
13507W        W74961   8.203  41.501   3.190
13508W        W74962   5.733  19.692   4.793
13509W        W74963  34.500  34.381  12.856
13510W        W74964  38.057  13.793  11.031
13511W        W74965  37.850  34.041  12.041
13512W        W74966  19.644  19.565  13.444
13513W        W74967   6.192   3.446  12.856
13514W        W74968  32.568   8.692  13.969
13515W        W74969  11.707  16.185   5.122
13516W        W74970  36.487   0.892  10.891
13517W        W74971  38.512  21.197  14.459
13518W        W74972  30.003  34.612   2.888
13519W        W74973  41.964   2.796  13.486
13520W        W74974   9.732  26.486   2.242
13521W        W74975  44.867  19.136  12.924
13522W        W74976  20.534   7.372  13.914
13523W        W74977  35.859  14.743  14.924
13524W        W74978  19.123  37.415   1.253
13525W        W74979   1.806  32.926   0.787
13526W        W74980  16.093   5.810  13.457
13527W        W74981  37.569  35.362   1.831
13528W        W74982  10.345   6.293  10.937
13529W        W74983  37.996  37.507  12.374
13530W        W74984  16.232  26.109   4.235
13531W        W74985  20.556   1.877  12.351
13532W        W74986   1.815  30.048  14.458
13533W        W74987  42.507  29.428  11.995
13534W        W74988  17.714  19.755  12.993
13535W        W74989  41.348  18.759   3.314
13536W        W74990   2.738  42.496  13.880
13537W        W74991  20.594  21.537   4.730
13538W        W74992  23.541  16.294  14.987
13539W        W74993  33.413  16.643  10.126
13540W        W74994   3.784  12.746  11.091
13541W        W74995  12.769  29.155  10.571
13542W        W74996  37.439  25.118   3.852
13543W        W74997  33.879   1.325   2.849
13544W        W74998  13.727   4.214   1.857
13545W        W74999  43.842  20.675   0.244
13546W        W75000  31.575  32.928  13.322
13547W        W75001   5.202  12.132  11.421
13548W        W75002  19.262  41.355  13.345
13549W        W75003  26.575  16.247   2.251
13550W        W75004  11.155   5.767  14.791
13551W        W75005  13.144  27.688  14.985
13552W        W75006  34.455  13.137  13.358
13553W        W75007  38.856  20.711  12.503
13554W        W75008  36.080  41.877   2.298
13555W        W75009  34.043  12.754  10.158
13556W        W75010  16.657  37.439  14.365
13557W        W75011  26.104  20.763  13.846
13558W        W75012  40.053  20.175  11.493
13559W        W75013  31.932  22.672  12.891
13560W        W75014  30.121  38.045   3.303
13561W        W75015   9.374  19.205   4.817
13562W        W75016  43.378  12.167   0.775
13563W        W75017  38.518  44.820   2.340
13564W        W75018  25.644  41.794  14.016
13565W        W75019  25.100  16.605   3.669
13566W        W75020  34.578  38.363  12.875
13567W        W75021  39.915  19.689   0.914
13568W        W75022  38.020  27.137   2.222
13569W        W75023  31.970  25.151   4.746
13570W        W75024  34.979   1.972   4.251
13571W        W75025  39.941  11.206   0.796
13572W        W75026  10.212   3.902   1.287
13573W        W75027  24.725  34.432  10.560
13574W        W75028  34.566   3.242   1.883
13575W        W75029  28.554  43.487   2.372
13576W        W75030   9.191  34.578  10.612
13577W        W75031  10.736   0.915  11.498
13578W        W75032  39.407  21.248   1.257
13579W        W75033  30.637  36.558   4.177
13580W        W75034  23.175  38.976   2.333
13581W        W75035  44.314  16.746   2.664
13582W        W75036  13.794  16.190  12.075
13583W        W75037   0.895  18.641   1.783
13584W        W75038  36.910   2.418   1.318
13585W        W75039  29.440   9.354   4.243
13586W        W75040   0.425  23.113  11.450
13587W        W75041  21.086  41.488  10.058
13588W        W75042  29.106  14.640  14.423
13589W        W75043  14.808  19.566  11.050
13590W        W75044  42.864  42.968   4.329
13591W        W75045  24.091  34.381   1.799
13592W        W75046  44.898   0.454  11.469
13593W        W75047  20.671  42.937   0.903
13594W        W75048  27.614  24.520  12.392
13595W        W75049   7.840  41.381  12.566
13596W        W75050  37.006   5.419   2.744
13597W        W75051  39.903  11.127   0.415
13598W        W75052   3.371   6.330   2.290
13599W        W75053  17.079  10.655  13.959
13600W        W75054  24.514   7.296   0.728
13601W        W75055   9.768   7.236   1.699
13602W        W75056  34.914   3.447   9.966
13603W        W75057  19.115  31.970   1.280
13604W        W75058  17.216  29.166  10.971
13605W        W75059  40.305  21.208   3.856
13606W        W75060  13.278  31.921  12.351
13607W        W75061   5.429   7.246   0.800
13608W        W75062  44.965  29.668   3.232
13609W        W75063  27.579  26.619   3.199
13610W        W75064   3.787  26.567   0.836
13611W        W75065  33.929  22.670  11.415
13612W        W75066  26.041  44.964   1.442
13613W        W75067  10.209  19.701   5.221
13614W        W75068  32.043   4.248   1.394
13615W        W75069  14.668  31.113  14.014
13616W        W75070  31.590   7.295  13.331
13617W        W75071  44.853  31.128   4.726
13618W        W75072   5.822  30.072   2.766
13619W        W75073  10.832  21.198  11.408
13620W        W75074  11.851  37.458  10.065
13621W        W75075  27.038   4.848   2.849
13622W        W75076  10.855  17.733   1.777
13623W        W75077  15.092  28.968  10.580
13624W        W75078   8.282  37.845  11.535
13625W        W75079   8.810  37.054  13.030
13626W        W75080  42.381  13.762  13.352
13627W        W75081  22.200   0.838  10.504
13628W        W75082  42.003  27.181  11.496
13629W        W75083  19.138  35.432   3.828
13630W        W75084   0.493   8.864   1.222
13631W        W75085  20.553  29.584  12.407
13632W        W75086  24.127  36.940   1.924
13633W        W75087  37.460   7.221  12.347
13634W        W75088  15.588  12.275   0.418
13635W        W75089  36.565  21.633  10.436
13636W        W75090  11.237  24.202   2.310
13637W        W75091   9.826   0.807  14.998
13638W        W75092   4.841  42.522   3.662
13639W        W75093   3.255  27.657  11.022
13640W        W75094  16.642  27.995  13.957
13641W        W75095   7.186  42.331   2.239
13642W        W75096  39.388  31.508  12.389
13643W        W75097  36.369  18.209   5.103
13644W        W75098   5.237   5.841   2.699
13645W        W75099  20.591  21.175  13.998
13646W        W75100  26.173  39.036   1.447
13647W        W75101  32.465   0.888  12.535
13648W        W75102  30.952   1.363  13.337
13649W        W75103   2.402   0.875  13.504
13650W        W75104  17.095  39.854  14.830
13651W        W75105  37.567  19.582  11.379
13652W        W75106  33.934  33.429  11.968
13653W        W75107   2.880  32.926   0.946
13654W        W75108  17.117  22.619   5.167
13655W        W75109  12.857   3.739  11.861
13656W        W75110  22.682  21.664  14.513
13657W        W75111  37.537  39.322   9.441
13658W        W75112  36.876  34.385  13.887
13659W        W75113   0.986  29.924   0.309
13660W        W75114  10.857  38.908  10.954
13661W        W75115  15.811  16.621   2.851
13662W        W75116   2.242  23.572   2.202
13663W        W75117   3.770   6.218  12.035
13664W        W75118  42.422  26.575  11.975
13665W        W75119  33.465  15.308   3.235
13666W        W75120   6.846  29.092  14.902
13667W        W75121  13.742  14.685  10.949
13668W        W75122   3.298  21.701   3.340
13669W        W75123  39.858  25.145  11.889
13670W        W75124  21.748  33.427   4.694
13671W        W75125  36.416  11.745   3.766
13672W        W75126   8.162   7.670   3.650
13673W        W75127  31.501  37.575   1.403
13674W        W75128  14.129  34.501   3.317
13675W        W75129  31.441   4.826  13.483
13676W        W75130  36.880   2.791   3.739
13677W        W75131  30.153  38.890  14.825
13678W        W75132   6.193  24.084  12.904
13679W        W75133  22.517  28.162   1.268
13680W        W75134  19.593  13.732   3.695
13681W        W75135   7.244  42.981   4.694
13682W        W75136  13.109  25.186  14.515
13683W        W75137  42.287  40.307  14.488
13684W        W75138  33.479  12.849  10.935
13685W        W75139   6.713  25.114  14.899
13686W        W75140  41.441   0.802  10.413
13687W        W75141   0.769  27.610  13.921
13688W        W75142  16.182  24.132  13.913
13689W        W75143  12.136  23.204  10.112
13690W        W75144  37.029  34.042   4.696
13691W        W75145  41.951  34.610  11.052
13692W        W75146  33.995   2.755   4.203
13693W        W75147   8.746   5.364   0.965
13694W        W75148  20.549  19.239  11.884
13695W        W75149  23.495  26.134   0.449
13696W        W75150   7.667  21.143  13.854
13697W        W75151   7.706  30.928   1.397
13698W        W75152  34.376  21.631  10.945
13699W        W75153  30.030   8.216   4.769
13700W        W75154   0.792   6.305  10.600
13701W        W75155  31.923  19.620   4.257
13702W        W75156   0.867  43.914  12.951
13703W        W75157  11.336  31.565   0.764
13704W        W75158  27.631  16.282   4.646
13705W        W75159  24.601  24.988  13.908
13706W        W75160  31.558  13.174   3.701
13707W        W75161  25.613  19.588   2.772
13708W        W75162  19.044  11.687   5.100
13709W        W75163  11.233  13.681   4.597
13710W        W75164  29.141  33.423   2.414
13711W        W75165  31.483   5.743   1.388
13712W        W75166  43.436   6.395  14.420
13713W        W75167   8.859   0.301   4.351
13714W        W75168   8.884  20.679  13.415
13715W        W75169  32.070  19.041  11.531
13716W        W75170  22.681   9.218   3.151
13717W        W75171  37.895  30.947  14.494
13718W        W75172   1.450  10.359  11.456
13719W        W75173  28.063   4.934   0.952
13720W        W75174  42.942  30.507  12.842
13721W        W75175  34.510  16.078   4.712
13722W        W75176  39.315  36.908  13.952
13723W        W75177  14.724  23.721   3.207
13724W        W75178  20.242  44.503  12.929
13725W        W75179  22.131  21.518   4.658
13726W        W75180  27.163  42.346   1.350
13727W        W75181  30.572  24.508  11.604
13728W        W75182  23.607   9.367  11.394
13729W        W75183   5.368   4.860  14.291
13730W        W75184  25.193   1.450  11.554
13731W        W75185  43.976  19.194  14.450
13732W        W75186  30.075  41.928  11.456
13733W        W75187  20.610  20.650   2.323
13734W        W75188  24.220  11.285  14.833
13735W        W75189  28.090  26.627  13.896
13736W        W75190  24.166  35.877  13.832
13737W        W75191   0.797   3.378  12.461
13738W        W75192  12.116  18.152  14.479
13739W        W75193  32.073   2.402   4.639
13740W        W75194  26.994  13.661   0.849
13741W        W75195  15.662  34.876  11.053
13742W        W75196  11.303  34.003   2.182
13743W        W75197  26.650  30.537  14.378
13744W        W75198   3.284  20.758   0.798
13745W        W75199  11.730  38.042  12.042
13746W        W75200  12.267  31.037   3.820
13747W        W75201   5.713   0.778  11.933
13748W        W75202  12.336  29.121  12.067
13749W        W75203  41.804  27.573   3.661
13750W        W75204  43.396  29.637   4.825
13751W        W75205  14.590   4.222  12.360
13752W        W75206   2.784   3.460   3.240
13753W        W75207  24.165  40.328   1.855
13754W        W75208  10.316  33.070   1.720
13755W        W75209  33.964  25.657   2.705
13756W        W75210  16.781  14.685  11.516
13757W        W75211   1.330   2.408  13.384
13758W        W75212  39.847  33.091   0.316
13759W        W75213  37.905   7.355   0.801
13760W        W75214  35.525  41.892   9.662
13761W        W75215   1.477  27.480   2.346
13762W        W75216   3.909  21.603   4.738
13763W        W75217   6.713  34.462   2.335
13764W        W75218  37.983  12.763   5.135
13765W        W75219  18.229  35.939   0.729
13766W        W75220  16.585   0.259  14.930
13767W        W75221  40.881  41.816  13.848
13768W        W75222  14.822   8.803   0.455
13769W        W75223   3.316  16.105   1.275
13770W        W75224  24.721  33.024   2.283
13771W        W75225  32.531   1.321   4.838
13772W        W75226  38.519  21.213   3.797
13773W        W75227  19.749  14.815  14.010
13774W        W75228  16.244  41.834   4.707
13775W        W75229   6.242  32.086  12.476
13776W        W75230  28.464   5.839   2.402
13777W        W75231  22.595  23.049  11.383
13778W        W75232  11.192   9.875   2.244
13779W        W75233  44.874  38.457  12.553
13780W        W75234  13.600  43.456  11.599
13781W        W75235  29.109  34.989  13.516
13782W        W75236  20.604   6.330  14.017
13783W        W75237  28.469   0.273   9.615
13784W        W75238  28.559  15.225   4.320
13785W        W75239  34.881  41.340  10.558
13786W        W75240  36.024   6.309   1.793
13787W        W75241  21.025  28.640   3.182
13788W        W75242   3.356  40.440   3.814
13789W        W75243  37.834  23.520  11.868
13790W        W75244   6.719  22.503  12.532
13791W        W75245  30.115  40.881   4.701
13792W        W75246  22.673  27.640   0.814
13793W        W75247  26.517   7.276  10.983
13794W        W75248  44.486  23.192   2.211
13795W        W75249  37.914  43.967  14.295
13796W        W75250   0.846  36.856  13.850
13797W        W75251   2.784  35.979   4.165
13798W        W75252  11.235  39.065   4.720
13799W        W75253  21.571  29.958  13.038
13800W        W75254  19.263   4.332   2.212
13801W        W75255  12.707  23.660   3.321
13802W        W75256  29.657   4.769   0.439
13803W        W75257  40.042  39.063  14.954
13804W        W75258  16.242   0.326  12.850
13805W        W75259  25.595   5.308  14.941
13806W        W75260   0.315  13.230  11.926
13807W        W75261   8.235  17.224   4.652
13808W        W75262  38.511  19.189   2.856
13809W        W75263  42.388   2.353  12.536
13810W        W75264  20.561  17.703   1.928
13811W        W75265  28.462   5.693   9.542
13812W        W75266  36.542  31.475  14.868
13813W        W75267  33.552  26.014  14.435
13814W        W75268  17.763   5.334  11.568
13815W        W75269  33.119  40.382   1.434
13816W        W75270  21.041   4.245   3.147
13817W        W75271  27.180  31.559   3.841
13818W        W75272   7.327  37.906  12.878
13819W        W75273  23.014   0.921   0.407
13820W        W75274  27.164  11.320  12.362
13821W        W75275  41.370   2.307   2.295
13822W        W75276  23.602  31.544   0.342
13823W        W75277  42.811   1.350  13.064
13824W        W75278  40.403   5.917  10.411
13825W        W75279  24.724  23.029   2.324
13826W        W75280  35.519   7.393  14.490
13827W        W75281  26.671   8.311  13.846
13828W        W75282  15.083  32.108  13.311
13829W        W75283  39.458  13.727  14.804
13830W        W75284  39.545   6.864  11.532
13831W        W75285  29.441  33.522  13.377
13832W        W75286  32.952  39.004   0.836
13833W        W75287  39.543  22.152  14.016
13834W        W75288   4.423  18.183   2.879
13835W        W75289  41.505  12.817   4.819
13836W        W75290  26.168  37.951   1.914
13837W        W75291   9.374  30.962  13.324
13838W        W75292   4.729   0.490   2.418
13839W        W75293   5.363  24.158  12.396
13840W        W75294  21.219  30.055   1.392
13841W        W75295  38.440  30.967   1.811
13842W        W75296  31.038  15.196   0.793
13843W        W75297  13.682  27.490   4.310
13844W        W75298  30.074  30.148  11.897
13845W        W75299   6.695   7.713   1.419
13846W        W75300  40.344   0.376   0.334
13847W        W75301  38.038  38.439   9.988
13848W        W75302  40.436  29.656  14.018
13849W        W75303  22.553  17.748   2.338
13850W        W75304  31.999   8.218  11.989
13851W        W75305  17.215  42.518   0.358
13852W        W75306  42.359  14.200   3.178
13853W        W75307   5.333  22.693   2.708
13854W        W75308  37.904  23.627  12.559
13855W        W75309  18.231  34.894   1.227
13856W        W75310   6.312   5.210   2.254
13857W        W75311  42.434  43.406  11.967
13858W        W75312  28.453  38.853  10.630
13859W        W75313  35.402  31.939  12.973
13860W        W75314  31.085  16.291   3.813
13861W        W75315   5.200  36.863   2.884
13862W        W75316  39.399  15.151  10.453
13863W        W75317  30.558  39.488   3.353
13864W        W75318  37.486  10.650   4.169
13865W        W75319   6.253  32.438  13.519
13866W        W75320  37.942  12.353  13.814
13867W        W75321  21.080   9.321   0.848
13868W        W75322  38.527  10.208   0.846
13869W        W75323   4.788  35.855   0.769
13870W        W75324  12.258  34.115  11.423
13871W        W75325  23.119  38.055  13.519
13872W        W75326  43.319  40.860  13.045
13873W        W75327  37.066  39.542   1.285
13874W        W75328   1.833  11.271  12.917
13875W        W75329  26.186  13.276   4.240
13876W        W75330   3.885  18.229   1.765
13877W        W75331  35.101   6.280   3.237
13878W        W75332  43.356  16.159  13.548
13879W        W75333  22.530  40.464   0.278
13880W        W75334  20.762   4.436   1.369
13881W        W75335  17.777  44.797   2.702
13882W        W75336  12.811  35.567  13.507
13883W        W75337  16.656  34.923  12.463
13884W        W75338  35.586   4.883   2.215
13885W        W75339  25.496  36.505   3.716
13886W        W75340  38.927  14.657   2.207
13887W        W75341  11.361   3.724   0.435
13888W        W75342   8.221  25.532   1.214
13889W        W75343  25.670  19.149  14.943
13890W        W75344   9.765  30.413   2.351
13891W        W75345  19.265  42.425  14.925
13892W        W75346  16.235   9.651   0.460
13893W        W75347  12.205   7.301   3.764
13894W        W75348  10.153  16.676   1.407
13895W        W75349  38.027  18.579  10.484
13896W        W75350  42.349  11.263   2.182
13897W        W75351   5.781   1.296  11.392
13898W        W75352  44.381  40.321  13.331
13899W        W75353  16.621  25.092   4.152
13900W        W75354  14.187  37.413  14.906
13901W        W75355   4.220   5.359   0.465
13902W        W75356   3.932  20.758  11.496
13903W        W75357  31.998  33.380   1.872
13904W        W75358   3.286  21.017  11.105
13905W        W75359  44.396  43.471   0.460
13906W        W75360  37.454  28.179   3.796
13907W        W75361   9.722  21.256  14.001
13908W        W75362  44.772  34.388   3.197
13909W        W75363  35.033  22.652  13.892
13910W        W75364  14.300  11.359   4.196
13911W        W75365  44.960  22.525  12.520
13912W        W75366   8.654   0.884   0.310
13913W        W75367   6.350  24.069   1.928
13914W        W75368  24.012  23.139   4.345
13915W        W75369  26.131  32.109  13.475
13916W        W75370  33.096  21.213  10.160
13917W        W75371  20.725   2.296  14.781
13918W        W75372   3.369  36.451   2.268
13919W        W75373   5.720  20.547   1.815
13920W        W75374  28.050   8.308  11.412
13921W        W75375  44.335  13.691   3.175
13922W        W75376  24.534  37.550  13.038
13923W        W75377  39.997  26.153   3.705
13924W        W75378  42.464   3.749   0.268
13925W        W75379  31.899   5.213  11.118
13926W        W75380  34.107   4.785   4.776
13927W        W75381  18.745  17.743   2.803
13928W        W75382  44.867   4.902  13.535
13929W        W75383   4.924  27.127   2.817
13930W        W75384  26.542  27.046   1.919
13931W        W75385  38.433  26.969   4.813
13932W        W75386  31.029  25.185   0.734
13933W        W75387   8.756  30.648  10.504
13934W        W75388  31.096   2.814   0.786
13935W        W75389  26.494  24.571  14.395
13936W        W75390  36.847  32.061   4.192
13937W        W75391  18.128  22.643   0.753
13938W        W75392   0.419  14.774  12.358
13939W        W75393  31.534   6.688  10.970
13940W        W75394   4.842   3.890   0.469
13941W        W75395   9.666  33.900   5.692
13942W        W75396  44.311   5.753  10.994
13943W        W75397   0.467   5.812   2.235
13944W        W75398  14.165  23.547   3.332
13945W        W75399  23.593  30.492   3.754
13946W        W75400   8.785  36.434  12.984
13947W        W75401  38.059   2.290  14.805
13948W        W75402  12.332   1.846   4.632
13949W        W75403  27.969  44.503  13.383
13950W        W75404   4.237  16.146  10.567
13951W        W75405  40.391   1.841   2.280
13952W        W75406  23.156   8.671  13.507
13953W        W75407  34.927  31.550  10.614
13954W        W75408  43.014  15.089  11.957
13955W        W75409  21.134  11.337  14.480
13956W        W75410  12.763  12.648  10.430
13957W        W75411  13.223  34.037   0.364
13958W        W75412  30.129   3.783   3.291
13959W        W75413  11.242  14.323  14.995
13960W        W75414  43.997   2.282  14.822
13961W        W75415  24.998   1.892  11.113
13962W        W75416  13.658  40.991  14.789
13963W        W75417  32.469   7.195   0.478
13964W        W75418  24.084  10.359   4.833
13965W        W75419   9.888  40.923  12.977
13966W        W75420  27.494  43.350   3.689
13967W        W75421  32.891   4.387   2.696
13968W        W75422  24.692  41.923  11.032
13969W        W75423   9.682   1.859  13.869
13970W        W75424  23.721  13.804  12.868
13971W        W75425  11.255  34.069   0.482
13972W        W75426  11.837   9.196  12.915
13973W        W75427  21.656  17.291   2.885
13974W        W75428  35.582  30.088  13.052
13975W        W75429  12.829  29.666  10.570
13976W        W75430  36.459  23.132  10.621
13977W        W75431  20.750   2.840  14.489
13978W        W75432   6.375  35.085  13.436
13979W        W75433  33.960  41.795  12.859
13980W        W75434  13.623  24.590   3.182
13981W        W75435   0.300  18.119  10.507
13982W        W75436  12.614  34.483  13.812
13983W        W75437  29.926  33.497   2.304
13984W        W75438  14.802   0.902  11.122
13985W        W75439   5.290  23.539   3.295
13986W        W75440  30.027  30.040   4.323
13987W        W75441  34.920  41.939  14.344
13988W        W75442  15.762  36.430   1.443
13989W        W75443  38.996  14.213  13.927
13990W        W75444   0.980   9.817   4.617
13991W        W75445  39.000  34.048   1.739
13992W        W75446  39.823   3.261  13.438
13993W        W75447  17.177  36.920   2.400
13994W        W75448  38.437   9.174  12.409
13995W        W75449  39.947  13.735  13.471
13996W        W75450  40.936  18.065   4.147
13997W        W75451  38.853  15.191  14.849
13998W        W75452  14.611  21.626   1.370
13999W        W75453  42.786  12.201  12.566
14000W        W75454  13.218  29.019  11.069
14001W        W75455  38.875  19.122   1.769
14002W        W75456  21.167  38.395   2.847
14003W        W75457  11.231  22.159   1.253
14004W        W75458  30.139  26.193   3.819
14005W        W75459  13.244  25.207   4.200
14006W        W75460   7.353  26.029   4.618
14007W        W75461  33.095   0.988   0.403
14008W        W75462  22.604  20.639   2.280
14009W        W75463  23.728  12.151   0.429
14010W        W75464  27.495   2.343   2.364
14011W        W75465  30.132   9.691  13.417
14012W        W75466  24.668   3.745   4.687
14013W        W75467  36.090  41.321  13.543
14014W        W75468  33.129  25.707   0.858
14015W        W75469   3.233   3.940  12.937
14016W        W75470  11.295  36.449   2.248
14017W        W75471  34.922  24.040   4.355
14018W        W75472  39.909  43.278   1.440
14019W        W75473  27.961  15.284  12.986
14020W        W75474  32.453  10.808   5.310
14021W        W75475  24.178  26.489   1.790
14022W        W75476  23.016  40.347  13.430
14023W        W75477  30.443  23.708   0.787
14024W        W75478  14.773  39.949   3.783
14025W        W75479  33.421  18.579  14.969
14026W        W75480  15.581  14.238   4.256
14027W        W75481   4.940   6.364   4.735
14028W        W75482  35.086  14.255  11.125
14029W        W75483  16.569  28.157   0.789
14030W        W75484  17.254  17.674   2.665
14031W        W75485   0.483   7.306   1.870
14032W        W75486  30.115   1.415   2.741
14033W        W75487   1.882  29.474   1.902
14034W        W75488  29.471  21.719  13.311
14035W        W75489  27.944   3.346   3.290
14036W        W75490  17.291   9.297   0.938
14037W        W75491  21.135  33.129   4.723
14038W        W75492  40.885  30.107  10.416
14039W        W75493   8.310  35.891  12.926
14040W        W75494  37.471  44.959  10.526
14041W        W75495   8.202  34.005   2.196
14042W        W75496  43.360  10.311  11.927
14043W        W75497  35.515  28.978  12.513
14044W        W75498   9.246  29.140  14.379
14045W        W75499  33.097  41.494   3.793
14046W        W75500  35.604  36.843  12.864
14047W        W75501  24.197  41.012  11.477
14048W        W75502  13.324  44.854   4.784
14049W        W75503  37.568  12.213  12.853
14050W        W75504   8.180  42.796  10.890
14051W        W75505  30.999  34.450  14.803
14052W        W75506  28.098  38.847  12.382
14053W        W75507  36.941   7.201   0.956
14054W        W75508  11.743  12.123  11.567
14055W        W75509  43.467  43.296  13.336
14056W        W75510   1.777  23.128  12.873
14057W        W75511  27.047  38.508   3.709
14058W        W75512  36.434  16.813   3.781
14059W        W75513  12.352  15.266  13.977
14060W        W75514  44.479  32.113  10.570
14061W        W75515  36.361  14.309  13.007
14062W        W75516  29.936  12.265  14.787
14063W        W75517  35.364   0.822   0.248
14064W        W75518  19.097  16.271  13.875
14065W        W75519  18.256  27.012  10.450
14066W        W75520   5.826  33.006  10.014
14067W        W75521  36.894  44.794  12.532
14068W        W75522   9.871  10.161  10.436
14069W        W75523  33.480  28.134   0.955
14070W        W75524  31.136  20.192  11.546
14071W        W75525   3.810  24.025  13.955
14072W        W75526   0.342  35.076  14.413
14073W        W75527  22.552   2.864  13.008
14074W        W75528  34.028  17.576   3.314
14075W        W75529   3.420  25.475  11.601
14076W        W75530  26.579  12.228   3.207
14077W        W75531  29.061  44.398   0.470
14078W        W75532  40.545  14.247  13.922
14079W        W75533   6.868  25.636  10.594
14080W        W75534  10.287  41.790  14.461
14081W        W75535  16.268  28.571  13.352
14082W        W75536  16.611  16.188  12.517
14083W        W75537  29.426  16.153   0.254
14084W        W75538  30.157  17.158   0.359
14085W        W75539  32.032  16.195  11.496
14086W        W75540  43.438  39.927  12.529
14087W        W75541  23.184  19.715   2.410
14088W        W75542  29.439   5.357  12.352
14089W        W75543   8.783  24.624   2.287
14090W        W75544  29.466   4.825   0.933
14091W        W75545  37.909   9.283  11.089
14092W        W75546   3.300  28.566   2.321
14093W        W75547  20.753  41.821   3.371
14094W        W75548  43.428  33.522  10.927
14095W        W75549   9.831   6.371  14.500
14096W        W75550  36.914  22.015   1.910
14097W        W75551  12.708  29.446   5.232
14098W        W75552   4.265  34.518  11.123
14099W        W75553  33.993  34.412   4.196
14100W        W75554  44.444   6.693   2.716
14101W        W75555   3.248  37.844  10.921
14102W        W75556  24.161  35.578  13.398
14103W        W75557  11.757  19.553   2.398
14104W        W75558  35.024   7.256  14.806
14105W        W75559   7.285  44.787   0.759
14106W        W75560  22.503   6.798   1.229
14107W        W75561  43.509  30.052  12.533
14108W        W75562  20.085   6.770  11.504
14109W        W75563  21.649  10.650  12.007
14110W        W75564  20.760  28.631  12.379
14111W        W75565  28.052  21.095   9.920
14112W        W75566  20.746  31.502   4.734
14113W        W75567  42.783  17.252  13.324
14114W        W75568   5.359  20.670   4.697
14115W        W75569  21.248  21.745   5.314
14116W        W75570  25.563  39.057   2.223
14117W        W75571  44.942  40.797  11.470
14118W        W75572  40.044  34.478  14.961
14119W        W75573  43.429  40.021   3.828
14120W        W75574   7.781  11.175   3.671
14121W        W75575  18.557  19.729   3.286
14122W        W75576  30.431  29.153   3.233
14123W        W75577  30.590   8.389   4.238
14124W        W75578  34.991  27.602  14.864
14125W        W75579   0.438   1.272  10.605
14126W        W75580  11.755  21.089   1.911
14127W        W75581  42.798  27.143  10.922
14128W        W75582  39.524   3.440  14.972
14129W        W75583  36.038  26.513   2.179
14130W        W75584  30.463  32.594   3.644
14131W        W75585  36.846  41.037   4.684
14132W        W75586  44.308  35.885   4.187
14133W        W75587   2.264  34.570  11.553
14134W        W75588   7.867  12.731   4.234
14135W        W75589  17.671  42.445  14.503
14136W        W75590  23.694  39.810   1.242
14137W        W75591  13.271  22.715   3.224
14138W        W75592  24.135  26.629  10.987
14139W        W75593   5.303   7.237   4.236
14140W        W75594  43.853  34.093  14.886
14141W        W75595  26.166  23.173  10.447
14142W        W75596   0.795  37.048   3.241
14143W        W75597  38.544  23.140   4.790
14144W        W75598  26.498  14.728  11.075
14145W        W75599   8.823  31.940  12.356
14146W        W75600  33.935  37.355   2.826
14147W        W75601  24.135   8.673   0.756
14148W        W75602  41.815   4.269   3.235
14149W        W75603  22.176  16.138  10.498
14150W        W75604  42.484   3.749  11.597
14151W        W75605  44.867  44.309   4.645
14152W        W75606   0.321  21.153  11.926
14153W        W75607  36.085  41.382  14.282
14154W        W75608   8.686   6.768  12.855
14155W        W75609  37.847  11.667   4.715
14156W        W75610  33.581   8.815  10.982
14157W        W75611  26.970  20.607  14.020
14158W        W75612  21.166   5.257  11.537
14159W        W75613  34.047  31.525  11.907
14160W        W75614  39.476  16.267   1.884
14161W        W75615   8.730  29.550   2.356
14162W        W75616  12.268  16.095   0.483
14163W        W75617  18.663  42.910  11.590
14164W        W75618  10.819  29.127  11.856
14165W        W75619  21.053  18.080   2.807
14166W        W75620  30.916  35.581   2.234
14167W        W75621   7.729  26.702  11.381
14168W        W75622   0.409   3.350  12.454
14169W        W75623  29.130  41.337   0.368
14170W        W75624  20.599  13.730  11.901
14171W        W75625  25.141  35.080   2.324
14172W        W75626  30.482  12.220  11.408
14173W        W75627   6.783  40.507   2.350
14174W        W75628  14.252  33.063  14.025
14175W        W75629  42.280  38.423  11.082
14176W        W75630  29.960   9.652  14.367
14177W        W75631  30.465  27.183  13.397
14178W        W75632   5.825   7.254  12.521
14179W        W75633   9.734  37.563   0.844
14180W        W75634  32.972  39.036   4.214
14181W        W75635  35.857  16.607  13.499
14182W        W75636  12.268   1.743  10.524
14183W        W75637   8.370  29.988  12.939
14184W        W75638   1.272  19.629  13.516
14185W        W75639  34.490  19.682   1.721
14186W        W75640  19.748   8.877   0.343
14187W        W75641  19.064  33.483  12.085
14188W        W75642  42.336  40.439  14.849
14189W        W75643  14.662   0.894   2.313
14190W        W75644  33.616  33.543  14.411
14191W        W75645  28.496  21.679  10.894
14192W        W75646   0.388  19.562  10.485
14193W        W75647  15.183  37.970   4.650
14194W        W75648  37.841   6.805  12.028
14195W        W75649  35.592   5.405  13.339
14196W        W75650  39.474  12.693  14.290
14197W        W75651  33.995  16.171  14.366
14198W        W75652  22.042   6.745   9.442
14199W        W75653  44.354  41.881   1.790
14200W        W75654   2.327  31.016   4.176
14201W        W75655  35.867  34.448   3.762
14202W        W75656   2.368  11.685   2.820
14203W        W75657  13.727  16.269  13.351
14204W        W75658   2.845  34.868   2.400
14205W        W75659  22.722  36.023  14.474
14206W        W75660   2.398  21.241   2.854
14207W        W75661   8.277  43.310  12.075
14208W        W75662  17.714  16.139  14.009
14209W        W75663   1.913  33.995  14.851
14210W        W75664  31.968  43.914   2.290
14211W        W75665  38.511  42.308  12.879
14212W        W75666   0.973  21.132   3.347
14213W        W75667  15.289  23.176   2.777
14214W        W75668  20.565  21.680  13.030
14215W        W75669  39.836  34.417   0.350
14216W        W75670   5.208   3.243   1.442
14217W        W75671  41.466  32.485  10.466
14218W        W75672  15.775  24.136   3.763
14219W        W75673  31.632   3.319   0.317
14220W        W75674  19.209  16.277   4.165
14221W        W75675  10.270  25.549  13.362
14222W        W75676  41.810  26.070   4.754
14223W        W75677  40.900  44.933  13.398
14224W        W75678  12.625  11.216  10.601
14225W        W75679   7.241  11.668   3.297
14226W        W75680  35.015  24.584   4.637
14227W        W75681  12.690  11.753   1.733
14228W        W75682  42.785  19.610  14.454
14229W        W75683   3.862  44.906   3.801
14230W        W75684   3.412  35.500  12.525
14231W        W75685  43.863  14.333  13.990
14232W        W75686  22.737  43.854   3.791
14233W        W75687  28.126  43.413   0.351
14234W        W75688  12.685  31.464  14.988
14235W        W75689  44.901  27.139   1.883
14236W        W75690   3.267  41.395   1.926
14237W        W75691  28.469   7.277   1.401
14238W        W75692   9.322  43.351   2.735
14239W        W75693   8.189  27.952   4.277
14240W        W75694   7.355  38.472   1.907
14241W        W75695   5.298  15.177  14.276
14242W        W75696  17.677   8.801   2.891
14243W        W75697  28.120  32.441  10.911
14244W        W75698  25.042  32.063   0.360
14245W        W75699  23.692  12.647   1.816
14246W        W75700  14.834  22.052  13.405
14247W        W75701   0.895  42.503  11.573
14248W        W75702  24.725  14.218  11.052
14249W        W75703  25.126   4.298   0.930
14250W        W75704  15.820  30.641  14.772
14251W        W75705  36.061  32.530   4.345
14252W        W75706   0.493  19.629   2.309
14253W        W75707  31.092  19.259   1.226
14254W        W75708  12.709  14.658  10.029
14255W        W75709  21.220   7.172  11.942
14256W        W75710   3.228  30.061  11.004
14257W        W75711  44.360   2.865  14.337
14258W        W75712  17.151  42.370  14.877
14259W        W75713   0.436  14.262   3.288
14260W        W75714  33.028  35.918   0.444
14261W        W75715  27.688  39.536   0.315
14262W        W75716  25.123  28.604  13.882
14263W        W75717   3.873  25.504   3.317
14264W        W75718  24.035   3.445   4.609
14265W        W75719  16.676   3.852   2.748
14266W        W75720   6.862   4.810   4.191
14267W        W75721  40.958  23.093   2.852
14268W        W75722  27.028  44.422  11.075
14269W        W75723  37.380  43.961  10.974
14270W        W75724   9.180  28.521   4.327
14271W        W75725  26.974  19.590  12.931
14272W        W75726  35.952  39.383   0.886
14273W        W75727   5.907  17.633   4.248
14274W        W75728   3.790  36.949  13.030
14275W        W75729  11.340  38.865   2.673
14276W        W75730  30.007   7.829   0.334
14277W        W75731  11.183   6.783  11.931
14278W        W75732  13.250  11.361   2.697
14279W        W75733  44.840  19.721  11.563
14280W        W75734  10.808  34.967  11.559
14281W        W75735  13.244  30.046   4.337
14282W        W75736   6.747  29.049   2.769
14283W        W75737  19.714  11.265   2.282
14284W        W75738   6.352   4.405  14.490
14285W        W75739  36.482  12.144  13.908
14286W        W75740  41.986  43.489  11.493
14287W        W75741  43.784  11.674  12.554
14288W        W75742  15.648  31.982  14.984
14289W        W75743  16.597  30.466  10.899
14290W        W75744  41.941  34.915  10.430
14291W        W75745  15.255  34.086   0.253
14292W        W75746  11.156   2.901  10.436
14293W        W75747   8.732  16.638  11.085
14294W        W75748  24.556  38.420   3.691
14295W        W75749  39.502  37.467  12.969
14296W        W75750  10.728  15.674  10.529
14297W        W75751  34.956  30.460   2.254
14298W        W75752  44.003  29.547  12.908
14299W        W75753  30.587   7.362   1.249
14300W        W75754   6.377  32.561   4.348
14301W        W75755  39.809  21.213   0.290
14302W        W75756  17.213  28.514  10.058
14303W        W75757   9.876  27.073   2.683
14304W        W75758   0.829  37.460  14.866
14305W        W75759  41.431  36.578   4.265
14306W        W75760  37.393   8.665   3.781
14307W        W75761  14.703  22.168  13.012
14308W        W75762  24.087   0.753   1.889
14309W        W75763  11.672  41.811   0.331
14310W        W75764  26.003  14.255  12.016
14311W        W75765  39.323  16.082  13.912
14312W        W75766  12.132   5.811   3.312
14313W        W75767  20.087  25.596   0.823
14314W        W75768  26.973  26.572   2.754
14315W        W75769  24.001  37.527   2.365
14316W        W75770  41.302  24.480   3.695
14317W        W75771   5.253  25.160  11.038
14318W        W75772  42.448  22.568  13.980
14319W        W75773  26.585   0.913  12.521
14320W        W75774  23.022   0.432  13.004
14321W        W75775  42.430   3.241   4.293
14322W        W75776  39.483  15.226   2.365
14323W        W75777  33.454  28.561  10.899
14324W        W75778  29.092   4.434   3.831
14325W        W75779   8.367  21.178   4.610
14326W        W75780  19.043  43.949   0.269
14327W        W75781  40.908  17.607  14.440
14328W        W75782  33.016  34.554   1.402
14329W        W75783  17.573  44.845  13.359
14330W        W75784   8.898  38.492   4.695
14331W        W75785  30.460  11.699  13.468
14332W        W75786  10.771  18.760   1.416
14333W        W75787  23.087  28.525  10.443
14334W        W75788   6.258   1.270   0.909
14335W        W75789  34.609  42.379   0.340
14336W        W75790  16.106   3.233   2.334
14337W        W75791   4.800  11.807   3.273
14338W        W75792  34.428   2.964   3.785
14339W        W75793  40.348  38.853   2.260
14340W        W75794  42.431  18.114   0.261
14341W        W75795  21.224   3.260  13.436
14342W        W75796  11.333  23.638   0.484
14343W        W75797  21.054   7.844   1.424
14344W        W75798  37.504  37.059   0.762
14345W        W75799  28.112  13.786  10.894
14346W        W75800   0.390  18.644  10.933
14347W        W75801  22.729  32.974  13.937
14348W        W75802  32.111  32.391  13.835
14349W        W75803  39.345   7.275   2.678
14350W        W75804  22.130   9.351  13.445
14351W        W75805  39.847   3.252   3.350
14352W        W75806  12.673   1.895  13.529
14353W        W75807  16.238  35.975   1.777
14354W        W75808  44.816  26.521   2.188
14355W        W75809  11.839  25.623   3.203
14356W        W75810   2.390  20.638   1.776
14357W        W75811  38.826   4.240  10.639
14358W        W75812  31.465  33.039   2.870
14359W        W75813  44.846  20.077   1.726
14360W        W75814  22.511  18.178  12.560
14361W        W75815  44.300  12.188  10.438
14362W        W75816  20.165  16.721   1.879
14363W        W75817  39.353  39.033   0.748
14364W        W75818  15.236   9.679   1.391
14365W        W75819  39.909  31.989  13.974
14366W        W75820  22.162  38.919  12.360
14367W        W75821  28.075  18.063  14.766
14368W        W75822  33.042  31.453   3.639
14369W        W75823   7.282  36.848   3.175
14370W        W75824  31.065  10.210   2.343
14371W        W75825  14.264  35.045   3.240
14372W        W75826  24.068  28.563  14.489
14373W        W75827  26.491  36.504  10.968
14374W        W75828  15.639  19.657  14.864
14375W        W75829  44.332  28.465   0.474
14376W        W75830  36.978  29.025   2.755
14377W        W75831  38.870  19.234  12.452
14378W        W75832  41.484  24.128  10.428
14379W        W75833  13.247  32.083  14.442
14380W        W75834  20.544  39.549   0.426
14381W        W75835   3.413   2.747   4.271
14382W        W75836  43.912  22.175   3.669
14383W        W75837  39.975   8.362   2.863
14384W        W75838  42.336  39.430   4.695
14385W        W75839  13.802  36.509   2.308
14386W        W75840  24.221  14.736   1.824
14387W        W75841   9.350  15.188   2.845
14388W        W75842  23.646  30.599  12.058
14389W        W75843  21.568  36.435   4.622
14390W        W75844  23.000   2.260  12.922
14391W        W75845   0.951   0.260  14.779
14392W        W75846   4.937  13.304   2.211
14393W        W75847  37.918  10.214  14.958
14394W        W75848  30.951  40.439   3.752
14395W        W75849   3.251  37.991  14.497
14396W        W75850  44.861  36.515  12.436
14397W        W75851  19.771  40.455  11.593
14398W        W75852  40.969  16.572  12.971
14399W        W75853   9.365  39.413   4.185
14400W        W75854  11.349   1.887   3.340
14401W        W75855  28.024   7.853   4.739
14402W        W75856   5.796   0.307  13.805
14403W        W75857   1.804  33.969   2.314
14404W        W75858  38.476   0.465   3.201
14405W        W75859  13.137  42.413   3.664
14406W        W75860  20.216  25.136   1.818
14407W        W75861  14.334  15.690  10.155
14408W        W75862  14.138  16.274   4.225
14409W        W75863   2.814  23.197   1.893
14410W        W75864  38.372   7.302  14.853
14411W        W75865  35.399  17.760  11.403
14412W        W75866   9.230  27.079   3.719
14413W        W75867  36.559  24.032  10.060
14414W        W75868  31.950  43.914   4.182
14415W        W75869  22.693   9.395  13.354
14416W        W75870   5.760  41.808   2.374
14417W        W75871  40.322   0.448   4.198
14418W        W75872  22.144  23.531   0.367
14419W        W75873   6.722  12.162   1.703
14420W        W75874  41.796   4.272   2.357
14421W        W75875  23.526  12.729  11.403
14422W        W75876  43.978  44.004   2.292
14423W        W75877  23.039  43.900  14.832
14424W        W75878  13.658   3.343  10.429
14425W        W75879  43.310  44.923   2.811
14426W        W75880  12.755  22.042  13.881
14427W        W75881  42.358  12.320  12.539
14428W        W75882  21.100  11.803  12.866
14429W        W75883  42.450  21.602   0.479
14430W        W75884  24.057  21.161  10.645
14431W        W75885   3.274   1.974   2.782
14432W        W75886  35.598  27.052  12.012
14433W        W75887   6.897  38.332  13.501
14434W        W75888  20.607  32.107   2.196
14435W        W75889  21.151  26.588  12.071
14436W        W75890   4.335  16.705   3.635
14437W        W75891  28.135  18.151   0.823
14438W        W75892  34.948  17.149   0.764
14439W        W75893   2.235  19.050   4.333
14440W        W75894  28.618  20.663   1.294
14441W        W75895  17.208  15.102   1.404
14442W        W75896  15.140  17.219  11.112
14443W        W75897   0.368  10.718  13.934
14444W        W75898  11.236  27.098   3.827
14445W        W75899   9.225  29.112  11.068
14446W        W75900   1.381  34.865   0.417
14447W        W75901  15.261  23.193   3.694
14448W        W75902  21.598  16.638  14.031
14449W        W75903   6.193  23.189   3.757
14450W        W75904   8.233   2.724   1.221
14451W        W75905   8.384  28.983   0.243
14452W        W75906  41.995   7.821  11.027
14453W        W75907  40.817   1.402   3.265
14454W        W75908   3.952  34.567   2.825
14455W        W75909   3.317   9.873   9.974
14456W        W75910   4.810  25.122   0.377
14457W        W75911   6.297  15.791  14.940
14458W        W75912  21.716  13.815   1.847
14459W        W75913  10.246  38.377  10.920
14460W        W75914  25.153   6.275  14.402
14461W        W75915   9.279  12.244   3.278
14462W        W75916  17.566  27.648   2.750
14463W        W75917  16.663  39.859   3.800
14464W        W75918   1.482  42.021   3.252
14465W        W75919  37.347  11.773  13.415
14466W        W75920  15.795  20.646  10.965
14467W        W75921  40.005  22.020  14.829
14468W        W75922  40.821  39.399   3.341
14469W        W75923  29.624  38.825   1.399
14470W        W75924  12.753  29.445   4.809
14471W        W75925   4.776  12.292  13.515
14472W        W75926   4.802  30.159  14.964
14473W        W75927   3.356   1.239   1.903
14474W        W75928  25.113  37.388  14.805
14475W        W75929  33.443  12.361   0.456
14476W        W75930   0.934  26.625  10.491
14477W        W75931  35.046   3.727   0.772
14478W        W75932  19.095  37.359  13.974
14479W        W75933  13.167   9.312   0.834
14480W        W75934  34.483  22.504   3.737
14481W        W75935  30.589  30.496  12.909
14482W        W75936   5.757   3.851   0.428
14483W        W75937   6.189  11.148  12.502
14484W        W75938  40.979  37.416   3.203
14485W        W75939   6.697  26.469  10.482
14486W        W75940  18.652  33.970   3.201
14487W        W75941  21.091  22.054  10.081
14488W        W75942  43.306  35.915  13.513
14489W        W75943  30.161  32.459   4.725
14490W        W75944  36.858  29.031  14.016
14491W        W75945  44.314  12.648   3.845
14492W        W75946  14.797  30.929  11.019
14493W        W75947  35.498  15.675   4.288
14494W        W75948  22.228  37.482   2.403
14495W        W75949  23.601   1.956   2.738
14496W        W75950  15.791  29.062   2.369
14497W        W75951  17.178   3.400   5.139
14498W        W75952  11.235   6.318   3.246
14499W        W75953  18.278   1.928   1.216
14500W        W75954  37.884  12.191   3.759
14501W        W75955  19.610  32.547  13.033
14502W        W75956  14.834   9.311   2.838
14503W        W75957  43.879   0.811   4.332
14504W        W75958   9.679  22.602  13.379
14505W        W75959   3.408  41.906  13.531
14506W        W75960  30.547  40.959  14.285
14507W        W75961   9.252   0.771   2.750
14508W        W75962  43.848  30.441   3.225
14509W        W75963  36.015  33.392   3.849
14510W        W75964  14.113  29.925  11.958
14511W        W75965  42.873   0.415  12.872
14512W        W75966   0.776  12.348  12.379
14513W        W75967  29.146   6.818   4.751
14514W        W75968   8.720   0.405  11.963
14515W        W75969  19.548  38.997  12.379
14516W        W75970  36.985  35.104  11.516
14517W        W75971  27.477  26.115  11.384
14518W        W75972  36.917   0.369   4.326
14519W        W75973  39.511  20.655  13.809
14520W        W75974   6.862  41.504  11.887
14521W        W75975  27.988   6.841  11.405
14522W        W75976  38.848  23.573   2.752
14523W        W75977  24.636  36.454  13.372
14524W        W75978  21.661  25.644   4.620
14525W        W75979   1.432   5.785   4.714
14526W        W75980  24.073  35.892  12.419
14527W        W75981  28.560  43.337  13.859
14528W        W75982  21.079  42.507  10.551
14529W        W75983  26.570  40.047   2.693
14530W        W75984  10.337  10.685  13.822
14531W        W75985   6.366  14.098  14.298
14532W        W75986  29.432  43.336  11.948
14533W        W75987   1.856  34.955  12.463
14534W        W75988  23.139  36.491  12.830
14535W        W75989  23.705  43.780   2.702
14536W        W75990   1.302   2.332  10.966
14537W        W75991  36.447  28.467  14.839
14538W        W75992  42.421  29.129   1.415
14539W        W75993  15.235  42.514   1.386
14540W        W75994  17.638  33.390  12.928
14541W        W75995  30.504  32.990   3.816
14542W        W75996   0.898   6.820  12.343
14543W        W75997  12.662  18.701   3.310
14544W        W75998   0.949  41.845  13.497
14545W        W75999  44.899   8.219  12.019
14546W        W76000   0.374   4.410   0.814
14547W        W76001  17.123  34.011  13.050
14548W        W76002  30.920   9.210  13.013
14549W        W76003   7.859  27.126   1.293
14550W        W76004  37.337  18.072  12.057
14551W        W76005   9.716   0.481  10.542
14552W        W76006   3.752  26.166  14.780
14553W        W76007  10.378  44.808   3.649
14554W        W76008  26.493   0.438  12.909
14555W        W76009  38.891  24.713  14.012
14556W        W76010  39.522  28.546  10.504
14557W        W76011   5.692  16.785  14.303
14558W        W76012  40.828   3.902  12.026
14559W        W76013  12.359  21.189   2.316
14560W        W76014  13.203   1.420  14.314
14561W        W76015  37.532  12.208   3.234
14562W        W76016  19.238  25.173  12.022
14563W        W76017  13.781  10.719   2.670
14564W        W76018  12.242  24.099  12.549
14565W        W76019   4.426  36.931  10.497
14566W        W76020  11.163   9.734  14.849
14567W        W76021   9.207  30.921  11.101
14568W        W76022   8.790  32.512   1.393
14569W        W76023  23.643  31.044   4.815
14570W        W76024  25.692  19.162   3.780
14571W        W76025  23.028   5.228  11.098
14572W        W76026   1.254  29.996   0.841
14573W        W76027  28.444  13.152   0.363
14574W        W76028  31.131  37.347  14.884
14575W        W76029  36.518   0.848   2.342
14576W        W76030  44.821  19.630   0.259
14577W        W76031  26.154  34.044  11.582
14578W        W76032  40.005  44.002  10.972
14579W        W76033  15.153   0.914   2.336
14580W        W76034  32.964   9.855   3.864
14581W        W76035   0.748  20.265  10.642
14582W        W76036   8.346  31.959   0.838
14583W        W76037  20.214  38.387  10.908
14584W        W76038  12.798  24.665   2.777
14585W        W76039   0.790  39.978   1.300
14586W        W76040  12.253   7.180  10.473
14587W        W76041  14.169  16.198   1.239
14588W        W76042  19.720  37.057  11.437
14589W        W76043  13.219  13.686  10.552
14590W        W76044  26.135  36.496   9.956
14591W        W76045   0.398  35.505  10.575
14592W        W76046  16.118   3.297  12.515
14593W        W76047   4.857  31.563  10.574
14594W        W76048   1.458  14.248   1.381
14595W        W76049  32.029  23.113  11.093
14596W        W76050   4.831  39.953  14.506
14597W        W76051  26.129   7.293  11.997
14598W        W76052  18.221  41.350  14.446
14599W        W76053  27.148  35.044   0.836
14600W        W76054   7.809   0.331  10.606
14601W        W76055  17.281  22.743  13.859
14602W        W76056  42.827  17.307  13.003
14603W        W76057  37.497  14.333  11.486
14604W        W76058  20.734   0.975  13.381
14605W        W76059  33.122  30.441  13.992
14606W        W76060   1.458  33.947   3.304
14607W        W76061  39.510  29.974  11.992
14608W        W76062  37.031  25.706  14.356
14609W        W76063   0.377  16.687  13.950
14610W        W76064  33.016  30.121   1.799
14611W        W76065  30.509  18.158  13.838
14612W        W76066  29.926  38.526   4.286
14613W        W76067  43.771  32.558  12.823
14614W        W76068  29.522  24.194   3.350
14615W        W76069  32.035  22.240   4.835
14616W        W76070   7.239  21.104  12.950
14617W        W76071  18.550  12.836   4.269
14618W        W76072  24.215   0.370  11.960
14619W        W76073  19.558  12.199   1.854
14620W        W76074   4.924   5.378  10.985
14621W        W76075  40.471  39.034  14.291
14622W        W76076  32.507  10.670   2.829
14623W        W76077  21.106  14.602   4.628
14624W        W76078  33.916  29.654   2.386
14625W        W76079  21.150  37.537  12.350
14626W        W76080  12.121  13.272   2.312
14627W        W76081  17.173   3.778  12.069
14628W        W76082   8.766  30.051  13.426
14629W        W76083  22.539  21.163  10.952
14630W        W76084  11.299  44.423  10.566
14631W        W76085   1.304  12.666   0.279
14632W        W76086   9.811  33.964  10.975
14633W        W76087  33.470  16.746  13.897
14634W        W76088   5.411  18.745   4.685
14635W        W76089  24.669  44.266  11.947
14636W        W76090  15.167  28.180  14.500
14637W        W76091   7.356  24.574   1.782
14638W        W76092  28.457  24.483  13.433
14639W        W76093  10.822  34.046   1.774
14640W        W76094   4.333  33.037   1.387
14641W        W76095  14.244  44.448  14.512
14642W        W76096   3.380  34.036  11.975
14643W        W76097  15.591  36.430  14.875
14644W        W76098   1.295  35.474  12.006
14645W        W76099  33.023  34.505   0.953
14646W        W76100  41.323  23.603   4.143
14647W        W76101   8.860  38.045  10.483
14648W        W76102  33.066   5.295  11.921
14649W        W76103  23.081   0.416  11.447
14650W        W76104  14.729  25.081  11.444
14651W        W76105  14.624  30.931   1.820
14652W        W76106  38.404  36.075   4.143
14653W        W76107  30.929  22.147   4.207
14654W        W76108  14.323  29.138   3.333
14655W        W76109  43.014  34.421  12.074
14656W        W76110  25.601  30.969   1.402
14657W        W76111  33.097  18.152  14.897
14658W        W76112   9.741  27.574   0.290
14659W        W76113  28.098  14.609   0.302
14660W        W76114  10.147   6.322  14.945
14661W        W76115  18.145   6.730  12.408
14662W        W76116  31.036   2.750  11.049
14663W        W76117  35.431  12.699  12.513
14664W        W76118  26.140   4.832  11.990
14665W        W76119  43.012  33.110  10.466
14666W        W76120  21.619  18.137  10.003
14667W        W76121  12.630  28.994  10.890
14668W        W76122  33.953  39.906   4.688
14669W        W76123  21.628   0.758  11.457
14670W        W76124  22.081  28.167  12.434
14671W        W76125  31.540  18.745  13.817
14672W        W76126   8.852  17.775  10.993
14673W        W76127  38.835  25.581   1.705
14674W        W76128  27.599  34.404  12.459
14675W        W76129  37.018  19.169  10.890
14676W        W76130  11.800   9.809  11.927
14677W        W76131  43.430  13.817   1.333
14678W        W76132  44.951  18.593   1.275
14679W        W76133  24.978  19.070  13.973
14680W        W76134  27.177  14.761  13.408
14681W        W76135  41.342  33.916   2.230
14682W        W76136  27.009   7.309   0.851
14683W        W76137  19.135  41.792  12.499
14684W        W76138  39.540  20.072   0.368
14685W        W76139  18.066  10.635  14.821
14686W        W76140  42.828  14.273  14.277
14687W        W76141  28.450  14.710   2.781
14688W        W76142  17.139  17.734   3.866
14689W        W76143  41.313  35.411   3.639
14690W        W76144  13.106  43.907   3.263
14691W        W76145  27.066   1.356   4.784
14692W        W76146  40.957  38.519  14.825
14693W        W76147  30.598  10.660  10.970
14694W        W76148  32.560  43.918   2.858
14695W        W76149  19.070   9.865  13.016
14696W        W76150  42.915  33.088   9.930
14697W        W76151  22.746  28.438   0.926
14698W        W76152   0.386  42.912  10.990
14699W        W76153  40.929  20.678  12.883
14700W        W76154  44.876  31.079  12.941
14701W        W76155   2.729  42.847  14.968
14702W        W76156  30.634  30.584  11.599
14703W        W76157  15.119   7.345  11.381
14704W        W76158  22.046  43.852   1.793
14705W        W76159   7.377  22.727   3.830
14706W        W76160  43.799  24.589   4.250
14707W        W76161   1.275  32.599   4.781
14708W        W76162  21.645  42.469  11.555
14709W        W76163   0.938  13.765   3.817
14710W        W76164  37.515  19.132   1.789
14711W        W76165  12.610  38.394   5.680
14712W        W76166   4.878  38.881   5.090
14713W        W76167  37.975  36.043  10.615
14714W        W76168   9.887  25.063   3.684
14715W        W76169  38.478  16.125  13.535
14716W        W76170  38.364  35.926  13.419
14717W        W76171  34.891  19.215   4.302
14718W        W76172  11.622  29.498  10.526
14719W        W76173  23.158  40.015  12.537
14720W        W76174  29.663   5.356  13.945
14721W        W76175  32.439  34.374  13.996
14722W        W76176  39.500  16.227  11.065
14723W        W76177  27.959  24.589   3.844
14724W        W76178  29.642  33.386   1.386
14725W        W76179  25.091  10.684  14.338
14726W        W76180  35.100  20.242  12.352
14727W        W76181   0.461  21.666   3.855
14728W        W76182  14.267  41.013  14.936
14729W        W76183  12.804  26.697  12.541
14730W        W76184  27.607  20.659   0.315
14731W        W76185  16.275  32.111   4.800
14732W        W76186  14.303  17.750  13.837
14733W        W76187  17.170  32.072  12.395
14734W        W76188  39.845  13.291   4.310
14735W        W76189   1.773  33.561   2.873
14736W        W76190  41.826  34.084  10.893
14737W        W76191  26.141  28.634   0.341
14738W        W76192  44.326   2.349  12.063
14739W        W76193   1.835   2.753   2.219
14740W        W76194  10.147  10.715   1.229
14741W        W76195  15.734  19.627   0.251
14742W        W76196  22.048  34.933  12.942
14743W        W76197   0.265  14.782  11.591
14744W        W76198  21.187  20.111  13.514
14745W        W76199  38.007  17.215   1.837
14746W        W76200  28.647  36.517  14.916
14747W        W76201  21.621  26.599   2.885
14748W        W76202  29.600  26.663  13.017
14749W        W76203   3.897  42.892   0.425
14750W        W76204  43.443  32.588   2.678
14751W        W76205  17.636  39.525  13.841
14752W        W76206  11.767  13.645   0.801
14753W        W76207  32.436  31.583  13.976
14754W        W76208  39.047  36.393  14.396
14755W        W76209  40.831  15.186   4.735
14756W        W76210  31.503  15.163   1.405
14757W        W76211  37.985  34.924   3.155
14758W        W76212  11.796  25.154   3.377
14759W        W76213  16.689  26.637   2.751
14760W        W76214  16.136  18.708   0.851
14761W        W76215  40.354   0.845   0.759
14762W        W76216  41.487  25.182  10.946
14763W        W76217  20.101  13.638  12.515
14764W        W76218  25.512  12.780   4.787
14765W        W76219  20.081  40.322   3.282
14766W        W76220  41.500  15.740   3.303
14767W        W76221  38.419  22.725  14.950
14768W        W76222  14.727  17.607   3.173
14769W        W76223  19.774  41.332  12.063
14770W        W76224  18.111  35.008  13.837
14771W        W76225  32.044  37.831  10.629
14772W        W76226   5.244  34.975  13.038
14773W        W76227  10.213  28.101  13.321
14774W        W76228  14.719  16.655  12.855
14775W        W76229  14.764  11.733  13.330
14776W        W76230  20.068  15.782   0.939
14777W        W76231  18.238  18.122  13.961
14778W        W76232  37.502   3.387  14.409
14779W        W76233  32.938  34.068  11.473
14780W        W76234  16.229  32.516  13.410
14781W        W76235  23.027   1.888  12.993
14782W        W76236   1.937  42.315   2.401
14783W        W76237  18.584  42.296  11.524
14784W        W76238  42.398  44.400  14.285
14785W        W76239   9.796  19.066  11.113
14786W        W76240  14.230  40.409  14.373
14787W        W76241  36.898   1.470   0.826
14788W        W76242  26.658   3.391  11.442
14789W        W76243   7.855  41.418  14.798
14790W        W76244   5.352   7.832  10.988
14791W        W76245  27.941  24.495  14.339
14792W        W76246  37.078  18.588   0.383
14793W        W76247  36.993  41.387  11.551
14794W        W76248  10.660  33.425  11.880
14795W        W76249  37.908   4.838  12.562
14796W        W76250  12.265  19.611   4.690
14797W        W76251  11.207   0.319   3.745
14798W        W76252  40.961  22.104   4.284
14799W        W76253   8.738  39.409  14.864
14800W        W76254   7.870  29.522   0.903
14801W        W76255  11.313   0.331   4.210
14802W        W76256   7.820   0.984  13.548
14803W        W76257  12.844   0.825  14.978
14804W        W76258  39.546  41.870  13.972
14805W        W76259  25.496  12.805  14.407
14806W        W76260  36.389  24.206  11.075
14807W        W76261   0.925   4.365   3.768
14808W        W76262  43.007   3.851  12.524
14809W        W76263  42.497  17.268  14.299
14810W        W76264  36.863  27.041   3.246
14811W        W76265   1.377   0.416  12.509
14812W        W76266  27.949  41.022   0.242
14813W        W76267  23.576   3.305  13.818
14814W        W76268   7.772  41.843   4.331
14815W        W76269  17.582  34.083   3.810
14816W        W76270  22.591   6.857   2.208
14817W        W76271  38.902  15.671  12.993
14818W        W76272   4.279  29.168   1.228
14819W        W76273  18.768  11.324   2.243
14820W        W76274  17.070  10.345  12.453
14821W        W76275  26.123   3.255   4.234
14822W        W76276  21.679   1.415   0.307
14823W        W76277  17.119  40.995   5.222
14824W        W76278  17.259  30.049  12.876
14825W        W76279  36.393   8.217   4.756
14826W        W76280   3.754  28.939  13.916
14827W        W76281  26.167  38.956  14.830
14828W        W76282  23.531   7.813   4.266
14829W        W76283  12.334  32.600  11.101
14830W        W76284  26.678  21.223  14.405
14831W        W76285  25.216   0.781  12.556
14832W        W76286  10.243  19.546   2.393
14833W        W76287  19.058  22.595  12.509
14834W        W76288  40.010  12.727  14.398
14835W        W76289  21.192  22.058   2.865
14836W        W76290  22.737  12.674  13.917
14837W        W76291  28.068  37.414  11.085
14838W        W76292   6.706  36.449   2.818
14839W        W76293  17.593  13.749  12.833
14840W        W76294  41.443  23.490   2.757
14841W        W76295  21.103  39.886   1.855
14842W        W76296  42.282  25.215   2.204
14843W        W76297  42.314  38.995   2.209
14844W        W76298  17.164  21.568  10.154
14845W        W76299  21.140  31.016   3.259
14846W        W76300  35.996  10.806  14.347
14847W        W76301  28.044  39.939   3.769
14848W        W76302  31.448  38.402   3.252
14849W        W76303  40.525  38.837   5.257
14850W        W76304  13.234  37.027   4.758
14851W        W76305   2.724  39.435  14.784
14852W        W76306  44.981   0.904   4.114
14853W        W76307   6.337  12.687  11.609
14854W        W76308  37.352   3.902   0.837
14855W        W76309  16.797  18.113  13.388
14856W        W76310  37.891  26.134   0.888
14857W        W76311  41.393  43.782   0.757
14858W        W76312  18.665  28.139  11.438
14859W        W76313  23.172  31.073  12.978
14860W        W76314  22.709   0.459  11.605
14861W        W76315  32.553   9.767   4.789
14862W        W76316  37.512   2.845  14.792
14863W        W76317  12.811  19.554   1.384
14864W        W76318  12.193   3.846   0.479
14865W        W76319  44.402   8.795   1.399
14866W        W76320  11.716   3.332   0.801
14867W        W76321   1.462  22.996  10.478
14868W        W76322  20.523  22.671   2.769
14869W        W76323  21.546  13.186  12.357
14870W        W76324  38.048  15.759   2.305
14871W        W76325  21.177  39.479   0.868
14872W        W76326  32.927  15.713  12.382
14873W        W76327  33.546   2.937   0.891
14874W        W76328  32.509  11.674   0.320
14875W        W76329   2.291  24.108  13.316
14876W        W76330  25.702  32.060   1.400
14877W        W76331  44.413  18.707   0.955
14878W        W76332  43.487  11.341   4.230
14879W        W76333  36.946   8.823   2.895
14880W        W76334  11.816  18.283   2.365
14881W        W76335   2.759  31.645   1.711
14882W        W76336  34.521  13.783   3.327
14883W        W76337  21.746  41.835  11.523
14884W        W76338  31.953   9.385   3.692
14885W        W76339   1.960   8.851   5.307
14886W        W76340   7.313  25.092  13.326
14887W        W76341  43.834  37.387   2.721
14888W        W76342  28.018  36.972  13.890
14889W        W76343  14.590  30.050   4.144
14890W        W76344  30.148  12.835  12.005
14891W        W76345  44.856  17.139  10.524
14892W        W76346  27.544  26.571  13.320
14893W        W76347  10.772  42.991   1.745
14894W        W76348  42.394  40.000   1.789
14895W        W76349  27.981   6.420  12.957
14896W        W76350  11.340  17.201  13.945
14897W        W76351  36.037  14.735  13.810
14898W        W76352  40.039  29.936   3.685
14899W        W76353  39.353  44.951   2.873
14900W        W76354  10.843   1.794   2.829
14901W        W76355  23.019  11.180   3.825
14902W        W76356  18.181  44.006  13.993
14903W        W76357  35.071  41.984  13.536
14904W        W76358   6.196  16.305  10.424
14905W        W76359  44.002   0.753  14.964
14906W        W76360  37.364   2.737  12.491
14907W        W76361   5.919  34.474   3.291
14908W        W76362  25.118   8.811  10.109
14909W        W76363   2.924  28.998  10.602
14910W        W76364   1.293  26.515  11.080
14911W        W76365  44.983  28.974   2.724
14912W        W76366  13.121  44.383   4.630
14913W        W76367   2.364  37.460   3.287
14914W        W76368  11.624  40.530   2.736
14915W        W76369  14.752   1.877   3.680
14916W        W76370  43.886  14.183   1.360
14917W        W76371  20.051  11.273  13.513
14918W        W76372  28.492  16.099   1.828
14919W        W76373  32.613  23.162  14.843
14920W        W76374  24.660  25.706   4.203
14921W        W76375   0.355  22.654  12.456
14922W        W76376  17.573  42.846   1.297
14923W        W76377   7.353  20.541  10.897
14924W        W76378  19.684   9.272  12.870
14925W        W76379  20.048  22.083   0.750
14926W        W76380  12.294  11.266  14.378
14927W        W76381  14.158  40.828  14.390
14928W        W76382  37.974  44.459   2.774
14929W        W76383  29.071  18.222   2.284
14930W        W76384  30.913   9.291   3.837
14931W        W76385  44.380  42.879   3.371
14932W        W76386  17.237  27.582   3.790
14933W        W76387  13.327   9.261   2.292
14934W        W76388  17.613  14.278  13.513
14935W        W76389  20.161  39.530   4.802
14936W        W76390  15.243   6.842  14.913
14937W        W76391   4.943  34.938   0.888
14938W        W76392   3.388  32.915   2.679
14939W        W76393  31.931  40.308   2.707
14940W        W76394  43.294  23.582   0.896
14941W        W76395  33.919  39.979   4.264
14942W        W76396  33.018  44.829   1.902
14943W        W76397   0.412  41.379  10.532
14944W        W76398  15.817  23.116  10.462
14945W        W76399  23.111  38.571   0.817
14946W        W76400   7.259   0.350   1.325
14947W        W76401  18.072   7.838   2.881
14948W        W76402   1.346   0.414   3.341
14949W        W76403  29.973  32.056  12.541
14950W        W76404  21.058   9.883   4.330
14951W        W76405  31.434  10.283  13.866
14952W        W76406  36.003  39.013  11.945
14953W        W76407  18.084   8.677   4.601
14954W        W76408  16.138  10.287   4.185
14955W        W76409  10.364  10.862  13.415
14956W        W76410  35.960  36.089   0.348
14957W        W76411   5.293  37.897   1.916
14958W        W76412  31.563   0.382  11.537
14959W        W76413  34.442  27.640  14.433
14960W        W76414   5.817  38.058  11.878
14961W        W76415  30.000   2.323   0.259
14962W        W76416   2.316   3.788  12.507
14963W        W76417  21.144  21.156   3.234
14964W        W76418  36.076  18.253  12.887
14965W        W76419  27.479  35.989   1.419
14966W        W76420  13.716  41.310  10.952
14967W        W76421  26.082   2.438   4.244
14968W        W76422  20.716   0.928  13.839
14969W        W76423  40.800  16.790   1.251
14970W        W76424  33.383  37.968  14.948
14971W        W76425  22.591  29.452   2.866
14972W        W76426  40.844   9.394  13.048
14973W        W76427  10.707  43.325  11.950
14974W        W76428   6.887  26.093   3.679
14975W        W76429  17.294  40.849   2.415
14976W        W76430  14.802   9.800   2.410
14977W        W76431  24.569  43.962   1.355
14978W        W76432  17.633  34.913   4.172
14979W        W76433  19.131  41.381  12.434
14980W        W76434  14.621  30.154   3.826
14981W        W76435   9.200  20.658   3.759
14982W        W76436  36.526  43.316  14.870
14983W        W76437  16.679  39.369   2.841
14984W        W76438   8.846  21.569  10.105
14985W        W76439  21.723  12.737  10.998
14986W        W76440  32.962  14.780  14.879
14987W        W76441  37.411  37.988  14.307
14988W        W76442   7.250   9.749   2.836
14989W        W76443  35.071   7.331  14.334
14990W        W76444  39.867  31.474   2.793
14991W        W76445  24.147  41.913   3.660
14992W        W76446  26.148  44.315   2.405
14993W        W76447  15.721   4.356  11.038
14994W        W76448  24.718  13.739  11.109
14995W        W76449   1.807  18.125  12.384
14996W        W76450  43.793  24.716   1.295
14997W        W76451  44.429  28.020   4.174
14998W        W76452  27.140  35.984  13.438
14999W        W76453   1.910  29.532   0.922
15000W        W76454  25.158  29.126   4.792
15001W        W76455   1.796   6.810   3.164
15002W        W76456  26.037  28.963  14.854
15003W        W76457  30.603   5.310   2.221
15004W        W76458  37.009  17.583  12.571
15005W        W76459   5.259  14.154  12.423
15006W        W76460   6.187  30.572  10.613
15007W        W76461   6.723  19.158  12.556
15008W        W76462  12.710  12.273   3.374
15009W        W76463  40.029  33.978   0.894
15010W        W76464  38.519  43.516   0.259
15011W        W76465   0.418   1.743   4.726
15012W        W76466   7.885  34.110   2.178
15013W        W76467  31.645  44.936   1.866
15014W        W76468  43.494   4.855  12.370
15015W        W76469   1.869  44.798  13.494
15016W        W76470   1.806  37.019   2.344
15017W        W76471  39.933  26.663   3.785
15018W        W76472  13.757  35.372   0.839
15019W        W76473  13.816  24.543  14.972
15020W        W76474  19.684  10.728   0.917
15021W        W76475  19.725  25.125   4.687
15022W        W76476   8.862  40.499   5.105
15023W        W76477  15.297  38.914  12.045
15024W        W76478  27.491  32.128   9.585
15025W        W76479  23.588  25.652   2.337
15026W        W76480  21.732  19.556  10.514
15027W        W76481  24.503  20.633  11.609
15028W        W76482  36.497  28.140   1.242
15029W        W76483   4.909  36.412   3.315
15030W        W76484  38.859  20.195  12.867
15031W        W76485  21.092  17.775   3.672
15032W        W76486  24.115  43.471  13.991
15033W        W76487   7.844  17.620   2.382
15034W        W76488   5.431  39.532   3.178
15035W        W76489  26.633  13.830  13.827
15036W        W76490  19.256  30.089   2.273
15037W        W76491  31.133   3.424  14.446
15038W        W76492  21.146  34.615  12.572
15039W        W76493  39.434  26.502  12.426
15040W        W76494  44.909  24.976   2.191
15041W        W76495  38.351   1.277  11.438
15042W        W76496  40.908  11.625   1.841
15043W        W76497  43.269  18.266   1.239
15044W        W76498  32.032  44.787   3.850
15045W        W76499  22.135  11.839   4.142
15046W        W76500  11.744  11.755  10.106
15047W        W76501  34.944  35.868   1.444
15048W        W76502  27.666  20.707  12.062
15049W        W76503  42.853  40.831  14.447
15050W        W76504  27.654   9.277  13.850
15051W        W76505  34.506  28.997   4.303
15052W        W76506   2.825  11.243   0.894
15053W        W76507   4.375   9.272  11.022
15054W        W76508  33.440  29.959   2.399
15055W        W76509   2.321  16.192   1.308
15056W        W76510  28.033   8.357   2.204
15057W        W76511  29.932   0.314  11.539
15058W        W76512  33.604  30.590   9.977
15059W        W76513   3.903  12.681   5.157
15060W        W76514  35.023  26.042  13.348
15061W        W76515  12.225   0.943   4.232
15062W        W76516  30.644   9.199  13.403
15063W        W76517  25.018  29.659   0.752
15064W        W76518   5.924  42.405   2.357
15065W        W76519  16.796   4.763   3.739
15066W        W76520  44.500  32.603   4.284
15067W        W76521  11.325   4.831  10.466
15068W        W76522  13.241   4.888  14.853
15069W        W76523  34.075  37.560   0.734
15070W        W76524   6.692  34.605   1.784
15071W        W76525  24.650   2.753  10.055
15072W        W76526  25.473   8.661   3.283
15073W        W76527   7.878  11.151  10.110
15074W        W76528  12.699  40.425   2.205
15075W        W76529  15.240  27.491   4.738
15076W        W76530  12.750  33.617  12.952
15077W        W76531  38.532  13.289  10.988
15078W        W76532  41.908   5.391  11.609
15079W        W76533   3.279  16.604  10.971
15080W        W76534  17.167  22.640   1.759
15081W        W76535  12.655  40.310  14.942
15082W        W76536  16.676  14.264  11.081
15083W        W76537  17.751  19.608   1.341
15084W        W76538   5.823  16.259   0.246
15085W        W76539  14.739  23.209  12.536
15086W        W76540  33.597  25.483  14.820
15087W        W76541  18.164  39.856  14.407
15088W        W76542  23.726  22.528   3.768
15089W        W76543  38.506  23.549  13.929
15090W        W76544  23.501   7.745  10.963
15091W        W76545  32.940  42.807   4.251
15092W        W76546  27.663  31.573  12.386
15093W        W76547  26.125  26.062   5.303
15094W        W76548  36.405   3.296  13.801
15095W        W76549   6.240  10.220  13.874
15096W        W76550  12.264   5.292   2.816
15097W        W76551  34.541  13.705  14.924
15098W        W76552  43.402   6.338   3.683
15099W        W76553  27.470  33.880  13.039
15100W        W76554  41.462   3.273  10.629
15101W        W76555  37.363  20.643   4.790
15102W        W76556  29.098  22.593   0.394
15103W        W76557  27.015  27.579   3.291
15104W        W76558   1.329  20.211  14.798
15105W        W76559  35.373  16.623   0.275
15106W        W76560  12.226  11.300   2.307
15107W        W76561  23.213  35.947  12.923
15108W        W76562   5.313  35.897   0.840
15109W        W76563  40.878  37.894   5.203
15110W        W76564  44.808  39.843   4.206
15111W        W76565  38.820  16.684  13.052
15112W        W76566   1.242  39.003  11.053
15113W        W76567   5.347  19.217  10.911
15114W        W76568  37.084   2.960  10.553
15115W        W76569  10.756  12.744   2.295
15116W        W76570  43.318   3.391   0.287
15117W        W76571  42.868   1.393  14.893
15118W        W76572  22.237  24.119   0.872
15119W        W76573  10.712  35.464   2.663
15120W        W76574  18.733   3.435   0.924
15121W        W76575  41.032  39.944  14.983
15122W        W76576  33.605   7.387   9.960
15123W        W76577  32.063  27.600   1.831
15124W        W76578  14.740  44.936   3.818
15125W        W76579  38.434  15.691  14.855
15126W        W76580  15.655  21.743  11.395
15127W        W76581   9.872  36.867   2.220
15128W        W76582  44.284  35.877   0.856
15129W        W76583  42.860  17.301  14.810
15130W        W76584  44.821   7.286   3.284
15131W        W76585  20.598  44.777  11.420
15132W        W76586  41.800  20.596  12.519
15133W        W76587   7.383   8.792  10.902
15134W        W76588  32.609   4.874  10.980
15135W        W76589   2.275   7.339   2.390
15136W        W76590  20.157  13.824   0.396
15137W        W76591   1.854  40.997   2.271
15138W        W76592  42.780   2.801  12.437
15139W        W76593  29.615  34.434   5.094
15140W        W76594  41.510   8.864  14.990
15141W        W76595  41.462  12.737  13.855
15142W        W76596  22.111   8.807  14.974
15143W        W76597  34.369  19.160   3.266
15144W        W76598   5.887  22.585   2.754
15145W        W76599  14.752  14.103   2.269
15146W        W76600   5.827  40.480   0.359
15147W        W76601  27.960  15.643  10.940
15148W        W76602  33.442  36.452   1.338
15149W        W76603  43.812  36.393   1.330
15150W        W76604  15.199  26.076   4.217
15151W        W76605   9.175   1.322   1.916
15152W        W76606  40.458   0.790  10.642
15153W        W76607   6.245  43.337   1.366
15154W        W76608  25.572  29.108   0.859
15155W        W76609  23.002  29.427   3.348
15156W        W76610  23.229  38.968   2.826
15157W        W76611  13.688  12.347  11.459
15158W        W76612   8.893  25.166   1.828
15159W        W76613  38.007  14.764   2.706
15160W        W76614   3.932  24.581   3.272
15161W        W76615  23.696  31.504  13.396
15162W        W76616  26.069  19.160  13.034
15163W        W76617  27.029  41.463  11.031
15164W        W76618   9.736  38.822  10.527
15165W        W76619  22.007  30.636   3.847
15166W        W76620  19.574   6.192   2.879
15167W        W76621  32.449  10.173   3.651
15168W        W76622  27.617  38.827  11.128
15169W        W76623  21.707  32.040  12.454
15170W        W76624   5.687  16.212   3.171
15171W        W76625  42.002  41.967   2.691
15172W        W76626  37.389  20.644  14.961
15173W        W76627   6.774  40.943   2.224
15174W        W76628  10.207  39.887   0.736
15175W        W76629  35.505  33.121   3.808
15176W        W76630  41.332   8.843   3.830
15177W        W76631  17.065  30.638   2.273
15178W        W76632  34.564  10.861  10.021
15179W        W76633  39.985   8.705  13.367
15180W        W76634  40.432  35.105   1.718
15181W        W76635  25.102  17.266  10.460
15182W        W76636  23.204  28.609  12.541
15183W        W76637  38.072  22.066  10.409
15184W        W76638  43.846  14.716   2.685
15185W        W76639  13.801  23.527  13.465
15186W        W76640  25.135  33.943  11.108
15187W        W76641  43.812   8.822  13.471
15188W        W76642  27.489  23.154   0.810
15189W        W76643  36.857  23.233  14.851
15190W        W76644  39.385  25.069  13.009
15191W        W76645  40.830   7.336  11.080
15192W        W76646  21.036  31.925  10.955
15193W        W76647  25.497  14.251  13.513
15194W        W76648  35.469  19.061   1.407
15195W        W76649  24.060   2.292   0.785
15196W        W76650  31.485  36.403   3.383
15197W        W76651  11.805  33.916  11.031
15198W        W76652   9.359   8.674   3.786
15199W        W76653  22.051  40.039   4.835
15200W        W76654   2.873  21.558  12.866
15201W        W76655  27.650  43.403  13.536
15202W        W76656  28.970  37.999  12.408
15203W        W76657  15.232  36.938   0.369
15204W        W76658  15.224  17.745   9.622
15205W        W76659  16.715   7.312   0.869
15206W        W76660  39.415   9.279   2.759
15207W        W76661   5.238  27.616  11.004
15208W        W76662  24.544   0.467   4.169
15209W        W76663   1.963   4.728  13.393
15210W        W76664  26.081  30.572   2.373
15211W        W76665   9.319   2.904  10.468
15212W        W76666   8.381   2.330   3.359
15213W        W76667   6.822  10.256  11.022
15214W        W76668  36.436   9.251  12.049
15215W        W76669  13.146   9.831  13.372
15216W        W76670  19.181   1.353   0.767
15217W        W76671  19.586  31.999   2.325
15218W        W76672  31.139   2.411  10.413
15219W        W76673  21.235   4.252  12.994
15220W        W76674  26.670  19.261   0.251
15221W        W76675  40.483  36.878  12.847
15222W        W76676  28.969  38.032   4.800
15223W        W76677   4.766  24.668   0.933
15224W        W76678  30.509  15.234   0.886
15225W        W76679   7.876  27.585   3.291
15226W        W76680  19.074  20.210   3.346
15227W        W76681   1.800  12.129  13.400
15228W        W76682  32.982  17.065  12.986
15229W        W76683  19.068  15.783   2.229
15230W        W76684  15.734  10.786   2.860
15231W        W76685   1.864  30.059  12.395
15232W        W76686   7.385   1.451  13.527
15233W        W76687  14.280   3.400   1.795
15234W        W76688  37.553   3.718  14.939
15235W        W76689  43.768  21.203   1.369
15236W        W76690  34.887  23.152   0.742
15237W        W76691   8.290   2.408   1.779
15238W        W76692   5.825  22.605   4.622
15239W        W76693  12.199  23.522   2.889
15240W        W76694  12.185  14.136  13.980
15241W        W76695  25.473   3.811  14.854
15242W        W76696  23.686   3.428  14.808
15243W        W76697  39.838   1.409  11.547
15244W        W76698  36.349  26.676  11.998
15245W        W76699  33.104  42.826   0.262
15246W        W76700  17.231   5.754  13.413
15247W        W76701   9.772  13.772  12.525
15248W        W76702  23.580  40.476  14.000
15249W        W76703  43.302  36.911  11.884
15250W        W76704  35.954  38.395   1.717
15251W        W76705  26.010  41.423   2.740
15252W        W76706  23.135  24.725   0.242
15253W        W76707  36.900   2.859   0.866
15254W        W76708  24.589  36.449   2.889
15255W        W76709   4.321  12.760  14.424
15256W        W76710  38.859  42.294   1.768
15257W        W76711  32.965  21.050  13.895
15258W        W76712  40.968  30.094   0.298
15259W        W76713  29.028   1.825   0.864
15260W        W76714  22.516  10.142   5.281
15261W        W76715  41.995   4.276  14.326
15262W        W76716  19.063   8.768   1.747
15263W        W76717   9.854  20.165   5.190
15264W        W76718  27.137  37.491  13.882
15265W        W76719  42.502  35.887   2.865
15266W        W76720   2.308   3.936  14.917
15267W        W76721  16.277  15.222  10.602
15268W        W76722  39.372   0.824   2.211
15269W        W76723  39.341  22.567  13.022
15270W        W76724   2.323  29.017   3.676
15271W        W76725  23.546  32.454   0.884
15272W        W76726  37.059  43.852  10.949
15273W        W76727  34.439  30.646  14.920
15274W        W76728  17.302  20.710   3.277
15275W        W76729  22.036  38.023  12.026
15276W        W76730  12.670  28.532  14.295
15277W        W76731   0.888  41.496  14.298
15278W        W76732  13.143  31.991  10.533
15279W        W76733  12.275   2.301  12.564
15280W        W76734  42.823  22.108   1.717
15281W        W76735  36.559  42.409  11.407
15282W        W76736  38.447  27.076   2.752
15283W        W76737   1.906  43.781  14.364
15284W        W76738  14.326  19.561  12.411
15285W        W76739  30.998   9.374   2.268
15286W        W76740  32.018   0.942  14.847
15287W        W76741   6.867  20.249   2.331
15288W        W76742  15.113   8.228  12.352
15289W        W76743   4.404  23.137  11.921
15290W        W76744  41.344   3.917  12.899
15291W        W76745  23.062   1.322   1.289
15292W        W76746  43.808  27.539  14.934
15293W        W76747  29.499  41.529  14.364
15294W        W76748  37.007  33.425  13.910
15295W        W76749   0.897  35.942   5.209
15296W        W76750  41.418   9.167  12.523
15297W        W76751   6.875  40.877  11.103
15298W        W76752  39.488  33.546   4.714
15299W        W76753   1.275  22.616   4.158
15300W        W76754   4.740   1.861   4.343
15301W        W76755  30.920  28.618  14.294
15302W        W76756  39.374  26.208   1.753
15303W        W76757   6.248  13.681   1.823
15304W        W76758  31.029  17.780   3.372
15305W        W76759  34.435  44.402   1.700
15306W        W76760  34.114  23.989  11.470
15307W        W76761   2.324  31.441   1.840
15308W        W76762  35.873  27.450   3.350
15309W        W76763  22.550  37.958  14.813
15310W        W76764  15.304  13.166   3.654
15311W        W76765  28.608  25.637   3.219
15312W        W76766  32.014   2.312   0.245
15313W        W76767  17.206  29.622   4.813
15314W        W76768  41.422  10.155  11.010
15315W        W76769  16.271   1.458   1.441
15316W        W76770  16.670  30.028  14.358
15317W        W76771  26.494   9.195  13.458
15318W        W76772  33.115  28.008   4.638
15319W        W76773  24.598  40.932   3.677
15320W        W76774  26.137  31.975   3.233
15321W        W76775  38.045  22.247   0.890
15322W        W76776  24.673   2.909   5.769
15323W        W76777  34.055   6.836  11.416
15324W        W76778  11.161  31.470  10.540
15325W        W76779   0.870  27.465  13.473
15326W        W76780  27.004  41.429  13.431
15327W        W76781  14.235   5.212  10.926
15328W        W76782  41.467   0.405  12.932
15329W        W76783  36.097  11.188   0.736
15330W        W76784   2.729  34.516   1.707
15331W        W76785   3.934  36.887   4.146
15332W        W76786  20.604  43.933  12.380
15333W        W76787   2.823  26.505   2.394
15334W        W76788   3.233   5.395  10.577
15335W        W76789   5.772   0.452   1.237
15336W        W76790   8.203  41.928  11.429
15337W        W76791  19.702  37.953  11.590
15338W        W76792  36.939   7.270   2.707
15339W        W76793  25.055  31.004  12.528
15340W        W76794  19.241  14.800  13.456
15341W        W76795  21.230  39.831  12.891
15342W        W76796  25.542  13.225   0.303
15343W        W76797  12.194   7.406  11.051
15344W        W76798  33.002  29.514  14.841
15345W        W76799  36.465  40.997   5.103
15346W        W76800  44.456   5.692  12.901
15347W        W76801  15.695   1.453   4.322
15348W        W76802  26.951  37.023  11.107
15349W        W76803  25.084  28.580  10.408
15350W        W76804   5.901   6.232   2.206
15351W        W76805  43.309  30.146  12.901
15352W        W76806   6.824  17.062   4.324
15353W        W76807  40.514  34.952   2.745
15354W        W76808   9.267  24.665   1.227
15355W        W76809   0.785  42.306   3.728
15356W        W76810  31.538  33.427   4.219
15357W        W76811   6.420   3.385  13.505
15358W        W76812   9.872  42.504   1.431
15359W        W76813  20.648   8.690  13.435
15360W        W76814  21.746  38.030  11.375
15361W        W76815  23.020  22.553  12.068
15362W        W76816   5.714  23.544  14.924
15363W        W76817  17.220  12.741   3.328
15364W        W76818  10.240  26.535   0.909
15365W        W76819  27.052   6.360  12.893
15366W        W76820   2.287  44.474   0.790
15367W        W76821  19.681  15.819   2.190
15368W        W76822  14.320  21.020  10.529
15369W        W76823   2.754   7.673  11.384
15370W        W76824  15.236   4.794  12.830
15371W        W76825  27.486  28.661  13.062
15372W        W76826  27.046  13.111   3.347
15373W        W76827   8.214  32.916  12.516
15374W        W76828  15.218  17.768  13.016
15375W        W76829  23.692  23.558   2.814
15376W        W76830  16.077  42.458  13.887
15377W        W76831  18.270  30.463   0.860
15378W        W76832   8.182  38.995   4.691
15379W        W76833  41.904   2.402  14.951
15380W        W76834   1.816  26.633  14.435
15381W        W76835  19.123   7.282   3.255
15382W        W76836  25.700  25.088  10.098
15383W        W76837  21.135  32.423  10.531
15384W        W76838  26.157  40.413   1.805
15385W        W76839  44.450   4.942   4.609
15386W        W76840  43.352  23.184  14.898
15387W        W76841  28.964  44.376  12.061
15388W        W76842  12.200  23.518  14.360
15389W        W76843   6.229  36.088   4.190
15390W        W76844  22.095  13.272  13.892
15391W        W76845  28.590  27.645   1.804
15392W        W76846  36.548  30.948  14.328
15393W        W76847  17.119  21.570   1.884
15394W        W76848  30.977  21.196  11.589
15395W        W76849  33.131  10.705   9.965
15396W        W76850  16.282   6.907  14.393
15397W        W76851  42.443  31.492   2.301
15398W        W76852  22.647  37.579  14.305
15399W        W76853  29.943  41.295   4.248
15400W        W76854  12.645  11.795  13.811
15401W        W76855  22.012  17.657  11.425
15402W        W76856  28.935  35.070   1.922
15403W        W76857  23.581  37.037   4.164
15404W        W76858  14.140  10.336   1.749
15405W        W76859  30.980  43.011  10.068
15406W        W76860  27.034  22.158  13.542
15407W        W76861  14.187  37.338   1.748
15408W        W76862   1.473  13.617   4.748
15409W        W76863  42.847   6.267  12.054
15410W        W76864  12.350  25.203   3.652
15411W        W76865  35.029  23.626   1.862
15412W        W76866  30.616  12.615   2.735
15413W        W76867  44.826  32.421   3.264
15414W        W76868  26.051  10.653  10.494
15415W        W76869  38.474  43.940   9.605
15416W        W76870   0.313  17.304   1.416
15417W        W76871  10.651  44.775   4.755
15418W        W76872   2.784   0.812  10.433
15419W        W76873  32.465   2.861   1.892
15420W        W76874  15.789  11.696   2.207
15421W        W76875   0.320  26.970  11.597
15422W        W76876  10.770   5.732  11.592
15423W        W76877  21.239  12.348   3.718
15424W        W76878   9.650  19.768  11.472
15425W        W76879  33.540   9.274  11.985
15426W        W76880   9.784  31.619   2.893
15427W        W76881  10.154  31.968   2.310
15428W        W76882  24.149  18.162   0.742
15429W        W76883   7.414   2.449  12.381
15430W        W76884   9.240  36.073  11.527
15431W        W76885  13.292   1.266  13.023
15432W        W76886  10.225   8.705  10.976
15433W        W76887  21.522   9.708   4.197
15434W        W76888  13.828  19.703   0.471
15435W        W76889  34.879   7.384  12.474
15436W        W76890   8.334  13.676   1.734
15437W        W76891  34.452  30.626   0.423
15438W        W76892  43.413  17.252  11.540
15439W        W76893   1.937   2.454   2.306
15440W        W76894  39.887  22.026  11.555
15441W        W76895  29.148   1.301  13.948
15442W        W76896  30.610  13.135   4.166
15443W        W76897  22.531   2.392   2.807
15444W        W76898  23.098  11.366   1.274
15445W        W76899   6.820  30.611  13.938
15446W        W76900  32.474  33.458  13.894
15447W        W76901  41.454  39.479   5.185
15448W        W76902  42.941  23.626   4.738
15449W        W76903  11.301  31.578  10.038
15450W        W76904   6.231   2.402  11.543
15451W        W76905   3.294  29.586   3.747
15452W        W76906  17.723  38.911   1.877
15453W        W76907  18.272  10.788   3.810
15454W        W76908  19.755  39.456  11.482
15455W        W76909  23.593   8.679   9.560
15456W        W76910   3.252  31.093   1.314
15457W        W76911  37.074   3.291  14.810
15458W        W76912   2.335  13.189   3.304
15459W        W76913   5.834  10.756  13.312
15460W        W76914   6.686  41.812   2.835
15461W        W76915  28.103  16.749  12.064
15462W        W76916   6.737  28.465   3.812
15463W        W76917  32.487  26.608   2.208
15464W        W76918  18.760   4.761  10.052
15465W        W76919  13.106  40.032   2.356
15466W        W76920  10.177  10.745  12.426
15467W        W76921  36.534  28.112  13.465
15468W        W76922  24.096   4.441   0.444
15469W        W76923  27.169  15.708   2.295
15470W        W76924  20.062   5.337   2.732
15471W        W76925  14.768  13.132   3.182
15472W        W76926  23.167  27.126   1.227
15473W        W76927  19.544  42.862   2.203
15474W        W76928  39.376  24.562  11.982
15475W        W76929  44.003  20.171  14.377
15476W        W76930  43.787  38.930  10.575
15477W        W76931  41.483  34.480  12.356
15478W        W76932  14.149  13.617   1.801
15479W        W76933   1.468   7.193  12.842
15480W        W76934   9.840   8.349  14.851
15481W        W76935  11.348  13.766  13.971
15482W        W76936  27.151  35.361  11.380
15483W        W76937   2.339  12.668   1.753
15484W        W76938  28.651  40.822   3.146
15485W        W76939  18.066  17.152  12.563
15486W        W76940  28.934  16.716  11.901
15487W        W76941  18.749  44.380   1.757
15488W        W76942  11.186   7.891  14.404
15489W        W76943  19.175  41.499  11.974
15490W        W76944   3.817  26.701   0.407
15491W        W76945   5.893  19.655   3.709
15492W        W76946  31.526  31.519  14.942
15493W        W76947  29.474  28.964  12.351
15494W        W76948   9.733  39.819  12.485
15495W        W76949  10.635  44.905  13.423
15496W        W76950  16.643  19.575  14.457
15497W        W76951  38.002  29.001   3.323
15498W        W76952   7.281  44.342   0.887
15499W        W76953   5.858  20.624  10.586
15500W        W76954   0.838  40.798   2.391
15501W        W76955  18.251   6.238   1.824
15502W        W76956   9.209  22.179   1.925
15503W        W76957  25.524  25.548   4.349
15504W        W76958  25.547   5.894  11.378
15505W        W76959  21.596  42.887  12.381
15506W        W76960  44.971  36.033  14.031
15507W        W76961  15.245   7.389  14.281
15508W        W76962  37.509  14.747  14.942
15509W        W76963  25.143  24.066   1.443
15510W        W76964  22.518  27.126  13.924
15511W        W76965  19.537  41.962  10.432
15512W        W76966   6.875  34.555  14.028
15513W        W76967  23.014  12.290  14.843
15514W        W76968   7.802  39.407  12.471
15515W        W76969  38.517  21.162  13.894
15516W        W76970   3.874  36.523  10.579
15517W        W76971  28.622  23.719   3.383
15518W        W76972  29.658  42.852   4.141
15519W        W76973  30.002  19.094  13.023
15520W        W76974  38.426  30.972  14.370
15521W        W76975  34.046   7.690   1.935
15522W        W76976  37.359  16.249  14.025
15523W        W76977  25.979  17.558   1.357
15524W        W76978   0.812  16.146   3.855
15525W        W76979  33.106   7.824   3.736
15526W        W76980  43.956  35.081   4.123
15527W        W76981  38.403  12.256  10.990
15528W        W76982   9.684  26.596  13.459
15529W        W76983   2.851  27.475   0.776
15530W        W76984  33.430  35.571   1.788
15531W        W76985   0.959  16.590  13.351
15532W        W76986  20.054  42.866   0.746
15533W        W76987  35.064  33.561   3.681
15534W        W76988  23.554  24.187  11.372
15535W        W76989  37.936   4.295  10.935
15536W        W76990  14.829  30.514   4.213
15537W        W76991  12.319  14.623  11.879
15538W        W76992   1.953  14.301  14.797
15539W        W76993  11.258  20.729   2.859
15540W        W76994  13.236   6.774   1.821
15541W        W76995  31.545   5.201   2.879
15542W        W76996  42.429  41.969  10.549
15543W        W76997  14.158  11.654  13.049
15544W        W76998  25.111  23.086   2.852
15545W        W76999  20.568  20.064  12.927
15546W        W77000  19.687  25.064   0.815
15547W        W77001  39.900  12.232   1.900
15548W        W77002  38.940  18.269  14.949
15549W        W77003   8.320   6.826  14.351
15550W        W77004  18.148  42.856   2.884
15551W        W77005  41.016  41.946   0.889
15552W        W77006   7.305  32.474  14.948
15553W        W77007  11.162  44.334  12.036
15554W        W77008   3.750  28.004   1.912
15555W        W77009  16.772   4.869   4.798
15556W        W77010  20.106  22.237  14.820
15557W        W77011  17.277   6.253  10.032
15558W        W77012  39.443  31.111  14.505
15559W        W77013  27.065  40.471   0.966
15560W        W77014   6.274  20.528  14.412
15561W        W77015  15.775  16.143  14.932
15562W        W77016  17.561  21.515  11.917
15563W        W77017  31.928  24.005  12.563
15564W        W77018  23.003  25.567   1.797
15565W        W77019  38.532  14.163  12.526
15566W        W77020  32.116  13.743   4.665
15567W        W77021  31.442   2.436  12.579
15568W        W77022  19.214  15.245   1.758
15569W        W77023  41.507  41.528   1.841
15570W        W77024  16.130   5.277  14.406
15571W        W77025  44.481  19.127  11.048
15572W        W77026  26.630  37.348  10.467
15573W        W77027  24.068   1.932   0.344
15574W        W77028  20.071  17.246  14.364
15575W        W77029  10.695  20.214   2.348
15576W        W77030  15.226  20.189   0.804
15577W        W77031  15.698  13.829   3.868
15578W        W77032   4.424   3.830   0.458
15579W        W77033   7.904  37.412   1.854
15580W        W77034  24.049   7.835  14.947
15581W        W77035  15.293  21.233   1.737
15582W        W77036  10.203  39.037  14.367
15583W        W77037  38.514  13.692   3.244
15584W        W77038  20.585  30.923   3.247
15585W        W77039  17.688  40.350   3.280
15586W        W77040  10.151   9.695  14.470
15587W        W77041  42.911  26.195  14.500
15588W        W77042  32.472  28.606   4.809
15589W        W77043  17.603  25.139   3.743
15590W        W77044   6.250  33.575  13.001
15591W        W77045  34.589  24.619  11.055
15592W        W77046  14.176  29.982   1.766
15593W        W77047  27.125  22.086  11.508
15594W        W77048  33.099  17.736   1.748
15595W        W77049  36.413  30.140  11.593
15596W        W77050  41.358  17.089  12.933
15597W        W77051  21.110  42.986  14.901
15598W        W77052  41.806   6.757   2.679
15599W        W77053  32.106  43.458   3.166
15600W        W77054  44.946  42.813   1.383
15601W        W77055  39.860  36.953   1.705
15602W        W77056  37.354  38.052  11.860
15603W        W77057  32.551  40.981   4.175
15604W        W77058  14.277  43.322  12.069
15605W        W77059  12.282  28.455   0.336
15606W        W77060  32.578   9.385   3.806
15607W        W77061  34.071  36.931  11.875
15608W        W77062  42.438  21.656  10.953
15609W        W77063   1.749  13.708   4.768
15610W        W77064   8.685  11.824   3.635
15611W        W77065   2.368  35.364  10.467
15612W        W77066  37.028  11.366   2.732
15613W        W77067   0.839  16.084  13.014
15614W        W77068   0.931  26.607   5.289
15615W        W77069  29.444  35.977   1.440
15616W        W77070   6.748  39.489   4.768
15617W        W77071  43.817   6.184  13.442
15618W        W77072  16.291  13.198  13.031
15619W        W77073  26.458  26.486   3.333
15620W        W77074  12.716  30.432  11.945
15621W        W77075  42.419  21.576  10.510
15622W        W77076  25.989  26.996   1.826
15623W        W77077  11.809  43.831   3.730
15624W        W77078  38.029  14.754  13.997
15625W        W77079   8.220  27.978  10.514
15626W        W77080   6.240  39.855  11.066
15627W        W77081   4.863  41.950  14.411
15628W        W77082  25.598  25.635  11.471
15629W        W77083  15.708  38.011  12.945
15630W        W77084  23.183  20.685   1.218
15631W        W77085  16.087   2.251  12.478
15632W        W77086   6.746  26.481  13.544
15633W        W77087  15.624   4.264   2.821
15634W        W77088  29.975  11.741  12.837
15635W        W77089  39.417  24.572   1.734
15636W        W77090   0.450   6.682  12.900
15637W        W77091   4.259  10.817  11.901
15638W        W77092  42.944  15.663  10.444
15639W        W77093  13.123  28.041   0.434
15640W        W77094  21.578  26.463   1.423
15641W        W77095   4.326  30.586  13.525
15642W        W77096   4.206  17.645  13.045
15643W        W77097   5.764  21.582  14.801
15644W        W77098  25.120  31.926   1.410
15645W        W77099  17.068  13.157  11.979
15646W        W77100  19.732  14.200  14.409
15647W        W77101  15.624  15.779   0.420
15648W        W77102  26.077  41.439   1.865
15649W        W77103  32.976  23.199   2.784
15650W        W77104   5.919  34.436  11.567
15651W        W77105  11.744   3.916   3.837
15652W        W77106  27.606  29.079   1.446
15653W        W77107  28.957   7.875  14.977
15654W        W77108   8.859  36.575  10.492
15655W        W77109  21.613  40.951  12.507
15656W        W77110  16.795  22.513   2.886
15657W        W77111  31.145  19.220   1.768
15658W        W77112  18.579   7.856  11.543
15659W        W77113  32.571   0.886   0.260
15660W        W77114  33.592  35.011   2.318
15661W        W77115  17.243  35.012   5.259
15662W        W77116  25.035  20.225  12.342
15663W        W77117  15.207  15.104  12.478
15664W        W77118  13.299  25.193  14.823
15665W        W77119   4.803  16.590  12.543
15666W        W77120  43.771  42.292   0.256
15667W        W77121  42.485  42.797  12.464
15668W        W77122  22.538   3.728   0.318
15669W        W77123  25.469  41.920  14.399
15670W        W77124  11.270   5.219  10.422
15671W        W77125  41.824  33.936  14.775
15672W        W77126  26.621  11.829   2.390
15673W        W77127  43.515  31.546   3.772
15674W        W77128  12.359  38.868   1.902
15675W        W77129  22.512  14.706   0.251
15676W        W77130  41.842  12.849   1.930
15677W        W77131  41.905  41.033   9.605
15678W        W77132  20.196   5.720   3.672
15679W        W77133  32.497  21.205  13.543
15680W        W77134  10.830  11.717  13.893
15681W        W77135  13.626  16.617   4.791
15682W        W77136  28.617  33.501  11.378
15683W        W77137   4.908  20.716   3.187
15684W        W77138  16.173   0.850  12.352
15685W        W77139  38.523  35.602   2.733
15686W        W77140  38.828  36.882   2.774
15687W        W77141  40.973  43.323   3.293
15688W        W77142  25.571  19.662   1.795
15689W        W77143  15.141  16.166  12.068
15690W        W77144  27.624   3.860   0.443
15691W        W77145  33.896   2.791  14.360
15692W        W77146  41.788  25.210  13.506
15693W        W77147  23.135  35.389  14.929
15694W        W77148  29.451  17.139   2.257
15695W        W77149  30.060  25.070   4.327
15696W        W77150  15.667  36.958   0.945
15697W        W77151  25.473  13.140  14.917
15698W        W77152  41.965  36.544  13.542
15699W        W77153  17.559  25.128  11.538
15700W        W77154  13.119  41.381   0.824
15701W        W77155   7.874  12.770   1.287
15702W        W77156  25.178   9.797   4.599
15703W        W77157   5.259  29.938  11.939
15704W        W77158  16.777  31.967   1.388
15705W        W77159  23.064  44.010  13.501
15706W        W77160  29.965  17.109   3.686
15707W        W77161   3.264  30.060   0.394
15708W        W77162  42.414  43.344  14.940
15709W        W77163  26.113  29.653   2.800
15710W        W77164  32.603  38.328   2.370
15711W        W77165  15.191  33.967  11.544
15712W        W77166  30.475  17.190   3.826
15713W        W77167  40.814  42.014  10.539
15714W        W77168   7.368  37.378   0.863
15715W        W77169  16.108  10.354   5.323
15716W        W77170  41.848  10.253  14.808
15717W        W77171  42.304  11.156   0.821
15718W        W77172  25.576  18.689   0.814
15719W        W77173  27.034   6.867   3.660
15720W        W77174  18.079  30.995  11.960
15721W        W77175  42.872  25.472   3.363
15722W        W77176  36.516  25.702  14.506
15723W        W77177  23.697  40.812  12.877
15724W        W77178  19.780  20.248   2.372
15725W        W77179  17.106   1.329  11.557
15726W        W77180  29.467   8.780  11.471
15727W        W77181  40.498  22.673  11.414
15728W        W77182  28.452   5.833  11.566
15729W        W77183  32.529  10.258  12.015
15730W        W77184  15.150  21.223  14.302
15731W        W77185  27.976  13.221   4.320
15732W        W77186   4.287  12.129   3.868
15733W        W77187  39.357  12.690  11.067
15734W        W77188  18.113   6.305  14.355
15735W        W77189  38.048  25.562  14.899
15736W        W77190  21.575  28.579  14.030
15737W        W77191  30.125  25.705   3.358
15738W        W77192  40.832  43.352  13.480
15739W        W77193  34.595   8.715  14.767
15740W        W77194  24.189  26.093   3.369
15741W        W77195   9.704  42.316   0.406
15742W        W77196  14.252  31.023   4.128
15743W        W77197  17.710  42.448  10.502
15744W        W77198  15.153  24.604   0.840
15745W        W77199  14.279  42.032   3.785
15746W        W77200  20.166  27.995  13.349
15747W        W77201  27.098  31.565  13.441
15748W        W77202   6.897  43.319  13.056
15749W        W77203   4.884  38.475   4.624
15750W        W77204  15.612   0.897  11.593
15751W        W77205  10.142  34.001  13.846
15752W        W77206   0.314  20.602   1.836
15753W        W77207  25.100  25.544   3.780
15754W        W77208  32.938  19.083   3.644
15755W        W77209  37.863   5.753   0.782
15756W        W77210  37.889   3.277  10.581
15757W        W77211  36.580  11.833  11.578
15758W        W77212  19.706  13.718   0.351
15759W        W77213   5.922  16.713   2.379
15760W        W77214  14.709  26.146   4.809
15761W        W77215   0.314  15.626  14.981
15762W        W77216  12.175  30.114  10.475
15763W        W77217  11.335  27.090  14.514
15764W        W77218  23.124   8.843   0.312
15765W        W77219   5.718  40.481  11.373
15766W        W77220  40.922  29.432   4.817
15767W        W77221   0.366  20.087   4.284
15768W        W77222   4.362   0.461   1.240
15769W        W77223  25.161  36.919  10.483
15770W        W77224  31.520  18.124   4.210
15771W        W77225   2.901  13.191   1.861
15772W        W77226  21.179  16.199  12.980
15773W        W77227   2.859   2.376   1.820
15774W        W77228  12.327  19.580  13.860
15775W        W77229  37.864  40.007   0.325
15776W        W77230  39.426  43.019  14.444
15777W        W77231  36.384  32.104   1.325
15778W        W77232  21.082  20.684  13.308
15779W        W77233  42.788  15.094   3.726
15780W        W77234   8.288  29.034  10.621
15781W        W77235   1.768  12.797   3.660
15782W        W77236  42.959   0.975  13.992
15783W        W77237  33.402  39.552   2.764
15784W        W77238   9.270   8.751  12.097
15785W        W77239  22.119  30.429  11.395
15786W        W77240  35.494  29.507  12.956
15787W        W77241  33.935  36.007  11.930
15788W        W77242  34.515  17.606  12.031
15789W        W77243  22.718  41.965   2.292
15790W        W77244  32.465  30.600  14.862
15791W        W77245  24.035  37.910  11.860
15792W        W77246   9.746  44.504  14.964
15793W        W77247  29.562  31.930   1.717
15794W        W77248   5.920  31.436  11.517
15795W        W77249  39.320  14.311  11.963
15796W        W77250  33.425  26.204   1.912
15797W        W77251   1.763  19.717  14.387
15798W        W77252  28.987  39.848  13.965
15799W        W77253   6.687  20.726   2.403
15800W        W77254  34.550  35.384  14.987
15801W        W77255  20.233  20.076   3.366
15802W        W77256  22.602  44.504  12.874
15803W        W77257  37.873   2.960  13.883
15804W        W77258   6.385   7.772   0.389
15805W        W77259  38.543  10.223  13.894
15806W        W77260  31.495   4.329  13.532
15807W        W77261  42.957   3.776   0.846
15808W        W77262   4.762  42.345   4.603
15809W        W77263  43.814   1.815   0.797
15810W        W77264   9.855   0.875  12.880
15811W        W77265  26.561  40.323  13.351
15812W        W77266   4.256  24.070   3.847
15813W        W77267   2.762  24.213  13.496
15814W        W77268  28.042  24.614   5.647
15815W        W77269   8.687   2.761   2.275
15816W        W77270   6.803  44.381   1.237
15817W        W77271  38.820  18.578   2.843
15818W        W77272   8.830  27.955   0.940
15819W        W77273  35.359   7.750   3.327
15820W        W77274   5.787   3.333   2.195
15821W        W77275  31.449  22.637   9.993
15822W        W77276   5.417  14.333  10.608
15823W        W77277   9.269  18.128   3.845
15824W        W77278  19.111   9.783  11.596
15825W        W77279  27.480  22.602  14.332
15826W        W77280  39.443  28.680   4.204
15827W        W77281  20.708  19.143  11.534
15828W        W77282   3.742  31.093   3.716
15829W        W77283  28.674  25.015   0.414
15830W        W77284  11.660   8.832  10.622
15831W        W77285   8.710  32.982  10.930
15832W        W77286  37.469  34.409   0.365
15833W        W77287  12.640  26.120  12.910
15834W        W77288  37.385  30.648  12.570
15835W        W77289  21.680   1.946  14.004
15836W        W77290  29.451  33.409  14.991
15837W        W77291  38.382  10.779  12.990
15838W        W77292   1.280   1.913  14.941
15839W        W77293  43.875  11.373  14.019
15840W        W77294  11.145  28.044   4.204
15841W        W77295  15.602  44.323   2.274
15842W        W77296  31.117  27.558  11.864
15843W        W77297  35.515  23.617   0.296
15844W        W77298  13.684  18.084  14.013
15845W        W77299   4.288   0.384   0.482
15846W        W77300   7.379  10.381  11.076
15847W        W77301  38.914  38.331  11.979
15848W        W77302  16.120  24.599   0.247
15849W        W77303  12.692  28.681  11.936
15850W        W77304  15.185  10.208  13.898
15851W        W77305  20.715   3.883   2.676
15852W        W77306  22.120  10.381  14.479
15853W        W77307  29.476  17.802   2.412
15854W        W77308  38.033  21.624   3.270
15855W        W77309   4.244   5.715   4.680
15856W        W77310  12.355  41.456   3.346
15857W        W77311  10.819  32.134   3.832
15858W        W77312  23.687  25.631   0.841
15859W        W77313   0.483  37.942  14.980
15860W        W77314  38.982  27.966  14.379
15861W        W77315  37.892  40.539   0.474
15862W        W77316  35.481  14.108   3.258
15863W        W77317  39.363   2.923   2.351
15864W        W77318  36.091  38.920  13.377
15865W        W77319   8.715   4.319   3.805
15866W        W77320   0.430  15.087   4.757
15867W        W77321  38.922   4.321  13.517
15868W        W77322  25.582  11.338   4.835
15869W        W77323  33.437  17.285  13.396
15870W        W77324  29.565   7.237  10.934
15871W        W77325  20.131  14.339   4.602
15872W        W77326   1.297  35.540  12.978
15873W        W77327  25.106  17.238   0.791
15874W        W77328   9.867  27.542  14.413
15875W        W77329  36.372  30.559   3.276
15876W        W77330   0.880   2.287   1.891
15877W        W77331   1.899  11.820   3.361
15878W        W77332  19.188  32.092  11.878
15879W        W77333  12.287   5.324  11.573
15880W        W77334  22.529  21.669  14.887
15881W        W77335  40.906  15.207  10.544
15882W        W77336   2.274  12.667  13.382
15883W        W77337  14.816  40.962   5.090
15884W        W77338   6.273   3.836   0.314
15885W        W77339  17.628  31.484  14.793
15886W        W77340  12.851  29.571  12.416
15887W        W77341  15.219  12.349   3.800
15888W        W77342   4.260  24.572  10.502
15889W        W77343  39.827  42.475   4.196
15890W        W77344  43.425  33.574  11.947
15891W        W77345  40.405   2.760   0.831
15892W        W77346  29.127  11.297  13.910
15893W        W77347   2.835  37.024   1.724
15894W        W77348  10.726  14.805   1.694
15895W        W77349  15.092  28.576   0.852
15896W        W77350  16.718  17.588  12.371
15897W        W77351  11.138  15.317  14.323
15898W        W77352  44.324  13.701   2.699
15899W        W77353   5.825   2.260  13.481
15900W        W77354  28.441   6.702   4.257
15901W        W77355  16.783  23.017  11.075
15902W        W77356  33.419  19.226   3.167
15903W        W77357   2.757  44.864   1.712
15904W        W77358  23.606  15.222   4.246
15905W        W77359   3.409  10.262   2.286
15906W        W77360  38.843  25.570   3.705
15907W        W77361   9.195  32.125   1.432
15908W        W77362   7.392  18.546  13.010
15909W        W77363  23.232  34.000  13.997
15910W        W77364   1.905  16.134  12.528
15911W        W77365  14.128  34.438  11.442
15912W        W77366   3.352  16.728   3.351
15913W        W77367  13.144  27.672   3.660
15914W        W77368   7.881  25.197   1.288
15915W        W77369  31.580  25.071   4.339
15916W        W77370  32.524  20.701  10.904
15917W        W77371  37.439  27.002  14.759
15918W        W77372  35.514  37.576   5.265
15919W        W77373  43.497  19.563   4.636
15920W        W77374   2.794  38.834  13.792
15921W        W77375  35.866  25.572   3.842
15922W        W77376   1.288  35.463  13.325
15923W        W77377   6.717  24.155   1.293
15924W        W77378  42.453   9.269  13.541
15925W        W77379  38.539   3.224  11.611
15926W        W77380  33.443  40.971  13.805
15927W        W77381   7.779   8.901  10.552
15928W        W77382  40.504  34.033   0.895
15929W        W77383   5.424   0.305   4.337
15930W        W77384  31.988  39.325   0.476
15931W        W77385   1.468  20.759   1.289
15932W        W77386   8.881   2.458   2.740
15933W        W77387  42.799  34.971   1.931
15934W        W77388   5.853  27.677  11.120
15935W        W77389  23.015  32.467   0.364
15936W        W77390  14.176  22.675   2.781
15937W        W77391  14.247  27.480   0.741
15938W        W77392   4.910   9.157  11.058
15939W        W77393  31.417  29.477  12.963
15940W        W77394  42.808  31.965   3.290
15941W        W77395   1.410   1.798   0.883
15942W        W77396   1.342  44.483  11.874
15943W        W77397  37.450   4.405  14.436
15944W        W77398  13.167  37.434   2.697
15945W        W77399  37.026  17.147  14.000
15946W        W77400  11.799  36.034  14.329
15947W        W77401  44.359  15.275   0.763
15948W        W77402   0.257  28.652  12.991
15949W        W77403   8.317  42.416   2.895
15950W        W77404  21.701  17.068  10.413
15951W        W77405  16.604  12.336  12.484
15952W        W77406  22.099   7.289  11.012
15953W        W77407  31.441   9.785  11.489
15954W        W77408   2.305  12.827  11.971
15955W        W77409  15.315  19.703   0.781
15956W        W77410  13.607  31.909   1.286
15957W        W77411   4.283  21.693   0.481
15958W        W77412  15.202  19.268  13.951
15959W        W77413  19.042  19.246   1.918
15960W        W77414   3.412  41.364  14.492
15961W        W77415  34.886  26.654   0.952
15962W        W77416  24.024  28.006   2.752
15963W        W77417  16.721  13.184   5.143
15964W        W77418  43.791  36.365   4.789
15965W        W77419   7.669  23.557   3.244
15966W        W77420  36.929  36.994  11.050
15967W        W77421  25.617  26.132  10.149
15968W        W77422   8.383  24.568  12.483
15969W        W77423  23.543  42.302   0.801
15970W        W77424  21.715  41.428  10.611
15971W        W77425  31.927  29.602  11.081
15972W        W77426  13.141   5.691   1.263
15973W        W77427  21.122   2.747   3.729
15974W        W77428  12.817  15.248  12.927
15975W        W77429  12.139  20.585  12.436
15976W        W77430  20.558  39.487  11.903
15977W        W77431  35.970  41.451   4.307
15978W        W77432  41.318  31.565   0.482
15979W        W77433   9.654  28.052  11.545
15980W        W77434   8.289   9.837  13.535
15981W        W77435  31.430  40.868   4.645
15982W        W77436  20.273  17.124   2.361
15983W        W77437  10.806  32.055  14.816
15984W        W77438  18.553  16.759   1.857
15985W        W77439  35.554  14.688   1.313
15986W        W77440   2.922   0.888   1.875
15987W        W77441  26.135   7.245  14.943
15988W        W77442  15.661  40.979  11.591
15989W        W77443  13.105  16.148   9.968
15990W        W77444  20.681  31.972  14.898
15991W        W77445  44.829  40.962  13.320
15992W        W77446  35.466  13.253  14.293
15993W        W77447  35.503   5.346   2.308
15994W        W77448  41.528  17.660   4.304
15995W        W77449  27.965  31.915   2.748
15996W        W77450   6.367  20.034  11.962
15997W        W77451   5.698   2.298  12.572
15998W        W77452   8.819  37.385  13.528
15999W        W77453  36.034  13.627   2.686
16000W        W77454  33.061  15.244  13.391
16001W        W77455  17.070  44.806   0.270
16002W        W77456  16.184  28.645  13.998
16003W        W77457  31.569  13.247  10.926
16004W        W77458   9.784   1.440   1.324
16005W        W77459  23.100  31.903   2.784
16006W        W77460  24.495  41.977   0.836
16007W        W77461   8.660  31.054  10.114
16008W        W77462  44.490  11.715   0.350
16009W        W77463  18.620  41.392   4.773
16010W        W77464  16.253   9.222   0.916
16011W        W77465  18.141   8.308  10.989
16012W        W77466  25.132  20.083   4.736
16013W        W77467   1.350  21.027   1.717
16014W        W77468  25.015  20.528   3.793
16015W        W77469   7.794   2.786  13.811
16016W        W77470  25.159  19.075  14.806
16017W        W77471   9.656   4.269   3.789
16018W        W77472  21.617  15.580   3.780
16019W        W77473  42.331  35.501  11.552
16020W        W77474  20.730  42.009   3.670
16021W        W77475  35.389   8.705  14.024
16022W        W77476  33.130   8.782   2.309
16023W        W77477  44.493  22.528  11.549
16024W        W77478   3.906  19.143   4.752
16025W        W77479   1.898   0.478   1.898
16026W        W77480  20.724  28.464   3.757
16027W        W77481  28.941  13.279   4.114
16028W        W77482  20.540  33.451   1.859
16029W        W77483   8.748  23.712  14.927
16030W        W77484  20.112  40.836   4.687
16031W        W77485  12.263  42.968  14.276
16032W        W77486   8.735  41.814   1.252
16033W        W77487  23.526  40.025  12.506
16034W        W77488   7.309  33.887  10.450
16035W        W77489  34.440  43.427   1.852
16036W        W77490   1.823  15.657   2.299
16037W        W77491  31.959  33.513  14.508
16038W        W77492  20.531  23.663   4.781
16039W        W77493  12.712   2.319  11.576
16040W        W77494  36.481   5.273  11.465
16041W        W77495  40.848  42.013   2.766
16042W        W77496   7.681   6.693   4.310
16043W        W77497  10.264  42.295  12.372
16044W        W77498  35.881  29.454   4.178
16045W        W77499   2.953  14.780  14.334
16046W        W77500   4.733   7.753   5.309
16047W        W77501  31.440  28.602  11.106
16048W        W77502  39.325  40.435  10.624
16049W        W77503  12.744  10.710   2.805
16050W        W77504   1.838   7.396   2.666
16051W        W77505  28.459  37.933  14.850
16052W        W77506  31.494   5.407  13.925
16053W        W77507  20.247   5.398  11.075
16054W        W77508  12.183  13.614   0.917
16055W        W77509  36.466  28.155  12.048
16056W        W77510  22.169  26.198   3.650
16057W        W77511  22.243  23.108  13.798
16058W        W77512  22.638  15.250  14.957
16059W        W77513  20.200  21.511  10.942
16060W        W77514   5.864   5.361   2.722
16061W        W77515   6.775  15.084   0.413
16062W        W77516   5.321  35.001   0.342
16063W        W77517   8.329  30.621   1.807
16064W        W77518  42.415  24.676   4.834
16065W        W77519  24.223  44.348   0.956
16066W        W77520  43.996   6.223  14.395
16067W        W77521  19.070  44.382  10.555
16068W        W77522  35.506  42.390  11.959
16069W        W77523  29.563  44.990  12.090
16070W        W77524  25.550  18.155   2.278
16071W        W77525  32.033   6.200  13.831
16072W        W77526  31.036   0.819  12.339
16073W        W77527  17.074  44.371  13.946
16074W        W77528   6.923  35.443  14.459
16075W        W77529  23.034  22.624  14.319
16076W        W77530  23.542  39.823  11.909
16077W        W77531  40.867   6.778  14.857
16078W        W77532   7.181  35.065   4.143
16079W        W77533  38.913  25.604   2.386
16080W        W77534  43.017  30.976   3.685
16081W        W77535  25.075   3.880  14.275
16082W        W77536  12.654   8.237   1.401
16083W        W77537  18.267  17.132  10.479
16084W        W77538   0.785   4.858  13.941
16085W        W77539  14.249  24.563  11.900
16086W        W77540  31.081  31.411  13.467
16087W        W77541   3.456   4.798   2.803
16088W        W77542   2.838  40.965  13.820
16089W        W77543  44.839  27.680   2.182
16090W        W77544   7.882  27.153  12.543
16091W        W77545   1.756   9.310   1.851
16092W        W77546   1.410  28.560  10.568
16093W        W77547  42.480  15.624   1.376
16094W        W77548  15.320  40.811  12.370
16095W        W77549   4.753  43.296  12.388
16096W        W77550   4.321  13.127   1.261
16097W        W77551   4.896  39.520  14.855
16098W        W77552  29.938  26.057  14.834
16099W        W77553   6.399  27.611  11.587
16100W        W77554   6.420  41.484   3.153
16101W        W77555  26.675  35.373  14.406
16102W        W77556   6.679  41.527   3.813
16103W        W77557   6.872  29.445  11.090
16104W        W77558  12.195  22.656   4.830
16105W        W77559   9.176  27.532  11.946
16106W        W77560  28.500  30.119   3.258
16107W        W77561  23.556  16.210   2.777
16108W        W77562  24.060  29.556   2.388
16109W        W77563  11.837   9.652  11.517
16110W        W77564  16.748  25.031  13.924
16111W        W77565   6.266  35.587  11.993
16112W        W77566   0.257  29.943   4.151
16113W        W77567  13.603  31.535   1.785
16114W        W77568  14.244   4.446   3.274
16115W        W77569  15.622  34.913  12.034
16116W        W77570  36.423  24.696   3.185
16117W        W77571  32.064  35.010   3.665
16118W        W77572  36.540   4.787   4.599
16119W        W77573   2.850  19.679  13.480
16120W        W77574  26.480   7.733   0.405
16121W        W77575  22.037  35.061   0.323
16122W        W77576   4.914  27.196   1.253
16123W        W77577  40.049  19.653   3.275
16124W        W77578   7.679   0.860   4.741
16125W        W77579  34.923  30.633  11.545
16126W        W77580  44.403  27.013  12.486
16127W        W77581  42.814   9.700  10.527
16128W        W77582  44.833  12.263  10.931
16129W        W77583  44.351  36.060   1.773
16130W        W77584  37.407  20.114   0.811
16131W        W77585  44.440  17.569  11.494
16132W        W77586  27.501  15.255  10.977
16133W        W77587  37.909  40.798  12.971
16134W        W77588  13.186  27.674   2.260
16135W        W77589  11.269  13.337   2.792
16136W        W77590  43.941  11.704   3.656
16137W        W77591  40.886   5.801  10.625
16138W        W77592  36.409  12.179  12.431
16139W        W77593  20.066  43.852   4.802
16140W        W77594  25.023  11.700  10.982
16141W        W77595  18.569  42.829   5.255
16142W        W77596  32.628   2.933  13.948
16143W        W77597  28.672  26.973  12.910
16144W        W77598  29.531  29.502   4.757
16145W        W77599  40.867  21.074  12.493
16146W        W77600  34.595  27.185   2.183
16147W        W77601  36.908  16.651  11.954
16148W        W77602  19.263  24.008   1.250
16149W        W77603  29.467  30.653  10.536
16150W        W77604  20.673   0.485  12.965
16151W        W77605  19.617  10.749   4.321
16152W        W77606   9.839  27.452  11.909
16153W        W77607  34.057   0.251  11.449
16154W        W77608  13.300   2.967  13.921
16155W        W77609  44.765  25.097  14.927
16156W        W77610  34.113  27.952  12.525
16157W        W77611  15.172   5.789  11.497
16158W        W77612  39.320  32.499   1.703
16159W        W77613  17.585  32.017  11.947
16160W        W77614   0.920  43.881   2.296
16161W        W77615  42.505  24.529  11.026
16162W        W77616   0.333  17.717   3.275
16163W        W77617  33.019   8.205   4.195
16164W        W77618  44.334  40.418  11.567
16165W        W77619   4.832  13.346  12.890
16166W        W77620  40.891  36.472   1.755
16167W        W77621  21.238  35.511  11.067
16168W        W77622  29.930  37.435  13.978
16169W        W77623  17.615   5.329  11.892
16170W        W77624  30.988   2.249   1.845
16171W        W77625  19.774  17.145   2.689
16172W        W77626   7.805  37.996  11.373
16173W        W77627  20.713  16.685  12.007
16174W        W77628  40.534  37.454  10.021
16175W        W77629   9.742  34.503   1.407
16176W        W77630   5.878  27.451  12.503
16177W        W77631  17.157  18.694   1.381
16178W        W77632   2.461  33.526  11.915
16179W        W77633  27.529  12.840  11.499
16180W        W77634  32.613  39.434  11.052
16181W        W77635  43.286  17.765   4.198
16182W        W77636   2.856  44.008   1.289
16183W        W77637  27.990  38.832   0.746
16184W        W77638   2.916  16.707  13.440
16185W        W77639   2.419  36.989   4.262
16186W        W77640  10.731  44.877   1.334
16187W        W77641   2.758  43.511   3.186
16188W        W77642   3.253   8.715   3.751
16189W        W77643  11.653  38.842  10.056
16190W        W77644  39.386  37.341   1.857
16191W        W77645  14.812  11.662  14.866
16192W        W77646  24.618  33.082   0.960
16193W        W77647  27.022  38.513   0.915
16194W        W77648  15.744  28.164   1.294
16195W        W77649  33.945  11.773  10.490
16196W        W77650  25.986   9.218   0.456
16197W        W77651  17.727  23.505   2.713
16198W        W77652  19.105  11.658   0.900
16199W        W77653  35.940  25.172   0.348
16200W        W77654  36.964   8.686  14.830
16201W        W77655   0.371  40.007   4.753
16202W        W77656   6.696  40.046  13.989
16203W        W77657  15.237  19.715  11.935
16204W        W77658  38.948  19.083  11.609
16205W        W77659   0.843  35.416   0.358
16206W        W77660  41.964   8.353  12.512
16207W        W77661  36.899  11.659  10.946
16208W        W77662  30.047   3.925  13.850
16209W        W77663  20.679  43.847   2.323
16210W        W77664  33.976  36.414  11.394
16211W        W77665  38.561   5.746  13.926
16212W        W77666  22.098  15.119  11.866
16213W        W77667   8.267  18.647  12.896
16214W        W77668   4.796  36.516   1.306
16215W        W77669   3.883  33.104   1.302
16216W        W77670   8.283  11.777  13.998
16217W        W77671   2.347  26.578  14.277
16218W        W77672  23.712  15.675   0.475
16219W        W77673   5.351  25.678   4.601
16220W        W77674   2.465  28.040  11.416
16221W        W77675  25.210  20.064  13.547
16222W        W77676  36.093  20.683   1.699
16223W        W77677  41.358   8.339   0.315
16224W        W77678  44.315  43.829   1.332
16225W        W77679  29.141  38.440  13.956
16226W        W77680  24.588  40.430   2.205
16227W        W77681  20.740  26.995  13.407
16228W        W77682  10.312  43.449   0.357
16229W        W77683  11.829  32.948   3.364
16230W        W77684  29.034  31.411   4.147
16231W        W77685  13.340   0.930   2.263
16232W        W77686   8.189   5.416  10.623
16233W        W77687   8.194  25.587   1.865
16234W        W77688  26.087  18.068  10.502
16235W        W77689   7.674  41.830  13.388
16236W        W77690  10.189  10.312   0.891
16237W        W77691   9.298  20.604   0.819
16238W        W77692  26.186  33.010   4.276
16239W        W77693   6.922  44.488   4.816
16240W        W77694  36.066  43.864  12.388
16241W        W77695  24.107  33.104  10.980
16242W        W77696  23.698  40.438  10.561
16243W        W77697  44.997  24.597   3.234
16244W        W77698  23.714  11.339  13.900
16245W        W77699   5.320   3.378  14.892
16246W        W77700  14.153  30.621   3.815
16247W        W77701  42.318  26.184  11.597
16248W        W77702  10.838  15.328  10.642
16249W        W77703  34.992   8.713   1.260
16250W        W77704  31.065  18.249  10.565
16251W        W77705  11.815   7.229   0.431
16252W        W77706  44.336  17.700  12.441
16253W        W77707  17.728  30.095   0.894
16254W        W77708  29.651  41.007   0.449
16255W        W77709   3.849   9.760  13.530
16256W        W77710   1.461  19.738  12.012
16257W        W77711  24.709   1.449  12.489
16258W        W77712  40.972  24.981  12.078
16259W        W77713  19.542  38.944   4.821
16260W        W77714   6.345  11.295  14.907
16261W        W77715  40.467   4.204  13.920
16262W        W77716  15.328   0.746   0.370
16263W        W77717  23.996  18.106   3.687
16264W        W77718  44.457  20.648   0.260
16265W        W77719  21.055  35.040  11.538
16266W        W77720  34.079  25.184   2.792
16267W        W77721  14.768  33.545  10.070
16268W        W77722  34.897  34.515  14.510
16269W        W77723   0.451  34.106  12.943
16270W        W77724  15.088  33.019   4.275
16271W        W77725  35.100   8.397   4.749
16272W        W77726   6.417  15.117  14.935
16273W        W77727  23.680  29.998  13.826
16274W        W77728   0.913   9.764  11.860
16275W        W77729  16.761  32.903  14.960
16276W        W77730   2.948  44.338   1.390
16277W        W77731   7.774  17.777  12.558
16278W        W77732  17.109  10.205  10.955
16279W        W77733  35.970  21.569  12.381
16280W        W77734  34.523  42.954   4.816
16281W        W77735   0.932  17.142  12.863
16282W        W77736  18.559  22.577  14.498
16283W        W77737  27.547  13.129  11.458
16284W        W77738  38.859  27.987   1.386
16285W        W77739  28.628  29.631  12.510
16286W        W77740   7.379  25.506   2.180
16287W        W77741   0.859  31.959  13.530
16288W        W77742  16.639  13.641  12.073
16289W        W77743  24.577  32.466  13.528
16290W        W77744   6.897  24.982  11.057
16291W        W77745  16.101   4.320   0.259
16292W        W77746   0.979  44.345   9.920
16293W        W77747  23.028  41.023  10.486
16294W        W77748  13.693  23.098   2.819
16295W        W77749   9.735  24.159  11.506
16296W        W77750  12.711  14.606  14.971
16297W        W77751  22.619   7.728  12.975
16298W        W77752  21.096  33.034  12.938
16299W        W77753  15.617  27.037  11.074
16300W        W77754  39.891  16.609   4.200
16301W        W77755   7.762  12.295   3.785
16302W        W77756   1.468  40.941   2.308
16303W        W77757  30.462  26.465  12.936
16304W        W77758   8.184  15.769  13.950
16305W        W77759  40.856  12.128   2.756
16306W        W77760  32.010  31.985  12.521
16307W        W77761  39.908  24.596   0.935
16308W        W77762   6.885  21.657   4.664
16309W        W77763   3.823   8.721  13.309
16310W        W77764  43.910  17.722   4.773
16311W        W77765  28.528   5.716   1.825
16312W        W77766  35.511  22.632   0.942
16313W        W77767   3.270  24.079  10.420
16314W        W77768  30.648  37.458   1.802
16315W        W77769  19.731  16.170  12.414
16316W        W77770  34.986  14.631   0.370
16317W        W77771   4.729   1.261   1.758
16318W        W77772  25.679  16.813   0.786
16319W        W77773  16.774  23.023  10.544
16320W        W77774  33.441  42.817  14.331
16321W        W77775  14.627  44.776   4.264
16322W        W77776   8.283  24.998   3.831
16323W        W77777   2.814  13.738  11.000
16324W        W77778  44.925   3.886  12.910
16325W        W77779   6.342  39.995   3.308
16326W        W77780  21.021  26.058  12.957
16327W        W77781  37.879   4.237   3.212
16328W        W77782  19.680   3.245  11.467
16329W        W77783  22.641  23.547   3.865
16330W        W77784   3.823  36.938   3.323
16331W        W77785  21.177   9.838   0.348
16332W        W77786  20.106   4.720  10.926
16333W        W77787   4.345   2.425  14.456
16334W        W77788  27.526   9.306  11.959
16335W        W77789  22.723  20.528  13.897
16336W        W77790  37.910  17.289   1.245
16337W        W77791  42.925  37.417   2.884
16338W        W77792  26.174  29.548  12.342
16339W        W77793  16.221   0.352   3.377
16340W        W77794  32.012  19.206   3.260
16341W        W77795  43.877   9.827   1.371
16342W        W77796   5.287  19.744  14.355
16343W        W77797  36.035  15.740   1.775
16344W        W77798  22.547  17.207   5.282
16345W        W77799   9.193  24.162  14.430
16346W        W77800  12.809  29.931   3.675
16347W        W77801  33.128   0.400  13.377
16348W        W77802  43.817  32.541  13.372
16349W        W77803  43.960   3.452   4.117
16350W        W77804   2.853  28.447  12.448
16351W        W77805  16.095  26.552  13.917
16352W        W77806   4.420  35.602  14.815
16353W        W77807  10.148   5.783  11.413
16354W        W77808  12.236  13.120   2.719
16355W        W77809   2.254  14.246   3.198
16356W        W77810  33.057  39.861   1.448
16357W        W77811  30.067  37.973  11.871
16358W        W77812  20.139  41.807   1.265
16359W        W77813  26.998  10.654  10.602
16360W        W77814  31.919  21.548   3.176
16361W        W77815  37.981  22.529   4.718
16362W        W77816   1.271  24.210   1.248
16363W        W77817  31.071  22.623  12.508
16364W        W77818   6.359  26.995  13.905
16365W        W77819  19.210  25.984   2.356
16366W        W77820  16.651  42.864  11.042
16367W        W77821  39.957  36.402   4.251
16368W        W77822  44.366   1.766  13.498
16369W        W77823   0.815  23.703  14.445
16370W        W77824  21.140  36.368  12.408
16371W        W77825  20.056   7.322   1.866
16372W        W77826  44.489  38.990   2.670
16373W        W77827  35.106   3.927  12.933
16374W        W77828  16.728  32.583   2.237
16375W        W77829  41.894  13.703  10.406
16376W        W77830   1.936  39.455   1.829
16377W        W77831  10.180  21.542   5.104
16378W        W77832  19.053  23.541  13.019
16379W        W77833  32.623   4.331  11.492
16380W        W77834  37.017  41.800  13.039
16381W        W77835  40.033  22.591   4.693
16382W        W77836   8.159  26.665  14.809
16383W        W77837   1.281  30.638   2.183
16384W        W77838   6.421   6.385   2.244
16385W        W77839  15.744  22.029   3.742
16386W        W77840   5.346  28.164  13.917
16387W        W77841  15.280  17.688  11.087
16388W        W77842  19.777  32.578   2.872
16389W        W77843  37.524  12.833   0.930
16390W        W77844  34.544  25.590  13.827
16391W        W77845  10.271  34.048  12.430
16392W        W77846  24.154  39.505   1.932
16393W        W77847  23.227  37.532   3.705
16394W        W77848  39.826  40.915  10.032
16395W        W77849  33.517  24.126   4.772
16396W        W77850  12.325  43.959   0.826
16397W        W77851  17.644  36.921  10.574
16398W        W77852  11.183  19.190   0.782
16399W        W77853  34.989   9.324   0.418
16400W        W77854  32.084  40.901   3.242
16401W        W77855  29.130   9.653  12.496
16402W        W77856   3.723  28.053  14.787
16403W        W77857  18.755  23.595   3.821
16404W        W77858  22.725  39.955  14.449
16405W        W77859  39.451   2.319   2.699
16406W        W77860  29.552  32.598  10.512
16407W        W77861   6.845  18.707   2.254
16408W        W77862  30.037  37.087  13.420
16409W        W77863  30.488  18.698   0.353
16410W        W77864  33.506  14.111   3.832
16411W        W77865  36.382   4.283   4.726
16412W        W77866  28.521  30.098   1.872
16413W        W77867   3.404  19.068   3.842
16414W        W77868  19.071   7.806   5.219
16415W        W77869   8.873  12.829  12.049
16416W        W77870  40.422  27.688  10.434
16417W        W77871  17.232  17.594  14.289
16418W        W77872  32.623  12.800  11.053
16419W        W77873  16.604  28.587  13.391
16420W        W77874  15.731  30.098   1.870
16421W        W77875  41.492  42.413   0.919
16422W        W77876  11.724   2.444  13.331
16423W        W77877  24.175  26.978   0.412
16424W        W77878  37.991  20.567  11.059
16425W        W77879   5.692  20.062   4.285
16426W        W77880   4.699   1.770  11.477
16427W        W77881  18.219  33.045  13.874
16428W        W77882   3.241  43.813   4.218
16429W        W77883  12.826   7.407   4.203
16430W        W77884   9.308   2.795  11.988
16431W        W77885  22.503  42.379   0.281
16432W        W77886  25.207  25.175   1.704
16433W        W77887  35.523   9.172  13.465
16434W        W77888  19.606  10.820   1.895
16435W        W77889  26.174  14.187  12.956
16436W        W77890   0.830  20.255   0.861
16437W        W77891   0.853  42.519  12.062
16438W        W77892  34.031   8.843  11.403
16439W        W77893  41.515  33.050   2.280
16440W        W77894  42.996  10.643   4.214
16441W        W77895  34.985   7.320   0.275
16442W        W77896  40.954  25.086  11.068
16443W        W77897  20.215  14.752  14.872
16444W        W77898  33.615  10.776   1.716
16445W        W77899  31.630  41.518  11.036
16446W        W77900   8.189  10.189  11.459
16447W        W77901  31.621   9.253   3.822
16448W        W77902  12.241   3.230   2.380
16449W        W77903  23.215  28.572   0.765
16450W        W77904  28.948  20.074  12.931
16451W        W77905  16.748  17.801   2.333
16452W        W77906   5.210  37.024  14.335
16453W        W77907  16.583  42.032  13.952
16454W        W77908  15.177  31.564  10.446
16455W        W77909   0.378  33.542   4.723
16456W        W77910  44.858   1.890   4.207
16457W        W77911   6.738  13.753   3.190
16458W        W77912   7.875   8.850   4.707
16459W        W77913  12.614   8.768  14.356
16460W        W77914   7.374   6.389  12.888
16461W        W77915  30.430  33.108   3.293
16462W        W77916   3.938  33.564   2.328
16463W        W77917  10.769  20.759  13.362
16464W        W77918  31.014  27.040   2.889
16465W        W77919  17.175  17.619  11.065
16466W        W77920   3.944   0.464  12.483
16467W        W77921   7.333  10.842  12.427
16468W        W77922   7.395  34.962   0.405
16469W        W77923   8.782  11.297   3.816
16470W        W77924  20.674  28.480  14.304
16471W        W77925  26.486  23.566   2.746
16472W        W77926   8.660  33.963  13.824
16473W        W77927  42.485  44.291   4.799
16474W        W77928  42.375  21.232   1.230
16475W        W77929  29.491  21.644  12.897
16476W        W77930  17.215  40.992  12.075
16477W        W77931   7.761   7.811   3.272
16478W        W77932  10.874  36.482  12.517
16479W        W77933   6.285  40.850   0.281
16480W        W77934   6.347  30.420  10.038
16481W        W77935  39.995  39.955  12.452
16482W        W77936  21.071  28.459  12.493
16483W        W77937   0.976  23.232  11.914
16484W        W77938  20.208  30.447  11.606
16485W        W77939  23.054  36.529  13.456
16486W        W77940  39.836   8.805  14.979
16487W        W77941  17.594  16.761  12.092
16488W        W77942  33.947  19.263  12.934
16489W        W77943   7.319   3.881  12.979
16490W        W77944  20.238   1.361   0.343
16491W        W77945  35.506  44.783   3.705
16492W        W77946  11.354  29.625  12.996
16493W        W77947   7.839  40.307   1.241
16494W        W77948  18.144   2.454  12.070
16495W        W77949   4.445   3.226  14.413
16496W        W77950  32.470  37.523  11.104
16497W        W77951  21.230  33.007  14.294
16498W        W77952  12.151  24.621   1.373
16499W        W77953  32.084  36.877  13.021
16500W        W77954  16.720  24.682   4.295
16501W        W77955   2.950  30.540   3.798
16502W        W77956  17.602  34.005   4.679
16503W        W77957  42.491  11.689  11.016
16504W        W77958  38.526   6.226  11.417
16505W        W77959  43.440  28.093  10.144
16506W        W77960  40.516   3.349   3.247
16507W        W77961  37.978  35.490   3.795
16508W        W77962  28.948   4.857  10.023
16509W        W77963  34.569  15.086  13.948
16510W        W77964  23.546   3.860  13.061
16511W        W77965  23.100   9.336  13.495
16512W        W77966  22.047   5.239  10.456
16513W        W77967  36.947  29.535   1.778
16514W        W77968  21.610   3.410  13.976
16515W        W77969  15.249  38.841   4.113
16516W        W77970   6.879  27.459   3.639
16517W        W77971  19.248  40.856  12.824
16518W        W77972  33.893  20.059  13.800
16519W        W77973  30.639  11.262   3.675
16520W        W77974  40.415  18.082  14.816
16521W        W77975  16.729  39.452   3.274
16522W        W77976   5.426   3.875  13.829
16523W        W77977   4.425  33.581  14.422
16524W        W77978  25.998  14.305   1.387
16525W        W77979   5.430  29.463   1.277
16526W        W77980  41.928  38.861   4.758
16527W        W77981   0.777  33.035   3.793
16528W        W77982  24.096  12.632  12.408
16529W        W77983  10.862  30.498   3.693
16530W        W77984  16.662   2.398  11.889
16531W        W77985  42.860  16.086   0.434
16532W        W77986  16.223  42.808   2.886
16533W        W77987  28.649  44.848   2.767
16534W        W77988  23.518   9.330  13.312
16535W        W77989  30.138  12.275   2.399
16536W        W77990  14.708  31.645  10.471
16537W        W77991  13.773  13.211   1.858
16538W        W77992  23.200   5.248   3.764
16539W        W77993  21.145  20.053   1.845
16540W        W77994  14.746   2.396   0.818
16541W        W77995  35.107  31.502   4.255
16542W        W77996  33.607  42.897   4.339
16543W        W77997  23.004  10.677  12.447
16544W        W77998  34.044  33.471  11.569
16545W        W77999   4.790  42.969  10.640
16546W        W78000  31.982  25.579  14.004
16547W        W78001  43.993   6.743   0.850
16548W        W78002  37.873  26.084  14.941
16549W        W78003  37.919  35.937   5.144
16550W        W78004   2.367  23.601  13.860
16551W        W78005  16.234  44.969  14.323
16552W        W78006   4.703   4.724   2.301
16553W        W78007  42.015   0.453   4.163
16554W        W78008  28.998  25.508   0.865
16555W        W78009  17.094  44.465   0.808
16556W        W78010  32.583  23.627  12.388
16557W        W78011  33.000  13.178  12.462
16558W        W78012  11.210  43.983  10.633
16559W        W78013  26.473  24.591  11.526
16560W        W78014  31.057  41.335  12.385
16561W        W78015   2.310  43.477   1.770
16562W        W78016  10.730  36.052   4.614
16563W        W78017  23.593  34.462   1.804
16564W        W78018  12.820  11.837   3.312
16565W        W78019  22.182  29.627   2.838
16566W        W78020  25.095   5.730  13.341
16567W        W78021  39.429  34.984   2.807
16568W        W78022  28.169  13.684   3.763
16569W        W78023  19.157   3.861  11.045
16570W        W78024  42.440  24.612  13.884
16571W        W78025  33.433  12.133  12.559
16572W        W78026  23.232  36.867   1.239
16573W        W78027  12.176  26.987   0.931
16574W        W78028  40.534  28.544  12.051
16575W        W78029  10.214  43.952  11.085
16576W        W78030  29.964  26.126   1.413
16577W        W78031   0.898  40.016  12.082
16578W        W78032   0.320  28.598   2.679
16579W        W78033  16.625  43.507   3.689
16580W        W78034  34.407  11.627  13.464
16581W        W78035  43.426   3.381  10.483
16582W        W78036  41.323  15.130   1.823
16583W        W78037  44.996  41.327   1.812
16584W        W78038  38.561  28.018  10.618
16585W        W78039  44.423  11.672  12.363
16586W        W78040  27.170  14.201  14.448
16587W        W78041  44.318  30.044  11.901
16588W        W78042   0.268  22.083   4.118
16589W        W78043  33.910  25.193   4.640
16590W        W78044  29.461  40.449  11.556
16591W        W78045  40.863  14.149  10.570
16592W        W78046  14.325   1.829   3.865
16593W        W78047  43.513  36.532   0.779
16594W        W78048  10.815  18.266  10.083
16595W        W78049   0.484  17.783  10.410
16596W        W78050  18.168  37.916  11.567
16597W        W78051  24.668  17.076   0.773
16598W        W78052  33.962  29.556  14.380
16599W        W78053  44.443   0.457   1.439
16600W        W78054  18.108  34.926   4.789
16601W        W78055  42.822  29.550  13.052
16602W        W78056  27.604  23.163   1.267
16603W        W78057  33.086   4.374   3.711
16604W        W78058  30.053  15.237  13.850
16605W        W78059  28.100  36.362   0.393
16606W        W78060   2.954   7.395   0.763
16607W        W78061  18.720   6.892  11.555
16608W        W78062  19.102  31.523  13.049
16609W        W78063  35.926  12.334   3.381
16610W        W78064  34.931  11.139  14.479
16611W        W78065   2.328  20.262   3.853
16612W        W78066  44.288   0.826   2.852
16613W        W78067  24.620   3.326   2.352
16614W        W78068  32.928  39.032  11.533
16615W        W78069  22.061  27.480  11.503
16616W        W78070  32.563  39.472   1.395
16617W        W78071   8.746  40.303  10.635
16618W        W78072  21.673  41.498   0.316
16619W        W78073   4.438  43.787   1.803
16620W        W78074  26.968  31.956   1.431
16621W        W78075  27.446   8.224   1.928
16622W        W78076   7.839  39.816  10.578
16623W        W78077  27.606   1.438  10.944
16624W        W78078  15.773  35.450   2.879
16625W        W78079  23.578  36.494   0.893
16626W        W78080   6.902  18.183   4.198
16627W        W78081  32.053  24.071   2.872
16628W        W78082  11.326  20.641   0.889
16629W        W78083  40.334  23.546   3.674
16630W        W78084  24.494  39.943  14.888
16631W        W78085  27.521   5.735  12.840
16632W        W78086  42.872  31.045   1.243
16633W        W78087  42.022  21.178  13.424
16634W        W78088   1.273   2.311   3.287
16635W        W78089  39.026  32.971  10.608
16636W        W78090  13.110   3.944   2.189
16637W        W78091  33.482  30.464  14.830
16638W        W78092   8.809  43.921  13.870
16639W        W78093  37.375  19.275   2.389
16640W        W78094  12.714  33.409  10.130
16641W        W78095  39.335  44.774   3.252
16642W        W78096  42.405  23.214  13.494
16643W        W78097  16.224  18.272  12.899
16644W        W78098  17.091  32.134   2.215
16645W        W78099  10.282  38.933  13.009
16646W        W78100  15.683  15.087  14.970
16647W        W78101   1.733  26.134   1.705
16648W        W78102  25.125  22.029  14.285
16649W        W78103  14.703   5.832  12.417
16650W        W78104  28.487   7.869  11.899
16651W        W78105  27.997  22.600  13.358
16652W        W78106  18.287  35.495  14.389
16653W        W78107  35.865   3.390   4.322
16654W        W78108   5.771   9.236   2.702
16655W        W78109   4.798  37.998  11.889
16656W        W78110   2.859   4.835   0.944
16657W        W78111  18.095   3.270  10.443
16658W        W78112  13.713  11.792  12.460
16659W        W78113  37.065  10.720  14.940
16660W        W78114   7.233  38.918   0.246
16661W        W78115   1.954  22.997   2.901
16662W        W78116   1.941  28.555   4.311
16663W        W78117   3.343  19.725   1.291
16664W        W78118  30.477  22.231  13.815
16665W        W78119  29.142  38.340  12.954
16666W        W78120  36.036  34.952   4.193
16667W        W78121  13.723   4.786   3.855
16668W        W78122   5.343  17.214  10.158
16669W        W78123   2.863   0.430  11.057
16670W        W78124  40.872  17.638  13.875
16671W        W78125  28.471   5.890  11.992
16672W        W78126  31.946  30.469   4.135
16673W        W78127  22.140   6.896   5.085
16674W        W78128   2.934   3.956   3.350
16675W        W78129  36.368   4.419   3.259
16676W        W78130   5.206   8.249   0.339
16677W        W78131  13.308  15.589   4.731
16678W        W78132  25.586  24.002   1.297
16679W        W78133   2.948  30.940  14.810
16680W        W78134   0.811  16.172   1.329
16681W        W78135  32.515   7.244   2.739
16682W        W78136  42.775  21.598  14.426
16683W        W78137   6.327  18.608  13.892
16684W        W78138  10.810  42.340  13.897
16685W        W78139  44.316   9.780  10.448
16686W        W78140   0.911  15.643  10.585
16687W        W78141   0.340  29.961   4.732
16688W        W78142   1.759   3.258  12.950
16689W        W78143   8.338  35.983   4.766
16690W        W78144  19.753  18.256   4.693
16691W        W78145  33.125  27.554   4.243
16692W        W78146  28.546  15.582  10.542
16693W        W78147  32.011  20.698   4.137
16694W        W78148  44.349  29.118   2.362
16695W        W78149  42.315  34.009  10.919
16696W        W78150  41.352  20.126   0.956
16697W        W78151   0.434  31.003  12.399
16698W        W78152   7.706  42.928   2.788
16699W        W78153  15.704  42.784   4.746
16700W        W78154  12.752  40.359   0.328
16701W        W78155  35.925  21.525   4.617
16702W        W78156  20.270  20.258  10.407
16703W        W78157  14.166   1.785   2.212
16704W        W78158   7.309  39.048   3.694
16705W        W78159  26.660  12.788   1.735
16706W        W78160  28.109  15.254   3.870
16707W        W78161  11.300  14.115  11.087
16708W        W78162  26.593   3.377   2.336
16709W        W78163   5.400  42.407  11.051
16710W        W78164  33.075  44.902  12.495
16711W        W78165  20.249  22.008  10.455
16712W        W78166  40.320  43.881   0.335
16713W        W78167  19.146  34.965   1.351
16714W        W78168  12.848  23.691   1.425
16715W        W78169  17.599  11.829   0.779
16716W        W78170  14.253  31.513   4.176
16717W        W78171  32.440  44.472  10.555
16718W        W78172  11.853  21.177   2.775
16719W        W78173  40.942  18.619  11.955
16720W        W78174  36.897  41.328  11.038
16721W        W78175   6.340  23.505  12.943
16722W        W78176   1.345  24.521   3.273
16723W        W78177   8.195  23.577  11.390
16724W        W78178  20.249  26.190   0.259
16725W        W78179   3.316   9.690   0.389
16726W        W78180  11.841  14.796   4.188
16727W        W78181  14.614   3.860  12.353
16728W        W78182  15.661   4.358  14.481
16729W        W78183  16.079  37.083   0.423
16730W        W78184  19.723  11.687   4.153
16731W        W78185  14.158  18.239  13.482
16732W        W78186   9.795  37.890   3.723
16733W        W78187  36.091  29.044  14.932
16734W        W78188  20.134  16.753  14.386
16735W        W78189  16.695  41.955  14.837
16736W        W78190  27.529  22.124  12.859
16737W        W78191  16.105  29.968  13.798
16738W        W78192  19.620  19.624  10.618
16739W        W78193  14.793  34.606   0.757
16740W        W78194   7.251  28.577   2.352
16741W        W78195  42.856   1.809   1.281
16742W        W78196  11.133  26.159   0.422
16743W        W78197  41.993  13.271   0.332
16744W        W78198   1.294   9.666  12.981
16745W        W78199  26.040  20.078   2.220
16746W        W78200  39.557  34.613   1.254
16747W        W78201  35.079  35.522   0.757
16748W        W78202  15.133   3.319  12.992
16749W        W78203  18.619   1.332  14.280
16750W        W78204  36.025   7.377   3.640
16751W        W78205  44.788  21.519  12.825
16752W        W78206  37.891  40.306  11.407
16753W        W78207  13.740  34.382  13.479
16754W        W78208  23.120  24.121  12.553
16755W        W78209   5.779  43.992   4.267
16756W        W78210  21.051  21.513   3.180
16757W        W78211  22.705  39.522   0.257
16758W        W78212   5.290  16.610  13.393
16759W        W78213  26.165  12.788   0.922
16760W        W78214  25.164  24.516  11.859
16761W        W78215  33.080  26.037   4.815
16762W        W78216  42.913  35.948   4.346
16763W        W78217  41.469   7.326   2.880
16764W        W78218  14.711  34.033  14.413
16765W        W78219   8.357  20.150   4.233
16766W        W78220   3.940  42.825  13.935
16767W        W78221  10.215  40.474   4.170
16768W        W78222  39.817  16.271  11.103
16769W        W78223  28.133  15.099  12.449
16770W        W78224  32.471  29.459   0.907
16771W        W78225  42.942   5.350  10.413
16772W        W78226   4.732  23.539   4.266
16773W        W78227  23.681   1.467  14.412
16774W        W78228  13.722  25.490   3.776
16775W        W78229  29.038  16.687  10.551
16776W        W78230   9.751  19.654   1.760
16777W        W78231  31.932  22.728  14.812
16778W        W78232  25.676  12.196   1.258
16779W        W78233   3.369  36.882  11.994
16780W        W78234  39.011  28.120  13.395
16781W        W78235  16.738  14.594   2.241
16782W        W78236  25.584   6.711  12.926
16783W        W78237  23.567   9.387   3.646
16784W        W78238  39.328   8.721  12.511
16785W        W78239  28.450   1.813   4.135
16786W        W78240  17.076  26.626   1.419
16787W        W78241  12.748   3.891   5.109
16788W        W78242  26.609   3.418   2.826
16789W        W78243   1.851  41.490  12.995
16790W        W78244  37.998  19.184  11.447
16791W        W78245  10.820  37.987  12.431
16792W        W78246  43.867   6.706  10.905
16793W        W78247  44.392   3.216   9.921
16794W        W78248   9.796   2.345  12.957
16795W        W78249  22.251  43.492   2.252
16796W        W78250  21.730  29.951   2.854
16797W        W78251  27.018  20.588   2.292
16798W        W78252  43.940   5.876   4.817
16799W        W78253  35.529   6.332  12.870
16800W        W78254  25.153   5.791   2.217
16801W        W78255  44.867  23.726   3.838
16802W        W78256  31.419  10.381   1.402
16803W        W78257  23.003  25.207  12.959
16804W        W78258  26.624   8.757   9.999
16805W        W78259  28.936   9.709   2.379
16806W        W78260  25.628  44.482   1.820
16807W        W78261  13.717  37.356   3.645
16808W        W78262  20.095  23.598  11.078
16809W        W78263  37.424  39.395  12.545
16810W        W78264  40.908  34.933  11.861
16811W        W78265  24.134  27.521   3.862
16812W        W78266  25.654  29.669   3.301
16813W        W78267  43.344  20.176  12.872
16814W        W78268  42.970  43.795   2.874
16815W        W78269  10.166  36.466  12.917
16816W        W78270  27.137  23.059   2.217
16817W        W78271  26.522  30.493   4.146
16818W        W78272  32.453  23.520  14.892
16819W        W78273  17.106   4.919   2.336
16820W        W78274  15.259  40.339  12.860
16821W        W78275   1.915  19.720   3.306
16822W        W78276  35.503  11.828  10.419
16823W        W78277  23.596  23.662  10.424
16824W        W78278  38.902  20.218  11.976
16825W        W78279   0.257  18.791   1.721
16826W        W78280  25.517  12.794  12.409
16827W        W78281   1.347  22.182  14.790
16828W        W78282   4.728  19.777  12.451
16829W        W78283  28.944  25.044  11.545
16830W        W78284  14.816   6.790  13.530
16831W        W78285  30.140   7.289   2.795
16832W        W78286  18.087  32.416  11.922
16833W        W78287  25.155  40.316   0.807
16834W        W78288  15.215  27.547  13.836
16835W        W78289   6.259   4.334   0.756
16836W        W78290  12.361  33.437  10.049
16837W        W78291  31.015  38.392   1.720
16838W        W78292  13.801  29.640   1.916
16839W        W78293  34.453  36.518   3.360
16840W        W78294   4.240  18.075  13.846
16841W        W78295   0.388   2.331   4.251
16842W        W78296  10.866   1.822  10.606
16843W        W78297  35.546  15.269  11.378
16844W        W78298  29.609   2.762  12.923
16845W        W78299  37.454   9.737   2.296
16846W        W78300  33.989   8.241   2.287
16847W        W78301  16.793  20.727   0.874
16848W        W78302   2.893  34.978   3.728
16849W        W78303  39.822   8.799  11.374
16850W        W78304   7.229   7.364   1.729
16851W        W78305  15.590  21.208   2.733
16852W        W78306  25.138   0.961   4.752
16853W        W78307  16.743   6.767  12.052
16854W        W78308   4.243  41.796  12.056
16855W        W78309  13.623  41.907   3.813
16856W        W78310  32.086  41.912  10.471
16857W        W78311  24.029  12.120  13.056
16858W        W78312  15.802  39.908   1.288
16859W        W78313  23.129  10.332  13.859
16860W        W78314  24.035  44.460   0.413
16861W        W78315  30.576   4.748  11.547
16862W        W78316  16.754  37.485   4.246
16863W        W78317  40.518  12.751  10.627
16864W        W78318   8.699   4.385  12.043
16865W        W78319  40.957  22.158  11.509
16866W        W78320  22.240  30.460   4.173
16867W        W78321  30.509   1.948   4.767
16868W        W78322   2.812  12.155  10.577
16869W        W78323  40.544  23.500  12.571
16870W        W78324  32.057   6.352  10.528
16871W        W78325   2.777  44.844   0.852
16872W        W78326  35.412  11.684  12.489
16873W        W78327  28.022  34.088   0.753
16874W        W78328  41.924  21.207   2.756
16875W        W78329  12.839   8.817  13.401
16876W        W78330  31.532  21.242   1.830
16877W        W78331  15.166  42.451  12.989
16878W        W78332  29.001   1.407  14.788
16879W        W78333   7.384  35.501  13.486
16880W        W78334  32.582  12.847  13.856
16881W        W78335  28.656  17.616  11.112
16882W        W78336  37.944  44.312  11.043
16883W        W78337   0.954  41.948  12.911
16884W        W78338  37.931  13.799  12.854
16885W        W78339   8.300   8.269   1.899
16886W        W78340  37.496  17.617   3.700
16887W        W78341  44.002  42.402   3.326
16888W        W78342  12.680  31.068  11.864
16889W        W78343  29.653  24.075  11.539
16890W        W78344  10.772  24.520  14.949
16891W        W78345  20.529  27.497  13.914
16892W        W78346  44.803   9.363  10.504
16893W        W78347  12.131  43.319  11.514
16894W        W78348  18.729  17.785  13.059
16895W        W78349  34.554  43.993  12.422
16896W        W78350  17.674  20.217   4.160
16897W        W78351  38.365  44.845  13.487
16898W        W78352  18.158   3.451   1.860
16899W        W78353   8.795  38.929   3.842
16900W        W78354  26.624  15.212  11.901
16901W        W78355  10.723  22.242  13.893
16902W        W78356  39.468  13.652  13.425
16903W        W78357   0.429  23.646  11.513
16904W        W78358  13.599  16.205   1.363
16905W        W78359  35.009  33.549   2.722
16906W        W78360  23.574  19.098  11.931
16907W        W78361  23.148  17.770   3.789
16908W        W78362  44.458  38.966   5.284
16909W        W78363   1.430   6.901   2.844
16910W        W78364  35.494  33.552   1.796
16911W        W78365  18.204  24.532   0.350
16912W        W78366  39.961  39.046   0.289
16913W        W78367  20.578  31.084   0.249
16914W        W78368   6.793  13.831   4.777
16915W        W78369  13.332  11.825   3.700
16916W        W78370  25.556  40.023  14.439
16917W        W78371   0.769   2.862  11.542
16918W        W78372  18.269  24.975  10.925
16919W        W78373  26.094   1.947  11.521
16920W        W78374   9.321  45.000   4.664
16921W        W78375  17.732  34.519   2.855
16922W        W78376  14.294  17.749  14.768
16923W        W78377  28.031  18.229   5.104
16924W        W78378  28.507  24.557   1.336
16925W        W78379  16.668  31.151   2.755
16926W        W78380  16.737  29.474   0.860
16927W        W78381  36.416  33.065   3.227
16928W        W78382  35.464   6.259  12.375
16929W        W78383  21.193  34.563   3.288
16930W        W78384  38.504  27.962   4.700
16931W        W78385  16.192  33.575   4.782
16932W        W78386  42.320   1.370   2.318
16933W        W78387  20.271  24.072   2.876
16934W        W78388  25.662  17.785  10.633
16935W        W78389  44.784  39.457  11.104
16936W        W78390  36.964  43.471   5.271
16937W        W78391   1.857  28.003   4.170
16938W        W78392  22.159  10.700   0.952
16939W        W78393  30.551  30.963  14.320
16940W        W78394  11.847  17.151  14.279
16941W        W78395  12.727  16.766  12.033
16942W        W78396   4.721  39.847   0.953
16943W        W78397  21.185  18.738   3.210
16944W        W78398  14.194  36.928   0.417
16945W        W78399  12.320  22.247   2.902
16946W        W78400  27.047  36.512   0.451
16947W        W78401  28.973  26.508  13.402
16948W        W78402  29.969  30.995   0.275
16949W        W78403  32.895   7.386  12.856
16950W        W78404  21.671  11.820  11.059
16951W        W78405  23.167  30.958  14.384
16952W        W78406  33.054   9.875   1.218
16953W        W78407  36.575  40.976   9.660
16954W        W78408  11.629   9.808   1.262
16955W        W78409  13.642  11.357   2.880
16956W        W78410  27.556  27.649   3.276
16957W        W78411  26.203  12.658  13.405
16958W        W78412  16.096  38.530  12.971
16959W        W78413  14.212  33.381   3.710
16960W        W78414  23.625  22.649  14.466
16961W        W78415  24.220  24.655   3.836
16962W        W78416  42.884  31.015  12.087
16963W        W78417  44.401  34.415   0.441
16964W        W78418   4.361  32.577  14.396
16965W        W78419  11.710   6.348  14.451
16966W        W78420  43.975  20.737  14.288
16967W        W78421   8.768  44.419   0.251
16968W        W78422  44.260   0.921   1.307
16969W        W78423  17.557  15.317   4.681
16970W        W78424   5.429   3.907   1.346
16971W        W78425  15.145  32.503  12.465
16972W        W78426  43.973  28.445   2.843
16973W        W78427  40.352  30.951   1.408
16974W        W78428  28.006   1.973   9.638
16975W        W78429  21.635  13.222   2.401
16976W        W78430  17.277  22.594   2.207
16977W        W78431   7.177   3.427   5.267
16978W        W78432  33.111  16.082   2.899
16979W        W78433  21.035  37.073  14.947
16980W        W78434  30.980  25.126  13.863
16981W        W78435  14.172   6.400   2.838
16982W        W78436  22.602   0.486  11.058
16983W        W78437  30.434  33.478  13.835
16984W        W78438  41.303  20.594   4.636
16985W        W78439  39.344  33.075  10.514
16986W        W78440  12.857  23.210   0.414
16987W        W78441  15.718  31.454   0.283
16988W        W78442   7.247  34.516  13.952
16989W        W78443  16.672   8.787   4.630
16990W        W78444  28.137  40.946  14.318
16991W        W78445  21.518  39.491   0.331
16992W        W78446  25.003  24.983   0.823
16993W        W78447  21.243  23.149   1.282
16994W        W78448  32.463  13.241  10.469
16995W        W78449  21.207  16.124  12.448
16996W        W78450   0.329  12.719   2.811
16997W        W78451   1.778  42.868  12.902
16998W        W78452  19.061  17.624  11.125
16999W        W78453   2.257  28.137   1.921
17000W        W78454   3.843  40.978   3.646
17001W        W78455  21.527  23.558   0.300
17002W        W78456   8.720  14.167  14.971
17003W        W78457   3.723  17.127  13.331
17004W        W78458   5.296  12.639   4.124
17005W        W78459  44.913   0.472  12.050
17006W        W78460  29.571   1.788   3.304
17007W        W78461  10.820  19.275  14.504
17008W        W78462  28.592  23.646  13.476
17009W        W78463  28.182   9.325  14.999
17010W        W78464  41.968   3.785   0.434
17011W        W78465  41.296  25.169   3.859
17012W        W78466  36.449  37.839   2.831
17013W        W78467   8.766  36.055  14.953
17014W        W78468  44.446  41.474   1.891
17015W        W78469  28.062  27.097  12.455
17016W        W78470   9.288  26.512  13.419
17017W        W78471  20.707  10.813   2.358
17018W        W78472   2.416  11.661  11.397
17019W        W78473  23.032  41.856  10.438
17020W        W78474  10.731   2.880   4.640
17021W        W78475  29.146  33.609   1.698
17022W        W78476  30.027  19.148   4.763
17023W        W78477  41.332  11.369  11.025
17024W        W78478  13.309   3.914  12.881
17025W        W78479  33.073  20.536   2.228
17026W        W78480   9.856  21.727   2.299
17027W        W78481  42.280  41.403   3.386
17028W        W78482  40.954  34.510   1.875
17029W        W78483   1.775  25.576  14.790
17030W        W78484   0.866  24.692  11.384
17031W        W78485  24.113  43.840   3.371
17032W        W78486  15.727  20.688   1.278
17033W        W78487  44.423  25.705  11.935
17034W        W78488  32.556  24.670   3.723
17035W        W78489   3.261  33.125  14.910
17036W        W78490  31.073  18.681  13.483
17037W        W78491  42.289  42.478   2.742
17038W        W78492  17.062  38.378  14.392
17039W        W78493   1.331  14.803   1.730
17040W        W78494  19.735   1.309   1.853
17041W        W78495  15.325  38.494  13.464
17042W        W78496   9.846  44.991  11.416
17043W        W78497  34.876  17.136   1.812
17044W        W78498  22.592  20.754   2.814
17045W        W78499  22.725  15.248   2.334
17046W        W78500  36.492  41.354  10.966
17047W        W78501  36.923  42.855   4.182
17048W        W78502   4.222   0.262  14.412
17049W        W78503  34.893  43.462  13.056
17050W        W78504  15.305   1.326  14.489
17051W        W78505  29.548   7.237  13.320
17052W        W78506  43.770   6.903  14.793
17053W        W78507  34.062  17.260  12.440
17054W        W78508  29.548   3.880   1.817
17055W        W78509  30.462  32.535  12.054
17056W        W78510   0.852   0.288   0.747
17057W        W78511  41.416   0.338   1.385
17058W        W78512  39.997  39.444   2.730
17059W        W78513  41.489  19.095  14.380
17060W        W78514   2.746   5.765  10.446
17061W        W78515  16.168  37.938  14.965
17062W        W78516   3.279  17.093   3.177
17063W        W78517  10.705  41.013  13.910
17064W        W78518  26.634  40.799  11.456
17065W        W78519  16.146  36.578   4.282
17066W        W78520   8.360  10.241   4.170
17067W        W78521  20.103  23.724   1.368
17068W        W78522  30.019  23.650  14.881
17069W        W78523   8.784  24.981  10.573
17070W        W78524  24.565  38.559  10.629
17071W        W78525  44.398   6.830   2.209
17072W        W78526  23.631  20.647   3.162
17073W        W78527  28.558   9.207  11.890
17074W        W78528  17.175  42.313  10.960
17075W        W78529   2.872  37.950   3.202
17076W        W78530  31.937  40.909   0.734
17077W        W78531  43.992  23.071  14.769
17078W        W78532  14.192  13.116   1.703
17079W        W78533  32.136   9.389  10.545
17080W        W78534  34.380  36.521  13.352
17081W        W78535   8.895  15.645  10.470
17082W        W78536  22.062   0.282   0.960
17083W        W78537  15.619   4.807   4.601
17084W        W78538  30.919  16.579  14.437
17085W        W78539  26.611  10.865   1.406
17086W        W78540  22.142  31.062   0.950
17087W        W78541  41.475  26.178   1.357
17088W        W78542  22.631  41.889   2.681
17089W        W78543  44.325  34.880  11.987
17090W        W78544  25.188  38.916  11.123
17091W        W78545  16.293  34.014  10.456
17092W        W78546  32.992   8.170  12.014
17093W        W78547  36.353  24.070  12.531
17094W        W78548  34.061   9.230  14.810
17095W        W78549  25.003  40.326  13.022
17096W        W78550  31.606  27.019  14.493
17097W        W78551  25.088  30.114   0.775
17098W        W78552  29.440  31.512  12.836
17099W        W78553  30.436  24.199  13.471
17100W        W78554   8.785  18.735   1.290
17101W        W78555  39.498   9.189  12.482
17102W        W78556  40.368  41.314  11.420
17103W        W78557  15.107  21.646   4.770
17104W        W78558  37.460  23.610  12.511
17105W        W78559  22.041  43.811   2.345
17106W        W78560   0.492  22.080   1.774
17107W        W78561  44.404  34.602   1.365
17108W        W78562   8.259   5.720  11.993
17109W        W78563  39.374  37.910   3.195
17110W        W78564  19.256   3.412  13.876
17111W        W78565  11.747   5.800   1.266
17112W        W78566  30.520  21.632  13.934
17113W        W78567  38.980  11.642   4.302
17114W        W78568  19.589   5.794  10.572
17115W        W78569  36.934  37.580   1.266
17116W        W78570   6.183   6.877  13.371
17117W        W78571  37.359  16.636  12.023
17118W        W78572  28.935   7.183  13.368
17119W        W78573  34.072  10.755   3.371
17120W        W78574  18.671  12.618   0.870
17121W        W78575  33.388  42.845   2.224
17122W        W78576  38.961  21.533  14.016
17123W        W78577  20.752  10.302   2.301
17124W        W78578  19.772  44.332   2.272
17125W        W78579  23.075   4.734  12.358
17126W        W78580  30.625   8.656  13.897
17127W        W78581  37.540  37.948   3.187
17128W        W78582  32.049  43.889   4.789
17129W        W78583  42.945  25.052   4.148
17130W        W78584  28.102  15.795   0.353
17131W        W78585  28.016  42.304   1.358
17132W        W78586  33.080  21.751  10.509
17133W        W78587  37.424   0.350  11.499
17134W        W78588  29.635  32.123   4.194
17135W        W78589   9.746  38.839   3.219
17136W        W78590   4.222   2.775   2.372
17137W        W78591   0.450  21.716  14.403
17138W        W78592  32.943  14.680  10.454
17139W        W78593  14.302  24.042   2.757
17140W        W78594   0.397  17.306  14.299
17141W        W78595   8.866  26.570   4.264
17142W        W78596  14.749   2.349   1.901
17143W        W78597  14.266  22.559  13.045
17144W        W78598  39.503  39.539   0.279
17145W        W78599  26.701  44.343   4.196
17146W        W78600   1.944  41.836   4.142
17147W        W78601  27.109  16.193   4.716
17148W        W78602   9.815  15.618  11.562
17149W        W78603  19.079  39.403  13.340
17150W        W78604  26.988  13.639  14.785
17151W        W78605  38.568  41.938   1.835
17152W        W78606  37.965  41.499  14.409
17153W        W78607   8.332   1.390  12.924
17154W        W78608  26.014  19.582  11.029
17155W        W78609  13.633  19.577  13.960
17156W        W78610  13.318  10.865  13.432
17157W        W78611  13.291  28.600  12.920
17158W        W78612  33.394   0.486  13.854
17159W        W78613  10.712  35.456  12.570
17160W        W78614  11.259  19.564  14.784
17161W        W78615  17.288  30.910   3.791
17162W        W78616  40.913  36.538  10.616
17163W        W78617   0.465  28.973   0.386
17164W        W78618  40.357  17.573   0.329
17165W        W78619  32.460  39.508   2.752
17166W        W78620   6.280  44.395  10.487
17167W        W78621  12.207  12.280  11.548
17168W        W78622  17.623  44.272   4.625
17169W        W78623  31.027  18.247   1.333
17170W        W78624   8.752  18.085   2.259
17171W        W78625  22.217  34.887  14.794
17172W        W78626  10.762   0.370  10.537
17173W        W78627  22.116  27.169  13.053
17174W        W78628  40.027  29.445   2.293
17175W        W78629  19.544  23.232   1.895
17176W        W78630  20.753  25.691  14.781
17177W        W78631   6.828   5.827  11.386
17178W        W78632  23.588  27.122   3.360
17179W        W78633  31.518  41.868   3.776
17180W        W78634  37.372  28.536   4.128
17181W        W78635  28.623  10.855   1.434
17182W        W78636  10.878   5.772   4.116
17183W        W78637   3.270   9.777   2.394
17184W        W78638  13.724  31.979   1.765
17185W        W78639  17.284  39.549  12.370
17186W        W78640  18.073   0.358   0.266
17187W        W78641  20.635  39.542  14.800
17188W        W78642  11.342  35.432   1.222
17189W        W78643  35.429  40.799  12.425
17190W        W78644  43.845  25.516  11.898
17191W        W78645  40.954  42.503  14.882
17192W        W78646  37.940  17.100  14.405
17193W        W78647   1.408  36.537  12.960
17194W        W78648   7.366   7.787   1.924
17195W        W78649  33.086  15.251  11.069
17196W        W78650  10.798  43.814   3.209
17197W        W78651  39.950  28.675  11.583
17198W        W78652  27.686  34.883   4.307
17199W        W78653  34.892   8.765   2.816
17200W        W78654  43.814  25.472  10.485
17201W        W78655  33.507  37.353   1.375
17202W        W78656   9.776   6.211  12.020
17203W        W78657   0.980  33.408  10.096
17204W        W78658  14.693  24.032  13.538
17205W        W78659   2.958   2.785  14.458
17206W        W78660  28.128  11.807   3.148
17207W        W78661  33.957   4.429  13.866
17208W        W78662  17.075  35.954  10.462
17209W        W78663  44.986  25.575  11.458
17210W        W78664  28.981  20.127  14.782
17211W        W78665  30.984  10.203  14.964
17212W        W78666  41.327  31.134   4.221
17213W        W78667   9.365  19.739   1.844
17214W        W78668  18.746  33.595   2.696
17215W        W78669   7.337  22.681  13.336
17216W        W78670  41.799  15.127  10.428
17217W        W78671  38.448   0.311  12.051
17218W        W78672  26.523   2.291  13.404
17219W        W78673  26.970  16.088  14.853
17220W        W78674  31.449  36.847  12.893
17221W        W78675  27.195  21.534  14.472
17222W        W78676  39.480  37.462  14.335
17223W        W78677  13.771  39.360   3.358
17224W        W78678  27.027   0.340  12.421
17225W        W78679  22.574  30.926   3.784
17226W        W78680  12.298  40.339   3.344
17227W        W78681  41.308  25.583   4.778
17228W        W78682  25.657  34.373  14.971
17229W        W78683  21.565  21.197   0.737
17230W        W78684  33.977  32.898  14.348
17231W        W78685  23.050  35.881  14.985
17232W        W78686   8.801  21.589  12.921
17233W        W78687  18.624  39.545  10.901
17234W        W78688  39.499  33.075  14.841
17235W        W78689   7.302  39.490   0.799
17236W        W78690  40.832  19.682   1.254
17237W        W78691  29.561  43.918  10.583
17238W        W78692  39.385   7.759  14.441
17239W        W78693  43.994  24.518   0.346
17240W        W78694   2.244  38.418  11.466
17241W        W78695   8.725  11.787   0.733
17242W        W78696  41.346  41.847  11.032
17243W        W78697   4.275  18.736   3.758
17244W        W78698   5.305   0.972   2.808
17245W        W78699  10.872  29.047   0.447
17246W        W78700  35.512   8.203   2.180
17247W        W78701  19.227  28.952   0.922
17248W        W78702  39.505  19.238   0.426
17249W        W78703   7.323  27.175   1.792
17250W        W78704  18.714  31.476   2.187
17251W        W78705   9.863  12.274   2.735
17252W        W78706  31.636  44.264   2.273
17253W        W78707  16.132  44.456  13.493
17254W        W78708  25.617  18.238   3.766
17255W        W78709  30.064  16.108  14.922
17256W        W78710   3.223  19.549  14.851
17257W        W78711   5.203  27.148  12.368
17258W        W78712  35.392  21.664  11.391
17259W        W78713  29.423   7.830   0.244
17260W        W78714   7.781  19.107   1.398
17261W        W78715  28.645   6.186   9.445
17262W        W78716  39.314  22.013  11.050
17263W        W78717  22.244  40.029   0.402
17264W        W78718  32.479  11.205   0.340
17265W        W78719  39.478  42.336  13.501
17266W        W78720  10.876  20.058   4.307
17267W        W78721  21.746  30.156  11.975
17268W        W78722  32.033  24.044  11.502
17269W        W78723  35.398  44.884  10.962
17270W        W78724  40.373  42.310  14.398
17271W        W78725  30.057  42.951   0.797
17272W        W78726  39.409   8.665  12.088
17273W        W78727  35.544  41.537  14.845
17274W        W78728  10.241  25.592   4.722
17275W        W78729  35.959  19.568  13.370
17276W        W78730   9.258   5.242   2.782
17277W        W78731  41.354  44.007  13.434
17278W        W78732  21.646  37.506  11.048
17279W        W78733  31.064  40.394  13.950
17280W        W78734  21.644  44.831  11.474
17281W        W78735  42.887   7.759   5.214
17282W        W78736   5.307   2.881  14.915
17283W        W78737   2.915  17.789  11.020
17284W        W78738  34.612   8.285  10.405
17285W        W78739   1.749  12.665   4.194
17286W        W78740  34.890  15.289   3.753
17287W        W78741  12.618  41.934  13.060
17288W        W78742   5.718  28.009   1.398
17289W        W78743   0.373  17.590   4.280
17290W        W78744  26.208  21.746  11.039
17291W        W78745  21.214  26.530   1.232
17292W        W78746  13.653  43.366  12.506
17293W        W78747  33.130  23.227  14.495
17294W        W78748  10.375  27.030   0.244
17295W        W78749  12.131  21.041   5.205
17296W        W78750  17.795   6.279  10.942
17297W        W78751  24.724   3.350   0.460
17298W        W78752   0.269  21.105   1.764
17299W        W78753  34.537   8.885  11.554
17300W        W78754   3.736  25.707  11.862
17301W        W78755   0.341  27.036   3.754
17302W        W78756  40.398  15.130  12.892
17303W        W78757  13.799   3.766  13.510
17304W        W78758  14.607   5.732  14.027
17305W        W78759  33.907  37.438  10.897
17306W        W78760   9.788  27.586   1.290
17307W        W78761   6.283   1.414  12.442
17308W        W78762  10.694  26.028  12.878
17309W        W78763  14.268  35.364   0.416
17310W        W78764  11.329   8.390   0.862
17311W        W78765  36.084   0.395   4.213
17312W        W78766   2.768  34.007  13.817
17313W        W78767  15.155  23.690  10.460
17314W        W78768  32.618  29.085  12.434
17315W        W78769  39.038  11.313   4.623
17316W        W78770  27.676  39.827   4.695
17317W        W78771  11.307  24.570  12.404
17318W        W78772  17.298  35.084   4.253
17319W        W78773  18.686   4.787  14.445
17320W        W78774  12.278  23.225   5.322
17321W        W78775  37.924  25.162  10.525
17322W        W78776  37.492  41.405  12.481
17323W        W78777  30.930   2.249   0.450
17324W        W78778  24.170  16.779  10.894
17325W        W78779  13.833  44.951   0.859
17326W        W78780  36.397  11.261   2.301
17327W        W78781  16.812  19.092   3.237
17328W        W78782  15.142   3.806   3.771
17329W        W78783   7.774  20.172  13.881
17330W        W78784  18.241   7.757  11.105
17331W        W78785  36.431  13.131  13.488
17332W        W78786  10.252  42.915  13.351
17333W        W78787  17.624  18.702  11.959
17334W        W78788  18.756  27.590   0.482
17335W        W78789  13.334  30.427   3.191
17336W        W78790  38.935  41.459   1.417
17337W        W78791  35.541   9.255  11.031
17338W        W78792  33.937  33.119   4.355
17339W        W78793  14.330  17.741   0.762
17340W        W78794  20.197  15.794  14.030
17341W        W78795  43.501  11.709   1.834
17342W        W78796  44.356  17.076   5.228
17343W        W78797   1.768  19.686   3.863
17344W        W78798   7.724  24.048  13.932
17345W        W78799  19.139  26.529  11.426
17346W        W78800   2.428  21.526   1.907
17347W        W78801  17.233  34.029   0.417
17348W        W78802   4.252   5.864  13.014
17349W        W78803  31.523  14.600   1.404
17350W        W78804  20.631  18.136   4.747
17351W        W78805  21.551  33.938   4.603
17352W        W78806   5.779   5.810   1.428
17353W        W78807  37.906  42.816   1.383
17354W        W78808  21.693  10.857   3.775
17355W        W78809  12.228   9.162   4.249
17356W        W78810  44.882  30.019  12.349
17357W        W78811  17.788  25.194  12.092
17358W        W78812  25.562   4.837  13.455
17359W        W78813  33.405  14.714  10.449
17360W        W78814  27.471  12.680  14.360
17361W        W78815  22.687  33.541   5.290
17362W        W78816  28.511  11.235   9.578
17363W        W78817  15.156  38.845  13.900
17364W        W78818  27.101  33.059   1.287
17365W        W78819  14.272  16.774   5.134
17366W        W78820  39.856  15.757  14.343
17367W        W78821   9.167   5.829  10.469
17368W        W78822  35.499  39.899  14.515
17369W        W78823  17.228  13.777  11.593
17370W        W78824  36.483  34.405  14.515
17371W        W78825  35.438  10.302  11.904
17372W        W78826  31.541  35.985   3.661
17373W        W78827  33.051   5.689  11.450
17374W        W78828  32.609  21.089   0.865
17375W        W78829  11.283  36.019   1.424
17376W        W78830  12.133   9.295   2.351
17377W        W78831  39.987   1.921   1.395
17378W        W78832  26.051  14.829  10.643
17379W        W78833  28.062  12.347   3.174
17380W        W78834  38.544   0.934  11.101
17381W        W78835  34.410  18.090   3.829
17382W        W78836  13.681  19.639   2.778
17383W        W78837  38.854  13.229   4.796
17384W        W78838  34.570   1.940   1.785
17385W        W78839   7.325  43.432  11.111
17386W        W78840  40.391  11.636  14.851
17387W        W78841  11.237  27.538   1.431
17388W        W78842  37.485  35.455  14.932
17389W        W78843  27.028  31.619   2.211
17390W        W78844  31.089  32.595  13.930
17391W        W78845  43.463  30.553  11.985
17392W        W78846  34.506  13.110   4.148
17393W        W78847   9.836  24.064   4.305
17394W        W78848   5.845  15.594  12.935
17395W        W78849   2.402  28.529  13.474
17396W        W78850   1.785  40.832  11.948
17397W        W78851  35.931  40.048   5.116
17398W        W78852  17.133   0.973  11.983
17399W        W78853  37.849  28.639  11.078
17400W        W78854  24.490  14.289   2.880
17401W        W78855  36.481  21.078   2.298
17402W        W78856  41.491  38.394   2.257
17403W        W78857   3.791  29.100   4.225
17404W        W78858  11.158  23.613   2.257
17405W        W78859  21.564  22.232   2.751
17406W        W78860  32.478   4.421  12.502
17407W        W78861  20.707   8.343  12.047
17408W        W78862  38.926   5.409  14.942
17409W        W78863  20.040  16.645  13.361
17410W        W78864  15.137  44.280   1.258
17411W        W78865   4.833  21.074  14.991
17412W        W78866  40.541  29.114   1.240
17413W        W78867   9.770  43.306   4.678
17414W        W78868  10.784   6.288   2.240
17415W        W78869  28.939  18.156  12.027
17416W        W78870   2.943  27.536   1.314
17417W        W78871  39.950  27.456  12.035
17418W        W78872  29.558  14.708  12.886
17419W        W78873  34.420  17.653   2.398
17420W        W78874  27.191  36.453  10.937
17421W        W78875  25.012  38.882   1.805
17422W        W78876  36.991  22.717   4.117
17423W        W78877  32.061  44.911  10.892
17424W        W78878  18.083   2.353  10.530
17425W        W78879  32.067   7.871  11.478
17426W        W78880  32.997  27.488   3.782
17427W        W78881   7.858   0.423  12.536
17428W        W78882  15.268  38.955  12.339
17429W        W78883  18.289   8.875   1.323
17430W        W78884  17.685  25.064  14.438
17431W        W78885  31.509  16.609   1.250
17432W        W78886   1.312  41.992  12.990
17433W        W78887  25.510   1.354  14.941
17434W        W78888  24.117   0.911  12.864
17435W        W78889  17.268  11.760  14.811
17436W        W78890  37.050  35.577   3.751
17437W        W78891  22.046  31.015  14.421
17438W        W78892  43.897  12.774  13.810
17439W        W78893   8.255  15.804   1.232
17440W        W78894  20.681  11.739   0.246
17441W        W78895  11.298  28.583  12.922
17442W        W78896  15.741   8.376  11.557
17443W        W78897  40.482  14.103   0.373
17444W        W78898  28.669  36.992   3.739
17445W        W78899   1.256  29.587  10.959
17446W        W78900  13.150   3.246  14.510
17447W        W78901  14.147  13.253  11.516
17448W        W78902  15.142  43.942  11.902
17449W        W78903  42.300   1.885   1.272
17450W        W78904  35.551  40.501  10.907
17451W        W78905  25.038  41.860   2.664
17452W        W78906   9.327  33.998   9.574
17453W        W78907  33.538  27.001   4.198
17454W        W78908  16.136  14.755   1.320
17455W        W78909  15.586  16.201  13.482
17456W        W78910  32.024  40.382  11.462
17457W        W78911  35.499  36.078  14.831
17458W        W78912  21.116  25.162  14.973
17459W        W78913   3.265   5.318   3.168
17460W        W78914  12.340  41.365  10.532
17461W        W78915   7.409  36.061   1.749
17462W        W78916   4.376  28.021   4.616
17463W        W78917   2.402   3.883  11.895
17464W        W78918  11.204   6.809   2.697
17465W        W78919  32.086  20.575  10.949
17466W        W78920  41.921  38.880  11.519
17467W        W78921  32.078   5.788  11.915
17468W        W78922  31.577  28.642  10.631
17469W        W78923   0.851   3.832   2.198
17470W        W78924   8.667  38.954   5.176
17471W        W78925   4.770  26.010  11.398
17472W        W78926  28.632  20.112  11.508
17473W        W78927  22.110  28.972  10.486
17474W        W78928   5.762  41.909  11.039
17475W        W78929  30.564  17.791   0.881
17476W        W78930  27.008  35.974  10.900
17477W        W78931   3.349  38.335   1.763
17478W        W78932  24.163   0.899   4.188
17479W        W78933  10.191   7.365  11.450
17480W        W78934   6.805   7.744   1.811
17481W        W78935   3.867   7.302  10.924
17482W        W78936   3.367  39.549   2.296
17483W        W78937  37.523   1.793   1.242
17484W        W78938  38.950  15.295   3.836
17485W        W78939  33.443   2.408   0.867
17486W        W78940  29.436   4.210   1.415
17487W        W78941  16.154  28.956  11.432
17488W        W78942   4.742   8.323  13.466
17489W        W78943  12.737  25.542  10.967
17490W        W78944  30.934  31.432   3.202
17491W        W78945  23.138  26.986   0.744
17492W        W78946  41.938  34.480  10.565
17493W        W78947   9.807  30.594   2.737
17494W        W78948  14.116  27.518   0.346
17495W        W78949  21.115  22.578  14.371
17496W        W78950   9.340  21.203  13.841
17497W        W78951  38.925  16.631  14.326
17498W        W78952   1.950  38.858   3.294
17499W        W78953   2.411  27.171   0.851
17500W        W78954  25.572  36.080   2.784
17501W        W78955  16.676  18.783   0.435
17502W        W78956  18.096  38.839  14.424
17503W        W78957  22.687  36.553   2.765
17504W        W78958  34.602   6.828   2.267
17505W        W78959  32.461  33.599  11.121
17506W        W78960  27.991  31.493  13.962
17507W        W78961  42.000  42.504   0.943
17508W        W78962   8.397   2.907  14.945
17509W        W78963   4.840  41.516  14.310
17510W        W78964  25.486  43.369   0.767
17511W        W78965   1.286   4.760   3.655
17512W        W78966  14.232  14.226  12.074
17513W        W78967  40.902   5.928   1.411
17514W        W78968   2.340   1.908  13.908
17515W        W78969  43.989  10.182  14.507
17516W        W78970  41.321  17.261  13.944
17517W        W78971  10.860  10.851   0.458
17518W        W78972   2.816  10.743   1.225
17519W        W78973  19.738  10.815   9.970
17520W        W78974  10.644  28.155  10.594
17521W        W78975  10.307  41.958  10.465
17522W        W78976  36.052  19.544  13.969
17523W        W78977   9.316  43.426  10.469
17524W        W78978  35.065  14.615  11.435
17525W        W78979  38.483   6.827   2.251
17526W        W78980  27.677   6.373   1.388
17527W        W78981  18.615  18.272   3.655
17528W        W78982  14.825  14.199  11.495
17529W        W78983  20.162   0.256  12.923
17530W        W78984   6.729  10.691   2.858
17531W        W78985  18.725  29.538  12.090
17532W        W78986  24.986  14.205  12.357
17533W        W78987  20.561  29.429   1.241
17534W        W78988  33.953  20.653   1.820
17535W        W78989   3.808  40.869  13.837
17536W        W78990  28.446  10.833   4.347
17537W        W78991   0.261   5.361  12.031
17538W        W78992  19.739  13.755  12.868
17539W        W78993  31.463  24.689   0.308
17540W        W78994   4.302  42.518   2.774
17541W        W78995  23.521  24.095  13.342
17542W        W78996   7.213   3.836  13.408
17543W        W78997   0.451  23.540   2.848
17544W        W78998   6.387  24.126   4.695
17545W        W78999  24.625   2.839  10.459
17546W        W79000  21.698  11.718  13.980
17547W        W79001  37.401  31.647   1.376
17548W        W79002   8.386   1.916  11.123
17549W        W79003  29.934  34.586  10.137
17550W        W79004  32.984  16.216  11.927
17551W        W79005   9.299   7.690  13.823
17552W        W79006  15.781  43.425  13.352
17553W        W79007   8.677  35.542   2.667
17554W        W79008  14.282   7.882   3.363
17555W        W79009  15.817  41.915  11.495
17556W        W79010   7.775  26.565  12.025
17557W        W79011   7.363  18.714  14.954
17558W        W79012  32.464  18.052   2.704
17559W        W79013  35.908   0.742  13.505
17560W        W79014  33.549   3.340  14.387
17561W        W79015  15.669  20.263   0.859
17562W        W79016   9.188  10.348   3.815
17563W        W79017  34.965  34.566  11.027
17564W        W79018   5.816  39.364   4.644
17565W        W79019  42.829  38.552  10.999
17566W        W79020  28.058   4.242  12.076
17567W        W79021   8.196   6.816   1.395
17568W        W79022  38.359  38.380  11.066
17569W        W79023  27.130  16.670   3.835
17570W        W79024   5.331  32.134  14.418
17571W        W79025  38.835  17.213   4.675
17572W        W79026  37.945   3.827  14.367
17573W        W79027   2.733   3.286  10.431
17574W        W79028   2.935  20.170  10.968
17575W        W79029   8.718  14.152   4.819
17576W        W79030  39.901  42.806  10.946
17577W        W79031  29.003   4.357  11.443
17578W        W79032   1.337   5.747   3.809
17579W        W79033   6.748  22.569  11.865
17580W        W79034   3.853  11.626  14.295
17581W        W79035  26.055  31.993   0.924
17582W        W79036  28.182   6.808  12.554
17583W        W79037   1.403  36.886  12.534
17584W        W79038  15.617   9.726  13.343
17585W        W79039   7.880   6.331  12.551
17586W        W79040  35.033  36.589  11.509
17587W        W79041  16.305  12.744  12.371
17588W        W79042  44.477  22.037   3.297
17589W        W79043  31.962   6.837  12.507
17590W        W79044  38.955  41.800   3.319
17591W        W79045  16.739  17.759   4.232
17592W        W79046   6.322  16.762  12.915
17593W        W79047   6.240  26.198   3.650
17594W        W79048  33.912   5.741  13.036
17595W        W79049  39.808  18.231   1.775
17596W        W79050  42.822  18.560  12.076
17597W        W79051  41.789  31.602   1.787
17598W        W79052   9.310  17.182   4.295
17599W        W79053  26.608   0.443  11.877
17600W        W79054  25.199  40.451  14.330
17601W        W79055  39.490   4.896   2.376
17602W        W79056  32.616  33.976  13.456
17603W        W79057  10.277  11.306   4.233
17604W        W79058  14.834  13.601   2.888
17605W        W79059  24.501   6.217   3.857
17606W        W79060  19.192  44.856   1.247
17607W        W79061  31.946   3.289  10.921
17608W        W79062   9.307  18.770  14.842
17609W        W79063  23.490  14.326  12.475
17610W        W79064  35.516  15.158  14.413
17611W        W79065  32.028   9.764  10.438
17612W        W79066  32.594  31.598  11.514
17613W        W79067  30.912  42.976   3.824
17614W        W79068  41.377  38.933   0.310
17615W        W79069  15.154  19.540  10.447
17616W        W79070  26.586  40.445   2.755
17617W        W79071  35.942  37.940  10.068
17618W        W79072  31.455  43.314   3.681
17619W        W79073  13.311   7.336  13.833
17620W        W79074  42.526   8.175   1.425
17621W        W79075  27.060  42.502  10.642
17622W        W79076  29.491  32.515  12.448
17623W        W79077   0.802   6.277  11.457
17624W        W79078  25.624  39.341  12.038
17625W        W79079  13.117  30.419  12.479
17626W        W79080  15.162   1.874   2.360
17627W        W79081  18.707  28.107   3.343
17628W        W79082  42.964  27.541  14.954
17629W        W79083  38.376  24.724  11.866
17630W        W79084  11.157  39.366   5.625
17631W        W79085  16.796  30.060  12.082
17632W        W79086  10.843   0.468   1.837
17633W        W79087  10.834  40.902  11.887
17634W        W79088  34.478  33.490   0.380
17635W        W79089  24.984  23.639   2.766
17636W        W79090   2.300   5.760  12.386
17637W        W79091  20.548  21.197   4.702
17638W        W79092  40.024  25.109   0.477
17639W        W79093  11.369  35.364  13.422
17640W        W79094  43.321  39.465  12.414
17641W        W79095  24.184  19.740   0.858
17642W        W79096  41.417   7.360   2.418
17643W        W79097  43.779  29.568  14.921
17644W        W79098  11.658   9.705   4.654
17645W        W79099  29.933  18.236   1.283
17646W        W79100  23.109  40.797  14.985
17647W        W79101  26.047   2.870  12.034
17648W        W79102   6.850  26.535  11.526
17649W        W79103  14.822  16.771   3.298
17650W        W79104   5.810  37.572  14.029
17651W        W79105  12.757   7.187   2.757
17652W        W79106  24.118  37.939  11.559
17653W        W79107  35.518  22.680  14.351
17654W        W79108   4.938  29.661   1.298
17655W        W79109  35.911  15.141   2.304
17656W        W79110   8.661   7.263  12.444
17657W        W79111  31.559  16.595   4.125
17658W        W79112  29.670  22.621   2.724
17659W        W79113  18.594   6.331  13.501
17660W        W79114  29.516  19.714  12.417
17661W        W79115  38.823  23.534  12.397
17662W        W79116   9.803  33.508  11.566
17663W        W79117  29.537  17.745  10.438
17664W        W79118  10.157  27.456   9.947
17665W        W79119   7.874  34.424   2.287
17666W        W79120  41.417  33.434  10.505
17667W        W79121  16.759  33.912  12.908
17668W        W79122  44.325   7.235  12.379
17669W        W79123  11.839  24.525  13.025
17670W        W79124  37.511  21.072  11.071
17671W        W79125  39.975  17.732  11.423
17672W        W79126  28.051   6.201   5.171
17673W        W79127  23.590   9.232   4.314
17674W        W79128  31.020   6.316  14.485
17675W        W79129  14.098  42.506  11.601
17676W        W79130  40.392  28.166   3.195
17677W        W79131  12.707   1.460   0.862
17678W        W79132  35.965   7.787  13.992
17679W        W79133  20.585  24.684  10.998
17680W        W79134  29.473  19.619   1.403
17681W        W79135  19.717  33.423   2.721
17682W        W79136  14.744  12.831   2.878
17683W        W79137  32.020   4.716   2.839
17684W        W79138  30.656   9.807   4.257
17685W        W79139  25.036  38.967   0.916
17686W        W79140   6.906  18.122   0.777
17687W        W79141  39.461  16.734   2.203
17688W        W79142   8.822  18.236  11.541
17689W        W79143  13.731  16.275   2.325
17690W        W79144  19.095  10.772   2.217
17691W        W79145  21.104   5.290   1.283
17692W        W79146  13.292  22.157  13.364
17693W        W79147  22.021   0.312   0.437
17694W        W79148  37.394  44.946  12.409
17695W        W79149  10.180  39.487   1.296
17696W        W79150  11.218  17.693  13.397
17697W        W79151  40.898  15.140   4.172
17698W        W79152  24.981   6.871  10.529
17699W        W79153  23.572  14.123   2.701
17700W        W79154  14.264  23.988   5.192
17701W        W79155  25.557  23.654   4.136
17702W        W79156  39.000  25.543   4.706
17703W        W79157  40.519  21.629  12.495
17704W        W79158   4.221  36.589  13.922
17705W        W79159  28.454  36.564  12.365
17706W        W79160   6.231   0.439  10.019
17707W        W79161  20.155  24.075   4.806
17708W        W79162  26.624  37.956   3.365
17709W        W79163   4.872   8.388  11.388
17710W        W79164   9.778  28.643  12.374
17711W        W79165  39.517  41.336   4.117
17712W        W79166  30.591  10.770  13.879
17713W        W79167  10.796  27.949   3.868
17714W        W79168  21.736   8.665  11.458
17715W        W79169   7.876  38.992  12.076
17716W        W79170  40.416  21.084   3.226
17717W        W79171   9.194  42.400   2.234
17718W        W79172  41.510   7.688   0.911
17719W        W79173  22.017   1.270  10.445
17720W        W79174  40.466  36.993  11.502
17721W        W79175  12.303  38.399   2.735
17722W        W79176  40.049  31.498   3.371
17723W        W79177  26.534  20.191   3.630
17724W        W79178  13.766  34.426  11.070
17725W        W79179  40.349  25.989  10.990
17726W        W79180   0.938  39.526   2.747
17727W        W79181   8.168   3.364  12.440
17728W        W79182  37.424   4.218   3.250
17729W        W79183  35.388  39.861  10.572
17730W        W79184  26.698   6.365  11.074
17731W        W79185   6.427  14.130   1.350
17732W        W79186   7.286  28.126   5.316
17733W        W79187  23.044  26.515   2.255
17734W        W79188   3.381   7.253  10.619
17735W        W79189  36.024   4.303  12.496
17736W        W79190  37.464  34.523  12.913
17737W        W79191  21.520  31.003   0.906
17738W        W79192  12.853  12.789   3.291
17739W        W79193  17.783   2.393   2.296
17740W        W79194  21.539  27.517  10.507
17741W        W79195   3.313  19.100   4.675
17742W        W79196   9.808   8.309   1.287
17743W        W79197  21.631  25.061  10.605
17744W        W79198  17.750   4.918   1.697
17745W        W79199  11.739  14.208  12.936
17746W        W79200   3.756  28.647   0.857
17747W        W79201  28.473  39.057  13.063
17748W        W79202  39.450  17.094   3.338
17749W        W79203  22.222  27.477   3.763
17750W        W79204  18.143  36.479   4.805
17751W        W79205   4.922  33.061  13.012
17752W        W79206  34.391  14.599  12.082
17753W        W79207  27.978  24.478  11.417
17754W        W79208  36.403  36.999   3.366
17755W        W79209  13.261   1.286  10.473
17756W        W79210  18.616  38.906  11.090
17757W        W79211   3.352  14.701   0.752
17758W        W79212  26.673   4.720  11.998
17759W        W79213   3.284  16.126   2.308
17760W        W79214  20.624  11.367  14.404
17761W        W79215  23.523  25.516   1.380
17762W        W79216  32.055  16.153  12.450
17763W        W79217   3.449  19.151   2.380
17764W        W79218  27.081  37.400   3.318
17765W        W79219  33.125  42.010  10.451
17766W        W79220  33.431  33.539   5.272
17767W        W79221   3.245  44.488   2.286
17768W        W79222  11.171  24.060  12.417
17769W        W79223  11.851  44.293   0.414
17770W        W79224  21.600  43.910  11.901
17771W        W79225  11.187   7.831   3.707
17772W        W79226  26.669  23.994   1.744
17773W        W79227  26.055  25.987   0.895
17774W        W79228  11.638  12.753  14.893
17775W        W79229  10.227  31.126   3.820
17776W        W79230   4.732  29.429   3.796
17777W        W79231  24.674  10.750   0.264
17778W        W79232  19.085  19.186   0.937
17779W        W79233  36.842  27.112   0.807
17780W        W79234  33.046  35.912  13.349
17781W        W79235  34.511   8.712   0.288
17782W        W79236  35.409  31.615  14.323
17783W        W79237  11.236  10.715  12.091
17784W        W79238  21.573   6.230  10.490
17785W        W79239  17.199  20.721  13.857
17786W        W79240  13.178   2.312   0.881
17787W        W79241   7.409  32.922   4.780
17788W        W79242   0.258  29.053   3.265
17789W        W79243   2.904   0.476   0.320
17790W        W79244  35.491  12.358   4.687
17791W        W79245  44.425  43.374  10.586
17792W        W79246   2.851  38.911  12.537
17793W        W79247   8.716  19.590   1.907
17794W        W79248  15.780  38.476   3.754
17795W        W79249  41.837  23.542  10.429
17796W        W79250  25.218  33.557  14.354
17797W        W79251  27.600  28.942  10.993
17798W        W79252  31.971  12.801   1.289
17799W        W79253  30.655  32.439  14.417
17800W        W79254  41.995   3.242  12.514
17801W        W79255  39.449  41.815  14.795
17802W        W79256  35.357  15.142  12.560
17803W        W79257  35.905   8.368  12.922
17804W        W79258  31.102  10.213  13.847
17805W        W79259  29.940  36.850  14.951
17806W        W79260  20.546  29.166  14.984
17807W        W79261  39.927  34.427   3.180
17808W        W79262   6.782  42.506  11.926
17809W        W79263   1.255  10.754  10.570
17810W        W79264  15.205   2.240   4.207
17811W        W79265  41.395  29.547   1.354
17812W        W79266  24.695  10.873   0.810
17813W        W79267   6.377  26.131   2.416
17814W        W79268  12.843  16.568  10.585
17815W        W79269  44.383  18.627   4.706
17816W        W79270  43.925   2.284  12.400
17817W        W79271  10.706  33.885   4.197
17818W        W79272  23.020  10.302  11.573
17819W        W79273  35.909  19.627   1.818
17820W        W79274  14.170  33.887  14.346
17821W        W79275  24.143  44.796   0.796
17822W        W79276  38.431  21.615   2.196
17823W        W79277  43.396  42.874  13.977
17824W        W79278  28.177  18.074  12.862
17825W        W79279  15.612   2.768   3.359
17826W        W79280  39.873  30.418  13.319
17827W        W79281  25.208   3.247   1.777
17828W        W79282  18.080  28.071   3.846
17829W        W79283  25.125   1.813   1.263
17830W        W79284  39.854  39.062  11.021
17831W        W79285  26.583   5.349   1.780
17832W        W79286  41.416  20.527  14.508
17833W        W79287  31.530   9.887   3.795
17834W        W79288   4.298  16.249   2.892
17835W        W79289  23.695  15.310  13.544
17836W        W79290  42.301  12.801  13.488
17837W        W79291   2.411  38.995   2.296
17838W        W79292   6.322  17.667  12.021
17839W        W79293  33.992   0.492   1.857
17840W        W79294   6.344  28.962  14.888
17841W        W79295  18.245   3.392  12.499
17842W        W79296  39.848   2.746  12.923
17843W        W79297  26.600  20.723   1.382
17844W        W79298  13.643  27.669  11.525
17845W        W79299   3.904  34.023   1.389
17846W        W79300  39.347   8.688   0.455
17847W        W79301   0.783  16.212  13.313
17848W        W79302   4.292  41.355   0.726
17849W        W79303  38.452  21.667  13.885
17850W        W79304   4.705  43.989  11.106
17851W        W79305  28.082  10.786  12.064
17852W        W79306  22.147  36.069  12.875
17853W        W79307  27.096  16.109  11.090
17854W        W79308  19.617  42.878   4.219
17855W        W79309  17.147  18.259   2.256
17856W        W79310  20.083  24.511   0.303
17857W        W79311   0.782  39.348  11.063
17858W        W79312  22.069  44.827  10.579
17859W        W79313  44.826  43.336  11.497
17860W        W79314  37.929   4.740   9.995
17861W        W79315  21.089  20.733   2.789
17862W        W79316  11.736  28.174  13.355
17863W        W79317   6.290  10.750  12.437
17864W        W79318  23.598  41.347  13.503
17865W        W79319  18.719  28.085  11.906
17866W        W79320   2.260   2.229   4.289
17867W        W79321  37.487  41.303   0.321
17868W        W79322  13.243   3.449  13.972
17869W        W79323  32.889   4.368  11.087
17870W        W79324  40.900   3.281   3.209
17871W        W79325   4.791   0.931  11.440
17872W        W79326  14.704  32.622   1.901
17873W        W79327   7.733   7.773  14.918
17874W        W79328  12.612  43.484  12.919
17875W        W79329  15.112  38.832   4.613
17876W        W79330  44.346  16.139   4.814
17877W        W79331   5.772  43.493   4.753
17878W        W79332  29.595  44.289  11.916
17879W        W79333  13.226  18.198  11.997
17880W        W79334  24.159  21.148  14.501
17881W        W79335   6.301  11.176   0.940
17882W        W79336  39.908   0.329  12.996
17883W        W79337  36.348  35.361   0.835
17884W        W79338   9.816  28.554   3.827
17885W        W79339  33.460  33.931  14.977
17886W        W79340  33.379   1.817  13.836
17887W        W79341  21.136  27.973  11.906
17888W        W79342  37.896   5.820   4.244
17889W        W79343  26.162  27.462  13.955
17890W        W79344  11.303  23.705  13.977
17891W        W79345  16.808  30.615  12.505
17892W        W79346  38.070  27.533  12.465
17893W        W79347  10.788  37.834   4.288
17894W        W79348  19.697   5.221   2.181
17895W        W79349  32.634  17.561  14.881
17896W        W79350  12.312  33.024  14.835
17897W        W79351  36.496  32.546  14.391
17898W        W79352  40.337  19.221   3.654
17899W        W79353  32.471  40.813  14.473
17900W        W79354  21.230  42.985  13.343
17901W        W79355  31.985   3.423   1.434
17902W        W79356  12.337  17.666   4.159
17903W        W79357  20.087  30.472  13.503
17904W        W79358   2.398  11.307  14.392
17905W        W79359  33.942   9.319   1.782
17906W        W79360  43.921  13.736   3.368
17907W        W79361   3.916  15.164   2.288
17908W        W79362  24.548  32.004   4.175
17909W        W79363   7.897  15.788  12.504
17910W        W79364  14.245  43.356   3.381
17911W        W79365  11.240  15.578  14.967
17912W        W79366  26.496  25.656   1.323
17913W        W79367  12.138   5.806  11.573
17914W        W79368  31.420   9.207   9.488
17915W        W79369  41.409  11.291   4.298
17916W        W79370   1.354  22.204  13.917
17917W        W79371   2.966  42.482  14.455
17918W        W79372  10.859  31.571  10.418
17919W        W79373   5.417   5.385   4.267
17920W        W79374  36.009  28.536   0.296
17921W        W79375   4.426  44.793   1.901
17922W        W79376  36.930  40.390  14.893
17923W        W79377  15.283  31.507  12.382
17924W        W79378  39.343  13.111  11.529
17925W        W79379  35.051  16.132  11.951
17926W        W79380  44.780  35.532   4.801
17927W        W79381  33.502  21.605  11.503
17928W        W79382   6.791  15.297   2.692
17929W        W79383  35.024  43.935   1.290
17930W        W79384   6.808  16.653  13.022
17931W        W79385  19.117  13.315   1.833
17932W        W79386  17.152  28.174   3.225
17933W        W79387   2.455  13.141   2.767
17934W        W79388  15.131  16.758  14.837
17935W        W79389   4.939  29.502  14.986
17936W        W79390  34.032   0.893   3.854
17937W        W79391  18.248  28.181  14.792
17938W        W79392  43.955  40.375   3.365
17939W        W79393  35.902  28.106   0.896
17940W        W79394  31.525  26.636   3.640
17941W        W79395  35.888   8.388  11.899
17942W        W79396  20.224   3.868   2.740
17943W        W79397  38.948  34.471  12.960
17944W        W79398   0.252  42.789  11.892
17945W        W79399  31.435  11.815  13.890
17946W        W79400  16.575  38.327  12.840
17947W        W79401  29.994  13.244  13.440
17948W        W79402  24.129   9.195  10.148
17949W        W79403  43.496   4.404   3.776
17950W        W79404  35.090  40.798   2.233
17951W        W79405  25.037  38.544   1.348
17952W        W79406  40.478  34.063  10.584
17953W        W79407  16.214  22.037  11.120
17954W        W79408  29.607  13.286   4.828
17955W        W79409  43.989  38.344   3.684
17956W        W79410   5.289  17.137   3.698
17957W        W79411  42.975  36.435   2.871
17958W        W79412   2.920  22.520  10.491
17959W        W79413  20.660   7.385  14.419
17960W        W79414  26.616  10.264   1.300
17961W        W79415  17.061  27.009   2.349
17962W        W79416  28.944  17.245   3.796
17963W        W79417   8.169  11.260  14.501
17964W        W79418  34.088  18.564  11.988
17965W        W79419   6.808  33.996  10.407
17966W        W79420  15.596  25.158  11.547
17967W        W79421   2.809  31.504   4.317
17968W        W79422  37.571  11.859   3.687
17969W        W79423  31.484  39.831  11.575
17970W        W79424   5.921  14.704  12.438
17971W        W79425  42.793  41.976  11.613
17972W        W79426   3.352  13.341  13.501
17973W        W79427   1.972  18.274  14.436
17974W        W79428  19.194  39.850   0.248
17975W        W79429  20.143  12.311  13.849
17976W        W79430   8.714  41.827   2.200
17977W        W79431  26.518  36.400  14.416
17978W        W79432  44.418  25.199  12.415
17979W        W79433  42.026  16.223  12.453
17980W        W79434  30.136   2.914  11.574
17981W        W79435  12.148   1.469   3.719
17982W        W79436   9.263  17.612   9.976
17983W        W79437  18.090  31.418  14.859
17984W        W79438  19.623  31.006   3.763
17985W        W79439  41.296   4.322  14.900
17986W        W79440  18.633  27.603   3.305
17987W        W79441  23.150  34.571  14.791
17988W        W79442  22.089  37.064   4.808
17989W        W79443  38.045  31.446   0.296
17990W        W79444  30.972  26.060  10.453
17991W        W79445  27.613  30.911   3.739
17992W        W79446  34.884  44.495  12.972
17993W        W79447   3.855  39.065  12.537
17994W        W79448  21.666   5.698   4.191
17995W        W79449  10.333  25.037  12.506
17996W        W79450  29.462  44.989   1.326
17997W        W79451  22.620  15.610  12.521
17998W        W79452   9.846  31.004   5.130
17999W        W79453  42.505  19.623  11.926
18000W        W79454  29.009  19.189   4.293
18001W        W79455  11.845  12.855   0.475
18002W        W79456  28.509  29.535  14.802
18003W        W79457   8.329  15.280  14.804
18004W        W79458  11.233  13.711  10.633
18005W        W79459  44.997  20.270  14.955
18006W        W79460   9.824   7.286  14.995
18007W        W79461   3.226  33.455  11.427
18008W        W79462  20.690  17.782  12.533
18009W        W79463  21.059  37.388   0.271
18010W        W79464  43.480  27.083   2.829
18011W        W79465   2.762  16.105  13.929
18012W        W79466  17.150  19.630   1.926
18013W        W79467  30.994  32.053   0.321
18014W        W79468  14.250  19.658  14.489
18015W        W79469  20.703  11.774   0.869
18016W        W79470  14.678  20.168   4.191
18017W        W79471   4.352  19.215  11.939
18018W        W79472  11.758   7.403  11.522
18019W        W79473  24.975  15.696  14.426
18020W        W79474   2.258  33.538  12.915
18021W        W79475  44.304   4.385  10.961
18022W        W79476  18.177  41.044   3.868
18023W        W79477   0.754  29.036   2.357
18024W        W79478   3.937   3.440  14.404
18025W        W79479   2.451  43.017  10.994
18026W        W79480  31.057  40.940   2.778
18027W        W79481  13.186  22.729   3.761
18028W        W79482  35.361  28.591  10.910
18029W        W79483  20.222  40.375  10.591
18030W        W79484  19.208  23.014   2.284
18031W        W79485  14.228  14.254  12.926
18032W        W79486  25.972   8.824   4.686
18033W        W79487  35.864  43.393  11.969
18034W        W79488  24.716  31.615  10.500
18035W        W79489  31.945  34.398  11.547
18036W        W79490   8.382  15.201   4.738
18037W        W79491  35.059   2.845   0.896
18038W        W79492   3.714  17.560  14.880
18039W        W79493  30.015  41.023   1.895
18040W        W79494  12.118  19.161  12.459
18041W        W79495  17.675  21.165  11.123
18042W        W79496   4.850  28.637   0.955
18043W        W79497   8.338  38.330  12.345
18044W        W79498  42.384  37.942  12.944
18045W        W79499  21.021  21.668  11.872
18046W        W79500  19.070  41.533   1.388
18047W        W79501  32.012   8.285  14.278
18048W        W79502  35.965  31.502   0.834
18049W        W79503  19.620   5.274   2.695
18050W        W79504   0.981  44.817   0.444
18051W        W79505  32.140   7.801   4.194
18052W        W79506   5.366  17.695  14.337
18053W        W79507  30.610  18.749   4.619
18054W        W79508  14.124   1.267   3.305
18055W        W79509  42.509  17.270  11.866
18056W        W79510  15.675   7.393  12.398
18057W        W79511  34.531  22.075   4.800
18058W        W79512  29.137  44.932   1.723
18059W        W79513  43.809  40.304  12.893
18060W        W79514   3.745  24.118   2.790
18061W        W79515  12.122  37.874   4.737
18062W        W79516  42.974  13.319  10.531
18063W        W79517   1.348  33.997  11.880
18064W        W79518  31.147  22.671   3.331
18065W        W79519  19.112  21.144   3.675
18066W        W79520  36.051   7.285  12.508
18067W        W79521  43.416  10.382   2.256
18068W        W79522   4.416  43.920   3.237
18069W        W79523  40.800  23.510   0.356
18070W        W79524  32.041  29.552  10.436
18071W        W79525  40.975  26.082  12.381
18072W        W79526   4.402  10.726   3.255
18073W        W79527  34.925   5.793  12.028
18074W        W79528  29.085   7.176   3.215
18075W        W79529  20.584   8.899  11.062
18076W        W79530  42.970  32.622  14.476
18077W        W79531  13.205  41.035   3.383
18078W        W79532  19.760   8.373  12.054
18079W        W79533  31.897  28.046   4.135
18080W        W79534  38.844  31.031  11.968
18081W        W79535  24.513  36.070  13.366
18082W        W79536  26.048  38.934  11.010
18083W        W79537  43.499  25.048  14.887
18084W        W79538  24.145  35.578   0.353
18085W        W79539  28.184  30.005   0.937
18086W        W79540  41.974  14.252  14.791
18087W        W79541  10.261  26.666  12.983
18088W        W79542  14.632  18.084   3.184
18089W        W79543  29.556   1.265  13.012
18090W        W79544  10.802  25.000   3.238
18091W        W79545  40.533   9.274   0.947
18092W        W79546  39.829  37.996   3.218
18093W        W79547  16.118  41.939  11.127
18094W        W79548   1.256  26.209   4.249
18095W        W79549  42.937  20.100   2.684
18096W        W79550  43.852  25.484  11.608
18097W        W79551  21.041  24.518  14.377
18098W        W79552   1.318  27.155   3.805
18099W        W79553   1.753  36.354  12.090
18100W        W79554  37.426  26.476  11.553
18101W        W79555   6.400  32.061  11.514
18102W        W79556  22.623  19.649  11.090
18103W        W79557  22.684   2.402  12.014
18104W        W79558  31.420  11.634   3.864
18105W        W79559  26.602  13.106   5.243
18106W        W79560  41.941  36.469   0.421
18107W        W79561  14.152   7.811   2.418
18108W        W79562   6.265   3.323   2.330
18109W        W79563  30.125  12.775  12.489
18110W        W79564   7.690   4.763  13.911
18111W        W79565  30.443   5.859  13.515
18112W        W79566  23.699   9.647  12.003
18113W        W79567   9.742  25.674   1.274
18114W        W79568  42.291  12.153   1.314
18115W        W79569  19.748  41.442  14.333
18116W        W79570  16.280  34.942  14.777
18117W        W79571  34.568  21.113   3.331
18118W        W79572  12.842  30.151   2.857
18119W        W79573  15.105  40.337  10.997
18120W        W79574   6.848  12.688   0.737
18121W        W79575  38.950  12.259   1.380
18122W        W79576   1.837  33.427  11.007
18123W        W79577  36.441  43.451   2.355
18124W        W79578  18.291  32.481   2.850
18125W        W79579  19.184   1.812   3.166
18126W        W79580  39.465  29.935  11.012
18127W        W79581  26.953  24.486  13.365
18128W        W79582  10.719   8.881   1.861
18129W        W79583  14.823  27.098   4.812
18130W        W79584   6.901  38.013  11.939
18131W        W79585  43.495   4.345  12.531
18132W        W79586  15.262  13.267   1.728
18133W        W79587  30.611  32.594   2.298
18134W        W79588  22.697   0.840   1.883
18135W        W79589   3.250  18.228   0.905
18136W        W79590  16.587  34.031  11.405
18137W        W79591  43.357   1.323  13.452
18138W        W79592  43.996   3.901  11.858
18139W        W79593   3.276  15.792   0.880
18140W        W79594  44.878  44.805  14.863
18141W        W79595  13.712   2.399  11.377
18142W        W79596  11.846  44.276  12.536
18143W        W79597  18.604  18.557  11.376
18144W        W79598   2.228   7.824  13.048
18145W        W79599   4.863  18.240  14.454
18146W        W79600  12.289  40.538   2.702
18147W        W79601  37.532  12.300   0.928
18148W        W79602  38.503   8.390   3.189
18149W        W79603  16.770  44.363  12.481
18150W        W79604  14.801  41.991  14.389
18151W        W79605   7.234  43.868  13.872
18152W        W79606  17.211  25.567   4.745
18153W        W79607   5.329  27.500  14.001
18154W        W79608  38.374  23.074  12.040
18155W        W79609   5.866  42.464   4.645
18156W        W79610  28.041  29.602  13.414
18157W        W79611  17.232  28.033  14.410
18158W        W79612  27.623   4.278   1.824
18159W        W79613  22.631  41.460   1.427
18160W        W79614  33.566  20.563   3.256
18161W        W79615  44.403  30.589   2.815
18162W        W79616  10.152  11.369   3.694
18163W        W79617  41.326  35.047   0.926
18164W        W79618  29.663  24.226   2.883
18165W        W79619  23.212  20.161   0.753
18166W        W79620  25.021  38.507  12.093
18167W        W79621  10.679  25.495  12.002
18168W        W79622  34.960  26.998   1.233
18169W        W79623  31.973   4.713  13.537
18170W        W79624  43.387  13.703  12.414
18171W        W79625  11.155  33.924   3.359
18172W        W79626  20.242   5.422   4.197
18173W        W79627   7.893  22.007  12.484
18174W        W79628  30.615   6.751   0.913
18175W        W79629  37.033  21.134   2.321
18176W        W79630  11.351   0.854   4.196
18177W        W79631  11.710  38.013   4.188
18178W        W79632   5.399  24.130   2.822
18179W        W79633  12.331  17.704  10.485
18180W        W79634   3.332  33.432   0.960
18181W        W79635   1.324  33.994   0.806
18182W        W79636  25.703  31.420   3.731
18183W        W79637  37.447   8.807   4.283
18184W        W79638  33.099  12.687   2.393
18185W        W79639  18.091  23.659   1.892
18186W        W79640  29.624  28.031   3.313
18187W        W79641   4.315   4.918  13.446
18188W        W79642  37.944  18.753   1.399
18189W        W79643  38.502  27.009  11.521
18190W        W79644  29.920   0.442   1.253
18191W        W79645  39.378  11.636   3.350
18192W        W79646  19.639  18.749  12.401
18193W        W79647   9.321  32.983  11.877
18194W        W79648  21.038  38.435  11.530
18195W        W79649  10.868  32.074   2.844
18196W        W79650   2.813  41.844  10.993
18197W        W79651  16.658  33.487   3.344
18198W        W79652  17.183  36.923  14.476
18199W        W79653  16.225  19.671  14.445
18200W        W79654  35.973   5.335   2.841
18201W        W79655  21.544  40.978  11.503
18202W        W79656  36.911  29.536   4.172
18203W        W79657  32.929  28.170  13.959
18204W        W79658  39.465  12.311   4.806
18205W        W79659  30.909   0.815   0.316
18206W        W79660  44.497  20.540  13.516
18207W        W79661  25.490  14.118   2.237
18208W        W79662  32.971  40.052   4.114
18209W        W79663   7.377  24.024   2.704
18210W        W79664  16.753  27.973  12.058
18211W        W79665  27.963  30.536   2.820
18212W        W79666  31.981   7.345  10.949
18213W        W79667  17.221  26.504   3.267
18214W        W79668  15.162   6.800   2.773
18215W        W79669  38.551  18.645  10.974
18216W        W79670  36.472   9.762  14.913
18217W        W79671   9.821  37.971  13.362
18218W        W79672  18.714  36.942   3.208
18219W        W79673  42.480   6.755   2.811
18220W        W79674   3.328  21.158   1.858
18221W        W79675  43.463  43.378   1.428
18222W        W79676  19.173   1.769  12.466
18223W        W79677  29.038  39.458  13.856
18224W        W79678  34.595   2.840   1.932
18225W        W79679  19.761  29.501   2.389
18226W        W79680  15.191   6.397  13.515
18227W        W79681  29.994  26.470   3.756
18228W        W79682  11.744  22.624  12.053
18229W        W79683   0.897  40.544  13.316
18230W        W79684  40.806  33.068   4.804
18231W        W79685  12.134  21.544   4.603
18232W        W79686  25.148  39.894   3.363
18233W        W79687  16.133  16.155   3.341
18234W        W79688  44.009  15.283  10.559
18235W        W79689  16.749  16.778   4.158
18236W        W79690   6.830  30.622  10.515
18237W        W79691  41.987  12.792  10.477
18238W        W79692  39.027  44.288   0.955
18239W        W79693  37.529  26.611  12.517
18240W        W79694  40.528  15.805   2.410
18241W        W79695  44.987  23.152  11.956
18242W        W79696  32.401  39.465  12.951
18243W        W79697  13.229  24.072  14.993
18244W        W79698   3.298  26.204   3.848
18245W        W79699   0.334  30.030   2.688
18246W        W79700  24.014   1.843  14.378
18247W        W79701   0.834   0.808  13.924
18248W        W79702  32.991  15.705   0.314
18249W        W79703  39.876   9.154  12.941
18250W        W79704  21.101  43.311  13.820
18251W        W79705  42.807  35.413  14.922
18252W        W79706   1.276  17.692  11.056
18253W        W79707  23.002  30.438   2.841
18254W        W79708  41.823   8.679   1.237
18255W        W79709  33.486   1.850  14.415
18256W        W79710   1.387  43.925   0.890
18257W        W79711   9.246  27.461  10.430
18258W        W79712   2.275  38.861  14.497
18259W        W79713  12.272   4.317  14.330
18260W        W79714  19.078   4.765  10.954
18261W        W79715  24.498   7.874   0.837
18262W        W79716   6.229   5.688  12.452
18263W        W79717  20.055  29.936   1.446
18264W        W79718  25.696  29.947  10.898
18265W        W79719   9.189  28.105  11.477
18266W        W79720   8.673  17.629  11.505
18267W        W79721  27.962  19.039  12.879
18268W        W79722  41.313  28.146   0.333
18269W        W79723  39.001  30.456   1.738
18270W        W79724  22.045  11.144  10.953
18271W        W79725  42.484  30.540   3.632
18272W        W79726  37.356  11.350   4.324
18273W        W79727  20.752  26.045  14.421
18274W        W79728   8.819  36.016   3.692
18275W        W79729  11.311  31.430   1.802
18276W        W79730   9.174  12.132  12.443
18277W        W79731  27.536  28.978   2.864
18278W        W79732  27.586  15.225   0.439
18279W        W79733  13.136  32.003   0.918
18280W        W79734  35.604   6.735  11.521
18281W        W79735  10.719  39.472  13.875
18282W        W79736   9.231  27.451   2.188
18283W        W79737  22.048  18.210  13.437
18284W        W79738  28.624  15.797   1.399
18285W        W79739  16.148  16.269  12.023
18286W        W79740  25.075  33.626  10.604
18287W        W79741  27.182  12.152  11.931
18288W        W79742  42.294  34.455   1.292
18289W        W79743  26.645  33.960   0.958
18290W        W79744  16.639   8.255   4.314
18291W        W79745  40.004  33.084   2.211
18292W        W79746  39.476  31.597   2.349
18293W        W79747   3.384  43.354   0.473
18294W        W79748  18.656   7.830   2.415
18295W        W79749   9.832  35.998  14.866
18296W        W79750  39.880  12.150  12.988
18297W        W79751   0.847  40.498  10.443
18298W        W79752  26.666  31.439   1.761
18299W        W79753  23.584  23.084   3.861
18300W        W79754  28.541  20.750  13.320
18301W        W79755  44.311  21.555   0.791
18302W        W79756  12.804  14.777   9.480
18303W        W79757  14.781  39.876  14.339
18304W        W79758   9.834   4.398   4.599
18305W        W79759   3.867  11.292  13.513
18306W        W79760   3.792  21.212  11.561
18307W        W79761  39.872  20.768  14.308
18308W        W79762  17.095  28.097   1.830
18309W        W79763  39.351   1.803  12.510
18310W        W79764  36.031  16.084   1.880
18311W        W79765   2.362  38.443   2.794
18312W        W79766  13.631  24.565   1.214
18313W        W79767   9.269  32.136  10.931
18314W        W79768  32.573   3.779  13.888
18315W        W79769  36.444  14.612  10.433
18316W        W79770  41.531   3.355   3.151
18317W        W79771   4.920  20.714   1.358
18318W        W79772  15.818  26.597  13.366
18319W        W79773  42.395   0.464   0.384
18320W        W79774  40.952  24.565   3.222
18321W        W79775  37.904  40.546   3.168
18322W        W79776  13.255  31.150   2.838
18323W        W79777  24.130   8.189  11.997
18324W        W79778   7.366  11.852   5.228
18325W        W79779  34.086  21.684  12.906
18326W        W79780  17.756  23.731  12.084
18327W        W79781  30.436  13.629   9.604
18328W        W79782  30.115  37.003  14.439
18329W        W79783  20.596   0.747  12.895
18330W        W79784  30.641  43.464   3.863
18331W        W79785  12.856  17.758   1.243
18332W        W79786   1.770  20.637  11.069
18333W        W79787  37.063  14.330  10.522
18334W        W79788  35.056  44.774   4.227
18335W        W79789  39.335   0.835   1.318
18336W        W79790  26.101  29.020  12.372
18337W        W79791  20.179   3.801  14.796
18338W        W79792  19.767  23.120   2.714
18339W        W79793  13.351  10.153   2.306
18340W        W79794   7.813  27.055  14.934
18341W        W79795  35.062  44.829  11.873
18342W        W79796  27.099  12.647   4.238
18343W        W79797  39.857  25.035   2.311
18344W        W79798  38.982   9.175  14.339
18345W        W79799  11.284  21.251  12.035
18346W        W79800   3.385  27.982  14.785
18347W        W79801  40.451  23.010  11.104
18348W        W79802  43.920  28.534   0.248
18349W        W79803  37.421  16.306   3.664
18350W        W79804  34.446  39.461  14.319
18351W        W79805  28.029  24.574  11.997
18352W        W79806  44.452  15.585   1.443
18353W        W79807  31.947  21.657  13.323
18354W        W79808   3.813   0.779   4.201
18355W        W79809   2.452   8.242   0.432
18356W        W79810   7.349  32.582   0.346
18357W        W79811  36.004  40.998   2.666
18358W        W79812   5.312  44.431   1.219
18359W        W79813  19.096  40.838   4.175
18360W        W79814  11.747   8.847   9.966
18361W        W79815   8.748  17.655   3.353
18362W        W79816  32.596   5.341   1.743
18363W        W79817  43.291  14.223  13.378
18364W        W79818  42.522  38.368   1.738
18365W        W79819  11.775  30.567   3.157
18366W        W79820   8.404  34.481   4.831
18367W        W79821  30.934  28.623  10.586
18368W        W79822  43.442  15.269  12.549
18369W        W79823   9.673   0.430   3.280
18370W        W79824  30.497   8.189   2.258
18371W        W79825  35.560  18.176   4.288
18372W        W79826   9.242  29.640   1.857
18373W        W79827  37.040  21.224   4.321
18374W        W79828   2.274  36.348  14.027
18375W        W79829  34.386  40.313   2.682
18376W        W79830  25.062  17.707  12.488
18377W        W79831  18.647  19.231  12.573
18378W        W79832  12.304   6.309   3.162
18379W        W79833  44.918  17.733  11.981
18380W        W79834  11.352  29.084  11.449
18381W        W79835  15.622   9.818   4.781
18382W        W79836  30.948  12.172   3.313
18383W        W79837  37.335  18.704   2.320
18384W        W79838   0.333  35.479  11.030
18385W        W79839  34.071  44.805  12.471
18386W        W79840  38.453  26.039  10.421
18387W        W79841  40.990  27.179   0.371
18388W        W79842   2.803  33.003   2.832
18389W        W79843   6.838  20.556   1.433
18390W        W79844  15.163  32.131   2.690
18391W        W79845  39.392  11.763  11.066
18392W        W79846  43.951  33.539  13.538
18393W        W79847  30.436  26.576   0.751
18394W        W79848  43.477  29.057  12.577
18395W        W79849  31.622   1.359  11.510
18396W        W79850   7.273  40.997  13.920
18397W        W79851  24.181  32.106   3.794
18398W        W79852  38.868  43.953   4.812
18399W        W79853   1.823  41.828   4.772
18400W        W79854  34.060  38.454  12.389
18401W        W79855  23.586  18.690   0.946
18402W        W79856   7.758  23.030   4.627
18403W        W79857  41.832  10.702  14.347
18404W        W79858  38.991  33.097   1.220
18405W        W79859  39.486   2.283  14.883
18406W        W79860  28.660  11.194  14.490
18407W        W79861  37.017  24.101  12.967
18408W        W79862   6.915  36.556   4.765
18409W        W79863  29.434  31.901   3.791
18410W        W79864  28.096  23.670  11.558
18411W        W79865  10.794  43.343   0.441
18412W        W79866   7.751  38.892  10.623
18413W        W79867  45.000  31.536  14.006
18414W        W79868  13.613  11.757   3.689
18415W        W79869   3.940  37.385  11.075
18416W        W79870  38.819  33.095  12.423
18417W        W79871   0.279  27.514   4.272
18418W        W79872  31.541  17.744   4.704
18419W        W79873  40.422  31.150  13.440
18420W        W79874   2.934   2.328   4.114
18421W        W79875  14.611  31.445   0.846
18422W        W79876  31.608   3.899  14.297
18423W        W79877  38.563   0.452  12.489
18424W        W79878  14.262   7.417   3.360
18425W        W79879   9.179  43.373   3.247
18426W        W79880   3.863  17.071  11.473
18427W        W79881  29.971  41.431   3.150
18428W        W79882  31.004  27.523  14.407
18429W        W79883  35.972  32.465   2.323
18430W        W79884  37.029  14.312  11.497
18431W        W79885   1.901   1.885   1.305
18432W        W79886  16.666   0.778  10.899
18433W        W79887   7.364  33.462   1.374
18434W        W79888  12.645  41.394   2.222
18435W        W79889  35.958  14.120  13.462
18436W        W79890  17.094  30.016  13.821
18437W        W79891  12.667  20.674   2.405
18438W        W79892   6.912  22.716  13.049
18439W        W79893  33.986  13.774   3.203
18440W        W79894  29.632   4.731   3.304
18441W        W79895  40.356  39.065  12.565
18442W        W79896   8.338  40.387   3.860
18443W        W79897  10.852  22.995   0.883
18444W        W79898  31.045  15.700   2.775
18445W        W79899  17.071   2.824  12.085
18446W        W79900  17.644  26.173  10.945
18447W        W79901  31.086  32.957   2.865
18448W        W79902   7.264  43.410  13.014
18449W        W79903  33.057  41.480   1.309
18450W        W79904  37.495  11.234   2.372
18451W        W79905  23.009   0.303  14.965
18452W        W79906   7.174   4.414   1.712
18453W        W79907  10.850  38.896   2.246
18454W        W79908   9.859  23.217  10.502
18455W        W79909  28.534  25.132  14.279
18456W        W79910  12.329  25.176   4.337
18457W        W79911  37.893   9.386  13.935
18458W        W79912  16.697  16.760   4.656
18459W        W79913  18.187   1.957  12.365
18460W        W79914  31.546   2.821   3.147
18461W        W79915  22.629  23.155   1.904
18462W        W79916   0.767  11.712   9.921
18463W        W79917  37.526  11.212   4.734
18464W        W79918   6.313   6.829  14.369
18465W        W79919   4.400   7.690  14.423
18466W        W79920   0.966  42.357   4.287
18467W        W79921  29.580  21.242   3.822
18468W        W79922  35.978   7.176  11.096
18469W        W79923  31.900  18.583  14.902
18470W        W79924  24.647   7.231  14.386
18471W        W79925  38.329  10.644  11.045
18472W        W79926   5.272  14.653   1.230
18473W        W79927   1.451  34.041  11.476
18474W        W79928  41.946  44.354  10.416
18475W        W79929  43.413   7.258   0.372
18476W        W79930   6.728  25.178   3.296
18477W        W79931  36.496  36.574  13.842
18478W        W79932   1.262  36.869   1.302
18479W        W79933   5.385  37.430  12.825
18480W        W79934  32.631   6.398  11.438
18481W        W79935  35.002  27.005   2.300
18482W        W79936  38.867  11.725  14.407
18483W        W79937  13.638  15.615   5.232
18484W        W79938  38.005  35.374  13.827
18485W        W79939  19.650  15.320   3.699
18486W        W79940  31.521  32.587   0.916
18487W        W79941  27.140   0.286   5.231
18488W        W79942  35.441  31.970  12.387
18489W        W79943  21.732  43.938  14.916
18490W        W79944  29.129  41.389  13.802
18491W        W79945   6.786  15.253   4.631
18492W        W79946  34.417  14.608   3.210
18493W        W79947  44.767  41.463  14.458
18494W        W79948  31.935  29.034  13.884
18495W        W79949  34.000  32.543  13.415
18496W        W79950  15.823  33.587  11.071
18497W        W79951  26.093   9.834  14.986
18498W        W79952  36.868  19.147  12.906
18499W        W79953  11.279  13.338   4.605
18500W        W79954   5.854  30.003  13.425
18501W        W79955  19.757  41.895  11.578
18502W        W79956  34.470  23.652  11.563
18503W        W79957   7.346   9.674  11.949
18504W        W79958  12.664  34.553  12.393
18505W        W79959   5.352  38.998  12.482
18506W        W79960  42.341  33.944   4.714
18507W        W79961  34.376  26.965  13.917
18508W        W79962  25.619  17.120   0.369
18509W        W79963  29.592  34.581  13.416
18510W        W79964  34.371   9.358   3.250
18511W        W79965   0.943  24.016   4.714
18512W        W79966  42.413  21.247   0.458
18513W        W79967  40.375  14.611  10.934
18514W        W79968  41.960  24.134   3.296
18515W        W79969  33.018  40.442  11.068
18516W        W79970  32.516   7.190  10.448
18517W        W79971  31.501   5.238   1.402
18518W        W79972  17.775  22.519   0.773
18519W        W79973  17.161  26.635  10.890
18520W        W79974  27.159  14.112  14.777
18521W        W79975  42.418  14.153  13.419
18522W        W79976   0.332  27.605  13.949
18523W        W79977  43.365  14.776   2.394
18524W        W79978  35.875  24.069   1.724
18525W        W79979  44.842  40.463  12.937
18526W        W79980  29.918  41.506  14.419
18527W        W79981  20.767  24.195   0.880
18528W        W79982  41.503  40.037   4.623
18529W        W79983  22.119  32.502   1.876
18530W        W79984  27.081  40.905  12.421
18531W        W79985  29.975  23.572   3.677
18532W        W79986  32.111  28.942   0.374
18533W        W79987  16.696  22.602   1.404
18534W        W79988  39.420   0.434  13.437
18535W        W79989  12.674  13.761   4.787
18536W        W79990  33.388  42.300  13.405
18537W        W79991  29.471  34.950  10.450
18538W        W79992  26.050   8.727  14.378
18539W        W79993  19.263   6.709  11.548
18540W        W79994  20.543   9.234   9.998
18541W        W79995  38.917  38.446   4.163
18542W        W79996  33.985  13.345   3.260
18543W        W79997   3.871  28.671  12.001
18544W        W79998  24.101  23.605   0.835
18545W        W79999  15.111  39.891   1.244
18546W        W80000  37.832  15.194   1.310
18547W        W80001  44.461  23.525   5.103
18548W        W80002  17.742  18.140   3.382
18549W        W80003  32.044  39.936   0.455
18550W        W80004   1.952  34.388  14.436
18551W        W80005  24.552   1.782   2.186
18552W        W80006  17.639  22.208   2.412
18553W        W80007  13.113   5.735   4.148
18554W        W80008  26.581  18.769  11.107
18555W        W80009  38.405  23.663   1.778
18556W        W80010  22.172   2.285   3.837
18557W        W80011  42.434  19.120   1.720
18558W        W80012  11.207  18.695   0.416
18559W        W80013   1.241  10.343  13.804
18560W        W80014  27.942   3.759   1.840
18561W        W80015  15.594  44.447  14.833
18562W        W80016  26.554  23.546   3.347
18563W        W80017  28.446  34.411   2.717
18564W        W80018  24.105  29.988  14.027
18565W        W80019  36.585  25.066   5.216
18566W        W80020  42.961  43.847  10.573
18567W        W80021  18.149   2.959   4.735
18568W        W80022  33.395  15.168  10.993
18569W        W80023  11.189  28.109   3.157
18570W        W80024  41.024  11.724  12.894
18571W        W80025  11.718  28.611  12.823
18572W        W80026  30.633  13.702  10.521
18573W        W80027  25.181  17.061  12.450
18574W        W80028   9.737  17.773  10.625
18575W        W80029  37.868  36.906  11.454
18576W        W80030  15.668  11.725  14.903
18577W        W80031  28.014  26.173  13.060
18578W        W80032  26.038   6.680  12.084
18579W        W80033  15.660  29.498  14.474
18580W        W80034  23.096  21.092   4.349
18581W        W80035  25.670  24.493  14.918
18582W        W80036  20.583  41.393  10.895
18583W        W80037   3.767   9.702  14.505
18584W        W80038  41.480  12.614  12.086
18585W        W80039  28.034  27.976   5.303
18586W        W80040   6.814  12.733   3.853
18587W        W80041  27.590  25.208   1.771
18588W        W80042  16.281  13.692  14.880
18589W        W80043  29.505  37.035   0.793
18590W        W80044  21.748  18.173   2.668
18591W        W80045  35.911  41.029  10.444
18592W        W80046  18.058  15.604  13.008
18593W        W80047   4.433   3.259  10.544
18594W        W80048  16.126   2.338   3.187
18595W        W80049  17.088   4.922  10.997
18596W        W80050  21.139   2.405  13.937
18597W        W80051  26.602   9.715   9.928
18598W        W80052  43.010   0.854   4.741
18599W        W80053  36.554  22.190   2.897
18600W        W80054  27.490  43.374   2.702
18601W        W80055  41.517   8.205   2.792
18602W        W80056  39.950  14.125   1.751
18603W        W80057  10.723  33.081   1.267
18604W        W80058   6.212  15.141  11.912
18605W        W80059  19.569  36.524  14.770
18606W        W80060  35.858  36.929  11.911
18607W        W80061   9.848  17.798  14.358
18608W        W80062  17.575  23.128   4.149
18609W        W80063  27.536  32.595   4.353
18610W        W80064  18.620  13.288   5.141
18611W        W80065  17.794   1.771   4.745
18612W        W80066   6.772  10.754  11.472
18613W        W80067  15.226   1.433   3.255
18614W        W80068   0.802   3.353  13.465
18615W        W80069  43.400   2.323  10.589
18616W        W80070  31.954  36.477   0.337
18617W        W80071  40.878  24.567  14.408
18618W        W80072  19.584  40.528   3.715
18619W        W80073  16.290   3.944   2.201
18620W        W80074  16.112  14.198   3.224
18621W        W80075   6.705  42.516   1.815
18622W        W80076  21.193  29.465   3.633
18623W        W80077  44.406   0.830   3.150
18624W        W80078  38.493   4.355  12.917
18625W        W80079  28.539  28.458  10.938
18626W        W80080  21.652  36.994  12.544
18627W        W80081  41.006  39.039   0.807
18628W        W80082   5.890  30.162  13.892
18629W        W80083  24.688   9.346  13.406
18630W        W80084  14.257  33.039  14.298
18631W        W80085   0.305  13.672   3.773
18632W        W80086  36.078  37.404  11.550
18633W        W80087  14.699  15.756  13.017
18634W        W80088  33.545  42.022  12.384
18635W        W80089  27.154  18.564   3.312
18636W        W80090  13.807  23.067   3.654
18637W        W80091  16.203  31.144   3.307
18638W        W80092  36.349  29.609  11.127
18639W        W80093  37.030  18.136   1.372
18640W        W80094   4.802  14.686   0.327
18641W        W80095  31.051  26.619   1.873
18642W        W80096  26.488   0.917  14.014
18643W        W80097  40.325  32.589   1.917
18644W        W80098  32.520  37.019   3.802
18645W        W80099  28.107  12.251   1.285
18646W        W80100   8.730  43.889   1.897
18647W        W80101  44.833  28.091  11.414
18648W        W80102  40.832  43.960  10.573
18649W        W80103   2.283  15.783  14.437
18650W        W80104   6.762   2.398   4.237
18651W        W80105  26.589   0.282   3.151
18652W        W80106   1.313  30.969   4.753
18653W        W80107  30.050  30.422  13.841
18654W        W80108  32.095  31.531   0.255
18655W        W80109  13.670  16.194  10.597
18656W        W80110  33.944  43.305   2.672
18657W        W80111  36.915  14.187   2.876
18658W        W80112  11.366   7.878   1.439
18659W        W80113  40.426  36.025  11.554
18660W        W80114  15.110  43.418   1.724
18661W        W80115  32.533   4.393  14.920
18662W        W80116  41.936   2.364   0.751
18663W        W80117   9.764   1.299  12.929
18664W        W80118  29.547  10.157   3.870
18665W        W80119  30.147  33.500   1.347
18666W        W80120  27.049  19.591   3.365
18667W        W80121  40.019  42.793  12.563
18668W        W80122  15.318  18.579   1.832
18669W        W80123   5.703  31.118   2.239
18670W        W80124  43.980   3.898   4.306
18671W        W80125  33.051  44.941  11.596
18672W        W80126  35.516  40.394  12.569
18673W        W80127   4.204  15.808   3.382
18674W        W80128   3.752  41.361   1.225
18675W        W80129  39.341  33.944  12.883
18676W        W80130   6.803   6.899  10.441
18677W        W80131  14.605  19.754  12.389
18678W        W80132  20.263  24.058   0.807
18679W        W80133  12.292  41.464  12.924
18680W        W80134  28.576  17.236  14.996
18681W        W80135  34.456  24.219   1.858
18682W        W80136  15.124  33.083   0.430
18683W        W80137   6.250   4.372   4.153
18684W        W80138  19.748  30.086   2.730
18685W        W80139  12.342  12.822  13.925
18686W        W80140  39.371  16.624  12.974
18687W        W80141  34.057  34.472  12.894
18688W        W80142   1.976   2.737  12.949
18689W        W80143  37.349  11.152   0.760
18690W        W80144   4.440   4.723   3.646
18691W        W80145  33.994  18.766  10.457
18692W        W80146   3.863  20.162   3.635
18693W        W80147   7.377  16.193   0.415
18694W        W80148   6.708  34.888  12.977
18695W        W80149   7.822  14.278   5.212
18696W        W80150  27.087   2.350  14.487
18697W        W80151   3.904  31.083   4.651
18698W        W80152  13.678  35.967  11.000
18699W        W80153  25.054  39.010   4.608
18700W        W80154   3.749  29.111   2.804
18701W        W80155  43.019  43.795   1.787
18702W        W80156  34.930  33.477  13.349
18703W        W80157  30.547   3.318   2.692
18704W        W80158   8.748   1.962  13.504
18705W        W80159  15.794   8.295   2.209
18706W        W80160  32.529  37.384   0.788
18707W        W80161   5.261  44.833   4.782
18708W        W80162  16.082  19.734   5.193
18709W        W80163  22.639  29.946   0.932
18710W        W80164   1.893  32.573   3.684
18711W        W80165   5.363  30.558  10.556
18712W        W80166  42.809   3.244  13.911
18713W        W80167  40.336   8.709  11.891
18714W        W80168  29.049  25.115   4.164
18715W        W80169   3.233   4.295   0.257
18716W        W80170   4.750   7.676   3.724
18717W        W80171  42.877  34.469  10.610
18718W        W80172  12.818   0.894   3.349
18719W        W80173  15.216  11.829  12.569
18720W        W80174  16.269  33.431  13.331
18721W        W80175   7.822  19.546  13.921
18722W        W80176  29.542  34.415   2.785
18723W        W80177  14.658   4.804  11.985
18724W        W80178  31.080  14.223  12.418
18725W        W80179  43.394  30.430  13.038
18726W        W80180  18.111  16.771  14.810
18727W        W80181  19.648  34.456   2.871
18728W        W80182   5.907  11.135   0.436
18729W        W80183  35.012  44.357  10.493
18730W        W80184  17.609  26.544  12.024
18731W        W80185   2.933  34.950   0.907
18732W        W80186  22.074  44.781  14.282
18733W        W80187  38.894   1.385   2.380
18734W        W80188  17.294  33.467   3.183
18735W        W80189  21.161  14.301  11.016
18736W        W80190  19.063   7.176  10.463
18737W        W80191   5.424   2.773   1.395
18738W        W80192  35.928  20.115   0.354
18739W        W80193  44.264  18.791  11.443
18740W        W80194   7.306  16.669   0.929
18741W        W80195  25.671  17.093   3.714
18742W        W80196  34.594  39.922   1.781
18743W        W80197   8.755  24.615  12.011
18744W        W80198  27.948  33.941   3.790
18745W        W80199   2.404  32.505  14.871
18746W        W80200  30.626  37.989   4.696
18747W        W80201   2.360  19.754   4.598
18748W        W80202  41.490  31.944   4.318
18749W        W80203  28.172  19.580  13.453
18750W        W80204  16.660   4.823  12.017
18751W        W80205  13.272   7.404   3.165
18752W        W80206  36.973   0.831  11.916
18753W        W80207  44.957  34.055  14.421
18754W        W80208  26.632   9.880  14.961
18755W        W80209  24.978   2.251  13.885
18756W        W80210  12.361  12.142   1.332
18757W        W80211  39.969  32.443  10.609
18758W        W80212   3.920  19.700   3.863
18759W        W80213  29.606   8.821   5.146
18760W        W80214  36.893  23.065  10.410
18761W        W80215  27.162  16.728   0.259
18762W        W80216   2.452   6.292   4.205
18763W        W80217   3.819  23.673  12.950
18764W        W80218  42.935  42.895   3.690
18765W        W80219  20.251  40.923  11.492
18766W        W80220  40.374  41.999   3.382
18767W        W80221   7.759  12.848  11.028
18768W        W80222  10.838  29.468  11.107
18769W        W80223  15.604  39.056  11.980
18770W        W80224  13.674  15.687  14.792
18771W        W80225  27.575   9.260  14.983
18772W        W80226  26.180  18.674   1.394
18773W        W80227  10.825  24.545   1.860
18774W        W80228  13.217  24.048   2.408
18775W        W80229   3.455  31.113   2.328
18776W        W80230  25.109  12.143   4.676
18777W        W80231  30.151  38.971   1.694
18778W        W80232  20.037   5.696  11.094
18779W        W80233  18.720  22.157  11.552
18780W        W80234   2.268  35.390   2.773
18781W        W80235  22.607  32.098   9.927
18782W        W80236  10.668  40.479  10.556
18783W        W80237   3.243  31.588  11.376
18784W        W80238   7.406  17.169   3.740
18785W        W80239  19.117  23.571   0.482
18786W        W80240  36.945  18.272  10.926
18787W        W80241  13.227   1.862   5.110
18788W        W80242   2.469   9.648   3.312
18789W        W80243  36.357   4.924  12.946
18790W        W80244  33.488   3.377   0.795
18791W        W80245  27.544  25.664  14.459
18792W        W80246  23.615  43.392  12.474
18793W        W80247   1.763  40.985   0.449
18794W        W80248  13.639  42.857  14.338
18795W        W80249  30.610   7.877  10.536
18796W        W80250  18.715   9.254   0.421
18797W        W80251  17.198  37.961   4.223
18798W        W80252  15.745  33.020   1.774
18799W        W80253  30.566  27.167   3.246
18800W        W80254  15.720  41.036  13.423
18801W        W80255  27.599  21.185   1.375
18802W        W80256  35.504   8.702  11.060
18803W        W80257  21.738  18.560  10.612
18804W        W80258  30.516  19.571  12.538
18805W        W80259  20.743  16.161   3.639
18806W        W80260  23.191   9.170   1.369
18807W        W80261  42.961   7.326   0.282
18808W        W80262  15.289  29.164   3.200
18809W        W80263   2.334  41.309  12.551
18810W        W80264  18.095  28.124   4.798
18811W        W80265  33.103  36.368  13.946
18812W        W80266  43.915  39.989   0.848
18813W        W80267  31.589  14.295   3.317
18814W        W80268  28.028  44.759  11.464
18815W        W80269   0.456  26.984   0.748
18816W        W80270  44.261  23.708  14.415
18817W        W80271  23.595  29.013  14.023
18818W        W80272   1.883  14.824   0.909
18819W        W80273  13.229  15.609   3.759
18820W        W80274  39.554  20.546   1.851
18821W        W80275  18.084  19.641  12.441
18822W        W80276  25.106   1.365   1.697
18823W        W80277  26.657  26.192   3.664
18824W        W80278   5.731  38.488   1.793
18825W        W80279  18.618  37.864   2.828
18826W        W80280  44.880  39.337   1.705
18827W        W80281  43.337  43.294  12.949
18828W        W80282  20.136  39.512   0.342
18829W        W80283  10.250   4.237  12.865
18830W        W80284  16.708  34.043  14.785
18831W        W80285  20.080  17.073   3.766
18832W        W80286  19.252  38.445  11.477
18833W        W80287  10.788   3.405   2.768
18834W        W80288  21.170   0.341   5.297
18835W        W80289  15.589  39.337   0.745
18836W        W80290  17.704  26.648   5.112
18837W        W80291  31.047  25.689  10.459
18838W        W80292  12.841  16.222  11.444
18839W        W80293  38.480   6.235  14.342
18840W        W80294  17.577  15.184  12.035
18841W        W80295  20.569  26.000   0.733
18842W        W80296  42.290  42.439  11.996
18843W        W80297  25.033  37.956  13.528
18844W        W80298  39.979   1.335   3.338
18845W        W80299   8.238  11.183  10.982
18846W        W80300  13.692  24.211   0.458
18847W        W80301  36.038   7.302   2.221
18848W        W80302   2.827  13.216   0.445
18849W        W80303  32.396  38.484  13.847
18850W        W80304  36.895  41.861  13.906
18851W        W80305   3.243  19.724   0.830
18852W        W80306   7.757  18.063  13.385
18853W        W80307  35.881  38.888   4.204
18854W        W80308  32.403   2.345  12.545
18855W        W80309  28.610  39.904   1.725
18856W        W80310  35.475  11.795   2.691
18857W        W80311  29.929   8.697   2.768
18858W        W80312   0.858  39.452   4.825
18859W        W80313   8.770  12.218  10.505
18860W        W80314  34.402  16.717  13.940
18861W        W80315  12.678  27.944  12.944
18862W        W80316  20.044   9.213  11.941
18863W        W80317   9.339   5.776  11.504
18864W        W80318  39.872  23.507   2.212
18865W        W80319   1.819   5.276   2.267
18866W        W80320  11.632  39.423  14.949
18867W        W80321  12.271  39.009  13.514
18868W        W80322  37.373  14.641  12.470
18869W        W80323  20.708   0.944   2.212
18870W        W80324   6.763  32.621   3.294
18871W        W80325  13.169  34.945  12.083
18872W        W80326   0.776   4.230   4.673
18873W        W80327  36.950  35.097   3.277
18874W        W80328  34.598  20.148   3.322
18875W        W80329   2.463  44.363  14.370
18876W        W80330   9.288  20.578   3.315
18877W        W80331  24.602  44.763  12.453
18878W        W80332  39.393   5.279   0.941
18879W        W80333   9.362  44.841   4.151
18880W        W80334  19.196   3.215   3.311
18881W        W80335  12.289  12.765  12.007
18882W        W80336  25.492  44.401   0.454
18883W        W80337  13.805  13.240  14.404
18884W        W80338  11.250  14.272  13.380
18885W        W80339  15.659  31.518  10.950
18886W        W80340  20.140  16.179   0.905
18887W        W80341  39.523  21.563   0.841
18888W        W80342  11.707  13.826   2.720
18889W        W80343   5.822   0.915  10.916
18890W        W80344   2.237   3.733   4.816
18891W        W80345  40.922   6.199   0.372
18892W        W80346  24.655  18.273  10.519
18893W        W80347  36.441   8.297  13.814
18894W        W80348  33.425  28.449  11.919
18895W        W80349   0.762  31.562   3.259
18896W        W80350  24.033  15.727   3.862
18897W        W80351   0.309  41.916  14.787
18898W        W80352  44.997  12.823   3.632
18899W        W80353   4.241  24.172  14.389
18900W        W80354  11.788   4.745  14.992
18901W        W80355  27.513  37.055   0.763
18902W        W80356  21.742  23.621  13.811
18903W        W80357  25.000  36.525   2.198
18904W        W80358   5.867  22.025   2.364
18905W        W80359  18.782  33.931  14.325
18906W        W80360  30.076   0.929   1.246
18907W        W80361  18.546   3.276  13.031
18908W        W80362  37.932   0.481  10.078
18909W        W80363  27.594  36.063   2.359
18910W        W80364  31.935  16.293  10.585
18911W        W80365  27.588  20.692  11.430
18912W        W80366  17.604  14.136   2.760
18913W        W80367  41.808  38.411   4.275
18914W        W80368  25.514   7.826  11.028
18915W        W80369  20.256  42.368   1.929
18916W        W80370  15.656  31.607  11.475
18917W        W80371   5.427   0.920   3.668
18918W        W80372   8.373  41.959   4.801
18919W        W80373  12.124  42.299   9.639
18920W        W80374  29.543  27.550  14.821
18921W        W80375   9.702  35.528   2.286
18922W        W80376  29.430  30.538  13.835
18923W        W80377  21.596  26.493  12.940
18924W        W80378   7.829   0.471   4.740
18925W        W80379   4.783  37.448   4.647
18926W        W80380  20.529  44.455  12.994
18927W        W80381  10.187  10.201  10.976
18928W        W80382  39.046  22.675   0.815
18929W        W80383  36.585   9.866  10.495
18930W        W80384  31.963  27.965   0.881
18931W        W80385   4.866   9.688   0.283
18932W        W80386  23.683  39.316  13.457
18933W        W80387  32.976  37.498   0.446
18934W        W80388  20.567  42.834  14.401
18935W        W80389   2.866   3.759  14.903
18936W        W80390  29.983   7.839   2.337
18937W        W80391  28.170  28.459  14.339
18938W        W80392  37.432   8.214   2.900
18939W        W80393  14.225   1.762  13.362
18940W        W80394  42.967   1.310   2.253
18941W        W80395   3.884  35.068   2.742
18942W        W80396  10.310  17.244   0.960
18943W        W80397  41.871  29.045  11.011
18944W        W80398  44.994   2.277  14.817
18945W        W80399  44.321  36.391   2.896
18946W        W80400  42.860   5.324   1.785
18947W        W80401  13.608  19.728   5.221
18948W        W80402  38.068  42.798  10.526
18949W        W80403  26.181  31.097   4.775
18950W        W80404  25.111   1.303  12.394
18951W        W80405   2.775  23.528  13.965
18952W        W80406   4.306   3.784   2.329
18953W        W80407  33.122  32.076  11.050
18954W        W80408  21.250  10.347  12.067
18955W        W80409  30.616  16.686  11.578
18956W        W80410  43.949   7.725  13.843
18957W        W80411   7.374   2.842  14.962
18958W        W80412  14.740   5.358  13.476
18959W        W80413   6.203   1.917   5.111
18960W        W80414  22.109  19.259   3.750
18961W        W80415   3.357  10.679   1.796
18962W        W80416  17.575  39.821   0.831
18963W        W80417  35.047  38.962  13.473
18964W        W80418   1.472  27.998  13.337
18965W        W80419  18.263  42.803  11.534
18966W        W80420  15.789   5.388  13.822
18967W        W80421  28.055   1.752   3.341
18968W        W80422  27.150  18.154   2.272
18969W        W80423   7.223   2.792   4.237
18970W        W80424  24.164  12.766   3.708
18971W        W80425  34.580  16.717   0.424
18972W        W80426   8.671   8.718   4.116
18973W        W80427  41.307  35.893   4.341
18974W        W80428  43.355  15.621  12.493
18975W        W80429   3.941  20.600   0.435
18976W        W80430  19.582  31.632  11.047
18977W        W80431  14.230  24.113  13.488
18978W        W80432  40.540  27.622   3.149
18979W        W80433  37.060   6.710  12.486
18980W        W80434  13.152  10.824   0.750
18981W        W80435  36.036   2.392   0.481
18982W        W80436   4.433   7.243   2.750
18983W        W80437   9.230  24.043   3.326
18984W        W80438  31.497  25.648  13.882
18985W        W80439   3.938  30.154  11.412
18986W        W80440  36.364   8.868   1.872
18987W        W80441  43.465  22.658  12.456
18988W        W80442  16.660   4.365   2.885
18989W        W80443  14.687   5.295  10.967
18990W        W80444   8.258  20.228  11.552
18991W        W80445  14.208  36.970   1.846
18992W        W80446  38.394   5.755  11.947
18993W        W80447  16.229  44.836  14.758
18994W        W80448  23.644  42.378  12.837
18995W        W80449  37.831  14.612   0.829
18996W        W80450  29.525   2.234   3.825
18997W        W80451  37.344  23.039  10.906
18998W        W80452  30.574  15.642  11.028
18999W        W80453  15.296  40.971  11.030
19000W        W80454  42.349  43.296   3.739
19001W        W80455   5.701  38.916   3.162
19002W        W80456   6.807  16.589  14.965
19003W        W80457   7.815  14.257  11.532
19004W        W80458  29.548  30.543   4.278
19005W        W80459  31.905  26.047   1.825
19006W        W80460  28.972  44.774  11.401
19007W        W80461  33.598  33.482   1.843
19008W        W80462   8.331  41.988  13.800
19009W        W80463   0.899  26.956  12.551
19010W        W80464   5.327  28.119  12.840
19011W        W80465   5.326  12.122  14.280
19012W        W80466  42.369  31.516   1.388
19013W        W80467  17.260  10.788   2.747
19014W        W80468  29.949  32.994  13.946
19015W        W80469  33.477  21.230  12.437
19016W        W80470  15.817  14.247  14.766
19017W        W80471   1.247  30.989  11.056
19018W        W80472   2.785  10.198   2.764
19019W        W80473  25.559  25.048  10.915
19020W        W80474  24.121  17.083   2.380
19021W        W80475   9.240  38.907  12.529
19022W        W80476  39.316   2.366   4.134
19023W        W80477  38.357  23.143  10.589
19024W        W80478   2.278  39.472  12.442
19025W        W80479  44.908  27.959  12.534
19026W        W80480  19.664  22.069   0.385
19027W        W80481  31.926   2.808  11.538
19028W        W80482  15.099  37.363  14.313
19029W        W80483  17.108  42.345   4.307
19030W        W80484  40.397  15.111  14.952
19031W        W80485  28.167  12.698  13.531
19032W        W80486  40.510  26.048  11.973
19033W        W80487  22.695  26.175   4.821
19034W        W80488  22.591  26.002   3.779
19035W        W80489  25.110  41.320   0.285
19036W        W80490   6.902   3.801   0.418
19037W        W80491  41.407   2.790  14.798
19038W        W80492  18.113  20.630   3.206
19039W        W80493  30.485  37.067  12.032
19040W        W80494   9.748  44.980   1.429
19041W        W80495  36.002  37.028   3.694
19042W        W80496   7.340   9.339  14.835
19043W        W80497  18.648  31.407  12.042
19044W        W80498  30.135  38.561  10.464
19045W        W80499  32.535   1.835  12.872
19046W        W80500  35.039  36.068  13.492
19047W        W80501  19.682  22.527   4.678
19048W        W80502  29.065  35.544   2.706
19049W        W80503  39.391  26.039   3.286
19050W        W80504  38.037  15.179   0.400
19051W        W80505  16.725   8.849   4.218
19052W        W80506   3.817  22.998  13.325
19053W        W80507  12.719   3.917   3.767
19054W        W80508  40.027  16.768  11.449
19055W        W80509  26.571  44.815  12.375
19056W        W80510  37.572   8.725  12.880
19057W        W80511  32.949  17.783  12.559
19058W        W80512  32.460  42.792  11.596
19059W        W80513  19.638  38.061  14.759
19060W        W80514  44.288  33.503  12.538
19061W        W80515  30.147   2.933   3.733
19062W        W80516  11.863  29.941  10.638
19063W        W80517   3.922  26.548   4.664
19064W        W80518  11.700  28.975  10.642
19065W        W80519   4.209   7.316   0.242
19066W        W80520  37.901  25.496  14.437
19067W        W80521  42.856  15.240  14.277
19068W        W80522  18.188  22.109   3.784
19069W        W80523  43.466  20.212  10.495
19070W        W80524  10.689  16.288   2.720
19071W        W80525  37.461  21.217   3.694
19072W        W80526  23.565  37.868  11.079
19073W        W80527  11.308  11.759  13.831
19074W        W80528  42.347   4.434  11.465
19075W        W80529  17.167  33.001   3.260
19076W        W80530   6.346  21.600  11.420
19077W        W80531  41.457   1.410   0.460
19078W        W80532   4.247  41.305  12.072
19079W        W80533   2.253  40.523   4.133
19080W        W80534  23.204   7.834  12.915
19081W        W80535   7.293  11.333  14.009
19082W        W80536  11.224  27.964  13.312
19083W        W80537  24.139  14.812   3.693
19084W        W80538  38.441  43.508   4.282
19085W        W80539   7.730  24.545  12.526
19086W        W80540  31.970  33.889  10.611
19087W        W80541  28.438  24.973   1.698
19088W        W80542  10.708  19.735  12.904
19089W        W80543  11.847   0.276  11.882
19090W        W80544  11.146  10.282   0.950
19091W        W80545  36.969  43.452  13.309
19092W        W80546  42.905  14.797  11.117
19093W        W80547  37.534  27.527  14.936
19094W        W80548   8.780  14.694   0.285
19095W        W80549  38.916   0.917  10.057
19096W        W80550  16.728  30.432   4.221
19097W        W80551  30.137  16.725  13.994
19098W        W80552  33.921  23.060  14.503
19099W        W80553  27.975  20.612  11.980
19100W        W80554  36.355  10.354   0.443
19101W        W80555  15.251  15.106  11.393
19102W        W80556  26.040  17.070   1.313
19103W        W80557   4.881  43.496   0.406
19104W        W80558  10.840  43.777  12.941
19105W        W80559  13.787  12.173   0.447
19106W        W80560  43.867  24.212  11.372
19107W        W80561  39.557   0.753  12.042
19108W        W80562  29.606  28.055  14.406
19109W        W80563  36.486  34.086   1.217
19110W        W80564   8.361  43.923   3.832
19111W        W80565  25.149  35.470  14.931
19112W        W80566  16.248  26.538  10.568
19113W        W80567  17.264  29.111  14.905
19114W        W80568  20.701  16.210   4.350
19115W        W80569   6.270  24.676  11.516
19116W        W80570  12.834  38.358   5.241
19117W        W80571  18.054   5.789  10.426
19118W        W80572  27.542  38.412  13.896
19119W        W80573  38.448  40.961   3.202
19120W        W80574  19.657  30.989  11.860
19121W        W80575  34.944  33.389   5.090
19122W        W80576  34.385  29.166  12.825
19123W        W80577  17.705  31.976   1.788
19124W        W80578  13.832  12.154  10.904
19125W        W80579  20.132  24.209  14.436
19126W        W80580  22.708   6.805  10.404
19127W        W80581  10.279  31.575   0.296
19128W        W80582  31.093  29.511  10.921
19129W        W80583   1.385  17.574   3.226
19130W        W80584  40.909   2.807   4.761
19131W        W80585  34.876  15.798  14.976
19132W        W80586   1.732  12.341  12.858
19133W        W80587  44.866  26.150   4.802
19134W        W80588  19.738  18.630   3.747
19135W        W80589  20.764  42.972   4.781
19136W        W80590  36.005  11.347   4.665
19137W        W80591  36.550  37.997  12.350
19138W        W80592   3.750  25.039  11.071
19139W        W80593   9.362  44.348  11.390
19140W        W80594   1.437  12.276   4.649
19141W        W80595   5.236   2.262   2.711
19142W        W80596   9.235  30.647   0.307
19143W        W80597  21.678  28.151  10.505
19144W        W80598  28.470   5.245   1.267
19145W        W80599   6.337  31.944   0.917
19146W        W80600   8.399  23.004   4.665
19147W        W80601  23.564  42.960  11.069
19148W        W80602  16.591   9.784   2.710
19149W        W80603  28.581  33.393  13.873
19150W        W80604  44.867  26.035   1.451
19151W        W80605   4.850  32.975  14.344
19152W        W80606  44.931  21.017  12.031
19153W        W80607  36.439  27.454  13.402
19154W        W80608   8.351   0.296   0.374
19155W        W80609  35.046  15.734   0.964
19156W        W80610  10.828  30.984   1.285
19157W        W80611   1.920  16.801   1.399
19158W        W80612   1.390  43.886   0.360
19159W        W80613   0.376  36.375  10.495
19160W        W80614  26.581  31.148  14.507
19161W        W80615   3.314  20.728   3.642
19162W        W80616  27.033  11.726  10.157
19163W        W80617  22.601  19.081   0.881
19164W        W80618  23.735  20.135  10.971
19165W        W80619  12.856  25.596   2.200
19166W        W80620   0.758  24.028   1.779
19167W        W80621   2.918  17.171  11.070
19168W        W80622  13.748  15.321   3.784
19169W        W80623  20.250  24.207  11.464
19170W        W80624  34.606  39.368   3.166
19171W        W80625   6.692   1.913   3.831
19172W        W80626  30.100   3.362   3.169
19173W        W80627  27.146   9.825   1.395
19174W        W80628  19.047  10.757  10.522
19175W        W80629  14.650  20.091  10.413
19176W        W80630  29.531  20.215   0.903
19177W        W80631  23.594   3.455   2.196
19178W        W80632  35.038  39.883  13.039
19179W        W80633  39.347  15.740  14.418
19180W        W80634  28.496  18.713   4.676
19181W        W80635  43.499  24.664  10.980
19182W        W80636   1.337   5.259  11.910
19183W        W80637  11.804  41.947  11.043
19184W        W80638  31.987  13.702   4.298
19185W        W80639  35.939   4.353   4.287
19186W        W80640  38.990   6.347  10.512
19187W        W80641  34.863   2.274  11.485
19188W        W80642  26.624  17.602   2.247
19189W        W80643  32.888  29.056  12.417
19190W        W80644  40.850  35.946  13.803
19191W        W80645  20.246  12.189   0.800
19192W        W80646  43.341  13.675   4.635
19193W        W80647   2.369  13.635   0.769
19194W        W80648  35.091  25.666   0.465
19195W        W80649  41.034  20.114   4.151
19196W        W80650  44.894  14.250   2.227
19197W        W80651  11.208  44.357   0.458
19198W        W80652  33.431  39.904  12.984
19199W        W80653   0.832  40.389   4.337
19200W        W80654  32.609  10.830  14.030
19201W        W80655  40.039  12.315   1.388
19202W        W80656  33.052  10.869  13.501
19203W        W80657  17.559   2.326   0.390
19204W        W80658   4.393  24.124  14.892
19205W        W80659  17.799  16.081  12.827
19206W        W80660  40.529  29.652   5.292
19207W        W80661  27.690  22.591   9.580
19208W        W80662  27.133  26.121   4.321
19209W        W80663  13.124  44.988  11.856
19210W        W80664  26.630   7.406  14.883
19211W        W80665  15.620  20.155  13.369
19212W        W80666  28.160  35.495   3.829
19213W        W80667  19.068   0.402   0.843
19214W        W80668   1.877  17.710  11.935
19215W        W80669  26.202  41.302   4.757
19216W        W80670  29.116  28.034   3.838
19217W        W80671  42.332   8.790  13.437
19218W        W80672   0.344  35.103   3.299
19219W        W80673  28.115  30.439   0.355
19220W        W80674  10.743  16.660  13.799
19221W        W80675   1.889   1.778  11.014
19222W        W80676   5.808  15.084   1.729
19223W        W80677   8.399  20.752  14.332
19224W        W80678  17.227  23.119  13.932
19225W        W80679  38.051  32.485   1.232
19226W        W80680  35.984  26.980  10.898
19227W        W80681   2.419  41.372   9.996
19228W        W80682  19.213  14.245   4.241
19229W        W80683  33.121  30.500  13.008
19230W        W80684  16.141  42.025  14.973
19231W        W80685  41.032  15.289   3.673
19232W        W80686  31.434  30.490   2.260
19233W        W80687  16.132  11.626  13.434
19234W        W80688   0.859  10.153  11.608
19235W        W80689  26.557  30.425  10.058
19236W        W80690  42.786   7.688   3.817
19237W        W80691  26.084  32.094   3.702
19238W        W80692  14.149  43.955   0.290
19239W        W80693  13.784   1.961   1.383
19240W        W80694   9.333  21.197   2.354
19241W        W80695   7.376  25.552   4.144
19242W        W80696  24.498  18.061  13.879
19243W        W80697  30.994  26.541   3.676
19244W        W80698  34.962  13.148   1.715
19245W        W80699  25.964  23.643   3.202
19246W        W80700  12.306  18.661   3.353
19247W        W80701  37.533  34.886   1.779
19248W        W80702  23.682   0.837  12.420
19249W        W80703  30.998  29.155  10.151
19250W        W80704  12.284  25.035   2.334
19251W        W80705  34.452  20.693  13.998
19252W        W80706   6.693   3.849  10.987
19253W        W80707  39.445  31.591  13.885
19254W        W80708  32.110  21.536  10.907
19255W        W80709  12.317  17.285  13.491
19256W        W80710  35.000  36.358   0.434
19257W        W80711  24.017  34.089  14.416
19258W        W80712   1.354  16.812  14.299
19259W        W80713  14.675  28.001   2.754
19260W        W80714   0.463  41.834  11.103
19261W        W80715  17.650   0.855   0.403
19262W        W80716  33.602  18.784  13.792
19263W        W80717  36.403  15.148  13.032
19264W        W80718  30.037  15.189   3.263
19265W        W80719  32.098   5.262  12.483
19266W        W80720   0.926  32.448  12.438
19267W        W80721   0.978  27.142  11.488
19268W        W80722   9.262  32.992  13.512
19269W        W80723   2.931  32.613  11.858
19270W        W80724  32.419   3.404  14.795
19271W        W80725  43.804  28.034  14.783
19272W        W80726  40.338   6.854  11.419
19273W        W80727  30.614  36.546   2.862
19274W        W80728   1.905  19.216   3.334
19275W        W80729  24.706  12.356  11.863
19276W        W80730  42.335   9.857  14.786
19277W        W80731  25.023  11.842   3.865
19278W        W80732  17.606  38.962  11.421
19279W        W80733  12.190  12.193   3.657
19280W        W80734  43.466  41.354  14.814
19281W        W80735  31.055  18.295  11.075
19282W        W80736  10.196  36.547  13.377
19283W        W80737  19.638  17.117   2.373
19284W        W80738  23.172  39.976   2.319
19285W        W80739   2.806  16.124   3.354
19286W        W80740  22.232  36.911   4.228
19287W        W80741   9.390   7.698  10.526
19288W        W80742  27.080  25.000  10.107
19289W        W80743   7.192   8.268   1.698
19290W        W80744   6.705  29.542  12.040
19291W        W80745   0.281  36.955  11.521
19292W        W80746  11.797  42.361   1.896
19293W        W80747   8.170  24.119   0.918
19294W        W80748   5.226  32.586  10.974
19295W        W80749  16.739  10.180  10.934
19296W        W80750  24.635   8.674   0.421
19297W        W80751   3.732  34.976  11.085
19298W        W80752   4.730   8.235   1.705
19299W        W80753   9.181   0.261  12.386
19300W        W80754  27.533   0.336   4.184
19301W        W80755  28.130   3.394  13.805
19302W        W80756  22.638  23.550  10.612
19303W        W80757  37.529  43.803  12.902
19304W        W80758   9.350  34.902   3.748
19305W        W80759  19.599  28.029  10.964
19306W        W80760  43.364  16.567  13.919
19307W        W80761  23.632  17.133  13.342
19308W        W80762  12.269  13.629  13.915
19309W        W80763  25.500   8.192  13.486
19310W        W80764  35.954  16.628   4.773
19311W        W80765   9.389  31.918   0.360
19312W        W80766  38.534   7.823   1.775
19313W        W80767   6.203  25.702  14.424
19314W        W80768   9.749  14.611  14.801
19315W        W80769  26.183  29.086   2.220
19316W        W80770  26.462  28.060  11.936
19317W        W80771  26.017  10.253   0.381
19318W        W80772  20.112  44.333  11.106
19319W        W80773   1.244  28.998   1.752
19320W        W80774  29.159  29.941  11.027
19321W        W80775  44.988   5.340   0.832
19322W        W80776   2.288  16.158  11.577
19323W        W80777   5.829  33.473   4.769
19324W        W80778   7.202  10.699   3.328
19325W        W80779  18.631  27.543   1.222
19326W        W80780   5.377  42.970  14.799
19327W        W80781  16.096  17.174   4.780
19328W        W80782  23.714  41.839  14.964
19329W        W80783  22.604  28.552  13.431
19330W        W80784   7.236  32.942  13.847
19331W        W80785  39.320  40.825   3.744
19332W        W80786  11.730  15.731   3.208
19333W        W80787  17.164  19.083   0.426
19334W        W80788   5.259   9.194  11.115
19335W        W80789  17.757  11.633  11.379
19336W        W80790  35.475  17.688  12.381
19337W        W80791   5.415  13.610   1.296
19338W        W80792  36.546  12.643  11.043
19339W        W80793  28.051  38.868   4.180
19340W        W80794  20.129  28.944  11.497
19341W        W80795   5.795  26.565   0.814
19342W        W80796  11.333   4.218  10.905
19343W        W80797  21.255  23.100  10.571
19344W        W80798  44.397  17.797   0.245
19345W        W80799  30.604  19.731   0.764
19346W        W80800  40.837  33.026   0.472
19347W        W80801  22.248   4.395  10.617
19348W        W80802  42.377  28.553   4.768
19349W        W80803  33.039   5.840  14.008
19350W        W80804  38.483  41.359  12.454
19351W        W80805  33.396  29.566  14.852
19352W        W80806  12.361  40.998  14.793
19353W        W80807   6.395  21.225   3.188
19354W        W80808   5.362  38.907   1.397
19355W        W80809  19.205  36.920   0.337
19356W        W80810  22.512  18.066  13.313
19357W        W80811   5.329  22.103  14.760
19358W        W80812  14.724  25.564   2.836
19359W        W80813  15.185  28.931   2.710
19360W        W80814   9.238   9.859  12.900
19361W        W80815  25.712  44.887  11.932
19362W        W80816  36.957  12.728  11.072
19363W        W80817  42.507  25.992  13.841
19364W        W80818   3.236  29.157   3.637
19365W        W80819   5.365  22.082   3.293
19366W        W80820  11.319  16.137  13.857
19367W        W80821  27.147  17.166   2.411
19368W        W80822   0.449  40.511   4.821
19369W        W80823  15.653   5.733  10.101
19370W        W80824  18.107   2.729  10.413
19371W        W80825   8.760  13.666   2.786
19372W        W80826  20.212  42.516  13.804
19373W        W80827   2.945  41.454  12.946
19374W        W80828  39.937  20.071   0.827
19375W        W80829  10.376  14.247  12.451
19376W        W80830  11.665  29.138  10.007
19377W        W80831  41.009  35.435  13.051
19378W        W80832  21.090   4.212  14.365
19379W        W80833   8.670  14.643   3.234
19380W        W80834  20.184  12.793  11.866
19381W        W80835   4.853   0.884  10.514
19382W        W80836   3.434  39.425   1.333
19383W        W80837  29.627  27.523   4.143
19384W        W80838  33.083  37.580  13.433
19385W        W80839  20.174  32.068  14.951
19386W        W80840   4.258   9.347  10.494
19387W        W80841  16.317   5.884   1.730
19388W        W80842   3.216  20.028   3.718
19389W        W80843  30.536  35.519   2.697
19390W        W80844  35.415  41.321   0.305
19391W        W80845  35.431  44.426  13.916
19392W        W80846  22.157  38.457   3.280
19393W        W80847   4.732  30.957  14.987
19394W        W80848  29.575  42.837  12.471
19395W        W80849  18.201  29.510   2.817
19396W        W80850  42.955   5.825  13.392
19397W        W80851  15.603  43.434   4.348
19398W        W80852   5.356   4.814   2.269
19399W        W80853  37.499   0.860   4.141
19400W        W80854   2.348  36.469   0.426
19401W        W80855  20.052  17.745  10.576
19402W        W80856  24.987  44.908   4.199
19403W        W80857  35.553  20.182  12.839
19404W        W80858  19.625  20.575  13.316
19405W        W80859   8.214  14.118  10.432
19406W        W80860  35.083  42.404  12.378
19407W        W80861   9.368  14.714  12.481
19408W        W80862  30.583  20.239   2.676
19409W        W80863  35.508   5.260   2.759
19410W        W80864  29.950  20.592   2.181
19411W        W80865  32.009  34.076   2.705
19412W        W80866  39.480  10.868  13.858
19413W        W80867  27.070  31.635   0.455
19414W        W80868  11.679  29.516  12.432
19415W        W80869  36.046  30.003  12.092
19416W        W80870  25.046  33.574  11.574
19417W        W80871   6.681  23.097   4.150
19418W        W80872  24.663  20.250   4.287
19419W        W80873  44.444  24.664  14.913
19420W        W80874  23.734   7.312   1.335
19421W        W80875  29.652  30.926  12.444
19422W        W80876  22.010  43.896  12.496
19423W        W80877  25.108  40.992   4.707
19424W        W80878  40.009  42.936   3.852
19425W        W80879  27.064  26.525  13.875
19426W        W80880  43.961  26.112   1.736
19427W        W80881  44.764  25.709  12.383
19428W        W80882  31.091  22.636  11.497
19429W        W80883  28.573  32.077   4.768
19430W        W80884  25.620  14.264  11.075
19431W        W80885  39.395   9.833   4.147
19432W        W80886  28.678  12.768   9.957
19433W        W80887  17.308  40.529  14.295
19434W        W80888  32.526  33.476  12.373
19435W        W80889  12.730  11.749  12.930
19436W        W80890  24.978  24.119  13.322
19437W        W80891  18.286  39.380  11.549
19438W        W80892  10.254   7.712   1.801
19439W        W80893  10.229  30.042  12.853
19440W        W80894  23.106  34.981   1.804
19441W        W80895   1.885  41.535   3.257
19442W        W80896   3.945  24.209   2.205
19443W        W80897  34.894  41.422  10.150
19444W        W80898  28.112  22.093   4.148
19445W        W80899  26.957  36.528   2.771
19446W        W80900  27.684  36.983   3.214
19447W        W80901  42.524  17.302   1.824
19448W        W80902  37.393  39.880   2.227
19449W        W80903  43.991  42.790  10.501
19450W        W80904  33.042  30.990  12.881
19451W        W80905  27.560  44.960  10.502
19452W        W80906  29.050  15.199  14.886
19453W        W80907  13.251   4.356  11.907
19454W        W80908  28.522  28.020  14.511
19455W        W80909   8.774  19.684   4.733
19456W        W80910   5.835  38.391   0.853
19457W        W80911  23.622  31.032  13.963
19458W        W80912  14.286   9.345  12.003
19459W        W80913  31.613   0.312   0.768
19460W        W80914  13.113   6.364  12.483
19461W        W80915   9.223   8.744  12.445
19462W        W80916  15.158   2.442   3.377
19463W        W80917  43.911  18.728   3.682
19464W        W80918  16.199  11.274  12.087
19465W        W80919  31.938   0.344   1.427
19466W        W80920   4.710   7.358  13.905
19467W        W80921  43.479   1.752   3.838
19468W        W80922  27.587  21.210   3.671
19469W        W80923  16.728  15.179  10.482
19470W        W80924  16.135  23.627  12.410
19471W        W80925  39.428  12.854   2.303
19472W        W80926  40.358  10.159   3.147
19473W        W80927   5.795   4.401   3.172
19474W        W80928  14.739  31.525  12.442
19475W        W80929  38.977   7.308   1.782
19476W        W80930   5.708   2.463   2.199
19477W        W80931  23.196  20.168  10.545
19478W        W80932  19.163  14.159   1.839
19479W        W80933  37.379   1.293   2.271
19480W        W80934  42.510  18.210  13.008
19481W        W80935   2.845  41.024  13.505
19482W        W80936   4.334  37.346  14.432
19483W        W80937  26.490   6.685   2.188
19484W        W80938  38.956  13.720   1.259
19485W        W80939  42.020  39.543   4.741
19486W        W80940  25.599  28.570   4.155
19487W        W80941  12.646  26.096  14.909
19488W        W80942  24.149  44.809   2.326
19489W        W80943  13.277  25.637   0.964
19490W        W80944  29.498  13.275  12.967
19491W        W80945  31.429  13.334   0.918
19492W        W80946   8.287  25.006  14.968
19493W        W80947  36.846  33.433   1.417
19494W        W80948   5.834  30.910  14.410
19495W        W80949  25.108  36.923  13.895
19496W        W80950  29.166  34.875   5.198
19497W        W80951   4.882  27.455  12.994
19498W        W80952  19.108   5.836  13.891
19499W        W80953  35.415   1.892   2.863
19500W        W80954   0.873  10.211   3.184
19501W        W80955  24.998   1.824  12.578
19502W        W80956  40.959  23.699   0.768
19503W        W80957  15.623  43.351  10.617
19504W        W80958  14.617  37.035   1.421
19505W        W80959  24.989   9.849  12.551
19506W        W80960  33.532  36.898   1.706
19507W        W80961  14.811  30.119   0.916
19508W        W80962  18.722  29.548  13.495
19509W        W80963  16.180   5.272  12.906
19510W        W80964  16.598  19.044  14.866
19511W        W80965  16.572   8.282  13.947
19512W        W80966  18.280  43.993  10.980
19513W        W80967   5.922  17.210   0.330
19514W        W80968  42.432   1.753   0.928
19515W        W80969  16.135  11.770  12.956
19516W        W80970   6.712  27.553  14.403
19517W        W80971   2.339  27.528  13.054
19518W        W80972   9.858  43.305  10.613
19519W        W80973  23.209  18.150   2.682
19520W        W80974  31.098  42.475   3.184
19521W        W80975  37.422  22.086  13.808
19522W        W80976  34.574  11.861  11.950
19523W        W80977  29.006  10.671   4.148
19524W        W80978  25.020   5.783  12.473
19525W        W80979  39.948   3.392   2.747
19526W        W80980  38.878   1.915  10.975
19527W        W80981  19.689  23.092  13.320
19528W        W80982   9.192   4.806   3.774
19529W        W80983   8.654  25.000   4.819
19530W        W80984  24.706  42.975   0.809
19531W        W80985  27.599  12.294   3.684
19532W        W80986  29.666  13.774   0.944
19533W        W80987  29.488  44.456   5.139
19534W        W80988  10.209  43.481  10.613
19535W        W80989  25.013   6.328   1.845
19536W        W80990  17.201  24.046  13.821
19537W        W80991  11.849  24.976  10.072
19538W        W80992  16.308  39.884  12.993
19539W        W80993  33.468  20.623   2.688
19540W        W80994  29.095  30.505   3.369
19541W        W80995  22.143  31.582   3.212
19542W        W80996  36.538  14.722   4.153
19543W        W80997  12.278  29.598  12.496
19544W        W80998   6.324  27.007   4.818
19545W        W80999  12.629   3.774  12.491
19546W        W81000   3.325  26.687   0.466
19547W        W81001   0.489  38.371   2.895
19548W        W81002  10.322   1.356  11.383
19549W        W81003  29.056  20.181  13.908
19550W        W81004  13.224  30.044  14.856
19551W        W81005  14.789  41.365   4.672
19552W        W81006  41.435  14.734   2.843
19553W        W81007  15.285  23.098  12.830
19554W        W81008  33.067   5.250   1.898
19555W        W81009  35.102  21.687  11.544
19556W        W81010  11.822  25.689  12.448
19557W        W81011  40.473  10.199   1.400
19558W        W81012  17.203  17.176   4.267
19559W        W81013  22.501  39.969  10.891
19560W        W81014   5.699   7.889  13.054
19561W        W81015   5.422  11.250   3.225
19562W        W81016  29.124  10.210  10.433
19563W        W81017  23.014  25.699  14.321
19564W        W81018  35.474  26.052   3.721
19565W        W81019   7.681  32.909  12.522
19566W        W81020  37.377  36.358   4.651
19567W        W81021   9.155   4.410  11.932
19568W        W81022  20.696  38.348   1.229
19569W        W81023  21.075  13.247  13.507
19570W        W81024   6.849   4.364   0.260
19571W        W81025  27.108  41.897  14.849
19572W        W81026   1.328  30.038   0.424
19573W        W81027  21.683   3.794   4.252
19574W        W81028  17.154  31.948   0.770
19575W        W81029  25.535  21.044  11.492
19576W        W81030  27.029  19.248   1.396
19577W        W81031  24.544  32.120   3.231
19578W        W81032   2.942   8.801  11.938
19579W        W81033  20.562   0.857  11.480
19580W        W81034  37.953   1.859   1.856
19581W        W81035  29.934  23.019  12.825
19582W        W81036   3.858  38.535   1.338
19583W        W81037  33.910   7.304   4.326
19584W        W81038   3.843  30.611  11.911
19585W        W81039  20.080  13.109   4.247
19586W        W81040  22.603  30.481   1.728
19587W        W81041  36.888  13.124  10.567
19588W        W81042   3.394  34.570   4.797
19589W        W81043  26.008  11.703   3.326
19590W        W81044   7.237  25.041   3.204
19591W        W81045  42.014   1.757  10.115
19592W        W81046  11.165   9.750  12.008
19593W        W81047  29.109  39.927  10.423
19594W        W81048  14.797  35.913  14.290
19595W        W81049  25.599  42.919  12.999
19596W        W81050  25.585  30.943  11.572
19597W        W81051  12.350  31.508   0.379
19598W        W81052   6.302  24.525   4.169
19599W        W81053  31.573  31.927   0.280
19600W        W81054  43.365  43.487   2.809
19601W        W81055  31.038  38.029   0.463
19602W        W81056  18.604  44.764  10.483
19603W        W81057  24.523   6.748   0.826
19604W        W81058   7.353  34.615  12.474
19605W        W81059  21.596  42.812   2.371
19606W        W81060  33.885  25.100   1.863
19607W        W81061   5.201  13.811  11.394
19608W        W81062   0.325  27.675   3.176
19609W        W81063  38.837  14.627  14.429
19610W        W81064  27.967  40.404   2.848
19611W        W81065   2.902   4.832  14.863
19612W        W81066  35.019  40.934  14.834
19613W        W81067  34.098   5.322   4.335
19614W        W81068   6.700  36.866   4.704
19615W        W81069  21.711  35.546  13.969
19616W        W81070   6.910  13.227  11.607
19617W        W81071  44.987  40.326  11.046
19618W        W81072   0.858  29.134  11.523
19619W        W81073  40.030  31.973  14.761
19620W        W81074  40.319  18.583  14.345
19621W        W81075   9.876  25.599  13.976
19622W        W81076   7.322  26.675  13.944
19623W        W81077  25.549   4.908  11.969
19624W        W81078  10.786  25.195  14.462
19625W        W81079  31.140  12.279   9.951
19626W        W81080   6.191  26.038  10.145
19627W        W81081  15.164  24.485  11.406
19628W        W81082  21.740  12.779   4.636
19629W        W81083  35.917  21.537   3.681
19630W        W81084   4.345  36.524   2.318
19631W        W81085  43.510  35.481  13.332
19632W        W81086   1.422  10.723   3.196
19633W        W81087  15.659  25.537   3.819
19634W        W81088  17.117   6.191  11.003
19635W        W81089  21.694   2.830   2.349
19636W        W81090  25.138  41.418  11.482
19637W        W81091  38.497  32.533  11.551
19638W        W81092  27.469  18.175   4.619
19639W        W81093  38.943   9.356   1.793
19640W        W81094  39.901  43.813  12.855
19641W        W81095  14.212  20.727  10.478
19642W        W81096   5.419  28.977  11.961
19643W        W81097  38.872  25.029  13.511
19644W        W81098  19.068   9.691   2.750
19645W        W81099  34.937   2.733   4.162
19646W        W81100  26.473   6.700   3.313
19647W        W81101  20.264  28.568  13.940
19648W        W81102  37.359  38.363  12.095
19649W        W81103   8.288   4.306  13.933
19650W        W81104   7.232  38.902   4.820
19651W        W81105  30.606   1.242  11.610
19652W        W81106  40.904  12.120  14.383
19653W        W81107  29.549  21.197   4.751
19654W        W81108   1.356  12.795  13.907
19655W        W81109  30.164  21.038   3.796
19656W        W81110  10.235  17.596   1.290
19657W        W81111  23.624  40.363   0.962
19658W        W81112  38.067  35.365  11.917
19659W        W81113  30.492  42.478  14.900
19660W        W81114  36.519  11.246   3.860
19661W        W81115  21.749  35.100   1.429
19662W        W81116  23.551  10.350  14.913
19663W        W81117  32.538  16.216   3.636
19664W        W81118  42.985   2.364  13.521
19665W        W81119  24.590  13.168  10.589
19666W        W81120  17.561  43.859  12.856
19667W        W81121   2.938  15.608  10.923
19668W        W81122  25.579   8.285  11.554
19669W        W81123  12.143  10.766   1.694
19670W        W81124   3.821   1.793   0.960
19671W        W81125  29.431  25.186  14.793
19672W        W81126  44.434   7.846   2.853
19673W        W81127  24.711   8.766   5.247
19674W        W81128  37.884  13.613  13.934
19675W        W81129  42.875   9.152   3.193
19676W        W81130  15.130  33.080   3.835
19677W        W81131   1.947   1.915  10.636
19678W        W81132   0.761  37.343  11.495
19679W        W81133   3.913  35.439   0.904
19680W        W81134   9.829   9.257   4.155
19681W        W81135   4.334   4.340   4.600
19682W        W81136   4.847  19.078  10.534
19683W        W81137  21.557  33.894  11.911
19684W        W81138  43.409  15.220  14.934
19685W        W81139  10.308  21.727   4.121
19686W        W81140  26.478  11.363   1.334
19687W        W81141  23.710   1.750   3.154
19688W        W81142  20.765   0.300   1.254
19689W        W81143  14.223  33.943  12.555
19690W        W81144  44.416  16.309   4.260
19691W        W81145  37.988  44.846  12.410
19692W        W81146  31.560  34.461  12.095
19693W        W81147  44.759  33.108   2.267
19694W        W81148  16.756  21.584   3.808
19695W        W81149   3.862   2.840  11.987
19696W        W81150  32.958   5.295   3.729
19697W        W81151   3.784  43.964  11.971
19698W        W81152  41.517   4.883   1.904
19699W        W81153  29.663   0.393   4.650
19700W        W81154  22.675   8.182   1.348
19701W        W81155   1.880   8.809  11.036
19702W        W81156  22.119   0.774   0.962
19703W        W81157  16.134  40.396  13.389
19704W        W81158  37.502   2.318  12.515
19705W        W81159   5.716  18.176  12.984
19706W        W81160   8.201  22.620  12.434
19707W        W81161  12.350  42.985   3.634
19708W        W81162  21.019  18.593  11.973
19709W        W81163  25.549  44.954   0.344
19710W        W81164  34.932  22.141   2.233
19711W        W81165  20.080  11.804   5.306
19712W        W81166  20.042   4.390  13.928
19713W        W81167  18.057   0.419  13.365
19714W        W81168  40.988  41.939   0.296
19715W        W81169  10.701  36.450   0.811
19716W        W81170  29.546  33.089  11.877
19717W        W81171  38.361  17.588   4.653
19718W        W81172   2.330  41.447  12.964
19719W        W81173   6.306  32.960   4.184
19720W        W81174  13.200  10.779  14.447
19721W        W81175  14.197  19.728  10.002
19722W        W81176  24.691  35.976   1.842
19723W        W81177   5.237  32.630   3.774
19724W        W81178  19.605  22.673   1.380
19725W        W81179  27.645  26.513   2.205
19726W        W81180  27.621   7.187   5.282
19727W        W81181   4.859   6.878  12.507
19728W        W81182  34.380  35.551  13.470
19729W        W81183   1.793  36.506  14.862
19730W        W81184   7.703  16.234   0.249
19731W        W81185   2.932   0.774  12.870
19732W        W81186  22.716  30.546   2.204
19733W        W81187  17.203  16.599  11.918
19734W        W81188  31.513  23.686   0.735
19735W        W81189  32.489  32.102   3.331
19736W        W81190  16.614   9.846   3.863
19737W        W81191  38.889  19.779   1.350
19738W        W81192  18.148  33.090   3.194
19739W        W81193  43.390  31.003   2.226
19740W        W81194  20.088   1.921   4.655
19741W        W81195  42.490  21.530   3.188
19742W        W81196  23.520  21.638   3.680
19743W        W81197  19.566  25.491  11.858
19744W        W81198  34.521  19.556   0.843
19745W        W81199  18.157  25.656  12.429
19746W        W81200  27.176   1.866  14.943
19747W        W81201   2.809   5.314   0.830
19748W        W81202  43.773  33.473  11.975
19749W        W81203   4.702  29.581  13.456
19750W        W81204  27.130  44.298   0.838
19751W        W81205  39.346  35.386  10.590
19752W        W81206  35.989  14.761  14.307
19753W        W81207  33.510  29.097  14.427
19754W        W81208   5.921  43.896   0.803
19755W        W81209  11.350   0.887  10.526
19756W        W81210  33.512  14.134  11.967
19757W        W81211  16.589  31.975   0.254
19758W        W81212  23.082  17.636  14.891
19759W        W81213  30.934  44.939   2.820
19760W        W81214  43.927   2.349  13.918
19761W        W81215   9.280  34.040  13.453
19762W        W81216  19.166  29.126  10.468
19763W        W81217   1.871  43.291  11.859
19764W        W81218  22.225  30.067   3.665
19765W        W81219  18.062  31.447   1.242
19766W        W81220  42.839  22.154   0.284
19767W        W81221  24.663  12.807   3.277
19768W        W81222  18.276   8.657   5.212
19769W        W81223  17.715  18.096   4.323
19770W        W81224  31.114  11.141   3.357
19771W        W81225   3.274  33.931   4.169
19772W        W81226  11.691  44.765   1.230
19773W        W81227  40.859  31.523   4.308
19774W        W81228  19.690  32.407  13.483
19775W        W81229  28.571   9.697  11.476
19776W        W81230  28.152  20.060  11.527
19777W        W81231  19.657   0.799   1.374
19778W        W81232   3.915   2.722   4.665
19779W        W81233   7.711  14.274  10.047
19780W        W81234  31.090  22.200   1.714
19781W        W81235  37.884  14.159  11.522
19782W        W81236  11.650  44.309  13.003
19783W        W81237  24.654  28.995   1.704
19784W        W81238  33.413   2.847  11.604
19785W        W81239  41.853  39.850   4.125
19786W        W81240  28.068   5.790  11.376
19787W        W81241  12.303   7.757  12.436
19788W        W81242  31.966  42.019  13.799
19789W        W81243  40.345  22.179  13.435
19790W        W81244  16.232  14.749  10.093
19791W        W81245  30.085  19.652   1.407
19792W        W81246  42.436  13.325   4.315
19793W        W81247   8.205   7.808  10.590
19794W        W81248   7.230  21.118  14.495
19795W        W81249   2.278  14.766   3.171
19796W        W81250   4.764  33.483  13.347
19797W        W81251  22.555  26.553  11.523
19798W        W81252  10.705   1.437   2.355
19799W        W81253   7.830  25.093   1.868
19800W        W81254  27.973  31.515  11.881
19801W        W81255  29.622   3.727  14.386
19802W        W81256  44.831  11.191  13.539
19803W        W81257  44.917  13.632   1.820
19804W        W81258  32.932  16.654  12.071
19805W        W81259  14.713  26.600  11.034
19806W        W81260   5.738  34.986  13.368
19807W        W81261  40.337  21.680   4.816
19808W        W81262  44.904  14.622  14.971
19809W        W81263  21.725  28.063   1.710
19810W        W81264  17.662  25.113   1.335
19811W        W81265  24.080  42.776  12.402
19812W        W81266  38.038   1.907  11.866
19813W        W81267  43.801   3.361   5.299
19814W        W81268  35.480   5.919   2.207
19815W        W81269  16.277  39.935   3.272
19816W        W81270   9.781  19.152   1.925
19817W        W81271  29.505  17.259  12.431
19818W        W81272  31.116   9.873   9.924
19819W        W81273  23.020  18.086  12.052
19820W        W81274  22.052  13.652  14.276
19821W        W81275  13.137  43.003  14.889
19822W        W81276  14.178  12.247   1.870
19823W        W81277  25.583  28.052   3.803
19824W        W81278   1.887  41.532  13.484
19825W        W81279   5.869  14.719  10.433
19826W        W81280  41.015  10.753  10.989
19827W        W81281  20.270  28.545   0.365
19828W        W81282  34.492   2.878   2.792
19829W        W81283  26.993   0.964  11.039
19830W        W81284  36.467  16.695   2.288
19831W        W81285  39.990  37.016   3.780
19832W        W81286  36.898   0.311  14.875
19833W        W81287  36.844  11.134   0.773
19834W        W81288  19.119  37.490   2.292
19835W        W81289   8.895   4.279  10.922
19836W        W81290  20.641  31.567   0.361
19837W        W81291  28.125   0.820   3.692
19838W        W81292  31.551   3.431   4.736
19839W        W81293  13.613  10.280   1.927
19840W        W81294  18.579  28.516  10.528
19841W        W81295  13.804  13.722  14.835
19842W        W81296   2.769  11.252   2.389
19843W        W81297   2.727   5.708   0.416
19844W        W81298   6.394  34.978   1.241
19845W        W81299  43.883  44.412  13.970
19846W        W81300  40.461  13.277   0.939
19847W        W81301  18.180  10.797  12.077
19848W        W81302  18.634   2.421  13.316
19849W        W81303   3.940  16.738  13.037
19850W        W81304  24.682  26.083  13.062
19851W        W81305  15.166  24.583  12.502
19852W        W81306  33.966  30.650  11.498
19853W        W81307  14.609  25.034  13.413
19854W        W81308  34.466  17.694  14.950
19855W        W81309  22.013   9.149   0.396
19856W        W81310  28.459  32.900  11.901
19857W        W81311  31.593  40.005   3.183
19858W        W81312  22.053  10.211   4.145
19859W        W81313  10.749  41.447   0.875
19860W        W81314  12.304   2.895   2.315
19861W        W81315  13.335  27.643  10.925
19862W        W81316  27.478   0.780   0.396
19863W        W81317  21.539  19.586   4.145
19864W        W81318  13.124  22.589   5.310
19865W        W81319  29.430  28.036   4.149
19866W        W81320  37.877  32.048  12.018
19867W        W81321  13.807  40.015  13.491
19868W        W81322  20.687  27.447   0.357
19869W        W81323  28.457  30.502   2.667
19870W        W81324  32.962  18.658  14.990
19871W        W81325  23.729  28.586  12.443
19872W        W81326  25.539  36.368   0.475
19873W        W81327  27.954  25.123   3.379
19874W        W81328  20.696  14.621  13.930
19875W        W81329  22.211   2.840   3.799
19876W        W81330  10.375  30.551  13.379
19877W        W81331  29.617   6.723  14.477
19878W        W81332  14.143  34.937  13.896
19879W        W81333   4.737  43.816   9.922
19880W        W81334  22.564  19.226  14.328
19881W        W81335  19.113  17.085   2.244
19882W        W81336  25.676  42.863  14.927
19883W        W81337   6.191  22.664  11.427
19884W        W81338  21.549   6.773   0.920
19885W        W81339  24.041  10.277  13.005
19886W        W81340  42.387  39.525  12.002
19887W        W81341  10.786  36.900  14.837
19888W        W81342  26.613  12.185   1.864
19889W        W81343  21.541  17.593   0.752
19890W        W81344  43.008   9.254  10.621
19891W        W81345   7.340  13.140  13.059
19892W        W81346   6.722  11.353   3.265
19893W        W81347  19.677  21.228   3.634
19894W        W81348   3.956   6.840  14.821
19895W        W81349   6.397  27.470   1.770
19896W        W81350  10.858   1.810  12.552
19897W        W81351  17.609   5.300   4.827
19898W        W81352  23.597   8.655  13.833
19899W        W81353  32.019  14.188  13.860
19900W        W81354  42.341  44.758  11.108
19901W        W81355  27.607   9.777   0.860
19902W        W81356   4.212   4.399   1.364
19903W        W81357  36.491  11.235  14.939
19904W        W81358  34.010  13.672  10.922
19905W        W81359  18.744  14.626   2.835
19906W        W81360  37.482  23.702   2.720
19907W        W81361  32.480  24.994  13.849
19908W        W81362  33.937   6.215  12.936
19909W        W81363  33.517  39.350  10.618
19910W        W81364   5.234  37.901  11.120
19911W        W81365  29.610  38.378  14.024
19912W        W81366  43.977  17.096  12.874
19913W        W81367  31.056  29.633   0.247
19914W        W81368  26.191  34.049  14.310
19915W        W81369  31.997  10.334  11.535
19916W        W81370  30.936  38.961   3.338
19917W        W81371  12.687  16.204  10.960
19918W        W81372   5.350  34.014  14.942
19919W        W81373  25.647   9.865   1.247
19920W        W81374   4.871   0.250  12.008
19921W        W81375  33.428  43.467  10.532
19922W        W81376  21.523  25.987  11.474
19923W        W81377  37.339  40.012  14.348
19924W        W81378  31.987  39.831  14.434
19925W        W81379  40.351  18.738  10.598
19926W        W81380   7.685  30.969   0.742
19927W        W81381  44.363  14.315  12.429
19928W        W81382  27.059   0.296   4.813
19929W        W81383  24.080   2.358  10.497
19930W        W81384  44.495  43.962   3.174
19931W        W81385   0.265  31.627  11.398
19932W        W81386  40.354  44.807  10.411
19933W        W81387  31.583  35.541   4.674
19934W        W81388   0.343  44.263  10.440
19935W        W81389  39.422  23.550   0.444
19936W        W81390   4.298  31.144   0.335
19937W        W81391  44.985  19.658  10.985
19938W        W81392  35.879  28.181  12.493
19939W        W81393  22.715  37.019   0.912
19940W        W81394  25.164  31.963   0.826
19941W        W81395  26.023  39.826   0.460
19942W        W81396  13.754  35.887   1.210
19943W        W81397  28.072  40.531   3.259
19944W        W81398  25.132  14.216   4.209
19945W        W81399  14.713  36.580  14.975
19946W        W81400  19.077  29.615   2.278
19947W        W81401   4.343  38.830   1.372
19948W        W81402  28.093  44.800  10.110
19949W        W81403   1.483  17.634   2.733
19950W        W81404   6.381  21.234   4.280
19951W        W81405  27.589  26.183  11.039
19952W        W81406  35.893  23.599  10.954
19953W        W81407  21.735   2.851   4.190
19954W        W81408  27.155  40.518  13.518
19955W        W81409  23.053  13.283   4.645
19956W        W81410  10.202  32.009   1.342
19957W        W81411   6.713  16.107  14.459
19958W        W81412  24.168  22.051  11.935
19959W        W81413  33.914  13.333   1.382
19960W        W81414  21.229  37.856   3.315
19961W        W81415  34.950  13.686  13.942
19962W        W81416  43.459   7.683   4.721
19963W        W81417  39.373   0.809  10.986
19964W        W81418  34.120  26.495   1.435
19965W        W81419  11.161  22.707  11.109
19966W        W81420  41.002  11.858  10.644
19967W        W81421   5.317  40.957  10.994
19968W        W81422  30.543   9.775  14.986
19969W        W81423   0.780   6.386   2.808
19970W        W81424  39.042  30.506   0.293
19971W        W81425  24.670  23.120   1.244
19972W        W81426  24.124  13.280  11.567
19973W        W81427   4.242  28.082  14.436
19974W        W81428  13.693  32.080  12.917
19975W        W81429  25.497  17.079   2.243
19976W        W81430  22.529  21.555  13.061
19977W        W81431  23.707  16.659   3.234
19978W        W81432  33.917  25.701  11.612
19979W        W81433  28.542  42.487  14.031
19980W        W81434  14.286  34.967   4.299
19981W        W81435  32.000  44.977  13.919
19982W        W81436   4.916  14.695  10.520
19983W        W81437   6.292  27.630  11.066
19984W        W81438  30.059  11.345  11.592
19985W        W81439  31.946  17.187   4.688
19986W        W81440  26.049  13.256  10.922
19987W        W81441   8.901   5.291  12.351
19988W        W81442   9.233  38.511  14.892
19989W        W81443   4.385  44.335  13.801
19990W        W81444  39.989  15.698   3.658
19991W        W81445   5.907  25.017   1.844
19992W        W81446  34.017  28.580   0.268
19993W        W81447   0.393  14.669  14.355
19994W        W81448  17.574  36.939   4.267
19995W        W81449   9.317  33.430  13.535
19996W        W81450   5.833   1.829  11.396
19997W        W81451  16.691  43.847   4.749
19998W        W81452  37.566  21.025   1.226
19999W        W81453  33.623  17.693   0.471
20000W        W81454  41.994  14.229  13.814
20001W        W81455  23.029   0.369   2.271
20002W        W81456   8.348  12.827  10.992
20003W        W81457  14.771  32.426  11.030
20004W        W81458  13.133  42.000  14.890
20005W        W81459  32.114  24.527   2.699
20006W        W81460  20.527  13.723  14.515
20007W        W81461  19.166  29.040   0.321
20008W        W81462  15.684   7.395   1.254
20009W        W81463  19.167  41.023   2.409
20010W        W81464  10.646  33.125  10.008
20011W        W81465  17.718  29.164  11.106
20012W        W81466  42.842  37.485  11.495
20013W        W81467  35.420  41.865  11.005
20014W        W81468  23.724  42.432  14.458
20015W        W81469  15.204  23.053   1.827
20016W        W81470  41.843   1.891  11.934
20017W        W81471  32.901  39.371  10.418
20018W        W81472  42.367  30.526   2.393
20019W        W81473  33.919   9.771  10.562
20020W        W81474   7.827  20.761  11.542
20021W        W81475  37.047  30.042   1.823
20022W        W81476  18.060  40.847  12.062
20023W        W81477  19.559   2.739  13.831
20024W        W81478  28.513  32.446   2.208
20025W        W81479   2.924  13.744   0.321
20026W        W81480  29.431   7.227   2.750
20027W        W81481  19.263   8.785  11.987
20028W        W81482   5.825  38.825  10.441
20029W        W81483  28.479  42.389  11.883
20030W        W81484  39.378  14.766   0.298
20031W        W81485  34.414  10.863  11.512
20032W        W81486  11.228  22.091  10.406
20033W        W81487  31.124  26.968  11.518
20034W        W81488  22.566  35.470  12.348
20035W        W81489  42.937  18.722  12.884
20036W        W81490  44.808  11.741   0.931
20037W        W81491  42.307  41.833   1.888
20038W        W81492  22.553  29.084  11.907
20039W        W81493  40.446   7.822   1.814
20040W        W81494  18.758  24.058  13.023
20041W        W81495  35.401  17.791  12.906
20042W        W81496  39.372  15.172   3.283
20043W        W81497  36.451   4.404  12.532
20044W        W81498  29.491  20.067   1.256
20045W        W81499  39.940  40.898  11.547
20046W        W81500  22.223  39.363   4.759
20047W        W81501   0.335  30.650   1.796
20048W        W81502  23.712  12.677   3.331
20049W        W81503   2.824   0.328  10.442
20050W        W81504   2.227  16.665   1.225
20051W        W81505  10.750  34.113   3.216
20052W        W81506   8.848  13.806  12.520
20053W        W81507  20.179  14.154  10.913
20054W        W81508  25.545   2.268   3.787
20055W        W81509  37.507   4.700   0.454
20056W        W81510  24.050  36.468  14.969
20057W        W81511  37.961  28.559  14.831
20058W        W81512  21.572  39.360   2.405
20059W        W81513  33.470  23.527   5.300
20060W        W81514  19.672  17.786  13.875
20061W        W81515  17.595  12.681  14.466
20062W        W81516   8.304  41.356   4.708
20063W        W81517  39.369   0.469  13.872
20064W        W81518  36.851  28.061   1.405
20065W        W81519  41.393  18.587   5.109
20066W        W81520  43.855  10.878   3.756
20067W        W81521   9.193  29.131  14.896
20068W        W81522  36.442  14.618  13.934
20069W        W81523  43.867  28.592  14.016
20070W        W81524  44.423   5.204   0.780
20071W        W81525  13.290  38.398  10.066
20072W        W81526   2.341  25.211   0.252
20073W        W81527  17.163   7.794  13.860
20074W        W81528  28.057   6.361   3.751
20075W        W81529  25.112  40.943   4.238
20076W        W81530  27.632  18.107   2.344
20077W        W81531  23.044  19.685   1.327
20078W        W81532   1.887  29.083   3.378
20079W        W81533   4.942  35.922   3.177
20080W        W81534  40.830  39.850   0.426
20081W        W81535  27.581  39.380   4.160
20082W        W81536  32.581   9.318  12.541
20083W        W81537  18.649   2.470   1.850
20084W        W81538   0.476  31.045   3.724
20085W        W81539  20.162   5.700   3.337
20086W        W81540   9.155  17.657   1.850
20087W        W81541  32.495   7.395  10.963
20088W        W81542  25.124  37.387  10.635
20089W        W81543  31.433  29.045   2.347
20090W        W81544  29.538   0.259   2.869
20091W        W81545  39.318  15.285  13.969
20092W        W81546  39.422   1.274   1.446
20093W        W81547  37.887   7.301  12.056
20094W        W81548   3.954  21.036   3.283
20095W        W81549  23.520  32.525  11.522
20096W        W81550  15.661  39.560   5.644
20097W        W81551  17.795  42.444  12.412
20098W        W81552  25.104  31.565  13.887
20099W        W81553  39.344  38.968  10.011
20100W        W81554  13.233  26.602   0.869
20101W        W81555  40.348  22.140  12.440
20102W        W81556  30.487   3.461   4.284
20103W        W81557  14.308  13.708  12.428
20104W        W81558  19.752  26.958   4.158
20105W        W81559  33.975   8.355  13.017
20106W        W81560  42.930  10.189   0.774
20107W        W81561  44.334   9.790   3.260
20108W        W81562  11.359  31.134   0.363
20109W        W81563  17.802  22.235  14.903
20110W        W81564  30.626  23.127  10.915
20111W        W81565  18.791  41.866   3.685
20112W        W81566  23.537  19.253   3.367
20113W        W81567  31.997  15.312  14.388
20114W        W81568  30.990  39.024   1.231
20115W        W81569  10.704  20.659   4.598
20116W        W81570  44.333   7.307  12.835
20117W        W81571  16.221  44.406   2.334
20118W        W81572   5.926  12.758   3.259
20119W        W81573  18.764   4.244   3.797
20120W        W81574  25.991  20.119   3.845
20121W        W81575  18.746  38.076  11.932
20122W        W81576  13.173  38.465   4.751
20123W        W81577  42.301  15.303   3.744
20124W        W81578  22.049  29.478   3.704
20125W        W81579  24.603  29.665   3.828
20126W        W81580   0.845  41.959  13.997
20127W        W81581  43.996  27.180  13.022
20128W        W81582   6.238  20.180  14.471
20129W        W81583  13.187  41.987   0.949
20130W        W81584  19.647  24.150   2.693
20131W        W81585   4.232  21.553  12.502
20132W        W81586  14.174  10.145  12.990
20133W        W81587  14.617  18.658  14.007
20134W        W81588  17.787  20.582  10.517
20135W        W81589  20.140  43.300   1.350
20136W        W81590  13.782  42.416   2.853
20137W        W81591   6.718  21.094   3.759
20138W        W81592  35.527  34.889  10.517
20139W        W81593   1.838  21.116   1.889
20140W        W81594   4.933  41.380  11.104
20141W        W81595   6.287  44.755   1.254
20142W        W81596  33.553   5.693  14.456
20143W        W81597  26.691  29.434  10.482
20144W        W81598  13.781  16.217  12.510
20145W        W81599  32.008  39.541  12.051
20146W        W81600  19.131   0.955  11.040
20147W        W81601  23.141   4.301   0.942
20148W        W81602  35.448  15.655   3.343
20149W        W81603  35.894  23.542   1.248
20150W        W81604   3.904  31.411  14.924
20151W        W81605   8.710  14.266   0.393
20152W        W81606   1.395  11.631  11.058
20153W        W81607   5.233   2.236   1.738
20154W        W81608  36.091  24.124  13.352
20155W        W81609   4.307   8.238   0.333
20156W        W81610  37.517  17.158   0.824
20157W        W81611   0.307  43.455  11.891
20158W        W81612  27.660  35.517  12.374
20159W        W81613   3.350   3.352  11.508
20160W        W81614  22.538   5.782   0.468
20161W        W81615  43.296  37.983   3.236
20162W        W81616  40.466   2.886   0.321
20163W        W81617  26.691  17.254  14.363
20164W        W81618  22.528  19.739  12.491
20165W        W81619  26.063  10.705   4.685
20166W        W81620   1.422   6.197   3.656
20167W        W81621  10.362  39.811   1.233
20168W        W81622  42.333  15.182  10.598
20169W        W81623  22.118   2.927   1.880
20170W        W81624  16.224  21.078  12.828
20171W        W81625  12.826   1.789   1.915
20172W        W81626   7.175   5.706   1.310
20173W        W81627  42.909  10.213  12.416
20174W        W81628  10.257   3.339   0.906
20175W        W81629   6.864   6.290   3.773
20176W        W81630  39.471  14.142   1.349
20177W        W81631  18.273  13.131   1.339
20178W        W81632  16.708  21.729  12.378
20179W        W81633  21.541  20.754   2.307
20180W        W81634   8.866  21.017   0.729
20181W        W81635  40.823  26.483  10.599
20182W        W81636  27.648  40.814  14.877
20183W        W81637  43.931  27.968   1.445
20184W        W81638  19.139  10.272  11.947
20185W        W81639  13.186   9.842  10.481
20186W        W81640  24.569   3.449  14.962
20187W        W81641   5.780  21.088   4.711
20188W        W81642  34.445  30.921   0.438
20189W        W81643  15.129  16.611   3.169
20190W        W81644  26.018  11.705   2.759
20191W        W81645  43.391  41.355  13.026
20192W        W81646  25.998  26.564  14.991
20193W        W81647  42.778  26.477   0.941
20194W        W81648  42.800  28.667   1.752
20195W        W81649  17.794   3.835  10.433
20196W        W81650  44.261   4.814  13.466
20197W        W81651   2.265  33.960  14.498
20198W        W81652  38.345  28.502   1.911
20199W        W81653   8.280  30.489  10.566
20200W        W81654  27.678  31.540   0.480
20201W        W81655  11.694   8.664  11.932
20202W        W81656   7.731  21.541  14.453
20203W        W81657  26.176  27.122  11.955
20204W        W81658  20.623  17.714   0.470
20205W        W81659  41.021  32.530   3.785
20206W        W81660  13.171  30.907  12.069
20207W        W81661  27.139   7.370  11.989
20208W        W81662   6.676  39.825  12.833
20209W        W81663  31.026  39.943  13.370
20210W        W81664  19.676  40.881  12.549
20211W        W81665  32.625  30.106  11.521
20212W        W81666  18.143  31.420  14.308
20213W        W81667   8.753   9.659  10.633
20214W        W81668  33.575  24.103  12.974
20215W        W81669   1.466  26.179  14.437
20216W        W81670  35.475  12.202  14.997
20217W        W81671   8.396  19.572  14.798
20218W        W81672  14.109  36.475  10.527
20219W        W81673  40.513  16.113   0.475
20220W        W81674  44.798  41.860  10.927
20221W        W81675  37.862  17.722   3.774
20222W        W81676  42.324  16.184  12.003
20223W        W81677  29.646  36.494  11.527
20224W        W81678  19.204  27.164  11.071
20225W        W81679  15.585  26.000   3.688
20226W        W81680   5.755  39.834   1.280
20227W        W81681  32.106  21.591  13.792
20228W        W81682  24.600  27.453   4.149
20229W        W81683  34.097  39.020   1.775
20230W        W81684  36.072  10.143  13.816
20231W        W81685  20.698  31.592  14.814
20232W        W81686  18.711  18.636   3.671
20233W        W81687  28.543  38.059  13.374
20234W        W81688  10.673  27.549  13.848
20235W        W81689  13.831   0.915   4.346
20236W        W81690   6.773  25.057   1.351
20237W        W81691  12.717   7.188   1.363
20238W        W81692  28.182  25.022   1.723
20239W        W81693  16.163  36.423   1.320
20240W        W81694  22.095  27.666  13.881
20241W        W81695  32.522  28.124   0.929
20242W        W81696  10.853  32.117  12.365
20243W        W81697  31.038  37.881   1.329
20244W        W81698  42.015  20.190   1.394
20245W        W81699  10.380  36.964  13.794
20246W        W81700  38.984  36.050  11.977
20247W        W81701  17.688  15.276   3.653
20248W        W81702  21.251   8.879  13.928
20249W        W81703  27.602   3.291   3.354
20250W        W81704   0.873  18.707   3.377
20251W        W81705  30.122   0.797   3.785
20252W        W81706  17.199  14.756   3.196
20253W        W81707  41.886  29.649   4.620
20254W        W81708  37.037  27.689  14.876
20255W        W81709  35.367  34.115  10.605
20256W        W81710   4.444   1.256  10.466
20257W        W81711  39.472  15.254  14.936
20258W        W81712  34.042  29.655   3.257
20259W        W81713  30.628  15.313   1.429
20260W        W81714  21.150  10.732   1.781
20261W        W81715  12.164  27.464  10.969
20262W        W81716   0.423   3.865  11.996
20263W        W81717  31.050  17.272   9.976
20264W        W81718   3.943  23.236   3.681
20265W        W81719  12.694  20.545   0.790
20266W        W81720  30.576  29.633   3.866
20267W        W81721  38.826  12.211  12.523
20268W        W81722   5.349  17.761   3.194
20269W        W81723   9.167   4.923  12.956
20270W        W81724  38.455  38.905   9.629
20271W        W81725  36.866  13.318  12.348
20272W        W81726  11.272  14.796  13.039
20273W        W81727  27.667  35.444  11.084
20274W        W81728  22.118  12.263  11.935
20275W        W81729   1.874  29.950  14.858
20276W        W81730  43.823  13.280  11.392
20277W        W81731  30.976  26.117  14.374
20278W        W81732  27.446   1.471   3.202
20279W        W81733  21.698  38.839  14.390
20280W        W81734   7.371  24.070  11.001
20281W        W81735  16.603  22.091  12.066
20282W        W81736  32.558  15.670   4.666
20283W        W81737  21.576   6.681  10.153
20284W        W81738  38.497  37.551   0.443
20285W        W81739  13.672  14.633  14.322
20286W        W81740  44.783   5.374   2.282
20287W        W81741  18.127   2.232  10.893
20288W        W81742  31.107   4.367  14.292
20289W        W81743  13.308  24.597  11.037
20290W        W81744  26.116  22.712   4.207
20291W        W81745  42.873  24.625   0.735
20292W        W81746  20.768  21.512  12.580
20293W        W81747   5.350  10.671  10.476
20294W        W81748  25.650  32.404  11.412
20295W        W81749  11.352  13.755   1.732
20296W        W81750  38.569  32.910   4.209
20297W        W81751  42.428  20.541   1.787
20298W        W81752  13.229  16.633   4.664
20299W        W81753  27.447  39.318   1.887
20300W        W81754  40.416   4.753   3.206
20301W        W81755  23.045  11.242   1.749
20302W        W81756  20.130  21.108   4.689
20303W        W81757  11.821  25.059  13.466
20304W        W81758  14.793  44.409  11.100
20305W        W81759  25.145   5.710   0.952
20306W        W81760  19.153   1.295   2.744
20307W        W81761  18.679   9.839   4.344
20308W        W81762  31.100   2.818   3.748
20309W        W81763  36.442  31.506   2.700
20310W        W81764  11.168  41.413  12.050
20311W        W81765  30.988  43.948  10.942
20312W        W81766  26.457  38.880   3.287
20313W        W81767  31.985   2.777   4.807
20314W        W81768  15.275  24.515  14.931
20315W        W81769  18.601  29.616  12.940
20316W        W81770  28.674  23.096   3.785
20317W        W81771  16.718  17.627  13.062
20318W        W81772  36.089  23.113  14.795
20319W        W81773  17.765  25.164  12.961
20320W        W81774  26.533  40.538   1.860
20321W        W81775  26.960  22.540  11.459
20322W        W81776  38.403  18.734   3.855
20323W        W81777   4.328  11.340  11.988
20324W        W81778  31.418   3.848  11.383
20325W        W81779  17.251  25.990  11.607
20326W        W81780  10.867  35.513  10.971
20327W        W81781  41.322  41.039   5.203
20328W        W81782  22.670   9.881   1.915
20329W        W81783   2.730   5.687   4.190
20330W        W81784  15.798  24.024  11.411
20331W        W81785  14.151  34.413   1.765
20332W        W81786   5.298  29.037  12.482
20333W        W81787  44.401   3.246  13.547
20334W        W81788  38.471  37.993  12.975
20335W        W81789  31.123  19.692   1.243
20336W        W81790  39.384  43.377   3.788
20337W        W81791  31.138  31.460  11.609
20338W        W81792  11.306  29.438   1.322
20339W        W81793  33.975   5.798   0.314
20340W        W81794  42.941  17.768   4.130
20341W        W81795   4.883  44.810   3.376
20342W        W81796  22.509  15.747  13.342
20343W        W81797  38.908  15.767   2.196
20344W        W81798  10.840  44.424   0.895
20345W        W81799  15.216  23.590   1.391
20346W        W81800  28.550   9.752  10.580
20347W        W81801  10.669   9.379   1.292
20348W        W81802  40.031  18.146   0.905
20349W        W81803  30.058  23.147   2.837
20350W        W81804  33.494   9.225   4.278
20351W        W81805  16.248  33.407  11.515
20352W        W81806  22.676  17.606   4.785
20353W        W81807  16.146   2.854  13.030
20354W        W81808  34.081  26.137  13.827
20355W        W81809  40.879   8.254  13.892
20356W        W81810   1.964  20.209   0.299
20357W        W81811  24.048   4.798   4.628
20358W        W81812   3.743  42.880  13.462
20359W        W81813  22.181  11.302  13.973
20360W        W81814  39.341   6.349   2.294
20361W        W81815   3.381  21.549   2.372
20362W        W81816  35.922   7.286   2.882
20363W        W81817  10.694  10.268  10.928
20364W        W81818  21.749  20.158  14.415
20365W        W81819  25.978  41.489   1.310
20366W        W81820   6.322  16.128  13.363
20367W        W81821  28.143  25.711  13.438
20368W        W81822   2.932   6.791  12.531
20369W        W81823  31.952  24.218   1.773
20370W        W81824  32.433   8.837  14.976
20371W        W81825  38.536   4.698  11.492
20372W        W81826  42.925  40.473  10.519
20373W        W81827   8.286  40.812  12.552
20374W        W81828  17.664  31.002   3.250
20375W        W81829  38.934  38.968   2.380
20376W        W81830   8.216  22.180   4.752
20377W        W81831  23.197  33.415  11.977
20378W        W81832  33.581   2.291  13.041
20379W        W81833  16.127  29.663   0.373
20380W        W81834   9.234  38.429   0.450
20381W        W81835   4.730  43.845  14.020
20382W        W81836  10.345  18.291  12.089
20383W        W81837  15.704  40.399  11.406
20384W        W81838   5.783  25.068  14.417
20385W        W81839  17.608  31.476   3.768
20386W        W81840  36.070   8.352  11.426
20387W        W81841  37.470  43.448   2.275
20388W        W81842   8.808  33.936   0.376
20389W        W81843  35.423  30.592  11.600
20390W        W81844  33.392  24.695  10.919
20391W        W81845  12.320  35.012  10.593
20392W        W81846   5.244   6.923  12.907
20393W        W81847  19.536  16.667   4.144
20394W        W81848  25.170  10.715   1.846
20395W        W81849  16.233  34.044   4.736
20396W        W81850  32.043  10.749  14.324
20397W        W81851  29.139  44.332   2.279
20398W        W81852  11.287   9.646  11.126
20399W        W81853  37.376  40.420  14.913
20400W        W81854  17.209  36.591   3.703
20401W        W81855  43.412   5.322   2.296
20402W        W81856  44.274   8.321  11.402
20403W        W81857  18.752  19.216  13.968
20404W        W81858  32.980   2.413  12.926
20405W        W81859  29.101  31.038   4.784
20406W        W81860  13.298  39.421   3.260
20407W        W81861  34.495  12.187   2.787
20408W        W81862  11.864  22.055  12.533
20409W        W81863   5.227  39.039  13.523
20410W        W81864   1.243  18.180  10.560
20411W        W81865  34.582  10.383   1.338
20412W        W81866  35.070  12.164  10.893
20413W        W81867  44.462  10.282   3.820
20414W        W81868  22.633   1.871  12.977
20415W        W81869   7.686  25.160  13.881
20416W        W81870  41.442   6.807   4.688
20417W        W81871  22.614  14.152  10.475
20418W        W81872  44.340   6.800   0.354
20419W        W81873   8.282  13.821  12.076
20420W        W81874  27.096   2.931   3.849
20421W        W81875  29.979  18.250  13.052
20422W        W81876  25.674  30.485   4.598
20423W        W81877  10.238  36.914  14.360
20424W        W81878  12.242  44.326   4.119
20425W        W81879  31.947   1.791   0.825
20426W        W81880  44.346  10.741  12.563
20427W        W81881  12.754   7.390  13.415
20428W        W81882   4.364   3.417  10.989
20429W        W81883  34.008   4.747  12.012
20430W        W81884   6.759   3.256  12.547
20431W        W81885   5.268  22.542   0.797
20432W        W81886   4.263  36.488   3.687
20433W        W81887   8.672  14.196  10.422
20434W        W81888  28.939  22.674   3.385
20435W        W81889   0.857  25.196  12.450
20436W        W81890  27.625  18.567  10.405
20437W        W81891  29.469   3.293  13.899
20438W        W81892  39.910  16.694   0.848
20439W        W81893   6.249  43.919  11.545
20440W        W81894   5.760   9.657  11.860
20441W        W81895  43.416  12.792  10.555
20442W        W81896  20.570  11.836  14.797
20443W        W81897   1.368  28.515  14.325
20444W        W81898  19.565  14.263   2.900
20445W        W81899   7.213   7.817  14.472
20446W        W81900  30.975  22.192  11.907
20447W        W81901  14.297  12.660   3.360
20448W        W81902  26.528  15.794   3.672
20449W        W81903  43.506  40.381  12.840
20450W        W81904   2.784   5.255  14.363
20451W        W81905  23.692  38.419  11.437
20452W        W81906  38.494  20.677  11.483
20453W        W81907  17.631  29.930  14.786
20454W        W81908  14.675   2.733  13.312
20455W        W81909  20.099  19.281  12.464
20456W        W81910  25.153   4.239   4.146
20457W        W81911  15.245  29.069   1.881
20458W        W81912  44.921   4.354  13.059
20459W        W81913  28.554  28.648   3.179
20460W        W81914  35.418  44.822   0.453
20461W        W81915   9.653  31.484  14.876
20462W        W81916  20.621  26.555   0.364
20463W        W81917  27.003   0.396  11.514
20464W        W81918  17.135  36.034   9.937
20465W        W81919  31.424  22.675  13.483
20466W        W81920  14.789  38.437   4.663
20467W        W81921  34.590  17.733  12.844
20468W        W81922  15.813  39.871   3.775
20469W        W81923  32.459  22.522  12.012
20470W        W81924  17.791   6.299   1.896
20471W        W81925   5.816  20.735  13.516
20472W        W81926  39.962  39.450  12.992
20473W        W81927  20.147  38.368   0.789
20474W        W81928  36.069  35.431  12.472
20475W        W81929   0.348  22.195  14.963
20476W        W81930   0.926  42.299   1.403
20477W        W81931   9.387  28.152   1.919
20478W        W81932  31.024  41.373  12.096
20479W        W81933  23.063   2.441  11.922
20480W        W81934  40.337  10.752  12.559
20481W        W81935  26.150  23.110   9.621
20482W        W81936  12.246  18.146   3.753
20483W        W81937   1.875  26.520  12.518
20484W        W81938  42.426  16.605  12.861
20485W        W81939  12.677  41.329  12.557
20486W        W81940  19.612  41.296   1.424
20487W        W81941  44.947  23.711  10.594
20488W        W81942  23.136  14.693  11.558
20489W        W81943  44.443  21.535   3.860
20490W        W81944  11.283   6.832   3.764
20491W        W81945  34.048  36.900  14.958
20492W        W81946   2.262  31.627  11.410
20493W        W81947  16.154  27.157   0.859
20494W        W81948  40.512   8.182  10.427
20495W        W81949  18.566  13.302  10.497
20496W        W81950  37.077  44.852  12.988
20497W        W81951   5.885  34.059   0.378
20498W        W81952  26.067  24.119   0.299
20499W        W81953  18.260  42.842  13.530
20500W        W81954  27.178   1.748  13.872
20501W        W81955   1.971  11.800  10.445
20502W        W81956   2.435  14.665   0.386
20503W        W81957  35.493  21.624   1.703
20504W        W81958  27.162  30.952   1.933
20505W        W81959   9.881   2.846  13.522
20506W        W81960   3.255  42.356  10.406
20507W        W81961  37.437  37.542   1.269
20508W        W81962  31.533   0.259  12.830
20509W        W81963  27.059   6.322  14.460
20510W        W81964  35.110  33.016  12.947
20511W        W81965  23.540  29.449   4.660
20512W        W81966  16.229  40.013   0.860
20513W        W81967  16.238  27.154  11.129
20514W        W81968   1.887   0.983  11.381
20515W        W81969   5.869   4.879   3.271
20516W        W81970  17.185  34.540  11.457
20517W        W81971  34.935  13.819   4.804
20518W        W81972  43.353  42.001   3.631
20519W        W81973  36.967   2.802   2.662
20520W        W81974  23.129  28.117   4.634
20521W        W81975  12.199   3.372  14.863
20522W        W81976   4.415  26.105   2.881
20523W        W81977   7.708  20.768   0.324
20524W        W81978  21.167  42.935   1.846
20525W        W81979  43.324  20.540  12.831
20526W        W81980  25.614  34.075   0.385
20527W        W81981  38.934  35.086  10.889
20528W        W81982  38.397  13.662  12.968
20529W        W81983  34.383   1.320  10.990
20530W        W81984  37.556   7.887  12.971
20531W        W81985  35.026  43.768  11.899
20532W        W81986  30.980  42.363   1.737
20533W        W81987  38.474   8.859  10.928
20534W        W81988   5.247   3.271   4.241
20535W        W81989  42.320  13.255  11.399
20536W        W81990  38.075  22.506  12.496
20537W        W81991  26.972  13.199  11.090
20538W        W81992  24.481   8.756   1.746
20539W        W81993  38.543  26.046   0.855
20540W        W81994  22.530  22.216  13.373
20541W        W81995   7.899   8.370  13.920
20542W        W81996  42.986  41.935  14.964
20543W        W81997  26.658  29.018   2.844
20544W        W81998  15.109  44.312  12.420
20545W        W81999  13.192  37.922   0.740
20546W        W82000  25.476  38.416   1.390
20547W        W82001   7.233   4.849   3.379
20548W        W82002   6.678  38.979   1.365
20549W        W82003  37.981  25.978  12.828
20550W        W82004  32.143  35.524  12.092
20551W        W82005  22.126  18.283   3.724
20552W        W82006   2.768   9.361   2.359
20553W        W82007  30.485   9.826  13.510
20554W        W82008  30.601   4.317  11.887
20555W        W82009  41.337  31.034  14.881
20556W        W82010  27.671  37.021   2.342
20557W        W82011  30.416   9.785   3.672
20558W        W82012  26.969  16.130  10.544
20559W        W82013  43.987  19.110   3.265
20560W        W82014   5.799  27.553   2.854
20561W        W82015  44.381  27.116  13.997
20562W        W82016  27.680  35.413  14.415
20563W        W82017  25.089  23.215   3.193
20564W        W82018   4.308  23.660   2.418
20565W        W82019  44.919   3.340  11.060
20566W        W82020   1.911  41.521  14.420
20567W        W82021   5.238  14.814  13.504
20568W        W82022  40.453  24.607  13.871
20569W        W82023  41.353  18.281   1.342
20570W        W82024  40.920  32.977   2.290
20571W        W82025   7.837  34.608  12.440
20572W        W82026   6.846  34.502  11.918
20573W        W82027  31.586  13.660   4.812
20574W        W82028  35.060   0.911   3.285
20575W        W82029  34.000  10.749  12.092
20576W        W82030  34.920  17.586  12.043
20577W        W82031   2.746  14.106  14.281
20578W        W82032  42.341  38.883  11.417
20579W        W82033   4.943  17.760  13.405
20580W        W82034  10.281  16.753   3.263
20581W        W82035  13.289   0.492   3.865
20582W        W82036   9.890  36.074  12.006
20583W        W82037  34.115   7.243   3.797
20584W        W82038  37.340  42.832  11.890
20585W        W82039  23.549  24.634  13.963
20586W        W82040  36.072  42.899   4.788
20587W        W82041  12.122   3.361   5.117
20588W        W82042   5.402  28.525  10.968
20589W        W82043  16.608  11.306   0.290
20590W        W82044  28.534  34.373  13.544
20591W        W82045  43.010  14.229   4.789
20592W        W82046  18.593  11.766   0.804
20593W        W82047   6.894  44.908  11.433
20594W        W82048   9.372   7.861  13.542
20595W        W82049   6.257  21.037   5.092
20596W        W82050  14.198  31.517   3.373
20597W        W82051  10.679  21.083   3.209
20598W        W82052  38.869  29.015   4.616
20599W        W82053  42.467  39.351   1.694
20600W        W82054  10.306  35.571   2.856
20601W        W82055   1.259  33.121  12.013
20602W        W82056  41.435  15.214   3.650
20603W        W82057  10.850  37.346  14.349
20604W        W82058  23.186  41.512   4.597
20605W        W82059  35.060  19.741  14.306
20606W        W82060   9.686  33.619  12.962
20607W        W82061   7.336  38.015   4.130
20608W        W82062   1.244   7.667  14.845
20609W        W82063  18.764  32.633   3.248
20610W        W82064  43.801   2.338   2.330
20611W        W82065   0.799  17.788  12.917
20612W        W82066  11.722   7.311   2.707
20613W        W82067  13.769  38.053   2.671
20614W        W82068  22.049  29.497  14.450
20615W        W82069  28.583  14.205  13.839
20616W        W82070  27.955  33.893  12.347
20617W        W82071   2.740  21.067   3.746
20618W        W82072   7.284  14.715   1.383
20619W        W82073   5.344  41.345  12.502
20620W        W82074  44.423  29.121   0.812
20621W        W82075  12.635  22.085  10.985
20622W        W82076  23.672   6.215   1.259
20623W        W82077  26.661  26.644  13.316
20624W        W82078   3.284   8.187   1.223
20625W        W82079  17.171   9.834   4.755
20626W        W82080  10.164  29.049  12.551
20627W        W82081  24.228  44.934   4.307
20628W        W82082  21.144  26.997  14.394
20629W        W82083  14.181  41.427   2.346
20630W        W82084  44.782  15.160  12.396
20631W        W82085  22.689   0.888   3.335
20632W        W82086  21.134  17.284  11.581
20633W        W82087  34.882  40.990  13.898
20634W        W82088  33.893  18.692   3.263
20635W        W82089   3.404  25.506   0.264
20636W        W82090  43.011  29.124  10.474
20637W        W82091  36.556  41.490   3.780
20638W        W82092  32.573  36.987  12.045
20639W        W82093   5.199  17.172   4.753
20640W        W82094  31.538  41.368  14.013
20641W        W82095  41.928  30.936   0.472
20642W        W82096  17.275  26.178  12.888
20643W        W82097  35.553  42.368   1.892
20644W        W82098  15.237  11.300  13.396
20645W        W82099  24.590  42.960  14.378
20646W        W82100  35.965  44.954  10.421
20647W        W82101  30.006  18.665  14.474
20648W        W82102  40.493  27.501   0.337
20649W        W82103  32.958  20.266   2.749
20650W        W82104  26.663  27.456  13.476
20651W        W82105  31.419  39.959  14.764
20652W        W82106  22.583  26.672   1.344
20653W        W82107  24.185  15.155  10.944
20654W        W82108  41.484  33.965   3.797
20655W        W82109  31.932  10.377   1.890
20656W        W82110  34.066   4.445  11.942
20657W        W82111   9.340  27.980   3.751
20658W        W82112  42.280  24.484  12.926
20659W        W82113  18.148  38.874  11.443
20660W        W82114  37.007  13.115   2.831
20661W        W82115  13.187  18.715  12.404
20662W        W82116  38.333  13.263   3.300
20663W        W82117  13.778  21.718   0.364
20664W        W82118  31.924   0.408  10.603
20665W        W82119  18.604  15.642   3.742
20666W        W82120  11.246   6.331   1.703
20667W        W82121  14.214  31.604  14.394
20668W        W82122   1.744  27.653   1.401
20669W        W82123  42.501  31.468  11.374
20670W        W82124  39.382  11.279   1.712
20671W        W82125  26.130   4.916   3.264
20672W        W82126  33.550  13.284   2.318
20673W        W82127   0.475  14.823  11.098
20674W        W82128   2.935   6.209   0.398
20675W        W82129   7.329   9.715  14.422
20676W        W82130  37.403  25.207  14.357
20677W        W82131  29.668  44.346  10.532
20678W        W82132  38.884  31.047   4.615
20679W        W82133  23.107  12.189  14.428
20680W        W82134  29.113  29.989  12.496
20681W        W82135  43.477  12.766   0.896
20682W        W82136  19.059  21.713  14.473
20683W        W82137   9.666  20.736  11.432
20684W        W82138  16.653   0.926  11.508
20685W        W82139  32.421  43.912   4.804
20686W        W82140  20.167  25.168   0.753
20687W        W82141  23.146   0.877  12.966
20688W        W82142  25.191  20.074  10.454
20689W        W82143  23.541  14.804   0.436
20690W        W82144  13.641  21.100   3.379
20691W        W82145  41.441   5.439  13.847
20692W        W82146  10.316  14.274  13.827
20693W        W82147   1.401   0.359   4.814
20694W        W82148  44.332   2.914  12.419
20695W        W82149  30.648  18.605   2.871
20696W        W82150  42.495  22.221   0.946
20697W        W82151  26.674  17.647  12.348
20698W        W82152  14.697  38.564   0.757
20699W        W82153   4.244  28.517  12.971
20700W        W82154  18.055   3.749  13.894
20701W        W82155  13.225  41.912  10.998
20702W        W82156  13.336  33.036   1.441
20703W        W82157  25.637  39.452   1.291
20704W        W82158   9.834  34.517  12.017
20705W        W82159  23.150  16.708   1.267
20706W        W82160  10.140  10.218   5.167
20707W        W82161  28.044  11.759  13.818
20708W        W82162  41.977   2.908  11.972
20709W        W82163   4.285   7.897   4.240
20710W        W82164  13.134  13.161  11.883
20711W        W82165   3.277   6.719  13.409
20712W        W82166  17.095  43.315  12.928
20713W        W82167  14.618  34.485   4.777
20714W        W82168   3.393  41.305   3.281
20715W        W82169  32.397   3.892  13.021
20716W        W82170  31.068  41.983   1.766
20717W        W82171  30.961  13.744  10.132
20718W        W82172  38.424  28.112   3.716
20719W        W82173  24.692   3.444   5.282
20720W        W82174  29.956  27.981   4.608
20721W        W82175  10.205  39.915  13.907
20722W        W82176  19.150  29.959   3.183
20723W        W82177  15.217  10.687  14.443
20724W        W82178  44.445  34.967  12.554
20725W        W82179   3.272  18.623   0.935
20726W        W82180  30.011   6.813   1.381
20727W        W82181  13.614  37.568  11.865
20728W        W82182  22.028  27.641  14.960
20729W        W82183   5.262  20.186   4.805
20730W        W82184   6.687   2.839  13.959
20731W        W82185  22.049   2.392   2.347
20732W        W82186  22.708  27.125  12.342
20733W        W82187  31.053   7.202   2.271
20734W        W82188  26.033  33.951   0.851
20735W        W82189  38.442  37.561  14.786
20736W        W82190   0.827   5.415   0.263
20737W        W82191   9.680   2.827  12.059
20738W        W82192  30.030   3.740   1.247
20739W        W82193   3.942  20.246   2.325
20740W        W82194  23.996   1.917  14.938
20741W        W82195  27.551   4.269  12.066
20742W        W82196  16.098   4.344   4.616
20743W        W82197  29.929  32.534   4.258
20744W        W82198   2.333  18.107  14.400
20745W        W82199  11.206   0.843   3.156
20746W        W82200  25.526  20.543  11.082
20747W        W82201  26.123  33.107  14.356
20748W        W82202   2.805  23.151   4.636
20749W        W82203  38.364   5.363   3.193
20750W        W82204  12.308  34.895  11.039
20751W        W82205   0.433  13.663  13.053
20752W        W82206  43.391   0.903   4.291
20753W        W82207  12.297  25.638  13.979
20754W        W82208  40.435  41.815   1.264
20755W        W82209  31.624  18.585  11.431
20756W        W82210  41.354  42.876  13.492
20757W        W82211  13.189  25.677  12.075
20758W        W82212  36.977   1.375  13.057
20759W        W82213  17.656  36.394   3.722
20760W        W82214  44.408  30.103  12.548
20761W        W82215  15.211  18.213   0.399
20762W        W82216  43.976  41.387  13.880
20763W        W82217  42.947  23.565  10.576
20764W        W82218  30.989  43.353   3.310
20765W        W82219  19.744  16.148  10.542
20766W        W82220  35.478  27.963   2.273
20767W        W82221  21.624   3.333  10.606
20768W        W82222  30.520   5.888   3.667
20769W        W82223  37.841  17.569   0.848
20770W        W82224  14.762  22.545  11.399
20771W        W82225  32.549  12.810  13.429
20772W        W82226   6.191  33.536   4.202
20773W        W82227  26.169  19.772   3.297
20774W        W82228   0.429   3.833  14.427
20775W        W82229  34.448  16.161   1.240
20776W        W82230   1.808  11.271   2.726
20777W        W82231  43.924  35.577   2.805
20778W        W82232  22.116  25.620   3.803
20779W        W82233  22.032  38.394   2.225
20780W        W82234  42.946  19.155  11.527
20781W        W82235  41.908  35.094   3.658
20782W        W82236  24.036   2.769   2.224
20783W        W82237  21.230  15.272   0.429
20784W        W82238  19.223  11.705  10.141
20785W        W82239  10.752  29.112   2.733
20786W        W82240  21.141  41.828   3.358
20787W        W82241   8.750  34.865   0.373
20788W        W82242  40.881   6.346  14.377
20789W        W82243  31.529  27.145   3.673
20790W        W82244  22.691  40.476  13.548
20791W        W82245  40.372  21.683   0.335
20792W        W82246  20.523   5.207   3.314
20793W        W82247  14.730  31.109  10.476
20794W        W82248  32.043  17.687   3.793
20795W        W82249  14.251  34.981  14.508
20796W        W82250   1.822  27.623  11.107
20797W        W82251  28.003   1.311  10.947
20798W        W82252  26.185   1.346  13.022
20799W        W82253  26.686  36.903  10.954
20800W        W82254  38.467  33.944   1.785
20801W        W82255  36.976   4.762  12.037
20802W        W82256  24.020   7.841  13.483
20803W        W82257   8.218  21.567  11.410
20804W        W82258  29.508  15.781  12.063
20805W        W82259   4.770   6.681   3.313
20806W        W82260   3.261  17.773   1.739
20807W        W82261  32.963  25.487  12.405
20808W        W82262   6.217  39.033   3.181
20809W        W82263  19.740  22.142   4.351
20810W        W82264  28.159  23.225  12.917
20811W        W82265  16.084  44.343   0.803
20812W        W82266  42.857   0.282  14.924
20813W        W82267  19.044  32.096  10.544
20814W        W82268   5.385   1.906   4.345
20815W        W82269  21.131   0.310   4.724
20816W        W82270  36.559  15.777  12.420
20817W        W82271  22.582  42.833   4.759
20818W        W82272  32.607  19.154  12.505
20819W        W82273  44.313  13.651  11.491
20820W        W82274  32.923  15.164   1.393
20821W        W82275  29.030  13.741   2.263
20822W        W82276  44.379  13.617   0.910
20823W        W82277  10.833  16.660  11.873
20824W        W82278   7.209  34.868  10.891
20825W        W82279  40.316  22.532  11.056
20826W        W82280  29.933  23.731   1.284
20827W        W82281   5.296  19.734   1.816
20828W        W82282  38.044  16.805  13.852
20829W        W82283  20.257   8.656  14.879
20830W        W82284  32.917  10.709   0.829
20831W        W82285  39.326  42.896   3.814
20832W        W82286   8.361  40.382  13.916
20833W        W82287  14.741  18.257  13.022
20834W        W82288   5.300  41.002  10.580
20835W        W82289  22.149  24.571   0.911
20836W        W82290  38.570   4.431  13.532
20837W        W82291  34.403  16.193  12.994
20838W        W82292  14.779  35.933  14.824
20839W        W82293   1.338  41.911   0.412
20840W        W82294  43.361  22.667  10.552
20841W        W82295  22.642  10.775  12.026
20842W        W82296   8.680  41.008   1.261
20843W        W82297   8.898  22.202   1.922
20844W        W82298  30.128  22.142  14.868
20845W        W82299   3.835  34.451  10.502
20846W        W82300  39.348  20.650   2.683
20847W        W82301  15.712  33.592   5.161
20848W        W82302  19.718  23.505  12.913
20849W        W82303   9.654  15.695   4.129
20850W        W82304  34.584  27.031  10.435
20851W        W82305  15.149  42.938  11.493
20852W        W82306  18.617   4.943   3.228
20853W        W82307  40.880  38.434  12.078
20854W        W82308  36.529  27.955   0.471
20855W        W82309   5.339  14.817  11.394
20856W        W82310  43.335  43.317  13.977
20857W        W82311   9.760  11.152   4.737
20858W        W82312  30.097   9.249  12.395
20859W        W82313   9.678   3.862   0.786
20860W        W82314  41.024  44.287   1.887
20861W        W82315  38.549  35.362   0.290
20862W        W82316  34.574  42.290   4.658
20863W        W82317   7.186  11.270   3.340
20864W        W82318  14.177  34.023   4.167
20865W        W82319   2.303  16.227   4.351
20866W        W82320  26.633  39.396   2.877
20867W        W82321  13.135  21.126   3.661
20868W        W82322  31.635   2.929  10.985
20869W        W82323  25.496   6.696  10.017
20870W        W82324   6.721  44.355  12.961
20871W        W82325  13.762  36.464  13.910
20872W        W82326  40.021  28.160   2.330
20873W        W82327  33.518  33.021  10.629
20874W        W82328  14.691  20.097  10.012
20875W        W82329  42.019  35.069  12.899
20876W        W82330  16.776  38.488  10.506
20877W        W82331  22.159  27.564   1.828
20878W        W82332  44.887   0.765  12.519
20879W        W82333  31.915  26.077   3.191
20880W        W82334  21.168  21.521   4.194
20881W        W82335  36.010  34.543   2.883
20882W        W82336  24.481  39.398  12.882
20883W        W82337  18.667  11.224  11.993
20884W        W82338  23.193  23.110   0.463
20885W        W82339  27.640  16.316  12.921
20886W        W82340  24.135   0.758   1.289
20887W        W82341   5.700  23.067  14.899
20888W        W82342  19.598  13.302   0.920
20889W        W82343  35.504  15.117   0.943
20890W        W82344  20.640  23.222   3.681
20891W        W82345  34.447  32.494   3.750
20892W        W82346   0.376  36.431  13.791
20893W        W82347  15.168  10.677   5.721
20894W        W82348   9.257  21.688   4.193
20895W        W82349  19.647  38.471  13.912
20896W        W82350  32.590   6.698   2.807
20897W        W82351   8.225  29.476  12.350
20898W        W82352   5.238  42.332  11.423
20899W        W82353  41.526  44.824  11.897
20900W        W82354  26.015  28.478  12.934
20901W        W82355   3.248  30.133   2.274
20902W        W82356   9.827  34.508   1.733
20903W        W82357  32.122  41.365  14.892
20904W        W82358  16.794   3.781  11.999
20905W        W82359  23.175  32.915   4.628
20906W        W82360  10.238  11.669   1.896
20907W        W82361  18.134  12.773   3.382
20908W        W82362  43.485  22.638  13.500
20909W        W82363   7.309  29.522  14.989
20910W        W82364  36.439  24.703   2.686
20911W        W82365  22.503  13.165   2.277
20912W        W82366  23.606  24.140  14.303
20913W        W82367  21.185  15.295   3.767
20914W        W82368   3.222  18.598   2.386
20915W        W82369  11.638   4.929  12.886
20916W        W82370  26.144  27.089   3.714
20917W        W82371  20.657  16.607  10.535
20918W        W82372  10.195  11.261  12.962
20919W        W82373   8.276  22.607  14.968
20920W        W82374  13.622   2.402  12.856
20921W        W82375  24.691  27.527   1.869
20922W        W82376  39.440   9.166   0.363
20923W        W82377   7.318  36.422   4.129
20924W        W82378  14.760  26.660   3.650
20925W        W82379   7.321  42.868   0.317
20926W        W82380  10.215   4.810   1.714
20927W        W82381  27.606   7.229   2.665
20928W        W82382  32.036  37.867  11.110
20929W        W82383  23.176   2.242   1.880
20930W        W82384  11.843   7.870   0.370
20931W        W82385  30.447   8.866  12.884
20932W        W82386  12.135  20.209   0.800
20933W        W82387  33.985  37.070  13.806
20934W        W82388  33.549  44.277  13.421
20935W        W82389  32.534  42.402  14.409
20936W        W82390  36.456  19.627   1.758
20937W        W82391  25.045  15.201   0.352
20938W        W82392  14.717  23.218   0.312
20939W        W82393  11.236  11.695  13.452
20940W        W82394  20.037  17.776   0.443
20941W        W82395  16.601  27.462  13.823
20942W        W82396  32.629   3.910  11.486
20943W        W82397   2.446  17.656   2.705
20944W        W82398  13.183  14.281  12.916
20945W        W82399  24.052  41.337  12.519
20946W        W82400  41.995  22.189  11.440
20947W        W82401  17.083   0.430   0.875
20948W        W82402  36.401  29.429   3.790
20949W        W82403   6.678  36.397  11.042
20950W        W82404  42.883  12.317  12.853
20951W        W82405  28.589  27.979   2.348
20952W        W82406  44.792  14.773  13.847
20953W        W82407   8.707   9.202   2.739
20954W        W82408  33.060  38.505   1.708
20955W        W82409  33.103  31.425   4.127
20956W        W82410  39.434  26.953  10.492
20957W        W82411  17.255  25.644  13.954
20958W        W82412  16.237  41.958  14.383
20959W        W82413  43.351  10.799   0.888
20960W        W82414  12.119  18.665   0.945
20961W        W82415  37.463  26.572  14.286
20962W        W82416  18.072  22.104   0.945
20963W        W82417   2.299  42.291  10.906
20964W        W82418   4.407  10.694  10.985
20965W        W82419   4.767  10.651  11.484
20966W        W82420  12.699  18.083   2.300
20967W        W82421  23.987  31.150   2.761
20968W        W82422  26.477  14.698   1.411
20969W        W82423  18.647  12.334  11.020
20970W        W82424  22.141  42.833   0.319
20971W        W82425  15.724  18.293  10.914
20972W        W82426  27.165   6.275   3.313
20973W        W82427  41.022  21.704  13.401
20974W        W82428  26.591   2.876   1.298
20975W        W82429  27.116  22.571   3.647
20976W        W82430  15.633   2.389  10.523
20977W        W82431   9.300  42.982   0.936
20978W        W82432  36.478   3.286   1.314
20979W        W82433  42.488  13.323  13.362
20980W        W82434   4.749  44.896   1.226
20981W        W82435  38.470  34.108   1.230
20982W        W82436  38.958  35.063  14.880
20983W        W82437  12.180  43.828  11.945
20984W        W82438  31.925  34.493  10.641
20985W        W82439  19.656  39.925   4.206
20986W        W82440  12.256  20.138   5.631
20987W        W82441  42.792  15.581   5.165
20988W        W82442  15.791   7.194  10.542
20989W        W82443  32.065  40.808  10.477
20990W        W82444  26.094  43.010  13.375
20991W        W82445  32.472   2.888   3.863
20992W        W82446  42.314  40.376  13.861
20993W        W82447  14.196  36.379  14.341
20994W        W82448   6.419  18.703   0.468
20995W        W82449  10.761  30.587  13.441
20996W        W82450  26.549  43.410   0.354
20997W        W82451   6.679   9.202   3.167
20998W        W82452  19.243  34.911   3.306
20999W        W82453  19.564  36.883  11.944
21000W        W82454   3.302   0.259   3.313
21001W        W82455  23.143  41.505   0.328
21002W        W82456  26.962  39.851   9.953
21003W        W82457  32.070  10.652  13.509
21004W        W82458  38.429  17.766  13.454
21005W        W82459  43.852  37.959   1.821
21006W        W82460  28.071  17.238  13.520
21007W        W82461  43.463  40.390   1.260
21008W        W82462  36.902  31.443  11.079
21009W        W82463  32.077  33.102   1.910
21010W        W82464  15.109   6.190   4.322
21011W        W82465  10.718  34.045  13.018
21012W        W82466  11.138  38.958  11.572
21013W        W82467  14.282  24.552   2.676
21014W        W82468  29.919  19.577  12.030
21015W        W82469  28.541  34.405  14.348
21016W        W82470  30.546   7.289  10.987
21017W        W82471  16.098  33.600   3.773
21018W        W82472  23.239  24.576   3.808
21019W        W82473  11.751   3.263   1.805
21020W        W82474  33.530  25.698   2.728
21021W        W82475  31.127  28.179   0.726
21022W        W82476  34.601  24.589  14.939
21023W        W82477  17.196  32.475   1.242
21024W        W82478  24.571  33.107  11.479
21025W        W82479  13.189  32.461  13.477
21026W        W82480  20.069   4.327   1.763
21027W        W82481  12.612  17.120  11.043
21028W        W82482  44.322   3.426   1.918
21029W        W82483  24.571  20.626   2.848
21030W        W82484   7.382  13.308  14.913
21031W        W82485   1.391  18.775   0.287
21032W        W82486   2.316  31.448   2.268
21033W        W82487  23.699  39.382  11.508
21034W        W82488  39.401  18.101  12.579
21035W        W82489  23.727   5.193  14.346
21036W        W82490  27.111  40.381   2.704
21037W        W82491  24.181  24.014  13.017
21038W        W82492  28.437   9.797   0.251
21039W        W82493  12.634  40.823   2.892
21040W        W82494  38.059  35.529   1.386
21041W        W82495  41.809  38.527  10.159
21042W        W82496  28.452  31.039   3.744
21043W        W82497   1.844  35.106  14.857
21044W        W82498  23.638   4.864   3.235
21045W        W82499  35.386   6.326   1.874
21046W        W82500  11.304  10.676   4.238
21047W        W82501  24.186  20.135   3.830
21048W        W82502  37.841  40.453   2.245
21049W        W82503  31.570  21.182  14.918
21050W        W82504  14.817  40.315  10.889
21051W        W82505  43.973  36.515   0.784
21052W        W82506  19.106  44.411  11.006
21053W        W82507  22.204  20.198  12.477
21054W        W82508   7.286  35.872   4.829
21055W        W82509  20.086  32.395  10.624
21056W        W82510  41.428  22.586   2.687
21057W        W82511  42.863  22.086   4.639
21058W        W82512  19.569   2.883   4.312
21059W        W82513  34.601   4.211   3.739
21060W        W82514  35.394   9.190  12.345
21061W        W82515  15.733  15.133  11.480
21062W        W82516  31.455   6.340   2.316
21063W        W82517   4.338   1.769   0.851
21064W        W82518   3.941  41.486   4.348
21065W        W82519  19.209  14.154  14.817
21066W        W82520   6.894  29.039  13.407
21067W        W82521  40.350  29.089   0.474
21068W        W82522  16.704   8.830  11.105
21069W        W82523  25.653   4.413   1.250
21070W        W82524  32.562  22.630   1.888
21071W        W82525  21.260   8.656  12.989
21072W        W82526  43.779  26.569   4.171
21073W        W82527  17.303  31.551   4.117
21074W        W82528  37.075  16.266  13.320
21075W        W82529  39.825  15.822   2.703
21076W        W82530  30.498  35.090   0.262
21077W        W82531  11.181  39.886  13.936
21078W        W82532  39.449  42.943  10.473
21079W        W82533  10.279  13.635   0.886
21080W        W82534  10.671  16.144   1.315
21081W        W82535  14.722  25.683  10.981
21082W        W82536  39.824  18.708   1.717
21083W        W82537  41.299  26.533  11.387
21084W        W82538  13.337  12.729   0.448
21085W        W82539  25.179  34.422   9.493
21086W        W82540  38.464   0.484  13.335
21087W        W82541  31.533  37.349   4.297
21088W        W82542   1.264  42.993   3.204
21089W        W82543  11.368  14.799  13.483
21090W        W82544  25.585  34.074  14.939
21091W        W82545   5.356  37.070  14.949
21092W        W82546  25.473  17.183  14.285
21093W        W82547  37.527  17.128   5.090
21094W        W82548  11.681   8.354  12.001
21095W        W82549  26.458  14.701   2.842
21096W        W82550   2.826  31.596   4.664
21097W        W82551  18.231  31.154  12.983
21098W        W82552  29.520  19.585  10.578
21099W        W82553  41.960  43.283   1.273
21100W        W82554   4.782  32.048   1.841
21101W        W82555  22.180  33.930   3.382
21102W        W82556  33.075  10.727   3.714
21103W        W82557   8.841  24.205   4.660
21104W        W82558  25.996   2.878  14.489
21105W        W82559  38.468  16.120   3.262
21106W        W82560   3.786  31.061   0.457
21107W        W82561  29.493  25.568  13.370
21108W        W82562   8.357  44.284  13.464
21109W        W82563  35.987  27.006  13.388
21110W        W82564  40.431   8.243  13.054
21111W        W82565  33.982  19.158  11.473
21112W        W82566  36.430  15.206   0.249
21113W        W82567  10.863  32.584  11.606
21114W        W82568   2.731   1.765   1.421
21115W        W82569  23.680  17.262  11.441
21116W        W82570  31.592  36.945  12.396
21117W        W82571  20.548  18.761  13.804
21118W        W82572  16.570  12.323  12.832
21119W        W82573   2.745  38.849   2.813
21120W        W82574  41.363  20.212   2.264
21121W        W82575  30.440  21.695  11.419
21122W        W82576   2.389  36.941   2.266
21123W        W82577  12.238  14.783   0.339
21124W        W82578  34.534  18.573  14.358
21125W        W82579  19.567   6.408   3.228
21126W        W82580  27.601  39.355  13.544
21127W        W82581  32.958  29.497   0.845
21128W        W82582  10.735  13.257   2.297
21129W        W82583  26.005  15.279  14.364
21130W        W82584  30.921  21.522  14.367
21131W        W82585  27.467   1.306  12.839
21132W        W82586  11.259  30.642  14.905
21133W        W82587  23.036  23.063   3.787
21134W        W82588  27.060  21.030  11.464
21135W        W82589  34.873  38.411  10.914
21136W        W82590  18.281   0.868   1.345
21137W        W82591  37.390  22.053   1.901
21138W        W82592  41.299  34.375  13.310
21139W        W82593  43.306   4.323   4.145
21140W        W82594  20.638  15.105  13.063
21141W        W82595  20.153   0.264  13.310
21142W        W82596  10.345  19.685   3.723
21143W        W82597  37.466  20.681  13.893
21144W        W82598  36.437  15.216   3.821
21145W        W82599  35.517   2.387   3.311
21146W        W82600  26.166  24.220  14.017
21147W        W82601  39.945   2.901   3.325
21148W        W82602  33.031   7.905   0.407
21149W        W82603   6.262  34.421   2.367
21150W        W82604  15.132  20.212  10.627
21151W        W82605  35.360   0.755  14.850
21152W        W82606  29.495  39.516  12.989
21153W        W82607  38.359  12.358  12.998
21154W        W82608  36.508   2.246  12.396
21155W        W82609  25.552  40.899   3.707
21156W        W82610   6.893   8.716   2.742
21157W        W82611  37.984  32.007  14.973
21158W        W82612  24.002  22.736   5.196
21159W        W82613  32.445  36.527   2.307
21160W        W82614  15.198  27.091   3.682
21161W        W82615   8.254   4.408   0.324
21162W        W82616  18.684  13.631   3.751
21163W        W82617  29.986  24.707  10.918
21164W        W82618   4.219  11.742   4.144
21165W        W82619  42.456  13.605   1.848
21166W        W82620  25.602   1.960  13.817
21167W        W82621  34.433  29.619  14.854
21168W        W82622  20.631  10.159   4.128
21169W        W82623   0.989  18.157   1.891
21170W        W82624  27.088  25.644   4.176
21171W        W82625  24.601  22.247   1.255
21172W        W82626  35.974   7.284  13.917
21173W        W82627  22.156  23.616  10.494
21174W        W82628   1.263  22.692  12.576
21175W        W82629  24.024  25.708  11.462
21176W        W82630  39.498  36.415   2.270
21177W        W82631  11.174  37.430  11.989
21178W        W82632  20.126   1.464  10.535
21179W        W82633  19.109  17.196  14.760
21180W        W82634  20.138  38.505   0.444
21181W        W82635  37.081  14.231   1.332
21182W        W82636  34.392  21.091  12.979
21183W        W82637   5.882  42.963  10.142
21184W        W82638  22.206  44.831  10.957
21185W        W82639  33.534  14.718  13.515
21186W        W82640  31.496  21.241   1.343
21187W        W82641  14.205  24.500   1.344
21188W        W82642   7.748  39.831  14.948
21189W        W82643  41.531  25.476  13.429
21190W        W82644  33.552   8.318   5.272
21191W        W82645  28.180  22.509   2.850
21192W        W82646   8.862  11.838  14.472
21193W        W82647  30.036   9.309   2.265
21194W        W82648  42.943  28.948   3.222
21195W        W82649  27.126   6.282  10.918
21196W        W82650  39.995   1.840   1.829
21197W        W82651  16.645  25.181  13.000
21198W        W82652  21.683   3.882   1.230
21199W        W82653  34.031   3.430  14.980
21200W        W82654  16.710  21.536  11.501
21201W        W82655  31.020   6.402  11.493
21202W        W82656  40.313  11.135   0.465
21203W        W82657  36.089   9.299   4.638
21204W        W82658   8.309  15.788   4.651
21205W        W82659   7.793  33.945  14.418
21206W        W82660   2.292   6.362   1.413
21207W        W82661  11.775  15.314   0.816
21208W        W82662  25.666  25.516   1.238
21209W        W82663  16.783  35.593  13.404
21210W        W82664   1.881  25.968   2.312
21211W        W82665  40.519  29.147   4.263
21212W        W82666   1.364   4.858  13.386
21213W        W82667  34.880  28.986   1.423
21214W        W82668  25.971  20.250  12.875
21215W        W82669  39.337   1.881  13.947
21216W        W82670   3.421   4.895  13.453
21217W        W82671  23.708  39.395  12.935
21218W        W82672  17.279  20.657   2.739
21219W        W82673  32.433  24.082   2.177
21220W        W82674  12.728   4.387   1.794
21221W        W82675  39.467  20.198   2.197
21222W        W82676  34.428  41.804   1.306
21223W        W82677  21.140   6.885   4.215
21224W        W82678  13.846  34.945   3.643
21225W        W82679  41.923   0.899  14.282
21226W        W82680  20.210  10.779   0.392
21227W        W82681  41.895  43.276   4.305
21228W        W82682  10.796  20.756  12.469
21229W        W82683  21.555  32.620  12.498
21230W        W82684  42.893   4.813  13.474
21231W        W82685   2.891  18.631  13.977
21232W        W82686  29.433   9.889   4.209
21233W        W82687  25.626   9.679  10.455
21234W        W82688  31.987  25.550  11.587
21235W        W82689  41.524  15.265  11.612
21236W        W82690   7.859  29.949  14.819
21237W        W82691  13.198  23.502  10.933
21238W        W82692  20.229  44.858  13.823
21239W        W82693  39.962  43.847  11.894
21240W        W82694  38.033  10.373   0.834
21241W        W82695  11.838  31.011  14.426
21242W        W82696  38.471  34.447  13.834
21243W        W82697  44.000  29.038  10.534
21244W        W82698   3.337  20.139   2.358
21245W        W82699   2.863  20.197  12.967
21246W        W82700  15.734   0.350   1.821
21247W        W82701  17.272  33.015  12.956
21248W        W82702  23.634   2.955   4.818
21249W        W82703   1.963  20.108   3.290
21250W        W82704  25.555  19.046  11.587
21251W        W82705  34.497  37.572   1.425
21252W        W82706  42.349   2.340  12.916
21253W        W82707   8.659  19.604  10.583
21254W        W82708  41.371  40.886   1.428
21255W        W82709  42.902  34.582   3.241
21256W        W82710  13.699  35.517   4.243
21257W        W82711  33.936  20.272  12.503
21258W        W82712   0.966  36.410   0.462
21259W        W82713  12.817  40.008  12.055
21260W        W82714   3.253  33.498  13.926
21261W        W82715   9.239   0.798   3.811
21262W        W82716  15.175  19.548   5.159
21263W        W82717   8.871  14.095   3.629
21264W        W82718  24.012  43.007   9.998
21265W        W82719  36.012  20.609   4.293
21266W        W82720  30.629   1.912  14.312
21267W        W82721  43.287  43.988  13.434
21268W        W82722  15.270  14.271   2.415
21269W        W82723   4.223  29.522   1.271
21270W        W82724  28.116   3.410  11.976
21271W        W82725   2.806  16.663   1.754
21272W        W82726  30.591  19.605   4.659
21273W        W82727  30.563  26.640   2.247
21274W        W82728  12.790  29.032   3.760
21275W        W82729  25.539  12.175  10.518
21276W        W82730  29.555  43.867   0.357
21277W        W82731  23.199   2.835   1.350
21278W        W82732  30.088  43.983   2.347
21279W        W82733  35.381  24.559   1.409
21280W        W82734  38.033  10.814  10.978
21281W        W82735   9.789  15.313  11.471
21282W        W82736  23.660  19.672   5.169
21283W        W82737  36.989   4.222  13.385
21284W        W82738  22.661  32.582  11.606
21285W        W82739  43.809   5.849   1.368
21286W        W82740  22.250  29.531   4.726
21287W        W82741   3.770  11.629   2.289
21288W        W82742  26.601  32.434  11.610
21289W        W82743  20.620  27.101   3.788
21290W        W82744  14.271  41.505   0.729
21291W        W82745   4.868  14.821   4.721
21292W        W82746  38.930  26.650  12.039
21293W        W82747   7.198   1.373  12.862
21294W        W82748   7.763  25.185  11.106
21295W        W82749  33.981  21.096   0.483
21296W        W82750  11.633  38.495  10.544
21297W        W82751   1.965  33.959  10.408
21298W        W82752   4.862  14.130  14.840
21299W        W82753   4.327   7.364   3.262
21300W        W82754   9.249   0.941   1.780
21301W        W82755  41.297  31.583  13.325
21302W        W82756  11.647  17.063  12.901
21303W        W82757  23.700  37.919  12.013
21304W        W82758  44.450  37.516  14.916
21305W        W82759  22.008  13.733  13.405
21306W        W82760   0.264  15.611   2.327
21307W        W82761  25.072  33.549  12.521
21308W        W82762  44.945  26.562  13.042
21309W        W82763  11.159  38.365  14.903
21310W        W82764  23.554  29.925  11.864
21311W        W82765  20.191   2.231   3.358
21312W        W82766   2.789   4.901   3.236
21313W        W82767  19.073  40.404  10.641
21314W        W82768  16.170  40.307  14.423
21315W        W82769  38.041   1.413   1.790
21316W        W82770  43.808  18.740   1.894
21317W        W82771  32.089  12.267  13.417
21318W        W82772   5.339  28.548  12.010
21319W        W82773  10.814  44.306  12.421
21320W        W82774  39.559  15.747  12.482
21321W        W82775  40.885  20.762   3.181
21322W        W82776  34.920  18.053   0.267
21323W        W82777   5.773  19.074   2.775
21324W        W82778  16.185  11.338  10.927
21325W        W82779  42.398  12.685  12.909
21326W        W82780  31.571   0.749   3.273
21327W        W82781  38.519  22.137   1.750
21328W        W82782  34.903  27.072  11.437
21329W        W82783  12.304  32.499   2.822
21330W        W82784  25.547  10.704  13.450
21331W        W82785  27.479  25.477  11.503
21332W        W82786  40.842  29.596  14.923
21333W        W82787  12.147  27.527  14.865
21334W        W82788  29.547   5.740  12.864
21335W        W82789  42.014  35.419  14.283
21336W        W82790  41.887  15.126   3.831
21337W        W82791  27.032  35.050   4.688
21338W        W82792  20.116  31.097   4.719
21339W        W82793  41.026   3.858  13.001
21340W        W82794  26.175  22.226  13.469
21341W        W82795   2.956   9.202  10.597
21342W        W82796  21.593  10.218   2.374
21343W        W82797  27.160  23.637   2.824
21344W        W82798  33.129  22.640   2.861
21345W        W82799  10.198  38.547   2.771
21346W        W82800  10.234  21.120  14.435
21347W        W82801  39.870   1.242   4.132
21348W        W82802  28.142   5.787   3.831
21349W        W82803   5.738  38.047   2.751
21350W        W82804   5.364  10.858  14.309
21351W        W82805  44.883  19.270   2.853
21352W        W82806  44.268  40.431   3.731
21353W        W82807  37.443  24.101   2.367
21354W        W82808  43.865  36.929  12.929
21355W        W82809  27.095  42.819   1.879
21356W        W82810  15.626  24.015   3.377
21357W        W82811  31.946  28.595  14.340
21358W        W82812  41.032  23.500   1.372
21359W        W82813  23.660  18.769   0.375
21360W        W82814  22.110  17.646   3.172
21361W        W82815   4.758  22.702   1.228
21362W        W82816  23.546  41.900   0.262
21363W        W82817  37.384  37.028  12.478
21364W        W82818  25.614  25.530   2.728
21365W        W82819  32.996  37.896   3.767
21366W        W82820  28.125   9.156   3.771
21367W        W82821   2.812  18.649   2.780
21368W        W82822   4.924  37.421  11.401
21369W        W82823   7.829   6.693   4.830
21370W        W82824  38.970  38.934   4.300
21371W        W82825  43.481  38.342  10.938
21372W        W82826  23.584  16.094  11.914
21373W        W82827  32.449  38.487   4.306
21374W        W82828  13.711  26.463  13.036
21375W        W82829   8.255  29.557  13.425
21376W        W82830  40.428  43.496   0.337
21377W        W82831  20.219   3.846   1.908
21378W        W82832  20.586  17.248  12.046
21379W        W82833  26.472  11.197   3.805
21380W        W82834  28.092  26.159  12.409
21381W        W82835   4.428  11.275   1.257
21382W        W82836  39.860  42.347   3.818
21383W        W82837  10.669  32.982  10.572
21384W        W82838  11.809   5.897   4.308
21385W        W82839  15.578  39.064  10.460
21386W        W82840   9.217  44.463  12.983
21387W        W82841   2.304   0.328   0.943
21388W        W82842  34.933  14.333  10.035
21389W        W82843  25.518  21.159   0.964
21390W        W82844   6.203  19.575   3.847
21391W        W82845   8.762  39.904  12.847
21392W        W82846  24.977   3.922  14.930
21393W        W82847  39.904  23.500  11.024
21394W        W82848  35.469  19.204   3.824
21395W        W82849  31.091  20.156  10.451
21396W        W82850  42.027  10.226   2.775
21397W        W82851  31.949  26.146  14.939
21398W        W82852  21.662  38.487   2.269
21399W        W82853  22.513  32.992   2.211
21400W        W82854  28.972   9.193   2.715
21401W        W82855  37.878   6.208   3.785
21402W        W82856  25.608   2.409  12.049
21403W        W82857  15.212  31.128   0.319
21404W        W82858  18.649   6.411   1.277
21405W        W82859  44.803  43.327  12.059
21406W        W82860  30.446  32.987  12.041
21407W        W82861  38.928   3.296  12.386
21408W        W82862  17.105  23.548   2.730
21409W        W82863  43.810   8.865  10.627
21410W        W82864   4.919  11.663  13.405
21411W        W82865   5.412  37.080  11.067
21412W        W82866  27.088  31.633  11.125
21413W        W82867   7.841  20.573   3.262
21414W        W82868  28.483  15.211  11.457
21415W        W82869   7.195  29.171   2.387
21416W        W82870  34.379  32.903  14.278
21417W        W82871  33.422  24.212  14.374
21418W        W82872  32.503  22.185   3.302
21419W        W82873  20.071  16.235   3.337
21420W        W82874   2.404  24.013   0.773
21421W        W82875  34.383  38.908   3.718
21422W        W82876  20.768  39.010   2.236
21423W        W82877  21.718  30.160   3.866
21424W        W82878  28.507   7.716   2.707
21425W        W82879   9.766  38.556  14.402
21426W        W82880  13.787   2.458  11.890
21427W        W82881  34.379  36.019   4.736
21428W        W82882  25.658  29.088   4.726
21429W        W82883  23.606  13.714  12.088
21430W        W82884  21.109  10.749   0.349
21431W        W82885  37.927  22.741   1.415
21432W        W82886   4.937  21.702  13.329
21433W        W82887  13.231  41.459   1.269
21434W        W82888  25.195   7.299  14.952
21435W        W82889  31.462   7.793   0.294
21436W        W82890  10.257  11.838   4.306
21437W        W82891  11.354  34.543  14.321
21438W        W82892  37.908  27.178  11.531
21439W        W82893  11.367   1.841  12.369
21440W        W82894  30.485  11.660   0.805
21441W        W82895  44.989  29.617  14.378
21442W        W82896  32.465  28.979   1.885
21443W        W82897  14.215  23.606  12.396
21444W        W82898  18.585  39.025   2.363
21445W        W82899   7.318  24.036   4.130
21446W        W82900  18.252  11.320   2.876
21447W        W82901  15.143   1.394  11.112
21448W        W82902  25.177  38.460   2.759
21449W        W82903  11.281  39.842  10.095
21450W        W82904  27.084  37.913  13.884
21451W        W82905  21.598   5.308  14.384
21452W        W82906   5.406  20.584   2.755
21453W        W82907  25.169  14.615   3.764
21454W        W82908  43.887  40.968   1.357
21455W        W82909  20.744  18.272  13.908
21456W        W82910   7.306  15.279  12.996
21457W        W82911  25.686  29.533   0.939
21458W        W82912  40.871  28.049  10.411
21459W        W82913  34.001  34.119  11.935
21460W        W82914  26.572  25.164  14.295
21461W        W82915  19.632  34.962  14.989
21462W        W82916   6.347  18.202  13.053
21463W        W82917  16.651  34.432   4.827
21464W        W82918  14.142   0.976  11.050
21465W        W82919   4.221  44.855   3.194
21466W        W82920  13.315   7.725   1.934
21467W        W82921  26.573  31.982  12.383
21468W        W82922  27.678  12.195  13.482
21469W        W82923  29.587  41.950  14.432
21470W        W82924  11.675  11.787   1.754
21471W        W82925  42.841  10.693  11.494
21472W        W82926  42.011  21.145  11.434
21473W        W82927  36.028  35.426   3.803
21474W        W82928  20.078  19.257  14.393
21475W        W82929  38.388  25.061   4.626
21476W        W82930   3.441  44.318   1.262
21477W        W82931  37.395  32.512  12.860
21478W        W82932   9.812  39.488   3.734
21479W        W82933  15.629   6.343   4.630
21480W        W82934  14.827  14.795   4.200
21481W        W82935  42.482  12.737  11.901
21482W        W82936  38.519  32.430  10.890
21483W        W82937  42.521  23.003  11.589
21484W        W82938  14.619   4.902   1.247
21485W        W82939  24.023  19.256  10.518
21486W        W82940  23.565  35.368   3.781
21487W        W82941  37.392  17.646   0.782
21488W        W82942  17.122   1.287   4.658
21489W        W82943   6.696  42.328  13.364
21490W        W82944   5.393  25.072  10.558
21491W        W82945  24.162  28.452   4.777
21492W        W82946  25.041   1.251   2.377
21493W        W82947  15.667  12.611   3.292
21494W        W82948  12.852  28.039  11.918
21495W        W82949  36.019  40.002   0.420
21496W        W82950  16.107   9.834   0.748
21497W        W82951  29.935  20.551   4.773
21498W        W82952   0.806  24.094   2.714
21499W        W82953  26.202   0.466  11.091
21500W        W82954  30.632  35.085  10.603
21501W        W82955   9.806  41.475   3.868
21502W        W82956   6.711  30.118   5.155
21503W        W82957  15.610   3.318  10.143
21504W        W82958   6.421  34.924  10.949
21505W        W82959   4.744  26.132  14.872
21506W        W82960   3.846  14.170  13.542
21507W        W82961  42.360   5.253   3.660
21508W        W82962  28.482   9.178   0.751
21509W        W82963  13.187  17.114  12.918
21510W        W82964  10.743   3.458   4.177
21511W        W82965  15.651  30.563  13.054
21512W        W82966  37.880  32.005   0.733
21513W        W82967  29.522   1.923  13.801
21514W        W82968  19.039  12.167  11.990
21515W        W82969  27.522  20.142   1.252
21516W        W82970  12.318  21.693  10.147
21517W        W82971  26.642  40.879   1.321
21518W        W82972  18.054  26.087  13.378
21519W        W82973  17.778  40.499   2.741
21520W        W82974   9.160  20.719  10.562
21521W        W82975  38.421  25.500  12.531
21522W        W82976  38.934  18.549  13.325
21523W        W82977  33.414  33.890  13.352
21524W        W82978  25.468   1.476   1.313
21525W        W82979   3.324   0.336   3.843
21526W        W82980  17.283  40.534   3.326
21527W        W82981  10.220   3.461  11.590
21528W        W82982  19.100  22.110   4.683
21529W        W82983  35.397  10.828   1.365
21530W        W82984   1.804   3.296  10.990
21531W        W82985  26.046  13.322  10.525
21532W        W82986  23.721  23.698  12.976
21533W        W82987   7.871   2.316   0.352
21534W        W82988  22.646  29.513   4.612
21535W        W82989   1.315   7.298  11.477
21536W        W82990  26.628  37.008  14.005
21537W        W82991   9.328  29.461   2.721
21538W        W82992  26.494   8.841   4.114
21539W        W82993  21.027  43.850  12.928
21540W        W82994  41.929  15.729   5.100
21541W        W82995  40.465  13.146   2.247
21542W        W82996   4.221  27.611  12.466
21543W        W82997   0.384   1.905   0.473
21544W        W82998   0.263  43.343   2.204
21545W        W82999  26.001   7.370  12.477
21546W        W83000   3.405  14.309  13.505
21547W        W83001   4.917  22.647  12.511
21548W        W83002  19.617  15.257  14.309
21549W        W83003   0.249   3.293  10.949
21550W        W83004  16.239  20.161   0.379
21551W        W83005  23.510  36.438  12.940
21552W        W83006  32.595  22.645   2.239
21553W        W83007   4.771  26.083   2.357
21554W        W83008  40.977  22.635  11.097
21555W        W83009  34.093  29.934  12.824
21556W        W83010  43.313   8.793  11.064
21557W        W83011   6.364   9.724   1.337
21558W        W83012  32.982  17.239  13.986
21559W        W83013   5.836  33.980  12.055
21560W        W83014   8.869  24.191   2.769
21561W        W83015  31.514  43.779  10.501
21562W        W83016  16.117  17.261  12.523
21563W        W83017   4.367  29.968  14.861
21564W        W83018  33.908  30.511  12.397
21565W        W83019   2.466  39.370   3.662
21566W        W83020  41.389  30.463   3.175
21567W        W83021  21.694  15.125   4.177
21568W        W83022  10.674  31.435   0.317
21569W        W83023  34.873  23.506  12.451
21570W        W83024  44.982  31.476   1.767
21571W        W83025  29.965   7.854  13.510
21572W        W83026  43.021   8.346   2.834
21573W        W83027  36.537  15.769   4.211
21574W        W83028   4.924  31.149   3.670
21575W        W83029   7.842  34.070  13.804
21576W        W83030  11.655  23.038   2.696
21577W        W83031   9.150  35.501  14.501
21578W        W83032  39.367  17.722  11.914
21579W        W83033  36.091  34.062   4.754
21580W        W83034  20.068  28.573   0.929
21581W        W83035  41.407   6.312  13.464
21582W        W83036  23.985  23.643  14.392
21583W        W83037   6.773  12.833   1.881
21584W        W83038  23.670  12.203  14.020
21585W        W83039  12.235  16.303   5.090
21586W        W83040   9.807  23.506   1.312
21587W        W83041  41.008   4.373  13.451
21588W        W83042  29.652   8.829   3.728
21589W        W83043  33.983  24.674   4.692
21590W        W83044  44.411  40.836  12.427
21591W        W83045   1.370  24.094   4.750
21592W        W83046  41.293   4.840   4.310
21593W        W83047  28.157  42.324  14.890
21594W        W83048  35.060  37.914   0.865
21595W        W83049  43.416  12.264  10.935
21596W        W83050   7.691  32.408  12.000
21597W        W83051  15.688  37.886   1.303
21598W        W83052  22.575  44.962  13.919
21599W        W83053  14.244  12.286   3.856
21600W        W83054  39.047  35.935  12.935
21601W        W83055  25.602  25.995  14.380
21602W        W83056  39.042  26.495  10.492
21603W        W83057   4.346   6.910  10.635
21604W        W83058  14.719  40.815  12.511
21605W        W83059  35.967   3.783   3.723
21606W        W83060  15.670   6.689   4.188
21607W        W83061  43.340  28.504  13.395
21608W        W83062  37.484   6.711   2.683
21609W        W83063  39.064  17.086  12.886
21610W        W83064  26.183   8.704   2.803
21611W        W83065  27.094   3.273  13.441
21612W        W83066  15.160  34.925  12.357
21613W        W83067  33.952  17.686   2.297
21614W        W83068  33.876   8.732  11.967
21615W        W83069  44.844  40.525   3.683
21616W        W83070  12.261  35.103   0.769
21617W        W83071  19.586  27.617   3.292
21618W        W83072   7.298  26.615  13.458
21619W        W83073  29.448  39.955   2.745
21620W        W83074  35.549   0.925   2.702
21621W        W83075  23.139   4.317   1.424
21622W        W83076   4.227   4.890   1.893
21623W        W83077  44.489  15.325  13.888
21624W        W83078  36.412  39.912   2.200
21625W        W83079  34.926  15.193   2.214
21626W        W83080   7.217  30.988  14.811
21627W        W83081  24.490  38.985   1.376
21628W        W83082  39.945  13.623   0.421
21629W        W83083   2.886   7.685   4.254
21630W        W83084  18.678  21.642   4.826
21631W        W83085  24.000  18.709   1.821
21632W        W83086  35.048  42.874   3.755
21633W        W83087  33.432  11.148   3.313
21634W        W83088  23.031  33.008   1.365
21635W        W83089  17.143  27.992  12.404
21636W        W83090  21.716   2.275  11.014
21637W        W83091  32.053  34.384   4.344
21638W        W83092  17.685   9.780  14.430
21639W        W83093   3.452  27.970   0.279
21640W        W83094  22.635  22.685  13.474
21641W        W83095  23.166   7.359   1.825
21642W        W83096  40.543  17.286   9.957
21643W        W83097   1.765  24.163   4.732
21644W        W83098  34.498  41.863  10.533
21645W        W83099   3.442   6.187   1.733
21646W        W83100   4.387   9.781  10.898
21647W        W83101  37.864   2.374  10.953
21648W        W83102   3.278  42.922   2.819
21649W        W83103  34.487  36.974  11.555
21650W        W83104  18.057  15.141  11.091
21651W        W83105   2.864  11.854  10.944
21652W        W83106  17.737  12.160   3.842
21653W        W83107  24.530  30.511   0.336
21654W        W83108   0.925  16.706  11.609
21655W        W83109  10.834  44.819  14.459
21656W        W83110  12.308  11.653   2.694
21657W        W83111  26.661  42.335   3.848
21658W        W83112   4.891  27.130  11.903
21659W        W83113  27.543  13.216   4.193
21660W        W83114   7.900   7.799   4.315
21661W        W83115  41.498  24.512  12.046
21662W        W83116  17.644  43.855  13.475
21663W        W83117  28.932  19.121   4.834
21664W        W83118  22.666   4.895  14.982
21665W        W83119  37.052  15.284  14.407
21666W        W83120   8.172  39.427  14.953
21667W        W83121   7.666  28.466   1.916
21668W        W83122  10.839  34.388  13.032
21669W        W83123  14.182  35.069   3.732
21670W        W83124  41.858   5.265  14.471
21671W        W83125  25.028   5.689   3.756
21672W        W83126   8.220  16.189  12.435
21673W        W83127  32.941   3.304   4.147
21674W        W83128  29.017   0.436   1.931
21675W        W83129  35.559   2.956   4.120
21676W        W83130  39.327  28.026  13.962
21677W        W83131  31.053  24.541   2.333
21678W        W83132  44.804  17.619   4.260
21679W        W83133  20.239  23.111  11.521
21680W        W83134  36.896  30.437   0.931
21681W        W83135   7.789  36.572  14.506
21682W        W83136  36.958  42.324  14.450
21683W        W83137  24.681  27.647  13.387
21684W        W83138  23.576   4.942   1.319
21685W        W83139  11.648  33.475  11.092
21686W        W83140   7.851   4.740   3.191
21687W        W83141  29.603   1.332   0.733
21688W        W83142  26.601   7.731   4.225
21689W        W83143  26.132  43.376  14.476
21690W        W83144  34.023   0.764   1.861
21691W        W83145  30.932  12.734  11.427
21692W        W83146  32.535  35.453  12.431
21693W        W83147  12.715  36.962   2.766
21694W        W83148  28.091  18.165  11.510
21695W        W83149  37.015   5.299   1.764
21696W        W83150   8.358  29.959  14.357
21697W        W83151  18.712  35.026  12.934
21698W        W83152  18.651   3.365  14.928
21699W        W83153   9.883  24.545   3.284
21700W        W83154  38.027   8.751   0.935
21701W        W83155   3.709  24.627  13.917
21702W        W83156  37.929  30.942   1.921
21703W        W83157  44.757  31.093   2.292
21704W        W83158  21.565   4.755  11.561
21705W        W83159  40.482  15.690   0.450
21706W        W83160  43.452  28.656  11.886
21707W        W83161  38.844   6.227  12.878
21708W        W83162   8.381   6.250  11.903
21709W        W83163  26.130  37.545   4.739
21710W        W83164  26.190  43.418  10.621
21711W        W83165  25.968  16.212   4.306
21712W        W83166   4.916  42.301  13.359
21713W        W83167  22.095  21.019   2.185
21714W        W83168  19.123  16.683   3.328
21715W        W83169  12.762  21.184   4.757
21716W        W83170  20.675  17.249   0.331
21717W        W83171  10.267  17.130   4.333
21718W        W83172  35.947  44.449   1.293
21719W        W83173  42.997  14.588   0.885
21720W        W83174   1.863  16.166  14.500
21721W        W83175  28.455  15.631  12.939
21722W        W83176  25.652  30.538  13.489
21723W        W83177  22.057   4.206   0.933
21724W        W83178  19.615  29.468  11.586
21725W        W83179  43.867  25.678   2.341
21726W        W83180   2.271  26.040  14.798
21727W        W83181  40.009  32.057   3.321
21728W        W83182   3.719  30.030  12.026
21729W        W83183  35.038   6.742   1.786
21730W        W83184  35.029  27.068  12.417
21731W        W83185  23.182  31.913   1.441
21732W        W83186  30.605  16.647   4.761
21733W        W83187  18.717   2.385   4.758
21734W        W83188  18.578  25.056   0.791
21735W        W83189  16.261  19.283  14.796
21736W        W83190  27.518  30.101  13.018
21737W        W83191  30.112  14.129  14.384
21738W        W83192   0.758  23.986   2.255
21739W        W83193  41.942   8.827   4.600
21740W        W83194  41.999  41.011   2.749
21741W        W83195  25.025  40.006  13.017
21742W        W83196  19.166  18.544  11.020
21743W        W83197  43.821   8.775  12.873
21744W        W83198  42.402  36.420   4.630
21745W        W83199  18.775  14.209   0.924
21746W        W83200  40.930  38.911   4.704
21747W        W83201  34.579  24.631   0.742
21748W        W83202  42.411  22.723   2.690
21749W        W83203  42.298  39.884   2.409
21750W        W83204  21.742  11.839  14.895
21751W        W83205   4.804  32.412  13.519
21752W        W83206  24.122  22.698   2.762
21753W        W83207  11.796   9.353  10.994
21754W        W83208  44.505  19.143  13.430
21755W        W83209   5.290  27.162   0.266
21756W        W83210  28.108  36.091   0.731
21757W        W83211  25.536  34.116  14.399
21758W        W83212   7.900  32.004  14.296
21759W        W83213  25.170  38.369  10.514
21760W        W83214   1.427   4.255   4.735
21761W        W83215  11.766  19.573  14.790
21762W        W83216  41.836  12.253  14.289
21763W        W83217  30.079  23.624   0.321
21764W        W83218  33.881   0.294   2.883
21765W        W83219  35.930  37.864  13.530
21766W        W83220  26.175   7.683   1.888
21767W        W83221  38.458   7.174   3.263
21768W        W83222  30.914  44.384  10.424
21769W        W83223  39.011  26.689  11.041
21770W        W83224   2.368  16.778  11.865
21771W        W83225  25.559   8.348  12.896
21772W        W83226  37.504  44.368  14.002
21773W        W83227  41.973  26.142  10.909
21774W        W83228  19.243  28.481  12.382
21775W        W83229  14.156  17.078   2.680
21776W        W83230  16.809  42.405   0.373
21777W        W83231  19.073   3.305   2.814
21778W        W83232  37.404  41.415  11.032
21779W        W83233  32.956  27.180  10.480
21780W        W83234  35.411  25.017  14.454
21781W        W83235  41.301  32.465  12.505
21782W        W83236  39.468  21.578   4.338
21783W        W83237  26.473   6.413   0.958
21784W        W83238  23.667  15.154   0.964
21785W        W83239  26.560  41.883   4.139
21786W        W83240   3.944  42.477  10.406
21787W        W83241  30.626  36.008  13.022
21788W        W83242  13.207  21.550  12.515
21789W        W83243  36.952  14.135  11.043
21790W        W83244  41.366  16.754  14.925
21791W        W83245  25.973   7.290  10.613
21792W        W83246  13.797  40.523  13.365
21793W        W83247  29.135  27.506   3.172
21794W        W83248  16.293   2.790   2.391
21795W        W83249  28.476  31.483   4.324
21796W        W83250  24.166  15.696  10.546
21797W        W83251  29.935   6.758  10.413
21798W        W83252  42.820   8.206  13.060
21799W        W83253  22.710  34.026   0.732
21800W        W83254  10.159  18.680  14.509
21801W        W83255   7.227  17.077  13.961
21802W        W83256  16.653   1.847   0.473
21803W        W83257  31.932  40.316   1.304
21804W        W83258   3.375  35.938   3.213
21805W        W83259  43.422   2.345  11.611
21806W        W83260  25.620  15.084   3.824
21807W        W83261  44.983   4.785  13.819
21808W        W83262   9.878   1.246   4.808
21809W        W83263   3.849  40.875   2.194
21810W        W83264  20.147  24.101   0.483
21811W        W83265  11.251  41.345   2.788
21812W        W83266  36.368  20.188  14.004
21813W        W83267  17.219  32.550   2.811
21814W        W83268  21.640  29.496   3.238
21815W        W83269  17.183  36.536  14.813
21816W        W83270  34.973  12.684   2.231
21817W        W83271   0.308  28.523  14.940
21818W        W83272   4.269  44.850   0.920
21819W        W83273  21.753   5.730  12.943
21820W        W83274  27.182  20.667   2.873
21821W        W83275  42.006  42.888   2.847
21822W        W83276  37.426  14.800   0.305
21823W        W83277  10.870  26.701  14.027
21824W        W83278  33.059  41.299  13.413
21825W        W83279   6.246  25.050  11.001
21826W        W83280  26.181  15.764  10.522
21827W        W83281   7.710  38.903  14.486
21828W        W83282   1.776  23.184  11.060
21829W        W83283  31.946  12.640  14.822
21830W        W83284   6.306  13.771   2.184
21831W        W83285  32.443  44.980   1.773
21832W        W83286  42.508   1.778   0.445
21833W        W83287   3.913  28.929  14.847
21834W        W83288  20.547  30.537   2.877
21835W        W83289  43.855   9.871  10.523
21836W        W83290  40.375   8.856  13.936
21837W        W83291  26.007  28.521  14.366
21838W        W83292   9.794  30.498   3.703
21839W        W83293  35.595  22.234   0.426
21840W        W83294  15.694  10.298   5.640
21841W        W83295  33.473  17.557  11.559
21842W        W83296  41.476  25.041  13.395
21843W        W83297  28.976  16.287  10.567
21844W        W83298   9.806  19.702   0.287
21845W        W83299  11.671   9.735  12.856
21846W        W83300  17.575  24.064   3.267
21847W        W83301   4.326  35.929   3.316
21848W        W83302  10.783  21.211   2.796
21849W        W83303  43.984  20.048   0.257
21850W        W83304  11.662  32.958   9.465
21851W        W83305  19.637  17.572  11.452
21852W        W83306  32.407  29.013  11.488
21853W        W83307  18.712  22.130   3.269
21854W        W83308   2.248  12.305  10.473
21855W        W83309  36.934   4.254   2.251
21856W        W83310  19.277  42.489   4.301
21857W        W83311  28.516  41.481   1.904
21858W        W83312  23.124  22.147   3.315
21859W        W83313  35.972  24.546   0.920
21860W        W83314  22.709  31.989  10.469
21861W        W83315   2.294  25.970  11.900
21862W        W83316  31.057   0.959  10.129
21863W        W83317  29.145  36.388   0.399
21864W        W83318   8.367   3.709  13.307
21865W        W83319  15.759  20.271  12.088
21866W        W83320   1.376  26.545   4.207
21867W        W83321  22.639  21.711   1.413
21868W        W83322  24.518  37.488  13.368
21869W        W83323  31.510   0.321  10.906
21870W        W83324  42.009  10.871   2.739
21871W        W83325  35.011   2.896   3.183
21872W        W83326  14.698  21.073   0.771
21873W        W83327  33.926   4.369  12.534
21874W        W83328  43.987   1.351   0.266
21875W        W83329  24.192  28.510  14.933
21876W        W83330   8.778  40.526  12.875
21877W        W83331  24.087  38.539   4.300
21878W        W83332   3.845  33.490  13.412
21879W        W83333   2.773   3.727   0.907
21880W        W83334  10.652  36.438   1.928
21881W        W83335  39.977   3.892   1.928
21882W        W83336   8.666   1.473  14.997
21883W        W83337  12.720  31.438  14.479
21884W        W83338  13.821  27.595   1.825
21885W        W83339   8.685   8.192   0.727
21886W        W83340  16.682  10.198   1.407
21887W        W83341  29.581  24.535   1.419
21888W        W83342   7.911  34.415  11.051
21889W        W83343   1.379  28.469   0.841
21890W        W83344   7.909   1.793   3.253
21891W        W83345  19.742   4.834  11.895
21892W        W83346  26.993  16.569   1.264
21893W        W83347  30.991  41.503  10.627
21894W        W83348  18.785  25.061   5.246
21895W        W83349  40.501   2.432  14.018
21896W        W83350   4.429  42.481  14.339
21897W        W83351  16.605  14.287  12.959
21898W        W83352  35.586  16.690  14.887
21899W        W83353  34.037   1.928   3.822
21900W        W83354  11.759  35.918  11.859
21901W        W83355  27.447  18.760   0.272
21902W        W83356  36.935  28.104   2.185
21903W        W83357  15.718  28.605   4.785
21904W        W83358  36.865  36.846  10.635
21905W        W83359  16.267   7.332   2.729
21906W        W83360   7.764  27.120  13.976
21907W        W83361  14.316  27.148  10.438
21908W        W83362  23.029  30.141  11.876
21909W        W83363   7.294  37.379   3.196
21910W        W83364  42.399  37.056   1.286
21911W        W83365  34.570  39.862  12.998
21912W        W83366  18.093  26.497  12.386
21913W        W83367   9.755  27.573  10.574
21914W        W83368  19.725  14.650  10.944
21915W        W83369  19.780   2.874  12.545
21916W        W83370  19.637  31.579   3.674
21917W        W83371  12.731  18.210   4.120
21918W        W83372  38.536  28.441  14.354
21919W        W83373  32.042  35.500   4.615
21920W        W83374  17.662   3.840  12.510
21921W        W83375  15.158  31.991   0.243
21922W        W83376  22.630  27.012   0.457
21923W        W83377  19.675  21.102  14.878
21924W        W83378   6.356  14.220  13.931
21925W        W83379   6.207  20.530   0.323
21926W        W83380  13.780  24.015  13.979
21927W        W83381  21.516  25.207   3.768
21928W        W83382  31.936  14.225   0.769
21929W        W83383  23.698  25.181   4.285
21930W        W83384  12.326  25.520  12.932
21931W        W83385  34.557  18.190  14.414
21932W        W83386  12.233   2.894  13.990
21933W        W83387  36.941  27.983   1.873
21934W        W83388  44.999   9.695  13.878
21935W        W83389   5.783   1.419  13.448
21936W        W83390  19.615   8.869  12.546
21937W        W83391  11.347  22.143  13.444
21938W        W83392   5.752  41.001  13.993
21939W        W83393   6.224  13.239  13.052
21940W        W83394  20.536  13.131   0.750
21941W        W83395   4.861  17.560   4.766
21942W        W83396  21.155  35.944  11.587
21943W        W83397  14.791  30.985   2.252
21944W        W83398   1.350  24.629   3.789
21945W        W83399  13.720  18.264   2.302
21946W        W83400  40.316  22.231   1.766
21947W        W83401   6.897  42.961   3.337
21948W        W83402  28.095  39.812  10.959
21949W        W83403  25.984   5.780   1.796
21950W        W83404   9.314  36.886   4.822
21951W        W83405  10.707  27.530   1.433
21952W        W83406  43.791  34.100   4.137
21953W        W83407  33.877   2.851  13.796
21954W        W83408   6.302  27.105  13.052
21955W        W83409  30.497  14.244   3.321
21956W        W83410  26.525   0.764  14.301
21957W        W83411   0.901  29.148  12.838
21958W        W83412  31.013  24.062  13.320
21959W        W83413  38.025  41.912  12.460
21960W        W83414  44.899  38.870   4.180
21961W        W83415  41.786   2.950  14.957
21962W        W83416  24.177  14.203  10.095
21963W        W83417  24.072  35.997   1.850
21964W        W83418  17.706   1.329   0.894
21965W        W83419  11.275  26.696   2.197
21966W        W83420  16.710  41.420   0.266
21967W        W83421  34.922   1.932   1.402
21968W        W83422  31.059   3.789   2.184
21969W        W83423  34.076  31.493  14.809
21970W        W83424  14.592  28.463  10.889
21971W        W83425  24.228  10.820   1.216
21972W        W83426  28.440  20.041   2.878
21973W        W83427  41.334  10.813   4.745
21974W        W83428  39.556  25.627   1.932
21975W        W83429  20.195  17.681  13.024
21976W        W83430  40.367  19.556  12.915
21977W        W83431  34.575  11.245   3.187
21978W        W83432  44.269  21.103   2.771
21979W        W83433   5.336  10.304  13.015
21980W        W83434  36.487  40.511  12.981
21981W        W83435  20.166  16.227  14.387
21982W        W83436  41.421  19.184  13.047
21983W        W83437  15.678  13.776   2.308
21984W        W83438  29.435  40.408  12.525
21985W        W83439  33.505  11.790   0.471
21986W        W83440  31.047  40.810   2.334
21987W        W83441  19.627  22.561  13.030
21988W        W83442  40.861  13.210   4.132
21989W        W83443  23.566   7.388   5.610
21990W        W83444   1.814  35.027  10.972
21991W        W83445  35.047  43.320  13.981
21992W        W83446  14.835  18.558  12.441
21993W        W83447  30.576  10.821  14.327
21994W        W83448  29.930  44.945  13.374
21995W        W83449  28.653   1.888  14.286
21996W        W83450  33.464  16.169  10.950
21997W        W83451  24.572  37.357   1.838
21998W        W83452  14.660  35.375  11.382
21999W        W83453  27.955  16.642   3.694
22000W        W83454  16.171  32.518  11.866
22001W        W83455  38.431  19.154  11.478
22002W        W83456  34.115  31.648  11.555
22003W        W83457  38.513  10.688  11.984
22004W        W83458  24.225  17.657   4.747
22005W        W83459   5.850  30.985  14.794
22006W        W83460  30.991   2.902  11.420
22007W        W83461  17.282  38.994   4.820
22008W        W83462  38.048  15.599  10.437
22009W        W83463  40.798  40.530  11.595
22010W        W83464  26.193  39.822   2.408
22011W        W83465  33.916  23.598  14.851
22012W        W83466   8.823   6.819   2.367
22013W        W83467  35.081  35.998   4.705
22014W        W83468  44.316  21.581   1.287
22015W        W83469  30.072  32.952   9.632
22016W        W83470  25.162  36.433  10.521
22017W        W83471   3.813   4.923  11.896
22018W        W83472  16.714  21.758   3.283
22019W        W83473  25.650  35.069  11.606
22020W        W83474  22.531   3.874   1.319
22021W        W83475  31.942  22.593   3.719
22022W        W83476   9.324  43.456   0.846
22023W        W83477  10.299  19.550  11.070
22024W        W83478  37.527  34.899   0.480
22025W        W83479  19.750  31.924  12.562
22026W        W83480  21.516  36.379   0.727
22027W        W83481  27.447  35.364  12.915
22028W        W83482   0.448  43.892   4.209
22029W        W83483  12.793  43.802  12.490
22030W        W83484   8.273  41.009  12.837
22031W        W83485  29.027  15.323  11.911
22032W        W83486  42.777  12.259  12.059
22033W        W83487   7.408  38.006   2.853
22034W        W83488  28.638  38.405  13.051
22035W        W83489  39.520  36.353   3.182
22036W        W83490  43.869  28.525   3.720
22037W        W83491   9.151  10.852   1.703
22038W        W83492  30.965  25.688  12.529
22039W        W83493  36.028  37.511  10.915
22040W        W83494  36.419  21.693  12.920
22041W        W83495  28.047  24.549   3.341
22042W        W83496  27.069   6.219   3.732
22043W        W83497  42.852  40.011   2.884
22044W        W83498  28.532  22.054  12.096
22045W        W83499  21.704   6.357  13.003
22046W        W83500   4.888  18.198   2.756
22047W        W83501   4.361  32.516  12.892
22048W        W83502   0.943  25.080   3.233
22049W        W83503  42.429  40.868  12.379
22050W        W83504  20.073  41.835   2.884
22051W        W83505   0.365  38.996  10.566
22052W        W83506  36.957  42.376  14.760
22053W        W83507  16.213  28.094  13.510
22054W        W83508  31.036  32.452  14.277
22055W        W83509   1.245  29.537  14.765
22056W        W83510  12.239  37.531  11.613
22057W        W83511  38.419  26.537  12.935
22058W        W83512  14.635  29.079   1.749
22059W        W83513  42.450  19.105   1.406
22060W        W83514  25.469  22.558  13.491
22061W        W83515  24.983  20.682  11.597
22062W        W83516  19.134  12.649   0.966
22063W        W83517  23.667   7.368  10.057
22064W        W83518  35.519  39.957   2.667
22065W        W83519   2.361  31.626   4.693
22066W        W83520  15.809  22.041  10.980
22067W        W83521   0.335  39.904  10.947
22068W        W83522  41.337  35.013  11.031
22069W        W83523  44.943   3.298   3.232
22070W        W83524   7.189  15.631   4.228
22071W        W83525   8.684  34.992  14.783
22072W        W83526  35.958  26.086  12.844
22073W        W83527  37.872   1.812   3.176
22074W        W83528   6.251  42.373   3.369
22075W        W83529  44.802   3.940   4.270
22076W        W83530  37.962  41.915  12.976
22077W        W83531  22.564  24.711   2.825
22078W        W83532  36.571  33.019   4.219
22079W        W83533  28.080   4.943  11.483
22080W        W83534  22.188   0.455  11.587
22081W        W83535  32.572  22.627   2.718
22082W        W83536  26.466  24.556   4.340
22083W        W83537   5.871  16.146  14.313
22084W        W83538  19.262   7.275   9.504
22085W        W83539   1.377  36.853  14.379
22086W        W83540  24.598  34.955   3.319
22087W        W83541  13.329   5.687   2.200
22088W        W83542  24.095  30.983  14.474
22089W        W83543  11.278  37.021   2.396
22090W        W83544  38.447  38.935  13.798
22091W        W83545  36.866  27.975  11.411
22092W        W83546  31.485  24.542   5.121
22093W        W83547  19.250   5.876   3.209
22094W        W83548  35.497  27.978   0.412
22095W        W83549  42.342   3.388   3.809
22096W        W83550  20.769  33.048  11.545
22097W        W83551  20.538  40.490  12.870
22098W        W83552  34.378  28.081  13.990
22099W        W83553  33.601  25.079   0.399
22100W        W83554   7.832  25.476   1.351
22101W        W83555  22.153  17.642   0.304
22102W        W83556  23.074  18.164   4.808
22103W        W83557  23.646   6.892   9.931
22104W        W83558  23.006  23.712   0.268
22105W        W83559   5.194  44.800   3.646
22106W        W83560  17.141   3.943   1.838
22107W        W83561  30.051  37.878   0.907
22108W        W83562  25.991  24.165   4.150
22109W        W83563  33.109  38.000  11.036
22110W        W83564  41.803  26.683   2.809
22111W        W83565  22.732  22.035  11.395
22112W        W83566  10.665  20.610   0.317
22113W        W83567  15.795  28.980   0.740
22114W        W83568  40.312  19.105  14.307
22115W        W83569  10.168  33.098   9.577
22116W        W83570   0.986  16.154   4.778
22117W        W83571   0.962  33.464   2.740
22118W        W83572   2.472  34.494  13.982
22119W        W83573   5.262  36.075   2.840
22120W        W83574  18.145  36.497  10.582
22121W        W83575  22.630   6.832  12.958
22122W        W83576  19.637  39.364  13.419
22123W        W83577  10.819  21.084   1.290
22124W        W83578  32.939  29.053  10.491
22125W        W83579  13.131  10.679   3.248
22126W        W83580   8.312  31.949   3.860
22127W        W83581  42.804  31.536  11.105
22128W        W83582   2.267  30.111   2.882
22129W        W83583   2.329  25.971  11.527
22130W        W83584  37.937   6.344   0.478
22131W        W83585   3.387  23.695  11.542
22132W        W83586  35.994  42.520  14.851
22133W        W83587  23.134  42.494   3.175
22134W        W83588   8.684   1.954  11.969
22135W        W83589   3.236  42.401  11.610
22136W        W83590  33.967  32.626  13.897
22137W        W83591  26.480  13.117   4.300
22138W        W83592  44.931  32.401  11.953
22139W        W83593   7.726  13.725  12.573
22140W        W83594  33.092  26.593   1.918
22141W        W83595  44.916  21.042  14.896
22142W        W83596   7.710  17.684  13.924
22143W        W83597  31.615  26.474   2.818
22144W        W83598   4.307  43.854  13.893
22145W        W83599  18.212  31.418  12.827
22146W        W83600  19.179  44.358  13.818
22147W        W83601  20.621  44.503   0.348
22148W        W83602   3.891   1.964   0.325
22149W        W83603   9.243  12.729   2.287
22150W        W83604   5.873   9.844   4.188
22151W        W83605   8.282  16.291   1.305
22152W        W83606  39.504   8.743   4.212
22153W        W83607  32.908  29.044   0.258
22154W        W83608  21.085  43.403  14.952
22155W        W83609  41.478   1.411   3.662
22156W        W83610  20.617   5.385   0.359
22157W        W83611  12.812  36.888   5.148
22158W        W83612  15.597  25.091  11.107
22159W        W83613   2.227  36.901   1.236
22160W        W83614  23.704  17.682  13.378
22161W        W83615  40.979  44.315   2.697
22162W        W83616  22.544  37.339  10.561
22163W        W83617  36.585  37.974   3.748
22164W        W83618  41.437  19.214   3.762
22165W        W83619  28.113  17.680   3.706
22166W        W83620  29.532   8.401   2.352
22167W        W83621  42.314  33.511   2.342
22168W        W83622  37.481  21.716  10.427
22169W        W83623   4.911  26.594   2.317
22170W        W83624  44.000  21.689  11.572
22171W        W83625  23.241  14.264   1.917
22172W        W83626  39.052  30.041   1.783
22173W        W83627  25.713   8.301  10.912
22174W        W83628   4.939  33.590  11.039
22175W        W83629  17.674  36.017  13.972
22176W        W83630  24.509   7.725   3.759
22177W        W83631  24.576  40.037  13.503
22178W        W83632  37.858   5.772  11.905
22179W        W83633  36.443  29.063  11.402
22180W        W83634  21.071   3.219  13.039
22181W        W83635  32.905  35.960  10.560
22182W        W83636  25.503  17.199  13.331
22183W        W83637  26.471  22.087   1.250
22184W        W83638  34.499  39.441  10.899
22185W        W83639   6.723  26.087   1.907
22186W        W83640   9.208  38.967   1.876
22187W        W83641  39.428   9.749  11.912
22188W        W83642  23.539  12.751   4.732
22189W        W83643  21.178  41.872   4.257
22190W        W83644  36.013  10.834   3.646
22191W        W83645  34.109  20.756  13.863
22192W        W83646   2.463  41.313   2.846
22193W        W83647  35.854   5.339   3.271
22194W        W83648  18.052  17.693  13.348
22195W        W83649  35.539  39.515   1.415
22196W        W83650  42.833  28.177   2.193
22197W        W83651  19.685   8.406   2.300
22198W        W83652  22.152  37.958   1.212
22199W        W83653   6.275  19.668   1.841
22200W        W83654   3.710   2.788   4.261
22201W        W83655  22.102  22.241   4.818
22202W        W83656  17.270  36.891   4.127
22203W        W83657  32.017   6.420   1.711
22204W        W83658  37.504  34.910   1.338
22205W        W83659   6.401  19.621   0.749
22206W        W83660  22.057  13.159   3.286
22207W        W83661  17.627  44.478   3.642
22208W        W83662  37.009  26.193   4.786
22209W        W83663   7.828  35.594   3.292
22210W        W83664   1.861   8.743   4.726
22211W        W83665   8.182  41.418   0.798
22212W        W83666  23.172   3.303  11.420
22213W        W83667  28.501  34.981   2.742
22214W        W83668  40.328   3.307   4.161
22215W        W83669   3.919  35.859  12.942
22216W        W83670  17.217  34.508  10.525
22217W        W83671  40.521  14.756   1.386
22218W        W83672  26.643  36.044   1.918
22219W        W83673  40.548   6.779   4.343
22220W        W83674  17.661  32.634   4.823
22221W        W83675   0.416  23.086   2.782
22222W        W83676   0.873  17.578  13.454
22223W        W83677  19.723  26.178   0.901
22224W        W83678  17.229  42.297   2.354
22225W        W83679  28.597   2.744   0.326
22226W        W83680  18.070  35.854  14.821
22227W        W83681  16.642  23.520  13.444
22228W        W83682  23.052  39.949  11.087
22229W        W83683  13.205  12.809  10.465
22230W        W83684  14.329  17.088  13.918
22231W        W83685  14.100  37.012   2.379
22232W        W83686  19.274  24.482   1.440
22233W        W83687  37.951  36.963   5.664
22234W        W83688  25.055   2.457  11.575
22235W        W83689   2.447  18.259   9.937
22236W        W83690   3.768   6.716   1.365
22237W        W83691   9.154  40.840  13.384
22238W        W83692  29.562  41.885   1.423
22239W        W83693  21.654  41.466   1.854
22240W        W83694   6.201   9.192   3.826
22241W        W83695   1.762  41.518  11.872
22242W        W83696   4.329  16.297   2.252
22243W        W83697  10.193  11.670   3.855
22244W        W83698  32.948   5.327   2.261
22245W        W83699  43.918  24.670  12.954
22246W        W83700  30.450  37.468   2.205
22247W        W83701  41.041  17.694  14.919
22248W        W83702  27.159  16.217   2.826
22249W        W83703   6.856   0.889   1.441
22250W        W83704  30.937  10.768   4.261
22251W        W83705  10.765  42.425   3.383
22252W        W83706   8.293  38.529   0.872
22253W        W83707  21.663  11.215  10.072
22254W        W83708  11.192  36.522  14.818
22255W        W83709  41.909  24.719  14.290
22256W        W83710  40.962  24.145  10.537
22257W        W83711  25.656  11.700   1.782
22258W        W83712  21.169  11.233  14.903
22259W        W83713  24.162  36.455   3.268
22260W        W83714  39.352   3.872  10.512
22261W        W83715  42.858  27.583   0.388
22262W        W83716  22.735  10.364  11.482
22263W        W83717  37.030   8.251   3.367
22264W        W83718   0.460  29.569  10.619
22265W        W83719  22.505  34.968  11.401
22266W        W83720  40.429  13.761   1.376
22267W        W83721   4.367   1.345  14.996
22268W        W83722   7.718  22.695   9.933
22269W        W83723  32.432  38.872   2.333
22270W        W83724  12.360  38.445   0.817
22271W        W83725  11.647   6.248  13.794
22272W        W83726  11.170  18.789  12.395
22273W        W83727  21.222  22.077  12.554
22274W        W83728  23.092  21.254  12.361
22275W        W83729  39.919  40.392  12.555
22276W        W83730   2.420  35.484   1.885
22277W        W83731  20.120  25.654  14.802
22278W        W83732   1.311  27.616   0.934
22279W        W83733  42.998  36.449  11.029
22280W        W83734  29.035  28.937  13.469
22281W        W83735  24.638  36.032   4.669
22282W        W83736  12.691  36.516  12.986
22283W        W83737   3.327   2.395  13.353
22284W        W83738  26.133  25.139  14.439
22285W        W83739  29.027  23.508   2.328
22286W        W83740  36.577  42.291   0.914
22287W        W83741   4.303  44.292  11.128
22288W        W83742   1.765  12.195  14.428
22289W        W83743  28.570  36.506   4.639
22290W        W83744   7.172  15.766   1.923
22291W        W83745   8.815  39.043   2.239
22292W        W83746  33.503  21.080   4.754
22293W        W83747  23.625   7.783   2.187
22294W        W83748  22.560  19.741  10.158
22295W        W83749  10.634  35.580  12.022
22296W        W83750   4.700  41.392  13.901
22297W        W83751   7.270   9.168   3.672
22298W        W83752   2.261  43.772  13.884
22299W        W83753  23.195  40.535   1.304
22300W        W83754  27.047  16.174  12.540
22301W        W83755  28.583   8.722   3.378
22302W        W83756  42.794  11.804   5.224
22303W        W83757   5.215  23.192  11.599
22304W        W83758   4.889  40.957  13.905
22305W        W83759  18.200  29.630   3.274
22306W        W83760  24.647   8.264  10.637
22307W        W83761  40.334  28.978  11.542
22308W        W83762  22.022   4.857   2.309
22309W        W83763   7.255   8.866  11.925
22310W        W83764  22.007  41.838   1.716
22311W        W83765  38.963  42.526   3.631
22312W        W83766  35.063  38.883   2.888
22313W        W83767  27.483   4.914  12.563
22314W        W83768  40.384  21.135   0.280
22315W        W83769  32.636  28.599  14.426
22316W        W83770   5.899  24.176   4.782
22317W        W83771  10.166  41.365  10.621
22318W        W83772  36.052  28.929   3.315
22319W        W83773  31.480  11.274  14.422
22320W        W83774  39.375  38.875   5.310
22321W        W83775  27.036  20.101   0.283
22322W        W83776  27.542  22.603   4.598
22323W        W83777  37.924   7.768   3.171
22324W        W83778  27.476  25.678   3.719
22325W        W83779  17.202  15.631  11.965
22326W        W83780  31.459  20.216  12.414
22327W        W83781  28.983   7.755   3.859
22328W        W83782  15.225  42.775   4.654
22329W        W83783  15.087   6.899  14.331
22330W        W83784  42.985  35.518   2.378
22331W        W83785  12.256  42.845   1.259
22332W        W83786  36.378  15.236   3.270
22333W        W83787  35.411  12.328  13.490
22334W        W83788   4.875  10.227  13.326
22335W        W83789  31.046  41.912  14.767
22336W        W83790  34.375  13.758  14.290
22337W        W83791  27.533  17.720   4.165
22338W        W83792  32.566  24.205  10.470
22339W        W83793  26.486  33.614  14.284
22340W        W83794  38.333  39.415  10.908
22341W        W83795   8.699  41.813   4.190
22342W        W83796   6.852  10.745  13.486
22343W        W83797   1.767  31.018  13.050
22344W        W83798  44.327  11.750   1.301
22345W        W83799  23.100  41.527  13.875
22346W        W83800  22.553  34.923  12.902
22347W        W83801  29.156  16.799   3.692
22348W        W83802  36.573  26.104   2.187
22349W        W83803  29.153  41.947  12.575
22350W        W83804  30.441  44.503   3.381
22351W        W83805   1.315  18.201  12.356
22352W        W83806  10.700  34.084  14.945
22353W        W83807   3.398   6.900   3.774
22354W        W83808  10.715  38.545  14.296
22355W        W83809  18.595   4.886   1.325
22356W        W83810  14.126   4.910  10.530
22357W        W83811  11.643  35.031   0.808
22358W        W83812   6.211  12.621   4.799
22359W        W83813  37.569  17.761   2.684
22360W        W83814  25.998   0.827  11.984
22361W        W83815  25.976  34.482   3.789
22362W        W83816  17.264  30.029   4.620
22363W        W83817  10.230  31.483   1.320
22364W        W83818  34.892  16.664  13.850
22365W        W83819  36.432   0.388  13.413
22366W        W83820  18.214  29.669   0.256
22367W        W83821  27.527  13.838  11.605
22368W        W83822  11.720  36.848   2.897
22369W        W83823  14.131  34.868   0.856
22370W        W83824  37.375  30.116  12.559
22371W        W83825  42.394   1.262   4.302
22372W        W83826  16.750   8.674   2.723
22373W        W83827  36.564  26.557   1.881
22374W        W83828  39.013  20.103  12.511
22375W        W83829   0.926  28.606  14.486
22376W        W83830  28.631  44.885   0.303
22377W        W83831  30.059  30.430   1.421
22378W        W83832  37.870   1.929  12.499
22379W        W83833  41.902   7.215   3.808
22380W        W83834  31.568  43.896   2.368
22381W        W83835  39.928  31.570  14.402
22382W        W83836   5.196  37.445   4.175
22383W        W83837  21.139  40.935   4.605
22384W        W83838  37.931  43.396   0.765
22385W        W83839  19.152  12.849  10.501
22386W        W83840  19.220  25.023   0.279
22387W        W83841  29.528  34.398  12.548
22388W        W83842  12.362  20.100   3.696
22389W        W83843   9.206  35.979   4.624
22390W        W83844  26.097  33.071  11.929
22391W        W83845  27.492  44.459  11.407
22392W        W83846   5.873  20.247   1.917
22393W        W83847  20.140  42.468  13.479
22394W        W83848  40.470  29.584   3.787
22395W        W83849  18.109  33.028   4.242
22396W        W83850  23.197   3.235  11.110
22397W        W83851   2.285   9.649   3.856
22398W        W83852  24.089  26.458   5.163
22399W        W83853  14.134  38.521   4.698
22400W        W83854   5.336  11.199   0.872
22401W        W83855  41.836  43.330  11.049
22402W        W83856   3.850  36.051   1.837
22403W        W83857  40.999  44.868  12.493
22404W        W83858  32.577  11.146   0.824
22405W        W83859   0.452  11.344  12.516
22406W        W83860   1.407  29.019  14.487
22407W        W83861   6.310  15.120  14.336
22408W        W83862   4.365  14.258   4.838
22409W        W83863  29.579  24.981  12.968
22410W        W83864  22.657   9.178  14.904
22411W        W83865  27.515  30.059   1.301
22412W        W83866  42.914   7.688   1.806
22413W        W83867  38.554  40.034  14.428
22414W        W83868   9.251  42.031  13.979
22415W        W83869   9.647  37.428   2.663
22416W        W83870  28.451  39.942  14.951
22417W        W83871  38.873  39.998   0.793
22418W        W83872  26.172  17.089  12.539
22419W        W83873   2.879  16.657   3.256
22420W        W83874  19.688  28.099  12.405
22421W        W83875   9.171  28.464  13.466
22422W        W83876  10.875  37.558  10.634
22423W        W83877  10.357  39.055   5.097
22424W        W83878  23.201  20.744  14.764
22425W        W83879  34.896  31.549  11.120
22426W        W83880  28.028  43.411  10.984
22427W        W83881  36.097   0.821   0.401
22428W        W83882  29.054  30.112  14.908
22429W        W83883  37.070  36.972  14.890
22430W        W83884  44.010   3.952  14.983
22431W        W83885   3.721   2.430  13.419
22432W        W83886  35.579  18.556  13.390
22433W        W83887  20.115   7.686  14.332
22434W        W83888  34.559  28.469  14.288
22435W        W83889  31.006  37.434  11.087
22436W        W83890  31.619  27.146  12.882
22437W        W83891   9.787  32.041  11.606
22438W        W83892  37.989  25.089   3.660
22439W        W83893   9.269  15.165   1.742
22440W        W83894  33.049  18.603   4.179
22441W        W83895  21.526  32.544  13.923
22442W        W83896  17.075  10.154   0.921
22443W        W83897  17.250   4.810  14.801
22444W        W83898   4.923  26.993  10.420
22445W        W83899  32.938  38.558  12.035
22446W        W83900  24.535   9.765  12.541
22447W        W83901  31.628  42.792  12.977
22448W        W83902  41.857  17.180   0.331
22449W        W83903  37.521  27.470  10.155
22450W        W83904  37.548   1.325  10.449
22451W        W83905   6.182  42.525   4.204
22452W        W83906   8.359   9.771  12.054
22453W        W83907  23.160   8.375   2.199
22454W        W83908  32.979  30.121   0.431
22455W        W83909  31.503  29.474  13.465
22456W        W83910  43.810  43.905  14.419
22457W        W83911  39.030  36.053   3.778
22458W        W83912  42.335  36.486  14.936
22459W        W83913  23.534  29.986   1.853
22460W        W83914  26.041  39.057   3.722
22461W        W83915   9.214  37.061  14.955
22462W        W83916   0.264  20.247  13.906
22463W        W83917  20.636  18.753   3.300
22464W        W83918  43.287  42.478  10.412
22465W        W83919  10.715  38.494   0.247
22466W        W83920  20.071  41.801   4.809
22467W        W83921  28.550  14.253   4.732
22468W        W83922  37.394   6.421  10.909
22469W        W83923  28.014  22.667  13.829
22470W        W83924   5.388   1.852   1.231
22471W        W83925  15.771   7.231  13.796
22472W        W83926  41.512  32.988   0.250
22473W        W83927  11.806  30.433  14.018
22474W        W83928  36.385  24.709   3.733
22475W        W83929  20.118  43.855  10.581
22476W        W83930   0.447  26.065   1.838
22477W        W83931   5.194  34.569   4.626
22478W        W83932  32.635  24.604  11.095
22479W        W83933  10.306   7.404   4.827
22480W        W83934  34.876  31.935  12.492
22481W        W83935  15.793  31.094   4.174
22482W        W83936   2.384   0.383   3.319
22483W        W83937  29.004  18.205  11.508
22484W        W83938   1.441  15.645  12.537
22485W        W83939   6.801  16.317  11.870
22486W        W83940  36.019  11.326  14.794
22487W        W83941  13.708  37.356  13.466
22488W        W83942   8.764  14.196   4.128
22489W        W83943   5.375  15.197  10.425
22490W        W83944  22.228  17.778  11.038
22491W        W83945  35.472   6.894   2.720
22492W        W83946  42.874  18.608   2.371
22493W        W83947   8.281   9.780  12.533
22494W        W83948   9.256  22.999   4.694
22495W        W83949  38.990  44.777   3.297
22496W        W83950  43.778  13.616  12.094
22497W        W83951  42.949  18.246   4.713
22498W        W83952  23.181   3.864   4.235
22499W        W83953  22.159   6.845   0.877
22500W        W83954  10.164   3.739   0.748
22501W        W83955   1.342  26.159   3.651
22502W        W83956  35.857  37.483   1.354
22503W        W83957  25.500   2.882   2.203
22504W        W83958  35.011   7.355   3.725
22505W        W83959   5.258  27.484  11.877
22506W        W83960  33.957  12.839   1.420
22507W        W83961   6.304  30.475  10.951
22508W        W83962  11.854  22.513   5.165
22509W        W83963  39.002  26.997  10.545
22510W        W83964  34.111  18.766  12.436
22511W        W83965  42.474  29.567  14.313
22512W        W83966   0.893  21.615  10.997
22513W        W83967  31.035   5.339   1.866
22514W        W83968   5.263  22.653  10.909
22515W        W83969   7.797  35.554   3.717
22516W        W83970  32.525  17.069   4.713
22517W        W83971  10.233   2.419   3.754
22518W        W83972   9.833  17.789   3.662
22519W        W83973  21.179  43.878  11.107
22520W        W83974   9.662   6.290   2.836
22521W        W83975  28.481  22.149   4.231
22522W        W83976   2.840  38.569  12.907
22523W        W83977  18.717  10.709  11.914
22524W        W83978   0.816  26.670  12.561
22525W        W83979  31.513  36.543   1.239
22526W        W83980   9.190   8.198   1.741
22527W        W83981  28.543  12.623   4.280
22528W        W83982   7.863  26.033  14.955
22529W        W83983  42.937   3.348  14.474
22530W        W83984  20.113  33.499   2.404
22531W        W83985  33.525  30.918   1.934
22532W        W83986  39.549  42.827   2.233
22533W        W83987   0.958  31.595   3.756
22534W        W83988  43.942  23.535   2.859
22535W        W83989  42.339  15.703  14.419
22536W        W83990  25.967   8.847  10.449
22537W        W83991  35.959  33.449  10.429
22538W        W83992  43.436  26.514   2.183
22539W        W83993  44.336  37.028  10.622
22540W        W83994  18.190  32.951   4.815
22541W        W83995   2.932  23.676  14.428
22542W        W83996  28.502  29.431  11.899
22543W        W83997  29.978  10.233   2.757
22544W        W83998  31.556  34.996  14.893
22545W        W83999   6.916  29.921  12.390
22546W        W84000  21.017  43.874   5.299
22547W        W84001  17.074  27.150  14.347
22548W        W84002   6.222  36.400   1.320
22549W        W84003   4.837  18.574  10.974
22550W        W84004   1.949   9.685  12.383
22551W        W84005  28.652  13.350  11.904
22552W        W84006  32.510  32.471   1.336
22553W        W84007  33.586  22.164   1.260
22554W        W84008  41.389  41.419   2.218
22555W        W84009  26.506  18.076   9.947
22556W        W84010  14.306   1.303  11.035
22557W        W84011   9.832  37.885   1.358
22558W        W84012  43.799   5.266   2.339
22559W        W84013  42.464   3.367   3.215
22560W        W84014  22.228  33.003  12.362
22561W        W84015  18.225  11.349   4.176
22562W        W84016  17.587  26.141  10.415
22563W        W84017  37.076  30.052   0.944
22564W        W84018  29.428  16.317   3.850
22565W        W84019   8.260   8.816   0.359
22566W        W84020   9.819  41.813   2.183
22567W        W84021   6.772  36.898  11.535
22568W        W84022  34.902  10.369  10.156
22569W        W84023  16.205   5.741  12.085
22570W        W84024   7.862   0.358  14.376
22571W        W84025  20.217  34.960   3.690
22572W        W84026   8.780   9.366   3.698
22573W        W84027   1.971   9.816   3.260
22574W        W84028  14.711   3.931  13.986
22575W        W84029   8.332  30.947  14.418
22576W        W84030  32.589  21.059  11.023
22577W        W84031   6.895  34.491   5.152
22578W        W84032  40.533   4.238  14.380
22579W        W84033  44.982   5.227   0.308
22580W        W84034  13.808   1.951  12.391
22581W        W84035  21.559   0.336   0.880
22582W        W84036   8.183  10.274   1.445
22583W        W84037  41.940  41.040  11.108
22584W        W84038  19.237   2.893  11.110
22585W        W84039  24.524   8.361  13.835
22586W        W84040  19.695  27.623  11.043
22587W        W84041  38.474  39.903  11.108
22588W        W84042  27.600  33.616   1.763
22589W        W84043   4.739  42.310  11.868
22590W        W84044  20.653   6.866   9.998
22591W        W84045  17.650  34.462   3.270
22592W        W84046  43.397   0.871   2.868
22593W        W84047  38.981   7.845   0.257
22594W        W84048  30.483   0.321  10.913
22595W        W84049  39.864   7.400   1.797
22596W        W84050  34.508  38.862  12.473
22597W        W84051  30.099  39.418  11.607
22598W        W84052  25.628  43.428   0.402
22599W        W84053  38.046  26.496  12.848
22600W        W84054  10.653  26.018  13.971
22601W        W84055  21.539   5.701  10.501
22602W        W84056  43.292   4.916  10.941
22603W        W84057  32.930   4.712   1.855
22604W        W84058   3.316  32.017  12.513
22605W        W84059   5.730   3.334   4.765
22606W        W84060   2.304   0.291  11.973
22607W        W84061   5.851   7.710   4.687
22608W        W84062  10.298  22.611  13.903
22609W        W84063   3.858  44.370  14.455
22610W        W84064   8.726  34.005  12.377
22611W        W84065   7.700  34.084   2.824
22612W        W84066  24.670  32.973  14.515
22613W        W84067  23.570  28.581   4.242
22614W        W84068  18.115   9.821  12.907
22615W        W84069  29.129  24.016  14.856
22616W        W84070  11.142  24.994  12.454
22617W        W84071  22.509  23.562  14.432
22618W        W84072  31.615  41.850   2.683
22619W        W84073   3.365  19.734   4.800
22620W        W84074  43.356  17.687   3.208
22621W        W84075  44.827  41.301  12.477
22622W        W84076  37.834  27.520   4.311
22623W        W84077   3.879  36.974  12.500
22624W        W84078  34.502  24.187  14.021
22625W        W84079  26.488  39.854  12.483
22626W        W84080  13.643  43.471  11.056
22627W        W84081  17.801   6.321   0.299
22628W        W84082  16.203  27.630   4.213
22629W        W84083  32.542  10.299  10.492
22630W        W84084   8.299   6.833  11.511
22631W        W84085  15.277  43.932  13.802
22632W        W84086  32.016   6.738  14.876
22633W        W84087  27.463  37.365  10.048
22634W        W84088  10.187   8.669  13.964
22635W        W84089  30.468  15.090   5.303
22636W        W84090  33.027  29.535   4.712
22637W        W84091  14.718  17.246  10.031
22638W        W84092  36.022  14.808   0.364
22639W        W84093  35.495  27.671   3.806
22640W        W84094   2.887  12.333   2.897
22641W        W84095  10.222  10.140   3.275
22642W        W84096  25.065  14.622  12.997
22643W        W84097  37.917   4.719   4.301
22644W        W84098   4.423   7.309  10.410
22645W        W84099  20.272  21.740   4.804
22646W        W84100   1.461  43.917  12.946
22647W        W84101  44.775  16.226   2.685
22648W        W84102  42.403  42.803   3.811
22649W        W84103  22.123  14.156  12.867
22650W        W84104  15.650  30.113   2.680
22651W        W84105   1.396  44.312   0.409
22652W        W84106  24.670  42.846   3.185
22653W        W84107  19.711  21.655  10.635
22654W        W84108   7.186  40.917  11.964
22655W        W84109   3.219  40.338   4.614
22656W        W84110   0.416   2.895  11.539
22657W        W84111   3.309   0.465   1.309
22658W        W84112  33.548  44.874   0.778
22659W        W84113  20.769  44.433   0.837
22660W        W84114  13.658  31.151   2.366
22661W        W84115   2.328   6.322  12.461
22662W        W84116  44.288   7.679  10.584
22663W        W84117  21.151  41.895  12.875
22664W        W84118  35.078  40.005   2.375
22665W        W84119  39.446  26.616   0.917
22666W        W84120  28.445   7.367   2.670
22667W        W84121  34.899  19.626  13.820
22668W        W84122  39.444   0.308  11.550
22669W        W84123  14.101  26.078  14.324
22670W        W84124  25.650  30.985  13.956
22671W        W84125  17.085   5.749  12.348
22672W        W84126  26.682  20.742   2.193
22673W        W84127  36.004  28.461   1.449
22674W        W84128  13.789  26.552  10.456
22675W        W84129  44.338  28.087  10.909
22676W        W84130  29.131  44.313  12.913
22677W        W84131  28.993   9.654  13.391
22678W        W84132  21.223  11.289  10.054
22679W        W84133  11.320  21.572  14.409
22680W        W84134  16.613   2.761   0.326
22681W        W84135  17.203  17.151  12.522
22682W        W84136  19.136  12.310  13.801
22683W        W84137  32.630  28.032   0.254
22684W        W84138  10.755  13.282   4.766
22685W        W84139   4.224  32.414   4.658
22686W        W84140  21.205  33.433  12.495
22687W        W84141  19.198   8.656   3.762
22688W        W84142  28.671  19.278   4.666
22689W        W84143  41.858  33.935  11.558
22690W        W84144   1.293  26.153  12.401
22691W        W84145  38.353  42.995  11.893
22692W        W84146  11.360  18.770  14.829
22693W        W84147   5.254  15.250   3.667
22694W        W84148  36.070   8.841  11.382
22695W        W84149  36.424   9.355  13.363
22696W        W84150  29.093  21.134   0.459
22697W        W84151  15.584  36.503  10.441
22698W        W84152  10.200  15.236  13.877
22699W        W84153  27.970   4.393   0.281
22700W        W84154  35.003  33.111  10.523
22701W        W84155  39.547  31.053   4.263
22702W        W84156  15.808  44.432  14.333
22703W        W84157  27.948  28.498  13.902
22704W        W84158  32.460  33.465   2.274
22705W        W84159  20.045   7.676   2.863
22706W        W84160   6.685  37.947   4.775
22707W        W84161  25.534   8.234  10.464
22708W        W84162  31.512  28.168   1.913
22709W        W84163   6.772  27.981   0.762
22710W        W84164   7.281  37.071  14.382
22711W        W84165  10.384  13.298   9.927
22712W        W84166  10.328  25.569  11.395
22713W        W84167  34.037  39.031   4.677
22714W        W84168  40.369  37.921  11.004
22715W        W84169  19.156  36.539  12.967
22716W        W84170  12.639  20.642   1.867
22717W        W84171   6.724  17.258  10.491
22718W        W84172  14.626  43.386   3.707
22719W        W84173  22.716   9.240   3.699
22720W        W84174  20.159  33.379   0.826
22721W        W84175  22.134   4.264   2.320
22722W        W84176  32.398  12.639  12.554
22723W        W84177  27.172  33.441   3.224
22724W        W84178  12.841  21.029  14.501
22725W        W84179  43.310  16.301   1.226
22726W        W84180  10.190  19.766  12.518
22727W        W84181  14.238  34.446  12.462
22728W        W84182  40.392   3.363  12.066
22729W        W84183   1.439  42.410   2.219
22730W        W84184  39.057  14.709  13.425
22731W        W84185  40.360  10.378   2.254
22732W        W84186  12.777  22.059  12.914
22733W        W84187  11.777  12.850  14.325
22734W        W84188  37.017  41.807   0.856
22735W        W84189  20.660  43.319   0.260
22736W        W84190  29.617  40.337  14.514
22737W        W84191  19.684  43.270   0.448
22738W        W84192   1.962  23.713  11.936
22739W        W84193   1.295  27.028   0.931
22740W        W84194  39.974  35.987  10.409
22741W        W84195   4.364  21.589   4.703
22742W        W84196  37.932  37.499  12.892
22743W        W84197  20.692  17.262  10.550
22744W        W84198  43.000  34.378  13.853
22745W        W84199  35.516   4.281  13.367
22746W        W84200  34.602  10.685   4.778
22747W        W84201   1.379  33.881   1.285
22748W        W84202  30.572  36.526   3.253
22749W        W84203  17.631  17.175  13.528
22750W        W84204  38.846  21.127   1.723
22751W        W84205   9.291   5.355  13.392
22752W        W84206  10.672   4.927  11.457
22753W        W84207  28.456  31.082  12.347
22754W        W84208  26.955  35.533  12.388
22755W        W84209  23.661   6.750   0.260
22756W        W84210  10.205  28.080   2.759
22757W        W84211   4.705   9.864  11.074
22758W        W84212  33.413  44.355   4.232
22759W        W84213   4.758  23.189  14.432
22760W        W84214   5.343  30.113  13.467
22761W        W84215  37.563   8.727   1.810
22762W        W84216  27.977  32.458  12.421
22763W        W84217  20.762  17.734   3.191
22764W        W84218  34.096  24.552   1.695
22765W        W84219   5.857  13.278   3.690
22766W        W84220   2.877   3.811  12.439
22767W        W84221  21.718  33.399  10.985
22768W        W84222  27.676  39.921   1.795
22769W        W84223  43.503  21.734  10.928
22770W        W84224   9.812  39.918   1.750
22771W        W84225  18.107  19.109  12.088
22772W        W84226  17.709  25.699  14.427
22773W        W84227  20.222  10.243   0.921
22774W        W84228  36.879  38.529   2.775
22775W        W84229  15.292  35.367  12.080
22776W        W84230   8.850  38.899  14.500
22777W        W84231  15.641  30.533   1.919
22778W        W84232   4.777   8.263   4.748
22779W        W84233  41.794  17.569   2.242
22780W        W84234  17.558  37.431  10.991
22781W        W84235  24.060  22.170   2.300
22782W        W84236  17.774   4.720   1.363
22783W        W84237   5.397  30.645   4.742
22784W        W84238  21.727  35.429  10.906
22785W        W84239  40.960  13.141  10.895
22786W        W84240  11.191  33.417   1.828
22787W        W84241   1.242   4.222   2.886
22788W        W84242  18.772  25.988  11.606
22789W        W84243  43.395  39.401  11.584
22790W        W84244  43.311  20.763  13.341
22791W        W84245  18.128  33.081   1.835
22792W        W84246  36.939  17.165   0.802
22793W        W84247   9.818  28.629  13.315
22794W        W84248  24.116  24.494  10.412
22795W        W84249   2.436  38.025  11.931
22796W        W84250  34.047   2.906   3.819
22797W        W84251  14.291  15.246   0.328
22798W        W84252  44.852  27.012   2.235
22799W        W84253   9.733  29.038  12.935
22800W        W84254  42.397  39.824   4.354
22801W        W84255  19.684  17.128  11.409
22802W        W84256  28.526  30.015  11.442
22803W        W84257  12.624  12.743   0.815
22804W        W84258  29.144  36.895  14.407
22805W        W84259  39.849  22.054  12.488
22806W        W84260  27.961  28.011  10.430
22807W        W84261  33.624  22.630  14.355
22808W        W84262   6.187  14.117  12.936
22809W        W84263  30.074   8.362  14.921
22810W        W84264  24.213  25.001   9.923
22811W        W84265  33.385  44.939   0.393
22812W        W84266   5.728  41.988  14.515
22813W        W84267  37.578  41.802   0.795
22814W        W84268  43.499  10.640  12.971
22815W        W84269  22.744  28.476  13.860
22816W        W84270   6.774  30.995   3.701
22817W        W84271  32.408  29.649   1.708
22818W        W84272  42.344  41.826  10.985
22819W        W84273  31.474  13.701   2.728
22820W        W84274  29.666  44.839   2.311
22821W        W84275   4.842  32.402   3.349
22822W        W84276  15.288  26.995  12.846
22823W        W84277   9.646   7.707   0.269
22824W        W84278  20.084  43.311  11.539
22825W        W84279   2.468  25.102   4.313
22826W        W84280  41.865  18.704  14.993
22827W        W84281  15.775  23.143  14.994
22828W        W84282  33.125   0.493   1.806
22829W        W84283  43.805  22.533   4.203
22830W        W84284  44.999  10.796  13.887
22831W        W84285   0.400  21.104  14.395
22832W        W84286  22.670  43.877  14.797
22833W        W84287  29.149   2.269  10.559
22834W        W84288   3.844   2.925   3.754
22835W        W84289  20.214   3.285  12.350
22836W        W84290  41.381  12.729   0.474
22837W        W84291  12.699  15.636   1.702
22838W        W84292  36.998   5.840   3.172
22839W        W84293   2.418  31.430  12.896
22840W        W84294   0.862  34.034   1.862
22841W        W84295  40.454  19.549   1.404
22842W        W84296  22.656  31.114  11.441
22843W        W84297  13.683   1.437  12.556
22844W        W84298   7.227  37.058   0.288
22845W        W84299   2.883  34.113   1.876
22846W        W84300  34.560   1.465   4.613
22847W        W84301  36.063  36.583   5.256
22848W        W84302  32.489  22.063  12.837
22849W        W84303  26.561  11.339   3.181
22850W        W84304  37.877  15.233  14.503
22851W        W84305   2.390  34.021  12.976
22852W        W84306   7.361  44.483   4.693
22853W        W84307  26.057  39.000  10.495
22854W        W84308   4.807  19.768   4.822
22855W        W84309  13.823  18.789  11.873
22856W        W84310   5.912  41.469   2.361
22857W        W84311  18.643   4.724   4.138
22858W        W84312  29.109   1.891  14.029
22859W        W84313  18.582  15.637  13.340
22860W        W84314  40.980   5.235  11.866
22861W        W84315  31.504   2.764  13.524
22862W        W84316  22.533  23.507   5.220
22863W        W84317  23.600  27.624  12.005
22864W        W84318  22.209   7.665   4.335
22865W        W84319  36.092  19.143   2.893
22866W        W84320  39.034  13.278  13.063
22867W        W84321  34.420  20.133   4.760
22868W        W84322  40.363  38.373  12.390
22869W        W84323  29.922  33.966  10.018
22870W        W84324  40.853   9.340  14.975
22871W        W84325  39.461  32.893   4.603
22872W        W84326  30.118  32.627  13.907
22873W        W84327   0.391  38.529   3.784
22874W        W84328   2.284   0.425  14.919
22875W        W84329   8.775   2.448  12.477
22876W        W84330   9.672  20.588   2.197
22877W        W84331  44.783   1.355   2.813
22878W        W84332  15.652  23.223  11.029
22879W        W84333  33.412  35.510  14.324
22880W        W84334  14.816  27.618  10.971
22881W        W84335  29.520  42.522   2.696
22882W        W84336  43.842   3.861  13.876
22883W        W84337   6.811  35.392   3.383
22884W        W84338   9.382   2.451  12.878
22885W        W84339  36.490  20.072  13.478
22886W        W84340  26.046  44.825  13.937
22887W        W84341  12.338  37.364   2.394
22888W        W84342   8.673  13.301  13.461
22889W        W84343  41.366   4.307  14.000
22890W        W84344  44.289  33.916   1.371
22891W        W84345  38.492  11.241   3.859
22892W        W84346  40.365  22.030   2.304
22893W        W84347  37.051  43.307   5.771
22894W        W84348  27.651  21.609   1.934
22895W        W84349  35.877  40.431  11.079
22896W        W84350  29.541  35.023   1.381
22897W        W84351  38.040  24.202  14.399
22898W        W84352  19.266  22.074   1.267
22899W        W84353  38.059  17.752  10.626
22900W        W84354  36.394  28.441  12.998
22901W        W84355  18.292  38.411  12.927
22902W        W84356  16.628  14.645   0.367
22903W        W84357  30.552  16.237  14.486
22904W        W84358  43.949  19.566   0.920
22905W        W84359   3.225  23.491   3.283
22906W        W84360  20.028  29.504  14.332
22907W        W84361  25.691  32.571  10.521
22908W        W84362  20.239  23.199   1.823
22909W        W84363  31.110  40.374   3.269
22910W        W84364   6.759  28.989  11.590
22911W        W84365  20.046   3.775   3.713
22912W        W84366  27.588  44.947   2.819
22913W        W84367   4.279  19.723  14.512
22914W        W84368  42.308   2.871   4.700
22915W        W84369  21.174  36.401   5.260
22916W        W84370  12.805  11.216  14.508
22917W        W84371  40.355  43.803  11.521
22918W        W84372   1.377  23.164  11.107
22919W        W84373  12.842   7.740   3.655
22920W        W84374   1.817   4.268  14.980
22921W        W84375  10.743  23.708  11.424
22922W        W84376  34.001  11.214  12.514
22923W        W84377  16.282  30.554  11.394
22924W        W84378  28.573  24.162  12.540
22925W        W84379  30.999  17.162  14.871
22926W        W84380  18.620  17.583  11.586
22927W        W84381  14.106  16.813   4.743
22928W        W84382  34.577  12.175   2.253
22929W        W84383  28.946   8.795   2.751
22930W        W84384  33.051  21.102  10.924
22931W        W84385   8.168  12.697  12.089
22932W        W84386   9.881  17.224  10.451
22933W        W84387  29.557  20.204   4.282
22934W        W84388  22.142  32.080   4.298
22935W        W84389  35.388  22.123   4.737
22936W        W84390   6.337  13.686  14.804
22937W        W84391  25.038  39.335  10.637
22938W        W84392  18.292  17.239  13.915
22939W        W84393   5.700  35.379  12.050
22940W        W84394  41.359   9.323  11.089
22941W        W84395   6.752   6.360  14.512
22942W        W84396  32.002  22.566   2.816
22943W        W84397  11.291  13.697   3.695
22944W        W84398  10.147  20.221   3.806
22945W        W84399  27.131  27.670  14.759
22946W        W84400  15.800  33.953   4.146
22947W        W84401   4.260  10.761  10.641
22948W        W84402  36.367  37.923  14.499
22949W        W84403  14.301  25.541  12.853
22950W        W84404  36.964   8.792   4.236
22951W        W84405  12.341   4.302   1.873
22952W        W84406   9.760  27.649  12.557
22953W        W84407  13.794  34.446   1.824
22954W        W84408  32.928  35.577  10.633
22955W        W84409  28.104  38.949  14.384
22956W        W84410  36.850  35.971  11.524
22957W        W84411  12.308  41.010   3.726
22958W        W84412  34.907   9.175  11.938
22959W        W84413   5.929  38.825  13.322
22960W        W84414   6.292  26.576  14.433
22961W        W84415  33.985  44.879  13.356
22962W        W84416  17.787  24.546   1.413
22963W        W84417  10.268  35.522   3.366
22964W        W84418   3.907  30.455   0.824
22965W        W84419  16.580   7.286  13.422
22966W        W84420  10.362   8.752  11.474
22967W        W84421  36.367  28.180  10.159
22968W        W84422  38.886   6.820  10.932
22969W        W84423  10.175  15.623  12.023
22970W        W84424  36.411  11.805  14.424
22971W        W84425  44.975  36.044   0.737
22972W        W84426   2.766   9.357   3.210
22973W        W84427  25.991   7.785  11.894
22974W        W84428  29.003   6.382  12.429
22975W        W84429   5.239  17.111   2.799
22976W        W84430   7.245  17.570  14.419
22977W        W84431  31.494  39.483   1.382
22978W        W84432  40.975  28.049  12.892
22979W        W84433  32.920   8.888   1.264
22980W        W84434  35.921   8.316   3.748
22981W        W84435  25.707  25.090  12.004
22982W        W84436   1.755  37.495   4.734
22983W        W84437  22.058  34.604  12.449
22984W        W84438  12.269  19.111  11.566
22985W        W84439  32.916  10.276   1.878
22986W        W84440  27.643   9.334   2.299
22987W        W84441  39.065  17.654   1.927
22988W        W84442  37.082  36.552   2.743
22989W        W84443   8.842  19.124  13.357
22990W        W84444  27.568  20.535   1.806
22991W        W84445  41.529  22.598   1.335
22992W        W84446  16.079  21.636   0.759
22993W        W84447   5.307   3.279  12.575
22994W        W84448  11.140  15.303  14.874
22995W        W84449   4.806  25.672  12.844
22996W        W84450   1.912  20.155  14.920
22997W        W84451  23.702  19.578  13.883
22998W        W84452  38.349  31.634  14.858
22999W        W84453   3.819   2.726  14.406
23000W        W84454  38.431   1.780  14.332
23001W        W84455  20.123  31.597  11.527
23002W        W84456   6.890   8.224   4.619
23003W        W84457  42.341  44.331   1.369
23004W        W84458  11.742   6.232   2.301
23005W        W84459   9.206  38.933   2.211
23006W        W84460   8.290  42.839   1.905
23007W        W84461  33.074  12.287   5.254
23008W        W84462  10.210  13.701   4.134
23009W        W84463  37.446  29.508   0.768
23010W        W84464  26.675  38.894  11.425
23011W        W84465   7.237   9.889  10.628
23012W        W84466  38.030  11.192  14.819
23013W        W84467  25.207  39.403  11.927
23014W        W84468   1.269  10.749   0.257
23015W        W84469  21.517  40.908   0.476
23016W        W84470  17.276  34.614   0.419
23017W        W84471  41.980  36.034  14.882
23018W        W84472  40.313  38.359  12.916
23019W        W84473  10.187  33.099   5.210
23020W        W84474  12.340  12.809   2.314
23021W        W84475   5.777   8.369  13.337
23022W        W84476  41.911   7.250   2.278
23023W        W84477  32.117  21.254   2.360
23024W        W84478  30.552   8.317   4.790
23025W        W84479  23.664   2.332  13.390
23026W        W84480  27.077  14.628   3.200
23027W        W84481  33.389  14.176   5.130
23028W        W84482  10.688  43.851   2.764
23029W        W84483  13.263  27.662  13.010
23030W        W84484  36.413   9.855  11.908
23031W        W84485  35.104  40.381   2.800
23032W        W84486  29.425  37.052   3.799
23033W        W84487  44.887  23.690  12.826
23034W        W84488  40.934   1.323   3.676
23035W        W84489  43.825  13.824  10.415
23036W        W84490  33.600  26.676  10.478
23037W        W84491  43.005  32.974  14.498
23038W        W84492   9.213  34.936  13.986
23039W        W84493  27.656  20.206   4.831
23040W        W84494  41.332  13.838  13.905
23041W        W84495  38.932  37.401  11.383
23042W        W84496  26.978  11.238   3.801
23043W        W84497  43.013   0.380   2.781
23044W        W84498  14.824   5.854  14.373
23045W        W84499  27.568  39.419   4.714
23046W        W84500  36.405  36.926  12.964
23047W        W84501  41.335  44.265   1.842
23048W        W84502   1.386  11.712   3.840
23049W        W84503  21.566  16.808  10.926
23050W        W84504   6.251  30.955   3.733
23051W        W84505  13.804   7.299  12.881
23052W        W84506  40.409   0.315  13.322
23053W        W84507   5.363  29.003   2.310
23054W        W84508  18.590  22.656   1.723
23055W        W84509  22.542  12.617   3.269
23056W        W84510  21.056  37.948   3.734
23057W        W84511  28.112   7.885  12.427
23058W        W84512   5.793  12.338   2.387
23059W        W84513  17.786  25.543  13.863
23060W        W84514  10.329  31.437  11.882
23061W        W84515  16.147   1.243  14.344
23062W        W84516  12.178  27.061   4.345
23063W        W84517  17.268   8.817   5.177
23064W        W84518  31.511  43.294  12.855
23065W        W84519   8.339   7.710  14.463
23066W        W84520  18.742  15.228   4.260
23067W        W84521   8.317  29.547   1.892
23068W        W84522  41.369   8.259  11.879
23069W        W84523   4.902  39.043  10.517
23070W        W84524  18.620  10.815   0.855
23071W        W84525   9.310  41.331  11.042
23072W        W84526  44.284  31.561   4.184
23073W        W84527  21.637  27.062  14.356
23074W        W84528  28.495  20.145  13.830
23075W        W84529  37.923  20.145  13.395
23076W        W84530  24.494   2.331   0.848
23077W        W84531  28.087  16.647  14.790
23078W        W84532   5.928   5.903   3.167
23079W        W84533  39.857   8.750   0.390
23080W        W84534   4.390  14.225  12.978
23081W        W84535  28.140  14.188  10.057
23082W        W84536  30.444   8.269  12.443
23083W        W84537  38.497  15.617  13.803
23084W        W84538  32.544   0.447   0.265
23085W        W84539  34.598   3.256   4.795
23086W        W84540  39.959  22.590  10.475
23087W        W84541  27.987   8.895   4.161
23088W        W84542   0.808  13.804   1.907
23089W        W84543  29.998  23.139   5.225
23090W        W84544  12.153  38.424  10.518
23091W        W84545  15.613  27.943  13.029
23092W        W84546  31.476  12.625   5.765
23093W        W84547  31.933  30.486   3.265
23094W        W84548   9.691  13.294  10.596
23095W        W84549  31.030  30.043  10.451
23096W        W84550  18.239  27.154   1.766
23097W        W84551   8.305  28.178   1.243
23098W        W84552  31.596  28.115   3.842
23099W        W84553  35.400  37.036   3.169
23100W        W84554   6.743  43.785  11.406
23101W        W84555   3.845   4.836   1.240
23102W        W84556   5.394  19.667   2.799
23103W        W84557   0.433   4.342  14.779
23104W        W84558  33.535  25.133  13.831
23105W        W84559  20.033  36.018   2.774
23106W        W84560   6.358   6.303   0.373
23107W        W84561  32.897  20.726   0.305
23108W        W84562  34.082  17.801   2.887
23109W        W84563  20.719  39.969  13.538
23110W        W84564  26.142  17.193  10.557
23111W        W84565  28.621  27.586  14.776
23112W        W84566   8.664  19.663  13.051
23113W        W84567  23.047  29.653   1.727
23114W        W84568  33.539  31.928   0.383
23115W        W84569   4.839  23.625   0.378
23116W        W84570  19.285  25.502   4.320
23117W        W84571  43.874  14.191  12.964
23118W        W84572  22.520  24.624   0.745
23119W        W84573  33.411  35.905   4.306
23120W        W84574   6.417  36.412  10.548
23121W        W84575  29.049  27.644   4.633
23122W        W84576  27.656  27.069   4.647
23123W        W84577  15.289  29.658  12.570
23124W        W84578  18.086  32.568   1.842
23125W        W84579  22.227  31.978   3.309
23126W        W84580   8.760  19.250   2.898
23127W        W84581  14.750  41.996  12.991
23128W        W84582  21.709  38.987   0.803
23129W        W84583  27.131  18.050   4.694
23130W        W84584  32.920  15.686  13.950
23131W        W84585  20.178  11.288   4.687
23132W        W84586  30.089  39.331   4.278
23133W        W84587  28.666  13.174  13.929
23134W        W84588  17.693  20.060  14.861
23135W        W84589  39.972  23.019   2.313
23136W        W84590  19.204  21.209  11.069
23137W        W84591  22.632  31.901   0.931
23138W        W84592  25.055  25.590   4.277
23139W        W84593   6.853  18.103  10.517
23140W        W84594   9.167  23.569  10.476
23141W        W84595  18.772  31.647  11.587
23142W        W84596  30.951  44.903  10.943
23143W        W84597  20.085   7.682   1.277
23144W        W84598   1.351  29.635  13.491
23145W        W84599  39.507  43.478   4.220
23146W        W84600  36.964  38.450  10.432
23147W        W84601  38.033  40.326  11.903
23148W        W84602  24.034  31.579   2.854
23149W        W84603  25.997   2.396  13.459
23150W        W84604  35.413  20.159   0.346
23151W        W84605  18.213  36.374   3.198
23152W        W84606  21.536  31.470   0.793
23153W        W84607   0.398  38.420  13.836
23154W        W84608   0.492  37.386   3.844
23155W        W84609  31.468  30.126  14.355
23156W        W84610  12.253   7.785  11.019
23157W        W84611  35.104   2.432   3.639
23158W        W84612   6.253  13.242   1.735
23159W        W84613  22.621   1.816   3.860
23160W        W84614   8.304  40.816   1.904
23161W        W84615  23.498  29.433   1.422
23162W        W84616  19.233  24.539  10.929
23163W        W84617   7.723  21.727  13.479
23164W        W84618   4.435   3.711  12.025
23165W        W84619  22.548  12.293  13.800
23166W        W84620  40.960  42.315   3.305
23167W        W84621  21.261  15.303  14.780
23168W        W84622  22.029  10.730   2.792
23169W        W84623  27.488  22.209   9.628
23170W        W84624   0.296   7.338   2.789
23171W        W84625   7.791   6.340  13.062
23172W        W84626   4.307  18.292   3.642
23173W        W84627  20.040   4.256   0.406
23174W        W84628   7.832  44.937  14.965
23175W        W84629  38.485  14.657   0.796
23176W        W84630  19.575  44.920  13.398
23177W        W84631  12.739   3.254  11.080
23178W        W84632  43.417  16.149   0.730
23179W        W84633  44.390   8.897  11.880
23180W        W84634  35.932  42.319  12.368
23181W        W84635  19.555   8.667  13.920
23182W        W84636  30.489  39.007  11.952
23183W        W84637  14.149  16.809   1.289
23184W        W84638  24.042  33.439   1.762
23185W        W84639  30.643  35.602  12.551
23186W        W84640  16.765   3.849   4.791
23187W        W84641  34.926  21.103   1.931
23188W        W84642   4.795   6.715   2.718
23189W        W84643  21.060  17.168  12.847
23190W        W84644  12.635  42.502   1.362
23191W        W84645  42.300  33.580   3.789
23192W        W84646  13.105  31.575   3.665
23193W        W84647  27.658  12.120   0.870
23194W        W84648  19.725  22.153   4.741
23195W        W84649  36.457  10.281   1.708
23196W        W84650  35.905  26.532   0.327
23197W        W84651   6.894   3.709   4.116
23198W        W84652   9.832  21.703   9.957
23199W        W84653  17.204  43.824  11.411
23200W        W84654   7.413  27.548  14.315
23201W        W84655  30.500  26.616   2.763
23202W        W84656   4.914  18.100  13.348
23203W        W84657   5.921  33.060  13.909
23204W        W84658   4.238  36.447  11.547
23205W        W84659  32.432  21.023  12.983
23206W        W84660  29.925  21.159   0.345
23207W        W84661  31.084  21.066  10.097
23208W        W84662  25.599  32.921  13.854
23209W        W84663  10.737  36.899   2.777
23210W        W84664  29.926   4.251  12.979
23211W        W84665   5.306  26.703  12.913
23212W        W84666   9.866  37.553  14.462
23213W        W84667  19.232  27.013   3.270
23214W        W84668  13.228  37.464  10.050
23215W        W84669  34.511   2.417  13.370
23216W        W84670   9.802  23.735  11.417
23217W        W84671   4.892  36.908  13.952
23218W        W84672  36.389  43.772  14.973
23219W        W84673  44.443  38.498   3.757
23220W        W84674  28.019  12.353  11.404
23221W        W84675   6.415  17.720   4.784
23222W        W84676  25.678   9.253  14.480
23223W        W84677  26.046   8.728   0.400
23224W        W84678  21.658  14.700  11.027
23225W        W84679   6.403   4.885  13.421
23226W        W84680  12.184   2.748   1.889
23227W        W84681  23.722  35.492   1.393
23228W        W84682  17.674  38.006   1.701
23229W        W84683  25.184  12.663   1.259
23230W        W84684  14.287  11.697   4.328
23231W        W84685  13.791  22.539   2.867
23232W        W84686  26.959  12.782  13.814
23233W        W84687  12.721   5.915  14.835
23234W        W84688   8.824  18.145  13.376
23235W        W84689   3.422   3.298   4.664
23236W        W84690  40.543   4.847  13.510
23237W        W84691  18.279  35.525  13.878
23238W        W84692  33.121  12.701  10.948
23239W        W84693  11.656  41.967   4.146
23240W        W84694  43.783  41.312   3.289
23241W        W84695   9.703  29.604  14.420
23242W        W84696  37.398   8.864  13.473
23243W        W84697   5.234  37.348   0.285
23244W        W84698  31.042   7.863  12.047
23245W        W84699  24.674  28.472   0.848
23246W        W84700  18.199  23.989   4.233
23247W        W84701  36.053   8.846   3.817
23248W        W84702  35.027  13.600   1.763
23249W        W84703   2.307  24.003  13.913
23250W        W84704  22.676  15.675   3.760
23251W        W84705  35.392  14.103   0.480
23252W        W84706   6.823  10.352  12.542
23253W        W84707  19.555  13.718  11.942
23254W        W84708   5.396  29.140   4.782
23255W        W84709  16.259   3.763  10.530
23256W        W84710  27.973  34.889  12.983
23257W        W84711  11.319   7.810  11.995
23258W        W84712   8.798  20.763   3.711
23259W        W84713  14.688   4.430  11.478
23260W        W84714  22.709  29.073   4.333
23261W        W84715  37.405  28.567   0.908
23262W        W84716  15.658  21.213  11.072
23263W        W84717  23.680  35.370  14.991
23264W        W84718  26.703  30.956   9.956
23265W        W84719  33.583   5.238  13.899
23266W        W84720  39.337  41.404  14.996
23267W        W84721  41.439  23.021  13.011
23268W        W84722  26.004  11.722  10.545
23269W        W84723  23.697   1.450   2.751
23270W        W84724  39.359  19.172  14.444
23271W        W84725  20.196  18.155  12.436
23272W        W84726  13.695  10.647  10.894
23273W        W84727   0.797   3.215   4.793
23274W        W84728  44.922  36.516   4.212
23275W        W84729  39.021  40.890  13.051
23276W        W84730  28.082   2.283  11.883
23277W        W84731  12.324  24.616  13.470
23278W        W84732  12.857  40.964   5.311
23279W        W84733  34.562  42.313  11.478
23280W        W84734  18.616  31.136   3.274
23281W        W84735  43.781   2.936   2.401
23282W        W84736  12.160  31.914  13.381
23283W        W84737  14.730   9.847   3.386
23284W        W84738  36.356  33.487  14.012
23285W        W84739  25.559  24.988  14.842
23286W        W84740   9.738  25.200  12.387
23287W        W84741  20.235  33.578  12.390
23288W        W84742  24.538  27.664   0.889
23289W        W84743  39.325   4.721  12.913
23290W        W84744   3.441  16.805   0.942
23291W        W84745   3.956  21.097  14.363
23292W        W84746  14.215  33.575   5.122
23293W        W84747   8.226  38.905  11.097
23294W        W84748   7.778  22.139  10.890
23295W        W84749  17.067  20.733   1.864
23296W        W84750  30.604   7.225   3.754
23297W        W84751   2.841  25.017   4.633
23298W        W84752   8.167  26.501   4.218
23299W        W84753  32.624  39.945  10.910
23300W        W84754   9.842  37.565  12.410
23301W        W84755  21.244  29.584   4.347
23302W        W84756  40.927  23.522  14.762
23303W        W84757  33.616   1.832  10.599
23304W        W84758  35.480  14.613  10.562
23305W        W84759  25.020  10.327  13.912
23306W        W84760  28.483  16.226   0.829
23307W        W84761  18.626   6.690  13.797
23308W        W84762  22.502  21.047  14.844
23309W        W84763  14.659  37.945  12.495
23310W        W84764  13.232  32.091  14.840
23311W        W84765   8.704  28.565   0.388
23312W        W84766  20.088   7.178   0.746
23313W        W84767   8.321   6.698   4.722
23314W        W84768  35.090   0.952  12.539
23315W        W84769  13.770  10.346   0.886
23316W        W84770  43.336  36.929  11.611
23317W        W84771  13.110  23.180  13.358
23318W        W84772  34.533  37.897   3.719
23319W        W84773  19.658  23.680  13.410
23320W        W84774   5.855  24.560  10.635
23321W        W84775  15.109  34.603  10.966
23322W        W84776  34.488  18.574  14.782
23323W        W84777  22.659  13.187   1.876
23324W        W84778  24.666  40.962  10.622
23325W        W84779  34.500   3.889  13.857
23326W        W84780   6.701  38.509   0.464
23327W        W84781  29.054  14.273   0.960
23328W        W84782  10.190  30.991  10.630
23329W        W84783  23.155  38.051   2.327
23330W        W84784   6.325  14.625   4.237
23331W        W84785   5.221  42.820   2.402
23332W        W84786  40.912  28.576  13.531
23333W        W84787  34.920  43.333  11.472
23334W        W84788  29.441  20.704  12.353
23335W        W84789  37.844  13.743   1.347
23336W        W84790  18.276   6.785  12.941
23337W        W84791  44.791  40.447   0.830
23338W        W84792  14.121   7.217  14.365
23339W        W84793  38.049  30.135   4.282
23340W        W84794  12.163  27.538   4.350
23341W        W84795  41.844  15.231  13.003
23342W        W84796  28.036  18.634   3.255
23343W        W84797  26.095  28.034   1.923
23344W        W84798  22.732  24.642   1.245
23345W        W84799  13.125  32.026   1.824
23346W        W84800  32.140  24.680   0.850
23347W        W84801  30.444  17.625   3.148
23348W        W84802   3.728  20.659   4.289
23349W        W84803   0.419  14.730   1.238
23350W        W84804  18.100  39.912  13.352
23351W        W84805  42.378  34.575  14.832
23352W        W84806  13.685  17.633  12.483
23353W        W84807  35.007  28.540  11.008
23354W        W84808  41.299  28.567   0.747
23355W        W84809  36.905  43.016  14.512
23356W        W84810  16.685  17.672  13.390
23357W        W84811  21.535   8.195  12.859
23358W        W84812   0.855  25.991  10.538
23359W        W84813  24.976  12.844   3.712
23360W        W84814   0.906  40.017  11.514
23361W        W84815  36.391  23.138   1.778
23362W        W84816   9.859  18.185  12.535
23363W        W84817  34.922  18.257  14.764
23364W        W84818  21.205  26.014   2.825
23365W        W84819   0.812  36.551   2.815
23366W        W84820   2.723  15.687   1.925
23367W        W84821  28.583   7.231   5.298
23368W        W84822   5.838  35.056  14.467
23369W        W84823   5.208  41.311   1.927
23370W        W84824  15.672  26.069   5.189
23371W        W84825  10.804   3.839  12.039
23372W        W84826  18.129  13.794   1.817
23373W        W84827   5.890  14.748   1.788
23374W        W84828  36.094  36.912   4.264
23375W        W84829  42.954  25.990   1.379
23376W        W84830  20.572   1.243  10.448
23377W        W84831  38.382  34.891  11.927
23378W        W84832  28.615  30.132   1.354
23379W        W84833   0.945  12.764  14.468
23380W        W84834   5.751   0.373   1.898
23381W        W84835  42.291  16.227  12.934
23382W        W84836  16.787  19.285  11.542
23383W        W84837  26.135  22.747  10.610
23384W        W84838  11.753  24.510  11.934
23385W        W84839  28.646  29.026  13.056
23386W        W84840  23.522  43.820   3.152
23387W        W84841   8.792  31.085   5.107
23388W        W84842  44.323   0.758   4.258
23389W        W84843  23.077  10.657   2.674
23390W        W84844  16.699  32.067   5.217
23391W        W84845  16.627  27.141   2.306
23392W        W84846  36.573  30.078   0.903
23393W        W84847  33.908   0.921  12.842
23394W        W84848  44.339  29.614   2.845
23395W        W84849  31.152  12.170  14.887
23396W        W84850  14.692  17.072  11.598
23397W        W84851  11.189  36.448   1.446
23398W        W84852  30.163  27.457   2.341
23399W        W84853  39.986  41.872  12.962
23400W        W84854  26.101   4.246   3.282
23401W        W84855  19.779  42.976  12.006
23402W        W84856   1.958   7.180   4.831
23403W        W84857  42.435  11.252  12.381
23404W        W84858  41.374  16.189  12.365
23405W        W84859  31.009   5.911   4.221
23406W        W84860  19.639  26.110  12.843
23407W        W84861   0.456  41.497   1.378
23408W        W84862   2.890  15.805  14.887
23409W        W84863  20.155  17.724  11.114
23410W        W84864   5.713   5.698  10.462
23411W        W84865   1.385   9.255  13.396
23412W        W84866  22.239   2.275   3.386
23413W        W84867  42.878   3.263   1.829
23414W        W84868  10.336  15.229  11.945
23415W        W84869   2.959  18.144  10.605
23416W        W84870  42.885  44.830   0.742
23417W        W84871   4.208   2.857   3.699
23418W        W84872  35.919  21.048   4.659
23419W        W84873  35.587  36.397   0.907
23420W        W84874   6.199  18.642  10.601
23421W        W84875  16.645  35.586   4.833
23422W        W84876  15.183  25.116  13.019
23423W        W84877  10.644  42.302   4.186
23424W        W84878  22.094  13.216  11.861
23425W        W84879  33.527   6.257   2.221
23426W        W84880  27.998  21.172   5.224
23427W        W84881  23.577  31.108  12.936
23428W        W84882   6.740  28.444   4.775
23429W        W84883  40.831   8.271  13.499
23430W        W84884  42.819   9.874   0.377
23431W        W84885   2.386  38.542  10.996
23432W        W84886  13.827   8.894   4.335
23433W        W84887  38.032  27.950   0.894
23434W        W84888  16.120  19.637   0.440
23435W        W84889  28.641   1.338   0.911
23436W        W84890  14.166  19.744  10.922
23437W        W84891   7.835  21.734  12.023
23438W        W84892  17.143  13.621  10.936
23439W        W84893  32.571  29.601   2.695
23440W        W84894  10.270  19.638  14.023
23441W        W84895  38.527  31.536   1.286
23442W        W84896  19.074  43.307  11.424
23443W        W84897  30.569  26.070  10.156
23444W        W84898   9.832  22.202  13.397
23445W        W84899   5.362  20.225   2.791
23446W        W84900  39.910  39.869   3.386
23447W        W84901  32.035  44.855   3.186
23448W        W84902  30.149  42.357   1.394
23449W        W84903  28.097  34.563  13.314
23450W        W84904  26.107  14.649   4.670
23451W        W84905  24.686  33.124   9.475
23452W        W84906  10.141   2.258   4.757
23453W        W84907  22.709  33.408  13.805
23454W        W84908  25.031  44.392  10.926
23455W        W84909  14.288  14.768   2.870
23456W        W84910  20.626   2.379   3.158
23457W        W84911   5.766  26.965   4.326
23458W        W84912  23.688   5.689   0.257
23459W        W84913  13.162  23.087   0.789
23460W        W84914  32.064  20.095   0.483
23461W        W84915  42.973  34.557   3.670
23462W        W84916  30.625   7.898  11.932
23463W        W84917  28.490  25.661  12.467
23464W        W84918   6.199   1.752   0.385
23465W        W84919  11.635   3.221   2.277
23466W        W84920  40.384  35.565   0.772
23467W        W84921  31.111  41.486   4.823
23468W        W84922  38.009  20.099   3.871
23469W        W84923  18.709  15.252   0.471
23470W        W84924  16.171  38.948   3.850
23471W        W84925  40.325   7.714  11.466
23472W        W84926  26.517  22.671   3.674
23473W        W84927  35.859  22.580   0.278
23474W        W84928  41.828  13.708   2.780
23475W        W84929  11.732   4.801   2.411
23476W        W84930   5.412   8.822   0.479
23477W        W84931  25.669   3.951  12.946
23478W        W84932  44.348  37.063   0.284
23479W        W84933  43.883   0.797   3.166
23480W        W84934  10.140  28.069  12.399
23481W        W84935  27.557  27.690  12.401
23482W        W84936  16.165   7.854  11.882
23483W        W84937  20.734  37.343   1.359
23484W        W84938  23.503   1.241  13.897
23485W        W84939  16.152  33.603  14.451
23486W        W84940  39.368   6.693   2.834
23487W        W84941  44.928  31.950   0.262
23488W        W84942  14.180  22.078  10.598
23489W        W84943   8.776   1.760   1.788
23490W        W84944  12.248  18.572   2.836
23491W        W84945  42.012   5.869   2.221
23492W        W84946  20.243  42.364   3.733
23493W        W84947   7.328  41.379   0.468
23494W        W84948  30.082  39.520  14.883
23495W        W84949  13.791  23.637   0.367
23496W        W84950  35.604  16.782   0.751
23497W        W84951   5.747   0.877   1.763
23498W        W84952  10.804  22.667   1.796
23499W        W84953  28.036  33.461   2.398
23500W        W84954  25.595  34.956  12.849
23501W        W84955   2.724   2.892  11.892
23502W        W84956   4.290   6.185   3.284
23503W        W84957  33.031  25.998  12.874
23504W        W84958  35.398   1.308  13.798
23505W        W84959   4.378   9.876   2.765
23506W        W84960  16.147   6.357  11.549
23507W        W84961  33.882  31.646   4.642
23508W        W84962  10.306  16.753  14.964
23509W        W84963  30.639  42.469  11.080
23510W        W84964  37.854   0.818   2.273
23511W        W84965  43.776  31.938   0.862
23512W        W84966  37.515  33.392  11.414
23513W        W84967  41.040  39.527   0.823
23514W        W84968  33.023  16.665  11.552
23515W        W84969   9.386  42.873  12.092
23516W        W84970   5.892  26.657  11.912
23517W        W84971  42.456  31.451  11.043
23518W        W84972  41.877   5.817  11.013
23519W        W84973  39.360  38.504  13.490
23520W        W84974   7.270  28.160   4.346
23521W        W84975  39.317  17.200   4.710
23522W        W84976  20.523  33.918  12.970
23523W        W84977   8.204  36.046  13.953
23524W        W84978  38.913  42.365  13.376
23525W        W84979  44.955   8.406   4.766
23526W        W84980  12.809  35.367   3.367
23527W        W84981  31.966  24.204  13.974
23528W        W84982  27.513   7.668  12.456
23529W        W84983  17.236  18.730   1.817
23530W        W84984  38.401  32.601  14.776
23531W        W84985  11.269  10.667  11.463
23532W        W84986  41.491  43.349   4.708
23533W        W84987  41.824  34.376  11.557
23534W        W84988  17.661  24.605   2.417
23535W        W84989   1.364  39.388   4.690
23536W        W84990   8.715  10.781   2.787
23537W        W84991  14.200  26.463   3.748
23538W        W84992   1.403  18.141   1.305
23539W        W84993  12.167  15.783  12.403
23540W        W84994  43.902  40.416  13.890
23541W        W84995  27.636  10.277   4.817
23542W        W84996  15.775   5.402  10.590
23543W        W84997  24.145  11.131   2.391
23544W        W84998  33.047  30.091  11.088
23545W        W84999  34.099  33.972  14.444
23546W        W85000   3.449   9.686  14.280
23547W        W85001  33.528  36.377  13.961
23548W        W85002  14.308  27.636  14.955
23549W        W85003   0.794  20.237  13.450
23550W        W85004   5.854   7.804   2.893
23551W        W85005  32.048   6.358  12.562
23552W        W85006  17.108   7.676  10.478
23553W        W85007  12.204   8.784  14.804
23554W        W85008  17.706  30.526  14.320
23555W        W85009  36.061  41.412  11.436
23556W        W85010   8.192  36.985   3.858
23557W        W85011  11.351  20.569   2.362
23558W        W85012  22.070  41.524  14.452
23559W        W85013  34.462  14.770   4.698
23560W        W85014  42.998  10.213   3.644
23561W        W85015  42.906  34.972   3.789
23562W        W85016  20.063  13.110  11.127
23563W        W85017  31.619  11.849  14.794
23564W        W85018  24.011  15.106  12.427
23565W        W85019   9.722  41.391   2.831
23566W        W85020   8.339  18.115   1.872
23567W        W85021  43.892  11.199  11.498
23568W        W85022  12.241  23.151   4.322
23569W        W85023  21.583  22.544   2.876
23570W        W85024  18.061  17.667   4.816
23571W        W85025  20.113  15.631   1.359
23572W        W85026  28.004  41.538  11.443
23573W        W85027  29.453  16.688  11.098
23574W        W85028  18.082  15.697  13.870
23575W        W85029  33.542  15.321  12.851
23576W        W85030   0.885  32.486   9.951
23577W        W85031  21.180   1.846   2.330
23578W        W85032  41.509   0.920   2.828
23579W        W85033  17.154  24.523   0.243
23580W        W85034  41.951  24.996  12.861
23581W        W85035  13.613  14.826   1.917
23582W        W85036  31.927  32.513   4.824
23583W        W85037  29.088  43.895   2.293
23584W        W85038   6.363  29.627   3.334
23585W        W85039  11.624   4.367   1.366
23586W        W85040   2.933   7.352  13.060
23587W        W85041  41.975  27.658   3.170
23588W        W85042  44.399  25.628  14.997
23589W        W85043   2.417  28.546   0.953
23590W        W85044  40.443  26.503  11.073
23591W        W85045  34.540  21.028  14.311
23592W        W85046  35.415  39.327  11.450
23593W        W85047  34.395  23.685  13.491
23594W        W85048  19.667  30.503   4.307
23595W        W85049  33.127  41.034   0.323
23596W        W85050  36.470   3.823   2.789
23597W        W85051  14.124  15.601   2.758
23598W        W85052  41.933  33.003  14.874
23599W        W85053   7.748  16.191  12.959
23600W        W85054   3.345  32.990  14.406
23601W        W85055  15.247  36.054   0.806
23602W        W85056  21.631  42.310   3.658
23603W        W85057  11.204  15.198  10.556
23604W        W85058  11.242  35.901   0.806
23605W        W85059  21.146  37.557   3.146
23606W        W85060  41.536   5.791  12.519
23607W        W85061   7.411  13.694  10.895
23608W        W85062  23.543   0.863  12.919
23609W        W85063  23.146  14.288  14.908
23610W        W85064  25.193  34.893  13.894
23611W        W85065  14.822   7.237   2.838
23612W        W85066   1.424  42.982  12.056
23613W        W85067  14.811   6.236   2.787
23614W        W85068  29.004  33.487   3.788
23615W        W85069  31.045   2.721  14.007
23616W        W85070  19.746  30.625   1.318
23617W        W85071  25.571  11.226   2.186
23618W        W85072   2.747  13.781  10.437
23619W        W85073  30.124  20.044   0.836
23620W        W85074  18.215  43.453  11.039
23621W        W85075  20.648  10.845   0.779
23622W        W85076  43.330  12.801   2.813
23623W        W85077   6.423  20.537   0.765
23624W        W85078  27.016  32.540  13.056
23625W        W85079  11.743  33.102   1.226
23626W        W85080  43.349  40.970   1.338
23627W        W85081  36.911  37.366   4.231
23628W        W85082  24.107  24.567   3.168
23629W        W85083   8.747  35.036   0.780
23630W        W85084  30.119   9.688   0.754
23631W        W85085  43.355  37.046  10.948
23632W        W85086   6.786  44.263  10.404
23633W        W85087  26.694   5.436   4.682
23634W        W85088  16.103  27.024  14.373
23635W        W85089  22.620  40.840   3.667
23636W        W85090   3.420  39.919   3.260
23637W        W85091   0.295  11.332   3.384
23638W        W85092  18.709   2.720   4.822
23639W        W85093   4.438  12.623  12.455
23640W        W85094  30.603  30.923  14.834
23641W        W85095  11.203  21.643  10.968
23642W        W85096  25.599   1.973   4.269
23643W        W85097  39.396   8.669  10.625
23644W        W85098  31.474  32.050  10.428
23645W        W85099  40.405  35.483  14.304
23646W        W85100  20.705   7.889   3.369
23647W        W85101  43.783  15.232   2.419
23648W        W85102  28.674  30.466  12.052
23649W        W85103  18.658  41.485  14.878
23650W        W85104  36.001  34.592  13.016
23651W        W85105   3.888  42.503  12.894
23652W        W85106  11.348   5.742   1.898
23653W        W85107  39.973   9.232   2.766
23654W        W85108  41.011  19.190  14.303
23655W        W85109  39.503   3.225  13.531
23656W        W85110  27.958   1.254  13.548
23657W        W85111  40.923   8.694   3.649
23658W        W85112  26.631   2.826   3.155
23659W        W85113   9.382  35.883  12.963
23660W        W85114   2.446   7.701  11.383
23661W        W85115  44.477  27.513   3.733
23662W        W85116   1.772   1.421  13.937
23663W        W85117  35.927  23.651  14.003
23664W        W85118  39.957  25.568   0.798
23665W        W85119   9.276  39.838   1.368
23666W        W85120   9.267  11.237   1.368
23667W        W85121  25.603  30.637   4.192
23668W        W85122   5.781  43.278  10.566
23669W        W85123  29.653  15.639  10.903
23670W        W85124  21.708  39.367  14.930
23671W        W85125  16.787  16.124  13.429
23672W        W85126  10.143   8.690  10.136
23673W        W85127   9.209  38.832   1.441
23674W        W85128   9.828   8.220   0.887
23675W        W85129   4.742  35.012  14.379
23676W        W85130  33.964  13.686  11.519
23677W        W85131  13.815   4.821  13.931
23678W        W85132  25.978  16.100  13.331
23679W        W85133  16.785  37.544  13.489
23680W        W85134  39.045  30.085   3.162
23681W        W85135   4.354  33.964   2.357
23682W        W85136  39.400  19.696   4.148
23683W        W85137  29.926  13.146  14.866
23684W        W85138  21.660  22.561  12.845
23685W        W85139  33.570   4.250  13.365
23686W        W85140   1.956   1.821  13.897
23687W        W85141  23.492  35.551  12.350
23688W        W85142  18.602  21.174  10.083
23689W        W85143  29.076  22.703  11.924
23690W        W85144  38.880  41.902   9.629
23691W        W85145  43.276  23.102   2.805
23692W        W85146  33.408   1.972   4.306
23693W        W85147   4.840  36.050  14.028
23694W        W85148  35.523  28.532   3.772
23695W        W85149  36.408  15.643   0.483
23696W        W85150  10.871  23.519   4.231
23697W        W85151  28.679  29.550  10.976
23698W        W85152  22.034  14.261   4.732
23699W        W85153  43.022  17.087  13.861
23700W        W85154  32.607  24.507  14.980
23701W        W85155  15.643  24.105   4.232
23702W        W85156  38.415  18.206   2.303
23703W        W85157  21.588  37.561  14.323
23704W        W85158  40.398  33.115  13.929
23705W        W85159  15.586   1.304   4.767
23706W        W85160  14.114  29.151  11.088
23707W        W85161  25.062  38.558   3.643
23708W        W85162  31.408  42.352   1.347
23709W        W85163   7.868   1.403   3.321
23710W        W85164  14.725  40.319   2.783
23711W        W85165  41.440  32.139   1.863
23712W        W85166  27.013  27.665  11.002
23713W        W85167   8.746   8.163   4.330
23714W        W85168  43.852  34.523  10.928
23715W        W85169  42.008   8.866   2.709
23716W        W85170  26.460   9.672   4.284
23717W        W85171  34.957  33.890  13.376
23718W        W85172  16.133   0.952  13.424
23719W        W85173   4.352  34.877  14.993
23720W        W85174  28.454   6.855   9.996
23721W        W85175  32.038   5.781   9.968
23722W        W85176   7.872  14.297  14.977
23723W        W85177  23.726  20.248  13.816
23724W        W85178   5.284  24.102  11.532
23725W        W85179  10.299  31.619  13.874
23726W        W85180   9.727  44.858   4.164
23727W        W85181  30.472   0.927  10.562
23728W        W85182  38.885  32.578  11.884
23729W        W85183  43.824  43.295   2.260
23730W        W85184  14.639  18.691   0.812
23731W        W85185  30.135  44.357   4.305
23732W        W85186  40.966  19.777  13.023
23733W        W85187   5.788  15.104   2.279
23734W        W85188  12.355  40.798  12.429
23735W        W85189  17.293  40.854  12.824
23736W        W85190  20.534   2.846   1.782
23737W        W85191  21.527  24.089   1.376
23738W        W85192  38.927  29.166  11.983
23739W        W85193  36.385   8.852  12.450
23740W        W85194   8.815  34.038   1.360
23741W        W85195   0.328  44.794   0.893
23742W        W85196  40.054  18.074  13.045
23743W        W85197   1.972  22.505  10.999
23744W        W85198  43.814  26.993  14.879
23745W        W85199  16.106  31.004  11.964
23746W        W85200   9.881  36.477  14.027
23747W        W85201  40.974  42.870  14.478
23748W        W85202   2.318  14.801  13.987
23749W        W85203  11.674  29.655  11.414
23750W        W85204  33.611   8.244  14.978
23751W        W85205  26.678   9.840  14.356
23752W        W85206  14.666  24.577  12.834
23753W        W85207  43.410   0.908  10.013
23754W        W85208  13.752  40.379   4.287
23755W        W85209  25.680  13.601  14.428
23756W        W85210  28.945  40.490   1.882
23757W        W85211  16.790  33.502   0.317
23758W        W85212  40.904  12.283  11.569
23759W        W85213   7.819  12.155  10.419
23760W        W85214  39.042  36.415   3.800
23761W        W85215   8.672  38.956  13.982
23762W        W85216  12.850  14.279  14.396
23763W        W85217  25.542  22.109  10.468
23764W        W85218   5.393   6.831  14.829
23765W        W85219  38.856  34.482   3.864
23766W        W85220   5.836  17.200  12.996
23767W        W85221  26.092  15.143   4.345
23768W        W85222  40.353   0.909  14.482
23769W        W85223  22.149  15.720  14.459
23770W        W85224   6.368  16.090   3.293
23771W        W85225  26.958  11.852   4.712
23772W        W85226   2.903  27.638   4.694
23773W        W85227  35.053  43.934   4.196
23774W        W85228  34.464  38.842   4.215
23775W        W85229  24.976  22.122  13.966
23776W        W85230  10.836  34.879  14.977
23777W        W85231  19.175  43.934   0.767
23778W        W85232   6.200  42.490  13.518
23779W        W85233   7.858  29.524  11.919
23780W        W85234  32.927  14.143   2.402
23781W        W85235   5.925  33.606  14.014
23782W        W85236  22.676   0.294   1.720
23783W        W85237  28.054  43.932  14.956
23784W        W85238  31.601  20.037   3.640
23785W        W85239  29.938   2.721   1.330
23786W        W85240  25.595  29.088   3.782
23787W        W85241  33.587  14.758  12.087
23788W        W85242  20.182  42.339  12.359
23789W        W85243   7.302  34.914  14.463
23790W        W85244  34.897   3.878   0.323
23791W        W85245  34.396  13.181  11.102
23792W        W85246  10.640   4.800   0.728
23793W        W85247  17.290  15.232  10.890
23794W        W85248  19.778  25.048   4.300
23795W        W85249   9.782  40.485   3.332
23796W        W85250   5.763  10.866   1.252
23797W        W85251  33.088   8.297  11.560
23798W        W85252  22.009  35.925   1.877
23799W        W85253  35.008  37.465  10.081
23800W        W85254   9.372   6.214   4.142
23801W        W85255  38.881   6.722   2.377
23802W        W85256  41.810  12.823  12.035
23803W        W85257  43.768   5.214   3.340
23804W        W85258  18.722  22.744   0.320
23805W        W85259  11.241  41.033   1.348
23806W        W85260  17.099  40.904  10.428
23807W        W85261  39.469  34.402  13.977
23808W        W85262  15.741  11.801   0.362
23809W        W85263  20.259  34.893   0.965
23810W        W85264  13.600  24.629  12.855
23811W        W85265   3.226  42.298   0.903
23812W        W85266  10.760   2.733   0.336
23813W        W85267  29.428   5.759  11.416
23814W        W85268   0.786  44.268   5.283
23815W        W85269  15.308   0.931  12.448
23816W        W85270  37.860  31.140  11.968
23817W        W85271  30.137  43.850  12.388
23818W        W85272   8.199  16.114  14.406
23819W        W85273  18.782  43.008  14.796
23820W        W85274  33.452   6.775   4.835
23821W        W85275  13.644  14.101   2.773
23822W        W85276  43.990  37.038  14.945
23823W        W85277  43.448  24.973   2.823
23824W        W85278  18.652  12.677  11.437
23825W        W85279  36.080  37.367   4.651
23826W        W85280  20.754  43.802  13.889
23827W        W85281  15.756  35.568   1.333
23828W        W85282   4.324  41.480  12.997
23829W        W85283   4.728  25.563  11.487
23830W        W85284  19.543  13.659  10.599
23831W        W85285  14.676  31.986  14.760
23832W        W85286   2.936   3.878  10.555
23833W        W85287  21.522   6.747  12.015
23834W        W85288  23.240  11.198   4.330
23835W        W85289  41.982  13.802   3.710
23836W        W85290  33.946   2.255  14.797
23837W        W85291   8.793  37.936   2.412
23838W        W85292  40.474  19.276  10.538
23839W        W85293   6.327  19.569  11.565
23840W        W85294  28.471  10.716   0.361
23841W        W85295  25.996  32.067   2.307
23842W        W85296   9.162  31.635  12.357
23843W        W85297  37.393  24.109  11.588
23844W        W85298   1.326  15.590  10.051
23845W        W85299  44.758   8.767   1.250
23846W        W85300   0.484   3.447   1.389
23847W        W85301  28.620  26.008  14.020
23848W        W85302  41.521  14.113   2.258
23849W        W85303  17.659  16.738   4.122
23850W        W85304  23.013  25.000   1.923
23851W        W85305  31.583  41.892   0.870
23852W        W85306  27.597  31.935  10.484
23853W        W85307  35.602  28.050  13.339
23854W        W85308  11.801  43.481  10.906
23855W        W85309   5.250  39.444   4.229
23856W        W85310  30.003  29.602  12.371
23857W        W85311  34.451  28.588  11.515
23858W        W85312  38.451  10.326   1.847
23859W        W85313  13.158  10.748  12.545
23860W        W85314  34.010  34.973   2.266
23861W        W85315  10.772  40.312  11.503
23862W        W85316  15.322  10.354   9.667
23863W        W85317  24.108  30.491   1.904
23864W        W85318   6.845  40.348   4.760
23865W        W85319  39.539  23.495  13.394
23866W        W85320  31.549  11.659  11.414
23867W        W85321  35.920  11.338   4.244
23868W        W85322  33.453  19.200  14.966
23869W        W85323   2.873   9.849  11.602
23870W        W85324  25.565  23.534  12.384
23871W        W85325  15.702   2.440   4.318
23872W        W85326   6.800  33.040   0.914
23873W        W85327  43.455  42.470  13.483
23874W        W85328  40.346  25.066  14.771
23875W        W85329  38.887   9.370   0.442
23876W        W85330  43.394  38.424  13.825
23877W        W85331   8.705  12.632  13.952
23878W        W85332  28.676   7.844  12.455
23879W        W85333   5.211  34.379   2.730
23880W        W85334   0.268  44.332  14.467
23881W        W85335  28.505  13.279  14.299
23882W        W85336  42.407   1.950  12.023
23883W        W85337  14.157   9.321   4.779
23884W        W85338  21.599   5.762   3.711
23885W        W85339  14.812  29.633   4.271
23886W        W85340  13.163  14.329   1.800
23887W        W85341  14.799  36.084   0.965
23888W        W85342  24.105  27.016  12.948
23889W        W85343   1.884  38.827   0.739
23890W        W85344  42.797   1.774   3.175
23891W        W85345  11.159   8.778   2.268
23892W        W85346  34.543  19.117  11.024
23893W        W85347  32.600  28.097   1.235
23894W        W85348   3.360  10.302  13.925
23895W        W85349  16.629   6.884   2.419
23896W        W85350  26.050  13.733   2.248
23897W        W85351   6.888   7.402   3.761
23898W        W85352   8.712  18.566  13.020
23899W        W85353  37.949   2.784   3.243
23900W        W85354  40.924  12.687   2.365
23901W        W85355   5.906   2.848  13.499
23902W        W85356  37.394  26.486   3.788
23903W        W85357  14.626  42.468  14.316
23904W        W85358  20.040  23.127   2.318
23905W        W85359   9.645  36.081   3.341
23906W        W85360  27.963  21.035   0.775
23907W        W85361   7.259  16.788   3.784
23908W        W85362  40.327  42.879   2.867
23909W        W85363   5.696  39.968  13.997
23910W        W85364  38.994  33.070   1.702
23911W        W85365  25.573   5.194   0.304
23912W        W85366  30.547  29.425  12.519
23913W        W85367  29.947  17.227   2.200
23914W        W85368  42.484  42.465  14.927
23915W        W85369  39.940  42.368  14.842
23916W        W85370  29.117  38.440  13.495
23917W        W85371   7.893  40.896  11.536
23918W        W85372  19.090  38.032   3.749
23919W        W85373  19.771  25.058  14.902
23920W        W85374  15.194   1.800   3.296
23921W        W85375  40.316  43.422   3.802
23922W        W85376  21.138  16.659   2.770
23923W        W85377  18.684   1.924   4.286
23924W        W85378  26.112   1.754   2.292
23925W        W85379  33.056  23.576   1.277
23926W        W85380   4.795  15.605  11.584
23927W        W85381  29.523  34.509   4.615
23928W        W85382  27.483  11.153  12.409
23929W        W85383   0.373  30.915  13.444
23930W        W85384  14.109  44.901   0.455
23931W        W85385  22.534   3.739  13.517
23932W        W85386   9.331  24.639  11.599
23933W        W85387   6.775  44.894   0.255
23934W        W85388  36.935   5.374  12.340
23935W        W85389  32.944  30.001  14.027
23936W        W85390  12.798  12.232  14.393
23937W        W85391  21.753  29.621   2.374
23938W        W85392   6.189  17.277   4.601
23939W        W85393  10.855  14.227   3.285
23940W        W85394  16.277  11.761  10.891
23941W        W85395  14.757  20.132  13.521
23942W        W85396  14.716   5.857  14.909
23943W        W85397   5.241  29.645   1.869
23944W        W85398  40.519  22.532  10.593
23945W        W85399   5.266  25.498  11.900
23946W        W85400  13.295  22.149  13.969
23947W        W85401  14.758  31.567   0.430
23948W        W85402   2.877  10.695   4.123
23949W        W85403  18.571  40.311  10.428
23950W        W85404   9.295  34.610  11.056
23951W        W85405  29.001  25.154  12.429
23952W        W85406  32.403  12.119   2.212
23953W        W85407   4.901  38.028  11.427
23954W        W85408  35.470  18.216   1.932
23955W        W85409  17.081  42.840   4.833
23956W        W85410  23.569  30.452  14.308
23957W        W85411  27.510  41.797   1.714
23958W        W85412  34.979  27.957  11.025
23959W        W85413  31.993   6.698  13.908
23960W        W85414   6.293  20.227  10.413
23961W        W85415  17.258  30.998  12.829
23962W        W85416  43.356  41.320   2.895
23963W        W85417  34.908  30.945  13.361
23964W        W85418  29.427  23.208  12.833
23965W        W85419  29.017   8.252   1.351
23966W        W85420  14.732  10.770   2.821
23967W        W85421  43.415  23.135  12.069
23968W        W85422  14.231  24.012  10.544
23969W        W85423  26.558  28.145   5.257
23970W        W85424  20.673  22.678  11.877
23971W        W85425  28.150   7.827  10.075
23972W        W85426   5.215   9.197  13.423
23973W        W85427  26.595  10.244   2.795
23974W        W85428   4.938  19.162  13.458
23975W        W85429   3.750   1.925  12.525
23976W        W85430   3.221  22.626   0.730
23977W        W85431  23.217  27.060  13.874
23978W        W85432  12.845   1.360  14.486
23979W        W85433  42.903  42.515   3.764
23980W        W85434  21.518  18.642  11.868
23981W        W85435  24.607  27.683  12.576
23982W        W85436   5.899  21.680   1.267
23983W        W85437  23.991  20.549  12.827
23984W        W85438  25.060   0.306  12.969
23985W        W85439  39.061  42.347  14.824
23986W        W85440   2.787  39.341  11.519
23987W        W85441  10.738  18.694  12.973
23988W        W85442  44.326  27.050   0.414
23989W        W85443  30.522  40.510  12.459
23990W        W85444  10.242   3.418  13.807
23991W        W85445  21.172   5.863   2.391
23992W        W85446  43.308  44.317   4.177
23993W        W85447  44.842  27.521   0.791
23994W        W85448   0.366  31.030  10.474
23995W        W85449  41.851  17.607  10.485
23996W        W85450   7.385   3.844   1.845
23997W        W85451  41.350  31.971  11.477
23998W        W85452  27.117  18.696   1.732
23999W        W85453  41.469  31.137   2.701
24000W        W85454  37.843  11.843   2.718
24001W        W85455  34.440   4.353   1.378
24002W        W85456   1.279  17.714   0.478
24003W        W85457   2.891   6.831   1.763
24004W        W85458  31.614  26.056   3.781
24005W        W85459   4.390  12.153  14.506
24006W        W85460  39.498  16.722  13.359
24007W        W85461   4.939  22.082  10.457
24008W        W85462   7.684   9.310   3.238
24009W        W85463  10.209  35.030  13.436
24010W        W85464  43.469  17.277  13.855
24011W        W85465  39.555  36.998   2.779
24012W        W85466  31.998  35.601   2.209
24013W        W85467  36.453   6.822   1.222
24014W        W85468  33.028   6.407   4.686
24015W        W85469  23.666   3.896  13.355
24016W        W85470  34.883  31.478  14.334
24017W        W85471  31.103   6.375  12.515
24018W        W85472  27.506  33.433  13.508
24019W        W85473  32.537   3.828   3.349
24020W        W85474  28.620  31.075   4.327
24021W        W85475   9.273  17.243  10.040
24022W        W85476  22.665  10.715   1.801
24023W        W85477  39.465  30.995   2.725
24024W        W85478  15.808   2.381  11.507
24025W        W85479  15.796  42.485   4.228
24026W        W85480   0.927  14.710  10.927
24027W        W85481  38.539   3.790   0.323
24028W        W85482  11.347  17.609   5.318
24029W        W85483  13.282   3.434   2.880
24030W        W85484   8.668  22.069   3.229
24031W        W85485   6.693  17.627   4.814
24032W        W85486   0.935  35.438   3.749
24033W        W85487  44.404  35.554   1.360
24034W        W85488   8.730   1.296   4.694
24035W        W85489   4.872  21.052  12.433
24036W        W85490   4.330  35.934   0.249
24037W        W85491   2.471   0.352  11.061
24038W        W85492  33.595  22.032   4.147
24039W        W85493   7.307  28.551   4.314
24040W        W85494  20.651   2.777   0.250
24041W        W85495   1.761   8.390   2.301
24042W        W85496  32.018  33.501   4.711
24043W        W85497  28.043  36.882   3.648
24044W        W85498   9.219  13.280  10.542
24045W        W85499  25.968  14.273   1.860
24046W        W85500  39.947  12.359  13.509
24047W        W85501  30.916  10.646   3.751
24048W        W85502  12.784  14.094   2.676
24049W        W85503  44.438  23.081   1.368
24050W        W85504  15.809  33.503   4.332
24051W        W85505  23.631  20.194   4.131
24052W        W85506  35.429   4.235   1.756
24053W        W85507  41.487  20.094   2.867
24054W        W85508  35.443   9.294   1.252
24055W        W85509  12.711  25.161  10.443
24056W        W85510  38.865  13.195   0.904
24057W        W85511   2.393  14.831   4.229
24058W        W85512  28.560  18.274  14.793
24059W        W85513  37.427   7.759  13.526
24060W        W85514   0.386  35.412  13.507
24061W        W85515   9.325  41.803  10.960
24062W        W85516  12.336   7.786   4.723
24063W        W85517  22.552  21.605  11.491
24064W        W85518   7.844  36.035   0.243
24065W        W85519  25.125   5.872  14.004
24066W        W85520  27.484   9.780   1.242
24067W        W85521  17.584  36.004   4.332
24068W        W85522  20.069  24.016  10.491
24069W        W85523  26.499  43.322   4.823
24070W        W85524  41.342  22.071  11.974
24071W        W85525  11.769  30.113   3.315
24072W        W85526  16.093   2.467   4.828
24073W        W85527   7.204   7.677   2.897
24074W        W85528  37.446  43.288  13.821
24075W        W85529   4.254   9.338  13.493
24076W        W85530   2.966  15.217  13.905
24077W        W85531   5.320  35.869  11.054
24078W        W85532   6.354  42.828  12.976
24079W        W85533   3.760  39.397  13.385
24080W        W85534  20.544  38.940   1.739
24081W        W85535  23.619  23.036   2.773
24082W        W85536  37.924  41.323   4.815
24083W        W85537  28.595  40.937  11.600
24084W        W85538  41.311  28.929   0.779
24085W        W85539  38.823  20.540   1.444
24086W        W85540  25.132  17.077  11.068
24087W        W85541  33.068  31.897   3.270
24088W        W85542  15.582  34.081  11.508
24089W        W85543  13.839   3.348  11.874
24090W        W85544   6.813  25.534   3.744
24091W        W85545  43.911   3.854   4.756
24092W        W85546  43.873  19.121   4.681
24093W        W85547  29.562  42.007   2.715
24094W        W85548   5.258  22.141   3.762
24095W        W85549  33.086   2.740  14.507
24096W        W85550  15.313   9.339   2.833
24097W        W85551  13.339  32.019  13.496
24098W        W85552   8.292   8.669  14.926
24099W        W85553  24.586  18.173   0.397
24100W        W85554  33.069   8.256  13.411
24101W        W85555  16.643  15.759   2.344
24102W        W85556  10.367  38.952  14.911
24103W        W85557   9.757  44.457   4.737
24104W        W85558  10.815   5.347  12.356
24105W        W85559  12.816  43.888   0.296
24106W        W85560   2.940  27.121   2.781
24107W        W85561  22.008   8.402   9.969
24108W        W85562  33.469  39.527  14.453
24109W        W85563   4.306  28.961   3.234
24110W        W85564  26.620  39.386   1.301
24111W        W85565  22.139   5.756   0.769
24112W        W85566  20.607  41.491   2.794
24113W        W85567  24.604  43.323  12.561
24114W        W85568   8.284  15.254   1.323
24115W        W85569  15.221   3.804   2.236
24116W        W85570   2.229  42.855  10.481
24117W        W85571  23.585  35.091   3.234
24118W        W85572   2.360  31.491  13.348
24119W        W85573  17.080  21.656  14.415
24120W        W85574  15.262  40.824   5.179
24121W        W85575  11.710  32.136   4.722
24122W        W85576   0.979  28.560  13.832
24123W        W85577  31.404  17.146  14.420
24124W        W85578   9.791   6.900  11.032
24125W        W85579  11.180  33.448  14.505
24126W        W85580   1.380  22.184   4.745
24127W        W85581   3.864   3.798   1.398
24128W        W85582  18.730  36.863  13.841
24129W        W85583  30.579  10.247  14.438
24130W        W85584  29.549  28.553   2.896
24131W        W85585  36.534  33.011   2.416
24132W        W85586  43.817  28.620   4.210
24133W        W85587   0.462   5.747   4.243
24134W        W85588   0.894  34.374  13.833
24135W        W85589   8.886  41.371   0.789
24136W        W85590  42.416   7.711  11.937
24137W        W85591  37.977  27.953   9.920
24138W        W85592  36.389   4.716  14.899
24139W        W85593   2.842  11.669   2.879
24140W        W85594  25.182   1.476   9.928
24141W        W85595   8.829  39.821  11.988
24142W        W85596  21.150  29.018   1.917
24143W        W85597  38.920  22.641   5.144
24144W        W85598  37.346  35.589   1.270
24145W        W85599  21.526  35.029   1.702
24146W        W85600  38.831  24.500   4.270
24147W        W85601  22.544  15.280  13.392
24148W        W85602  22.999   8.274  12.867
24149W        W85603   3.220  20.246  14.760
24150W        W85604  22.567   2.843   2.183
24151W        W85605  39.871   3.271   1.826
24152W        W85606  35.084  27.180   0.844
24153W        W85607  10.269  34.003  14.369
24154W        W85608   6.369   4.415  10.530
24155W        W85609  35.991  28.446   2.830
24156W        W85610  28.635  31.070   4.771
24157W        W85611  38.859  28.671   0.942
24158W        W85612  16.810  17.716  11.976
24159W        W85613  36.933   3.874  12.455
24160W        W85614  22.187  31.136  13.484
24161W        W85615  34.004  10.771   1.401
24162W        W85616  19.642   8.724  13.484
24163W        W85617  32.085   9.667   2.749
24164W        W85618  14.659  20.188  14.945
24165W        W85619  44.914  11.793   4.186
24166W        W85620  22.086  11.640   0.359
24167W        W85621  11.839   8.691   4.122
24168W        W85622   1.740  22.692  13.358
24169W        W85623  26.590  41.507  12.555
24170W        W85624   8.166   9.209   2.676
24171W        W85625   6.296   1.965  11.101
24172W        W85626  41.429   5.383   1.876
24173W        W85627  38.444  22.022  14.985
24174W        W85628   2.324  22.027  13.851
24175W        W85629  34.080  21.237   1.734
24176W        W85630  43.865  24.677   4.677
24177W        W85631  37.424  19.178  12.570
24178W        W85632  13.726   0.790   2.693
24179W        W85633  18.731   4.771  10.428
24180W        W85634  36.498   1.962   2.277
24181W        W85635   5.790  34.113  14.927
24182W        W85636  17.574  18.587  14.997
24183W        W85637  31.599  18.762  12.997
24184W        W85638   6.778  12.639   1.374
24185W        W85639  25.190  11.799   0.378
24186W        W85640  42.811  10.779  14.764
24187W        W85641   8.405  27.127   2.412
24188W        W85642   2.822   2.449  14.857
24189W        W85643  17.260   3.885   1.279
24190W        W85644  24.101  40.343  11.584
24191W        W85645  44.919  21.618  13.469
24192W        W85646  32.434   6.398  12.074
24193W        W85647  31.637  20.581  13.881
24194W        W85648  29.445  11.729  12.401
24195W        W85649   6.300  15.098   4.616
24196W        W85650  38.482  20.588  10.509
24197W        W85651  29.930  35.065   0.372
24198W        W85652  30.961  39.375   0.379
24199W        W85653  24.600  30.421   1.291
24200W        W85654  20.574   6.250   4.120
24201W        W85655  40.473  26.653   4.323
24202W        W85656   2.396  26.100  12.490
24203W        W85657  24.677  27.969   2.379
24204W        W85658   5.754  18.181   0.482
24205W        W85659  24.547  14.792  11.943
24206W        W85660  34.887  29.560   1.808
24207W        W85661  34.554  23.728   1.284
24208W        W85662  17.633  32.503  14.835
24209W        W85663  23.113  22.104  13.876
24210W        W85664  22.010  24.156  10.957
24211W        W85665  13.342  40.944   2.226
24212W        W85666  24.623  32.587   2.874
24213W        W85667  40.818  40.029   2.891
24214W        W85668  32.540   6.827   3.344
24215W        W85669  40.372   9.660  14.768
24216W        W85670  37.512  35.517  11.001
24217W        W85671   2.876  31.149  12.543
24218W        W85672  20.059   9.697   3.254
24219W        W85673  18.119  42.382  13.860
24220W        W85674   4.876  11.679   1.889
24221W        W85675  24.526  26.610   0.883
24222W        W85676  29.570  26.985   3.266
24223W        W85677  44.452   4.839  13.861
24224W        W85678  17.289   3.246  10.089
24225W        W85679   7.902  15.626   2.720
24226W        W85680  15.324  23.219  14.807
24227W        W85681   3.918  41.874   4.318
24228W        W85682  27.008  11.174   1.336
24229W        W85683  34.529  18.544  11.093
24230W        W85684  39.813   7.171  12.930
24231W        W85685   5.933  19.070  12.439
24232W        W85686  19.272  28.467   2.672
24233W        W85687  21.724  31.618   1.255
24234W        W85688  37.499  37.458  11.023
24235W        W85689  19.629  24.535  12.932
24236W        W85690   6.841   9.241  11.547
24237W        W85691  20.212  31.522  10.590
24238W        W85692  29.122  10.246  11.437
24239W        W85693  31.445  16.209   0.761
24240W        W85694  38.368   2.806   3.180
24241W        W85695  28.490  36.963  13.045
24242W        W85696  44.396   1.897  14.797
24243W        W85697  33.988  19.125  13.801
24244W        W85698   7.786   2.284  13.951
24245W        W85699   6.228  43.900   2.666
24246W        W85700   0.448  38.331  12.433
24247W        W85701   5.908  41.369   3.366
24248W        W85702  36.060  44.943   4.129
24249W        W85703  39.837  35.078   1.297
24250W        W85704  30.483  31.925  13.522
24251W        W85705  44.457  43.492  14.290
24252W        W85706  42.855  27.196   2.187
24253W        W85707  23.146   8.674  14.440
24254W        W85708  30.429  25.962  11.031
24255W        W85709   0.970   6.841  14.860
24256W        W85710   7.207  30.542  12.871
24257W        W85711  28.157  26.591  11.457
24258W        W85712   1.433   5.751  14.447
24259W        W85713  16.132   9.362   4.649
24260W        W85714   1.899  34.429  11.055
24261W        W85715  13.698  34.451   4.184
24262W        W85716  35.367   0.401   4.746
24263W        W85717  17.210  17.658  13.000
24264W        W85718   6.692  25.545  13.963
24265W        W85719  18.639  25.713   3.294
24266W        W85720  15.797  17.074  14.965
24267W        W85721  32.081  32.966  12.873
24268W        W85722  33.505  12.628  11.962
24269W        W85723   5.784  14.196   3.324
24270W        W85724  40.807   4.767   0.399
24271W        W85725  19.541  39.925   1.787
24272W        W85726  42.361   4.436   0.458
24273W        W85727  31.632  16.807  11.555
24274W        W85728  31.405  36.874   3.365
24275W        W85729  41.007   1.343  11.489
24276W        W85730  13.320  38.056  10.634
24277W        W85731  28.009   6.242  11.523
24278W        W85732   7.693  27.606  10.418
24279W        W85733  16.686  31.480   2.188
24280W        W85734  37.068  16.106  10.901
24281W        W85735  20.075  26.069  11.886
24282W        W85736  34.100  22.185  11.610
24283W        W85737  20.253   5.783   5.614
24284W        W85738  12.240  33.053  12.949
24285W        W85739  22.188   6.414   0.920
24286W        W85740  28.526  16.590  10.564
24287W        W85741  27.637   1.451  14.501
24288W        W85742  39.963  26.466   2.856
24289W        W85743  21.514   3.775  14.361
24290W        W85744   6.866  41.481   1.816
24291W        W85745  34.444   9.694  12.085
24292W        W85746  38.032  25.060   4.147
24293W        W85747   3.360  41.410  13.384
24294W        W85748   6.311  37.439  10.988
24295W        W85749  13.164  11.255  11.459
24296W        W85750   7.873   3.952   3.293
24297W        W85751  14.098   4.861  12.559
24298W        W85752  32.528  15.649   3.808
24299W        W85753  10.715  39.972  14.995
24300W        W85754  32.141  15.657  10.533
24301W        W85755   9.316  44.998  14.403
24302W        W85756  36.053  15.130  14.892
24303W        W85757  29.510  12.316   0.418
24304W        W85758  25.158  14.788  12.464
24305W        W85759  34.906  33.415  12.389
24306W        W85760   5.924  16.311   4.817
24307W        W85761  44.263  32.948   3.774
24308W        W85762   3.867  16.652  14.313
24309W        W85763  43.770  38.513  10.473
24310W        W85764  25.670  31.540   4.836
24311W        W85765  23.034  18.198   4.261
24312W        W85766   9.734   4.439   0.734
24313W        W85767  37.067  32.497  14.387
24314W        W85768  20.046  33.609  13.411
24315W        W85769  37.541   4.923   3.195
24316W        W85770  10.242  26.147   2.225
24317W        W85771  19.713  43.404  10.546
24318W        W85772  26.025  30.082  12.934
24319W        W85773  41.347  15.251  11.101
24320W        W85774  19.745  23.550  12.069
24321W        W85775   3.873   6.208   3.206
24322W        W85776  36.452  33.124   0.331
24323W        W85777  13.763  18.649  11.531
24324W        W85778  37.952   9.775  14.879
24325W        W85779  27.672   4.880   4.211
24326W        W85780  16.184  37.012  13.935
24327W        W85781  42.778  32.582  14.903
24328W        W85782  12.619  22.151   1.242
24329W        W85783   9.290  38.376  13.893
24330W        W85784  32.477  29.510  12.464
24331W        W85785  22.130   6.824   2.803
24332W        W85786  40.462  33.566  13.488
24333W        W85787  35.455  21.157   4.182
24334W        W85788  44.836  35.017  14.343
24335W        W85789  33.546  42.438   0.439
24336W        W85790   5.839  22.653   3.319
24337W        W85791  15.616  21.237  11.394
24338W        W85792   6.218   5.193   2.776
24339W        W85793  13.796  21.636  11.504
24340W        W85794   7.274  16.270   4.617
24341W        W85795  11.342  40.406   9.937
24342W        W85796  40.004  20.242  12.379
24343W        W85797  25.050  12.746   4.835
24344W        W85798  27.151  29.969  11.877
24345W        W85799  30.125  10.267  13.983
24346W        W85800  26.692  32.472  14.816
24347W        W85801  37.035  35.545   1.215
24348W        W85802  29.424  23.231  13.838
24349W        W85803   7.230  17.158   2.807
24350W        W85804   3.379  36.374   3.847
24351W        W85805  40.989  13.639  11.043
24352W        W85806   2.946  38.343  13.797
24353W        W85807  34.430   5.834  13.441
24354W        W85808   2.417  13.699  12.517
24355W        W85809  15.793   9.228   2.782
24356W        W85810  27.658  10.854  13.514
24357W        W85811  36.538   7.416   0.391
24358W        W85812  14.723  31.974  12.921
24359W        W85813   3.345   5.337   4.256
24360W        W85814  30.573   9.256  11.943
24361W        W85815   2.426  35.477  13.964
24362W        W85816  42.962  18.749  13.980
24363W        W85817  18.076  36.462  13.318
24364W        W85818   0.912   9.748   9.963
24365W        W85819  31.441   5.342  11.601
24366W        W85820  33.976  39.915   0.449
24367W        W85821  22.582  22.188   1.403
24368W        W85822  36.080   6.916   2.746
24369W        W85823   9.387  44.475   2.699
24370W        W85824  42.866  40.803  10.588
24371W        W85825  19.258   7.291  10.000
24372W        W85826  41.449  43.388  14.910
24373W        W85827  37.943  21.068  12.569
24374W        W85828  22.657  15.800  11.434
24375W        W85829  32.435   6.297  14.314
24376W        W85830  31.533  23.163   4.691
24377W        W85831  39.913  35.990  12.372
24378W        W85832   8.283  12.188   3.770
24379W        W85833  36.885  23.165  14.473
24380W        W85834   4.429  35.465   3.358
24381W        W85835   1.956  27.662   2.297
24382W        W85836  15.716  21.517  12.840
24383W        W85837   5.896  22.640  11.874
24384W        W85838  13.200  25.990   2.396
24385W        W85839  38.570  13.156   1.860
24386W        W85840   7.352  44.902   0.321
24387W        W85841   5.721  42.444   3.283
24388W        W85842  24.083   4.381   0.843
24389W        W85843  18.101  22.502   1.775
24390W        W85844  20.233   1.895  11.871
24391W        W85845   2.417  24.559  12.510
24392W        W85846  25.072  27.452  13.064
24393W        W85847  31.125  23.619  10.950
24394W        W85848  25.037   1.806  13.422
24395W        W85849  27.032  37.994  14.470
24396W        W85850  43.380  44.299   3.860
24397W        W85851   2.938  39.963   4.598
24398W        W85852  11.824  10.745   0.742
24399W        W85853  37.498  38.498   4.168
24400W        W85854  41.999  29.567   2.304
24401W        W85855   5.233  33.447  12.497
24402W        W85856  11.304  21.196   2.828
24403W        W85857  22.159  27.097   3.187
24404W        W85858  29.921   0.379   3.747
24405W        W85859   8.704  15.636  10.133
24406W        W85860  21.659  11.220   5.298
24407W        W85861  31.412  16.217  13.535
24408W        W85862   0.823   1.739   1.253
24409W        W85863  33.387   1.368  11.503
24410W        W85864  27.613   4.845   1.810
24411W        W85865  16.612   1.397   4.203
24412W        W85866  28.183  32.497   3.152
24413W        W85867  41.507  28.040  10.969
24414W        W85868   3.460  14.805   4.291
24415W        W85869  39.422  16.631  14.854
24416W        W85870  38.344  40.504  13.914
24417W        W85871  27.532  26.494   1.234
24418W        W85872  27.685  36.018   5.757
24419W        W85873  35.968  30.057  14.470
24420W        W85874  36.936   3.925   4.645
24421W        W85875   4.872   6.384  12.928
24422W        W85876  35.424  41.934   4.756
24423W        W85877  15.273   4.924  13.386
24424W        W85878  41.003  27.472   2.408
24425W        W85879  38.052  28.150  10.504
24426W        W85880  24.192  39.865  14.806
24427W        W85881   7.302  21.236   1.847
24428W        W85882   3.338   4.370  10.993
24429W        W85883   8.201  19.704   1.876
24430W        W85884  37.035  42.843  13.979
24431W        W85885  43.852  26.627  14.403
24432W        W85886  35.070  36.351  10.543
24433W        W85887  22.642  15.677  13.059
24434W        W85888  10.296   4.776   3.219
24435W        W85889  27.633   5.799   3.333
24436W        W85890  16.140  22.241   1.702
24437W        W85891   3.721  36.013  11.536
24438W        W85892  14.665  42.945   3.364
24439W        W85893  24.514  41.910  10.621
24440W        W85894  37.453  39.039  13.315
24441W        W85895  15.577   9.804  14.931
24442W        W85896  28.013  43.363  11.884
24443W        W85897  28.119  26.069  14.803
24444W        W85898  28.049  31.947  10.978
24445W        W85899  25.667  39.001  11.022
24446W        W85900  22.569  12.212   4.120
24447W        W85901  39.344   3.850   4.232
24448W        W85902  28.089  17.302  11.097
24449W        W85903   8.203  17.116  14.389
24450W        W85904  15.805  34.376  12.075
24451W        W85905   7.766   3.294  11.396
24452W        W85906  29.021  41.856   4.713
24453W        W85907  32.101  17.297  12.971
24454W        W85908  20.160  26.701  12.427
24455W        W85909  23.593  29.919   1.356
24456W        W85910  22.027  26.534   4.817
24457W        W85911  29.468  33.904  12.431
24458W        W85912   9.844   2.410   0.916
24459W        W85913  36.986  28.569   2.711
24460W        W85914   9.155  44.851  12.488
24461W        W85915   5.721  33.962  12.548
24462W        W85916  38.893  21.732   2.725
24463W        W85917  19.262  44.321   3.851
24464W        W85918  43.813  41.855   2.360
24465W        W85919  36.425   4.918   4.287
24466W        W85920  44.484  13.143  10.462
24467W        W85921  14.779  41.351   1.802
24468W        W85922  11.755  26.641  10.525
24469W        W85923   8.873   3.448   4.627
24470W        W85924  31.441   4.224  11.577
24471W        W85925   4.749  31.020  11.089
24472W        W85926  24.118   4.811  11.539
24473W        W85927  34.393  32.997   0.270
24474W        W85928  19.570   6.845  14.406
24475W        W85929   5.726  18.052  10.890
24476W        W85930   2.280  15.099  11.478
24477W        W85931  15.209  34.882  11.389
24478W        W85932   7.373  15.093   3.218
24479W        W85933  42.370  22.570   0.318
24480W        W85934  19.115  37.373   1.903
24481W        W85935   0.356  35.086   3.791
24482W        W85936  27.466  34.005   1.830
24483W        W85937  24.510  17.136  12.861
24484W        W85938  37.959  42.308   9.481
24485W        W85939  10.750  36.083  14.316
24486W        W85940  20.692  36.080  14.313
24487W        W85941  33.108  17.787   1.420
24488W        W85942   2.229   9.272  12.370
24489W        W85943  27.951   5.868   4.795
24490W        W85944  40.958   8.884   0.915
24491W        W85945   2.945  13.310  10.568
24492W        W85946  36.369  36.573   1.293
24493W        W85947  30.465   9.689  14.317
24494W        W85948  16.075  24.617  11.487
24495W        W85949  29.531   5.387   4.694
24496W        W85950  38.507   1.468   3.363
24497W        W85951  27.999  44.856   0.306
24498W        W85952  13.121  12.707  14.988
24499W        W85953  31.149  35.539   3.376
24500W        W85954  44.889  26.151  13.928
24501W        W85955   5.803  13.624   4.629
24502W        W85956  26.050  32.949  10.984
24503W        W85957  28.003  43.275   2.740
24504W        W85958  15.273  44.273  11.535
24505W        W85959   2.962  24.092   1.346
24506W        W85960  10.756  31.485   9.608
24507W        W85961  27.584  41.982  14.356
24508W        W85962  33.616   6.345   3.844
24509W        W85963  17.165   2.459   2.204
24510W        W85964  26.994  13.324  12.849
24511W        W85965  26.618  33.017   2.841
24512W        W85966  11.762  31.563   5.619
24513W        W85967   6.849  35.483  11.888
24514W        W85968  20.660  43.355   2.268
24515W        W85969  20.267  29.011   0.935
24516W        W85970   3.241  20.115  11.983
24517W        W85971   3.282  26.005  11.446
24518W        W85972   6.393  13.211   5.144
24519W        W85973  20.612  12.705   0.895
24520W        W85974  20.061  33.906  12.468
24521W        W85975   2.843  28.586  14.384
24522W        W85976  16.196  11.176  14.449
24523W        W85977   6.256  36.963   2.246
24524W        W85978  34.095  31.035  13.054
24525W        W85979  40.440  33.025   0.306
24526W        W85980   6.697  18.702  12.966
24527W        W85981  12.633  38.397   2.678
24528W        W85982  44.266   2.405   3.164
24529W        W85983  15.791  26.495  12.422
24530W        W85984  41.352  12.813   3.340
24531W        W85985  44.862  35.428  11.055
24532W        W85986  44.489  24.087   4.810
24533W        W85987  24.718  28.613   4.311
24534W        W85988  23.725  29.921  12.828
24535W        W85989   2.954  22.191  11.068
24536W        W85990   5.294  30.949  12.074
24537W        W85991  30.479  14.155  11.596
24538W        W85992  12.669  36.491  12.095
24539W        W85993   2.342   2.266  11.489
24540W        W85994   6.678   9.335  13.847
24541W        W85995  18.545  22.247   0.387
24542W        W85996  41.794  30.955   4.707
24543W        W85997  31.548  32.062  11.034
24544W        W85998   6.286  28.627   2.179
24545W        W85999   1.888  39.552  13.321
24546W        W86000   0.358  10.307  13.412
24547W        W86001  33.465  16.663  12.490
24548W        W86002  37.987   0.829   4.749
24549W        W86003  23.215  26.107   4.237
24550W        W86004  34.612   2.277   4.170
24551W        W86005  43.471  12.128  14.849
24552W        W86006  12.237  36.885  13.810
24553W        W86007  16.215  17.631   1.287
24554W        W86008  24.557   5.389   3.718
24555W        W86009  39.044  44.937  14.343
24556W        W86010  11.338  33.410   0.432
24557W        W86011   4.882  35.362   0.326
24558W        W86012  41.453  34.464   2.347
24559W        W86013  33.966  29.100   2.693
24560W        W86014  13.192  23.535  11.917
24561W        W86015   6.679   3.945  12.989
24562W        W86016  32.012  23.238   0.247
24563W        W86017   2.875  26.590   1.801
24564W        W86018  17.696  20.571  14.505
24565W        W86019  20.567  23.640  14.778
24566W        W86020   9.273   9.763  11.962
24567W        W86021  20.225  23.019  14.927
24568W        W86022  33.584  11.813   5.297
24569W        W86023  32.923  22.594  14.441
24570W        W86024  23.618  12.178   3.684
24571W        W86025   0.314  42.009   0.434
24572W        W86026  21.164   0.866  11.594
24573W        W86027  39.872  18.145   4.787
24574W        W86028  34.951  35.392  13.477
24575W        W86029   1.943  24.670   4.217
24576W        W86030  41.301   6.301  14.833
24577W        W86031   0.960  10.730  13.529
24578W        W86032   7.292  30.416   2.352
24579W        W86033   4.816  41.372   4.749
24580W        W86034   0.426  22.040  10.503
24581W        W86035  43.820   5.279   1.435
24582W        W86036   0.968  19.086   2.214
24583W        W86037  10.639  39.935   2.403
24584W        W86038  29.476  41.524   2.248
24585W        W86039  15.599  33.596  12.831
24586W        W86040   7.860  32.030   0.258
24587W        W86041  14.778  10.841  12.384
24588W        W86042  44.853   4.422   1.754
24589W        W86043   5.840  30.506   0.738
24590W        W86044  38.022  25.681  12.377
24591W        W86045   1.397   1.884  10.519
24592W        W86046  43.864  39.894  11.404
24593W        W86047   5.355  22.225  11.877
24594W        W86048  21.205  15.116  11.907
24595W        W86049  12.854  26.154  11.061
24596W        W86050  35.584  11.630  13.027
24597W        W86051  17.683  36.529  10.898
24598W        W86052  31.900  35.371   1.775
24599W        W86053  40.536  39.428   3.799
24600W        W86054   5.368  13.160  12.032
24601W        W86055  37.452  19.056   3.829
24602W        W86056  24.189  25.693   4.129
24603W        W86057  15.578  21.224   1.331
24604W        W86058  43.994  19.563   1.863
24605W        W86059  42.432  16.600  11.982
24606W        W86060  40.308  36.070   3.385
24607W        W86061   9.729  24.481  12.984
24608W        W86062   4.280  34.606   1.296
24609W        W86063  23.629  18.087  10.426
24610W        W86064   2.412  19.656  12.861
24611W        W86065   1.734  17.208  11.970
24612W        W86066   7.413   3.720   4.660
24613W        W86067  21.255  36.350   0.432
24614W        W86068  12.168   3.397   1.739
24615W        W86069  22.526  38.473  11.528
24616W        W86070  17.580  20.121   0.852
24617W        W86071   6.716  28.943  12.471
24618W        W86072  32.565  20.154   3.848
24619W        W86073  34.377  44.986   2.821
24620W        W86074  36.861   8.193  11.925
24621W        W86075  14.603  16.732   3.659
24622W        W86076   7.372   3.457   2.316
24623W        W86077  21.107  17.556   1.754
24624W        W86078   2.837  11.728   1.352
24625W        W86079  15.757   1.758   2.720
24626W        W86080   0.841  13.656   1.217
24627W        W86081  22.068  19.688   3.232
24628W        W86082   8.702   4.278   2.279
24629W        W86083   8.896  16.092   4.239
24630W        W86084  27.054  27.686   4.742
24631W        W86085  17.565   4.883   3.149
24632W        W86086  33.402  27.167   2.287
24633W        W86087  10.142  13.267  10.582
24634W        W86088  34.408  19.197   4.706
24635W        W86089  13.151  13.235  10.407
24636W        W86090  41.459  28.150   2.329
24637W        W86091   3.752  11.255  11.079
24638W        W86092  42.442  12.791   1.214
24639W        W86093  28.673   2.811   0.819
24640W        W86094   0.393  43.504   3.639
24641W        W86095  16.756  12.614   1.856
24642W        W86096  31.546  32.564   1.344
24643W        W86097  13.329  22.110   4.830
24644W        W86098   1.740  34.089  12.984
24645W        W86099  43.475  19.670   0.749
24646W        W86100  11.328  33.442  13.000
24647W        W86101  11.844  34.065   4.349
24648W        W86102  40.965  35.424   1.698
24649W        W86103  16.622  34.382  11.940
24650W        W86104  41.350  14.636   1.710
24651W        W86105   3.444  43.435  13.820
24652W        W86106  13.296  18.170   5.568
24653W        W86107  19.690  15.785   4.341
24654W        W86108  18.668  43.850   4.310
24655W        W86109   3.897  15.677   1.324
24656W        W86110  37.013  24.225   4.610
24657W        W86111  24.079  41.303  14.854
24658W        W86112  10.336  23.504  13.352
24659W        W86113   0.919  41.977   0.738
24660W        W86114  16.645  31.583  10.582
24661W        W86115   9.758  14.646  13.370
24662W        W86116  12.179  15.814   0.441
24663W        W86117   8.736  16.105  11.871
24664W        W86118  23.148  17.609  13.812
24665W        W86119   7.361  17.629  10.577
24666W        W86120  28.536  38.048   4.115
24667W        W86121  21.566  32.467   4.802
24668W        W86122  35.465   5.729  13.837
24669W        W86123   0.339   7.179  14.443
24670W        W86124  35.909  16.248   0.732
24671W        W86125  23.148  15.149  13.977
24672W        W86126  38.038  18.600   4.243
24673W        W86127  21.590  12.720   1.276
24674W        W86128  44.754   7.207   1.336
24675W        W86129  36.502  37.076  11.118
24676W        W86130  12.314  20.571   2.206
24677W        W86131  20.653  20.764  10.472
24678W        W86132  27.048  30.490   3.859
24679W        W86133   2.412  37.532  13.845
24680W        W86134  38.999  40.870   3.200
24681W        W86135  11.714  43.005   5.098
24682W        W86136   8.736  35.021   3.856
24683W        W86137  38.423  15.202   0.938
24684W        W86138   0.458  16.298  12.342
24685W        W86139   6.893  33.991  13.015
24686W        W86140  14.301  15.148  14.409
24687W        W86141  26.074   0.480  12.394
24688W        W86142   2.325  42.979  12.919
24689W        W86143   6.238   5.866   2.376
24690W        W86144  41.340  16.642  12.057
24691W        W86145  41.510  33.497   4.836
24692W        W86146  20.593  12.857  14.888
24693W        W86147  37.877   8.811   1.317
24694W        W86148  37.998   1.823  10.448
24695W        W86149  23.730  43.422   2.352
24696W        W86150  28.091   1.753   4.834
24697W        W86151  39.017  13.723  14.486
24698W        W86152   5.701  13.244   1.834
24699W        W86153  18.098  10.383   1.374
24700W        W86154  38.862  23.156  13.977
24701W        W86155  15.609  17.777   4.810
24702W        W86156  13.237  14.821   2.375
24703W        W86157  35.958  26.173  14.819
24704W        W86158  33.490  24.663  11.464
24705W        W86159  32.531  31.048   3.201
24706W        W86160  33.425   8.806  14.890
24707W        W86161  22.215   6.250   2.271
24708W        W86162   6.205  37.994   0.469
24709W        W86163   7.818  36.580  12.534
24710W        W86164  38.918  10.319   0.353
24711W        W86165  13.776   4.221  14.826
24712W        W86166  24.976   8.384  14.832
24713W        W86167   2.448  22.190  12.493
24714W        W86168  27.950  21.019  12.409
24715W        W86169  16.131  34.420   4.602
24716W        W86170  44.855  32.538   0.333
24717W        W86171  27.491  20.079  10.905
24718W        W86172  40.999   4.383  11.953
24719W        W86173  32.036  44.349  11.607
24720W        W86174  23.733  28.976  12.463
24721W        W86175  10.382  25.507  11.862
24722W        W86176  32.107  38.431   1.259
24723W        W86177  31.589  28.968  12.074
24724W        W86178   9.855  19.768   0.857
24725W        W86179  31.022  43.381  11.861
24726W        W86180   3.913  13.244   3.770
24727W        W86181  15.119  16.133  11.095
24728W        W86182   7.384  26.600   3.675
24729W        W86183  34.589  29.041  14.390
24730W        W86184  23.629  13.752   4.326
24731W        W86185  19.731  34.085  14.987
24732W        W86186  30.478  27.463  14.854
24733W        W86187   3.388  14.222   0.359
24734W        W86188  11.339   9.666  12.429
24735W        W86189  44.436  24.543   2.404
24736W        W86190  17.642  10.184   4.295
24737W        W86191  10.255   4.885  11.115
24738W        W86192   6.334  12.656   1.331
24739W        W86193  42.435  28.672  14.852
24740W        W86194  40.338  22.680  13.003
24741W        W86195  20.076  25.603   3.719
24742W        W86196  22.233  27.625   0.260
24743W        W86197  11.364  25.675  14.320
24744W        W86198  23.520  27.687  14.334
24745W        W86199  26.681   9.305   3.332
24746W        W86200   3.795   9.715   2.375
24747W        W86201  21.536  22.695   1.701
24748W        W86202  25.521  25.676   1.814
24749W        W86203  14.734  29.631   3.864
24750W        W86204  34.573  36.994   4.805
24751W        W86205  34.946   4.706   5.231
24752W        W86206  25.475  20.134   0.253
24753W        W86207  10.718  42.474  14.792
24754W        W86208   2.381   1.396  12.077
24755W        W86209   2.337  13.650  12.853
24756W        W86210  43.887  44.876  11.858
24757W        W86211  28.007   3.333  11.526
24758W        W86212  28.051  23.682  11.918
24759W        W86213   0.306   9.649  12.569
24760W        W86214  28.521  42.028   2.223
24761W        W86215  17.217  41.993  14.892
24762W        W86216  30.540  33.907  12.079
24763W        W86217   5.301   5.354   2.822
24764W        W86218  43.350  19.768  13.968
24765W        W86219  19.649  28.655   0.870
24766W        W86220   2.825  28.161   2.753
24767W        W86221  17.725   2.393  13.542
24768W        W86222  12.236  11.141   2.778
24769W        W86223  24.058  36.477  13.444
24770W        W86224  32.508  15.268   3.698
24771W        W86225  25.156  15.086  12.369
24772W        W86226  40.505  32.044   2.233
24773W        W86227  23.021  36.546   3.641
24774W        W86228  25.148  25.602  14.897
24775W        W86229  25.108  36.593   4.176
24776W        W86230   8.210   8.359   2.740
24777W        W86231  31.540  19.273   1.872
24778W        W86232   5.271  30.047   0.730
24779W        W86233   3.726  30.097  14.976
24780W        W86234  36.384  16.312   3.304
24781W        W86235  22.592  16.605  12.511
24782W        W86236  39.482  11.348  10.642
24783W        W86237  27.137  44.354  13.531
24784W        W86238  26.680  44.360   2.356
24785W        W86239  44.906  43.916  11.538
24786W        W86240  23.090  22.642   1.894
24787W        W86241  24.559   7.174   2.720
24788W        W86242  24.998  12.289   3.369
24789W        W86243  38.849  25.082  11.065
24790W        W86244   3.813  36.511   1.280
24791W        W86245  11.327  34.932  13.879
24792W        W86246  15.782  13.815   0.433
24793W        W86247   7.387  30.141   4.327
24794W        W86248  35.364   4.396   2.857
24795W        W86249   3.720  38.478   2.384
24796W        W86250  37.410   6.207  11.489
24797W        W86251  19.150  44.495  12.354
24798W        W86252  27.587  13.149   0.453
24799W        W86253  27.954  44.493   1.353
24800W        W86254   3.461  42.787   0.306
24801W        W86255  32.558  25.481   2.866
24802W        W86256  21.151  25.145  12.430
24803W        W86257   2.967   9.176   3.715
24804W        W86258   0.957  43.354   1.820
24805W        W86259  34.394  41.304  13.421
24806W        W86260  43.448  30.650  13.443
24807W        W86261  18.094  13.629   1.218
24808W        W86262   1.378  14.209  11.122
24809W        W86263   4.402   9.292   2.418
24810W        W86264  21.177   2.237  13.463
24811W        W86265   5.714   5.284  12.887
24812W        W86266  30.983  15.227  10.618
24813W        W86267  42.435  33.925   2.203
24814W        W86268  33.415  26.568   1.368
24815W        W86269  30.164  31.934  11.528
24816W        W86270  16.263   2.446  13.417
24817W        W86271  11.680  40.951  13.480
24818W        W86272  19.089  29.029   3.362
24819W        W86273  11.350  13.140   3.635
24820W        W86274  36.851  19.738  11.866
24821W        W86275   8.201  42.878  13.980
24822W        W86276  15.656  17.114   3.669
24823W        W86277  21.551  41.324  14.768
24824W        W86278   1.347   0.383  11.563
24825W        W86279  26.132   9.719   4.219
24826W        W86280  28.039  43.820   2.682
24827W        W86281  19.107  43.387  14.363
24828W        W86282  12.630   9.863  11.900
24829W        W86283  31.572   7.699  14.439
24830W        W86284  30.559  20.645  10.478
24831W        W86285  38.498  42.490   5.730
24832W        W86286  14.329  22.546   3.181
24833W        W86287  35.458  34.921  11.978
24834W        W86288  27.607   4.923   3.775
24835W        W86289  33.396  12.215   3.297
24836W        W86290  18.284   7.388  14.431
24837W        W86291  24.691   6.701  14.453
24838W        W86292  37.425  19.078   0.765
24839W        W86293  25.606  37.834   2.676
24840W        W86294   6.813  35.511   3.634
24841W        W86295  33.990  27.964  11.561
24842W        W86296  19.708  36.582  10.597
24843W        W86297  18.622  43.505  12.450
24844W        W86298   2.453  25.523   4.160
24845W        W86299  35.014  34.393  13.060
24846W        W86300  22.551   1.416   2.289
24847W        W86301   4.213  24.695  12.476
24848W        W86302  28.970   2.933   0.783
24849W        W86303  36.977  42.845   1.372
24850W        W86304   9.804   5.357   0.867
24851W        W86305  31.953   1.838   4.704
24852W        W86306  29.063  26.160   2.302
24853W        W86307  27.989  35.531   2.709
24854W        W86308  27.537  25.550  13.500
24855W        W86309  39.557  27.684  11.977
24856W        W86310  10.686   4.883   0.481
24857W        W86311  36.092  12.648   0.339
24858W        W86312  42.894  11.230   0.266
24859W        W86313  21.568   3.901  12.984
24860W        W86314   4.794  26.985  14.484
24861W        W86315  33.389   1.261   4.712
24862W        W86316  38.852  16.145   0.770
24863W        W86317   1.320  39.959   3.700
24864W        W86318   0.396   5.722   3.363
24865W        W86319  32.555  11.816   2.680
24866W        W86320  11.753  41.347  14.831
24867W        W86321  19.277  42.807  12.967
24868W        W86322   0.247  41.831  10.448
24869W        W86323   7.910  17.614  11.395
24870W        W86324  17.087  20.184   1.852
24871W        W86325  42.500   1.354   0.742
24872W        W86326   7.337  39.320   1.732
24873W        W86327   6.259   1.735   4.256
24874W        W86328   3.920  38.986  12.915
24875W        W86329  34.874  29.986  13.307
24876W        W86330   1.800  27.613  12.826
24877W        W86331  42.947  36.990   3.757
24878W        W86332  14.259  11.797  14.791
24879W        W86333  35.595  10.262   0.321
24880W        W86334  42.451  22.040  13.920
24881W        W86335   9.851  10.777   2.233
24882W        W86336  44.392  40.913   0.423
24883W        W86337  14.109   0.775  12.827
24884W        W86338   1.878  19.578  10.417
24885W        W86339  40.924  31.024  14.965
24886W        W86340  35.916  39.884  10.093
24887W        W86341  37.877   2.939   1.802
24888W        W86342   2.376  42.331  12.470
24889W        W86343  28.502  27.177  11.461
24890W        W86344  40.349  24.698  11.967
24891W        W86345   8.707   0.835   4.172
24892W        W86346   4.894  39.002   1.798
24893W        W86347   2.846  28.017   4.802
24894W        W86348  42.782   4.885  14.397
24895W        W86349   3.407  20.743  10.426
24896W        W86350   7.748  39.418  13.013
24897W        W86351  31.492  36.554  13.379
24898W        W86352   9.788  33.952   2.807
24899W        W86353  25.576   1.758   2.902
24900W        W86354  29.122  28.075  10.128
24901W        W86355  11.693  22.558  10.452
24902W        W86356  23.237  27.679   4.741
24903W        W86357  11.333   8.733   1.381
24904W        W86358   2.362  42.953  11.510
24905W        W86359   7.762   3.353   4.713
24906W        W86360  13.725   9.787  14.004
24907W        W86361  31.039  18.050   0.967
24908W        W86362   6.289  26.548   3.849
24909W        W86363  19.710  43.959   3.261
24910W        W86364  36.059   7.817   1.430
24911W        W86365  30.541  42.990   1.779
24912W        W86366  31.949   4.328   2.366
24913W        W86367  23.700  22.540  10.635
24914W        W86368  43.306   5.226  10.623
24915W        W86369  26.541  32.537   2.762
24916W        W86370   7.837  27.062   0.809
24917W        W86371  39.961   0.947  12.858
24918W        W86372  17.604  22.519   3.239
24919W        W86373  20.095   0.486  10.968
24920W        W86374  16.294  14.121  14.297
24921W        W86375   1.372  22.231  12.484
24922W        W86376  43.426  37.435  12.967
24923W        W86377  37.346   9.369   1.820
24924W        W86378  41.454  38.393   4.754
24925W        W86379  30.164  33.467  11.375
24926W        W86380  17.734   1.807   4.129
24927W        W86381  25.018  38.421  12.447
24928W        W86382  11.774  23.546   1.889
24929W        W86383  31.992  34.069   2.337
24930W        W86384   7.388  18.157  11.483
24931W        W86385  12.151  13.279  14.905
24932W        W86386   2.758   4.825  14.403
24933W        W86387   9.781  34.522  13.863
24934W        W86388  30.979  31.521   1.740
24935W        W86389  13.650  27.638  12.533
24936W        W86390  38.900  21.205  14.369
24937W        W86391   2.825  13.636   4.824
24938W        W86392  35.515  25.606  13.845
24939W        W86393  22.246  19.682   4.630
24940W        W86394  11.316  15.129  13.905
24941W        W86395  42.925  19.071   0.450
24942W        W86396  10.808  11.350   1.311
24943W        W86397  37.982  34.523   3.851
24944W        W86398   6.353  14.313  11.074
24945W        W86399  23.071   0.453  11.973
24946W        W86400  33.534  31.435  13.808
24947W        W86401  16.153  18.224  14.439
24948W        W86402   9.794  23.213   3.869
24949W        W86403  39.436  10.749  10.496
24950W        W86404  31.116  26.118   4.717
24951W        W86405  34.515  36.084   1.415
24952W        W86406  12.151   0.949  11.859
24953W        W86407  31.533  10.781  14.359
24954W        W86408  38.407  10.644   2.269
24955W        W86409  27.668   6.694   2.314
24956W        W86410   2.755  19.772   2.903
24957W        W86411   6.682   0.895   0.936
24958W        W86412   9.327  29.650   0.876
24959W        W86413  25.510  42.814  12.068
24960W        W86414  39.444  22.721   1.256
24961W        W86415  39.436  20.096   1.262
24962W        W86416  28.025  17.165   4.279
24963W        W86417  19.132  34.040   4.222
24964W        W86418  40.028  39.473  14.496
24965W        W86419  25.495  43.321   2.413
24966W        W86420  10.361  19.133   9.502
24967W        W86421  38.353   9.308  11.593
24968W        W86422  13.173   0.858  14.415
24969W        W86423  17.583   2.924   1.315
24970W        W86424  30.163  40.314  12.485
24971W        W86425  28.085   6.371   4.654
24972W        W86426  14.151  14.833  13.980
24973W        W86427  38.538  38.927   2.871
24974W        W86428   4.742   1.886   1.378
24975W        W86429   3.252  35.471  13.882
24976W        W86430  40.000  25.009  14.439
24977W        W86431  28.183  16.703  10.020
24978W        W86432  42.876  13.828  13.814
24979W        W86433  23.135  12.282   0.784
24980W        W86434  43.854  18.771   1.381
24981W        W86435   1.458  26.209   4.788
24982W        W86436   7.909  29.621  14.301
24983W        W86437  17.209  30.659  11.111
24984W        W86438  22.210  38.884   2.362
24985W        W86439   0.835  12.285   0.864
24986W        W86440  15.260  32.467   4.767
24987W        W86441   4.237  17.178   2.210
24988W        W86442  10.151  44.282  13.017
24989W        W86443  26.975  20.725   3.300
24990W        W86444  40.001  25.660  11.908
24991W        W86445  35.501  12.836  14.789
24992W        W86446  38.851   3.796   3.308
24993W        W86447  32.494  42.437  13.869
24994W        W86448  28.522   8.699  12.892
24995W        W86449  26.694  13.622  12.488
24996W        W86450  20.217   3.372  14.344
24997W        W86451   2.286  10.838  13.887
24998W        W86452   8.889  21.061  14.897
24999W        W86453  32.033   5.236  11.397
25000W        W86454  30.135  16.612   1.847
25001W        W86455  34.925  43.273   4.331
25002W        W86456  41.317  24.599  14.772
25003W        W86457  41.877   2.953   3.341
25004W        W86458  42.833   5.822  14.454
25005W        W86459  13.304  26.042   0.403
25006W        W86460   5.708  24.641   4.323
25007W        W86461  26.987   3.429  14.015
25008W        W86462  33.587  10.140  11.507
25009W        W86463  21.187  41.406  11.534
25010W        W86464  43.965  22.503  14.995
25011W        W86465  18.253  26.545  10.449
25012W        W86466   5.858  21.641  14.342
25013W        W86467  42.792  11.274  10.084
25014W        W86468  21.031  13.296   2.841
25015W        W86469   6.314  28.162  11.502
25016W        W86470  33.569  43.861  14.880
25017W        W86471  38.351  15.634  10.584
25018W        W86472  32.054   2.921   4.348
25019W        W86473  41.534  14.783   2.344
25020W        W86474   1.903  36.096   4.297
25021W        W86475  27.082  21.584   1.861
25022W        W86476  21.595   9.658   1.772
25023W        W86477  26.661  43.309   4.331
25024W        W86478  29.585   4.250  10.940
25025W        W86479  40.329  32.911   4.652
25026W        W86480  16.196   3.372   4.341
25027W        W86481  26.571  24.117  11.473
25028W        W86482   3.782  24.547  14.348
25029W        W86483  36.065  16.177  10.404
25030W        W86484  24.070   3.262   0.440
25031W        W86485  16.114  42.489  10.437
25032W        W86486  28.117  43.340  14.487
25033W        W86487  24.152  27.953  12.439
25034W        W86488   8.745  38.056   0.853
25035W        W86489  32.896  28.961  12.859
25036W        W86490  37.534  32.056  10.960
25037W        W86491  41.392  39.436  10.059
25038W        W86492   7.379  43.856   4.276
25039W        W86493   5.205  33.392   1.389
25040W        W86494  11.243  22.630   1.448
25041W        W86495  43.969  14.737  12.576
25042W        W86496  28.940   6.394   3.269
25043W        W86497  30.047   4.318   5.241
25044W        W86498  10.332  34.487  11.047
25045W        W86499  27.528  33.485  10.932
25046W        W86500  38.850   5.207  13.895
25047W        W86501   8.329  32.503  14.759
25048W        W86502  22.689  39.014   4.834
25049W        W86503  32.603   1.482   1.441
25050W        W86504  27.608   2.817   0.430
25051W        W86505  14.255  10.736  11.983
25052W        W86506  18.220  39.548  12.010
25053W        W86507  15.200  27.454  14.790
25054W        W86508  30.455  33.534   2.233
25055W        W86509  16.226   3.279   1.294
25056W        W86510  33.978  25.134   1.396
25057W        W86511  21.533  40.405   3.760
25058W        W86512  40.485   3.919  10.416
25059W        W86513  42.514  35.099   2.258
25060W        W86514  25.124  20.155   0.460
25061W        W86515   9.352   3.724  12.440
25062W        W86516  22.564   7.850   2.303
25063W        W86517  15.219  25.085  11.912
25064W        W86518  12.319  17.578   4.651
25065W        W86519  14.799  25.969  11.479
25066W        W86520  18.134   7.787  12.347
25067W        W86521  10.362   7.793   3.312
25068W        W86522   7.228  33.009   0.293
25069W        W86523  11.626  41.499  11.379
25070W        W86524  22.525  43.951  12.579
25071W        W86525  37.378  20.085   0.483
25072W        W86526  12.295  34.909   1.451
25073W        W86527  35.899   4.883   2.232
25074W        W86528  30.090  23.195  12.375
25075W        W86529  18.749  38.865  14.499
25076W        W86530  42.398   5.764  12.547
25077W        W86531  20.537  12.836   4.773
25078W        W86532  17.136  17.062  13.883
25079W        W86533  31.023  20.671  12.966
25080W        W86534  41.955  19.677  11.446
25081W        W86535   8.901  32.932  12.005
25082W        W86536  22.687  10.222   3.714
25083W        W86537  30.086   0.827  14.404
25084W        W86538  38.918  15.659  13.880
25085W        W86539  13.776  34.018   0.818
25086W        W86540  12.289   1.837   0.907
25087W        W86541  31.903   5.386  12.892
25088W        W86542  22.683  22.157  11.861
25089W        W86543  38.055  23.569   1.302
25090W        W86544  39.539  44.277  10.992
25091W        W86545  42.906  39.950   3.185
25092W        W86546  22.509  19.253  13.984
25093W        W86547  32.973  16.603  13.485
25094W        W86548  40.419  27.019  12.955
25095W        W86549  36.939   1.806  14.875
25096W        W86550  23.648   8.746   0.865
25097W        W86551   3.392  29.546   4.692
25098W        W86552   1.385  16.572   2.820
25099W        W86553  36.421  15.615   5.140
25100W        W86554  44.440  37.520  14.292
25101W        W86555   7.731  31.049  14.938
25102W        W86556  29.469  39.967   1.428
25103W        W86557  17.129  30.636   1.246
25104W        W86558   3.726  12.134  14.512
25105W        W86559  18.551  28.955  13.517
25106W        W86560  13.112  30.644   2.711
25107W        W86561  20.088  13.203   1.441
25108W        W86562   0.428  10.167  12.925
25109W        W86563  29.429  20.533  14.975
25110W        W86564  21.531  25.038  10.965
25111W        W86565  32.557  32.048   3.803
25112W        W86566  14.230  26.576   0.730
25113W        W86567  41.021   2.761  14.356
25114W        W86568  29.930  26.000   1.703
25115W        W86569   3.879  17.569  13.899
25116W        W86570  39.816   1.911   2.756
25117W        W86571  25.060  42.290   2.859
25118W        W86572  17.763   2.798  14.807
25119W        W86573  40.363  14.122   4.788
25120W        W86574  38.850  19.652   3.818
25121W        W86575  15.184  25.102  11.060
25122W        W86576  43.312  22.147   0.412
25123W        W86577  26.996  13.174  11.969
25124W        W86578   7.776  17.718   3.651
25125W        W86579  35.543  17.133   0.873
25126W        W86580  36.409   5.920   2.865
25127W        W86581  40.866  36.056  11.083
25128W        W86582  32.439   3.286   0.915
25129W        W86583   0.413   4.405  13.965
25130W        W86584  11.355   8.342   2.764
25131W        W86585  39.029   9.729  12.041
25132W        W86586  19.651   6.391  14.805
25133W        W86587   9.266  20.587  11.982
25134W        W86588   3.769  17.300   1.235
25135W        W86589  39.004  14.230   1.226
25136W        W86590   8.738  11.702   1.751
25137W        W86591  40.308  11.173   4.121
25138W        W86592  24.636  40.374  11.476
25139W        W86593  37.023  21.231   0.407
25140W        W86594  12.297  19.548   3.741
25141W        W86595  23.543  23.130  13.518
25142W        W86596  18.555   7.228  14.300
25143W        W86597   2.814  43.004   3.372
25144W        W86598  32.013   6.906  10.892
25145W        W86599  41.467  33.107   1.734
25146W        W86600   7.250  11.840  13.545
25147W        W86601  10.189  15.174   2.217
25148W        W86602  14.238  38.416  11.855
25149W        W86603   4.398  35.382   1.395
25150W        W86604  22.702   3.948   2.213
25151W        W86605   1.750   4.866  12.908
25152W        W86606  26.592  29.965  14.495
25153W        W86607  30.165  14.755   4.317
25154W        W86608  37.458   3.840   4.173
25155W        W86609  43.840  26.158   2.662
25156W        W86610  43.297   9.304   0.394
25157W        W86611  17.296  30.955   2.792
25158W        W86612  15.627  13.197   3.328
25159W        W86613  24.161  25.552   1.385
25160W        W86614  40.406   6.820  14.790
25161W        W86615   1.732  15.585   3.319
25162W        W86616  14.145  37.369   2.746
25163W        W86617  33.910  13.668   0.278
25164W        W86618  26.972  16.723  11.519
25165W        W86619   5.307  37.550  10.985
25166W        W86620   0.867  10.269  12.975
25167W        W86621  42.803   6.902   1.240
25168W        W86622  41.828  34.975  14.868
25169W        W86623  16.203  10.286   3.177
25170W        W86624  27.089  22.546  11.100
25171W        W86625   6.304  15.295   0.445
25172W        W86626  16.132  36.578  12.474
25173W        W86627  31.107  35.483  10.984
25174W        W86628   5.804  38.886  14.322
25175W        W86629  42.916   3.787   3.203
25176W        W86630  38.895  31.909   0.330
25177W        W86631  33.977   5.803  11.964
25178W        W86632  28.946  44.395  14.981
25179W        W86633   6.861  19.621   3.311
25180W        W86634  37.063   0.281   3.673
25181W        W86635   2.860  13.762   0.779
25182W        W86636  20.218  16.281  11.496
25183W        W86637  14.818  22.578  13.837
25184W        W86638   9.344  43.779   3.834
25185W        W86639  21.598  42.017  14.469
25186W        W86640  44.449   5.816   3.789
25187W        W86641  27.520  20.110  12.572
25188W        W86642   9.760  16.584  13.538
25189W        W86643  31.464  28.962  14.828
25190W        W86644  44.932   1.912   0.917
25191W        W86645  12.253  34.571  14.904
25192W        W86646   8.889  40.999  12.436
25193W        W86647  25.713  38.051  14.885
25194W        W86648  35.366  18.135  14.854
25195W        W86649  37.960  13.136  13.354
25196W        W86650   1.824   6.884  13.993
25197W        W86651  28.660   3.879  13.322
25198W        W86652  12.635   1.761  12.094
25199W        W86653  10.825   6.697   3.688
25200W        W86654  21.058  11.150   0.392
25201W        W86655  33.991  41.402  14.475
25202W        W86656  19.563   6.311   1.277
25203W        W86657  23.682  32.957   4.311
25204W        W86658  18.274  39.891   0.800
25205W        W86659  32.135  11.794   0.759
25206W        W86660  40.937  20.039   2.721
25207W        W86661   7.843  26.527   2.701
25208W        W86662  37.904  36.059   3.316
25209W        W86663  42.786  38.964  14.792
25210W        W86664   8.258  31.122  11.560
25211W        W86665   6.770  36.585  13.838
25212W        W86666  23.648  43.503   1.914
25213W        W86667  22.561  16.315  11.439
25214W        W86668  34.588   2.226  14.926
25215W        W86669  30.563   8.219  12.893
25216W        W86670  33.537  18.770   1.345
25217W        W86671  39.978   9.394  14.323
25218W        W86672  11.175   4.921  12.962
25219W        W86673   9.384  43.458  13.014
25220W        W86674   3.355  11.218  13.937
25221W        W86675  14.289  18.603   2.733
25222W        W86676  36.500  36.571  13.311
25223W        W86677  22.152  30.428   3.188
25224W        W86678  40.518  24.053  12.476
25225W        W86679  10.333  30.602  11.939
25226W        W86680  19.183  43.764  12.926
25227W        W86681  28.027  34.568  12.416
25228W        W86682  11.795  34.975  13.880
25229W        W86683  26.134   3.240   3.859
25230W        W86684  41.972  31.037   4.209
25231W        W86685   8.764   6.340  13.053
25232W        W86686  44.803  19.733   2.214
25233W        W86687  42.796  27.671   3.364
25234W        W86688  30.928  17.630  13.490
25235W        W86689  36.897  17.063  11.376
25236W        W86690   7.241  21.231   5.184
25237W        W86691   6.401  29.160  10.584
25238W        W86692  35.017  20.690   1.863
25239W        W86693   8.267  16.707  11.014
25240W        W86694  36.933  29.163  11.406
25241W        W86695   9.716  28.680   0.860
25242W        W86696  33.091  10.856   2.794
25243W        W86697   8.833  37.337  11.904
25244W        W86698  28.006  25.648  12.373
25245W        W86699   4.855   6.283  11.967
25246W        W86700  19.257   2.463  10.557
25247W        W86701   8.808  22.216   0.282
25248W        W86702  20.654  22.252  10.479
25249W        W86703  13.842  30.095   2.415
25250W        W86704  17.139  10.874  14.918
25251W        W86705  27.501  39.537   1.270
25252W        W86706  27.669  39.524  12.378
25253W        W86707  26.044  32.916   2.280
25254W        W86708  32.903  27.545   2.186
25255W        W86709  20.533  30.127  14.425
25256W        W86710   1.342   1.243   4.758
25257W        W86711  24.082  31.620   1.712
25258W        W86712  36.066  13.634   1.249
25259W        W86713  14.764  39.373  13.889
25260W        W86714  10.238  12.732  12.866
25261W        W86715  39.876  16.650   2.349
25262W        W86716  42.792  36.873  13.055
25263W        W86717  32.127  12.799  13.876
25264W        W86718  16.799  38.346  14.030
25265W        W86719  15.233  25.010  12.395
25266W        W86720  37.898  11.276   0.731
25267W        W86721  21.702  43.022   5.117
25268W        W86722  15.704  36.371  13.372
25269W        W86723  15.132  42.915   0.314
25270W        W86724  27.133   2.351   2.852
25271W        W86725  30.414  40.322   5.249
25272W        W86726  16.083  18.724  14.291
25273W        W86727   1.909  40.954   3.317
25274W        W86728  35.431   4.902   3.725
25275W        W86729  11.228  34.031  11.591
25276W        W86730  33.998  31.052   2.185
25277W        W86731  33.025  20.222  10.486
25278W        W86732  11.840  35.525   0.804
25279W        W86733  20.687  39.016  12.453
25280W        W86734  42.939  32.427   0.809
25281W        W86735  35.571  11.769   2.193
25282W        W86736  41.848  41.010  10.603
25283W        W86737  21.533  17.274  14.017
25284W        W86738  34.994   0.891   0.804
25285W        W86739  30.164  29.999  11.119
25286W        W86740   9.388  41.395  12.831
25287W        W86741  24.556  42.404  12.965
25288W        W86742  23.050  34.973   2.839
25289W        W86743  26.082  41.845   1.859
25290W        W86744  41.486  41.043   1.873
25291W        W86745  22.236  40.402  11.463
25292W        W86746  16.722  23.641   1.254
25293W        W86747  31.031  39.344  10.595
25294W        W86748  24.062   3.928  11.541
25295W        W86749   2.772   2.902  11.076
25296W        W86750  16.251  15.102  12.833
25297W        W86751  33.084   0.458  10.570
25298W        W86752  10.849  26.063   4.672
25299W        W86753  34.988  25.591   1.791
25300W        W86754  11.157  33.485  12.089
25301W        W86755   4.230  25.184   2.777
25302W        W86756  35.109   3.281   2.412
25303W        W86757  10.319  25.705  11.031
25304W        W86758   9.820  15.129  10.540
25305W        W86759  14.756  24.075   1.705
25306W        W86760  18.232  42.314   3.677
25307W        W86761   2.229  27.609  12.025
25308W        W86762  32.571  37.495   2.317
25309W        W86763  34.990   7.738   2.780
25310W        W86764  21.159  31.046   4.284
25311W        W86765  32.629  30.164   1.390
25312W        W86766  36.925  21.735  11.092
25313W        W86767  43.294  35.940   1.336
25314W        W86768  43.414   1.890   0.883
25315W        W86769  10.868  26.486   3.355
25316W        W86770  23.539  32.594   1.784
25317W        W86771  23.240  28.965  11.401
25318W        W86772   8.243  38.463  11.542
25319W        W86773  15.111  11.630   3.704
25320W        W86774  43.482   1.421   3.195
25321W        W86775  36.371  34.951  11.924
25322W        W86776  33.457  13.834   2.705
25323W        W86777  11.830  20.072  13.005
25324W        W86778  13.629  38.838  11.534
25325W        W86779  35.039   0.484  14.960
25326W        W86780  12.752  13.738  14.768
25327W        W86781   9.868  35.052  13.062
25328W        W86782  26.611  38.832   0.336
25329W        W86783   5.888  34.451   4.739
25330W        W86784  16.314  12.856  10.415
25331W        W86785   2.784  44.313  13.831
25332W        W86786  41.304  16.654   2.391
25333W        W86787  23.724   1.895   2.288
25334W        W86788  36.585  39.055   3.358
25335W        W86789  31.952  43.501  11.043
25336W        W86790   9.213  32.505   0.750
25337W        W86791  41.295  40.033  14.852
25338W        W86792   7.721  30.470   3.662
25339W        W86793  25.479  43.479  10.909
25340W        W86794  16.265  16.607   1.320
25341W        W86795   3.845  14.607  13.487
25342W        W86796  20.672  17.105  12.438
25343W        W86797  28.535  38.432   1.223
25344W        W86798  28.665   4.235  14.311
25345W        W86799  10.196  15.306   0.926
25346W        W86800  14.654  19.631  10.463
25347W        W86801   5.271  15.131  11.116
25348W        W86802  14.210   8.849  13.382
25349W        W86803  14.593  44.307  14.507
25350W        W86804  26.979   9.310  13.060
25351W        W86805   6.880   7.239  11.410
25352W        W86806   6.379   8.775  10.040
25353W        W86807  30.623  16.280  12.918
25354W        W86808   8.817  43.000  13.968
25355W        W86809  22.108  19.537   2.895
25356W        W86810  16.622  34.030  10.446
25357W        W86811  17.133  30.462   5.311
25358W        W86812  36.455  20.241   3.780
25359W        W86813  40.354  44.440  10.895
25360W        W86814  36.879  41.825  10.589
25361W        W86815  26.687  29.044  11.085
25362W        W86816  43.020   2.311   1.357
25363W        W86817  14.769  21.758  10.904
25364W        W86818  43.003  20.574   1.370
25365W        W86819   3.849   8.291   4.321
25366W        W86820   3.807  17.749   1.878
25367W        W86821   7.408  44.470  11.878
25368W        W86822   4.796  14.177  13.316
25369W        W86823  18.079  34.110  14.392
25370W        W86824  31.596  35.990   1.870
25371W        W86825   0.459  12.678  14.512
25372W        W86826   8.726  31.948   0.439
25373W        W86827  17.116  10.731  14.419
25374W        W86828   9.309  14.689   3.703
25375W        W86829   2.269  38.046   4.653
25376W        W86830  25.648   0.965  11.033
25377W        W86831   5.350  17.161  11.554
25378W        W86832  30.594  15.810   0.829
25379W        W86833  38.401  42.001   9.930
25380W        W86834  38.529  34.957  11.483
25381W        W86835  28.602  38.329  14.939
25382W        W86836  25.045  39.951   1.831
25383W        W86837  39.517  42.916  11.087
25384W        W86838  41.492  16.706   2.671
25385W        W86839  30.481   1.770  12.398
25386W        W86840  26.963  31.523  13.953
25387W        W86841  40.423  10.325  10.513
25388W        W86842   5.202  14.112   0.262
25389W        W86843   0.835  12.224   2.243
25390W        W86844  44.003  13.743   2.187
25391W        W86845  16.179  40.845   2.233
25392W        W86846  25.480  25.058   2.854
25393W        W86847  35.933  43.922   2.817
25394W        W86848  24.714  41.840   3.338
25395W        W86849   5.326  31.409  12.580
25396W        W86850  23.577  29.659  11.535
25397W        W86851  33.124  33.130   3.161
25398W        W86852  31.606  41.862  14.502
25399W        W86853  27.538   1.838   5.587
25400W        W86854  20.574   0.452   3.669
25401W        W86855   6.748  17.224   4.633
25402W        W86856   1.944  17.274   3.344
25403W        W86857  34.002  10.337   1.351
25404W        W86858  33.623  17.205  12.926
25405W        W86859  22.651  23.147   4.629
25406W        W86860  36.894  22.148   1.350
25407W        W86861   2.965  18.061   4.653
25408W        W86862   7.878  33.530  10.413
25409W        W86863  28.135  17.759   0.466
25410W        W86864  14.794  29.640  14.828
25411W        W86865  26.121  39.025  11.534
25412W        W86866  28.561  27.500   3.316
25413W        W86867   5.328   5.894   4.818
25414W        W86868  32.091  40.963   2.403
25415W        W86869  23.015  41.877   1.696
25416W        W86870  33.458  23.715   0.772
25417W        W86871   9.786  11.210   4.327
25418W        W86872  27.642  32.053  12.474
25419W        W86873  30.991   1.405   0.900
25420W        W86874  17.637  17.711   2.730
25421W        W86875  27.521  20.205   3.798
25422W        W86876  43.882   9.206   0.831
25423W        W86877  38.927  23.596   1.229
25424W        W86878  25.042  34.549  14.296
25425W        W86879  12.708  39.558   3.688
25426W        W86880  11.322  27.142   2.783
25427W        W86881  34.000  24.010  14.023
25428W        W86882  16.222  34.431  12.354
25429W        W86883  16.652  30.417  11.952
25430W        W86884  42.439   4.291   2.195
25431W        W86885  20.256  38.557   2.814
25432W        W86886  27.953   0.767  10.903
25433W        W86887  25.664  39.379   3.812
25434W        W86888   3.258  23.660   1.930
25435W        W86889  17.203  39.387   4.291
25436W        W86890  26.499  15.814  11.128
25437W        W86891  14.678   4.320   3.204
25438W        W86892  37.506  17.153  10.454
25439W        W86893  29.483   1.279   1.313
25440W        W86894   3.757  32.945   3.677
25441W        W86895  21.081  14.600  11.124
25442W        W86896   4.428  23.585   3.206
25443W        W86897  33.516   2.840  12.452
25444W        W86898   4.272  20.691  11.493
25445W        W86899  14.315   5.434   1.757
25446W        W86900   3.370  44.799   3.173
25447W        W86901   1.872  25.056  13.058
25448W        W86902  28.559  21.583   0.798
25449W        W86903  21.098   1.907  10.580
25450W        W86904  38.947  12.804   4.738
25451W        W86905  28.136  41.513   4.191
25452W        W86906  12.621   9.716   4.115
25453W        W86907   7.798  10.689   2.363
25454W        W86908  44.863  41.858   4.137
25455W        W86909  17.272  21.129   3.155
25456W        W86910   6.909  11.310   4.679
25457W        W86911  11.328  18.271  12.943
25458W        W86912  17.171  24.007  12.342
25459W        W86913  29.610  23.996   0.465
25460W        W86914   7.207  26.583  10.431
25461W        W86915  39.012   4.428   1.855
25462W        W86916  23.198  23.560   2.780
25463W        W86917  37.002  35.960  12.517
25464W        W86918  12.819   9.670  13.492
25465W        W86919   2.366   5.210  14.816
25466W        W86920   5.421  34.026  10.524
25467W        W86921  42.853  38.522   2.292
25468W        W86922  42.794  30.643  10.520
25469W        W86923  37.532  27.531   0.775
25470W        W86924  13.243   7.198  12.423
25471W        W86925  37.865  40.937  13.807
25472W        W86926   9.744  26.610  11.939
25473W        W86927  35.449  32.601  13.968
25474W        W86928  33.010  18.695  11.112
25475W        W86929   3.376  23.237  11.563
25476W        W86930  25.130  26.144   9.993
25477W        W86931  42.441   6.252  12.360
25478W        W86932  36.879  27.094  13.374
25479W        W86933  24.029  22.617  11.992
25480W        W86934  43.273   6.813  14.436
25481W        W86935  41.361  38.908  12.066
25482W        W86936   5.275  10.728   1.218
25483W        W86937  16.272   3.311   3.229
25484W        W86938  37.930  42.925   0.420
25485W        W86939  36.438   7.267  14.931
25486W        W86940  31.539  18.769   1.358
25487W        W86941  30.555  17.235  11.008
25488W        W86942  44.488  10.189  11.040
25489W        W86943  24.117   4.773  10.631
25490W        W86944  11.714  22.031  10.597
25491W        W86945  12.229  10.265  14.970
25492W        W86946   7.375  26.526   1.756
25493W        W86947   1.775  44.386  10.404
25494W        W86948  12.623  10.191  10.982
25495W        W86949  31.445  14.314   9.974
25496W        W86950  10.696  41.335  10.444
25497W        W86951  26.961  14.622  10.494
25498W        W86952  42.013  42.902   4.158
25499W        W86953   0.492  19.737  14.293
25500W        W86954  13.844  22.565   3.724
25501W        W86955  27.008  43.285  10.488
25502W        W86956  15.809  17.719  10.413
25503W        W86957  36.952  16.795  12.382
25504W        W86958  29.559   1.274  14.487
25505W        W86959  20.113  31.938  11.905
25506W        W86960  27.976   3.738  14.981
25507W        W86961   5.905   0.801  10.580
25508W        W86962  15.701  19.042  14.388
25509W        W86963  38.567  28.446  10.638
25510W        W86964  43.395  14.750   3.820
25511W        W86965  28.076  42.875  13.482
25512W        W86966  19.148   5.295   0.836
25513W        W86967  33.454   1.239   3.253
25514W        W86968   2.279  36.012   2.419
25515W        W86969   8.406   3.216   3.151
25516W        W86970  27.183  37.505   2.360
25517W        W86971  26.148  32.514   0.281
25518W        W86972   4.731   8.344   2.845
25519W        W86973   5.364  31.018   0.408
25520W        W86974  27.520  30.578  13.021
25521W        W86975  16.162  25.642  13.846
25522W        W86976   1.254   7.738  11.001
25523W        W86977  12.234  17.282   0.839
25524W        W86978  29.095   5.921  13.957
25525W        W86979  40.349   8.258   1.706
25526W        W86980  22.607  15.687   3.276
25527W        W86981  39.475   3.764   1.814
25528W        W86982  40.840  44.317  11.038
25529W        W86983  39.498  21.132   0.318
25530W        W86984  39.822  38.508   4.122
25531W        W86985  44.456  24.711  14.343
25532W        W86986  34.614   3.951   4.665
25533W        W86987  27.054   3.392   1.707
25534W        W86988   2.886   8.880  13.921
25535W        W86989  17.617  28.513   1.256
25536W        W86990  41.336  43.943  14.293
25537W        W86991  43.931  10.338  11.926
25538W        W86992   7.826  13.644  11.951
25539W        W86993  18.164  29.080   0.911
25540W        W86994  11.820  13.618   1.323
25541W        W86995  23.490  25.100   3.856
25542W        W86996  35.410   1.403   1.353
25543W        W86997   7.834  17.068  14.444
25544W        W86998  36.084  36.946  13.333
25545W        W86999   5.286  16.683  10.627
25546W        W87000  12.145  27.603   1.364
25547W        W87001  16.783   0.974   1.430
25548W        W87002   0.967   3.781   2.798
25549W        W87003  33.031  44.818   2.669
25550W        W87004   3.952  38.457   0.295
25551W        W87005   1.350   5.431  13.476
25552W        W87006   6.423  28.977   3.725
25553W        W87007  34.544  14.251  11.991
25554W        W87008  14.779  40.353   5.784
25555W        W87009  33.094  43.315  13.366
25556W        W87010   2.356  17.649  10.469
25557W        W87011  35.419  16.302   2.283
25558W        W87012  33.389  16.255   4.286
25559W        W87013  33.107  11.163   3.791
25560W        W87014  21.189   1.338  11.540
25561W        W87015  33.013  39.521  11.102
25562W        W87016  22.541  42.362  10.433
25563W        W87017   9.351   6.353  10.404
25564W        W87018   9.157   5.747   0.479
25565W        W87019   1.957  24.209   1.436
25566W        W87020  20.230   4.450  11.062
25567W        W87021   9.759  33.472   0.437
25568W        W87022  34.396  26.090   0.381
25569W        W87023  33.428  41.392   0.763
25570W        W87024  31.447  37.422   0.826
25571W        W87025  20.577  16.253  10.643
25572W        W87026  21.154   2.851  13.529
25573W        W87027  33.931  22.631  13.039
25574W        W87028  20.616   3.809   4.300
25575W        W87029  43.830  19.213   1.369
25576W        W87030  38.540  30.654  13.479
25577W        W87031   2.734  32.581   4.640
25578W        W87032  29.170   5.890  13.490
25579W        W87033  14.706  29.627   4.666
25580W        W87034  42.009   1.451  13.530
25581W        W87035   0.288  34.015  12.430
25582W        W87036  22.171   9.879   4.825
25583W        W87037  39.930   0.251  13.856
25584W        W87038  22.110  37.868   3.802
25585W        W87039   6.759  18.281   3.331
25586W        W87040  14.785  42.474   1.372
25587W        W87041   5.866  25.510   0.249
25588W        W87042   9.158  15.764  14.852
25589W        W87043  15.243   9.330  14.827
25590W        W87044  30.020  43.918   2.719
25591W        W87045  27.484  21.709   2.884
25592W        W87046  19.709  20.138   3.229
25593W        W87047  11.841  14.265   5.156
25594W        W87048  44.833  28.056  14.387
25595W        W87049   9.713  42.873  12.040
25596W        W87050  10.842  28.010  14.340
25597W        W87051  44.405  42.376   2.690
25598W        W87052   2.387  10.682  13.329
25599W        W87053  16.142  17.114  10.941
25600W        W87054  22.616  38.954  13.427
25601W        W87055  23.002  28.663   2.207
25602W        W87056  19.588   7.857  12.041
25603W        W87057  17.107  16.302   0.462
25604W        W87058  15.270  13.741   1.764
25605W        W87059  43.906  17.189  14.999
25606W        W87060   6.895  28.535   0.749
25607W        W87061  37.540  10.346  12.394
25608W        W87062  30.133   6.183  11.124
25609W        W87063   9.164  44.345  10.026
25610W        W87064  30.111  15.177  10.520
25611W        W87065  23.592   0.456   0.375
25612W        W87066  32.515   1.386   2.853
25613W        W87067  24.516  19.705  12.406
25614W        W87068  23.036  18.100   3.740
25615W        W87069  26.457  31.086  11.127
25616W        W87070  18.734   0.868  13.961
25617W        W87071  26.953   7.412   2.690
25618W        W87072  17.133   5.842   3.317
25619W        W87073   1.770  19.582   1.841
25620W        W87074  25.501  31.417  10.542
25621W        W87075  36.846  34.397   2.837
25622W        W87076   1.322  38.564  11.530
25623W        W87077  44.399   0.763  10.968
25624W        W87078  28.542  32.617   3.814
25625W        W87079  34.961  14.201   2.335
25626W        W87080  19.118  19.156  14.288
25627W        W87081  18.245  12.122   0.937
25628W        W87082  24.986  20.660   2.726
25629W        W87083  38.982  23.132   1.348
25630W        W87084  10.291  26.152  14.413
25631W        W87085  18.263  17.759   2.291
25632W        W87086  31.936  13.676  12.994
25633W        W87087  19.252   9.270   2.354
25634W        W87088   2.925   3.362   1.785
25635W        W87089  34.484  26.121  11.103
25636W        W87090  30.604  36.941   1.784
25637W        W87091  18.606   5.797   0.466
25638W        W87092  43.426  37.037   4.117
25639W        W87093  17.222   3.363  11.531
25640W        W87094  36.466  13.661  10.446
25641W        W87095  11.301  31.562   5.142
25642W        W87096   6.211  39.541  10.515
25643W        W87097  43.868  16.284  10.966
25644W        W87098  39.496   9.257  11.541
25645W        W87099  40.391  37.494  12.352
25646W        W87100  19.045  22.028  14.021
25647W        W87101  10.788   9.801  10.531
25648W        W87102  23.094  44.412  13.922
25649W        W87103   6.759  40.418   2.792
25650W        W87104   9.846  21.144  13.019
25651W        W87105  38.363   6.779  10.992
25652W        W87106  21.237  19.175  14.337
25653W        W87107  21.129  42.938  14.402
25654W        W87108   1.900  31.045   1.754
25655W        W87109  32.127  39.971   3.287
25656W        W87110  24.660  11.792   3.789
25657W        W87111  26.475  18.697  13.934
25658W        W87112  38.936   6.815  14.406
25659W        W87113  17.743   6.785  11.599
25660W        W87114   1.327  23.700   0.248
25661W        W87115  23.609  22.223  13.048
25662W        W87116  30.978  30.076   3.154
25663W        W87117  25.070  29.089  13.901
25664W        W87118  24.176  39.334  13.536
25665W        W87119  19.117  17.282  11.598
25666W        W87120  35.377  44.951  14.768
25667W        W87121  41.874   3.400  11.863
25668W        W87122  37.525  22.089  14.312
25669W        W87123  19.109   6.747   4.285
25670W        W87124  11.282  43.952   1.744
25671W        W87125  43.444  25.022  13.387
25672W        W87126  31.073  41.013  13.465
25673W        W87127  22.631  10.378  11.962
25674W        W87128  38.839   3.743  11.455
25675W        W87129   8.799  40.049   0.749
25676W        W87130   8.706  38.456  11.968
25677W        W87131   1.761  43.904   2.241
25678W        W87132   1.968  40.913   3.662
25679W        W87133  20.034  38.825  14.875
25680W        W87134  35.001  23.139   3.707
25681W        W87135  30.980   1.453   3.800
25682W        W87136   9.881  19.150  10.071
25683W        W87137  36.562  24.061   3.153
25684W        W87138  35.969   8.718   0.826
25685W        W87139   9.240  33.380   4.114
25686W        W87140  25.565  31.945   4.346
25687W        W87141  40.895  41.941   2.269
25688W        W87142   3.839  39.527   1.929
25689W        W87143   7.882  15.239  10.986
25690W        W87144  15.748   1.773  11.017
25691W        W87145  36.362   9.647   3.283
25692W        W87146  29.158  31.153   2.692
25693W        W87147  33.448  38.963  12.825
25694W        W87148  44.300  31.539   2.862
25695W        W87149   9.196  39.467   1.786
25696W        W87150  34.928   2.442  13.959
25697W        W87151  22.716  42.441  12.445
25698W        W87152  42.815  44.348  11.001
25699W        W87153  42.464  43.912   3.823
25700W        W87154  40.983  18.630   1.892
25701W        W87155  43.778   3.441   3.651
25702W        W87156  17.731   4.317   4.721
25703W        W87157  34.021  21.060   1.413
25704W        W87158  27.115   8.864   3.269
25705W        W87159  13.302  22.047  14.925
25706W        W87160  29.048  31.533   3.701
25707W        W87161  42.510   3.354  14.329
25708W        W87162   2.856  24.179   4.161
25709W        W87163  19.228  11.679  14.991
25710W        W87164  19.119  32.917   3.692
25711W        W87165  41.415  17.594  10.944
25712W        W87166  27.125  22.621  12.836
25713W        W87167   3.295  18.075   0.302
25714W        W87168   4.344  40.038   0.366
25715W        W87169  11.277  22.644   3.172
25716W        W87170  42.458  10.836   4.214
25717W        W87171  36.929  29.424  12.539
25718W        W87172   7.207   4.227  11.399
25719W        W87173  19.056   7.812  13.836
25720W        W87174  20.554  30.069  13.049
25721W        W87175  12.765  36.069   1.437
25722W        W87176   3.288  15.214  14.348
25723W        W87177   3.953  38.941   2.807
25724W        W87178  41.886  32.139  13.365
25725W        W87179  15.613  44.000   3.853
25726W        W87180  19.093  20.582   3.322
25727W        W87181   2.316  17.226  13.861
25728W        W87182  25.712   3.917  14.362
25729W        W87183  26.596  28.545  14.292
25730W        W87184  27.520  36.362   9.547
25731W        W87185  14.786   8.389  13.450
25732W        W87186  23.569  14.181   4.801
25733W        W87187   6.802  22.239  10.489
25734W        W87188  27.579  17.288   2.329
25735W        W87189   6.404  19.179  11.915
25736W        W87190  21.629  11.205   4.817
25737W        W87191  33.972  34.388   4.645
25738W        W87192  41.503  16.271   1.217
25739W        W87193   3.238  15.772   1.830
25740W        W87194  28.449  11.705  13.062
25741W        W87195  32.058  35.922  14.396
25742W        W87196   9.196  16.677  10.639
25743W        W87197  15.752  38.979  12.925
25744W        W87198  38.821  23.621   0.480
25745W        W87199   4.733   3.427  12.977
25746W        W87200  12.289  38.524   5.268
25747W        W87201  40.854  21.075   0.923
25748W        W87202  34.544   6.402  14.300
25749W        W87203   3.910  10.360  14.392
25750W        W87204  25.075  38.820  14.841
25751W        W87205  13.196  19.625   2.826
25752W        W87206  19.251  40.422   2.369
25753W        W87207  31.582  41.524  13.358
25754W        W87208   0.842  42.309   0.866
25755W        W87209  41.428  17.176   2.696
25756W        W87210   5.814  35.099  14.976
25757W        W87211  30.578  32.955   1.760
25758W        W87212   7.247  15.649  12.488
25759W        W87213  22.671  17.145  14.369
25760W        W87214   2.786   2.851  13.387
25761W        W87215  27.673  10.644   0.255
25762W        W87216  27.558  44.893  11.100
25763W        W87217  35.101  26.113   4.243
25764W        W87218  39.890  15.714  14.964
25765W        W87219  43.864   4.810   2.249
25766W        W87220  15.179  29.958  11.877
25767W        W87221  37.372   6.415   0.405
25768W        W87222  19.052  18.208  13.972
25769W        W87223  20.131  22.739   2.400
25770W        W87224  17.589  26.995   2.755
25771W        W87225  11.129  34.484   4.162
25772W        W87226  22.639   2.403   2.282
25773W        W87227  27.646  14.148   3.803
25774W        W87228  35.934  28.598  13.813
25775W        W87229  12.749  28.447   1.867
25776W        W87230  25.986  28.073  13.355
25777W        W87231  34.425  17.640  12.509
25778W        W87232  40.412  31.411   2.332
25779W        W87233  43.918   3.362  12.046
25780W        W87234   5.850  26.152   2.724
25781W        W87235  12.708  38.565  10.966
25782W        W87236  25.649  18.122   1.449
25783W        W87237  42.427  37.497  12.408
25784W        W87238  29.973  27.170   3.750
25785W        W87239   6.773  42.507  12.386
25786W        W87240  23.224  41.422  12.452
25787W        W87241  38.907  20.098   3.736
25788W        W87242   5.265  25.109   2.692
25789W        W87243  20.659  22.745  12.892
25790W        W87244   9.657  24.484   0.364
25791W        W87245   1.314  15.275  14.968
25792W        W87246   4.413  39.373   2.290
25793W        W87247  44.279   6.889   1.837
25794W        W87248  44.895   4.701   2.728
25795W        W87249  28.590   0.948   4.762
25796W        W87250  31.404  40.335   2.192
25797W        W87251  22.527  43.298  11.429
25798W        W87252  42.838  22.599   3.196
25799W        W87253  15.617  16.293   1.732
25800W        W87254  24.192   5.438  10.942
25801W        W87255  23.238  19.710  10.977
25802W        W87256   0.483  30.994   2.845
25803W        W87257  37.476  11.682   1.705
25804W        W87258  20.551   8.329   3.273
25805W        W87259  27.498  27.021  12.418
25806W        W87260   4.822  18.230  13.921
25807W        W87261  43.835   6.208   1.854
25808W        W87262  16.631  17.160   2.272
25809W        W87263  37.976  37.405   0.787
25810W        W87264  36.379   6.324  10.588
25811W        W87265  26.553  44.889  12.080
25812W        W87266  27.080  12.834   0.375
25813W        W87267  25.110  44.372  14.356
25814W        W87268  25.512  16.261   3.635
25815W        W87269  26.465   1.294   2.295
25816W        W87270   4.240  20.174   4.814
25817W        W87271  16.651  40.392   4.657
25818W        W87272   8.311  35.488   0.914
25819W        W87273   0.889  36.909  11.455
25820W        W87274  12.326  32.964  13.889
25821W        W87275  38.539  43.972   2.808
25822W        W87276  22.544   4.291  13.820
25823W        W87277  37.895  19.772   4.354
25824W        W87278  29.627  11.128  11.390
25825W        W87279  22.123  25.504   0.848
25826W        W87280  44.836  13.751  13.998
25827W        W87281   1.423  34.538  11.107
25828W        W87282  25.652   8.343   0.407
25829W        W87283   1.771  33.021   4.644
25830W        W87284  24.521  30.055  11.116
25831W        W87285  36.559  22.105   0.769
25832W        W87286  11.329   0.304  14.817
25833W        W87287  30.924  33.555   1.408
25834W        W87288  36.937  23.028  11.021
25835W        W87289  28.037  29.171   3.786
25836W        W87290   1.336  34.966  12.359
25837W        W87291  19.580  12.253  13.457
25838W        W87292   3.932  17.076   1.860
25839W        W87293  37.073  20.176  11.439
25840W        W87294  35.957  43.341  14.406
25841W        W87295  28.553   8.854  13.444
25842W        W87296  43.779  42.455   1.364
25843W        W87297  42.485  18.608   0.435
25844W        W87298  34.093  40.383   3.361
25845W        W87299  37.369  22.518  14.773
25846W        W87300   7.744  37.017  12.968
25847W        W87301  17.289  32.060  12.844
25848W        W87302  11.165  29.444   4.350
25849W        W87303  12.777   6.879  10.466
25850W        W87304  34.462   8.377  13.792
25851W        W87305  17.088  39.429  10.569
25852W        W87306  25.993  18.585  14.997
25853W        W87307  36.946  30.562   4.780
25854W        W87308  23.599   1.900  13.508
25855W        W87309  25.548  13.251   2.207
25856W        W87310   8.766  19.280  14.320
25857W        W87311  12.632  37.992  13.439
25858W        W87312  25.014  42.362  13.957
25859W        W87313  27.137  44.001  14.884
25860W        W87314  15.177  18.545   5.228
25861W        W87315  10.762  25.589  13.906
25862W        W87316   2.921   9.211   0.326
25863W        W87317   3.917   5.292  10.924
25864W        W87318   6.282  38.352   2.204
25865W        W87319   9.373  42.029   2.346
25866W        W87320  36.437  36.458  11.558
25867W        W87321  39.036  13.199  12.374
25868W        W87322   2.787  12.357   3.754
25869W        W87323  13.118  19.064  13.471
25870W        W87324  35.576  34.867   4.315
25871W        W87325  35.943   2.792   4.677
25872W        W87326   8.697  12.332  11.028
25873W        W87327  42.316   4.877  11.477
25874W        W87328  30.023  23.510  12.412
25875W        W87329   2.831  32.052  10.439
25876W        W87330  24.157  35.525   1.255
25877W        W87331  26.533  41.345  14.344
25878W        W87332  38.964  36.085   4.238
25879W        W87333  35.966  13.741   0.816
25880W        W87334  17.098  34.500  13.816
25881W        W87335  36.354  24.591  14.801
25882W        W87336   2.899  41.316   2.182
25883W        W87337  38.553  29.087  11.598
25884W        W87338  25.991  19.634  14.977
25885W        W87339  40.992  12.714   1.868
25886W        W87340  26.571  44.862  11.105
25887W        W87341   4.794   7.402   3.238
25888W        W87342  33.559  11.817  11.099
25889W        W87343   6.378  23.086   1.814
25890W        W87344  19.113  20.079  11.916
25891W        W87345  17.105  15.228  14.927
25892W        W87346  10.372  35.053  11.543
25893W        W87347  15.606   6.824   1.715
25894W        W87348  38.427  37.480  12.362
25895W        W87349  35.010  21.123  11.892
25896W        W87350  15.609  16.638  13.309
25897W        W87351  40.535  31.990   3.222
25898W        W87352  27.463   2.812  10.573
25899W        W87353  31.509  44.994  12.561
25900W        W87354  43.871  17.661  12.521
25901W        W87355  26.608  22.719   4.828
25902W        W87356   0.938  19.777   0.920
25903W        W87357  25.186   6.261   1.374
25904W        W87358  15.310  32.518   0.325
25905W        W87359  39.331  38.967   3.649
25906W        W87360  22.530  26.625  11.085
25907W        W87361  34.972   7.376   9.931
25908W        W87362   5.772   1.403  11.940
25909W        W87363  23.516  16.160   0.257
25910W        W87364  40.975  29.549   1.239
25911W        W87365  41.335  12.784  10.626
25912W        W87366  29.475  43.902   0.840
25913W        W87367  24.676  39.994  13.925
25914W        W87368   2.966   5.818   3.728
25915W        W87369  40.307  23.510  11.072
25916W        W87370  35.954  27.038  11.989
25917W        W87371  16.192  14.285   4.197
25918W        W87372  34.401  15.136   1.783
25919W        W87373  32.539  29.427   4.768
25920W        W87374   8.194  22.246  11.567
25921W        W87375  24.599   7.239  13.858
25922W        W87376  43.402  14.109  11.077
25923W        W87377  36.064  35.100  10.959
25924W        W87378  17.619  33.493   1.331
25925W        W87379  32.402  27.165   0.289
25926W        W87380  43.462  15.607   5.088
25927W        W87381  30.078  13.298   2.282
25928W        W87382  12.169  14.658  14.504
25929W        W87383  43.353   4.385  12.826
25930W        W87384   0.765  35.880   2.758
25931W        W87385  39.393  14.337  13.462
25932W        W87386  38.363  41.351  11.091
25933W        W87387   7.835   3.915   0.292
25934W        W87388  29.479  35.396  13.984
25935W        W87389   2.862   6.202  13.428
25936W        W87390  17.297   9.208  14.386
25937W        W87391   9.319  44.973   2.829
25938W        W87392   5.843  16.189  12.476
25939W        W87393  24.501   4.391   0.955
25940W        W87394  18.683  21.256  14.445
25941W        W87395  30.614  11.735   2.770
25942W        W87396   5.834  33.897   3.844
25943W        W87397   8.385  21.622   0.750
25944W        W87398   6.343  36.387   4.751
25945W        W87399   7.292  33.938   4.289
25946W        W87400  11.139   7.735  14.845
25947W        W87401  18.704  16.256  14.411
25948W        W87402   1.743  21.213  11.897
25949W        W87403  18.571  37.360   3.171
25950W        W87404   3.908  28.440  14.881
25951W        W87405   9.849  12.689  13.988
25952W        W87406  21.185   9.748  13.924
25953W        W87407  42.484  40.989   2.836
25954W        W87408   8.894  24.096  10.473
25955W        W87409  31.079  28.086   0.308
25956W        W87410  27.023   1.924   9.966
25957W        W87411   0.391   8.862  14.375
25958W        W87412   4.327  15.745   1.447
25959W        W87413  16.186  23.581   4.811
25960W        W87414  15.723   8.229  14.455
25961W        W87415   6.832  42.850  10.454
25962W        W87416   0.885  11.232   2.784
25963W        W87417   9.750  18.768  14.290
25964W        W87418   0.465   5.439   3.155
25965W        W87419  31.415   5.722  11.924
25966W        W87420  41.874  42.944  10.561
25967W        W87421  23.185  17.219  10.590
25968W        W87422  30.008  42.347  14.436
25969W        W87423  44.964  33.006   2.727
25970W        W87424  12.787  35.014  14.825
25971W        W87425  21.259  15.781  11.107
25972W        W87426   8.716  10.217   0.374
25973W        W87427  33.416  42.411   3.745
25974W        W87428  43.936   7.673   4.250
25975W        W87429  38.904  23.577  10.573
25976W        W87430  14.592  42.025   3.343
25977W        W87431  26.016  34.583  13.953
25978W        W87432  20.524  32.004   4.194
25979W        W87433  14.186  44.760   3.264
25980W        W87434  23.120  11.833   5.169
25981W        W87435  36.349  33.513   0.834
25982W        W87436  38.831  18.263  12.889
25983W        W87437  36.550  28.470   0.454
25984W        W87438  30.965  26.544  10.158
25985W        W87439  25.000  39.499   3.223
25986W        W87440  15.715  40.042  12.024
25987W        W87441  44.795  20.690   3.840
25988W        W87442  43.931  43.997  11.028
25989W        W87443  14.796   2.361  12.388
25990W        W87444   5.720  37.531   2.279
25991W        W87445  32.633  32.936  10.925
25992W        W87446  26.993  20.244  13.475
25993W        W87447  41.802   6.344   2.789
25994W        W87448  36.456  44.888  10.529
25995W        W87449  31.447  23.718   4.232
25996W        W87450  35.878  42.898   0.742
25997W        W87451   6.753  22.117   0.808
25998W        W87452  34.451  33.415   3.705
25999W        W87453  19.105  32.560   4.732
26000W        W87454  17.755  43.369   3.742
26001W        W87455  36.586  21.623   4.344
26002W        W87456  42.283  22.121   1.257
26003W        W87457  20.745  28.067   3.179
26004W        W87458  42.369   1.470  14.848
26005W        W87459  11.346  17.166   2.754
26006W        W87460  36.967  44.411  11.503
26007W        W87461  38.336  18.260  14.962
26008W        W87462  26.194  12.283   0.290
26009W        W87463  35.018  33.601  13.897
26010W        W87464  38.918   0.743   3.776
26011W        W87465  25.018  36.035   4.744
26012W        W87466  12.710  27.955   4.820
26013W        W87467  15.250   5.292  12.500
26014W        W87468  30.010  14.323  13.362
26015W        W87469  11.266   7.893  12.459
26016W        W87470  32.068  29.482  14.464
26017W        W87471  18.072  36.034  11.941
26018W        W87472  12.696  34.590  11.886
26019W        W87473  19.729   4.807   1.697
26020W        W87474  33.972  23.639   3.155
26021W        W87475   0.782  17.290  11.002
26022W        W87476   1.831  32.110   0.957
26023W        W87477  15.665   4.237   3.744
26024W        W87478  19.189   8.663  10.107
26025W        W87479  15.656  29.424   5.134
26026W        W87480  24.712  39.905   4.206
26027W        W87481  38.937   5.864  14.791
26028W        W87482   7.683  28.501  11.901
26029W        W87483  21.569  25.177  14.866
26030W        W87484  44.310   8.251   4.715
26031W        W87485  23.072  19.244  14.781
26032W        W87486  10.778  23.149  12.511
26033W        W87487  18.777  42.345   0.810
26034W        W87488  17.779  39.826  10.425
26035W        W87489  13.820  11.248  10.565
26036W        W87490  20.225  18.187   0.450
26037W        W87491   0.286   1.316   4.169
26038W        W87492   8.204   0.261   2.782
26039W        W87493  26.095  32.522   2.185
26040W        W87494  25.681   4.821  14.871
26041W        W87495   3.802   1.315   3.197
26042W        W87496   8.178  39.361   4.627
26043W        W87497  42.792   4.287   3.211
26044W        W87498   8.656  31.422   2.857
26045W        W87499  40.810  13.632  10.529
26046W        W87500  44.499   1.411   0.806
26047W        W87501  29.473  25.472   1.759
26048W        W87502   8.202  11.768   2.315
26049W        W87503  44.416   1.445   4.128
26050W        W87504  37.871  43.366   3.681
26051W        W87505  16.781  39.442   1.212
26052W        W87506  37.413  42.432  13.465
26053W        W87507  22.521  36.993  12.922
26054W        W87508  16.239  22.689   4.266
26055W        W87509  40.869  40.811   1.864
26056W        W87510  11.742   5.829  12.399
26057W        W87511  19.253  17.728  14.510
26058W        W87512  38.971  26.592   3.204
26059W        W87513  24.110  30.534  14.504
26060W        W87514  18.780  40.471   0.324
26061W        W87515  23.083  30.977   3.355
26062W        W87516  17.579   9.248  11.959
26063W        W87517  35.920   7.767  12.967
26064W        W87518  25.161   3.455  11.400
26065W        W87519   8.810  22.508  12.994
26066W        W87520  11.165  44.273   2.786
26067W        W87521  12.780   8.302  10.466
26068W        W87522  20.651   1.886  14.430
26069W        W87523  32.980  28.531  11.613
26070W        W87524  24.644  42.984  13.369
26071W        W87525  39.320  30.577   0.439
26072W        W87526  25.643  26.595   2.688
26073W        W87527   9.274  27.956   1.268
26074W        W87528   8.666  23.085   2.900
26075W        W87529  23.156   4.450  14.786
26076W        W87530  14.674  17.555   1.777
26077W        W87531  23.678  22.732   4.646
26078W        W87532  25.557  41.814   3.293
26079W        W87533   4.797  40.340  14.015
26080W        W87534  31.412  21.107   0.436
26081W        W87535  38.434  33.129  13.035
26082W        W87536  24.011  37.052  12.427
26083W        W87537   7.389  40.402  13.061
26084W        W87538  12.268  23.081   9.470
26085W        W87539  11.745  24.164  13.316
26086W        W87540  29.483  44.478  11.494
26087W        W87541  35.946   5.857  11.867
26088W        W87542  22.218  15.661   2.208
26089W        W87543   9.867  10.751  12.065
26090W        W87544  30.070  18.608   2.190
26091W        W87545  30.944  12.837   2.815
26092W        W87546  28.096   6.289  13.383
26093W        W87547  40.484  35.544   0.245
26094W        W87548  38.563  28.505  11.869
26095W        W87549   9.185  12.303  14.285
26096W        W87550  39.359  11.151  11.610
26097W        W87551  36.503   1.888   3.820
26098W        W87552  33.617  36.073   4.675
26099W        W87553  26.582  22.557  13.964
26100W        W87554  38.851  28.059   2.831
26101W        W87555  18.206  16.166  13.408
26102W        W87556  10.330  30.054   4.200
26103W        W87557  36.902  36.532  14.349
26104W        W87558  18.699  42.499  11.962
26105W        W87559  34.442  23.114  13.407
26106W        W87560   0.393   3.380   3.763
26107W        W87561   0.889  39.840  12.992
26108W        W87562   4.434  10.831   0.428
26109W        W87563  36.996  16.791   3.687
26110W        W87564  19.603  31.026   4.343
26111W        W87565  11.814  31.953   2.863
26112W        W87566  28.520  26.165  11.914
26113W        W87567  33.023  14.328   4.777
26114W        W87568   7.902  13.230  13.407
26115W        W87569  16.608  11.311  11.432
26116W        W87570  40.035  23.004   4.699
26117W        W87571  31.557  25.104  12.956
26118W        W87572  39.020   7.241  14.329
26119W        W87573  35.007  35.972  10.045
26120W        W87574   5.199  24.220   3.204
26121W        W87575  24.653  21.713   1.312
26122W        W87576  20.630  22.597  11.434
26123W        W87577  40.461  17.732   3.643
26124W        W87578  18.594  30.651  10.571
26125W        W87579  16.809  28.467   2.797
26126W        W87580  35.020  18.665   0.248
26127W        W87581  39.909  36.934  14.862
26128W        W87582  16.277  12.840   4.264
26129W        W87583  32.947  18.055   0.290
26130W        W87584  28.970  32.934   1.734
26131W        W87585  26.625   8.314  11.116
26132W        W87586  22.216  17.576  10.515
26133W        W87587  24.987   9.253   0.478
26134W        W87588  41.975  25.088  12.566
26135W        W87589  42.949  21.619   3.721
26136W        W87590  42.447  14.825   2.386
26137W        W87591  31.151  38.430   3.633
26138W        W87592   2.963  37.501  12.842
26139W        W87593   2.442  32.424   2.816
26140W        W87594  23.676   6.309   2.718
26141W        W87595  25.709   3.933   3.317
26142W        W87596  24.642  36.592  10.947
26143W        W87597  11.283  29.515   0.946
26144W        W87598  26.065  24.659   3.746
26145W        W87599   4.315  29.953   0.390
26146W        W87600  16.713  43.491   0.476
26147W        W87601  29.594  16.077  14.962
26148W        W87602  21.645  13.213   1.447
26149W        W87603  11.866   6.367   5.168
26150W        W87604  24.583  43.785   0.820
26151W        W87605  30.118  18.060   1.754
26152W        W87606  38.057  37.836   5.246
26153W        W87607   2.724  17.141   1.261
26154W        W87608  14.098  20.621  14.993
26155W        W87609  25.207  17.185   4.253
26156W        W87610   0.941  22.196   3.659
26157W        W87611  20.754  41.446   3.279
26158W        W87612   0.979   1.900   4.242
26159W        W87613  40.442   4.247  11.889
26160W        W87614  39.926   7.805  11.546
26161W        W87615  32.398  44.852   2.826
26162W        W87616   6.733  44.010  10.477
26163W        W87617  13.656   0.389  14.876
26164W        W87618   2.266  35.500  12.844
26165W        W87619  27.082   6.752  11.578
26166W        W87620  32.029  40.052   1.433
26167W        W87621  27.556   2.890   4.665
26168W        W87622  44.855  22.535   0.272
26169W        W87623  28.932  14.111  11.867
26170W        W87624  13.107  14.270   1.387
26171W        W87625  19.080  38.067  13.525
26172W        W87626   9.779  28.013   2.384
26173W        W87627  31.597  38.498   2.847
26174W        W87628   4.282  10.183   0.831
26175W        W87629  35.475  34.612   2.228
26176W        W87630  23.162  16.760  12.497
26177W        W87631  40.967  44.439   0.751
26178W        W87632   7.787  28.983  12.345
26179W        W87633  18.601  10.356  14.878
26180W        W87634  19.279  37.553   3.726
26181W        W87635  42.866   1.931   1.866
26182W        W87636  10.743  19.267  13.472
26183W        W87637  16.711  18.235  12.577
26184W        W87638  13.689  33.412   2.727
26185W        W87639   4.868  29.020   1.239
26186W        W87640  11.230  10.854   0.838
26187W        W87641  13.327  20.089   1.871
26188W        W87642  13.679   6.339   2.400
26189W        W87643  35.394  41.336   3.239
26190W        W87644  32.053  14.136   4.343
26191W        W87645   1.372   7.703  11.595
26192W        W87646  32.040   8.845   3.710
26193W        W87647  12.166  42.513   3.635
26194W        W87648  28.160  33.558   3.799
26195W        W87649  41.940  13.639   1.264
26196W        W87650  21.042  15.807  10.452
26197W        W87651  17.209  22.028  14.887
26198W        W87652  41.834  38.360   0.324
26199W        W87653  17.172   7.872   4.622
26200W        W87654   8.888  20.247   0.803
26201W        W87655  16.296  21.116   3.827
26202W        W87656  32.490   2.388  12.998
26203W        W87657  23.561  31.624   2.230
26204W        W87658  44.478  36.931  14.497
26205W        W87659   1.361  25.120  12.875
26206W        W87660  31.936  33.604  12.964
26207W        W87661  23.528  42.938   0.774
26208W        W87662  37.077  10.226  12.465
26209W        W87663  12.180  35.961   2.857
26210W        W87664  14.738  41.800  10.917
26211W        W87665  24.118  22.676  11.437
26212W        W87666  31.093  32.534  11.994
26213W        W87667   5.354   3.926  12.358
26214W        W87668  39.920   8.898   2.326
26215W        W87669  26.142  26.503  14.502
26216W        W87670  25.075  34.963  11.426
26217W        W87671   4.869  17.071   0.875
26218W        W87672  23.128  42.320   0.888
26219W        W87673  18.585  41.375   0.257
26220W        W87674  11.752  15.294   0.444
26221W        W87675  19.218  11.770  14.027
26222W        W87676  29.002  27.113  13.979
26223W        W87677   8.823  29.010  13.520
26224W        W87678  15.750  28.090   0.746
26225W        W87679  23.101   4.336  14.432
26226W        W87680  18.277  43.853   3.157
26227W        W87681  38.350  17.176   2.253
26228W        W87682  15.204  43.476   0.761
26229W        W87683  40.002  15.322  13.008
26230W        W87684   6.257  10.831   3.225
26231W        W87685   2.895  27.462   2.683
26232W        W87686  19.716  35.086   2.279
26233W        W87687  35.929  44.332   1.725
26234W        W87688  28.986  28.558  14.411
26235W        W87689   0.422  19.060   3.657
26236W        W87690  35.024   7.192   2.240
26237W        W87691  19.116  20.163   4.201
26238W        W87692  43.903   5.289   0.936
26239W        W87693  43.860  12.664   3.218
26240W        W87694   1.942  30.949  11.599
26241W        W87695  32.450   4.722  11.960
26242W        W87696  36.440  30.514  10.994
26243W        W87697  43.799   9.355  13.807
26244W        W87698  19.054  27.187  13.486
26245W        W87699  11.360  42.307  12.040
26246W        W87700  38.476  41.968   3.331
26247W        W87701  43.306  34.940  13.866
26248W        W87702  39.456  36.082  12.370
26249W        W87703   0.358  11.680   3.193
26250W        W87704  18.773   8.876   3.816
26251W        W87705  10.337  31.008   1.434
26252W        W87706  33.903  32.503  14.495
26253W        W87707  22.072  14.766  13.377
26254W        W87708  16.233  16.231  11.375
26255W        W87709  40.334  33.409   1.401
26256W        W87710  13.736  28.649  14.386
26257W        W87711  17.203  28.079   4.254
26258W        W87712  17.685  21.751  12.884
26259W        W87713  41.012  37.034   2.285
26260W        W87714  22.008  10.677  12.402
26261W        W87715  43.852  23.101  13.371
26262W        W87716  18.611  34.910   3.267
26263W        W87717  15.123  31.088   4.768
26264W        W87718  40.863  18.552  10.889
26265W        W87719   5.774  26.568  12.469
26266W        W87720  13.300   0.358  10.046
26267W        W87721   5.416  34.979  10.143
26268W        W87722  38.508  14.717  14.769
26269W        W87723  33.088  39.887   0.482
26270W        W87724  34.109  34.033   0.300
26271W        W87725  38.849  29.016   1.924
26272W        W87726  28.633  15.289  13.944
26273W        W87727   3.789  33.458   1.301
26274W        W87728   6.338  43.414  13.880
26275W        W87729  26.106  37.026  11.482
26276W        W87730  16.269  43.979   0.453
26277W        W87731  38.480  18.708   1.287
26278W        W87732  20.765  24.166   0.374
26279W        W87733   9.150  12.146   2.699
26280W        W87734  38.847  38.860  12.944
26281W        W87735   9.832  37.536  14.856
26282W        W87736   1.965  41.806   3.205
26283W        W87737  23.599  40.541   3.385
26284W        W87738   4.365   1.307  14.504
26285W        W87739  21.231  12.733   0.321
26286W        W87740  36.371  19.216  13.840
26287W        W87741  25.479  23.009  12.341
26288W        W87742  16.265  14.277   2.180
26289W        W87743   9.759   1.962  10.508
26290W        W87744  32.487  35.900  14.957
26291W        W87745   9.857  32.503  12.848
26292W        W87746  37.860  38.559  13.998
26293W        W87747  15.299  44.932   0.341
26294W        W87748  28.002  10.662   0.737
26295W        W87749  32.091  39.487  10.998
26296W        W87750   1.306  32.391  11.108
26297W        W87751  27.548  36.355  11.608
26298W        W87752  36.534  40.812  11.865
26299W        W87753   8.179   5.750   0.387
26300W        W87754  19.268  35.911   4.141
26301W        W87755  34.611  23.704   2.253
26302W        W87756  37.401  34.094   1.764
26303W        W87757  37.500   8.290  12.507
26304W        W87758  38.364  13.613   2.297
26305W        W87759   8.702  15.234  13.401
26306W        W87760   6.382   6.358  13.978
26307W        W87761  32.565  22.063  13.846
26308W        W87762  24.611  29.479   3.335
26309W        W87763  41.445  38.963  14.281
26310W        W87764  36.950  28.673  12.353
26311W        W87765  44.908  23.069   2.261
26312W        W87766  43.328  35.581   0.929
26313W        W87767  20.540  33.437  10.479
26314W        W87768  22.723  28.670   2.389
26315W        W87769  15.714   7.752   3.319
26316W        W87770   2.461   4.789  14.384
26317W        W87771  40.504  38.377  14.393
26318W        W87772  37.506  24.530  11.940
26319W        W87773   0.857  16.723   0.391
26320W        W87774  17.271  39.997  13.918
26321W        W87775  41.416  25.052   2.334
26322W        W87776  17.595  36.521   2.872
26323W        W87777  26.604  15.680   0.942
26324W        W87778   5.742  24.996  13.542
26325W        W87779  33.900   3.305  13.325
26326W        W87780  32.601  34.555   1.775
26327W        W87781  10.786  28.603   0.855
26328W        W87782  23.624  19.214   0.260
26329W        W87783  30.438  37.931   1.835
26330W        W87784  21.135  35.936  11.078
26331W        W87785   4.916  14.094   4.302
26332W        W87786  41.801  39.389  14.793
26333W        W87787  33.422  16.710  10.616
26334W        W87788  10.311  12.162  12.361
26335W        W87789   2.432   5.230  11.084
26336W        W87790  31.944  43.804   3.330
26337W        W87791  24.701  11.866  11.088
26338W        W87792   4.362  14.639   4.786
26339W        W87793  15.151  41.391  10.594
26340W        W87794  16.073  31.142  11.519
26341W        W87795  41.027   1.322  11.968
26342W        W87796  19.676  34.489   2.297
26343W        W87797  16.115   7.829  10.569
26344W        W87798  10.813   8.801   2.298
26345W        W87799  34.889  42.388   2.214
26346W        W87800  42.341  26.492  14.475
26347W        W87801  23.005  11.286  12.934
26348W        W87802  40.441  25.107  13.974
26349W        W87803   9.280  43.385  12.354
26350W        W87804  35.108  39.401   4.683
26351W        W87805  34.884   4.877  11.889
26352W        W87806  26.506  20.608   3.699
26353W        W87807   3.343  30.085   4.783
26354W        W87808  16.072  41.446   3.841
26355W        W87809  13.786   0.922   0.754
26356W        W87810  16.092  27.004   4.127
26357W        W87811  26.638  33.996   0.413
26358W        W87812  11.286  20.659  14.960
26359W        W87813  10.330  18.584  12.889
26360W        W87814  22.737  28.609  14.855
26361W        W87815  19.573  41.039   1.825
26362W        W87816  25.165   5.740   4.769
26363W        W87817  14.233   7.211   1.745
26364W        W87818  33.605   8.298  12.905
26365W        W87819  11.747  29.082   2.193
26366W        W87820  11.763  21.099   1.423
26367W        W87821   3.790  25.167   5.083
26368W        W87822   8.394  11.842  13.396
26369W        W87823  26.988   0.297   3.350
26370W        W87824  44.333   9.278   4.350
26371W        W87825  14.753   9.667   1.905
26372W        W87826  30.438  26.183  14.874
26373W        W87827   4.205  44.988   4.196
26374W        W87828   5.847  36.497   3.263
26375W        W87829  12.681  17.100   1.873
26376W        W87830  23.573  21.173  13.436
26377W        W87831  39.962  41.420  14.905
26378W        W87832   7.188  41.300   0.933
26379W        W87833  34.413  42.504  12.944
26380W        W87834  34.403   6.298  13.886
26381W        W87835  34.418  43.456  11.114
26382W        W87836  12.266  15.108   0.338
26383W        W87837  35.488  37.560  11.034
26384W        W87838  18.770  44.462   4.726
26385W        W87839   5.914  43.921   2.256
26386W        W87840   9.289  13.842  10.981
26387W        W87841  32.900  33.481  12.361
26388W        W87842  39.935   0.750   4.150
26389W        W87843  42.967   5.259   0.287
26390W        W87844  22.645  13.282   3.655
26391W        W87845  11.702  17.614   4.253
26392W        W87846  10.235   7.387   2.317
26393W        W87847  26.062  26.618   2.326
26394W        W87848   0.747  44.905  10.896
26395W        W87849  30.533  39.326  13.003
26396W        W87850   5.387   7.901  12.563
26397W        W87851  19.068   7.800   2.784
26398W        W87852  17.740  31.052   3.737
26399W        W87853  33.550  11.737  13.945
26400W        W87854  19.186  27.184   4.837
26401W        W87855   1.973  19.694   1.264
26402W        W87856   7.332  37.063   3.703
26403W        W87857  26.156  13.143   3.301
26404W        W87858  30.020  24.715  10.623
26405W        W87859  16.290  33.014  12.915
26406W        W87860  23.652  25.561  11.965
26407W        W87861  24.165  41.521   2.867
26408W        W87862  31.102  29.111  13.450
26409W        W87863  12.289  26.983   3.231
26410W        W87864  16.232  28.054  10.462
26411W        W87865  39.845  11.640   3.689
26412W        W87866  15.149  20.768  10.893
26413W        W87867   3.267   3.295  13.498
26414W        W87868  31.986  41.965  11.954
26415W        W87869  18.152  44.806  14.875
26416W        W87870   5.422  43.446   0.894
26417W        W87871  34.877  22.099  12.356
26418W        W87872  14.739   4.424   1.215
26419W        W87873   0.407  15.813  11.539
26420W        W87874  38.441  10.203  10.604
26421W        W87875  13.838  11.197  12.909
26422W        W87876  11.674  28.633   3.670
26423W        W87877   3.768  31.511   4.211
26424W        W87878  21.582  34.372  11.481
26425W        W87879  24.623  21.252  14.408
26426W        W87880  23.727  31.532   2.834
26427W        W87881  14.262   7.898  11.563
26428W        W87882   4.325  26.578   3.171
26429W        W87883  19.686  14.659  13.018
26430W        W87884  30.650   3.456  13.953
26431W        W87885  20.657  14.756   2.335
26432W        W87886  26.160   2.838   2.797
26433W        W87887  27.461   6.899   4.178
26434W        W87888   8.376  19.199  14.871
26435W        W87889  44.344  41.977   3.647
26436W        W87890  37.580  11.278  14.815
26437W        W87891   2.407  43.910   2.759
26438W        W87892  36.014  39.317  11.959
26439W        W87893   3.760  37.872  14.354
26440W        W87894   3.810   7.295   2.890
26441W        W87895  12.178   8.693   3.741
26442W        W87896   0.868  39.877  10.619
26443W        W87897  33.041   4.328  12.568
26444W        W87898  21.119   8.290  14.991
26445W        W87899   7.289  40.463   1.289
26446W        W87900   7.784  26.669  10.107
26447W        W87901  26.168   7.811  12.463
26448W        W87902  14.231   0.275  13.025
26449W        W87903  29.585  28.181   2.210
26450W        W87904   4.433   8.296   4.240
26451W        W87905   2.339   9.269  10.423
26452W        W87906  38.495  43.797  13.405
26453W        W87907   5.263  43.909  11.076
26454W        W87908  21.543  33.975  14.414
26455W        W87909   0.480  21.671   2.411
26456W        W87910  38.563  15.223  14.375
26457W        W87911  33.565  10.297   4.272
26458W        W87912   9.278  20.610  11.541
26459W        W87913  24.660  33.442   0.363
26460W        W87914   4.302  21.605   3.324
26461W        W87915   6.907   0.933  11.514
26462W        W87916  36.495  13.254  14.294
26463W        W87917  22.705   6.713  12.350
26464W        W87918  28.174   8.314   3.367
26465W        W87919  44.279  24.983  11.871
26466W        W87920   4.872   4.327  12.539
26467W        W87921   0.824  44.381   3.740
26468W        W87922  44.906  26.990   0.920
26469W        W87923  44.473  42.303   3.831
26470W        W87924  38.371  19.669  14.916
26471W        W87925   4.785  31.098  13.516
26472W        W87926   5.360  38.357  12.033
26473W        W87927  37.377  41.377   0.958
26474W        W87928  16.785  32.125  11.867
26475W        W87929  23.580  16.160   4.632
26476W        W87930  24.084  36.873  13.988
26477W        W87931  25.151  13.300  13.861
26478W        W87932  11.193  40.002   9.436
26479W        W87933  10.794  31.480  10.130
26480W        W87934  41.869  31.640   1.254
26481W        W87935  40.480  21.185   4.277
26482W        W87936  33.615  21.188   0.959
26483W        W87937   7.877  13.734   1.218
26484W        W87938  26.153  25.017  12.495
26485W        W87939  35.009  31.404  12.065
26486W        W87940  22.517  20.043  12.079
26487W        W87941  33.072  26.136   3.813
26488W        W87942  24.085   0.434   0.256
26489W        W87943  40.830  25.021  12.449
26490W        W87944   2.952  44.956   1.252
26491W        W87945  25.629  31.544  14.770
26492W        W87946   7.181  40.859  12.350
26493W        W87947  11.851  26.159   0.409
26494W        W87948  24.569  35.946  14.824
26495W        W87949   3.444  22.215  13.488
26496W        W87950   6.360  10.716   1.887
26497W        W87951  35.069  39.421  13.912
26498W        W87952   9.756   9.834   4.218
26499W        W87953  38.039   9.697  10.452
26500W        W87954   2.312  10.190   1.320
26501W        W87955  41.372  18.651   4.250
26502W        W87956   2.464  12.324  11.443
26503W        W87957  27.067  12.154  11.107
26504W        W87958  35.454   2.247   0.350
26505W        W87959   5.914  43.470  10.997
26506W        W87960  32.070  10.315  13.972
26507W        W87961  19.235  21.127  13.810
26508W        W87962  23.999  21.568   1.877
26509W        W87963  23.108  18.727  13.877
26510W        W87964  26.566  22.534  11.024
26511W        W87965   5.296   0.851  10.941
26512W        W87966  14.703  20.085   3.190
26513W        W87967  40.509   0.974  12.884
26514W        W87968  32.536  27.566   3.756
26515W        W87969  38.839   8.163   2.691
26516W        W87970  13.264  38.849  10.540
26517W        W87971  13.625   5.877  10.922
26518W        W87972   4.398  36.970  14.515
26519W        W87973  17.135   9.751  10.411
26520W        W87974   0.471  37.536  12.361
26521W        W87975   8.694  28.614   4.218
26522W        W87976  34.432  14.093   2.878
26523W        W87977   0.841   8.895   0.412
26524W        W87978  44.390  10.855   3.345
26525W        W87979  42.404  32.987  14.393
26526W        W87980   1.338  22.746  14.802
26527W        W87981  24.528  38.991   0.888
26528W        W87982  27.481  30.501  10.020
26529W        W87983  29.064  22.237  12.518
26530W        W87984   5.733  31.911  14.830
26531W        W87985   8.308  42.958  12.980
26532W        W87986  39.539  19.663  10.520
26533W        W87987  13.224  34.999  12.909
26534W        W87988  26.992  20.682  14.793
26535W        W87989  41.033  20.221  14.005
26536W        W87990   1.414  10.294   3.369
26537W        W87991   4.928  42.334   1.794
26538W        W87992  14.221  19.166   9.584
26539W        W87993  30.454  12.264  12.370
26540W        W87994   2.461   6.414  10.464
26541W        W87995  13.662  33.118  14.840
26542W        W87996   3.929   1.384   1.773
26543W        W87997   8.323   8.670  10.913
26544W        W87998  18.296  37.423  11.027
26545W        W87999  36.848  29.061   1.368
26546W        W88000  37.440   7.195  12.085
26547W        W88001  19.740  37.408  14.024
26548W        W88002  36.860  19.678  14.457
26549W        W88003  38.465  22.700   0.322
26550W        W88004  38.540  33.115   2.418
26551W        W88005  15.087   0.461  10.981
26552W        W88006  19.124  23.139  10.889
26553W        W88007   7.275   6.697  12.988
26554W        W88008   1.325  36.862  11.891
26555W        W88009   4.750  21.057   1.213
26556W        W88010  32.552  35.068  11.582
26557W        W88011  16.189  18.565   2.857
26558W        W88012  31.521  38.028   1.390
26559W        W88013  32.484   3.359  12.404
26560W        W88014  20.270  20.718   4.243
26561W        W88015  14.660  36.097   2.395
26562W        W88016   9.158  33.513  12.372
26563W        W88017  22.674   1.346  11.046
26564W        W88018   0.871  13.196   3.337
26565W        W88019   0.764  18.272   4.659
26566W        W88020  32.480  16.659  10.933
26567W        W88021   4.343  32.093  11.008
26568W        W88022  28.025   2.958  11.456
26569W        W88023  43.430   1.794   9.940
26570W        W88024   5.864  43.991   3.360
26571W        W88025   2.315  27.520   0.862
26572W        W88026  31.945  39.940  14.785
26573W        W88027  29.006  32.625  12.394
26574W        W88028  38.402  21.047   0.943
26575W        W88029  31.583  11.349   0.308
26576W        W88030  31.592  16.595   1.727
26577W        W88031  21.571  12.278  13.794
26578W        W88032  40.511   1.479   3.258
26579W        W88033  38.499   2.234  12.445
26580W        W88034   9.379  32.047  11.573
26581W        W88035  20.650   9.698   1.392
26582W        W88036  15.308  39.379   3.292
26583W        W88037  10.821  32.453  12.914
26584W        W88038  42.445  34.577   4.699
26585W        W88039  35.388  18.087  13.479
26586W        W88040  33.936  12.241  12.954
26587W        W88041  24.183   6.776   3.788
26588W        W88042  25.052  28.117   0.326
26589W        W88043  25.184  28.606  14.980
26590W        W88044  11.256  29.538   4.630
26591W        W88045  42.485  34.882   3.222
26592W        W88046  33.524  15.128  12.576
26593W        W88047  40.539  29.532  14.484
26594W        W88048  15.225  17.164   4.820
26595W        W88049  35.440  39.914   1.233
26596W        W88050   5.814  27.569   1.815
26597W        W88051  34.113  12.168   2.843
26598W        W88052  28.545  19.138  13.801
26599W        W88053   1.391  32.455   2.412
26600W        W88054  23.724  43.968   4.698
26601W        W88055  25.605   0.830   1.817
26602W        W88056  26.059  27.519   4.673
26603W        W88057  12.708  13.621  10.040
26604W        W88058  41.788  20.522  12.882
26605W        W88059  41.901  23.668  12.379
26606W        W88060   6.277  33.123  13.843
26607W        W88061  44.822  15.630  14.957
26608W        W88062  34.578  38.018  13.459
26609W        W88063   9.820  17.295   4.602
26610W        W88064  10.376  36.001  12.948
26611W        W88065   1.433  40.947  12.354
26612W        W88066   5.697  30.145   2.354
26613W        W88067  36.535  11.282  12.857
26614W        W88068  11.792   7.241  12.403
26615W        W88069   5.796   6.187  11.061
26616W        W88070  26.581  25.615   3.157
26617W        W88071  13.731  12.257   1.302
26618W        W88072  21.232  11.798  14.438
26619W        W88073  25.557  41.879   1.409
26620W        W88074  12.721   7.806  13.013
26621W        W88075  34.547  35.084   0.439
26622W        W88076  25.998  42.294   2.375
26623W        W88077  12.816   2.863   1.272
26624W        W88078  39.880  39.817   3.777
26625W        W88079  23.202  30.614  14.989
26626W        W88080  20.042  37.436   1.383
26627W        W88081  18.688  30.154  12.031
26628W        W88082  20.685   2.767   1.421
26629W        W88083  32.505  26.632   4.171
26630W        W88084  21.641  43.432   2.315
26631W        W88085  40.821   5.329   1.384
26632W        W88086  30.450  32.933  10.997
26633W        W88087  30.918  30.624   2.738
26634W        W88088  24.690   2.322   9.666
26635W        W88089  23.142   0.807   4.251
26636W        W88090  31.920  28.028  12.351
26637W        W88091  24.575   4.240  12.388
26638W        W88092  33.442  13.802  11.081
26639W        W88093  10.303  20.095  11.920
26640W        W88094  27.459  42.990   4.711
26641W        W88095   4.706  22.013  10.903
26642W        W88096  22.230  44.395   0.735
26643W        W88097  36.502  32.402   3.736
26644W        W88098  43.945  26.068  11.953
26645W        W88099  26.085  32.069   1.281
26646W        W88100   6.731   3.380   0.341
26647W        W88101  17.206  41.354  14.334
26648W        W88102   8.819  43.320   2.350
26649W        W88103  36.900  39.366  12.363
26650W        W88104  34.403   6.890   2.780
26651W        W88105  24.031  29.636   5.157
26652W        W88106  38.932  29.921  13.962
26653W        W88107  22.702  17.258   4.207
26654W        W88108   2.370  24.633   3.310
26655W        W88109  17.230   0.351  13.834
26656W        W88110  29.948  14.825   2.206
26657W        W88111  17.154  25.187   2.796
26658W        W88112   1.466  23.674   4.321
26659W        W88113  36.373  36.531   2.348
26660W        W88114  25.527  21.731   1.725
26661W        W88115   2.436  22.203   3.783
26662W        W88116  41.364   2.229  13.006
26663W        W88117  39.514  39.987   0.435
26664W        W88118  22.731   6.404   5.118
26665W        W88119   1.762  22.105   4.181
26666W        W88120  34.581  41.390  14.015
26667W        W88121  22.671   5.431  13.487
26668W        W88122   5.413  25.159  12.432
26669W        W88123  33.521  40.798   3.184
26670W        W88124   4.341  15.156  13.396
26671W        W88125  40.929   6.257   1.352
26672W        W88126  32.098  33.501  12.420
26673W        W88127  23.145  13.112  14.308
26674W        W88128   3.418   7.400  12.041
26675W        W88129  30.537   6.405  12.386
26676W        W88130  15.129  14.115  11.513
26677W        W88131  42.493   6.676   4.691
26678W        W88132  17.144  35.592  13.316
26679W        W88133  10.358  39.388   5.572
26680W        W88134  16.124  12.274   2.798
26681W        W88135  41.005  10.199  13.458
26682W        W88136  13.814  43.810   4.158
26683W        W88137  24.546  26.678  14.338
26684W        W88138  11.865  17.753   1.439
26685W        W88139  14.754  20.679   3.864
26686W        W88140  27.076   8.226   3.762
26687W        W88141  35.901  29.958   0.312
26688W        W88142   2.311  38.519   0.250
26689W        W88143  28.090  40.799   2.868
26690W        W88144  31.545   6.190   3.297
26691W        W88145  36.881   3.814   0.782
26692W        W88146  19.564  20.243   0.752
26693W        W88147   1.402  33.986  13.383
26694W        W88148  43.395   4.824  12.904
26695W        W88149  37.838  42.350   1.443
26696W        W88150  23.136  26.682  11.906
26697W        W88151  44.973  30.645  14.812
26698W        W88152   0.261  22.571   0.751
26699W        W88153   2.278   7.846  14.325
26700W        W88154  24.571   9.256  11.864
26701W        W88155  43.465   9.277  12.989
26702W        W88156  31.140  31.442   3.855
26703W        W88157  24.192  27.457  12.349
26704W        W88158  18.620  32.453  14.985
26705W        W88159   7.720   8.758   9.939
26706W        W88160  31.556  42.512   3.159
26707W        W88161  38.841  10.746  10.899
26708W        W88162  17.167  34.522   2.797
26709W        W88163   1.321  39.329   4.185
26710W        W88164  27.620   8.671  13.929
26711W        W88165  16.289  43.511  14.829
26712W        W88166   8.672   8.311   1.331
26713W        W88167  41.301  37.872  12.858
26714W        W88168  34.970  41.908  12.062
26715W        W88169  20.761  11.846  13.021
26716W        W88170   0.902   9.647   1.769
26717W        W88171  34.603  10.153  13.835
26718W        W88172  28.106   7.258   2.300
26719W        W88173  39.415  17.270  11.990
26720W        W88174  16.206  38.932   5.761
26721W        W88175   3.917  43.318  11.922
26722W        W88176   4.362  34.983   2.243
26723W        W88177  23.541  33.060  13.813
26724W        W88178  26.460  11.682  12.381
26725W        W88179   3.942  33.934  14.307
26726W        W88180  36.908  23.511  10.904
26727W        W88181  42.418  11.269  11.486
26728W        W88182  21.745   3.942  14.938
26729W        W88183  24.110   6.784   1.776
26730W        W88184   8.894  43.329   5.321
26731W        W88185  39.006  31.630  14.352
26732W        W88186  23.021  28.057  13.546
26733W        W88187  21.256  11.688   3.754
26734W        W88188  30.445   0.337  12.580
26735W        W88189  20.059  35.458  14.886
26736W        W88190  13.640   2.915   2.868
26737W        W88191   9.801   9.277   0.245
26738W        W88192  28.932  30.133  12.904
26739W        W88193  22.096  14.721   1.388
26740W        W88194   2.280   7.867   2.701
26741W        W88195  44.833   7.800   0.838
26742W        W88196  11.135   0.326   1.853
26743W        W88197  33.107  32.117   0.801
26744W        W88198  40.972  36.392   4.327
26745W        W88199  41.962  40.449  10.093
26746W        W88200  18.590  10.796  13.963
26747W        W88201  43.842  20.122  10.952
26748W        W88202   9.370  31.420  11.569
26749W        W88203  10.664  44.466   4.246
26750W        W88204  34.386  14.229  11.421
26751W        W88205  40.828  34.866   1.211
26752W        W88206   4.737   7.398   0.895
26753W        W88207  39.015   5.229   4.797
26754W        W88208  19.648  27.597   2.313
26755W        W88209   5.204  17.291  13.508
26756W        W88210   6.834  41.476   4.604
26757W        W88211  27.603  15.799   4.759
26758W        W88212  42.849  18.171   1.377
26759W        W88213   8.223   2.902  11.592
26760W        W88214  37.954   8.891  12.919
26761W        W88215  21.668  41.336   0.878
26762W        W88216   1.749  40.369  11.520
26763W        W88217  39.403  24.502  10.971
26764W        W88218   7.679  36.583  13.981
26765W        W88219   4.301  37.953  11.537
26766W        W88220  29.932  35.078   3.864
26767W        W88221   0.779   3.795   4.207
26768W        W88222  38.478  32.629  13.064
26769W        W88223  16.181   1.777   0.395
26770W        W88224  29.960   6.184   5.279
26771W        W88225  26.022  33.392  12.849
26772W        W88226  34.026  25.047  14.448
26773W        W88227  15.717  38.429  14.845
26774W        W88228  26.550  18.619  10.531
26775W        W88229  16.654  30.928  14.864
26776W        W88230   8.342  38.493   3.147
26777W        W88231  17.612  31.612   1.400
26778W        W88232  43.943  13.798   1.280
26779W        W88233  18.558  13.642  14.960
26780W        W88234  17.084  18.719  12.469
26781W        W88235  20.538  30.501   1.428
26782W        W88236  25.534   7.777  10.468
26783W        W88237  23.056  21.644  11.513
26784W        W88238   8.209  22.604   1.303
26785W        W88239  33.977   1.253  14.965
26786W        W88240  41.937  30.550   3.222
26787W        W88241  32.465  34.898   2.355
26788W        W88242  38.944  16.759   0.340
26789W        W88243  10.695  29.518   0.396
26790W        W88244  26.144  26.638  11.554
26791W        W88245  25.994  23.699   4.257
26792W        W88246  36.548  42.370   4.144
26793W        W88247  35.445  40.817  12.938
26794W        W88248  19.086   2.319  11.894
26795W        W88249   7.684  34.100   1.228
26796W        W88250  38.426  26.987  12.081
26797W        W88251   9.706   4.389   1.287
26798W        W88252  32.588  28.531   2.878
26799W        W88253  36.357  42.012   1.413
26800W        W88254  18.714  20.049   1.445
26801W        W88255   5.791  30.538   4.305
26802W        W88256  37.375  12.204   2.710
26803W        W88257  14.119  14.238  13.984
26804W        W88258  36.957  14.797   0.336
26805W        W88259  24.635  12.684   4.818
26806W        W88260  38.526  17.102   1.380
26807W        W88261  17.792  38.954  13.502
26808W        W88262   0.397  18.217   3.197
26809W        W88263  24.681   1.863   1.282
26810W        W88264  25.540  30.159   2.696
26811W        W88265  14.272  44.832  14.952
26812W        W88266  14.192  19.213   2.831
26813W        W88267  30.507  25.004  14.399
26814W        W88268  35.597  12.832   0.336
26815W        W88269  29.114   6.270   2.804
26816W        W88270  26.667  30.139   1.783
26817W        W88271  43.376  25.504   3.738
26818W        W88272  11.353   7.186  13.337
26819W        W88273   5.858  12.183  12.486
26820W        W88274  20.675  42.032   4.297
26821W        W88275   9.686  19.156  11.551
26822W        W88276  43.419  33.477   1.751
26823W        W88277  17.209  31.464   3.202
26824W        W88278  34.418  26.689   4.630
26825W        W88279  29.919  40.353  13.918
26826W        W88280  21.033  30.503  12.533
26827W        W88281  21.065  20.231  11.003
26828W        W88282  21.075  17.123   4.729
26829W        W88283   9.360  27.081  13.329
26830W        W88284  16.572   0.309  12.037
26831W        W88285  25.974  42.953  11.009
26832W        W88286  19.723  28.621  13.421
26833W        W88287  22.084  32.047  14.011
26834W        W88288   6.773  11.738   4.604
26835W        W88289   7.286  19.067  11.426
26836W        W88290   3.258   7.745  14.863
26837W        W88291   4.375  18.177   3.349
26838W        W88292  22.667   4.816   0.846
26839W        W88293  43.307  24.066  14.768
26840W        W88294   1.309  27.169   4.281
26841W        W88295  25.150  42.472   1.935
26842W        W88296  39.026  29.964  12.563
26843W        W88297  43.341  39.862   1.348
26844W        W88298  40.418  16.255   1.928
26845W        W88299  16.309  17.116  14.455
26846W        W88300  27.175   7.329  12.388
26847W        W88301   2.331  14.197   3.830
26848W        W88302  39.848  20.111   2.708
26849W        W88303  23.054  40.883  14.288
26850W        W88304   2.251  23.550  12.072
26851W        W88305  26.192  43.896  14.908
26852W        W88306  17.136  25.671   2.216
26853W        W88307   9.879  27.132  13.394
26854W        W88308  21.122  38.950   3.189
26855W        W88309  25.094  30.577  13.982
26856W        W88310  17.143  18.631  13.476
26857W        W88311  28.086  26.564   2.716
26858W        W88312  13.153  25.157  11.094
26859W        W88313  14.627  31.615  12.892
26860W        W88314  35.054  38.441   0.454
26861W        W88315  29.926   1.838   5.141
26862W        W88316  16.693  38.545  14.508
26863W        W88317   6.298   2.367  11.860
26864W        W88318  36.896   1.769  11.876
26865W        W88319  38.509  20.651   0.302
26866W        W88320  44.261   9.831   4.279
26867W        W88321  25.158  32.522   2.712
26868W        W88322  43.418  29.461   4.236
26869W        W88323  39.479  39.817   2.692
26870W        W88324  38.933  41.852  14.391
26871W        W88325  32.903  44.410  13.936
26872W        W88326   0.954  38.329   2.287
26873W        W88327   5.854  18.262  12.037
26874W        W88328  20.666  23.515   3.670
26875W        W88329   3.741   8.194  14.985
26876W        W88330  17.088  41.523   5.184
26877W        W88331  22.656  35.385  14.392
26878W        W88332  12.722   6.271   3.343
26879W        W88333  25.156  18.677  10.420
26880W        W88334   9.818   5.755   4.334
26881W        W88335  26.639  15.281   2.835
26882W        W88336  28.025  21.568   5.206
26883W        W88337  16.246   6.228   4.152
26884W        W88338  25.667  40.302   3.296
26885W        W88339   6.735   0.465   4.279
26886W        W88340   0.919  13.175  10.451
26887W        W88341   2.738  43.999   0.856
26888W        W88342  43.900  39.975  10.951
26889W        W88343  14.230   1.732  14.851
26890W        W88344  22.009  42.397   0.842
26891W        W88345  20.263  24.611  11.411
26892W        W88346  27.646  34.103   0.933
26893W        W88347  17.612  26.565  14.965
26894W        W88348  17.786  10.644   2.260
26895W        W88349  15.792   1.879  14.922
26896W        W88350   0.862  10.759  14.955
26897W        W88351   1.903  12.795   3.204
26898W        W88352  14.599  38.931   0.472
26899W        W88353  28.656  24.214  11.423
26900W        W88354   7.309  12.182   1.297
26901W        W88355  23.671   5.721   2.755
26902W        W88356  26.465  40.934  10.429
26903W        W88357  39.453   4.839   2.888
26904W        W88358  42.824  24.117  11.004
26905W        W88359   2.844   8.170   1.357
26906W        W88360   0.469   0.398   0.938
26907W        W88361  30.535   4.867  14.500
26908W        W88362  26.092  11.271   3.780
26909W        W88363  13.718  35.513  11.912
26910W        W88364  34.540   1.290   3.351
26911W        W88365  18.553  21.051  12.990
26912W        W88366  37.835  14.318   5.268
26913W        W88367  21.710  14.619  11.573
26914W        W88368  33.934  12.701   2.194
26915W        W88369   4.837  27.513  10.616
26916W        W88370  17.563   6.276   3.708
26917W        W88371   4.737  35.855  12.547
26918W        W88372  29.050   6.824  12.981
26919W        W88373  39.969  19.097   3.774
26920W        W88374  40.531  33.022   3.828
26921W        W88375  37.865   3.891  13.382
26922W        W88376   1.349  11.730  12.393
26923W        W88377  23.723  44.833   2.334
26924W        W88378  44.413  15.702   0.380
26925W        W88379  13.192   0.385  10.520
26926W        W88380  29.937   5.434   1.781
26927W        W88381  17.096  10.653   3.222
26928W        W88382  18.623   1.336  13.468
26929W        W88383  17.276  37.553   3.182
26930W        W88384  23.128   4.319   2.323
26931W        W88385   9.816   5.427   2.770
26932W        W88386  13.679  27.525   0.914
26933W        W88387  34.903  24.527  13.519
26934W        W88388  13.615   6.726   0.756
26935W        W88389  36.991  17.591  14.854
26936W        W88390   1.797  13.811   0.935
26937W        W88391  38.010   6.378  12.354
26938W        W88392  29.969  12.707   5.115
26939W        W88393  11.768   9.647   0.333
26940W        W88394  32.063  29.921  11.083
26941W        W88395  28.531  43.446  13.512
26942W        W88396   1.251  18.749  13.324
26943W        W88397  32.509  12.611   3.669
26944W        W88398  30.580  20.126  12.961
26945W        W88399  22.194  43.971   1.276
26946W        W88400   2.867  37.884   4.838
26947W        W88401   0.868  24.581  13.381
26948W        W88402  37.387  43.304   0.380
26949W        W88403  11.700  30.040  13.386
26950W        W88404  37.963   6.825   4.706
26951W        W88405   3.803   1.973  14.874
26952W        W88406  16.673  15.749   0.965
26953W        W88407  21.111  43.318  10.496
26954W        W88408  16.300   0.749   2.779
26955W        W88409  36.465  37.524   4.300
26956W        W88410   2.736   3.817  12.991
26957W        W88411  43.298  39.537   4.778
26958W        W88412  24.629  30.133  14.285
26959W        W88413  28.176  22.123   0.831
26960W        W88414  12.327  23.165   1.246
26961W        W88415  28.635   9.174  10.448
26962W        W88416  34.586  44.758  11.950
26963W        W88417  14.636   7.801  14.812
26964W        W88418  44.881  10.383   3.210
26965W        W88419  13.239  11.814   1.871
26966W        W88420  28.494  40.911  12.954
26967W        W88421  43.813  35.429   1.391
26968W        W88422  43.272  12.268  14.380
26969W        W88423  35.575  18.769  11.597
26970W        W88424   0.381  44.391  12.899
26971W        W88425  11.220  32.101  14.348
26972W        W88426  25.477  31.989  10.936
26973W        W88427  16.226  39.842  13.856
26974W        W88428  21.517   6.677   2.753
26975W        W88429  31.542  28.150   3.255
26976W        W88430   5.335   4.278  12.842
26977W        W88431  40.850  29.073  11.052
26978W        W88432  10.691  36.545  11.120
26979W        W88433  19.045  27.022   3.823
26980W        W88434  29.492  31.101   1.881
26981W        W88435  34.020   3.838   1.717
26982W        W88436  44.415  18.090   0.297
26983W        W88437  31.930   7.711   1.855
26984W        W88438  12.634  39.489   3.149
26985W        W88439  10.639   4.864  14.886
26986W        W88440  31.521  44.266  11.080
26987W        W88441  38.546  24.199  11.055
26988W        W88442  27.164  41.356   0.254
26989W        W88443  31.114  34.589   0.344
26990W        W88444  21.121   9.849  14.875
26991W        W88445   7.301   6.708  11.528
26992W        W88446   4.270   0.407   1.759
26993W        W88447   7.242  19.264   0.882
26994W        W88448  22.592   4.250   1.316
26995W        W88449  33.090  34.480   4.743
26996W        W88450  34.587  43.972   4.768
26997W        W88451  25.029   1.237  13.443
26998W        W88452  24.108   6.901   3.326
26999W        W88453  25.006  39.340   0.947
27000W        W88454  10.223   8.242  12.843
27001W        W88455   1.954  10.170  13.540
27002W        W88456  37.831   7.309  13.831
27003W        W88457  28.547  25.093   2.219
27004W        W88458  25.130  35.109  13.479
27005W        W88459  35.461  14.779  13.991
27006W        W88460   1.863  12.328   1.308
27007W        W88461   6.744  21.258  11.477
27008W        W88462  26.044  20.565  14.831
27009W        W88463   6.894  43.438  11.097
27010W        W88464   1.240  11.255   0.933
27011W        W88465  41.457  43.784   2.697
27012W        W88466   4.367  31.504   1.264
27013W        W88467   1.274  14.309  11.561
27014W        W88468  11.724  34.998   2.710
27015W        W88469  17.591  25.499   2.713
27016W        W88470  13.625  15.136  13.822
27017W        W88471   5.400  21.655  12.856
27018W        W88472  23.105  10.695   4.284
27019W        W88473  36.885  42.023   4.189
27020W        W88474  27.601  31.965  13.949
27021W        W88475  25.670  32.081  12.390
27022W        W88476  13.783  15.124   1.695
27023W        W88477  17.726  41.026   1.831
27024W        W88478  21.666   8.380   1.723
27025W        W88479   4.278  20.142   1.751
27026W        W88480  21.211  19.712   3.346
27027W        W88481  41.025   7.187  11.923
27028W        W88482  29.477   1.435  11.933
27029W        W88483  41.311  19.605   3.171
27030W        W88484  39.854  14.206   3.361
27031W        W88485  14.167  23.633   2.832
27032W        W88486  42.477  35.992   4.155
27033W        W88487  14.788  43.306   3.207
27034W        W88488  37.869  37.872   9.569
27035W        W88489   5.344   0.424  12.016
27036W        W88490  34.033  41.336   0.449
27037W        W88491  22.146   9.305  11.108
27038W        W88492  28.654  15.140  10.592
27039W        W88493  11.145  10.225   2.289
27040W        W88494  22.740  25.084   1.332
27041W        W88495  44.856  27.046  12.497
27042W        W88496   4.766   5.740  13.528
27043W        W88497  24.043  24.592   1.859
27044W        W88498  31.004  13.667  14.779
27045W        W88499  15.128  27.639   3.373
27046W        W88500  39.360  39.932   3.735
27047W        W88501  13.189  33.419  12.052
27048W        W88502  44.004  19.599  11.107
27049W        W88503  27.589  25.218   3.337
27050W        W88504  21.645  36.431   1.288
27051W        W88505  22.208  10.267  10.976
27052W        W88506   8.830  14.718   4.318
27053W        W88507  40.980  42.823  11.049
27054W        W88508  17.287  16.591   1.854
27055W        W88509  39.898  15.700   0.831
27056W        W88510  42.331  22.708   4.720
27057W        W88511  22.509  28.126   1.749
27058W        W88512  20.214  44.897   0.399
27059W        W88513  22.007  25.103  13.827
27060W        W88514  15.749  17.257  13.516
27061W        W88515  30.039  31.116  11.002
27062W        W88516   2.299  37.394  11.936
27063W        W88517  34.433  23.655   0.837
27064W        W88518  16.111  10.290   4.672
27065W        W88519  37.428  29.989  13.022
27066W        W88520   0.452  15.264   2.875
27067W        W88521  40.968  15.179   1.397
27068W        W88522  13.829  32.609   3.185
27069W        W88523  12.709  26.522  10.017
27070W        W88524   7.776  25.584   4.684
27071W        W88525  24.151  35.429   1.923
27072W        W88526  37.946  15.685  11.943
27073W        W88527  12.803  30.042   3.344
27074W        W88528  42.778  35.875   4.782
27075W        W88529  30.914   2.394  14.900
27076W        W88530  44.848  34.031  10.600
27077W        W88531  33.508   0.929  10.528
27078W        W88532  30.625  15.769   3.250
27079W        W88533  19.179  18.715   1.698
27080W        W88534  24.047   8.806  11.020
27081W        W88535   9.676  28.076   0.286
27082W        W88536   9.871  27.142   2.254
27083W        W88537   1.434  22.021   3.328
27084W        W88538  32.520  38.424   3.746
27085W        W88539  30.135  13.844  13.911
27086W        W88540  10.200  27.683   2.226
27087W        W88541   4.221  14.752  10.973
27088W        W88542   9.879  37.522   3.635
27089W        W88543  10.833  26.599  11.022
27090W        W88544   2.430  10.243   0.858
27091W        W88545  41.983  27.116  14.480
27092W        W88546  27.125  28.173  12.378
27093W        W88547  15.679  37.409   4.169
27094W        W88548  20.761  29.424  11.908
27095W        W88549  26.046  30.985   2.287
27096W        W88550  39.500  28.168  11.410
27097W        W88551  44.881  40.957  14.929
27098W        W88552  27.507  34.050  11.956
27099W        W88553  12.162  36.978   3.219
27100W        W88554   8.900   7.879   5.194
27101W        W88555  19.060  37.871  10.971
27102W        W88556   7.879   9.334  11.955
27103W        W88557  36.928  17.794  11.541
27104W        W88558  18.069  28.443   4.315
27105W        W88559  28.074  33.561  10.437
27106W        W88560  15.701  27.564   3.706
27107W        W88561  38.842  11.292   0.753
27108W        W88562  15.296   1.410  12.376
27109W        W88563  26.015  25.697   3.203
27110W        W88564  13.303  26.465   2.417
27111W        W88565  22.546  20.685  14.922
27112W        W88566   1.742  25.563   4.628
27113W        W88567  43.335  26.974  11.020
27114W        W88568  33.557  11.200   3.749
27115W        W88569   8.772  41.409   2.686
27116W        W88570  33.112  43.826   2.684
27117W        W88571   0.915  15.585  13.013
27118W        W88572  34.603  31.018   3.642
27119W        W88573  40.545  22.650   3.208
27120W        W88574  28.042  39.835   4.263
27121W        W88575  42.031  38.544  13.432
27122W        W88576   4.701  31.936   5.097
27123W        W88577  33.072  30.487  11.030
27124W        W88578  24.579  25.638  12.975
27125W        W88579  36.099   9.202   5.258
27126W        W88580   0.912   9.376   4.206
27127W        W88581  22.032   3.782   3.694
27128W        W88582  30.013   4.863  14.341
27129W        W88583  27.539  21.241   5.686
27130W        W88584   1.367   7.336  13.955
27131W        W88585  23.119   3.219  12.980
27132W        W88586   3.327  20.577  13.866
27133W        W88587  27.148  18.680   0.355
27134W        W88588  25.111  26.133   3.747
27135W        W88589  14.148  36.569  14.032
27136W        W88590  41.019  44.948  13.843
27137W        W88591  42.452  13.710  11.881
27138W        W88592  39.934  29.479  14.304
27139W        W88593  42.857  44.311  14.912
27140W        W88594  31.037  40.891  10.631
27141W        W88595  29.649  32.975   0.419
27142W        W88596   1.745   9.797   3.729
27143W        W88597  31.979  41.917   4.711
27144W        W88598  32.032  31.587   0.929
27145W        W88599   5.196   8.791  13.835
27146W        W88600  34.386  19.746  13.343
27147W        W88601  36.967  24.152  11.063
27148W        W88602   3.839  14.190   3.845
27149W        W88603  15.283  20.758   3.376
27150W        W88604   3.853  36.032  10.997
27151W        W88605  14.698  37.579   4.256
27152W        W88606  26.670  29.611   1.419
27153W        W88607  27.617  11.739  12.945
27154W        W88608  25.577  11.155   3.724
27155W        W88609  23.515  15.787   2.237
27156W        W88610   8.197  12.812   0.858
27157W        W88611  13.652  43.877  11.966
27158W        W88612  15.168  26.669  14.477
27159W        W88613  26.622   9.820   4.774
27160W        W88614  34.120   3.848   4.646
27161W        W88615   2.950  19.274  12.494
27162W        W88616  19.128  43.789  13.886
27163W        W88617  11.299  35.493   2.710
27164W        W88618  14.324   4.259   2.777
27165W        W88619   3.766   7.207  12.889
27166W        W88620  42.845  15.307   4.758
27167W        W88621  23.694  41.041  14.363
27168W        W88622  30.087   9.239   4.249
27169W        W88623  33.971  37.870   4.598
27170W        W88624   2.856  35.901   4.739
27171W        W88625  15.178  40.401   5.181
27172W        W88626  44.785  41.968  12.027
27173W        W88627  21.599  33.579  14.786
27174W        W88628  29.645  23.154  14.314
27175W        W88629  35.546  23.523   2.887
27176W        W88630  18.628  29.000   2.350
27177W        W88631  24.113  44.888  11.051
27178W        W88632  23.549  39.345   4.249
27179W        W88633  39.392  23.627  11.537
27180W        W88634  20.253   4.774  10.606
27181W        W88635   6.751  19.590   3.654
27182W        W88636   3.951  30.569  13.054
27183W        W88637  21.060  10.656   3.772
27184W        W88638  30.936  13.159  12.026
27185W        W88639  37.349  41.985   1.925
27186W        W88640  25.706  32.969   5.228
27187W        W88641  30.912   4.231   1.440
27188W        W88642  10.799   3.392  11.507
27189W        W88643  20.604  27.978  13.381
27190W        W88644  42.011  22.549   2.761
27191W        W88645   2.942  38.401  10.563
27192W        W88646  11.657  31.035  10.520
27193W        W88647  22.121  23.152  12.577
27194W        W88648  38.830   6.860   0.334
27195W        W88649   6.691  37.006  12.036
27196W        W88650  35.567  18.746   0.358
27197W        W88651  16.190  23.587  14.479
27198W        W88652   3.410  36.954  10.946
27199W        W88653  24.523  11.688   3.321
27200W        W88654  20.145   0.960   2.724
27201W        W88655  14.228  21.754  11.022
27202W        W88656  30.025  13.606  11.446
27203W        W88657  11.831   9.728   1.760
27204W        W88658  39.390   9.366  14.785
27205W        W88659  24.030  27.062   3.653
27206W        W88660  28.169  30.914  14.871
27207W        W88661  23.543   4.304   1.242
27208W        W88662   7.287   3.276  14.027
27209W        W88663   2.757   2.868   4.167
27210W        W88664  10.299  38.561  12.574
27211W        W88665  26.652   2.900   2.316
27212W        W88666  25.112  33.934   4.270
27213W        W88667  14.264   7.757  11.078
27214W        W88668  35.473  36.539   2.198
27215W        W88669  32.046  32.932   0.396
27216W        W88670  44.333  24.637   0.481
27217W        W88671  19.598  30.078  12.497
27218W        W88672   6.416  15.686  12.520
27219W        W88673  21.534  39.037  11.412
27220W        W88674  31.132   0.288  12.900
27221W        W88675  18.549   9.679   2.273
27222W        W88676  39.932  30.551  14.298
27223W        W88677  14.328  13.701  13.054
27224W        W88678  20.672  25.604   2.206
27225W        W88679   8.728  37.897  11.522
27226W        W88680  14.211  44.815   0.866
27227W        W88681  34.585  35.382  11.502
27228W        W88682  27.651  37.475   3.285
27229W        W88683  37.982  32.040   3.235
27230W        W88684   8.192  31.409   2.706
27231W        W88685  43.387  21.038  11.123
27232W        W88686  44.002  18.214   2.684
27233W        W88687  25.066   2.782   0.243
27234W        W88688  22.130   9.172   2.333
27235W        W88689  37.885  36.973   0.866
27236W        W88690  32.015   0.325   0.908
27237W        W88691  15.790  28.108   5.250
27238W        W88692  26.136  27.624  10.497
27239W        W88693   8.660  36.458  12.501
27240W        W88694  17.773  23.166  13.359
27241W        W88695  19.117  38.370   1.856
27242W        W88696  38.414  33.895  12.991
27243W        W88697  32.055  38.830  11.599
27244W        W88698  22.217  29.016   4.697
27245W        W88699  34.532  27.584   0.359
27246W        W88700  39.860  24.192   0.912
27247W        W88701  18.547  41.854   1.768
27248W        W88702   9.207  13.715   4.625
27249W        W88703  23.171  24.140   4.189
27250W        W88704  44.321   8.208   2.326
27251W        W88705  20.526   9.722   3.217
27252W        W88706  37.479   8.777   2.889
27253W        W88707  38.384  24.503  11.403
27254W        W88708  19.107  37.495  11.522
27255W        W88709   7.352  21.241  11.992
27256W        W88710  11.736  39.052   1.230
27257W        W88711  26.009  39.013   4.799
27258W        W88712  36.423   6.809  10.610
27259W        W88713  12.292  34.985   3.693
27260W        W88714  13.144  14.762   0.457
27261W        W88715   7.755  31.978   3.836
27262W        W88716  36.015  26.567   1.874
27263W        W88717  42.411  16.591   2.801
27264W        W88718  31.901  25.485  10.930
27265W        W88719   6.305  19.685  11.987
27266W        W88720  41.815  20.121  10.456
27267W        W88721  33.122  38.931  13.394
27268W        W88722  21.072  40.883  11.483
27269W        W88723  29.662  17.253   4.197
27270W        W88724  43.385  26.465   0.479
27271W        W88725  20.632  43.923   3.809
27272W        W88726  16.299  29.631   4.800
27273W        W88727  30.042  40.388   4.789
27274W        W88728  43.379   8.758   4.801
27275W        W88729   1.362   8.846   0.409
27276W        W88730  40.382  39.881   0.299
27277W        W88731  11.363  43.802   2.326
27278W        W88732  12.647  20.110  13.447
27279W        W88733   4.864  20.191   3.198
27280W        W88734  13.753  28.092  14.428
27281W        W88735  36.538  37.476   2.823
27282W        W88736  39.854  29.538   4.272
27283W        W88737   7.821  14.232   2.691
27284W        W88738  19.688  16.218  11.576
27285W        W88739   7.197   0.384   0.910
27286W        W88740  32.923   4.929   0.442
27287W        W88741  16.671  28.613   4.661
27288W        W88742  40.801   6.322  13.919
27289W        W88743  38.071   6.915   2.400
27290W        W88744   4.310  39.454   3.655
27291W        W88745  35.003  33.412  13.055
27292W        W88746  25.635  13.318   2.676
27293W        W88747   5.769   5.884  14.006
27294W        W88748  17.270  29.951   3.225
27295W        W88749  23.156   1.899  10.552
27296W        W88750   2.827   4.443  13.035
27297W        W88751  35.561   6.869   3.241
27298W        W88752   8.382  34.866  14.375
27299W        W88753  27.001  32.914   1.805
27300W        W88754   2.909  38.885  10.609
27301W        W88755  30.564  28.139   0.346
27302W        W88756  42.950  33.548  10.488
27303W        W88757   1.399  13.758  14.388
27304W        W88758  36.540  21.641   1.824
27305W        W88759   9.855   6.852  10.507
27306W        W88760  23.630   5.861   0.833
27307W        W88761  34.494  40.810  13.875
27308W        W88762  38.833  30.129   1.327
27309W        W88763  27.082  28.555   4.265
27310W        W88764  18.638   7.725  10.409
27311W        W88765  16.225  18.256   4.276
27312W        W88766  13.159  30.571  13.871
27313W        W88767  13.152  42.303  10.642
27314W        W88768  40.958  37.950  13.511
27315W        W88769  14.640  37.504  11.505
27316W        W88770  27.497  41.847   2.285
27317W        W88771  25.664  27.057   2.379
27318W        W88772  33.941   2.864  14.855
27319W        W88773  35.483  17.610   1.270
27320W        W88774   0.364  23.637   1.434
27321W        W88775  35.946   9.698   3.645
27322W        W88776  34.038  41.891  11.590
27323W        W88777  12.149  30.037   3.864
27324W        W88778  35.587   8.238   1.249
27325W        W88779  30.513  40.911   0.270
27326W        W88780   4.247  34.089  14.396
27327W        W88781  35.081  35.563   1.812
27328W        W88782  34.594  38.495  10.427
27329W        W88783  27.576  15.289   1.863
27330W        W88784  19.152  22.636  10.890
27331W        W88785  25.556  15.762   0.277
27332W        W88786  43.290  34.470  12.548
27333W        W88787   8.326  23.991   2.359
27334W        W88788  13.680   6.775  12.987
27335W        W88789  23.022  23.521   0.882
27336W        W88790  42.428  11.349  10.933
27337W        W88791   6.681  37.353  12.088
27338W        W88792  20.038  13.761   0.870
27339W        W88793  35.556  32.584  12.853
27340W        W88794  32.464  38.967   1.882
27341W        W88795  13.794  18.708  12.840
27342W        W88796  15.673  42.799  10.599
27343W        W88797   9.383  25.690   4.626
27344W        W88798  42.819  37.345  12.008
27345W        W88799   1.258  34.018  13.799
27346W        W88800  41.022   5.862   0.760
27347W        W88801  16.771  29.511   4.289
27348W        W88802  18.657  36.887  11.081
27349W        W88803  41.502  29.924  12.505
27350W        W88804   5.729  30.992  11.954
27351W        W88805  33.078   3.932   0.278
27352W        W88806  30.144  10.857   3.315
27353W        W88807  29.077  19.058  14.890
27354W        W88808   5.811  11.185  14.027
27355W        W88809   4.316   8.721  12.570
27356W        W88810  43.453   1.423  10.443
27357W        W88811  39.471  28.021  14.360
27358W        W88812  26.478  37.343  14.766
27359W        W88813  16.315  31.114  14.957
27360W        W88814   1.260  12.727  11.949
27361W        W88815  22.509   6.277   0.461
27362W        W88816   2.905  16.206   3.799
27363W        W88817  28.665  35.379  12.841
27364W        W88818   4.405  29.436   0.249
27365W        W88819  39.325  32.996   3.733
27366W        W88820  43.932   2.781  10.559
27367W        W88821  35.471  17.627   0.287
27368W        W88822  17.685  40.847  11.921
27369W        W88823  25.149  19.155   4.218
27370W        W88824  44.835  20.587  11.500
27371W        W88825  23.140  43.453   1.723
27372W        W88826   9.768   7.314  11.518
27373W        W88827  44.311  10.790   3.784
27374W        W88828   6.844  38.963  10.932
27375W        W88829   6.709  12.142  11.930
27376W        W88830   0.295  26.477  11.604
27377W        W88831  21.684  22.075   0.403
27378W        W88832  11.803   1.808   1.320
27379W        W88833  42.961  35.460  10.631
27380W        W88834   3.377  36.513  11.543
27381W        W88835  24.496  29.075   2.768
27382W        W88836  23.201  14.114   2.363
27383W        W88837  38.062  17.760   4.260
27384W        W88838   6.307  28.537  14.349
27385W        W88839   8.160  31.078  11.115
27386W        W88840  37.966  28.511  14.379
27387W        W88841  28.106  28.554  13.351
27388W        W88842  32.058  23.593   2.377
27389W        W88843  23.696  24.978  11.565
27390W        W88844   5.256  32.415   2.669
27391W        W88845   0.980  24.497   1.860
27392W        W88846  24.697  10.293   4.622
27393W        W88847  32.025  31.148   2.316
27394W        W88848  29.621   2.273  13.968
27395W        W88849  19.637  33.600   2.234
27396W        W88850  28.542  30.157   2.305
27397W        W88851  11.346  29.141   0.901
27398W        W88852   6.390  16.104   4.678
27399W        W88853  38.049  38.527   9.448
27400W        W88854  29.064  33.918  13.906
27401W        W88855  30.932  24.046   4.351
27402W        W88856  42.888  31.148   2.810
27403W        W88857   2.908  44.779  12.007
27404W        W88858  24.980  39.888  13.484
27405W        W88859   5.270   4.874   3.326
27406W        W88860  35.506  29.533   2.790
27407W        W88861  13.219   2.371  13.459
27408W        W88862   5.842  29.501  11.516
27409W        W88863  43.340  13.292   3.871
27410W        W88864  19.220  18.274  12.514
27411W        W88865  19.614  11.323  12.036
27412W        W88866  32.621  20.241   0.441
27413W        W88867  13.175  38.362  13.947
27414W        W88868  12.769  15.286   1.834
27415W        W88869   0.742  31.149  14.951
27416W        W88870  19.067  22.099  14.891
27417W        W88871  32.110  25.050  12.499
27418W        W88872  42.783  41.796   4.794
27419W        W88873  24.126   0.407  11.481
27420W        W88874  24.090  21.091  11.010
27421W        W88875   1.808  20.218  12.827
27422W        W88876  39.932  24.168  13.439
27423W        W88877  15.230   3.791  14.967
27424W        W88878  23.639  34.916   4.228
27425W        W88879  19.780  35.999   1.357
27426W        W88880   4.906  19.645   0.316
27427W        W88881  39.890  30.519  10.419
27428W        W88882  42.823  36.461  12.460
27429W        W88883  27.480  22.514   0.939
27430W        W88884  17.694   6.819   1.214
27431W        W88885   9.886   1.419  14.345
27432W        W88886   8.753   7.766   4.808
27433W        W88887   5.776  44.350  13.029
27434W        W88888   5.730  44.897  10.525
27435W        W88889  18.720  36.034   3.376
27436W        W88890  40.500  32.105   3.636
27437W        W88891  19.534  17.164   4.346
27438W        W88892  31.094  44.847   3.805
27439W        W88893  32.005   6.386   0.349
27440W        W88894  40.498   5.335   1.740
27441W        W88895   1.415  21.148  14.467
27442W        W88896  24.166  36.411  10.916
27443W        W88897  10.260  22.995   4.152
27444W        W88898  20.666  34.991   4.785
27445W        W88899  37.003  12.810  14.931
27446W        W88900  42.921  44.418  14.394
27447W        W88901  23.618  16.217   4.332
27448W        W88902  34.091  10.742  12.845
27449W        W88903  15.632  33.398   3.712
27450W        W88904  14.695  38.899  13.547
27451W        W88905  29.567  21.601  14.969
27452W        W88906  20.687  43.784   2.789
27453W        W88907  21.563  37.984   4.660
27454W        W88908  14.790  29.435  11.523
27455W        W88909  14.323  22.646   1.451
27456W        W88910  30.040   3.267  11.972
27457W        W88911  12.791  17.588   3.311
27458W        W88912  18.767  28.578   0.886
27459W        W88913   3.302  41.879   4.211
27460W        W88914  39.421   4.740  13.351
27461W        W88915   4.813  33.396  13.940
27462W        W88916  23.183  44.847   0.254
27463W        W88917  17.283  28.944  10.539
27464W        W88918  39.457  25.526  14.427
27465W        W88919   1.320  31.136   0.958
27466W        W88920  41.829  35.486  13.307
27467W        W88921  35.487  13.325   0.901
27468W        W88922  29.513  37.859   0.734
27469W        W88923  38.506  10.144  14.969
27470W        W88924  36.978  33.130   0.898
27471W        W88925  16.574  28.649   4.202
27472W        W88926  27.595   2.340  13.448
27473W        W88927  41.845  20.183   3.790
27474W        W88928  20.667  33.889  10.513
27475W        W88929   6.387  23.569  12.559
27476W        W88930   7.898  23.552  14.501
27477W        W88931  43.896  10.845   2.193
27478W        W88932  26.096  35.553   0.796
27479W        W88933  30.447  38.537  13.998
27480W        W88934  28.441  13.235  13.006
27481W        W88935  14.208   3.304  10.498
27482W        W88936   7.741  42.471   4.215
27483W        W88937   7.743  15.088   3.199
27484W        W88938  41.808   8.281   4.705
27485W        W88939  20.169   2.855  12.526
27486W        W88940   9.251  14.225   5.139
27487W        W88941  43.341  44.855  12.543
27488W        W88942  26.667  19.043   2.180
27489W        W88943  26.115  22.510  13.523
27490W        W88944  33.007  39.472   1.927
27491W        W88945  24.663  24.079  14.856
27492W        W88946   0.390  19.270  14.827
27493W        W88947  35.963   2.310   4.603
27494W        W88948   6.892  44.904   4.246
27495W        W88949  14.293  16.582  12.900
27496W        W88950  34.867   8.859   3.196
27497W        W88951  22.637  17.595   1.883
27498W        W88952   7.789   3.777  12.940
27499W        W88953  10.687   7.679   0.845
27500W        W88954  22.190  32.950  13.058
27501W        W88955  35.586  28.642  11.472
27502W        W88956  21.527  30.467   5.266
27503W        W88957  25.690   4.332  11.100
27504W        W88958  20.573  28.645  13.490
27505W        W88959  19.068  16.796  10.610
27506W        W88960  25.023  31.574   4.703
27507W        W88961  34.540  38.530  13.936
27508W        W88962   8.318  24.584  12.061
27509W        W88963   6.201   5.359  12.010
27510W        W88964  31.990  43.323  12.935
27511W        W88965  35.396  23.082   3.296
27512W        W88966   9.181  24.521  14.994
27513W        W88967   8.248  22.697   0.891
27514W        W88968   3.750  15.666   1.764
27515W        W88969  22.738  36.025  12.487
27516W        W88970   3.417  23.147  14.810
27517W        W88971  12.130  22.619   3.201
27518W        W88972   1.765  25.491  10.614
27519W        W88973  41.835  30.653   0.955
27520W        W88974   1.423  21.093   0.449
27521W        W88975  37.564  12.809  10.469
27522W        W88976  15.767  32.136   1.694
27523W        W88977   3.892  31.025  13.395
27524W        W88978   8.222  11.642   1.241
27525W        W88979  42.959  11.174  10.961
27526W        W88980  14.668  24.630   0.904
27527W        W88981   4.357   1.766   2.375
27528W        W88982  24.020  34.897  14.418
27529W        W88983   8.877  23.179  12.360
27530W        W88984  16.179  24.571  10.563
27531W        W88985  24.206  16.580   2.760
27532W        W88986  26.981   6.857  12.826
27533W        W88987  18.124  41.526   0.869
27534W        W88988  32.536   3.282   5.302
27535W        W88989  28.436  14.262   0.379
27536W        W88990  36.463  38.063   1.244
27537W        W88991  23.653   6.353  11.498
27538W        W88992   9.763  32.984   1.764
27539W        W88993  34.088   3.915   2.251
27540W        W88994   0.250  10.190   2.716
27541W        W88995  11.237  36.431  10.502
27542W        W88996   0.367  23.604  13.537
27543W        W88997  16.110   5.245   3.843
27544W        W88998  25.038  41.945   0.451
27545W        W88999  28.120  32.013   4.633
27546W        W89000  15.822   2.882  12.005
27547W        W89001  42.515  38.483  12.882
27548W        W89002  18.201  23.569  13.362
27549W        W89003  39.450  25.087   3.801
27550W        W89004   2.240  37.975  13.039
27551W        W89005  41.918  31.119  14.969
27552W        W89006   9.200   4.394   1.339
27553W        W89007  24.687  25.035   1.752
27554W        W89008  12.193  28.933   0.808
27555W        W89009  23.076  34.586  14.431
27556W        W89010   3.384   6.756  10.434
27557W        W89011  36.052  17.787   4.129
27558W        W89012  32.065  18.231  14.025
27559W        W89013   8.369   5.857  12.408
27560W        W89014   5.762   0.905   2.721
27561W        W89015  32.892   4.704  14.916
27562W        W89016   5.239  16.623   1.921
27563W        W89017   9.171  43.471   4.120
27564W        W89018   5.718   0.801  13.546
27565W        W89019  27.691  25.058  12.853
27566W        W89020  12.739   0.833   0.440
27567W        W89021  20.698  22.089   0.254
27568W        W89022  15.100  19.173   4.738
27569W        W89023  34.035   5.309   0.281
27570W        W89024   1.482  21.564   2.341
27571W        W89025  30.487  13.830  13.415
27572W        W89026  19.283  40.846  14.381
27573W        W89027  28.185  43.896   3.692
27574W        W89028  37.396  16.762  13.899
27575W        W89029  19.216  39.333   2.776
27576W        W89030  38.868  17.134   4.205
27577W        W89031   3.922  42.967   2.716
27578W        W89032   8.323  20.615   2.669
27579W        W89033   8.769  40.842  13.418
27580W        W89034   7.867   8.339  11.382
27581W        W89035  39.444  35.496  12.426
27582W        W89036  24.676  13.611  11.522
27583W        W89037  30.533  27.996   5.254
27584W        W89038  10.741  24.669   0.366
27585W        W89039  11.356  35.427  14.387
27586W        W89040   1.340   4.932   0.296
27587W        W89041  14.776  15.753  13.449
27588W        W89042  18.552   5.876  12.899
27589W        W89043  10.318  44.780   4.288
27590W        W89044   0.962  18.283   3.213
27591W        W89045   9.250   5.743   1.280
27592W        W89046  28.663  39.495  11.471
27593W        W89047  33.964  43.938   3.367
27594W        W89048  30.546  19.602  14.511
27595W        W89049   4.417  12.190  10.913
27596W        W89050   8.841  24.687   0.833
27597W        W89051  11.301   8.765   3.175
27598W        W89052  42.953  13.770  14.942
27599W        W89053   7.882  19.212   2.820
27600W        W89054   9.716  30.647  13.058
27601W        W89055  34.041  24.657   1.357
27602W        W89056  22.119  37.370   3.667
27603W        W89057   4.763  17.207   1.757
27604W        W89058  21.200   5.806  12.040
27605W        W89059   3.328   1.412   0.283
27606W        W89060  31.106  35.993  11.019
27607W        W89061   4.793   4.860   1.216
27608W        W89062  10.241  39.375   0.851
27609W        W89063  24.109  17.223  10.493
27610W        W89064  38.557   5.341   1.904
27611W        W89065  41.504  42.919   4.185
27612W        W89066  20.111  31.996  12.825
27613W        W89067  15.282   2.840  13.005
27614W        W89068  44.337  43.509  10.965
27615W        W89069   9.668   8.386   4.621
27616W        W89070   1.308  27.006  11.974
27617W        W89071  44.458  29.619   5.265
27618W        W89072  24.146  28.026  11.931
27619W        W89073  40.996   4.214   3.316
27620W        W89074  17.116  16.207   1.407
27621W        W89075  37.416   0.762   4.813
27622W        W89076  18.602  27.493  11.593
27623W        W89077  42.969  11.238   2.687
27624W        W89078  32.067  43.859   0.967
27625W        W89079  35.369  15.619   0.368
27626W        W89080  36.902   8.680  13.010
27627W        W89081   9.224  37.837   1.855
27628W        W89082   9.218   1.431   1.242
27629W        W89083   9.271  18.791  10.544
27630W        W89084  23.989   7.384  10.520
27631W        W89085  22.738  31.405  11.870
27632W        W89086  33.099  11.373   5.718
27633W        W89087  32.096  12.264   5.711
27634W        W89088   6.204  37.996  11.956
27635W        W89089  30.553  29.481   4.279
27636W        W89090  22.737   8.398  11.501
27637W        W89091  32.568  10.655   3.386
27638W        W89092   6.824   9.307  10.470
27639W        W89093   9.674   1.972  12.002
27640W        W89094  10.652  13.670   1.314
27641W        W89095  36.527  31.143  14.820
27642W        W89096  35.053   6.874  11.575
27643W        W89097   4.204   1.372   3.756
27644W        W89098  21.109  29.545   1.823
27645W        W89099  29.145   4.884   1.412
27646W        W89100  16.256  14.683   5.268
27647W        W89101   7.719  21.081  13.494
27648W        W89102  26.463   1.344   0.359
27649W        W89103  28.656   0.349  13.053
27650W        W89104  39.966  44.813  14.030
27651W        W89105  22.625  11.850  13.932
27652W        W89106   4.902   4.848  14.956
27653W        W89107   0.371   7.376   2.301
27654W        W89108  36.070  16.231   2.352
27655W        W89109   9.364  12.688  12.363
27656W        W89110  33.379  42.326   3.221
27657W        W89111  15.601  21.703  14.365
27658W        W89112  11.368  17.607  12.953
27659W        W89113  16.122  43.500   3.634
27660W        W89114  29.107  37.530   4.158
27661W        W89115  28.674  26.953  13.474
27662W        W89116  42.835   3.457  11.389
27663W        W89117  13.689  40.471   0.447
27664W        W89118  38.370   9.681  10.992
27665W        W89119  39.454  22.743  10.892
27666W        W89120  33.558  28.579  12.555
27667W        W89121   8.407  44.366   2.770
27668W        W89122  18.184  34.569  12.018
27669W        W89123  38.908  16.579   3.373
27670W        W89124  41.990  11.754   0.813
27671W        W89125  23.669  26.702  12.048
27672W        W89126   3.749  13.633   3.867
27673W        W89127  33.896  14.142   4.201
27674W        W89128  26.509   8.858  14.370
27675W        W89129  36.893  12.313  11.102
27676W        W89130  25.018  12.839   0.316
27677W        W89131   9.231  30.994   5.192
27678W        W89132  24.127  44.944  12.425
27679W        W89133   1.275  24.979   1.427
27680W        W89134  42.329  36.586   3.629
27681W        W89135  25.667  41.323   3.831
27682W        W89136  17.125  35.358   3.656
27683W        W89137   8.217  42.951   1.396
27684W        W89138  16.696  43.389  12.548
27685W        W89139  20.686  40.818   3.684
27686W        W89140   3.246  10.825   4.284
27687W        W89141  35.943  42.863  13.873
27688W        W89142  32.424   4.787  12.462
27689W        W89143   7.780   6.222   0.389
27690W        W89144   3.751  21.627  13.984
27691W        W89145  11.234   3.747   1.425
27692W        W89146  42.020  21.032   0.780
27693W        W89147   7.701  38.473  13.964
27694W        W89148  31.141  44.480  11.589
27695W        W89149  24.093  32.414  10.622
27696W        W89150   0.280  30.471   3.367
27697W        W89151   2.838  34.519   0.836
27698W        W89152  43.468  37.927  11.044
27699W        W89153  11.847  35.597   0.472
27700W        W89154  24.994  20.134   1.741
27701W        W89155  34.091   5.311   2.386
27702W        W89156  31.472   7.199  12.954
27703W        W89157  26.955  28.154  11.078
27704W        W89158   8.200  34.602  14.972
27705W        W89159  13.345  24.483  12.007
27706W        W89160  37.888  39.037   3.337
27707W        W89161  38.977  17.094   0.913
27708W        W89162   5.218  27.083  12.996
27709W        W89163   7.214   5.249  14.426
27710W        W89164  17.074  22.213   4.769
27711W        W89165   8.805   7.344  13.934
27712W        W89166  19.060  38.907  14.811
27713W        W89167   8.810  31.572  11.609
27714W        W89168  10.833  15.281   3.795
27715W        W89169  13.646   6.794  11.903
27716W        W89170   6.357   4.720  12.571
27717W        W89171  42.910  32.095  14.872
27718W        W89172   4.789   7.353  11.063
27719W        W89173  43.798  38.369  13.801
27720W        W89174  23.194   7.824   3.664
27721W        W89175   2.961  28.169  14.329
27722W        W89176  20.565  36.033   3.643
27723W        W89177   8.739  34.507   0.750
27724W        W89178  23.209  23.991  14.326
27725W        W89179  42.019  42.782   5.191
27726W        W89180  39.530  17.681  10.985
27727W        W89181   0.756  15.195  12.384
27728W        W89182  12.639  42.931  13.999
27729W        W89183  20.143  29.928  14.945
27730W        W89184  15.605  13.766  10.156
27731W        W89185  27.544   4.715  10.037
27732W        W89186  32.450   1.369  14.438
27733W        W89187  20.574  26.523  12.857
27734W        W89188  17.064  34.535   1.705
27735W        W89189   8.758  44.982   2.797
27736W        W89190  36.955  10.788   3.295
27737W        W89191  24.602  14.714  11.522
27738W        W89192  18.223  37.413  13.424
27739W        W89193  23.143  21.520   4.621
27740W        W89194  35.027  14.710  13.412
27741W        W89195   9.751  26.163   1.223
27742W        W89196  44.272  32.004  14.943
27743W        W89197  15.626  24.620   1.722
27744W        W89198  22.119   5.921  14.451
27745W        W89199  33.053   1.359  13.544
27746W        W89200  10.281  33.400   0.846
27747W        W89201  10.837  11.141   2.257
27748W        W89202   6.423   9.770  14.427
27749W        W89203  25.054   3.398   1.291
27750W        W89204  38.828  17.110  12.372
27751W        W89205  41.994  32.620   3.149
27752W        W89206  23.238  24.616   1.879
27753W        W89207  33.380  42.462  11.536
27754W        W89208  35.411  22.099  11.509
27755W        W89209  20.158  39.343  12.521
27756W        W89210   5.702  40.307  14.378
27757W        W89211  21.745  13.779   2.770
27758W        W89212  23.066  29.058   3.282
27759W        W89213  30.086  27.073   1.223
27760W        W89214  23.223  37.925   1.701
27761W        W89215  35.520  25.551   3.158
27762W        W89216  10.384  14.736  10.568
27763W        W89217  39.441   7.859   0.906
27764W        W89218   9.789  31.048   1.917
27765W        W89219  19.174  16.217  11.404
27766W        W89220  30.947  35.037  11.563
27767W        W89221  43.309  28.654   3.287
27768W        W89222  18.223  21.621  10.559
27769W        W89223   3.239  17.062  10.955
27770W        W89224   9.295  13.843   2.701
27771W        W89225  44.335   7.678  11.396
27772W        W89226  15.311  21.054   2.801
27773W        W89227  45.000  43.925  12.992
27774W        W89228  41.990  15.093   0.745
27775W        W89229  16.780  35.030  14.465
27776W        W89230  12.185  35.860   3.784
27777W        W89231   0.481  31.405   2.373
27778W        W89232  21.184  12.658  14.818
27779W        W89233  34.457  44.401   3.785
27780W        W89234  12.194   2.276   3.261
27781W        W89235  37.392   5.849  11.551
27782W        W89236   1.465  12.834   0.929
27783W        W89237  25.645  38.441  12.083
27784W        W89238   9.744  24.699  14.773
27785W        W89239  29.616  21.179   0.862
27786W        W89240  19.568  22.153   2.682
27787W        W89241   0.420  36.372  12.978
27788W        W89242  23.042  21.518  10.595
27789W        W89243   5.427   8.883   3.294
27790W        W89244  33.914  23.060  10.594
27791W        W89245  19.721  33.969  13.006
27792W        W89246  24.608   4.355  11.400
27793W        W89247   3.347   8.852  11.441
27794W        W89248  37.974  36.994  13.880
27795W        W89249  39.942  20.612   1.365
27796W        W89250  11.815  44.383   1.254
27797W        W89251   8.353  24.612  13.998
27798W        W89252  22.209   9.763   5.213
27799W        W89253  40.036  23.060   2.675
27800W        W89254  15.742   0.879  11.993
27801W        W89255  38.421  20.121  13.494
27802W        W89256   3.807  39.942  10.893
27803W        W89257  14.660  18.254   0.243
27804W        W89258   1.480   9.233   3.658
27805W        W89259   8.764  16.628   1.858
27806W        W89260  12.254  38.894   1.287
27807W        W89261   3.736  15.281   4.333
27808W        W89262  29.490  40.025  12.398
27809W        W89263  29.518  30.055  13.529
27810W        W89264  20.582  21.158   5.202
27811W        W89265  36.936  40.855   5.158
27812W        W89266   1.466   4.396  13.463
27813W        W89267  18.670  39.889   4.353
27814W        W89268   8.397  20.215   2.293
27815W        W89269   6.234  36.539  12.947
27816W        W89270   8.286  23.656  14.794
27817W        W89271   3.308  41.505   2.319
27818W        W89272   8.852  43.320  14.935
27819W        W89273  32.116   0.444  13.011
27820W        W89274  39.831  22.597  14.302
27821W        W89275  24.502   9.750  11.988
27822W        W89276  12.318  38.004   2.185
27823W        W89277  44.435  42.364  10.904
27824W        W89278  35.376  19.635   1.739
27825W        W89279   9.327  41.482  11.499
27826W        W89280  24.069  13.717  11.564
27827W        W89281   8.160  24.674   2.206
27828W        W89282  41.451  24.714   3.261
27829W        W89283   2.827  27.969   3.168
27830W        W89284   1.926  19.170   4.146
27831W        W89285  31.034   4.218   4.747
27832W        W89286  35.107   3.221   3.201
27833W        W89287  12.250  19.763   0.332
27834W        W89288   4.261   7.734   1.221
27835W        W89289   4.397  16.695  14.982
27836W        W89290  36.080   0.937   2.410
27837W        W89291   8.807  17.091  14.322
27838W        W89292  40.479  24.069  11.977
27839W        W89293  23.598  10.654  13.458
27840W        W89294  33.078  41.938  11.382
27841W        W89295  29.067  32.092   3.368
27842W        W89296  35.100  41.938  14.995
27843W        W89297   1.320  44.450   0.884
27844W        W89298   4.264   6.339   0.397
27845W        W89299  16.235  39.399  12.485
27846W        W89300  22.244   3.238  12.520
27847W        W89301   3.895  29.081  11.082
27848W        W89302   1.338   1.432   0.911
27849W        W89303   1.426  32.130   4.698
27850W        W89304   4.242   1.881   1.792
27851W        W89305  36.483  19.670   3.294
27852W        W89306  29.430  29.059  12.950
27853W        W89307   9.199  12.325   2.226
27854W        W89308  13.253  11.690  13.909
27855W        W89309  37.936  11.790   3.309
27856W        W89310  17.684  32.489  10.619
27857W        W89311  23.003  31.085  10.529
27858W        W89312  40.322   3.236   0.412
27859W        W89313  37.548  30.475  14.503
27860W        W89314  10.351  13.683  14.443
27861W        W89315  27.658  30.125   4.782
27862W        W89316  44.294  19.622  10.072
27863W        W89317  12.702   4.393  12.950
27864W        W89318   4.363  33.065  14.280
27865W        W89319  33.910  28.099   1.279
27866W        W89320  13.136   0.973  12.089
27867W        W89321  36.583  20.581  10.576
27868W        W89322  37.082  34.912   1.839
27869W        W89323  27.110  40.885   4.680
27870W        W89324   6.681  18.555  11.417
27871W        W89325  23.718   0.925  14.478
27872W        W89326  40.965  28.010   2.330
27873W        W89327  27.074  28.497  13.811
27874W        W89328  36.479   8.163   2.325
27875W        W89329  30.605  31.644   3.230
27876W        W89330  14.164  35.963  10.638
27877W        W89331   6.862  38.484   2.321
27878W        W89332  20.219  34.551   3.765
27879W        W89333  37.886  25.699   4.661
27880W        W89334  40.373  13.239   1.270
27881W        W89335   4.208  12.610   1.930
27882W        W89336   2.839  14.153   0.389
27883W        W89337  15.192  17.707   3.806
27884W        W89338  27.510  26.989   2.838
27885W        W89339  40.820   4.330  10.956
27886W        W89340  11.792  36.077  13.452
27887W        W89341  16.664  34.613   4.137
27888W        W89342   9.739  23.189   4.355
27889W        W89343   8.406  23.731   1.280
27890W        W89344  27.019   5.738   4.320
27891W        W89345   4.899  23.998   2.180
27892W        W89346  10.854  17.692  14.833
27893W        W89347   6.918  38.550   4.204
27894W        W89348  16.569  23.180   4.672
27895W        W89349  22.663  14.736  14.933
27896W        W89350  10.664  44.394   0.275
27897W        W89351  23.148   5.867  11.406
27898W        W89352   1.428   5.212   0.368
27899W        W89353  10.743  12.799  14.937
27900W        W89354  42.377  13.341   3.818
27901W        W89355  22.243  29.142   4.346
27902W        W89356  27.645   6.824   3.813
27903W        W89357   1.878  13.715  12.988
27904W        W89358  31.995   2.461  13.360
27905W        W89359  40.829  25.685   1.766
27906W        W89360   3.864  10.315   2.700
27907W        W89361  32.475  22.096  11.381
27908W        W89362  40.846  37.563   2.881
27909W        W89363  33.404  25.061  13.548
27910W        W89364  41.871  25.552   2.834
27911W        W89365  19.050  23.193  13.511
27912W        W89366  10.804  28.471  14.926
27913W        W89367   8.347   6.679  11.859
27914W        W89368  21.234  24.139  14.515
27915W        W89369  31.543  18.136   3.199
27916W        W89370  19.663  15.583   4.704
27917W        W89371  10.141  36.403   4.829
27918W        W89372  18.111   4.911  12.520
27919W        W89373  21.246  40.321  11.115
27920W        W89374   4.211  22.726  12.894
27921W        W89375  12.798  32.496  14.436
27922W        W89376   8.797  11.280   4.274
27923W        W89377  39.425  42.411  12.395
27924W        W89378  26.492  24.009   0.876
27925W        W89379  28.516  44.294   4.705
27926W        W89380  44.790  37.502  11.867
27927W        W89381  13.189   5.395   4.718
27928W        W89382  35.055   5.816  14.364
27929W        W89383  16.766  24.600  10.432
27930W        W89384  24.189  41.840   2.799
27931W        W89385  25.666  19.225   2.801
27932W        W89386  37.999  11.707   4.350
27933W        W89387  21.171  11.800   9.999
27934W        W89388  12.852  18.170  11.562
27935W        W89389  23.029  18.662   2.367
27936W        W89390  32.909  23.222   3.761
27937W        W89391  20.067   9.852  14.503
27938W        W89392  14.170  17.666   1.343
27939W        W89393   6.905  28.117   3.633
27940W        W89394  10.196  24.057   3.864
27941W        W89395   9.383  17.125   1.398
27942W        W89396  13.781  31.565  13.480
27943W        W89397  31.137   9.394   4.661
27944W        W89398   7.736  38.018   3.814
27945W        W89399   0.809  23.502   2.304
27946W        W89400  43.291  37.486   2.231
27947W        W89401   5.232  22.575  12.445
27948W        W89402  38.421   8.767  11.580
27949W        W89403  12.212  32.527  11.401
27950W        W89404  29.523  21.147  11.441
27951W        W89405  36.926   6.857  12.965
27952W        W89406  11.753   4.339   3.654
27953W        W89407   7.668  21.025   0.840
27954W        W89408  26.180  24.145   2.367
27955W        W89409   4.825  29.607   5.225
27956W        W89410  20.524  40.443   4.278
27957W        W89411   3.733  25.063  14.891
27958W        W89412  42.418  20.043   2.900
27959W        W89413  29.497   2.338   3.275
27960W        W89414  28.597  26.614   1.758
27961W        W89415  28.665  27.973  10.404
27962W        W89416   2.966  14.732  11.465
27963W        W89417  32.424   6.215  14.000
27964W        W89418  17.764  40.937   4.687
27965W        W89419   4.331  15.125   4.613
27966W        W89420   2.371   8.726   0.410
27967W        W89421  24.674  14.106   1.427
27968W        W89422  18.165   4.914   1.246
27969W        W89423  20.548  18.588  12.536
27970W        W89424  20.231  37.058  13.891
27971W        W89425   4.713  30.571  13.937
27972W        W89426   6.351  25.207  12.003
27973W        W89427  39.385  40.527  11.476
27974W        W89428  40.989  24.557   1.363
27975W        W89429  15.816  14.337  10.986
27976W        W89430  34.615  36.556   0.914
27977W        W89431  19.259  44.340   2.786
27978W        W89432  25.607  27.582   1.700
27979W        W89433  10.845  36.587  11.438
27980W        W89434  29.156  17.189  14.498
27981W        W89435  40.021  22.114  13.999
27982W        W89436  10.364  11.846  13.865
27983W        W89437  28.148  33.409  10.112
27984W        W89438  42.011  19.124   3.675
27985W        W89439  27.576  26.474  14.384
27986W        W89440  15.158  21.735   1.910
27987W        W89441  26.546  23.146  11.895
27988W        W89442  21.541   2.750   4.808
27989W        W89443  36.469  16.119   1.739
27990W        W89444  15.294  31.581  12.971
27991W        W89445   3.934  12.689  11.932
27992W        W89446  16.157  22.682   2.872
27993W        W89447  20.180  31.951   3.808
27994W        W89448  38.410  41.439   3.263
27995W        W89449  42.975  26.458  10.464
27996W        W89450  17.262  41.454  11.951
27997W        W89451  33.451  31.477   4.773
27998W        W89452  39.467  32.428  12.365
27999W        W89453  24.126  25.005  12.054
28000W        W89454  15.787  44.874   1.915
28001W        W89455   3.781  29.044   2.412
28002W        W89456  23.090  31.553   3.715
28003W        W89457  17.062  33.921   1.853
28004W        W89458  26.671  15.171  14.444
28005W        W89459  24.594  10.642   5.118
28006W        W89460  20.722  20.191  13.469
28007W        W89461  35.892  43.399   2.225
28008W        W89462  43.420   2.398   4.223
28009W        W89463  21.716  11.330  11.420
28010W        W89464   1.252   4.288  14.959
28011W        W89465  27.069  42.026   4.654
28012W        W89466  17.065   0.335   3.303
28013W        W89467  18.732   0.387   4.644
28014W        W89468  44.480   5.931  10.099
28015W        W89469  28.090  17.761  14.336
28016W        W89470  33.536  27.481   0.731
28017W        W89471  23.106   7.411  14.497
28018W        W89472   0.964  34.029  14.490
28019W        W89473   9.373  42.811   4.623
28020W        W89474  22.194  31.951   2.345
28021W        W89475  24.704  23.032   1.791
28022W        W89476  16.285  10.249  10.110
28023W        W89477  34.934  13.275   0.768
28024W        W89478   6.202  36.388   4.256
28025W        W89479  10.853  23.022   1.304
28026W        W89480  35.884  42.368  11.007
28027W        W89481  11.655  26.093   1.763
28028W        W89482  44.354   3.312  11.055
28029W        W89483  31.951  17.598  13.450
28030W        W89484   9.222  34.076  14.937
28031W        W89485  15.086  16.116   5.098
28032W        W89486  32.590   0.295  14.779
28033W        W89487  31.066  33.402   4.693
28034W        W89488  26.050   8.295   2.790
28035W        W89489  17.663  13.322  13.032
28036W        W89490  14.293  20.743  11.959
28037W        W89491  41.323  15.184  13.409
28038W        W89492  35.481   9.254   2.418
28039W        W89493  13.190   5.701  10.511
28040W        W89494  44.412  44.777  12.944
28041W        W89495  37.361  34.868   2.678
28042W        W89496  36.552  36.937   2.730
28043W        W89497   8.737  16.641   4.744
28044W        W89498   5.912   4.806  11.944
28045W        W89499  44.367  36.558  14.384
28046W        W89500  30.015  44.444  14.983
28047W        W89501  33.061  35.573   3.165
28048W        W89502  39.362  20.079  14.796
28049W        W89503   0.823  43.334   0.767
28050W        W89504  43.960   3.231   4.609
28051W        W89505   3.769  35.047  10.095
28052W        W89506   0.892  17.753  11.057
28053W        W89507  13.109   3.259   0.313
28054W        W89508  13.114  28.046   0.886
28055W        W89509  11.172  15.669   3.809
28056W        W89510   4.740   6.378  11.449
28057W        W89511   6.883  32.050  13.016
28058W        W89512  35.952  28.937  13.962
28059W        W89513  18.111  23.109   4.235
28060W        W89514   2.766  23.613  13.458
28061W        W89515   9.777  35.558   0.395
28062W        W89516  14.669  15.154  11.441
28063W        W89517  40.928  30.966   2.373
28064W        W89518  10.729  33.955   1.333
28065W        W89519   0.754  27.190   3.154
28066W        W89520  28.075   2.250   2.287
28067W        W89521   9.870  42.416  11.428
28068W        W89522  42.360   9.169  11.001
28069W        W89523  25.471  12.188   2.747
28070W        W89524  36.023  13.600  11.123
28071W        W89525  27.064  40.528  13.810
28072W        W89526  32.620   5.699  11.553
28073W        W89527  18.706  20.253   3.673
28074W        W89528  23.675   5.815  13.374
28075W        W89529  39.448  20.225   4.263
28076W        W89530  32.497  16.164  14.872
28077W        W89531  36.457  37.877  11.071
28078W        W89532   4.309   9.198   3.707
28079W        W89533  14.121  20.689  14.311
28080W        W89534  14.826  10.311  11.574
28081W        W89535  28.631  33.030  13.821
28082W        W89536  23.986   2.334   3.245
28083W        W89537  40.875   4.792   4.713
28084W        W89538  39.822  14.216   1.356
28085W        W89539  16.738   9.750  14.356
28086W        W89540  21.190  29.428   3.361
28087W        W89541  26.594  18.763  12.497
28088W        W89542   9.300  17.253   0.790
28089W        W89543  35.582  28.666  13.490
28090W        W89544  22.659  33.594   2.351
28091W        W89545  19.767  33.877   1.238
28092W        W89546  29.976  14.806  14.502
28093W        W89547  27.059   4.363  12.410
28094W        W89548  28.450  35.521  14.307
28095W        W89549  37.445  38.966   3.775
28096W        W89550  20.679  39.922  12.551
28097W        W89551  24.987  10.730  11.413
28098W        W89552  41.930   8.767   5.108
28099W        W89553  14.827  30.646   1.870
28100W        W89554  36.442  39.872  12.025
28101W        W89555  19.093  20.746   1.798
28102W        W89556  20.745  21.145   0.444
28103W        W89557  13.618   0.807  11.589
28104W        W89558  30.626  20.571   4.333
28105W        W89559  37.904  22.065   4.226
28106W        W89560   2.465   2.852  11.613
28107W        W89561  26.150  43.277   2.840
28108W        W89562   9.656  11.782  11.968
28109W        W89563  42.903   2.405   4.635
28110W        W89564  28.614  37.835  13.046
28111W        W89565  37.489  33.463  14.928
28112W        W89566  25.137  27.487   1.717
28113W        W89567  31.967  36.971   3.229
28114W        W89568   6.213  10.272   4.778
28115W        W89569  29.648   9.867  10.404
28116W        W89570   3.777  14.804  10.891
28117W        W89571  10.772  13.214   2.702
28118W        W89572  31.091  16.659   1.389
28119W        W89573  24.499  19.580   2.784
28120W        W89574  22.515  33.061   0.887
28121W        W89575  30.468  12.693   1.271
28122W        W89576  41.929   0.303   9.938
28123W        W89577   3.829  16.294   4.683
28124W        W89578   8.850   4.816   2.246
28125W        W89579  19.224  24.719  12.391
28126W        W89580  35.082  40.847  12.974
28127W        W89581  14.615   1.352  12.033
28128W        W89582  42.826  32.892   2.848
28129W        W89583  28.102  10.679   1.345
28130W        W89584  36.492   0.923  13.810
28131W        W89585  28.083  12.854  13.862
28132W        W89586  21.722  37.485   0.864
28133W        W89587   4.410  29.524   3.289
28134W        W89588  27.034  27.638   3.771
28135W        W89589  10.684   2.839   2.880
28136W        W89590  42.995   3.285  12.964
28137W        W89591  43.780  24.481   2.812
28138W        W89592  10.734  25.639  12.970
28139W        W89593  14.675  29.926  11.560
28140W        W89594  40.893  33.956   1.440
28141W        W89595  39.870  41.031   5.625
28142W        W89596  11.728  39.851  12.346
28143W        W89597  43.922  31.481   2.697
28144W        W89598  16.186  25.696  11.427
28145W        W89599  42.961   0.438  13.489
28146W        W89600  40.008   0.860   4.752
28147W        W89601   9.242  44.765  10.455
28148W        W89602  33.528  32.424  14.483
28149W        W89603  36.972  19.216   4.790
28150W        W89604  37.910  23.053  11.514
28151W        W89605  15.230  26.549  11.079
28152W        W89606   5.340  38.021  14.780
28153W        W89607  27.628   5.272  14.483
28154W        W89608  28.478  11.200  12.940
28155W        W89609  39.031  39.910  10.927
28156W        W89610  19.597   0.867   4.773
28157W        W89611   0.396  41.507  11.006
28158W        W89612  38.410  24.190   3.729
28159W        W89613   2.437  10.650   4.227
28160W        W89614  36.994  20.176  10.405
28161W        W89615  33.584  13.346  11.983
28162W        W89616  25.177  29.565  13.507
28163W        W89617  26.628  18.068   1.229
28164W        W89618   6.914  26.109   1.397
28165W        W89619  18.680  15.630   0.841
28166W        W89620  28.118  26.701  11.890
28167W        W89621  12.677  18.731   2.370
28168W        W89622  11.709  40.974   5.268
28169W        W89623   2.327   2.795  12.537
28170W        W89624  35.036  28.041   5.239
28171W        W89625  28.103   5.219  12.899
28172W        W89626  14.258  26.685   5.256
28173W        W89627  10.774   1.277   4.816
28174W        W89628  35.975  12.352   2.882
28175W        W89629  29.657  38.922  14.512
28176W        W89630   3.920  32.045  11.100
28177W        W89631  19.277  31.606  12.512
28178W        W89632  34.402   3.329   0.896
28179W        W89633  21.164  43.977   3.754
28180W        W89634  32.421  21.687  11.446
28181W        W89635  31.603  36.974   0.276
28182W        W89636   1.810  40.859  12.482
28183W        W89637  25.050  20.075  11.597
28184W        W89638   9.823   3.320  12.423
28185W        W89639  22.674  29.002  10.533
28186W        W89640  44.471  21.195  12.385
28187W        W89641  21.029  10.684   2.377
28188W        W89642  11.830  22.577   1.926
28189W        W89643   1.341  14.109   3.260
28190W        W89644   8.224   5.365  13.958
28191W        W89645  10.161  39.470   4.152
28192W        W89646  33.968   8.786   0.732
28193W        W89647   2.885  41.947   4.756
28194W        W89648  10.162   4.210   2.328
28195W        W89649  23.617  19.594   1.292
28196W        W89650  28.072   7.324   4.672
28197W        W89651  27.630  33.570  14.368
28198W        W89652  10.291   9.238   1.742
28199W        W89653  12.147  13.617  13.328
28200W        W89654  11.644  22.118   0.442
28201W        W89655  29.632  21.051  10.495
28202W        W89656   4.855  24.561  11.569
28203W        W89657  27.645  16.194  11.873
28204W        W89658  23.993   8.754   9.967
28205W        W89659   3.804  13.251  10.522
28206W        W89660  42.005  36.020  10.547
28207W        W89661  24.224   6.752  10.504
28208W        W89662   0.395  35.360  12.435
28209W        W89663  31.633  36.060   2.710
28210W        W89664  17.199   9.879  14.773
28211W        W89665   6.428  44.350  12.417
28212W        W89666  18.576  42.885  10.110
28213W        W89667  31.960  36.051  12.489
28214W        W89668   4.229  32.134   2.409
28215W        W89669  36.987  44.451  13.526
28216W        W89670   1.822   8.389   0.787
28217W        W89671  40.052  44.379  14.420
28218W        W89672  11.853  24.558   2.198
28219W        W89673  33.417  36.046  13.026
28220W        W89674  31.964  32.476  14.798
28221W        W89675   7.737  38.028   2.814
28222W        W89676   9.721  40.973   2.790
28223W        W89677  11.179  37.964   3.381
28224W        W89678  17.671   3.414   2.335
28225W        W89679  30.082  40.954  10.613
28226W        W89680   8.697   2.339  13.987
28227W        W89681  43.445  32.622  14.801
28228W        W89682  35.584   8.754   2.207
28229W        W89683   4.235  12.151   4.286
28230W        W89684  33.990  17.613  10.475
28231W        W89685   3.322   9.151   1.844
28232W        W89686  14.282  26.678   1.439
28233W        W89687  39.551  11.741   4.755
28234W        W89688  26.206  10.351   3.808
28235W        W89689  37.398  15.611  11.095
28236W        W89690  35.926   2.733  14.503
28237W        W89691  21.682  14.286  12.028
28238W        W89692  38.075  15.630  10.050
28239W        W89693   4.845  38.459  11.493
28240W        W89694   2.955  10.185   3.170
28241W        W89695  31.045  28.166  12.385
28242W        W89696  36.998  37.897   3.240
28243W        W89697  12.170  27.116   2.713
28244W        W89698   8.886  26.689   0.421
28245W        W89699  13.251  11.755  14.969
28246W        W89700  44.448  38.902   3.741
28247W        W89701   6.295  41.897   2.817
28248W        W89702  11.666  21.700  11.508
28249W        W89703   5.818   2.724   3.197
28250W        W89704  40.318   3.375  10.004
28251W        W89705  43.277  32.990  11.084
28252W        W89706  24.145  43.316  14.510
28253W        W89707  25.473   6.702   3.278
28254W        W89708  29.125  33.558   0.302
28255W        W89709   1.376  34.925   3.841
28256W        W89710  32.962  37.031   0.896
28257W        W89711  12.184  33.572   0.798
28258W        W89712   4.367  41.507  13.802
28259W        W89713   7.259   6.335   0.309
28260W        W89714  12.206  20.671   9.516
28261W        W89715  19.690   6.889   0.383
28262W        W89716  13.668  37.897  11.951
28263W        W89717  25.154   4.423  12.458
28264W        W89718  40.348  16.589   2.829
28265W        W89719   7.722  14.689   0.860
28266W        W89720   8.312  18.259   2.397
28267W        W89721  21.030  33.436  11.600
28268W        W89722  43.512   1.462   0.291
28269W        W89723  30.002  37.845  13.860
28270W        W89724  32.594  18.644  14.494
28271W        W89725  41.034  37.463   1.318
28272W        W89726  23.667  44.893  13.346
28273W        W89727  42.330  44.268  11.940
28274W        W89728  32.994  26.494   4.302
28275W        W89729  39.546  11.203   1.332
28276W        W89730  36.975  11.152   1.782
28277W        W89731   0.293  16.138  14.019
28278W        W89732   8.748  44.348   1.347
28279W        W89733  23.534   4.339   4.217
28280W        W89734  43.005  38.929  13.792
28281W        W89735   2.846  35.105   0.325
28282W        W89736  19.162  32.430  14.375
28283W        W89737  23.995   0.250   1.742
28284W        W89738   7.757  23.560   4.151
28285W        W89739  31.608  15.235   5.160
28286W        W89740   3.368  27.461  12.948
28287W        W89741  32.979  44.955   1.389
28288W        W89742  39.956  12.337   0.800
28289W        W89743   9.222  43.008   1.335
28290W        W89744   3.409  31.405  11.922
28291W        W89745   9.224  32.139   3.302
28292W        W89746  22.625  44.304  13.884
28293W        W89747  27.577   7.208   3.167
28294W        W89748  31.542  13.256   2.872
28295W        W89749  18.709  42.970   3.268
28296W        W89750  29.572   2.730   1.448
28297W        W89751  15.796  22.151  12.988
28298W        W89752  32.947   1.737  12.985
28299W        W89753   6.758  34.396  10.003
28300W        W89754  34.597  30.584  11.387
28301W        W89755  36.506  11.182  11.897
28302W        W89756  11.789  31.146  11.931
28303W        W89757  36.548   9.770  12.347
28304W        W89758  31.609  31.075   1.353
28305W        W89759  19.538   6.255   9.932
28306W        W89760  22.073  26.650   4.351
28307W        W89761  10.198   6.881  11.093
28308W        W89762   9.873   7.728   3.279
28309W        W89763   4.774   9.788   4.290
28310W        W89764   9.154  29.117   5.323
28311W        W89765  44.342  27.963  10.139
28312W        W89766  42.847  37.538   1.826
28313W        W89767   5.203  29.928   4.214
28314W        W89768  36.927   2.863  14.339
28315W        W89769  32.018  15.751   4.300
28316W        W89770  30.434  10.272   2.713
28317W        W89771  14.596  17.688   4.733
28318W        W89772  41.896  22.224  12.823
28319W        W89773  14.119  38.558   2.738
28320W        W89774   5.842  39.359  11.044
28321W        W89775   5.723  43.827  13.796
28322W        W89776  17.132   2.877  13.412
28323W        W89777  25.595  20.053   1.313
28324W        W89778   0.391  10.187   1.234
28325W        W89779  24.573  15.648  10.641
28326W        W89780  21.658   6.212   4.786
28327W        W89781  33.890  22.242  13.999
28328W        W89782  11.356  14.158   1.230
28329W        W89783  31.463  31.563  13.920
28330W        W89784  41.331  42.988  14.461
28331W        W89785  16.074  16.726  13.018
28332W        W89786   0.460  39.380  14.382
28333W        W89787  43.387   2.360   4.731
28334W        W89788   4.902   4.814  10.590
28335W        W89789  25.540  43.824  14.329
28336W        W89790  37.558  18.294   0.894
28337W        W89791  38.858  40.024  14.976
28338W        W89792  17.100  29.110   3.814
28339W        W89793  36.087  14.776   3.855
28340W        W89794  33.935  26.046  13.515
28341W        W89795   1.348  39.834   2.771
28342W        W89796   9.192  11.185   2.356
28343W        W89797  33.417  31.611  12.917
28344W        W89798   7.230  30.018  13.988
28345W        W89799  40.381  42.473   1.344
28346W        W89800  16.692   4.700   4.148
28347W        W89801   2.905  35.949  12.389
28348W        W89802  10.735   4.754  13.968
28349W        W89803   4.883  23.687   5.175
28350W        W89804  25.091  36.895  12.353
28351W        W89805  16.287  20.168  12.052
28352W        W89806  15.615  37.522   2.311
28353W        W89807  29.664  15.257  12.444
28354W        W89808  41.956  24.721  12.840
28355W        W89809  12.781  18.094  12.377
28356W        W89810  19.694  28.126  13.871
28357W        W89811   5.776   8.747  12.010
28358W        W89812  16.129  39.902  13.431
28359W        W89813  18.087  18.748   3.341
28360W        W89814   1.821   2.750   1.791
28361W        W89815   5.762  25.573   1.355
28362W        W89816  40.392  26.676   2.208
28363W        W89817  32.582  36.870  14.457
28364W        W89818   3.453  23.684   2.361
28365W        W89819  42.909  23.658   4.323
28366W        W89820  23.088  33.958   2.260
28367W        W89821  32.928  39.432  11.554
28368W        W89822  31.584  38.360  11.868
28369W        W89823  15.616  20.763  14.299
28370W        W89824  31.905  17.228  11.541
28371W        W89825  10.354   2.722  13.018
28372W        W89826   2.325  23.987  10.942
28373W        W89827  27.994  36.422   4.762
28374W        W89828  21.662   0.844  10.636
28375W        W89829  13.161  10.151   1.839
28376W        W89830  17.637  41.939  12.825
28377W        W89831  30.557  21.057   4.788
28378W        W89832  40.976  12.325  12.369
28379W        W89833  19.643  32.028   5.219
28380W        W89834  41.507   0.312   4.158
28381W        W89835  13.671   1.269   1.369
28382W        W89836  33.114  22.510  11.464
28383W        W89837  11.704  37.920  12.518
28384W        W89838  41.469  21.584   0.787
28385W        W89839  36.399   5.193   0.265
28386W        W89840  23.204   9.727   2.701
28387W        W89841  17.795  28.098   2.270
28388W        W89842  21.705  23.129  13.387
28389W        W89843   4.338  17.763  12.418
28390W        W89844   9.277   3.385  10.953
28391W        W89845  30.507  38.854  13.857
28392W        W89846  29.131  13.288   1.728
28393W        W89847  23.028  25.564  12.947
28394W        W89848  40.843  22.670   4.218
28395W        W89849   8.228   5.778   3.175
28396W        W89850  34.532   3.776  10.943
28397W        W89851  34.560  38.902  10.517
28398W        W89852   3.291  11.192  13.470
28399W        W89853  11.311  28.468  10.925
28400W        W89854   7.717  29.102  12.876
28401W        W89855  39.496  25.543   4.756
28402W        W89856  15.693  23.026  11.929
28403W        W89857   4.381  21.111  10.614
28404W        W89858  41.498  10.162   3.349
28405W        W89859  13.760  42.911   3.364
28406W        W89860   8.777  38.856   3.248
28407W        W89861  33.437   5.915  14.809
28408W        W89862  20.071   7.235   1.285
28409W        W89863  20.554  27.672  10.443
28410W        W89864  44.786  14.299  11.417
28411W        W89865  38.986  15.174  12.453
28412W        W89866  29.052  22.242   3.348
28413W        W89867  14.201   4.813   4.136
28414W        W89868  17.150  40.935   0.299
28415W        W89869   2.446  17.683   4.158
28416W        W89870  20.662  19.651  13.319
28417W        W89871  28.549  14.285  14.980
28418W        W89872   8.213  34.118   4.335
28419W        W89873  22.645  11.293  12.930
28420W        W89874   8.256  22.210  13.857
28421W        W89875   1.412  30.129   4.256
28422W        W89876  28.141   7.672  13.983
28423W        W89877  22.505  37.905  11.107
28424W        W89878  14.651   4.397  12.036
28425W        W89879  40.860  23.140   1.780
28426W        W89880   1.251   9.848  11.604
28427W        W89881   0.760  11.725  10.594
28428W        W89882  19.208  33.589   4.701
28429W        W89883  33.920  41.039   3.174
28430W        W89884  25.468  16.079   0.380
28431W        W89885   1.789  18.718  12.349
28432W        W89886  38.886  31.118  11.377
28433W        W89887  19.542  10.659   1.303
28434W        W89888  40.349   5.405  11.868
28435W        W89889  39.387  29.555  11.062
28436W        W89890  29.066  18.235   2.737
28437W        W89891  32.888  26.618   2.198
28438W        W89892   7.237  14.328   3.365
28439W        W89893  25.185  40.469  11.894
28440W        W89894  38.045  43.005  12.456
28441W        W89895  12.133  19.139   3.648
28442W        W89896  27.992  10.838  13.958
28443W        W89897  28.167  21.076   3.234
28444W        W89898  12.131  42.472   4.240
28445W        W89899  17.749  42.935   5.299
28446W        W89900   8.216  25.092  13.469
28447W        W89901  14.260  11.354  13.545
28448W        W89902  32.922  31.443  11.403
28449W        W89903  35.446  24.723  13.483
28450W        W89904  12.164   5.843  13.389
28451W        W89905  15.799  22.113   0.898
28452W        W89906  30.617  36.006   0.333
28453W        W89907  12.664  27.540   1.925
28454W        W89908  36.475  38.964   1.212
28455W        W89909  44.423  42.839  12.415
28456W        W89910  13.783  42.402   1.878
28457W        W89911  25.006  11.816   0.806
28458W        W89912  33.877  16.187   1.418
28459W        W89913  43.437  39.980   0.961
28460W        W89914   7.239  11.269   2.737
28461W        W89915   7.174  29.499   1.873
28462W        W89916  41.525  39.365   0.457
28463W        W89917  41.000   8.386   2.824
28464W        W89918  21.601  42.372  14.470
28465W        W89919   8.304  10.260  14.453
28466W        W89920  14.235  20.262   0.478
28467W        W89921   6.717   8.729  11.587
28468W        W89922  39.368  18.286   2.729
28469W        W89923  11.299  27.048  12.427
28470W        W89924  24.123  38.502  10.902
28471W        W89925  24.713  26.004  13.853
28472W        W89926  30.554  40.933   3.161
28473W        W89927  43.878  39.885  11.939
28474W        W89928  12.790  43.791   4.768
28475W        W89929  19.552  38.052   4.174
28476W        W89930  30.547  41.424  12.353
28477W        W89931  22.576  34.004   3.272
28478W        W89932   6.876  33.058  14.425
28479W        W89933  25.167   5.728   2.678
28480W        W89934   3.269  10.160   1.717
28481W        W89935  11.774   6.880  12.084
28482W        W89936   7.317  19.233  14.874
28483W        W89937  15.820  13.762   2.764
28484W        W89938   5.746   8.810   3.299
28485W        W89939  19.068  39.971  12.069
28486W        W89940  41.002   6.681  11.063
28487W        W89941  41.313  24.027   1.379
28488W        W89942  33.917  37.978   4.179
28489W        W89943  29.075  19.693   2.390
28490W        W89944  20.112  13.746  10.492
28491W        W89945   5.825  33.603   3.331
28492W        W89946  26.548  41.024  13.873
28493W        W89947  10.811  41.025  13.318
28494W        W89948   4.854   9.794  11.900
28495W        W89949   9.823  15.820  12.493
28496W        W89950  32.073  27.970  14.391
28497W        W89951  22.203  21.599   3.640
28498W        W89952  39.873  28.984   2.746
28499W        W89953  23.029   2.251  14.815
28500W        W89954  30.047   2.245   1.344
28501W        W89955  27.980   8.310  13.892
28502W        W89956  20.190  19.589  10.973
28503W        W89957  21.028  16.317  14.945
28504W        W89958  29.020  17.209  14.881
28505W        W89959  23.497   5.416   2.853
28506W        W89960  36.525  44.872  12.356
28507W        W89961  40.036   2.372   2.228
28508W        W89962   1.355  30.605  14.857
28509W        W89963  31.438  28.492  12.499
28510W        W89964  16.775  37.908  13.447
28511W        W89965   0.841   0.250   3.244
28512W        W89966  30.610  20.042  13.842
28513W        W89967   8.731  16.730   2.401
28514W        W89968  15.778  11.787  13.506
28515W        W89969  12.732  43.440  13.863
28516W        W89970  10.848  32.554  13.926
28517W        W89971  31.141  39.352   2.689
28518W        W89972  28.970   9.191   2.381
28519W        W89973  14.259  18.619   0.292
28520W        W89974  29.163   0.300   1.398
28521W        W89975   8.225  23.052  12.522
28522W        W89976  41.867  32.026   4.830
28523W        W89977  23.002  17.248   2.185
28524W        W89978   7.805  43.511  14.348
28525W        W89979  28.653  23.180  12.994
28526W        W89980  44.426  15.229   2.416
28527W        W89981  23.729  40.899   4.631
28528W        W89982  16.593  13.218   3.781
28529W        W89983   5.729  37.954   4.228
28530W        W89984  21.551  22.655   9.940
28531W        W89985  11.834  14.627   0.430
28532W        W89986   8.187  38.556   2.190
28533W        W89987   8.832  14.781  10.942
28534W        W89988  40.396  25.218  11.997
28535W        W89989  35.555  40.404   4.126
28536W        W89990  30.610  30.622  10.558
28537W        W89991  21.233  24.180  12.894
28538W        W89992  28.438   9.301   4.235
28539W        W89993  41.035  40.875  10.446
28540W        W89994  33.089  41.297   2.745
28541W        W89995  15.669  20.653  11.592
28542W        W89996   1.470  34.086   3.820
28543W        W89997  30.634  16.625   2.234
28544W        W89998   9.659  15.123  11.051
28545W        W89999  18.244  42.292   2.213
28546W        W90000  42.017  15.665   4.342
28547W        W90001  26.686  22.503  10.410
28548W        W90002  30.073  35.418  10.425
28549W        W90003  19.752   1.958   2.365
28550W        W90004  18.214  41.300   1.241
28551W        W90005  26.543  42.501   1.230
28552W        W90006  25.110  41.829   5.308
28553W        W90007  34.425   5.814  12.968
28554W        W90008  22.073  22.246  14.900
28555W        W90009  17.766  20.090   0.455
28556W        W90010  31.994   7.894  12.947
28557W        W90011  34.388  16.116  14.441
28558W        W90012  34.535  10.706   2.222
28559W        W90013  18.634  44.454  12.379
28560W        W90014  11.216  39.039   3.818
28561W        W90015  35.504  31.913   2.819
28562W        W90016  34.912  40.014  10.965
28563W        W90017  40.458   3.921   3.795
28564W        W90018  13.720  32.090  10.012
28565W        W90019  23.727  40.547   2.288
28566W        W90020  33.032  35.486   1.921
28567W        W90021  38.419  25.021  13.973
28568W        W90022   6.407  34.082  13.495
28569W        W90023   9.310   1.447  14.891
28570W        W90024  21.170  19.048  11.385
28571W        W90025   8.163  18.724  11.921
28572W        W90026  41.853  27.956  14.453
28573W        W90027  29.500  37.846  11.876
28574W        W90028  31.589   1.417   2.743
28575W        W90029  13.813  24.173   3.176
28576W        W90030  23.564  42.958  11.525
28577W        W90031   3.406  24.481   3.252
28578W        W90032  39.517  35.593  11.533
28579W        W90033   5.708  41.349   4.740
28580W        W90034  21.079  33.950   4.702
28581W        W90035  32.501  35.460  13.858
28582W        W90036  35.013  39.898  14.278
28583W        W90037  32.030  17.274   2.693
28584W        W90038  37.006   5.690   1.269
28585W        W90039  14.625  43.434  13.974
28586W        W90040  29.670  14.796   3.802
28587W        W90041  36.889  39.980   3.685
28588W        W90042   5.299  22.610  14.299
28589W        W90043  11.297  21.025  11.572
28590W        W90044  28.030  20.760   3.316
28591W        W90045  38.950   3.339   3.673
28592W        W90046  18.065   4.767  12.947
28593W        W90047  40.858  14.691  11.979
28594W        W90048  30.967  30.432  12.044
28595W        W90049  36.522  21.682   2.690
28596W        W90050  29.054  15.690   3.850
28597W        W90051  38.021  27.578  11.375
28598W        W90052  12.252  28.544  13.003
28599W        W90053  11.737  34.595   1.715
28600W        W90054   2.909  39.814   0.481
28601W        W90055  31.425  39.011  12.488
28602W        W90056  13.135  12.840  11.372
28603W        W90057   3.829  10.687   4.133
28604W        W90058  23.519   4.911  14.984
28605W        W90059  28.004   1.967   1.714
28606W        W90060  24.595  19.544  10.412
28607W        W90061  26.499  20.179  12.549
28608W        W90062  24.589  11.180   3.721
28609W        W90063   3.255  39.947   4.260
28610W        W90064  23.230   9.860   4.761
28611W        W90065  39.451  13.337  12.902
28612W        W90066  40.001  28.935   0.342
28613W        W90067  19.075  34.570   3.357
28614W        W90068  22.697  33.435   4.189
28615W        W90069  44.437   2.295   2.213
28616W        W90070  10.181  36.064   4.155
28617W        W90071  21.166  15.744  11.862
28618W        W90072  40.807  25.109   5.211
28619W        W90073  22.678  32.077   1.915
28620W        W90074  33.455  39.316  14.993
28621W        W90075  32.414  38.905   3.190
28622W        W90076  17.285  16.255  12.995
28623W        W90077  40.488  33.533   5.192
28624W        W90078  13.250  12.316  11.066
28625W        W90079  14.828  42.419   0.828
28626W        W90080  16.272  24.053   1.395
28627W        W90081  23.736  28.007   0.923
28628W        W90082  13.255  12.801  12.368
28629W        W90083  27.070  42.850   3.826
28630W        W90084   1.966  25.061  11.608
28631W        W90085  28.501   7.241  11.059
28632W        W90086  21.261  43.845   2.332
28633W        W90087  32.095  40.028  12.385
28634W        W90088  18.288  40.391   2.359
28635W        W90089  32.452  15.667   3.222
28636W        W90090   6.217  13.219   3.737
28637W        W90091  14.776  18.059  12.379
28638W        W90092  31.953  12.188   0.294
28639W        W90093  33.597  25.613   4.242
28640W        W90094  21.076   6.352  13.885
28641W        W90095  17.714  29.592  13.060
28642W        W90096  19.061  10.772  10.077
28643W        W90097  43.471   3.237  14.297
28644W        W90098   7.403  13.840  13.797
28645W        W90099  44.860   9.250  10.890
28646W        W90100  35.507  33.962   2.311
28647W        W90101  34.015  38.970   2.274
28648W        W90102  18.668  37.432   1.828
28649W        W90103  38.409   8.806   0.445
28650W        W90104  35.021   8.675  10.953
28651W        W90105  38.407  33.617   3.289
28652W        W90106  35.365  41.496   5.173
28653W        W90107   2.950  21.747   1.446
28654W        W90108  32.968  36.511   3.372
28655W        W90109  36.372  23.684  14.846
28656W        W90110  33.012  20.606   3.833
28657W        W90111  19.759  23.501   0.327
28658W        W90112  42.461   4.789   2.337
28659W        W90113  29.665  23.058   1.257
28660W        W90114  43.814   8.384  12.511
28661W        W90115   2.846   4.717  13.930
28662W        W90116  27.136   7.853   0.756
28663W        W90117   0.828   5.289  12.418
28664W        W90118  27.617   5.871  10.466
28665W        W90119  10.156  26.533  10.408
28666W        W90120  33.974   0.315  14.288
28667W        W90121  12.610  28.132  14.769
28668W        W90122  43.507  10.680  13.957
28669W        W90123   2.466  31.997  10.978
28670W        W90124  12.144  28.587   0.857
28671W        W90125   8.881  26.622  14.479
28672W        W90126  14.260   4.805   3.854
28673W        W90127  14.261  23.046   0.772
28674W        W90128   8.664   0.968  10.636
28675W        W90129  40.931  22.066  12.375
28676W        W90130  20.171   3.447  12.941
28677W        W90131  12.212  44.459   4.616
28678W        W90132  40.401   5.836   3.810
28679W        W90133   4.783  44.315   2.277
28680W        W90134  25.072  39.026   2.181
28681W        W90135   5.750  19.774  14.422
28682W        W90136  25.542  20.042  11.383
28683W        W90137  20.146  38.346  13.939
28684W        W90138  12.299  23.167  14.818
28685W        W90139   0.447   5.848   4.796
28686W        W90140  43.453  23.124  10.593
28687W        W90141  14.263  39.847   1.297
28688W        W90142   6.255  40.372  14.993
28689W        W90143   0.374   8.746   4.316
28690W        W90144   6.707  15.170   2.258
28691W        W90145  40.908  42.452  12.546
28692W        W90146   1.945  40.540   3.652
28693W        W90147  42.869  40.006  13.892
28694W        W90148  27.982  38.964   3.339
28695W        W90149  27.580   3.448   4.778
28696W        W90150  23.036  23.078  12.566
28697W        W90151  20.049  10.693  14.861
28698W        W90152   5.324   4.308  14.385
28699W        W90153  30.096  11.767   2.326
28700W        W90154  39.387   2.258  14.282
28701W        W90155  38.908  44.007   3.720
28702W        W90156  34.460  22.188  13.820
28703W        W90157  13.228  22.999  14.279
28704W        W90158  21.142   4.806  14.995
28705W        W90159  36.000  22.648   2.388
28706W        W90160  11.128  41.811   2.404
28707W        W90161  21.757  34.402   1.934
28708W        W90162  32.995   1.284   1.393
28709W        W90163  37.532  41.311  14.325
28710W        W90164   9.666   1.748   2.884
28711W        W90165  35.862  17.231  13.913
28712W        W90166   0.397   0.379   1.776
28713W        W90167  38.879   0.859  13.884
28714W        W90168   2.886  24.522  13.505
28715W        W90169   1.978   0.755  14.021
28716W        W90170   5.878  14.095   0.745
28717W        W90171   8.730  41.005   3.808
28718W        W90172   1.279  28.998  13.523
28719W        W90173  17.630   7.894  12.999
28720W        W90174  15.232   3.225   2.196
28721W        W90175  40.472  10.340  10.061
28722W        W90176  35.021   1.262  14.445
28723W        W90177  25.016   4.365  11.988
28724W        W90178   9.245  26.195   4.310
28725W        W90179  14.746  25.612   4.264
28726W        W90180  35.489   6.300   4.838
28727W        W90181   4.869  12.708  10.940
28728W        W90182  20.263  27.684  11.014
28729W        W90183  12.171  35.377  13.041
28730W        W90184  22.242  36.523   1.213
28731W        W90185  12.315  11.683  12.072
28732W        W90186  26.537  15.822   1.741
28733W        W90187   7.194  34.899  12.829
28734W        W90188   1.296  18.185  12.066
28735W        W90189  31.024  16.242   2.323
28736W        W90190  37.466  17.607   4.242
28737W        W90191  12.691  27.156   2.815
28738W        W90192   0.862  32.054  12.346
28739W        W90193  39.865  34.986  13.051
28740W        W90194  29.949   4.872  10.454
28741W        W90195  21.237   1.894  14.012
28742W        W90196  11.737  16.088   3.201
28743W        W90197  14.602   3.391   1.729
28744W        W90198  35.042   7.219   0.896
28745W        W90199   0.780  27.187   2.728
28746W        W90200  31.454  21.522   1.369
28747W        W90201  22.141  32.142   1.747
28748W        W90202  34.107  27.161   4.616
28749W        W90203  33.564  34.977  10.635
28750W        W90204  34.062  40.842  12.499
28751W        W90205   8.213  18.667  10.640
28752W        W90206  33.516  16.084   2.417
28753W        W90207  36.386  16.288  14.466
28754W        W90208  15.285  27.465  13.319
28755W        W90209   8.793  22.195  13.975
28756W        W90210  21.101  25.687   3.819
28757W        W90211  10.744  27.516  11.866
28758W        W90212   3.305  29.481  12.519
28759W        W90213  29.456  11.834  11.499
28760W        W90214  23.007   7.244  12.383
28761W        W90215  17.160  13.249  10.154
28762W        W90216  41.915  26.685   2.319
28763W        W90217   2.327  40.890  13.931
28764W        W90218  11.318  28.043   3.866
28765W        W90219  10.717  38.388  13.496
28766W        W90220  22.086  42.893  11.940
28767W        W90221  15.266  33.497  13.011
28768W        W90222   0.801   6.781   1.366
28769W        W90223  23.729  27.081   2.824
28770W        W90224   7.395  11.260  10.904
28771W        W90225  27.122  14.147   3.664
28772W        W90226  23.027  20.571   2.789
28773W        W90227  29.119   8.201  13.533
28774W        W90228   3.382  32.887  13.014
28775W        W90229   4.299  16.765   2.210
28776W        W90230  37.342  29.920  13.329
28777W        W90231   4.928   5.924  10.419
28778W        W90232  42.949  37.498   4.140
28779W        W90233  25.166  10.322   4.242
28780W        W90234  20.727  44.324   1.384
28781W        W90235  19.728   5.259   0.336
28782W        W90236  34.930  16.696  12.072
28783W        W90237  16.650  36.055  14.377
28784W        W90238  44.801  40.833   4.649
28785W        W90239  44.904  12.778   5.167
28786W        W90240  22.598  22.650   3.737
28787W        W90241  30.972  36.964  12.008
28788W        W90242   3.879   5.208  12.511
28789W        W90243  25.160  21.731  10.525
28790W        W90244  12.804  23.024  10.495
28791W        W90245  43.501  15.711   1.320
28792W        W90246  13.325  36.842   5.319
28793W        W90247  25.660  21.613  10.556
28794W        W90248   8.175   2.881  14.469
28795W        W90249  24.105  44.374   1.908
28796W        W90250  20.220  36.032  13.894
28797W        W90251  14.778   4.887   0.928
28798W        W90252   2.457  18.705   4.718
28799W        W90253   4.919  23.724   1.875
28800W        W90254  15.102   8.265  11.451
28801W        W90255  27.528   3.254   0.349
28802W        W90256  41.832  34.936  13.942
28803W        W90257  36.871  36.419  13.443
28804W        W90258  42.500  28.072   0.751
28805W        W90259  16.657  29.485   3.166
28806W        W90260  26.969  31.956   2.768
28807W        W90261   5.711  13.682   3.839
28808W        W90262   9.793  42.011   0.439
28809W        W90263  29.061  14.301   4.270
28810W        W90264  11.828  32.945   4.776
28811W        W90265  31.594  38.887   1.263
28812W        W90266  15.626  20.088  12.468
28813W        W90267  29.109  42.313   1.708
28814W        W90268  38.459   4.776  14.794
28815W        W90269  14.250  32.116  10.626
28816W        W90270  19.747  12.625  12.384
28817W        W90271   6.810   5.287  12.845
28818W        W90272  34.388  18.282   4.316
28819W        W90273   4.448  35.049   1.230
28820W        W90274   8.854   8.788  13.834
28821W        W90275   1.828  16.202   0.314
28822W        W90276  23.589   1.482  11.106
28823W        W90277   6.399   6.231  12.542
28824W        W90278  29.464  19.054   4.143
28825W        W90279  22.677  18.088   2.686
28826W        W90280   3.424  24.063  11.081
28827W        W90281  30.938  16.690  12.432
28828W        W90282  10.730  10.201   3.660
28829W        W90283  14.772  41.853   2.396
28830W        W90284  32.126  38.990  14.339
28831W        W90285   5.893  37.006  13.439
28832W        W90286  16.650   3.776  12.977
28833W        W90287  14.753  33.475  12.541
28834W        W90288  35.539  17.694   2.322
28835W        W90289  22.144  24.135  10.525
28836W        W90290  29.467  44.327  10.089
28837W        W90291  41.975  18.555  13.451
28838W        W90292   7.265   6.316  14.768
28839W        W90293  24.479  16.578  13.359
28840W        W90294   3.842  44.389   0.840
28841W        W90295   0.388  35.978  13.493
28842W        W90296  40.354  15.578  12.901
28843W        W90297  35.853  22.027  11.871
28844W        W90298  41.342  28.037   3.256
28845W        W90299  26.167  33.083   0.429
28846W        W90300   1.429  16.681  12.855
28847W        W90301  18.097  33.886   1.749
28848W        W90302   4.810  13.820   3.293
28849W        W90303  12.841  31.140   0.939
28850W        W90304  10.871  18.293  14.869
28851W        W90305   8.314  16.096   2.227
28852W        W90306  38.333  34.956  13.388
28853W        W90307  14.280  29.484   1.280
28854W        W90308   8.790  41.372  13.475
28855W        W90309  21.263  12.277  11.969
28856W        W90310  41.394  10.182   4.310
28857W        W90311  16.109  31.478  11.478
28858W        W90312  16.619   7.181   3.186
28859W        W90313   3.950  11.800  11.433
28860W        W90314   5.792   8.358  11.977
28861W        W90315  41.973  20.538   1.909
28862W        W90316  30.560   0.862   0.468
28863W        W90317  43.777  38.901  10.036
28864W        W90318  36.542  32.411   0.842
28865W        W90319  25.519  12.196   0.945
28866W        W90320  38.066  39.482   0.278
28867W        W90321   0.842   0.446   4.280
28868W        W90322   1.274  29.982  14.969
28869W        W90323  42.833   9.685   1.934
28870W        W90324  21.574  40.952  14.480
28871W        W90325  41.973  22.199  10.544
28872W        W90326   6.699  32.949  13.471
28873W        W90327   2.921  12.724   0.804
28874W        W90328  35.014  21.074   9.968
28875W        W90329  20.138  16.604  13.002
28876W        W90330  23.638  15.799  11.476
28877W        W90331  21.043  39.831   9.983
28878W        W90332  16.237  14.632  12.424
28879W        W90333  43.018  27.149  14.398
28880W        W90334  27.495   7.330   4.604
28881W        W90335  30.534   2.351  10.922
28882W        W90336  14.165   4.316   3.788
28883W        W90337  42.825  19.605  11.009
28884W        W90338  27.115  22.073   4.177
28885W        W90339  25.556  38.828  10.627
28886W        W90340  35.058  16.274  14.954
28887W        W90341  41.833  22.547   4.611
28888W        W90342  12.757   3.376  13.998
28889W        W90343  28.962  41.834   2.801
28890W        W90344   1.939   0.375  13.474
28891W        W90345  14.716   4.419   4.177
28892W        W90346   5.873  31.551   2.861
28893W        W90347  25.005   6.367   3.860
28894W        W90348   7.734  37.530   2.719
28895W        W90349  40.840   2.443   1.865
28896W        W90350  34.037   0.420   1.261
28897W        W90351  44.813   3.328  14.011
28898W        W90352  37.576  12.337  14.800
28899W        W90353  30.972   3.730   4.711
28900W        W90354  10.378  12.295   0.785
28901W        W90355   1.853  31.566  12.343
28902W        W90356  29.037   6.786   3.326
28903W        W90357  41.926  41.938   2.236
28904W        W90358   4.248  10.383  12.507
28905W        W90359  14.328  11.722  11.583
28906W        W90360  18.705  42.819  10.991
28907W        W90361  19.143   0.296  12.925
28908W        W90362  10.177   6.877   3.260
28909W        W90363  20.177   0.780   4.660
28910W        W90364   7.750   8.375  10.915
28911W        W90365  41.522  22.076  10.423
28912W        W90366   6.697   7.749   2.180
28913W        W90367  39.818  10.369  12.871
28914W        W90368  31.148  10.756  10.500
28915W        W90369   3.404   8.295  12.922
28916W        W90370  25.554  27.128   1.316
28917W        W90371  12.710  40.929  12.989
28918W        W90372  15.239   9.186  10.014
28919W        W90373  12.781  41.458   0.812
28920W        W90374   2.891  25.075   2.361
28921W        W90375  12.198  20.685  13.456
28922W        W90376  34.928  15.325  13.496
28923W        W90377  40.310  17.096   1.440
28924W        W90378   1.294  26.164   1.791
28925W        W90379  39.433   2.258   4.771
28926W        W90380  28.623  39.317  13.036
28927W        W90381   6.687  30.130   1.746
28928W        W90382  22.224  11.357   2.358
28929W        W90383  16.773   0.839   3.280
28930W        W90384  19.255  35.059   0.351
28931W        W90385   8.335  30.598  11.463
28932W        W90386  37.885  23.043  10.559
28933W        W90387  34.540  19.549  11.528
28934W        W90388  36.540  35.892   2.817
28935W        W90389   7.706  29.606   4.146
28936W        W90390  40.377  28.061  10.564
28937W        W90391   1.750  35.953   1.925
28938W        W90392  27.105  19.246  12.871
28939W        W90393  16.656  33.513   0.882
28940W        W90394  22.076   7.877  11.372
28941W        W90395  22.503  13.832   2.855
28942W        W90396   0.769  39.815  14.479
28943W        W90397   5.279  30.624  11.045
28944W        W90398  29.992  23.045   3.783
28945W        W90399  43.510  34.613   4.650
28946W        W90400  19.699  11.866   2.739
28947W        W90401  25.650  25.093  13.811
28948W        W90402  17.574  29.533   2.721
28949W        W90403  33.496   9.154   0.305
28950W        W90404  31.001  36.435  11.510
28951W        W90405  27.036  32.974  11.560
28952W        W90406   8.316  24.996   2.756
28953W        W90407   8.687   4.876  12.083
28954W        W90408  39.557  18.234   0.295
28955W        W90409  20.590  33.947  13.996
28956W        W90410  37.043   9.161  11.482
28957W        W90411  23.619   8.866  13.427
28958W        W90412  12.693   2.922   3.298
28959W        W90413  36.868  16.296   2.412
28960W        W90414  38.967  42.899  10.124
28961W        W90415  33.489  12.179   1.779
28962W        W90416   9.258   9.243  12.946
28963W        W90417  12.734  12.257  11.461
28964W        W90418   9.346  22.168  10.517
28965W        W90419   3.295  10.280   0.963
28966W        W90420  35.586  28.104  12.982
28967W        W90421  11.798  25.199   0.343
28968W        W90422  33.469  42.866   4.810
28969W        W90423  20.214  14.148   4.160
28970W        W90424  15.806  39.363  10.142
28971W        W90425  35.500   0.877   1.308
28972W        W90426  15.215  33.456  14.868
28973W        W90427  36.564  32.893  14.373
28974W        W90428   9.328  19.745   5.204
28975W        W90429  11.629  17.645   0.775
28976W        W90430  10.185   3.794  11.057
28977W        W90431  39.927   6.208   3.262
28978W        W90432  23.211  39.389  14.410
28979W        W90433   4.878   0.398   1.320
28980W        W90434  30.640  18.221   3.696
28981W        W90435  40.383   5.339  13.446
28982W        W90436  17.597  19.224   0.856
28983W        W90437  11.171  30.979   1.700
28984W        W90438  43.344  21.704  12.831
28985W        W90439  22.227  41.295  12.552
28986W        W90440  24.213   0.899   3.334
28987W        W90441  16.184  23.153   0.403
28988W        W90442   5.816  32.483  13.875
28989W        W90443   0.343  32.902  14.830
28990W        W90444  42.858  11.787   3.283
28991W        W90445  15.595  43.860   1.849
28992W        W90446   9.375  15.802  11.008
28993W        W90447  36.383   0.969   4.233
28994W        W90448  25.023  31.105   4.712
28995W        W90449  27.575  22.578  13.038
28996W        W90450  10.191   8.779   3.298
28997W        W90451  41.791  22.554  12.441
28998W        W90452   9.168  17.268  11.481
28999W        W90453   8.190  41.410  11.093
29000W        W90454  23.217   0.747   1.272
29001W        W90455  27.184   7.707  13.932
29002W        W90456  16.798  22.542  13.874
29003W        W90457  41.810  18.054  10.558
29004W        W90458  44.870  38.382   0.809
29005W        W90459  36.589  35.106  12.342
29006W        W90460  15.254  30.419   3.636
29007W        W90461  31.458  12.739   3.368
29008W        W90462  20.661   9.663   4.823
29009W        W90463  43.874  38.540   0.358
29010W        W90464   0.374   5.382   1.733
29011W        W90465  28.024  16.267  14.394
29012W        W90466  40.862   4.374  14.029
29013W        W90467  22.184  44.762   1.355
29014W        W90468  28.077  22.016  11.084
29015W        W90469   4.402  37.004   4.233
29016W        W90470  26.499  17.138  14.906
29017W        W90471  13.240   7.181  11.549
29018W        W90472   3.441  32.094  12.827
29019W        W90473  10.775   6.365   4.618
29020W        W90474  32.488  43.411  12.456
29021W        W90475  28.955  31.444   1.291
29022W        W90476  16.804  21.110  14.769
29023W        W90477   2.820  24.519  12.561
29024W        W90478  24.080  32.543   0.424
29025W        W90479  26.179  32.552  12.916
29026W        W90480  14.199  25.051  13.464
29027W        W90481  35.359   5.324   0.767
29028W        W90482  40.378  38.429   1.851
29029W        W90483  30.922  30.579  11.404
29030W        W90484  20.709   0.346  12.039
29031W        W90485  28.089   4.900   2.205
29032W        W90486  26.552  12.299   4.131
29033W        W90487  15.165   4.714   2.842
29034W        W90488  14.211  41.451   4.677
29035W        W90489  35.534  41.807  10.022
29036W        W90490  35.028  11.788  14.324
29037W        W90491   7.249   3.298  11.555
29038W        W90492   4.763  29.149   2.221
29039W        W90493  30.416  43.288   4.666
29040W        W90494  13.653  40.923   2.850
29041W        W90495   6.354  23.658  14.880
29042W        W90496  38.331  25.037   3.248
29043W        W90497  18.055  24.108  11.438
29044W        W90498   9.841  17.269  12.924
29045W        W90499  34.599   0.930   3.235
29046W        W90500   2.284  32.438   1.705
29047W        W90501  44.815   6.185   3.757
29048W        W90502   9.786   7.318   4.265
29049W        W90503  30.570  37.036   2.337
29050W        W90504  14.130  41.987   0.736
29051W        W90505  43.356  38.948  14.433
29052W        W90506   6.835  33.023  11.545
29053W        W90507  19.051   0.349   2.798
29054W        W90508  25.669   2.401  10.579
29055W        W90509  20.603   9.180  13.385
29056W        W90510  33.527  30.572  11.932
29057W        W90511   3.713   6.793  14.345
29058W        W90512  10.658  12.301   4.256
29059W        W90513  16.572  42.871  13.430
29060W        W90514  27.616  35.985  12.422
29061W        W90515  25.578  36.391  13.490
29062W        W90516  25.160   3.926  13.863
29063W        W90517   9.851  31.918   3.187
29064W        W90518  39.354  23.997   2.333
29065W        W90519  40.018   3.804  13.893
29066W        W90520  26.175  15.759   0.754
29067W        W90521  43.795  17.711   1.340
29068W        W90522  28.665  34.869  12.558
29069W        W90523   7.225  27.060   3.862
29070W        W90524  33.473  17.709   2.383
29071W        W90525  41.499  31.402   1.443
29072W        W90526   6.688  25.474  11.969
29073W        W90527  27.500  37.475   4.311
29074W        W90528  24.978  30.110   1.754
29075W        W90529   0.894  40.914   2.700
29076W        W90530  31.012  33.386   2.249
29077W        W90531   0.971   1.844  13.928
29078W        W90532   6.729  33.076   1.293
29079W        W90533  40.529  33.510   2.750
29080W        W90534  17.264   2.351   3.362
29081W        W90535  21.683  31.964   1.843
29082W        W90536  36.918   5.934   2.389
29083W        W90537  12.131  24.135   0.305
29084W        W90538   0.282  11.220  11.400
29085W        W90539  33.886   8.699   3.155
29086W        W90540   1.866  20.538  11.524
29087W        W90541  33.974  21.193  13.901
29088W        W90542  14.224  16.206  10.510
29089W        W90543  41.858  42.782   3.240
29090W        W90544  26.035  12.151  14.511
29091W        W90545  28.439  41.952  12.485
29092W        W90546  36.535  37.538  13.041
29093W        W90547  29.647  22.569  14.835
29094W        W90548  30.994  29.978   2.762
29095W        W90549  13.261  26.703   1.234
29096W        W90550  27.984  21.742  13.504
29097W        W90551  43.286  12.118   2.226
29098W        W90552  13.304  16.756   1.791
29099W        W90553  28.017  10.305  13.813
29100W        W90554  28.609  20.578   0.902
29101W        W90555  36.500  36.930   1.446
29102W        W90556  39.372  28.609  11.417
29103W        W90557  28.952  22.504   4.226
29104W        W90558   5.826   0.751   3.274
29105W        W90559   5.362  30.646   3.663
29106W        W90560  13.610   5.397  13.038
29107W        W90561  30.910   6.211   1.781
29108W        W90562  18.104  12.258   0.418
29109W        W90563  19.562   5.336   3.643
29110W        W90564  24.007  24.116  12.345
29111W        W90565  12.328  44.284   2.184
29112W        W90566  35.895  15.267   3.686
29113W        W90567  32.030  42.850  13.357
29114W        W90568  26.565  27.554   9.953
29115W        W90569   8.670  37.871  12.864
29116W        W90570  44.456  32.474   2.843
29117W        W90571  29.964  40.800   3.159
29118W        W90572  17.137  39.890  10.576
29119W        W90573  31.578  30.459   0.351
29120W        W90574  25.669  26.480  11.870
29121W        W90575  43.344   3.852   2.318
29122W        W90576  38.001   8.751  10.491
29123W        W90577  25.568  35.999   4.635
29124W        W90578  18.583   5.232   0.861
29125W        W90579  40.349  39.032   2.793
29126W        W90580  25.594  10.380   4.258
29127W        W90581  33.980  14.748   4.205
29128W        W90582  17.266  23.203   4.115
29129W        W90583  14.696  13.748   4.632
29130W        W90584  39.496  27.531  12.913
29131W        W90585  36.414  42.452  14.843
29132W        W90586  24.648  26.641   4.294
29133W        W90587  35.867   3.326   3.656
29134W        W90588   7.278  27.036   3.373
29135W        W90589  25.108  39.327   4.270
29136W        W90590  36.348  37.346  10.155
29137W        W90591   1.878  18.211   3.174
29138W        W90592  38.566  11.152   2.882
29139W        W90593  24.479  10.175  13.441
29140W        W90594  37.979  38.484   2.220
29141W        W90595  22.636  18.056  11.969
29142W        W90596  27.999  15.191   2.860
29143W        W90597  37.556  23.674  14.322
29144W        W90598  31.069  18.786  11.599
29145W        W90599   6.833  17.298  12.421
29146W        W90600  38.410  13.178   3.851
29147W        W90601  37.032   4.877  14.298
29148W        W90602  35.867   4.242   3.675
29149W        W90603   0.820  35.876  14.387
29150W        W90604  44.278  26.099   3.746
29151W        W90605  19.537  22.641   2.836
29152W        W90606  34.040  39.832   3.860
29153W        W90607  40.900   2.757  10.980
29154W        W90608  35.875   7.342  14.868
29155W        W90609  12.853  16.245   3.674
29156W        W90610  19.126  43.440  13.874
29157W        W90611  31.099  41.923   1.419
29158W        W90612   5.359  34.542   0.263
29159W        W90613  43.436  19.274   2.341
29160W        W90614  39.953  33.890  12.909
29161W        W90615  13.835  37.915   1.305
29162W        W90616  31.525  14.288   5.193
29163W        W90617  11.220  15.089  12.387
29164W        W90618  19.568  11.782  13.833
29165W        W90619  30.045  36.944  13.004
29166W        W90620  19.773  10.874   3.634
29167W        W90621  25.056  32.073  14.305
29168W        W90622  41.325   4.908  13.002
29169W        W90623  44.297   1.971   1.716
29170W        W90624  32.442  29.489   1.214
29171W        W90625  27.482  25.169   2.363
29172W        W90626  42.362  32.022  10.107
29173W        W90627  25.524   8.778   1.871
29174W        W90628  24.229   6.811  11.512
29175W        W90629  14.249  17.107   3.254
29176W        W90630  26.993  29.569   3.267
29177W        W90631  40.429  22.741  12.437
29178W        W90632   6.750  25.067   0.442
29179W        W90633  31.467  15.141  12.968
29180W        W90634  26.583  38.328   2.230
29181W        W90635  29.055  12.842   1.699
29182W        W90636  19.172   7.750  12.027
29183W        W90637  26.456  36.350  10.509
29184W        W90638  16.085   0.749  13.852
29185W        W90639  38.906  34.541   0.965
29186W        W90640  16.089  23.081   4.149
29187W        W90641  21.215  33.937   3.374
29188W        W90642  17.166  29.431   0.476
29189W        W90643  27.565  38.053   2.862
29190W        W90644  12.212   8.818  13.457
29191W        W90645  11.212   9.259  12.901
29192W        W90646  10.339  28.933   4.822
29193W        W90647  21.123  13.645   0.756
29194W        W90648  18.765  19.539  12.997
29195W        W90649  13.802  34.050   3.333
29196W        W90650  19.712  12.708  10.406
29197W        W90651   6.698  25.134  13.015
29198W        W90652  10.669  22.067  12.049
29199W        W90653   9.318  33.436   3.233
29200W        W90654   4.384  37.996   3.246
29201W        W90655  38.346  34.909   2.663
29202W        W90656  21.138   3.931   3.312
29203W        W90657  22.746  27.040  10.434
29204W        W90658  27.940  14.641   2.183
29205W        W90659  31.428  39.465   2.290
29206W        W90660   3.729  40.021  13.458
29207W        W90661  28.486  25.979  10.439
29208W        W90662   6.780  39.314   4.320
29209W        W90663  24.613   0.269  14.803
29210W        W90664  33.932  12.648   4.292
29211W        W90665  26.637  14.248   3.262
29212W        W90666  39.391  32.933  14.004
29213W        W90667  16.641  11.667  13.367
29214W        W90668  15.648  41.883   2.727
29215W        W90669   7.695  41.421   0.467
29216W        W90670  27.012  15.700   3.187
29217W        W90671  42.450   7.782   4.665
29218W        W90672  14.804   6.705   4.826
29219W        W90673   7.236  35.895  14.002
29220W        W90674   6.808   1.834   1.449
29221W        W90675  35.073   8.875  14.287
29222W        W90676   6.767   5.864   3.709
29223W        W90677  13.330  15.748  13.936
29224W        W90678  14.227   7.410  11.030
29225W        W90679  16.783  15.817   4.157
29226W        W90680  14.730  31.146  13.437
29227W        W90681  44.890   0.297  14.353
29228W        W90682  44.263  38.482  11.541
29229W        W90683  31.071   7.174  10.499
29230W        W90684  41.472   3.745  10.466
29231W        W90685  22.545  15.300   0.430
29232W        W90686  43.881   5.868  13.977
29233W        W90687  39.036  20.100   3.348
29234W        W90688   7.720   0.470  14.018
29235W        W90689  23.566   9.644  13.826
29236W        W90690  42.396  42.829   1.924
29237W        W90691  26.457  14.666   3.708
29238W        W90692  17.778   8.777  13.481
29239W        W90693   6.778  24.052  13.988
29240W        W90694  43.345  34.996  10.149
29241W        W90695   6.758   2.866  12.558
29242W        W90696  30.545   3.911   0.427
29243W        W90697  34.107  32.979  11.085
29244W        W90698   8.774  36.073   1.380
29245W        W90699  13.323  39.544   4.743
29246W        W90700   0.264  32.545   1.892
29247W        W90701  38.400   5.414  11.408
29248W        W90702  16.761  17.093   1.727
29249W        W90703  37.856  36.056   0.342
29250W        W90704   8.849  40.826   2.246
29251W        W90705  35.472   9.285  13.831
29252W        W90706  17.639   9.303  12.576
29253W        W90707  35.063  31.528   2.821
29254W        W90708  28.105  25.568   2.348
29255W        W90709   5.355  18.549   1.927
29256W        W90710  13.186  36.847  10.012
29257W        W90711  28.681  44.985   1.304
29258W        W90712  27.684   9.789  13.057
29259W        W90713  32.458  27.576  11.860
29260W        W90714  18.750  42.942   0.322
29261W        W90715  24.974  10.688  10.949
29262W        W90716  24.550  32.138  14.016
29263W        W90717  29.566  30.487  13.021
29264W        W90718  16.075   0.772  10.428
29265W        W90719  11.324  10.293  11.449
29266W        W90720  18.164  11.644  12.544
29267W        W90721  26.603  29.664  13.478
29268W        W90722   8.171  43.006  12.445
29269W        W90723   0.348  37.574  14.316
29270W        W90724  20.118   5.929  12.378
29271W        W90725  10.680  41.028  12.474
29272W        W90726  22.615  42.874  10.624
29273W        W90727   5.711  41.479  13.844
29274W        W90728  20.144   4.911   1.798
29275W        W90729  25.640  23.168  11.070
29276W        W90730   7.225  42.818   0.880
29277W        W90731  25.527  15.106   4.678
29278W        W90732  14.652   6.369  11.972
29279W        W90733   2.301  11.336   3.356
29280W        W90734  10.267   6.787  12.465
29281W        W90735  24.200  42.381  14.989
29282W        W90736  43.306  17.299   1.272
29283W        W90737  18.131  37.049  14.362
29284W        W90738  41.339   1.808  11.502
29285W        W90739  25.681  44.920   2.313
29286W        W90740  10.737  34.556  13.500
29287W        W90741   3.434  36.868   4.732
29288W        W90742  12.673  31.026   1.231
29289W        W90743  41.490  38.337  11.486
29290W        W90744  44.993  23.598  12.568
29291W        W90745  34.918  17.768  13.975
29292W        W90746  14.174  14.668  10.943
29293W        W90747  33.990  41.488  11.877
29294W        W90748   1.746   2.361  12.353
29295W        W90749  41.312  34.409   4.723
29296W        W90750  17.158  34.913   1.242
29297W        W90751  36.944   7.774  12.897
29298W        W90752  11.374  30.094  12.430
29299W        W90753  21.115  16.110  13.982
29300W        W90754   8.787  15.779   0.931
29301W        W90755  32.557  32.134   0.733
29302W        W90756  37.567  16.794   0.736
29303W        W90757  35.556  26.192   1.447
29304W        W90758   7.776  32.636   0.827
29305W        W90759  11.693   2.835  14.464
29306W        W90760   3.897  32.112  13.833
29307W        W90761   0.966  31.902  12.972
29308W        W90762  27.148  38.995  13.519
29309W        W90763  10.168  33.380   3.237
29310W        W90764  31.483  31.638  10.509
29311W        W90765   4.418  33.884   3.381
29312W        W90766   4.790  13.682   3.809
29313W        W90767   1.861   5.289  12.867
29314W        W90768  34.438  30.912   3.282
29315W        W90769  43.812  32.123  12.864
29316W        W90770  12.717  42.440   2.415
29317W        W90771  18.144   2.885   1.904
29318W        W90772  20.226  29.968  12.866
29319W        W90773  38.931  42.823   1.724
29320W        W90774  36.379  38.546   2.286
29321W        W90775  23.106  20.165   2.799
29322W        W90776  24.717  43.384  10.410
29323W        W90777   3.778  13.197  14.889
29324W        W90778  17.094   0.488   2.796
29325W        W90779  31.124  38.468  11.101
29326W        W90780  34.517  17.179  11.061
29327W        W90781  30.908  16.753   1.868
29328W        W90782  11.695  10.729  13.532
29329W        W90783  39.808  16.599   3.257
29330W        W90784   3.772   1.344  12.067
29331W        W90785  24.089  40.893   2.355
29332W        W90786  29.000  12.645   3.368
29333W        W90787  11.173   9.362   1.890
29334W        W90788  33.129  16.640   1.397
29335W        W90789  36.992   7.726   4.638
29336W        W90790  31.442  15.246  12.362
29337W        W90791  11.638   3.896  14.296
29338W        W90792  24.993  25.167  12.388
29339W        W90793   7.722   6.184   1.840
29340W        W90794   9.869  41.828  14.777
29341W        W90795  22.603   7.335  14.985
29342W        W90796   7.756  30.623   0.430
29343W        W90797   6.312  17.171   4.130
29344W        W90798   8.806  21.218  13.807
29345W        W90799  41.944   3.237  10.442
29346W        W90800  23.534  23.567   1.927
29347W        W90801   1.859  39.981   3.822
29348W        W90802  41.790   4.443  10.407
29349W        W90803  32.927  35.435  12.542
29350W        W90804  36.584  36.537   4.785
29351W        W90805  36.397  15.597  13.442
29352W        W90806   5.246  13.345   1.222
29353W        W90807  34.523  11.160  12.421
29354W        W90808  32.461   2.453   0.966
29355W        W90809   6.844  32.981   4.691
29356W        W90810   1.825   8.715   2.268
29357W        W90811  34.470  15.288   4.233
29358W        W90812  41.865  17.780  13.915
29359W        W90813  43.778  12.289  10.506
29360W        W90814  35.472  13.308  12.502
29361W        W90815  44.362   2.902   2.780
29362W        W90816   4.812  27.467   0.935
29363W        W90817  25.092   2.439  14.376
29364W        W90818  28.481  30.005   0.786
29365W        W90819   5.792  14.210  12.550
29366W        W90820  44.933   6.829  14.760
29367W        W90821  26.079  38.442   0.954
29368W        W90822  35.453   8.274   0.309
29369W        W90823  26.636  10.824   4.302
29370W        W90824   9.194  15.670   0.414
29371W        W90825  27.550  26.016  13.540
29372W        W90826  12.180  16.130  12.006
29373W        W90827  40.457  22.514   1.864
29374W        W90828   5.283  32.093  11.858
29375W        W90829  33.923  36.443  14.280
29376W        W90830  40.513  24.509  14.421
29377W        W90831  24.975  26.974   4.279
29378W        W90832  43.479   6.338  12.969
29379W        W90833  27.638   8.300   4.707
29380W        W90834   5.728  36.418   4.619
29381W        W90835  16.663   3.906  14.284
29382W        W90836   8.357  15.151   1.715
29383W        W90837  21.066  33.021  14.865
29384W        W90838  26.610  38.565  14.014
29385W        W90839  19.551   3.903   2.339
29386W        W90840  27.164  44.443  10.097
29387W        W90841   8.829  42.427   3.867
29388W        W90842   9.861  39.882   0.375
29389W        W90843  30.983  28.482  12.433
29390W        W90844  40.392  14.288  14.419
29391W        W90845  38.005  33.119   1.408
29392W        W90846   0.285  43.793   0.304
29393W        W90847   6.379  25.197  14.335
29394W        W90848   0.353  34.383  13.815
29395W        W90849  38.889   6.422  11.384
29396W        W90850  19.669   0.316  11.461
29397W        W90851  41.969  39.465   0.922
29398W        W90852   5.708  23.111   2.307
29399W        W90853   7.693  32.983  14.975
29400W        W90854  19.746   2.301  14.891
29401W        W90855  35.927   4.281   0.842
29402W        W90856  23.203  26.576   0.468
29403W        W90857  14.768  18.159  11.401
29404W        W90858  32.064  14.782   0.814
29405W        W90859   6.366  31.110  14.336
29406W        W90860  32.557  31.952  14.456
29407W        W90861  11.247  32.482   0.812
29408W        W90862  11.635  10.725   2.414
29409W        W90863  15.601  12.251  12.352
29410W        W90864  22.226  16.184  11.448
29411W        W90865  13.285  25.585  13.984
29412W        W90866  10.836  27.502   0.893
29413W        W90867   5.208  23.114   1.352
29414W        W90868  14.805  16.567  14.993
29415W        W90869  41.970  15.328  10.917
29416W        W90870  26.494  44.503  12.838
29417W        W90871  10.874  24.161  10.466
29418W        W90872  30.912  14.651   2.681
29419W        W90873  35.370   2.747  14.771
29420W        W90874  24.686  25.507  13.828
29421W        W90875  38.497  14.761   1.253
29422W        W90876  38.452  44.309  14.485
29423W        W90877  28.435   8.805  11.049
29424W        W90878  20.138   4.415  11.908
29425W        W90879  16.712   1.919  13.496
29426W        W90880  25.035  24.081  14.813
29427W        W90881  41.994  19.557   2.832
29428W        W90882   9.157  23.100  13.545
29429W        W90883  19.264  32.929   2.851
29430W        W90884  23.091   8.794   3.294
29431W        W90885  14.206  41.492  12.025
29432W        W90886  26.959   5.772  11.511
29433W        W90887  19.768   1.828  11.034
29434W        W90888  21.601   1.875   0.901
29435W        W90889  37.953  38.833   1.278
29436W        W90890  10.879  20.151   1.341
29437W        W90891  32.080   5.413  14.360
29438W        W90892   4.440  18.685   1.435
29439W        W90893  41.456   0.406  14.354
29440W        W90894  18.546  23.540  14.276
29441W        W90895  13.815  14.600   3.218
29442W        W90896  14.117   9.334  12.500
29443W        W90897   1.975   2.463  14.977
29444W        W90898   6.704  39.484  13.064
29445W        W90899  40.390  12.321  10.636
29446W        W90900   6.249  34.033  10.422
29447W        W90901  24.106  12.224   1.697
29448W        W90902  30.959   0.772   1.770
29449W        W90903  22.091  24.213  12.438
29450W        W90904  39.052  31.010   2.720
29451W        W90905  32.040  13.173  10.984
29452W        W90906  16.756  11.723   3.700
29453W        W90907   8.699  10.278  11.560
29454W        W90908  27.504  23.719   0.769
29455W        W90909  28.462   4.276  13.046
29456W        W90910  32.453  27.007  12.473
29457W        W90911  34.892  37.885  14.971
29458W        W90912  12.820   9.245  10.954
29459W        W90913  24.092  31.564  12.845
29460W        W90914   4.853  30.950   1.777
29461W        W90915   4.323  10.358   2.401
29462W        W90916  36.525  22.729  12.929
29463W        W90917  36.370  39.320   3.817
29464W        W90918  26.196  44.420  13.818
29465W        W90919  32.916  13.772   1.930
29466W        W90920  37.839  24.146  13.500
29467W        W90921  22.678  27.987   3.280
29468W        W90922  10.844  24.105   3.789
29469W        W90923  20.066  43.780   1.252
29470W        W90924  15.298  24.480   2.706
29471W        W90925  25.484  19.646   4.264
29472W        W90926  31.541  43.015  10.509
29473W        W90927  44.951  30.143  13.489
29474W        W90928  23.158  18.666   3.807
29475W        W90929  13.719  13.830  13.417
29476W        W90930  27.576  15.205   3.698
29477W        W90931  15.818   9.172  13.944
29478W        W90932  31.914  30.018   3.190
29479W        W90933  36.890  24.670  14.441
29480W        W90934  35.363  37.456   0.770
29481W        W90935  30.968  40.856  12.525
29482W        W90936   3.335  33.453  12.989
29483W        W90937  27.582  20.547   3.710
29484W        W90938  41.364   3.331   2.674
29485W        W90939  30.533  39.961   4.660
29486W        W90940  30.154  31.133   3.195
29487W        W90941   6.272  28.669   3.318
29488W        W90942  33.530  40.375   2.700
29489W        W90943  27.451  43.993   2.675
29490W        W90944  17.210  29.494   2.393
29491W        W90945  30.013  17.251   1.253
29492W        W90946  30.025  44.348   3.191
29493W        W90947  26.648  29.009  10.129
29494W        W90948  34.570  44.366   4.705
29495W        W90949  14.313   8.894   2.264
29496W        W90950  12.759  38.848   2.238
29497W        W90951  28.122   7.171   3.704
29498W        W90952  22.248  38.564  12.860
29499W        W90953  44.372   9.675  13.308
29500W        W90954  35.880   4.842   0.274
29501W        W90955   9.312  22.036  12.926
29502W        W90956  23.642  27.194  11.054
29503W        W90957  12.264  42.884   4.648
29504W        W90958  26.648  26.974  13.865
29505W        W90959  13.659  11.659   2.887
29506W        W90960  13.732  33.951  11.563
29507W        W90961  23.111  16.218  14.367
29508W        W90962   8.250  18.625  13.808
29509W        W90963  13.683  11.705  13.839
29510W        W90964  11.162  42.815  13.371
29511W        W90965  32.592   8.257   0.276
29512W        W90966  12.355  42.030  12.508
29513W        W90967  33.382  10.324  10.458
29514W        W90968  14.831  12.771   3.255
29515W        W90969  36.872  33.510  14.893
29516W        W90970  12.309  16.701  11.095
29517W        W90971  37.071  38.840   2.286
29518W        W90972   8.228  31.446   0.913
29519W        W90973  40.941  17.205  13.545
29520W        W90974   1.301  26.123  11.410
29521W        W90975  30.489   4.340  13.521
29522W        W90976  35.030  27.687   3.844
29523W        W90977  15.818  30.966  11.089
29524W        W90978  10.791   5.750  11.882
29525W        W90979  41.817  37.997  10.988
29526W        W90980  32.468  27.461   2.316
29527W        W90981  12.189   9.321   0.954
29528W        W90982  29.044  16.581  14.870
29529W        W90983  27.013  20.582   1.254
29530W        W90984  39.421  28.568  11.900
29531W        W90985  15.774  17.685  14.984
29532W        W90986  28.020  10.705   1.788
29533W        W90987  18.118   9.705   1.887
29534W        W90988  25.053  18.225   0.921
29535W        W90989  24.180  43.499  12.443
29536W        W90990  14.748  27.491   2.849
29537W        W90991   3.362  20.050  11.524
29538W        W90992  18.567  34.026  11.865
29539W        W90993  42.978   4.320  13.455
29540W        W90994   0.324  25.007  13.353
29541W        W90995   6.862  43.508  12.091
29542W        W90996   4.320  39.522   1.779
29543W        W90997  26.080  22.574   4.821
29544W        W90998  29.514  41.013  11.516
29545W        W90999   8.198  34.036  10.946
29546W        W91000  21.685  44.379   2.266
29547W        W91001  11.365  38.502  13.895
29548W        W91002  10.294  20.623  14.780
29549W        W91003   5.248  16.709  12.093
29550W        W91004  34.082  28.485   0.779
29551W        W91005  11.176  12.614  10.997
29552W        W91006  37.849  23.491   1.865
29553W        W91007  20.171   0.876   0.957
29554W        W91008  22.686  13.796  14.809
29555W        W91009  30.957  20.045  11.966
29556W        W91010   5.386  39.433  10.509
29557W        W91011  31.050  26.691  13.488
29558W        W91012   0.408  25.526   3.771
29559W        W91013  38.058  35.866  14.945
29560W        W91014  42.788  36.437  11.533
29561W        W91015  27.002  38.884   0.852
29562W        W91016  31.897  25.129  10.494
29563W        W91017   0.484  12.808  14.004
29564W        W91018  11.173  17.224  14.972
29565W        W91019  24.643  16.796  13.962
29566W        W91020  28.935  30.500  12.899
29567W        W91021   9.171   2.392   4.239
29568W        W91022  21.187  10.267   1.846
29569W        W91023  17.162  14.327   2.387
29570W        W91024  10.877  10.294  13.533
29571W        W91025  35.562   7.714   0.867
29572W        W91026  13.326  42.919  12.460
29573W        W91027  32.130  39.449  13.045
29574W        W91028   9.230  43.831   2.825
29575W        W91029  26.486  14.599   4.139
29576W        W91030  22.095  19.583   0.848
29577W        W91031  29.051   5.263  12.945
29578W        W91032  35.587  19.147   0.242
29579W        W91033  27.557  39.315   3.855
29580W        W91034  12.301  15.286   1.375
29581W        W91035   8.253  25.663   3.342
29582W        W91036  14.121  39.856   0.898
29583W        W91037   9.235   2.383   4.750
29584W        W91038  24.595  42.382   3.793
29585W        W91039  14.591  19.720   0.383
29586W        W91040  22.148  30.090  14.851
29587W        W91041   8.403  19.642   0.845
29588W        W91042  11.653  13.841  11.510
29589W        W91043  36.357  18.206  14.422
29590W        W91044  15.623  14.333  11.595
29591W        W91045  11.200   0.919   2.347
29592W        W91046  32.454  32.501   3.773
29593W        W91047  44.998  36.412  10.899
29594W        W91048  37.494  18.752   0.321
29595W        W91049  10.635  39.402  11.938
29596W        W91050   7.680   0.845  10.421
29597W        W91051  14.234  23.713   3.810
29598W        W91052   6.814   8.294   3.711
29599W        W91053  13.841  30.512   1.761
29600W        W91054  35.869  18.726  10.458
29601W        W91055   6.849  28.073   4.815
29602W        W91056  29.038  34.881   1.300
29603W        W91057   1.341  10.337   4.137
29604W        W91058  14.114  15.783  12.398
29605W        W91059   6.230  23.730   2.227
29606W        W91060  33.387   1.797  10.923
29607W        W91061  26.013  23.588   5.790
29608W        W91062  44.999  21.719   1.263
29609W        W91063  38.550  21.219  13.320
29610W        W91064  19.733  19.644  12.860
29611W        W91065   3.330  20.688  11.456
29612W        W91066  37.883  39.328  14.025
29613W        W91067  43.001  27.088   4.675
29614W        W91068  36.067  22.119  13.354
29615W        W91069  44.462  21.756  14.468
29616W        W91070  38.965  25.127  12.576
29617W        W91071  32.400  23.000  11.974
29618W        W91072  19.745  10.833  14.407
29619W        W91073  35.559   9.857  11.607
29620W        W91074  16.153  24.514   4.610
29621W        W91075  12.719  18.290  13.969
29622W        W91076  15.701  40.010   5.639
29623W        W91077   4.740  17.647  11.452
29624W        W91078  39.877  33.917  10.437
29625W        W91079   8.736  36.990  11.011
29626W        W91080  20.177  36.846   0.796
29627W        W91081  35.941  43.963  11.535
29628W        W91082  13.188   7.728  14.425
29629W        W91083   3.355   5.270  14.920
29630W        W91084  34.576  30.988  12.356
29631W        W91085  31.462   8.386   3.650
29632W        W91086  20.256  21.128  14.951
29633W        W91087   4.412  42.834  13.939
29634W        W91088  43.388  24.020  11.462
29635W        W91089  10.813  38.013   0.451
29636W        W91090  31.497   3.811   4.643
29637W        W91091  19.066  20.249   4.706
29638W        W91092  18.616  30.629  12.056
29639W        W91093  14.247  22.659  11.600
29640W        W91094  34.545  31.087   2.316
29641W        W91095   3.387  29.465   1.803
29642W        W91096  44.941  30.607  12.502
29643W        W91097   8.222  29.952  13.987
29644W        W91098   6.349   1.266  14.384
29645W        W91099  28.584  28.527   2.310
29646W        W91100  34.898  24.213   1.243
29647W        W91101   0.483  29.091  11.003
29648W        W91102   8.262  33.029   3.182
29649W        W91103   8.829  36.476  14.432
29650W        W91104  19.650   0.258   0.386
29651W        W91105   0.403  27.457  14.913
29652W        W91106  25.696   9.303  11.549
29653W        W91107  30.623  15.240   3.639
29654W        W91108  23.592  30.534   0.917
29655W        W91109  10.243   0.876  10.506
29656W        W91110  26.107  25.072   0.765
29657W        W91111   8.174  19.232  13.487
29658W        W91112  34.527  12.656  11.591
29659W        W91113   9.877   8.708   3.177
29660W        W91114   8.181  32.010  12.977
29661W        W91115  15.648  10.287   4.769
29662W        W91116  34.047  17.164  14.300
29663W        W91117  11.335  25.633  13.878
29664W        W91118  16.134  18.295  11.484
29665W        W91119  24.524   2.873  13.996
29666W        W91120   6.708  42.405  12.965
29667W        W91121  16.192  35.526  14.790
29668W        W91122  12.659  39.903  13.822
29669W        W91123  17.102  40.042  11.418
29670W        W91124  36.051  16.075  13.406
29671W        W91125  27.984  25.172   4.607
29672W        W91126  21.530  36.885   1.833
29673W        W91127   6.854  33.383   1.751
29674W        W91128  26.069  34.431  11.918
29675W        W91129  17.166  18.258  11.897
29676W        W91130  32.093   7.259   3.716
29677W        W91131  16.741  19.567  14.766
29678W        W91132   6.248  22.546   0.876
29679W        W91133   9.337  39.473  12.973
29680W        W91134  26.534  32.595  12.447
29681W        W91135   8.757  35.584  11.589
29682W        W91136  42.945  29.537   5.123
29683W        W91137  10.664  33.440  13.458
29684W        W91138  17.261  44.351  11.373
29685W        W91139  19.080   7.858   3.800
29686W        W91140   5.320  28.140   3.768
29687W        W91141   7.206  14.612  13.384
29688W        W91142  16.685  13.675  12.470
29689W        W91143  22.184  39.503  10.540
29690W        W91144  18.149  35.007  10.952
29691W        W91145  28.535   8.298  14.760
29692W        W91146  20.051  32.461   3.659
29693W        W91147   6.247  11.679  13.520
29694W        W91148  28.064  10.860   2.831
29695W        W91149  34.504  10.787   4.291
29696W        W91150   7.714   3.270   3.261
29697W        W91151  16.185  33.446  12.015
29698W        W91152  33.091  21.570   2.199
29699W        W91153  22.657  20.627   0.451
29700W        W91154  41.010  17.205  10.407
29701W        W91155  13.289   5.420  11.002
29702W        W91156  38.337  44.311   2.241
29703W        W91157  24.211   9.711  13.891
29704W        W91158  38.949   9.778  13.418
29705W        W91159  16.730  17.307  13.441
29706W        W91160  18.171  15.763   0.811
29707W        W91161  23.594  39.020  12.061
29708W        W91162  15.654  25.191  10.009
29709W        W91163  16.161   5.261  11.066
29710W        W91164  40.438  11.760   2.271
29711W        W91165  41.334  14.707  14.886
29712W        W91166   3.421  20.088   1.304
29713W        W91167  10.298  19.691   1.385
29714W        W91168  25.638   1.445  12.023
29715W        W91169  42.822  19.084   1.772
29716W        W91170   4.935  40.416   1.334
29717W        W91171  30.068  41.992   1.850
29718W        W91172  38.956  28.122   3.373
29719W        W91173  11.762  19.536   2.879
29720W        W91174  12.320  34.044   4.810
29721W        W91175  44.866  36.588  10.437
29722W        W91176  28.099  35.013  13.481
29723W        W91177  38.524  31.454   1.707
29724W        W91178  44.269   4.882   5.212
29725W        W91179  30.559  39.473   0.738
29726W        W91180  16.249  16.077  12.829
29727W        W91181  34.443  39.444  13.829
29728W        W91182   9.711  35.367  12.092
29729W        W91183  32.966  11.755   2.393
29730W        W91184  27.540  21.689   5.107
29731W        W91185  14.789  21.537   0.276
29732W        W91186   1.842  31.478  10.543
29733W        W91187  11.153  24.112   3.799
29734W        W91188  36.353  22.582   1.338
29735W        W91189  27.004  41.841  11.048
29736W        W91190  22.556  32.980  14.811
29737W        W91191   7.176  21.709   1.778
29738W        W91192  16.165  12.680   0.768
29739W        W91193   1.878  33.625  14.958
29740W        W91194  15.157  33.091   1.373
29741W        W91195   5.890  41.519  11.079
29742W        W91196  35.083  15.184  11.884
29743W        W91197  41.879   6.241  13.871
29744W        W91198   1.392  25.045  14.367
29745W        W91199  14.202   5.688  11.380
29746W        W91200  29.648  42.012   3.193
29747W        W91201   5.383  32.114   1.222
29748W        W91202  41.528  29.523   2.874
29749W        W91203  33.034  10.778  10.988
29750W        W91204  27.950   4.941  12.066
29751W        W91205  27.471  30.161   2.333
29752W        W91206  38.034  38.541   5.691
29753W        W91207   3.921  41.992  13.501
29754W        W91208  12.185  12.239  14.291
29755W        W91209  16.675  19.108  11.113
29756W        W91210  11.833  38.026  13.327
29757W        W91211  12.664  41.387  12.901
29758W        W91212   8.772  10.873  14.409
29759W        W91213  38.883   7.224   3.797
29760W        W91214  20.557   9.380  14.458
29761W        W91215  33.971  38.020  11.913
29762W        W91216  36.462   6.873   2.259
29763W        W91217   8.881  17.246  11.431
29764W        W91218  25.209   2.347   3.156
29765W        W91219  15.148  10.255   4.765
29766W        W91220  31.616  44.346   1.290
29767W        W91221   0.414  36.916   2.379
29768W        W91222  28.590   5.416  12.465
29769W        W91223   9.870  30.606  13.458
29770W        W91224  22.087  25.472  11.873
29771W        W91225  20.544  20.049  12.546
29772W        W91226  37.070  22.548   1.812
29773W        W91227  21.222  34.563   4.618
29774W        W91228  13.740  40.035  14.785
29775W        W91229  22.676  32.974   1.885
29776W        W91230  19.255  33.073  14.763
29777W        W91231  43.437   9.774  12.567
29778W        W91232   6.677  21.668  10.950
29779W        W91233   6.877  22.520  14.316
29780W        W91234  14.791  19.153  12.478
29781W        W91235  36.557  30.939  10.549
29782W        W91236  13.280  32.970   3.786
29783W        W91237  34.070  26.591   1.830
29784W        W91238   5.777   5.361   4.282
29785W        W91239  31.426   9.385   2.259
29786W        W91240  13.726  11.833   0.735
29787W        W91241   0.863  44.481  13.317
29788W        W91242   0.250  17.780  14.823
29789W        W91243  25.991  44.756   2.801
29790W        W91244  25.005   3.323   3.292
29791W        W91245   4.226  38.894  10.989
29792W        W91246  17.667  34.608  10.420
29793W        W91247  32.521  25.551   2.362
29794W        W91248   3.352  43.997   0.303
29795W        W91249  31.556  44.906   0.321
29796W        W91250  19.635  15.605   5.093
29797W        W91251  29.987   0.801  13.007
29798W        W91252  31.492  40.443  14.952
29799W        W91253  33.917  32.139   2.375
29800W        W91254  24.017   8.675   1.731
29801W        W91255  18.658  37.447   4.133
29802W        W91256  18.570  11.292  12.515
29803W        W91257   1.844  18.749  10.948
29804W        W91258  37.885  31.105   0.865
29805W        W91259   6.220   7.190   1.345
29806W        W91260  30.133  39.393  14.408
29807W        W91261   9.798  38.042   2.767
29808W        W91262   5.839  10.305  12.404
29809W        W91263  39.027  21.045   0.779
29810W        W91264  13.632  34.000   1.275
29811W        W91265  19.768   1.924   3.633
29812W        W91266  20.552   7.371   4.166
29813W        W91267  14.231  18.603   5.153
29814W        W91268  17.105  36.532  10.492
29815W        W91269   9.388  37.878  11.564
29816W        W91270  35.004   7.386  13.811
29817W        W91271  21.565  35.602   3.764
29818W        W91272  17.658  34.583   0.868
29819W        W91273  32.606   5.299   0.804
29820W        W91274   3.353   4.257  11.431
29821W        W91275  36.494   5.239  13.040
29822W        W91276   4.252  12.780  14.837
29823W        W91277  21.261  10.283  11.532
29824W        W91278  19.659  44.827   1.450
29825W        W91279   6.717  41.535  14.007
29826W        W91280  10.810   8.742  14.423
29827W        W91281   3.396  34.490  10.418
29828W        W91282  32.009  23.199   3.775
29829W        W91283  14.712  16.073   1.729
29830W        W91284  33.382  25.673   0.301
29831W        W91285  32.430  22.694  11.037
29832W        W91286  23.016  42.981   3.746
29833W        W91287  17.671  26.204  12.521
29834W        W91288  10.186   8.679   1.887
29835W        W91289  35.056  40.947   0.933
29836W        W91290  42.329   1.399  10.490
29837W        W91291  37.926  42.313   2.405
29838W        W91292  38.440  30.989   4.167
29839W        W91293   3.802   1.348  10.463
29840W        W91294  27.941  30.112  10.444
29841W        W91295  15.598  37.061   3.329
29842W        W91296  20.681  36.367   2.761
29843W        W91297  10.382   5.366  12.055
29844W        W91298  40.930  15.147   2.383
29845W        W91299  44.822  31.581  11.860
29846W        W91300  41.965  29.500   0.288
29847W        W91301   3.394  19.718   0.367
29848W        W91302   5.293  33.106   4.787
29849W        W91303  39.810  10.842  13.339
29850W        W91304   4.246  32.505   3.795
29851W        W91305  24.705  43.993   3.708
29852W        W91306  12.634   0.333   0.351
29853W        W91307  17.169  20.057  10.497
29854W        W91308   5.324  24.525  11.468
29855W        W91309  16.686   8.226   1.911
29856W        W91310  29.583  10.298  10.502
29857W        W91311  13.228  29.925   0.813
29858W        W91312  30.087  33.919   1.227
29859W        W91313  21.545  19.102  10.964
29860W        W91314  30.960   5.287   5.569
29861W        W91315  25.566   7.277  12.444
29862W        W91316  27.542  42.327   2.713
29863W        W91317   3.887  40.506  11.400
29864W        W91318  38.025   5.309  10.463
29865W        W91319  35.929  30.459   0.853
29866W        W91320  15.803  11.237   5.144
29867W        W91321   4.742  29.945   2.415
29868W        W91322  27.638   2.820  12.576
29869W        W91323  12.627   3.829   1.348
29870W        W91324  24.165  25.099   4.658
29871W        W91325   5.705  23.699   0.798
29872W        W91326   7.338  19.606  13.821
29873W        W91327  18.636  18.763  14.421
29874W        W91328   2.882  19.597   3.775
29875W        W91329  27.536  41.927  12.521
29876W        W91330  24.143   1.281  13.880
29877W        W91331   2.961  42.378  10.491
29878W        W91332  32.596  35.998  10.542
29879W        W91333  18.659  13.715  11.072
29880W        W91334  32.102  40.981   3.759
29881W        W91335   1.451  14.826   2.234
29882W        W91336   5.699  23.191  13.857
29883W        W91337   9.266  42.400   2.703
29884W        W91338  21.520  33.121  11.903
29885W        W91339   4.334   0.342  11.968
29886W        W91340   3.927  11.176  14.826
29887W        W91341   3.820   1.269  12.993
29888W        W91342   6.690  34.895   0.927
29889W        W91343  17.101  33.590  14.501
29890W        W91344   2.404   3.746   3.368
29891W        W91345  34.411  23.516  14.851
29892W        W91346  15.747  19.752  13.988
29893W        W91347  41.522  31.647  12.949
29894W        W91348  16.289  25.123  12.988
29895W        W91349  33.502  31.906   2.782
29896W        W91350  17.737  14.764   0.389
29897W        W91351  25.534  25.519  10.596
29898W        W91352  27.468  16.643   1.752
29899W        W91353  20.645  13.615   1.450
29900W        W91354  25.995  27.490   1.719
29901W        W91355   9.807   8.767   4.285
29902W        W91356  39.905  36.480  13.445
29903W        W91357  33.605  23.568  10.458
29904W        W91358  12.825  25.114  11.970
29905W        W91359  31.134  35.960  14.286
29906W        W91360   9.308  10.205   4.161
29907W        W91361   1.843  40.411   2.279
29908W        W91362   7.685   6.856  14.972
29909W        W91363  42.295  38.410  11.472
29910W        W91364  38.904  41.872   2.317
29911W        W91365  30.992  20.749  14.417
29912W        W91366  13.812   1.943   3.326
29913W        W91367  11.647  21.103  10.524
29914W        W91368  11.842   6.900   1.919
29915W        W91369  19.675   9.385   1.791
29916W        W91370  39.013  34.494   2.331
29917W        W91371  15.650  24.560   2.749
29918W        W91372  42.862  20.048   2.315
29919W        W91373  14.283  34.381   0.859
29920W        W91374   7.360  34.034   4.683
29921W        W91375  28.575  31.012  11.996
29922W        W91376  15.669  38.346  10.450
29923W        W91377  36.973  22.078  12.918
29924W        W91378  35.880  23.561   0.929
29925W        W91379  11.142  35.030  12.461
29926W        W91380   6.788  30.103   0.812
29927W        W91381  11.678   5.275   3.379
29928W        W91382   9.855   3.795   2.267
29929W        W91383  24.546  37.453   4.352
29930W        W91384  15.189  37.484  11.483
29931W        W91385  15.207  23.125  14.028
29932W        W91386  30.105  22.685   3.162
29933W        W91387  25.000   3.431   2.770
29934W        W91388  17.226  28.479  13.384
29935W        W91389  27.089   1.824   1.863
29936W        W91390  41.398  33.947  14.907
29937W        W91391   2.321  10.859   4.747
29938W        W91392  22.515  25.647  10.890
29939W        W91393  30.954  16.693   3.859
29940W        W91394  37.529  17.786  11.590
29941W        W91395  16.794  11.627  12.388
29942W        W91396  28.073  30.013  13.052
29943W        W91397   8.394  16.812   4.292
29944W        W91398  32.583  22.627   3.655
29945W        W91399   2.755  15.258   2.843
29946W        W91400  38.389   7.378   2.706
29947W        W91401  39.451  15.766   3.805
29948W        W91402  37.423  28.540  14.457
29949W        W91403   5.859  12.170  10.435
29950W        W91404  24.616  19.167   3.631
29951W        W91405  30.087  37.426   3.262
29952W        W91406  12.678  20.674  13.891
29953W        W91407  39.887  27.578   1.804
29954W        W91408   1.784  13.204   2.744
29955W        W91409  36.429   9.758   4.789
29956W        W91410  25.474  34.538  13.316
29957W        W91411  33.988   2.286  10.432
29958W        W91412  22.667  25.055  11.087
29959W        W91413  16.698  27.568   1.418
29960W        W91414  23.653  29.593  10.534
29961W        W91415  36.464  32.908   3.795
29962W        W91416  11.716   3.901   3.343
29963W        W91417  21.099  19.595  11.517
29964W        W91418   0.850  39.405  11.609
29965W        W91419  12.168  14.292   1.847
29966W        W91420  33.947  24.982   4.250
29967W        W91421  21.215  26.545  13.049
29968W        W91422  11.184  31.928   5.580
29969W        W91423  20.062   9.835  11.994
29970W        W91424  12.811  14.251   2.260
29971W        W91425  28.180  40.364  11.054
29972W        W91426   3.882   6.740  12.825
29973W        W91427   4.442  38.453  14.787
29974W        W91428   6.377  39.378  12.513
29975W        W91429  33.402   4.733   2.702
29976W        W91430   8.860   4.701  12.922
29977W        W91431  19.260  39.526   4.303
29978W        W91432   5.838  18.184   4.268
29979W        W91433   3.220  41.527   3.649
29980W        W91434  11.162  22.508  11.411
29981W        W91435  14.112  17.228   0.335
29982W        W91436  44.337  25.667   4.306
29983W        W91437   2.369  36.087  11.542
29984W        W91438   4.935  24.519  14.506
29985W        W91439  41.975  36.971   0.457
29986W        W91440  32.506  38.898   0.250
29987W        W91441  23.615   4.355  10.447
29988W        W91442  37.982  23.528   2.356
29989W        W91443  24.545  15.617  12.920
29990W        W91444   7.340   4.384  13.420
29991W        W91445   0.833   6.293   1.413
29992W        W91446  13.783  41.900  10.111
29993W        W91447  42.794  15.611  14.862
29994W        W91448  14.271   8.893  14.833
29995W        W91449  38.427   0.764   4.794
29996W        W91450   7.416  29.520  14.416
29997W        W91451  36.946  20.030  13.314
29998W        W91452   7.316  13.674  11.581
29999W        W91453   2.276  16.612  13.892
30000W        W91454  32.578  11.760  11.546
30001W        W91455   2.372   6.866   3.223
30002W        W91456  20.267  40.021   5.266
30003W        W91457  42.371  21.072   1.781
30004W        W91458  26.652  42.004   1.875
30005W        W91459  18.756  36.091   1.268
30006W        W91460   5.402  26.013  11.906
30007W        W91461  35.440  31.560  14.872
30008W        W91462   9.858  35.065  11.570
30009W        W91463  37.896  32.890   1.910
30010W        W91464   6.252  17.779  14.450
30011W        W91465   4.440  14.289  14.857
30012W        W91466  30.417  29.148   3.777
30013W        W91467  22.521   4.358   1.714
30014W        W91468  36.402  13.786   1.719
30015W        W91469  22.519  11.245   3.814
30016W        W91470  39.484  11.785  13.981
30017W        W91471  40.981  11.215  13.380
30018W        W91472  13.337  23.204   4.793
30019W        W91473  27.098  34.013   2.191
30020W        W91474  41.809   9.383   2.291
30021W        W91475  17.129  44.458   1.417
30022W        W91476  20.695  22.597  14.420
30023W        W91477   8.330  20.204  14.346
30024W        W91478  19.245  29.505  13.326
30025W        W91479  17.301  34.582   4.292
30026W        W91480  15.797  18.708   3.218
30027W        W91481  18.276  10.250   2.399
30028W        W91482  43.842  40.807  12.444
30029W        W91483  27.964  31.154  14.458
30030W        W91484  44.284  14.158  10.154
30031W        W91485  19.629  28.580   4.300
30032W        W91486  34.450   4.244   0.328
30033W        W91487  36.934  12.130   1.929
30034W        W91488  44.781  37.574   2.682
30035W        W91489  19.770  11.337  10.445
30036W        W91490  18.234  40.390   1.911
30037W        W91491  37.962  25.136  11.914
30038W        W91492  10.663  44.323   4.658
30039W        W91493  17.589   7.753   2.199
30040W        W91494  25.129  40.832   2.179
30041W        W91495   4.720   0.478   3.699
30042W        W91496  10.761   3.404  12.578
30043W        W91497  17.212  11.635   2.178
30044W        W91498  35.540   1.250   1.826
30045W        W91499  39.436  36.501  14.388
30046W        W91500  40.307  38.922  13.893
30047W        W91501  30.133  18.240  14.349
30048W        W91502  43.965  21.052  14.909
30049W        W91503  37.396   6.892   1.782
30050W        W91504  35.089  30.058   1.412
30051W        W91505  40.440  41.510   3.657
30052W        W91506  32.422   0.945  14.358
30053W        W91507   1.450  15.127   1.868
30054W        W91508  17.287  12.743   1.418
30055W        W91509  11.633  24.543   4.801
30056W        W91510  22.737  12.642   0.346
30057W        W91511  40.915  38.853  12.002
30058W        W91512  41.810  28.627  13.404
30059W        W91513  10.203  43.007  11.913
30060W        W91514  23.233  20.523  11.542
30061W        W91515  41.507   9.321  14.498
30062W        W91516   3.217   1.896  10.970
30063W        W91517   6.392  16.801   4.689
30064W        W91518   6.709  41.467   2.810
30065W        W91519  35.915  11.805  10.917
30066W        W91520  21.244  29.103   1.427
30067W        W91521   0.460   9.345   4.703
30068W        W91522  31.974  43.425  13.526
30069W        W91523   3.296   3.859   3.298
30070W        W91524  30.001  18.741  10.410
30071W        W91525  40.481  44.343  13.986
30072W        W91526  12.826  24.069   2.414
30073W        W91527  32.495  33.000  12.469
30074W        W91528  32.887   6.766   2.211
30075W        W91529  19.235  25.005  13.377
30076W        W91530   1.393   1.918   4.141
30077W        W91531  10.847   8.258   3.648
30078W        W91532  22.570  41.985  14.985
30079W        W91533  11.207   3.267   1.796
30080W        W91534  14.130   1.406  13.822
30081W        W91535   3.243  31.639   4.628
30082W        W91536   4.870  21.672  12.860
30083W        W91537  43.496  42.328   4.634
30084W        W91538  41.037  20.197   1.339
30085W        W91539   1.261  39.936  14.400
30086W        W91540   6.411  33.514   1.697
30087W        W91541   7.392  33.430   2.683
30088W        W91542   1.847  40.819  13.464
30089W        W91543  33.591  41.961   4.137
30090W        W91544  31.580  32.594  11.078
30091W        W91545   4.365  14.681   1.926
30092W        W91546  35.993  13.679   3.755
30093W        W91547  43.819  29.611   3.796
30094W        W91548  17.557  13.717  13.835
30095W        W91549  25.578  35.020   1.841
30096W        W91550  21.179  35.934   4.636
30097W        W91551  22.216  44.448   2.226
30098W        W91552  16.796  17.179  14.018
30099W        W91553  31.059   8.678   1.279
30100W        W91554  27.036  42.846   2.280
30101W        W91555   0.768   3.433  14.846
30102W        W91556   7.673  29.006   1.768
30103W        W91557  18.273  36.078  12.482
30104W        W91558  27.460  19.108  10.606
30105W        W91559  19.632  30.937   0.773
30106W        W91560  18.212   2.397   0.780
30107W        W91561  32.562  16.687   4.340
30108W        W91562   5.204  19.549   0.415
30109W        W91563  32.109   0.868   1.396
30110W        W91564  25.696  40.832  10.540
30111W        W91565  21.248   1.349   4.120
30112W        W91566  18.755   1.899  12.425
30113W        W91567   0.488  29.593  11.048
30114W        W91568  19.271  31.095  13.547
30115W        W91569   4.843  34.035  11.569
30116W        W91570   6.404  30.151   3.861
30117W        W91571   5.201  33.394   4.303
30118W        W91572   6.407  39.919   0.252
30119W        W91573  35.872  36.477   2.336
30120W        W91574  29.105  31.009  13.547
30121W        W91575  43.377  33.392  13.542
30122W        W91576  35.877  31.467  10.431
30123W        W91577  10.378   0.795   4.179
30124W        W91578  33.987  10.235   9.999
30125W        W91579  17.772   0.858   3.702
30126W        W91580  15.189  42.917   2.236
30127W        W91581  34.574  11.176  12.020
30128W        W91582   8.882  28.935  13.827
30129W        W91583  22.662  12.701   0.730
30130W        W91584   2.826   6.253   1.375
30131W        W91585   0.751  37.355   1.910
30132W        W91586  11.676  30.155  12.896
30133W        W91587   8.318  44.476   1.856
30134W        W91588  31.528   0.445   0.267
30135W        W91589  11.804  29.610   4.163
30136W        W91590  18.256  38.840   3.844
30137W        W91591   7.401  32.572  13.907
30138W        W91592  35.584  16.211  13.017
30139W        W91593  25.099  20.189   2.701
30140W        W91594  11.868  15.680  13.515
30141W        W91595  33.022  17.749  11.506
30142W        W91596  41.828   6.794   0.434
30143W        W91597  29.010  15.085  11.029
30144W        W91598  27.101  21.688   4.157
30145W        W91599  23.099  14.742  12.578
30146W        W91600  34.065  18.207  14.802
30147W        W91601  15.141   1.397   1.243
30148W        W91602  37.428  26.178  12.059
30149W        W91603  10.189  24.556  11.889
30150W        W91604   0.756  27.543  12.502
30151W        W91605  35.471  19.256  11.410
30152W        W91606  44.843  38.508  13.484
30153W        W91607   3.804  31.611   4.797
30154W        W91608  17.683  26.089  14.982
30155W        W91609  23.166  33.108  14.921
30156W        W91610   3.843  39.934  14.471
30157W        W91611  34.606  43.349   3.243
30158W        W91612   2.819  16.252  10.993
30159W        W91613   4.754  31.522   0.859
30160W        W91614  22.706  13.726   3.161
30161W        W91615  16.790  26.034   1.696
30162W        W91616  44.864  24.660   1.215
30163W        W91617  36.435  44.961   1.911
30164W        W91618  38.823  39.821   1.875
30165W        W91619  16.181   5.695  10.553
30166W        W91620  12.268   4.325  13.010
30167W        W91621  33.980  15.190   0.814
30168W        W91622  11.186   4.239  12.472
30169W        W91623  18.134  16.140   1.409
30170W        W91624  44.259  32.081  11.102
30171W        W91625   9.690  40.382  10.463
30172W        W91626  43.487  11.690   4.293
30173W        W91627  11.643  28.986   2.775
30174W        W91628  42.508  21.132  13.484
30175W        W91629  10.709   0.850  12.451
30176W        W91630  35.051   5.421   4.125
30177W        W91631   2.951  12.285   4.289
30178W        W91632  42.898  19.105  14.332
30179W        W91633   4.405  44.387   0.324
30180W        W91634  16.246  40.308   9.990
30181W        W91635  12.787   5.303   0.298
30182W        W91636  17.123   9.804  13.964
30183W        W91637   1.905  14.613  12.483
30184W        W91638  31.581  37.538  12.939
30185W        W91639  23.657   2.441   0.451
30186W        W91640  34.925   1.345  10.607
30187W        W91641  41.002   5.903  12.382
30188W        W91642   2.787  28.634  10.585
30189W        W91643  31.048  43.291  14.942
30190W        W91644   5.215  22.504   3.852
30191W        W91645   2.850  17.230   3.779
30192W        W91646  39.885   6.405  12.460
30193W        W91647   4.941  32.057   1.428
30194W        W91648  38.838  36.969  13.367
30195W        W91649  23.031  13.815  12.475
30196W        W91650  36.070  38.961   1.392
30197W        W91651   9.860  18.216  10.519
30198W        W91652  38.493  39.929  14.796
30199W        W91653  12.188  23.594  10.620
30200W        W91654  31.991  14.311   2.359
30201W        W91655  32.903  12.792   1.881
30202W        W91656  28.076   6.896   4.757
30203W        W91657  34.101  22.995   2.896
30204W        W91658   5.703   0.256  11.018
30205W        W91659  19.146  11.811   0.265
30206W        W91660   6.820  23.204  12.440
30207W        W91661  21.034  32.087  13.950
30208W        W91662  35.559  10.830   1.932
30209W        W91663  43.483  43.943  10.415
30210W        W91664   7.811  41.375   2.679
30211W        W91665  35.011  21.201  14.349
30212W        W91666  43.960  24.089  14.308
30213W        W91667  34.419  11.254   1.934
30214W        W91668  16.242  42.491  14.896
30215W        W91669  32.607  12.825  14.408
30216W        W91670  16.765  10.735  10.464
30217W        W91671   0.266  25.605   4.114
30218W        W91672  15.614  29.457   3.806
30219W        W91673  22.743  39.381  11.598
30220W        W91674  37.947  24.068  12.075
30221W        W91675   9.379   2.752  13.866
30222W        W91676   7.680  11.743   3.175
30223W        W91677  24.158   7.353   1.809
30224W        W91678  35.454  40.342   0.780
30225W        W91679  25.185  33.900   4.677
30226W        W91680   1.306  38.015   0.841
30227W        W91681  10.370  23.133   3.773
30228W        W91682  11.635   6.799  11.445
30229W        W91683  16.693   8.238  11.109
30230W        W91684  18.268  43.482  11.605
30231W        W91685  14.211  10.737  14.936
30232W        W91686  35.434  10.327   1.224
30233W        W91687  38.401  37.947  12.051
30234W        W91688  30.019  41.481   4.654
30235W        W91689  40.903   1.968  11.085
30236W        W91690  33.905  28.637  14.930
30237W        W91691  37.846  32.974  13.973
30238W        W91692   2.965  30.550  10.640
30239W        W91693  27.553  19.691  11.522
30240W        W91694  36.931   6.828  11.499
30241W        W91695  29.610  42.863  13.916
30242W        W91696  22.509  20.058  10.630
30243W        W91697  23.113  37.512  14.393
30244W        W91698  11.203  27.960   2.320
30245W        W91699   8.800  24.026   5.312
30246W        W91700   7.828  44.287   2.331
30247W        W91701   3.867  23.636  12.370
30248W        W91702   0.788  37.864  11.079
30249W        W91703  38.905  15.661  11.463
30250W        W91704  10.756  25.988  13.443
30251W        W91705  28.609  26.649  12.484
30252W        W91706   8.770  33.467   1.330
30253W        W91707  22.590   7.362  11.582
30254W        W91708  12.674  18.554  14.358
30255W        W91709  12.263   6.261  13.483
30256W        W91710  20.649  43.435  14.965
30257W        W91711  31.485  26.122   2.664
30258W        W91712   9.151  25.682  13.002
30259W        W91713  13.321   6.816  13.000
30260W        W91714   0.250  18.202  14.943
30261W        W91715  39.980  39.519  13.367
30262W        W91716   1.352  22.599  10.494
30263W        W91717  29.585  40.429   3.336
30264W        W91718  31.455  32.132  13.319
30265W        W91719   9.395  41.396   5.179
30266W        W91720   7.781  21.083  10.538
30267W        W91721   3.823  20.116   4.314
30268W        W91722  43.386  42.488   2.800
30269W        W91723   8.247   2.854  13.517
30270W        W91724  22.619  30.597  10.922
30271W        W91725  44.007   3.307  11.039
30272W        W91726  32.419   7.217   0.835
30273W        W91727  21.073  11.692   5.305
30274W        W91728  25.061  33.913  10.442
30275W        W91729  37.405  22.160  12.910
30276W        W91730  15.753  17.691  12.995
30277W        W91731  12.797  31.050   4.229
30278W        W91732  39.342  40.002  11.549
30279W        W91733  42.845  19.096  12.414
30280W        W91734  33.065   8.209  14.938
30281W        W91735  29.479  28.506  14.374
30282W        W91736  28.596  26.482   9.944
30283W        W91737  24.494  42.317  14.450
30284W        W91738  39.890  32.466   1.450
30285W        W91739  38.490  28.476   3.740
30286W        W91740  15.232  12.678   1.733
30287W        W91741  18.665  14.625   4.838
30288W        W91742  17.145  32.488  10.604
30289W        W91743  33.048   4.383  12.982
30290W        W91744  21.200  15.091   2.244
30291W        W91745  16.606   8.219  12.370
30292W        W91746  21.151  27.163  12.015
30293W        W91747  37.062  15.807  12.943
30294W        W91748  12.656  23.647   3.654
30295W        W91749   0.914  41.381   1.834
30296W        W91750  11.325  37.056   3.149
30297W        W91751  17.673  35.972  14.796
30298W        W91752  20.191  33.457  11.487
30299W        W91753   4.433   6.876   2.302
30300W        W91754  14.784  39.823   1.882
30301W        W91755  37.085  21.237   9.944
30302W        W91756  20.063  32.026  12.429
30303W        W91757   8.695   3.790  11.906
30304W        W91758  33.030  28.455  14.965
30305W        W91759  14.828   2.434  14.471
30306W        W91760  12.700  10.746   1.884
30307W        W91761   0.475  20.768   3.648
30308W        W91762  11.199  34.925  12.874
30309W        W91763  21.551   2.875   2.875
30310W        W91764   2.856  11.321   1.239
30311W        W91765   5.780   8.276  12.931
30312W        W91766  14.218  13.814   4.143
30313W        W91767  20.707   8.842   3.656
30314W        W91768  10.219  23.592  14.292
30315W        W91769  31.609  43.485  11.048
30316W        W91770  22.739  32.632   1.893
30317W        W91771  16.813  22.233   4.187
30318W        W91772  43.988  32.001   2.803
30319W        W91773  44.475  43.813   2.800
30320W        W91774  16.219  34.380   2.196
30321W        W91775  19.733  24.609  14.793
30322W        W91776  34.987   9.294   1.336
30323W        W91777   3.879  38.522   4.200
30324W        W91778  11.314  31.981   1.904
30325W        W91779  14.143  40.841   2.718
30326W        W91780  11.838  35.918   2.745
30327W        W91781  15.720   2.847   4.307
30328W        W91782  43.452   0.258  10.490
30329W        W91783   6.751  24.683   1.363
30330W        W91784  20.655  33.463   3.669
30331W        W91785  41.028   7.791   3.735
30332W        W91786  44.757  38.918  14.308
30333W        W91787  13.337  24.658  12.404
30334W        W91788  20.106  13.667   3.719
30335W        W91789  28.175  12.665   3.357
30336W        W91790   7.310  40.958   0.811
30337W        W91791  25.076  33.127  11.455
30338W        W91792  28.647  10.760   3.218
30339W        W91793  26.038   1.455  14.804
30340W        W91794   9.273  26.694   2.401
30341W        W91795   1.967  22.732  12.488
30342W        W91796  23.155  13.663  13.464
30343W        W91797  22.017   8.186   4.826
30344W        W91798  39.544   6.307  13.490
30345W        W91799  43.777  27.673   2.665
30346W        W91800   9.232  43.448   1.419
30347W        W91801  37.001   0.776   0.382
30348W        W91802  29.918   2.757   2.779
30349W        W91803  15.681  40.310   3.274
30350W        W91804  23.654  41.847  13.458
30351W        W91805  44.375  25.496  12.424
30352W        W91806  25.011  35.907  12.002
30353W        W91807  11.177  35.074   4.281
30354W        W91808  34.397  21.681  12.916
30355W        W91809  38.360   9.200   0.808
30356W        W91810  26.572  26.479   5.270
30357W        W91811  28.483   7.770   3.710
30358W        W91812  16.760  10.694   0.959
30359W        W91813  42.781  17.280  10.638
30360W        W91814  36.512   6.841  12.553
30361W        W91815  44.762  23.024  10.514
30362W        W91816   3.792  20.047  13.349
30363W        W91817   6.850  12.843   0.337
30364W        W91818  31.609  44.769  14.375
30365W        W91819  36.448  30.126  14.984
30366W        W91820  19.619  34.093  12.477
30367W        W91821  19.660  44.961   4.699
30368W        W91822  27.679  43.476   4.311
30369W        W91823  19.208  28.050   4.164
30370W        W91824  11.346  29.157   4.335
30371W        W91825  25.653  40.486  11.409
30372W        W91826  21.076  10.142  12.526
30373W        W91827   7.398   4.286  14.332
30374W        W91828  27.144  11.693   1.442
30375W        W91829  34.095  11.191   0.823
30376W        W91830  12.665  44.879  14.362
30377W        W91831  17.112   8.766  12.024
30378W        W91832  29.170  32.399  14.423
30379W        W91833  41.946  24.192  14.491
30380W        W91834   4.871  18.579   0.928
30381W        W91835  34.932  16.788   0.861
30382W        W91836  32.489   3.459   2.352
30383W        W91837  36.086  32.141  12.957
30384W        W91838  10.198   5.386  10.469
30385W        W91839  19.721   2.859   1.389
30386W        W91840  28.627  37.459  11.595
30387W        W91841  30.507  39.833  13.370
30388W        W91842  37.361  28.462   1.429
30389W        W91843   0.948  44.988   2.885
30390W        W91844  18.149  43.474  13.424
30391W        W91845  17.625  14.231  12.362
30392W        W91846  20.534   7.727   0.251
30393W        W91847  14.623   6.402   3.254
30394W        W91848  36.462  43.913  13.389
30395W        W91849  36.981  40.855   2.280
30396W        W91850   9.355  31.407   3.275
30397W        W91851  38.473  39.942  13.511
30398W        W91852  35.477  41.039  14.015
30399W        W91853  35.558   5.740   2.721
30400W        W91854  42.815  38.336  13.826
30401W        W91855  16.683  27.614   2.226
30402W        W91856  30.149  25.154   0.423
30403W        W91857  22.196  12.281   4.241
30404W        W91858  14.660  21.704  13.795
30405W        W91859  33.579  17.200  10.922
30406W        W91860  28.610  19.082   3.686
30407W        W91861   0.887   8.170   1.234
30408W        W91862   3.784  29.610  12.924
30409W        W91863  35.057  13.672  14.909
30410W        W91864   1.468  33.548  12.005
30411W        W91865   5.850  16.146   4.300
30412W        W91866  16.737   4.777  12.397
30413W        W91867  25.701  38.558   3.183
30414W        W91868  29.537  35.394   2.258
30415W        W91869   4.926   8.758   4.236
30416W        W91870   0.417   3.366   3.384
30417W        W91871  17.673  20.687  13.892
30418W        W91872  37.572  36.033   4.326
30419W        W91873  22.110  44.755  14.949
30420W        W91874  35.461   4.443  10.897
30421W        W91875  11.230  43.892   4.741
30422W        W91876   3.337   4.378   4.148
30423W        W91877  26.670  30.577   2.226
30424W        W91878  21.186  25.051   4.335
30425W        W91879   9.873   0.431  14.832
30426W        W91880  37.977  39.029   4.257
30427W        W91881  20.216  24.166   1.870
30428W        W91882  29.510  41.478  10.959
30429W        W91883  37.030  10.324   4.743
30430W        W91884  41.345  28.461   1.277
30431W        W91885  14.729  12.232   3.835
30432W        W91886   3.871   7.808  13.989
30433W        W91887  39.876  43.324  12.430
30434W        W91888  44.270  14.221   1.294
30435W        W91889  24.651  11.175  11.973
30436W        W91890  39.872  17.793   1.380
30437W        W91891  39.408  22.534  12.042
30438W        W91892  26.470   5.365   1.360
30439W        W91893  21.126   1.752   4.802
30440W        W91894  13.714  31.071   3.271
30441W        W91895  13.760   8.768   4.615
30442W        W91896   4.381  41.507   2.847
30443W        W91897  17.073   4.348  12.353
30444W        W91898   0.793  33.450   1.408
30445W        W91899  34.478   5.346  11.413
30446W        W91900  23.714   1.424  12.504
30447W        W91901  18.153   4.370   0.325
30448W        W91902  22.224  36.389  12.053
30449W        W91903  31.465  41.297  14.335
30450W        W91904  20.743  25.978   1.381
30451W        W91905  18.167  43.913  13.469
30452W        W91906  35.443  41.308  10.562
30453W        W91907  33.910   7.207   0.437
30454W        W91908   2.774  20.599   1.876
30455W        W91909  35.591   4.919  11.450
30456W        W91910  33.380  39.924   0.338
30457W        W91911  34.106  39.502   2.236
30458W        W91912   1.738  33.540   4.232
30459W        W91913  12.667   3.433  12.351
30460W        W91914  40.945  35.551   4.794
30461W        W91915  14.309  14.677   0.880
30462W        W91916   6.894   5.930   0.412
30463W        W91917  11.845  39.953   2.893
30464W        W91918  15.083  41.361   4.295
30465W        W91919   5.723   3.326   1.771
30466W        W91920  35.371  14.317   3.752
30467W        W91921  17.795  34.010  13.862
30468W        W91922  27.136  24.525   3.334
30469W        W91923  39.937   6.354  11.460
30470W        W91924  39.948  36.349   0.814
30471W        W91925  17.639  37.468  10.552
30472W        W91926   1.842  40.822  14.367
30473W        W91927   7.862  18.751   0.845
30474W        W91928  20.249  30.567   2.329
30475W        W91929  10.852  44.288   2.317
30476W        W91930   0.819  27.658   1.230
30477W        W91931  25.645  31.913   1.860
30478W        W91932  37.522  19.736  12.579
30479W        W91933  13.841  37.841  10.499
30480W        W91934  37.865  34.393   1.273
30481W        W91935  17.258  17.603   1.774
30482W        W91936  38.917  21.620  12.499
30483W        W91937  27.579  19.176  13.392
30484W        W91938  16.656   2.278   3.382
30485W        W91939  11.743  10.672  11.896
30486W        W91940   7.690  31.603  14.962
30487W        W91941  11.335  40.375  13.444
30488W        W91942  19.771   3.342   3.169
30489W        W91943  31.460  42.315   0.450
30490W        W91944  38.075  34.943  14.851
30491W        W91945  20.237  35.010  13.046
30492W        W91946   4.893  24.124  10.922
30493W        W91947  34.052   4.209  11.049
30494W        W91948  30.142  33.897   3.341
30495W        W91949   6.214  12.296  13.800
30496W        W91950  23.152  16.218   2.838
30497W        W91951  10.177  41.972   3.693
30498W        W91952  25.984  23.661   2.661
30499W        W91953   5.261  29.471  14.306
30500W        W91954   6.209   7.294   3.313
30501W        W91955  31.491  11.741   4.232
30502W        W91956  44.980   5.770  11.602
30503W        W91957   2.807  24.029  11.556
30504W        W91958  13.799  11.706  13.423
30505W        W91959  32.057  20.114  14.337
30506W        W91960  30.593  27.007  11.590
30507W        W91961  23.620  40.004  11.097
30508W        W91962  44.783  44.914   1.311
30509W        W91963  28.063   8.366   0.467
30510W        W91964  37.447  34.980   3.151
30511W        W91965   4.731  26.567   4.710
30512W        W91966  35.967  14.268   1.244
30513W        W91967   3.455  13.171   1.428
30514W        W91968  17.300  31.103   0.874
30515W        W91969  34.905  15.750   1.275
30516W        W91970  40.365  26.487  12.020
30517W        W91971  27.034  39.402   4.805
30518W        W91972   5.792   8.186  14.336
30519W        W91973   4.281  36.014  14.286
30520W        W91974  43.410  30.577   2.253
30521W        W91975  10.725  42.937   2.815
30522W        W91976  19.744  39.856  13.830
30523W        W91977  15.581  34.944   5.248
30524W        W91978  32.013  14.123   1.255
30525W        W91979   6.417  24.172  12.341
30526W        W91980  31.632  42.826   0.743
30527W        W91981  38.521  15.249  13.922
30528W        W91982   5.836  29.099   4.813
30529W        W91983  22.724  27.078  14.767
30530W        W91984  19.757  35.965  13.793
30531W        W91985  18.091   9.264   1.874
30532W        W91986   0.293  40.797   3.375
30533W        W91987   2.406  13.801   1.402
30534W        W91988   0.258  36.448   0.370
30535W        W91989  27.096  14.615   4.699
30536W        W91990  19.175  16.193  14.356
30537W        W91991  35.108  23.493  13.439
30538W        W91992  24.082  41.920   2.203
30539W        W91993  34.528  31.013  12.089
30540W        W91994  30.515   7.910  12.911
30541W        W91995  43.286   0.948   3.657
30542W        W91996  43.926  14.665  13.855
30543W        W91997   4.919  40.473  14.498
30544W        W91998  41.850  39.485  12.531
30545W        W91999  11.147  17.595   3.299
30546W        W92000  24.210  16.754   1.840
30547W        W92001  16.783  16.181  11.023
30548W        W92002   6.326  28.651   1.328
30549W        W92003  24.717  15.607  13.845
30550W        W92004  40.307  23.213   2.796
30551W        W92005   8.694  14.206  12.556
30552W        W92006  19.100  19.536  12.071
30553W        W92007  26.004   0.262   0.927
30554W        W92008  39.990  41.975  11.091
30555W        W92009  33.039  20.116  12.417
30556W        W92010  14.191  32.133   0.869
30557W        W92011   5.870  42.377   0.293
30558W        W92012  35.923  39.901  12.980
30559W        W92013  25.004   1.446  12.991
30560W        W92014  18.696  10.273   3.241
30561W        W92015  30.531   5.913   4.618
30562W        W92016  32.129  14.636   3.386
30563W        W92017  44.502   4.780  14.763
30564W        W92018  15.617  37.020  12.062
30565W        W92019  31.902  13.231  10.571
30566W        W92020  37.393  16.605   3.852
30567W        W92021  30.096  36.047  12.033
30568W        W92022  42.831  37.438   0.936
30569W        W92023  24.984  32.593  11.081
30570W        W92024   0.774   5.780  14.422
30571W        W92025  37.374   1.346   1.769
30572W        W92026  12.716  17.690  13.523
30573W        W92027  23.218  16.074   4.705
30574W        W92028  14.641  23.059   3.153
30575W        W92029  25.012  36.977   0.907
30576W        W92030   2.227  41.301   2.344
30577W        W92031  44.279  44.407  11.381
30578W        W92032   4.800  24.085  14.809
30579W        W92033  28.977  34.114   9.522
30580W        W92034  27.959   9.811  12.941
30581W        W92035   5.352  29.503   0.863
30582W        W92036  42.901   7.776   4.215
30583W        W92037  41.343  18.101   0.881
30584W        W92038   6.716   1.437  12.916
30585W        W92039  42.344   6.813  13.510
30586W        W92040  32.918  32.528   3.666
30587W        W92041  35.535   1.884   3.227
30588W        W92042  23.560  38.829   4.783
30589W        W92043  29.985  16.269   0.346
30590W        W92044  37.007  24.681   1.245
30591W        W92045   7.778  11.746   4.771
30592W        W92046  40.504  29.435   1.786
30593W        W92047  37.982  24.159   2.365
30594W        W92048  22.129  37.851   1.895
30595W        W92049  43.915  39.441   2.308
30596W        W92050  25.131  42.959  10.417
30597W        W92051  12.685  33.996  14.465
30598W        W92052  11.188   6.323  12.866
30599W        W92053  19.040   5.797   4.680
30600W        W92054   2.731  11.646  12.478
30601W        W92055  10.381   2.396   1.818
30602W        W92056   6.324   4.725  13.807
30603W        W92057  25.614  22.631  11.495
30604W        W92058  20.575  34.871   1.278
30605W        W92059  12.797  38.492   9.942
30606W        W92060  41.828  27.562   4.162
30607W        W92061   2.323  32.946  11.024
30608W        W92062  14.717  41.805   1.747
30609W        W92063   6.742  17.759   2.345
30610W        W92064   9.703  44.933   0.244
30611W        W92065   1.475  12.312   2.398
30612W        W92066   2.242  24.669   2.885
30613W        W92067   4.399  31.968   3.149
30614W        W92068   3.915  43.799  11.559
30615W        W92069  34.990  38.408   3.641
30616W        W92070  22.665  22.595   3.320
30617W        W92071  19.768   3.747   2.682
30618W        W92072  27.662  20.603   2.383
30619W        W92073  28.658   4.221  11.412
30620W        W92074  25.530  20.721   0.262
30621W        W92075  21.164  22.676   5.254
30622W        W92076  15.249  18.656  11.107
30623W        W92077  17.151   0.912  10.996
30624W        W92078  38.482  33.964  10.454
30625W        W92079  12.271  16.695   2.847
30626W        W92080  11.656  33.412  11.524
30627W        W92081  10.742   2.346  10.522
30628W        W92082  28.146  35.902   5.148
30629W        W92083  16.118  37.891  13.793
30630W        W92084   9.652  13.178  11.046
30631W        W92085  22.600   2.741  13.393
30632W        W92086  17.277  27.679  14.382
30633W        W92087  10.271  16.657   0.277
30634W        W92088  12.685  25.045   0.262
30635W        W92089  36.979  26.683  13.877
30636W        W92090  13.166  42.492  14.365
30637W        W92091   2.741   1.458  12.494
30638W        W92092   6.879   4.284   4.316
30639W        W92093  37.346  22.133   4.793
30640W        W92094  22.658  44.805   2.764
30641W        W92095   4.435  14.652   0.829
30642W        W92096  11.287  33.619   3.634
30643W        W92097   1.847  34.547   4.193
30644W        W92098  27.016  29.087  14.795
30645W        W92099  12.765  37.378   4.715
30646W        W92100  32.071   9.683   3.240
30647W        W92101  26.664  13.724   3.849
30648W        W92102  25.029  20.101   1.406
30649W        W92103   0.461   7.683  14.380
30650W        W92104   3.410  37.355   1.233
30651W        W92105   9.378  27.484  11.583
30652W        W92106   7.189  40.383   0.783
30653W        W92107  40.327  24.522  11.034
30654W        W92108  16.107  21.217  13.875
30655W        W92109  16.308  31.064   1.257
30656W        W92110  32.493  20.196   1.699
30657W        W92111   3.371  35.597   0.832
30658W        W92112  30.565  43.423   0.963
30659W        W92113   1.821   9.172   3.373
30660W        W92114   5.896  28.099  11.579
30661W        W92115  26.046  24.000   3.673
30662W        W92116  36.569  41.994  11.919
30663W        W92117  11.221  26.682   4.743
30664W        W92118  23.230   3.861  11.529
30665W        W92119  16.747   0.864  14.288
30666W        W92120  37.877  11.277  11.027
30667W        W92121   4.736  25.986   4.255
30668W        W92122  28.183   9.316  14.422
30669W        W92123   7.744  42.416   1.304
30670W        W92124  26.010   8.196  14.401
30671W        W92125  41.824  13.696  11.496
30672W        W92126  21.081   2.385  12.469
30673W        W92127  42.834  26.681   4.246
30674W        W92128  39.486  28.119   0.413
30675W        W92129  15.608   9.302   0.751
30676W        W92130  21.032  35.047   5.212
30677W        W92131  18.585  12.813   5.170
30678W        W92132  41.956  33.590   4.140
30679W        W92133  22.656  19.063  14.855
30680W        W92134  42.967  42.473   2.417
30681W        W92135  29.040  33.024  12.493
30682W        W92136  19.264  14.208  10.620
30683W        W92137   4.402  19.169  11.422
30684W        W92138  28.150  14.249   4.604
30685W        W92139  22.166  13.780  14.956
30686W        W92140   3.259  10.138  12.035
30687W        W92141   3.932  44.386   2.267
30688W        W92142  36.912  27.670  12.395
30689W        W92143  35.895   9.269   3.370
30690W        W92144  21.036  12.124  10.448
30691W        W92145  32.521  10.696   4.286
30692W        W92146   8.865  21.204   0.442
30693W        W92147  32.505   3.376  13.373
30694W        W92148   6.289   0.287   2.901
30695W        W92149  36.958  31.475  11.558
30696W        W92150  18.076  35.018   4.243
30697W        W92151  36.879  10.363  10.620
30698W        W92152  20.147   0.961   3.270
30699W        W92153   8.340  30.602   0.417
30700W        W92154  40.971  37.925  11.984
30701W        W92155  19.192  34.888  13.844
30702W        W92156   1.914  25.058   4.354
30703W        W92157  10.383   3.930  13.496
30704W        W92158  32.427  21.701   1.424
30705W        W92159  20.678  20.030  11.524
30706W        W92160  29.446   6.247   0.309
30707W        W92161  19.698  38.571  12.467
30708W        W92162  29.137  11.667  12.510
30709W        W92163  21.564  28.585   3.162
30710W        W92164  35.096   5.816  13.344
30711W        W92165  25.480   9.333   1.411
30712W        W92166  32.111  25.167   0.364
30713W        W92167  21.100  19.617   0.816
30714W        W92168  41.329  43.298   3.860
30715W        W92169   9.359  32.558  11.931
30716W        W92170  21.666  12.344  14.830
30717W        W92171  37.011  13.284   2.336
30718W        W92172   4.939  28.992   4.272
30719W        W92173  37.401  43.891   4.628
30720W        W92174  40.442  14.309  10.528
30721W        W92175  35.599   8.403   1.711
30722W        W92176   1.368  18.106   3.216
30723W        W92177   7.844  39.016  10.030
30724W        W92178   6.798  17.236   0.442
30725W        W92179  15.643  37.865  11.575
30726W        W92180   6.298   0.757   3.803
30727W        W92181   7.213  35.447  14.300
30728W        W92182   6.915  27.447   0.744
30729W        W92183   6.725  15.690  13.545
30730W        W92184  39.849  35.386   0.329
30731W        W92185  10.778   9.852  12.869
30732W        W92186  11.128   3.449   3.146
30733W        W92187  28.187  19.686  14.985
30734W        W92188  41.345  44.896  11.013
30735W        W92189   0.955  42.488  12.443
30736W        W92190  23.055  39.024  14.480
30737W        W92191  18.608  37.527  12.918
30738W        W92192   2.916  32.634  14.335
30739W        W92193   6.833  23.136  10.967
30740W        W92194  36.011  17.651  12.830
30741W        W92195  14.630  12.642   2.242
30742W        W92196  24.578  27.692  10.411
30743W        W92197  17.579  38.953  10.014
30744W        W92198  39.919  40.804  14.879
30745W        W92199   4.229  20.643   4.352
30746W        W92200  31.499   7.686  13.873
30747W        W92201  28.641  32.634  10.946
30748W        W92202   2.381  43.407  11.888
30749W        W92203  17.798  35.086   2.412
30750W        W92204   7.387  39.528   1.444
30751W        W92205  41.337  44.429   1.293
30752W        W92206  33.529  21.730  13.905
30753W        W92207  32.962  31.102   3.783
30754W        W92208  27.089  39.869   2.768
30755W        W92209  36.471  18.739   4.797
30756W        W92210  25.539   2.924   1.811
30757W        W92211   6.355  26.681  12.567
30758W        W92212  21.072   2.838  13.823
30759W        W92213  42.420  28.166   3.284
30760W        W92214  27.535  18.789   3.291
30761W        W92215  25.155  43.291  14.812
30762W        W92216  37.575  15.652  10.617
30763W        W92217   3.374  42.931   1.720
30764W        W92218  21.092  26.702  14.381
30765W        W92219  41.002   6.396  12.949
30766W        W92220  29.668  30.451   3.823
30767W        W92221  14.719  28.039   4.676
30768W        W92222  38.352  35.953   4.804
30769W        W92223  16.182   5.837  11.014
30770W        W92224  37.499  34.919  12.942
30771W        W92225  37.431  28.572  10.523
30772W        W92226  24.694  22.551   3.301
30773W        W92227  44.303  22.098  11.413
30774W        W92228  17.139  22.615   3.169
30775W        W92229   3.946  14.702   1.359
30776W        W92230  15.679  31.438   2.345
30777W        W92231  40.501  13.288   3.290
30778W        W92232  35.480   2.730  10.454
30779W        W92233  20.647  13.797  13.027
30780W        W92234  34.556   4.236  12.468
30781W        W92235  30.448   7.759  12.569
30782W        W92236   6.211  19.535   4.769
30783W        W92237   2.450  44.343  11.992
30784W        W92238  26.530  34.973   4.641
30785W        W92239  26.491   4.310  13.992
30786W        W92240  43.298  27.183  12.972
30787W        W92241  43.924  32.475  11.110
30788W        W92242   4.938  36.359  12.496
30789W        W92243  15.226  32.489  14.945
30790W        W92244   8.293  16.575  12.933
30791W        W92245  15.226  22.506  13.352
30792W        W92246   7.177  15.167   1.356
30793W        W92247  17.173  12.776  14.973
30794W        W92248  37.924  41.017   3.269
30795W        W92249   0.376  10.762  14.844
30796W        W92250  36.396   4.758  14.457
30797W        W92251   1.413  31.422  14.998
30798W        W92252  21.652  39.823   1.340
30799W        W92253   0.806  18.701   2.342
30800W        W92254  19.221   5.260   1.372
30801W        W92255  31.545  44.989  13.337
30802W        W92256   8.206  22.231  13.534
30803W        W92257  39.852  38.474  14.959
30804W        W92258  17.283  19.094   2.384
30805W        W92259  25.476  27.003   2.883
30806W        W92260  33.000  24.096   3.220
30807W        W92261   2.871  16.266   1.740
30808W        W92262  10.651  35.381   1.306
30809W        W92263  39.392  17.722   2.350
30810W        W92264  28.504  13.785   2.311
30811W        W92265   3.891   4.281   1.875
30812W        W92266  13.761  30.460  11.890
30813W        W92267   4.408   3.782   1.933
30814W        W92268  27.560  22.618  10.433
30815W        W92269  39.466   7.403  13.922
30816W        W92270  20.730  31.145   0.839
30817W        W92271  11.839   5.267  12.914
30818W        W92272  28.037  27.051   3.188
30819W        W92273  13.801  17.249  12.533
30820W        W92274  39.441  43.351  10.522
30821W        W92275   7.280  41.538  13.818
30822W        W92276  32.050  16.670  11.536
30823W        W92277  23.016  24.579  14.497
30824W        W92278   0.822  19.724   4.190
30825W        W92279  36.931  18.232  14.873
30826W        W92280  41.940  11.363   2.209
30827W        W92281   3.235   1.865   0.338
30828W        W92282  19.727  28.095   0.484
30829W        W92283   4.259   9.211   2.701
30830W        W92284   1.814  14.694  13.966
30831W        W92285  29.617   2.302  13.441
30832W        W92286   8.825   5.778  11.531
30833W        W92287   8.289  36.966   4.719
30834W        W92288  35.020   4.874  14.515
30835W        W92289  28.178  37.941  13.010
30836W        W92290  37.424  18.127  11.450
30837W        W92291  35.880  31.045   0.872
30838W        W92292  19.563  30.518  12.056
30839W        W92293  28.071   3.849   9.930
30840W        W92294   2.798   0.336   0.733
30841W        W92295  39.330  41.892  12.074
30842W        W92296  22.168   9.776  11.533
30843W        W92297  35.520  29.958   2.664
30844W        W92298  20.047  21.601   3.371
30845W        W92299  30.580   8.705   3.219
30846W        W92300  35.007  44.287   3.383
30847W        W92301  39.016  39.523   3.370
30848W        W92302  23.653  11.652  14.827
30849W        W92303  36.010  10.659   0.418
30850W        W92304  33.500  40.368  11.987
30851W        W92305  10.839  10.330  14.806
30852W        W92306  39.432  43.332   5.141
30853W        W92307   1.395   2.874  11.460
30854W        W92308  17.080  38.882  14.481
30855W        W92309  36.364   5.713  13.859
30856W        W92310  31.976  16.169   1.346
30857W        W92311   0.315  17.770   1.708
30858W        W92312   5.752   3.372   1.280
30859W        W92313  42.807  18.778   1.769
30860W        W92314   5.241  13.669   3.788
30861W        W92315   3.917  13.321   1.901
30862W        W92316  36.855  20.111   1.306
30863W        W92317   7.384   6.808   0.393
30864W        W92318  39.431  15.146   1.765
30865W        W92319  38.482  39.843   1.430
30866W        W92320  23.188  12.622   3.801
30867W        W92321  41.895  12.195   0.769
30868W        W92322   1.472   4.827  14.319
30869W        W92323   7.399  28.971   2.701
30870W        W92324   4.257  34.385   4.145
30871W        W92325  34.050  11.640  13.939
30872W        W92326  33.464   6.891  14.412
30873W        W92327   0.957  37.935   0.247
30874W        W92328  39.982  36.935   2.385
30875W        W92329   1.436  28.605  10.927
30876W        W92330   0.457  25.672   2.883
30877W        W92331  41.437  19.092   0.797
30878W        W92332  12.358  37.356  12.402
30879W        W92333  29.558  13.756   4.246
30880W        W92334  35.450   0.347  12.541
30881W        W92335  44.784  23.704  11.605
30882W        W92336  42.398   6.757  12.964
30883W        W92337  35.958  35.889  12.430
30884W        W92338   7.846  16.113   2.325
30885W        W92339   0.473   1.352  12.976
30886W        W92340  38.407  18.274  14.358
30887W        W92341  14.752   3.425  14.807
30888W        W92342   5.335  34.556  11.050
30889W        W92343  13.281   1.974  10.496
30890W        W92344   9.382  21.698  11.502
30891W        W92345   8.719  33.540   4.712
30892W        W92346   1.237  30.014   2.395
30893W        W92347  36.877  30.601   3.795
30894W        W92348   9.300  40.504   3.327
30895W        W92349   1.454  44.991  12.427
30896W        W92350  30.941  24.192  12.491
30897W        W92351  28.505  32.074   0.749
30898W        W92352  23.000  28.009   2.280
30899W        W92353  20.076  40.862  10.528
30900W        W92354  42.949  35.566   3.696
30901W        W92355   4.705  20.539  14.821
30902W        W92356  27.640  27.080   3.347
30903W        W92357  19.104  28.586   4.773
30904W        W92358  32.040   6.683   4.316
30905W        W92359  36.503  34.002   0.252
30906W        W92360  10.802   7.880  12.537
30907W        W92361   1.399  24.495  12.043
30908W        W92362  13.156  38.876  13.977
30909W        W92363  16.664  15.754  14.904
30910W        W92364  44.767  12.201  11.518
30911W        W92365  35.036  27.635   2.764
30912W        W92366  29.103  44.892  14.822
30913W        W92367  12.334   4.238  11.966
30914W        W92368   8.166  37.371   2.254
30915W        W92369  23.018  15.318   0.868
30916W        W92370  20.561   5.209   4.793
30917W        W92371  29.024  26.651   0.447
30918W        W92372  42.895  33.570   1.781
30919W        W92373   9.164  28.467   3.796
30920W        W92374  41.026  14.298  14.283
30921W        W92375  38.432   8.897   3.201
30922W        W92376  43.837  23.533   1.776
30923W        W92377  17.695  27.611  12.502
30924W        W92378   0.897   2.368   0.932
30925W        W92379  42.497  17.696   4.682
30926W        W92380   7.704  17.699   4.716
30927W        W92381  22.690  35.069   4.227
30928W        W92382  10.178  16.746  14.028
30929W        W92383  38.395   8.403   2.391
30930W        W92384   3.444  41.343  14.788
30931W        W92385   2.262  40.403   5.114
30932W        W92386  14.133   7.210   2.338
30933W        W92387  33.570   3.256  11.904
30934W        W92388  40.043  17.273   0.300
30935W        W92389  20.100   2.295   3.629
30936W        W92390  42.929  20.050  13.440
30937W        W92391   6.266  43.768  12.872
30938W        W92392  41.403  10.195   1.229
30939W        W92393   1.367  22.237  10.511
30940W        W92394   7.258  16.170  13.035
30941W        W92395  44.853  34.113  14.856
30942W        W92396  30.490  42.490   2.388
30943W        W92397  11.268  16.113   3.667
30944W        W92398  14.122  42.005   9.588
30945W        W92399  43.270   9.688  14.426
30946W        W92400   5.390  33.625  10.947
30947W        W92401  23.218  43.769   0.440
30948W        W92402  19.746  18.215  14.353
30949W        W92403  28.167   8.732  10.490
30950W        W92404   4.440  13.298   4.269
30951W        W92405  39.547  30.464   1.849
30952W        W92406  24.004  20.533  12.089
30953W        W92407  44.386   6.347   2.372
30954W        W92408  19.740  28.637   2.275
30955W        W92409  20.536  35.598   2.813
30956W        W92410  43.968  42.473  11.457
30957W        W92411  12.635  25.052  14.350
30958W        W92412   8.654   1.940  12.371
30959W        W92413   1.483  28.568   0.470
30960W        W92414   0.944   0.974   5.116
30961W        W92415  44.289  13.211   0.921
30962W        W92416  31.091  10.149   3.213
30963W        W92417  44.438  19.186  14.871
30964W        W92418  36.411  16.706  12.967
30965W        W92419  14.742  24.104  12.572
30966W        W92420  25.481   6.881  12.575
30967W        W92421  15.249  28.009   0.305
30968W        W92422  34.965  43.300   3.723
30969W        W92423  29.566  21.561   0.331
30970W        W92424  18.627  23.554  13.879
30971W        W92425  12.660  32.407   4.718
30972W        W92426  12.753  40.803  14.938
30973W        W92427  28.072  20.063  11.916
30974W        W92428  23.004  39.471  12.385
30975W        W92429  38.958   3.227  14.836
30976W        W92430  10.662  42.842  10.972
30977W        W92431  15.248  30.616  13.514
30978W        W92432  23.556  34.429  12.391
30979W        W92433  43.407  16.170  13.044
30980W        W92434  40.518   4.254   2.348
30981W        W92435   3.802  31.570   1.252
30982W        W92436   2.749  27.163   4.199
30983W        W92437  19.043  24.047  13.308
30984W        W92438  15.657   3.770   3.750
30985W        W92439   7.302   7.732  10.643
30986W        W92440   3.760  40.485   2.391
30987W        W92441   6.401  32.489   0.753
30988W        W92442  16.302  43.810  10.542
30989W        W92443   7.285  22.689  11.521
30990W        W92444  38.035  15.761  13.525
30991W        W92445  10.808  33.900   2.289
30992W        W92446  37.392   7.738   2.857
30993W        W92447  35.023  26.533  10.551
30994W        W92448  10.238   9.370   3.834
30995W        W92449  41.877  31.066   2.317
30996W        W92450   1.409  38.516   2.676
30997W        W92451  28.020  19.041  14.968
30998W        W92452  43.418  19.686   2.761
30999W        W92453  21.562  10.224  10.636
31000W        W92454  19.053   3.892  14.416
31001W        W92455  32.517  21.034   3.845
31002W        W92456  24.083  32.038  11.460
31003W        W92457  27.603   4.912  13.970
31004W        W92458  10.651  13.300  11.054
31005W        W92459  21.223   3.450   4.831
31006W        W92460  23.064  41.427  10.938
31007W        W92461  35.951   4.214  11.444
31008W        W92462  12.359  30.433  13.348
31009W        W92463   6.696  18.789  12.439
31010W        W92464  20.041  30.053   1.846
31011W        W92465  38.905  43.809   2.409
31012W        W92466   8.381  43.376   2.878
31013W        W92467   8.310  19.672   4.305
31014W        W92468  24.532  26.183  14.375
31015W        W92469  31.605  35.580  12.000
31016W        W92470  11.730  28.026   3.288
31017W        W92471  28.147  10.680  11.049
31018W        W92472  23.694  16.227   1.420
31019W        W92473  40.876   7.852   1.394
31020W        W92474  25.135  22.584  11.451
31021W        W92475  32.929   5.299   2.796
31022W        W92476  13.795  43.414   3.646
31023W        W92477  40.320  13.808   3.769
31024W        W92478  35.076   3.260   0.332
31025W        W92479  40.475  14.255  11.389
31026W        W92480  34.906  32.613   1.331
31027W        W92481  43.874  12.740   0.927
31028W        W92482  21.687   0.416  13.060
31029W        W92483  17.650   7.365  13.470
31030W        W92484   3.375  40.924   4.801
31031W        W92485  34.070  22.550  14.407
31032W        W92486  27.952  12.229  12.420
31033W        W92487   4.852   4.803   4.204
31034W        W92488  17.246   9.336  12.063
31035W        W92489  42.356  31.035   4.295
31036W        W92490   6.417  18.263   9.986
31037W        W92491  10.647   4.259  11.430
31038W        W92492  31.542  22.234   9.980
31039W        W92493   7.389  25.161  11.994
31040W        W92494   4.302  40.925   2.861
31041W        W92495   4.759  13.728   1.762
31042W        W92496  43.978  28.161  11.449
31043W        W92497  31.531   9.761  10.468
31044W        W92498  42.809  15.627   0.796
31045W        W92499  27.654  41.786   0.949
31046W        W92500  24.578   3.891   5.143
31047W        W92501   2.257  43.797   2.210
31048W        W92502  37.373  14.636   0.755
31049W        W92503   6.754  30.459  11.434
31050W        W92504  16.073   7.249   3.239
31051W        W92505   4.209  31.615   4.333
31052W        W92506  31.546   8.202   1.744
31053W        W92507  38.061   5.852   3.778
31054W        W92508   5.253  32.994   0.744
31055W        W92509  26.197  35.929   3.716
31056W        W92510  28.547  18.700  12.419
31057W        W92511  15.687  43.843  11.608
31058W        W92512  13.782  35.866  14.448
31059W        W92513  27.973   4.824   5.154
31060W        W92514  13.797  32.979   0.965
31061W        W92515  30.963   0.488   4.698
31062W        W92516  21.607  10.268   4.120
31063W        W92517   9.644   3.337   4.777
31064W        W92518  22.639  38.911  10.631
31065W        W92519   3.935  44.299   3.665
31066W        W92520   4.725   1.778  12.912
31067W        W92521   6.791   0.834  12.023
31068W        W92522   2.455   1.830   3.646
31069W        W92523  22.675  21.604  13.835
31070W        W92524   7.688  20.635   1.265
31071W        W92525  15.625  31.569  12.403
31072W        W92526  23.093  18.662  13.031
31073W        W92527  11.693  25.971   2.253
31074W        W92528  42.853  20.685   1.708
31075W        W92529  24.221  21.080  14.875
31076W        W92530  30.631   9.750  12.911
31077W        W92531   0.818  23.527  14.791
31078W        W92532  23.582   5.354  13.927
31079W        W92533  22.660  25.072   4.656
31080W        W92534  24.077  39.910  12.931
31081W        W92535  33.490  42.867   1.227
31082W        W92536  41.418  35.904  12.564
31083W        W92537  27.011  37.034   3.287
31084W        W92538   9.828  25.602   2.241
31085W        W92539   0.439  23.200   0.321
31086W        W92540  12.277  23.510  14.898
31087W        W92541  14.650   5.922   2.896
31088W        W92542  14.239  35.857   0.246
31089W        W92543  34.075  24.025  10.593
31090W        W92544  20.193  10.828  13.364
31091W        W92545  35.436  24.993   2.381
31092W        W92546  29.939  39.819   2.333
31093W        W92547  29.172  36.563  13.999
31094W        W92548  17.799  19.550  10.548
31095W        W92549   3.428  26.174   2.711
31096W        W92550  34.871  41.414  13.819
31097W        W92551  18.138  14.752  14.326
31098W        W92552  43.877  31.905  14.285
31099W        W92553  24.677  41.938   2.766
31100W        W92554  10.298  29.520   5.111
31101W        W92555  10.778  17.563   0.473
31102W        W92556  29.082  25.007   0.295
31103W        W92557  23.120  43.862   2.280
31104W        W92558  25.582  33.425   5.102
31105W        W92559  26.535  35.463  12.473
31106W        W92560  33.536   9.340   3.193
31107W        W92561  30.477  35.900   4.654
31108W        W92562  36.888  41.392  12.064
31109W        W92563  44.406  35.399   2.378
31110W        W92564  19.175   8.772   0.891
31111W        W92565  25.146  10.768  12.835
31112W        W92566  35.001  15.793   5.312
31113W        W92567  28.669  38.401   3.254
31114W        W92568  16.285  29.456   1.920
31115W        W92569   0.969  24.201  11.980
31116W        W92570  33.495   7.257   2.670
31117W        W92571   6.883   7.842  14.318
31118W        W92572  23.194  31.419   2.833
31119W        W92573  35.432   5.272   4.121
31120W        W92574  33.411  21.605  12.413
31121W        W92575   0.947  10.231  14.772
31122W        W92576  39.520  20.601  11.916
31123W        W92577   1.944  27.068   2.318
31124W        W92578  41.498  25.097   3.367
31125W        W92579  35.574   0.363   0.798
31126W        W92580  22.253  27.068  13.981
31127W        W92581  39.020  33.013  13.493
31128W        W92582  13.136   4.868  14.452
31129W        W92583  37.449   9.168  11.504
31130W        W92584  17.657  19.143  12.046
31131W        W92585  25.048  21.718   2.868
31132W        W92586  27.194  35.096  12.853
31133W        W92587  36.917   4.249   1.813
31134W        W92588  37.468   2.242   0.294
31135W        W92589   7.768   6.895  12.536
31136W        W92590  19.161  15.212   2.277
31137W        W92591   2.932  20.548   4.664
31138W        W92592  11.192  24.120  12.876
31139W        W92593  20.162  38.462   3.852
31140W        W92594  16.261  24.691  12.508
31141W        W92595  37.498   8.243  11.415
31142W        W92596  39.961   8.394   4.778
31143W        W92597  38.411   3.742  10.622
31144W        W92598  40.332  28.582   4.601
31145W        W92599  37.835  14.791  10.894
31146W        W92600  28.515  14.097  10.457
31147W        W92601   0.774  22.074  11.917
31148W        W92602  31.550  10.658  13.804
31149W        W92603  20.529  14.824   4.267
31150W        W92604  19.065   2.247   0.826
31151W        W92605  18.157  36.992  13.446
31152W        W92606   8.359  15.122   2.193
31153W        W92607  36.584  38.405   4.213
31154W        W92608   1.442   3.262   2.826
31155W        W92609  21.690   9.664  13.037
31156W        W92610  11.369   7.404   1.879
31157W        W92611  38.571  20.530   0.903
31158W        W92612   9.828  35.931  13.504
31159W        W92613   0.376  11.761   0.850
31160W        W92614  12.709  21.087   3.708
31161W        W92615  20.197  16.787   0.904
31162W        W92616   5.205   4.207   4.765
31163W        W92617  20.552   0.763   1.767
31164W        W92618  40.799  16.099  14.863
31165W        W92619  31.896  44.914   0.341
31166W        W92620  43.502  10.204   4.241
31167W        W92621  28.453  39.892   3.712
31168W        W92622   7.827  10.710   3.674
31169W        W92623  43.388  41.426   5.293
31170W        W92624  24.612  16.727   3.635
31171W        W92625  23.186  14.149  13.447
31172W        W92626   1.391  41.411  12.882
31173W        W92627   8.654  26.997   2.847
31174W        W92628   6.286  10.150  14.995
31175W        W92629  44.393   2.954   4.314
31176W        W92630  33.617  31.584  14.314
31177W        W92631  14.817  33.115   4.704
31178W        W92632  39.548  39.881   1.727
31179W        W92633  38.437  38.906   2.334
31180W        W92634   4.888  39.911   2.210
31181W        W92635  14.664  29.650   1.714
31182W        W92636  39.920   2.240   0.876
31183W        W92637  30.918  43.955   4.812
31184W        W92638  37.380  31.144  10.945
31185W        W92639  19.754  12.212   3.273
31186W        W92640  27.588   3.215  12.906
31187W        W92641  36.012   7.335  10.492
31188W        W92642  26.171  36.456  11.888
31189W        W92643  29.145  27.060   4.750
31190W        W92644  15.821  33.974  13.419
31191W        W92645  24.078  28.103   1.382
31192W        W92646  13.735   0.927  12.529
31193W        W92647  37.368   5.224  13.423
31194W        W92648   4.917  16.575  14.509
31195W        W92649   3.883  30.572   1.905
31196W        W92650  34.975  34.105   2.867
31197W        W92651  22.198   1.365   2.708
31198W        W92652  13.211  19.266   2.832
31199W        W92653  43.421  22.707   3.199
31200W        W92654  24.214  21.150   3.382
31201W        W92655  31.001  35.070  10.076
31202W        W92656  34.371   4.717   9.930
31203W        W92657  29.035  25.009  13.887
31204W        W92658  32.478  16.301   4.330
31205W        W92659  23.194  37.386   4.640
31206W        W92660  42.383  32.597   2.268
31207W        W92661  32.065  23.134   1.714
31208W        W92662  37.409  44.422   2.239
31209W        W92663  33.526  29.117   2.256
31210W        W92664  32.062  42.968   1.854
31211W        W92665  16.180  40.036  11.575
31212W        W92666  25.046   9.213   5.669
31213W        W92667   2.837  34.488   1.283
31214W        W92668   0.901  29.649   4.151
31215W        W92669  37.505  41.035  14.376
31216W        W92670   1.792  10.203  14.490
31217W        W92671  44.882  32.516   3.774
31218W        W92672  32.095   8.866  11.982
31219W        W92673  18.089  27.013   4.748
31220W        W92674  24.116  12.286  14.972
31221W        W92675  21.255  41.023   3.745
31222W        W92676  18.215  11.198   0.835
31223W        W92677  35.497  36.565  12.013
31224W        W92678  36.422   7.883   1.890
31225W        W92679  12.252  26.569  10.468
31226W        W92680  13.677  39.948   1.289
31227W        W92681  27.504   1.405   0.302
31228W        W92682  42.496  18.717   3.798
31229W        W92683  13.757  44.807  13.014
31230W        W92684  18.109  26.057   1.908
31231W        W92685   9.184  30.445   2.350
31232W        W92686  28.137  34.541   3.871
31233W        W92687   3.228  43.455  11.957
31234W        W92688  39.817  18.623  12.513
31235W        W92689  10.811   4.930  14.511
31236W        W92690  26.085   0.479   3.272
31237W        W92691  44.492  42.026   2.346
31238W        W92692  16.621  35.908  11.952
31239W        W92693  32.894  39.381  11.932
31240W        W92694  34.061  42.971   1.912
31241W        W92695  28.958  28.144  14.468
31242W        W92696  10.293  26.587  14.445
31243W        W92697  28.598  20.230   4.661
31244W        W92698  26.487  21.260   0.948
31245W        W92699  34.600  16.152   1.718
31246W        W92700  25.555  18.259   2.824
31247W        W92701  25.207   8.364   0.296
31248W        W92702   6.834  36.923   4.324
31249W        W92703  19.714  38.834  10.440
31250W        W92704  32.600  21.578   0.914
31251W        W92705  14.313  29.571   2.745
31252W        W92706   3.458  22.578  11.582
31253W        W92707  31.151  12.215  12.072
31254W        W92708  38.465  26.519  13.422
31255W        W92709  20.663   6.699  11.096
31256W        W92710  44.765   0.910   2.304
31257W        W92711   1.951  34.430   2.357
31258W        W92712  18.751  43.921  10.981
31259W        W92713  22.686  15.109  10.894
31260W        W92714  22.107  43.291   4.152
31261W        W92715  19.641  31.030  12.501
31262W        W92716  23.164  14.818  10.928
31263W        W92717   5.281  38.426  13.394
31264W        W92718  36.862   0.404   0.935
31265W        W92719   5.877  13.804  11.970
31266W        W92720  31.049  36.015   0.338
31267W        W92721  12.611   5.268   2.690
31268W        W92722  35.519  24.678   3.773
31269W        W92723  31.028  10.209  14.401
31270W        W92724   5.695   1.962   1.308
31271W        W92725   8.285  34.523   2.862
31272W        W92726  43.991  14.183  12.400
31273W        W92727  20.524   3.270  13.336
31274W        W92728  41.441  12.619  13.382
31275W        W92729  31.057  34.067   1.354
31276W        W92730   0.767  36.983  14.859
31277W        W92731   7.727  44.381  10.965
31278W        W92732  17.119  23.683   3.722
31279W        W92733  18.194  28.985   0.304
31280W        W92734  40.450   8.212   3.668
31281W        W92735  30.011  23.120   4.741
31282W        W92736  30.002  26.183  14.381
31283W        W92737  27.055  42.466   2.764
31284W        W92738   3.917  30.549   4.762
31285W        W92739   2.235   8.867   1.333
31286W        W92740  36.489  26.054   1.814
31287W        W92741  26.555  30.035  11.496
31288W        W92742  27.969  43.881   0.872
31289W        W92743   0.959  41.395   3.316
31290W        W92744  29.586   0.927   3.715
31291W        W92745  33.069  34.466  13.446
31292W        W92746  22.097  34.377  14.891
31293W        W92747  41.467  33.034  14.369
31294W        W92748  25.014  30.650  14.378
31295W        W92749  16.758  43.491   1.448
31296W        W92750  29.664   4.244  10.046
31297W        W92751  38.964  14.738   4.692
31298W        W92752  24.054  19.748   2.242
31299W        W92753  21.244  19.584  11.972
31300W        W92754  28.604  23.709  12.992
31301W        W92755  28.546  43.943  12.047
31302W        W92756  25.696   2.284   0.364
31303W        W92757   4.398  44.964  13.326
31304W        W92758  15.747   6.890  14.410
31305W        W92759   8.177   2.309   0.317
31306W        W92760   9.187  10.337  10.471
31307W        W92761   6.397   3.777   4.185
31308W        W92762  18.103  10.722   4.757
31309W        W92763  39.494   6.397  14.399
31310W        W92764   1.370  35.567  11.121
31311W        W92765  39.841  15.691  10.546
31312W        W92766  18.571  36.384   4.287
31313W        W92767  27.183  31.940  12.096
31314W        W92768   0.865  30.638   2.380
31315W        W92769  38.571   3.731   3.360
31316W        W92770  21.586  19.618  12.893
31317W        W92771  17.283   6.211   0.292
31318W        W92772  25.139  22.203  11.521
31319W        W92773  36.476  24.083  13.398
31320W        W92774  10.752  37.012  13.063
31321W        W92775  14.834  43.309   5.620
31322W        W92776  21.707  25.705  13.488
31323W        W92777  20.578  13.119  11.980
31324W        W92778   1.775  19.742  12.413
31325W        W92779   0.469  16.267  14.295
31326W        W92780   1.322   6.261  11.097
31327W        W92781  26.551   7.221   1.280
31328W        W92782  43.010  30.053  12.039
31329W        W92783  41.397  21.727   3.805
31330W        W92784  43.898  25.479  13.480
31331W        W92785   7.316  37.417  14.512
31332W        W92786  39.996  30.977   2.238
31333W        W92787  28.177   5.904   4.218
31334W        W92788  39.862  40.548  11.124
31335W        W92789  28.939  32.612   3.671
31336W        W92790   4.901  33.901  12.908
31337W        W92791   5.875   4.309   1.741
31338W        W92792  42.399  19.705   1.245
31339W        W92793  23.045  16.255  11.401
31340W        W92794  28.627  41.453  13.018
31341W        W92795  30.581  14.231   0.910
31342W        W92796  35.527   2.757  12.095
31343W        W92797   0.256  38.822   1.797
31344W        W92798  21.747  17.194  14.378
31345W        W92799  31.562   6.679   2.895
31346W        W92800   9.651   8.367  12.394
31347W        W92801   2.275  15.651   2.743
31348W        W92802  18.169  32.067  11.414
31349W        W92803  40.340  12.198  11.435
31350W        W92804  39.042   0.781  12.847
31351W        W92805  43.333   7.404   0.898
31352W        W92806  25.684  25.562   3.834
31353W        W92807  20.127  23.081  10.617
31354W        W92808  22.134   0.321  11.885
31355W        W92809  22.694   0.398  11.926
31356W        W92810  17.284  38.829  13.470
31357W        W92811  17.121  18.119   4.259
31358W        W92812  44.861   9.757   4.350
31359W        W92813  18.754   2.724   3.844
31360W        W92814  44.913  26.675  12.436
31361W        W92815   8.288  26.606  11.008
31362W        W92816  24.687   0.395   2.741
31363W        W92817  18.249  35.953   0.370
31364W        W92818  23.008  35.549  12.074
31365W        W92819  27.577   7.671  13.485
31366W        W92820  43.940  29.999  13.369
31367W        W92821  23.703  27.547  10.460
31368W        W92822   1.339  29.159  10.445
31369W        W92823  42.467  24.126   0.340
31370W        W92824  39.931  20.031  10.591
31371W        W92825   5.724  34.001  10.553
31372W        W92826  22.068  11.173   2.875
31373W        W92827  17.089  29.529   3.149
31374W        W92828  30.932  26.624  10.618
31375W        W92829  24.129  43.505  10.967
31376W        W92830  38.551   3.721   0.927
31377W        W92831  30.931  17.113   2.361
31378W        W92832  19.087  11.637  11.112
31379W        W92833   1.912  37.916   2.278
31380W        W92834  19.182   6.347  12.541
31381W        W92835  14.296   9.647  13.822
31382W        W92836   3.910   6.317  11.439
31383W        W92837  19.617  33.115   4.355
31384W        W92838  27.016   5.218  14.791
31385W        W92839   4.303  35.491   3.832
31386W        W92840  12.185  12.197  13.341
31387W        W92841  26.076  33.117   3.643
31388W        W92842  29.040  29.583   1.442
31389W        W92843   4.303  43.406   3.221
31390W        W92844  20.636  26.000  12.069
31391W        W92845  37.550  18.287  13.387
31392W        W92846  23.211  32.079  12.043
31393W        W92847  32.941  18.243   2.810
31394W        W92848   5.777  27.046   0.744
31395W        W92849  39.944  22.668   3.703
31396W        W92850   7.416  17.736  12.864
31397W        W92851  39.474  26.602   2.795
31398W        W92852  11.276  42.428   5.231
31399W        W92853  22.587  40.982  11.888
31400W        W92854  17.100  38.942  10.482
31401W        W92855  13.650  30.083   3.812
31402W        W92856  27.544  11.263  11.974
31403W        W92857   3.817  23.559   4.729
31404W        W92858   6.306  17.634  13.489
31405W        W92859  31.627  19.720   3.353
31406W        W92860  36.375  29.491   0.305
31407W        W92861  31.093   3.226   9.979
31408W        W92862  29.612  24.487   3.215
31409W        W92863  36.558  14.797  14.922
31410W        W92864   7.901  39.527  14.768
31411W        W92865  39.927   4.305   0.852
31412W        W92866  11.366   2.759   3.321
31413W        W92867   7.191  32.577  13.399
31414W        W92868   8.891  18.077   1.854
31415W        W92869  17.675  13.827   0.372
31416W        W92870  29.613  13.182  14.816
31417W        W92871  10.809   2.914  13.847
31418W        W92872  27.092   2.472   5.202
31419W        W92873  32.500  21.594   4.605
31420W        W92874  30.978   1.908   5.127
31421W        W92875  13.258  42.916   3.156
31422W        W92876   5.701   5.712   2.841
31423W        W92877  18.575  10.848  14.988
31424W        W92878  38.467   1.356   1.738
31425W        W92879  14.691  30.133  12.519
31426W        W92880  14.146  10.287  14.358
31427W        W92881  26.475   4.834   2.207
31428W        W92882  12.632  11.229   5.198
31429W        W92883   2.353   9.259  11.548
31430W        W92884  27.690  39.440  14.895
31431W        W92885   3.404  42.834  11.965
31432W        W92886  12.788  34.037  11.554
31433W        W92887  21.643  21.553  12.078
31434W        W92888  27.642  31.051  13.451
31435W        W92889  30.567  42.290   0.326
31436W        W92890  38.544  42.478   5.237
31437W        W92891   6.286  18.080  13.830
31438W        W92892  20.723  26.519   2.413
31439W        W92893   2.468   5.268   4.151
31440W        W92894  35.415   5.726  12.490
31441W        W92895  13.163   9.726   2.663
31442W        W92896  25.074  22.542   0.964
31443W        W92897  37.980   0.882  13.319
31444W        W92898   6.709  42.031   1.378
31445W        W92899  14.294  43.777  11.551
31446W        W92900  30.003  21.095  14.914
31447W        W92901   7.201   9.842  11.458
31448W        W92902  44.342  14.701   0.932
31449W        W92903  10.862  44.849  11.863
31450W        W92904  41.855   9.834   3.820
31451W        W92905   5.800   5.209   0.324
31452W        W92906  24.119  34.984   3.850
31453W        W92907  38.362  40.497  14.363
31454W        W92908  15.114  37.406   4.198
31455W        W92909  40.845  12.825   2.823
31456W        W92910  12.722  26.606  13.344
31457W        W92911  30.565   7.222   2.407
31458W        W92912  11.716  34.577  10.002
31459W        W92913  22.145   5.239  11.610
31460W        W92914  35.067   3.810  12.022
31461W        W92915  20.560  29.013   0.784
31462W        W92916   0.351  18.204  10.942
31463W        W92917  42.298   8.860   3.156
31464W        W92918  13.310  33.905  13.379
31465W        W92919   0.968   7.377   2.311
31466W        W92920  26.595  18.266  11.925
31467W        W92921   6.337  17.224  12.507
31468W        W92922   3.778   6.709   2.278
31469W        W92923  24.675  37.830   1.349
31470W        W92924  41.970  44.872   0.894
31471W        W92925  14.172  31.002   3.175
31472W        W92926  21.680   0.865   4.726
31473W        W92927  10.330  43.780   3.846
31474W        W92928  29.921  21.757   3.305
31475W        W92929  24.121  14.338  13.865
31476W        W92930  39.371  37.865  11.984
31477W        W92931   2.743   6.424  14.791
31478W        W92932  36.858  34.482  13.354
31479W        W92933  42.954  30.552  12.071
31480W        W92934  42.506  25.109   1.275
31481W        W92935  12.814   7.349  12.871
31482W        W92936  34.890  33.567   0.325
31483W        W92937  41.446  13.288  11.593
31484W        W92938  44.999  14.146   3.198
31485W        W92939   4.886  36.462   1.729
31486W        W92940  20.749  38.926  11.045
31487W        W92941  43.930   7.828  14.371
31488W        W92942  30.159   6.708   1.906
31489W        W92943  24.145  11.740   5.100
31490W        W92944  29.499  28.510   4.728
31491W        W92945  22.251  32.531   0.398
31492W        W92946  22.061  35.386   4.743
31493W        W92947  38.502  14.231   2.182
31494W        W92948  19.128  13.256  13.011
31495W        W92949  29.025  31.570   0.288
31496W        W92950  27.116  26.501  14.864
31497W        W92951   0.371  19.537   1.903
31498W        W92952  41.472  17.251   4.758
31499W        W92953  32.411  36.010   2.852
31500W        W92954  17.248   3.750  14.799
31501W        W92955  12.738  43.328  12.072
31502W        W92956  34.424  42.510   1.870
31503W        W92957  23.005   9.688  12.423
31504W        W92958  28.491   3.873  12.359
31505W        W92959  10.780  26.652   4.735
31506W        W92960   0.475  38.536   1.738
31507W        W92961  35.886  16.704  10.437
31508W        W92962  17.279  16.276   1.855
31509W        W92963  34.565  14.099   4.139
31510W        W92964  31.522  10.215   1.838
31511W        W92965  21.119  14.261  12.398
31512W        W92966  38.397   3.728  12.555
31513W        W92967  38.865  28.173   0.736
31514W        W92968  29.163   7.894   4.255
31515W        W92969  20.557   1.920   1.411
31516W        W92970  40.396  20.030   4.760
31517W        W92971   1.892  24.572   3.639
31518W        W92972  25.209  36.978   1.756
31519W        W92973  14.230   9.889  14.888
31520W        W92974  32.090  37.484  14.473
31521W        W92975  31.490  23.187  11.562
31522W        W92976  23.004  17.205  12.487
31523W        W92977  21.120  25.530   2.753
31524W        W92978  29.067  34.981  11.458
31525W        W92979  17.662  29.627  12.487
31526W        W92980  33.435   1.960  14.922
31527W        W92981  42.011  35.935  13.358
31528W        W92982  21.516  13.793   0.274
31529W        W92983  16.658  34.520   0.833
31530W        W92984  11.347   4.395   2.207
31531W        W92985  23.067  40.549  14.962
31532W        W92986  31.607  14.154   3.722
31533W        W92987  21.729  10.213   3.273
31534W        W92988  18.087  43.768  11.866
31535W        W92989   8.224  14.701   1.362
31536W        W92990  35.604   6.359   3.324
31537W        W92991   9.179  23.712   4.679
31538W        W92992  38.842  21.255   2.255
31539W        W92993  41.414  32.624   3.285
31540W        W92994  19.692   1.440   2.343
31541W        W92995  23.212   1.299   0.926
31542W        W92996  41.009  39.825  12.853
31543W        W92997  42.941  29.563   4.137
31544W        W92998  38.534   8.782  13.019
31545W        W92999  23.543  14.812   2.808
31546W        W93000  12.695  26.998   0.422
31547W        W93001  26.618  43.008  13.339
31548W        W93002  11.773   8.743  12.497
31549W        W93003   7.231   6.797   2.851
31550W        W93004  13.614  39.870  12.003
31551W        W93005  28.027   2.958  13.055
31552W        W93006  14.824  44.787   0.896
31553W        W93007  26.546  35.108  11.912
31554W        W93008  41.035  43.444   0.961
31555W        W93009  18.667  11.291   4.332
31556W        W93010   8.689  22.232   2.204
31557W        W93011  40.380  24.553  12.468
31558W        W93012  41.308  31.907   9.972
31559W        W93013  17.302   7.286  10.070
31560W        W93014  23.002  16.259  10.937
31561W        W93015   2.938  22.119  12.825
31562W        W93016  10.149  23.527  11.388
31563W        W93017  43.509  35.951  12.579
31564W        W93018  13.617   7.708   0.479
31565W        W93019  36.061  26.537  12.399
31566W        W93020  27.504   5.205   3.841
31567W        W93021  37.042   2.767  11.904
31568W        W93022  11.644  44.939   0.302
31569W        W93023  26.194  12.345  11.501
31570W        W93024   3.788  13.181  11.563
31571W        W93025  40.543  23.637   0.732
31572W        W93026  14.826  34.106  12.365
31573W        W93027  20.199  20.150   3.641
31574W        W93028  10.230  25.690  13.912
31575W        W93029  18.560   1.770   3.667
31576W        W93030  29.161  36.944   3.817
31577W        W93031  24.131  44.280  10.956
31578W        W93032  38.501  21.597   2.896
31579W        W93033   0.815  11.327  13.314
31580W        W93034   6.888   9.758   0.383
31581W        W93035  20.725  27.654  11.584
31582W        W93036   5.845  14.282  14.990
31583W        W93037  26.187   2.886   0.471
31584W        W93038  26.666  35.061   1.743
31585W        W93039  17.081   3.724   2.289
31586W        W93040  25.606  10.650   4.828
31587W        W93041   4.827  39.499  11.099
31588W        W93042  30.593  19.143   3.676
31589W        W93043  16.107  21.720   2.729
31590W        W93044  25.616   4.356   2.786
31591W        W93045  10.678  22.515  10.077
31592W        W93046   3.300  34.933  13.503
31593W        W93047  13.688   8.189   3.682
31594W        W93048  20.526  41.834   1.927
31595W        W93049  36.563   3.291  14.477
31596W        W93050  15.279  20.558   1.426
31597W        W93051  21.620  32.012  10.461
31598W        W93052  22.609  24.105  14.514
31599W        W93053  14.265  25.965   1.787
31600W        W93054  29.075  14.194   4.762
31601W        W93055  33.598   1.833  13.368
31602W        W93056   3.341  25.084   2.793
31603W        W93057   9.733   5.395   1.917
31604W        W93058  42.986  36.995   1.865
31605W        W93059  26.131  22.558   0.901
31606W        W93060  38.009  37.842  10.446
31607W        W93061  44.323  15.268  12.387
31608W        W93062  41.366   1.322   2.772
31609W        W93063  20.187  33.018  13.027
31610W        W93064   0.805  18.616  12.833
31611W        W93065  13.219   0.447  10.904
31612W        W93066  43.301  15.774  14.945
31613W        W93067  16.798  31.952   4.718
31614W        W93068   2.888  22.502   3.336
31615W        W93069  22.541  11.638  13.545
31616W        W93070  43.339  28.436   3.776
31617W        W93071   4.207  27.659   0.902
31618W        W93072  25.202  19.562   3.218
31619W        W93073  14.714  38.022   3.366
31620W        W93074  33.004  31.996   1.760
31621W        W93075  12.358  35.398  14.444
31622W        W93076  26.003   7.320   4.804
31623W        W93077  23.158  32.560   2.817
31624W        W93078  24.113  42.408   0.827
31625W        W93079   0.276   6.329   4.673
31626W        W93080   9.886  21.723  12.929
31627W        W93081  40.312   3.260  12.884
31628W        W93082  27.468  22.245   1.760
31629W        W93083  41.797   0.407   4.643
31630W        W93084  34.513  41.474   2.695
31631W        W93085  41.996  42.482   4.793
31632W        W93086  36.506  33.620  14.963
31633W        W93087  18.067  26.531  10.079
31634W        W93088  35.027  26.549   2.192
31635W        W93089  41.514  38.861   3.733
31636W        W93090  27.612  14.798  11.495
31637W        W93091  16.125  21.170   4.601
31638W        W93092  13.314  32.954  13.427
31639W        W93093  35.559  12.154  12.989
31640W        W93094  29.574  40.005   4.175
31641W        W93095  29.655  20.607  11.983
31642W        W93096  39.939   9.872  11.410
31643W        W93097   8.768   4.283  14.356
31644W        W93098  35.877   1.791  12.493
31645W        W93099  33.892  20.745   2.765
31646W        W93100  11.172  12.322   0.365
31647W        W93101   2.902  21.139  11.421
31648W        W93102  14.658  13.779   1.296
31649W        W93103   1.969  37.993  13.412
31650W        W93104  40.046  29.500  12.541
31651W        W93105  22.120  18.274  12.857
31652W        W93106  40.371  13.275  14.318
31653W        W93107  29.086   3.355   1.367
31654W        W93108  23.089  16.283  13.056
31655W        W93109  24.224  25.072  13.462
31656W        W93110  22.250   9.754  13.868
31657W        W93111  43.414  23.010  13.350
31658W        W93112   8.395  36.348  11.089
31659W        W93113  37.481  28.979  12.478
31660W        W93114  31.910  39.329   3.359
31661W        W93115  41.395  32.611  11.995
31662W        W93116  37.037   8.740   0.382
31663W        W93117  16.743  13.612  12.985
31664W        W93118  17.750  33.879   4.191
31665W        W93119  27.137  15.297  13.363
31666W        W93120  42.818  13.605  11.903
31667W        W93121  25.500  36.490   2.821
31668W        W93122  24.643   5.718  11.882
31669W        W93123  33.109  11.348   0.729
31670W        W93124  34.414   2.422  14.019
31671W        W93125  14.331   3.894  13.967
31672W        W93126  39.954  24.661  14.822
31673W        W93127  23.599  18.654  14.791
31674W        W93128  37.568  23.628  12.872
31675W        W93129   2.746  13.822  13.851
31676W        W93130  21.147   3.412   0.933
31677W        W93131  11.846  36.455   3.345
31678W        W93132  12.611  31.537  13.891
31679W        W93133  32.943  17.622   3.689
31680W        W93134  41.958  36.874  11.451
31681W        W93135   9.174  24.720   2.307
31682W        W93136   0.277   2.817  13.497
31683W        W93137  23.624  44.834  14.336
31684W        W93138  27.514   3.788  12.491
31685W        W93139  44.775   7.233  14.775
31686W        W93140  29.024  26.684   2.768
31687W        W93141   5.406  21.161   1.776
31688W        W93142  24.528  43.508   2.687
31689W        W93143   7.870  21.115   1.850
31690W        W93144  28.940  14.795   5.127
31691W        W93145  19.634  24.577  13.461
31692W        W93146  39.022  44.286  14.379
31693W        W93147  18.654   1.919  14.850
31694W        W93148   6.730  33.053   0.327
31695W        W93149   0.480  16.276   0.448
31696W        W93150  35.020  29.606   1.445
31697W        W93151   5.276  26.637   5.234
31698W        W93152   5.418  25.964   0.885
31699W        W93153  36.506  25.979   4.739
31700W        W93154  36.379  14.247  11.078
31701W        W93155  38.473  44.779  13.023
31702W        W93156  28.678  34.991  14.392
31703W        W93157  43.845  31.918   2.316
31704W        W93158   3.420   0.819   3.871
31705W        W93159  38.043  22.234  12.088
31706W        W93160  36.463   9.356   0.348
31707W        W93161   6.763  38.852  14.797
31708W        W93162  16.177  24.150  11.409
31709W        W93163   8.339  11.644  10.959
31710W        W93164  29.462  23.219  11.927
31711W        W93165  21.660  22.650   0.338
31712W        W93166  41.300  40.462   4.724
31713W        W93167   0.762  35.475  12.508
31714W        W93168  40.362  30.110   4.643
31715W        W93169  40.402  17.122   4.239
31716W        W93170   3.287  12.822   1.917
31717W        W93171  14.772   1.861  10.103
31718W        W93172  37.934  24.129   1.921
31719W        W93173  14.724  12.359  13.008
31720W        W93174  43.998  41.388  11.595
31721W        W93175   1.397   6.855  14.984
31722W        W93176  12.809  13.220   5.097
31723W        W93177  14.642   0.472   2.402
31724W        W93178  29.032  25.071  12.034
31725W        W93179   8.255  21.067  10.424
31726W        W93180  24.539   4.863  11.978
31727W        W93181  33.445   6.745  14.010
31728W        W93182  42.378  33.540  14.989
31729W        W93183   8.266   1.348  11.033
31730W        W93184  35.891  25.554  10.423
31731W        W93185  18.693  38.854  13.927
31732W        W93186  15.114  32.035  11.977
31733W        W93187  25.614  33.463   9.924
31734W        W93188   4.742  23.241  13.863
31735W        W93189   2.257  17.598  14.964
31736W        W93190  17.564  35.440  10.459
31737W        W93191  30.421  10.181  12.504
31738W        W93192  28.638  38.986   4.336
31739W        W93193  24.662   8.715  11.124
31740W        W93194  37.538  14.239   2.787
31741W        W93195  31.592  39.352  11.939
31742W        W93196  33.588   4.777  11.908
31743W        W93197   9.722  34.452  13.039
31744W        W93198  23.072  24.526   2.794
31745W        W93199  12.828  35.991   4.807
31746W        W93200   5.832  37.889   3.240
31747W        W93201   9.735  15.164   2.708
31748W        W93202  41.860  42.792   4.645
31749W        W93203  43.274  40.837  12.457
31750W        W93204  43.416  28.129  10.460
31751W        W93205   3.742  35.975  12.481
31752W        W93206  24.081  34.936  12.862
31753W        W93207  27.183   5.836   3.645
31754W        W93208  22.168  21.057  10.620
31755W        W93209   9.854  24.184  10.609
31756W        W93210  29.432  29.636   0.450
31757W        W93211   7.173  21.649  13.799
31758W        W93212  38.937  18.589  11.592
31759W        W93213  35.987  29.438  14.503
31760W        W93214  21.030  13.292  12.445
31761W        W93215  34.587  31.900  13.858
31762W        W93216  14.815  33.533  11.395
31763W        W93217   3.841  10.178  11.882
31764W        W93218  22.181   5.414  13.982
31765W        W93219  25.643  15.109   0.961
31766W        W93220  38.888   4.714   1.303
31767W        W93221  22.629   3.308   2.365
31768W        W93222  39.958   9.797  12.934
31769W        W93223  26.541  12.643   3.632
31770W        W93224  37.060  23.703  14.429
31771W        W93225  33.499  27.100   1.318
31772W        W93226  24.991  40.819   1.758
31773W        W93227  29.973  18.603  13.368
31774W        W93228   2.809  39.543  13.854
31775W        W93229  34.956  29.667   3.701
31776W        W93230  27.119  22.725  14.494
31777W        W93231  39.477  33.464  11.471
31778W        W93232  23.671  31.626  10.584
31779W        W93233  27.071   7.367  14.405
31780W        W93234   9.854   0.935  12.371
31781W        W93235  11.798   3.820  12.903
31782W        W93236   5.700  20.602  14.321
31783W        W93237  21.698  17.148  12.865
31784W        W93238  32.938  36.537   1.435
31785W        W93239   5.794   2.963   3.825
31786W        W93240   4.901  10.375   3.146
31787W        W93241  15.141  21.731  11.872
31788W        W93242  18.173  44.469  12.992
31789W        W93243  21.694   4.398  12.495
31790W        W93244  12.636  33.916  10.994
31791W        W93245  39.042   5.402  12.940
31792W        W93246   1.330  33.091  13.345
31793W        W93247  29.613   0.957   3.151
31794W        W93248  32.911   9.817   4.215
31795W        W93249  34.953   1.780   3.854
31796W        W93250  24.017  10.857   2.320
31797W        W93251  44.837  15.097  11.052
31798W        W93252  16.112   7.269   5.103
31799W        W93253  39.981  44.422   4.728
31800W        W93254  30.554  24.103   2.201
31801W        W93255  41.373  37.087   2.250
31802W        W93256   6.708  22.601  11.515
31803W        W93257  42.940  34.590  14.859
31804W        W93258   6.382  11.835   1.239
31805W        W93259  22.011  14.168  11.869
31806W        W93260   1.918   9.679   4.291
31807W        W93261  19.077  10.250  11.031
31808W        W93262   1.441   8.715  10.959
31809W        W93263  16.571   1.854  14.937
31810W        W93264  41.914  19.646   3.640
31811W        W93265  18.123  22.124   2.205
31812W        W93266  24.134  25.059   1.759
31813W        W93267   0.775  25.630  12.835
31814W        W93268  18.207  16.116   1.833
31815W        W93269  36.418  24.985  14.772
31816W        W93270  23.551  15.712   2.828
31817W        W93271   4.378  11.185   3.723
31818W        W93272  11.278   8.899  13.949
31819W        W93273  17.802  24.660  12.909
31820W        W93274  40.351  32.513  11.031
31821W        W93275  29.577   1.950   1.429
31822W        W93276  33.536   0.826   4.778
31823W        W93277  23.199  42.995   4.210
31824W        W93278   6.733  33.474   4.130
31825W        W93279  20.090  29.119  10.049
31826W        W93280  28.543  38.916  13.331
31827W        W93281  16.136  22.066   3.785
31828W        W93282  25.168   6.762   4.325
31829W        W93283  19.112  39.321   2.311
31830W        W93284  16.185   4.859   4.694
31831W        W93285  23.052  12.732   0.331
31832W        W93286  39.927  26.021  11.883
31833W        W93287  31.064  19.769  11.403
31834W        W93288   7.416  38.885   2.755
31835W        W93289  40.431  29.628  14.999
31836W        W93290  12.784  12.721  12.867
31837W        W93291  33.994   5.894   0.807
31838W        W93292  22.690  15.681   9.947
31839W        W93293  28.640  18.090   0.963
31840W        W93294  42.811  10.689  12.887
31841W        W93295   7.194  12.799  12.885
31842W        W93296  25.976  13.716   1.830
31843W        W93297  21.534  30.556  11.434
31844W        W93298  39.976  11.306   4.726
31845W        W93299   0.377   3.453  10.532
31846W        W93300  20.122   7.666  11.605
31847W        W93301  34.457  27.670   4.242
31848W        W93302  26.960  44.991   0.944
31849W        W93303  43.979  25.652   4.690
31850W        W93304  17.559  16.090  12.094
31851W        W93305  10.775   2.381   4.744
31852W        W93306  14.719  40.318   9.996
31853W        W93307   6.760   8.791  11.998
31854W        W93308  20.030   6.227  12.827
31855W        W93309  36.587  24.154   0.448
31856W        W93310  24.994  21.230  10.638
31857W        W93311  25.165  15.715  12.509
31858W        W93312  33.490  43.451  13.519
31859W        W93313  24.995  34.418  10.490
31860W        W93314  36.360   2.429   4.609
31861W        W93315  11.222  17.752  10.573
31862W        W93316  13.282  27.649  10.571
31863W        W93317  23.656   9.888   4.636
31864W        W93318   9.379  39.818  12.000
31865W        W93319  11.303  12.774   1.345
31866W        W93320  24.034  16.687   3.714
31867W        W93321   9.643  40.311  12.026
31868W        W93322  35.986  25.488   2.807
31869W        W93323   6.706  27.082  12.906
31870W        W93324  38.511  39.349  13.059
31871W        W93325   8.764   8.893  11.439
31872W        W93326  29.550   8.890  11.039
31873W        W93327  44.317  32.887   0.268
31874W        W93328  29.067   8.706   1.702
31875W        W93329  13.768   8.171   0.952
31876W        W93330  30.926   4.911  11.601
31877W        W93331   3.445  11.776  14.335
31878W        W93332  21.139  14.339   0.374
31879W        W93333  39.351   7.735   3.701
31880W        W93334   7.699  25.547   3.858
31881W        W93335  34.383  33.067   3.761
31882W        W93336  24.570  13.209  12.910
31883W        W93337  27.450   2.232  10.070
31884W        W93338  26.702  32.443   1.776
31885W        W93339  29.497  21.661   0.882
31886W        W93340  26.951  18.598  14.785
31887W        W93341  20.605  24.049   3.172
31888W        W93342  40.003  41.414   5.280
31889W        W93343  23.994  20.535  12.387
31890W        W93344  17.570  43.905   0.770
31891W        W93345   9.857  28.004   4.688
31892W        W93346  39.453  43.882   3.870
31893W        W93347  11.290  36.528  11.557
31894W        W93348  30.631  15.322   4.839
31895W        W93349  44.318   9.277   0.826
31896W        W93350  21.215  15.581   4.198
31897W        W93351  31.909  42.949   2.850
31898W        W93352   8.766  10.677   3.194
31899W        W93353  30.098  18.191   4.614
31900W        W93354  23.679  17.232   4.797
31901W        W93355  21.717  35.901  11.978
31902W        W93356   1.957   8.889  11.523
31903W        W93357  38.397  43.334  13.454
31904W        W93358  17.195  36.094  11.602
31905W        W93359   4.757   9.277  12.839
31906W        W93360  24.988  28.544  13.460
31907W        W93361  33.403   3.931   0.937
31908W        W93362  27.071  36.884   4.126
31909W        W93363  15.691   2.387   2.880
31910W        W93364  23.709  43.334   2.774
31911W        W93365  27.014  15.681  11.974
31912W        W93366  32.067  24.978  10.114
31913W        W93367  40.399  12.317   0.398
31914W        W93368   5.367  41.811  13.462
31915W        W93369  12.184   0.844   2.759
31916W        W93370  38.567  17.666   1.728
31917W        W93371  32.517   7.814   1.826
31918W        W93372   7.671  17.068   1.437
31919W        W93373  24.575  39.378   0.927
31920W        W93374  20.250  28.490  12.486
31921W        W93375  35.970  41.013   0.295
31922W        W93376   6.755  14.749   0.473
31923W        W93377  24.558   8.722  13.900
31924W        W93378  28.023  17.761  10.430
31925W        W93379  36.590  29.586  13.445
31926W        W93380  42.311  15.099   4.720
31927W        W93381  17.131  28.952   9.989
31928W        W93382  37.405  35.959  13.904
31929W        W93383   0.305  27.197  10.977
31930W        W93384  11.272  25.055   0.397
31931W        W93385  12.343  25.513   3.337
31932W        W93386  35.916  43.496  11.123
31933W        W93387  33.599   1.946   3.688
31934W        W93388  31.538  35.398  11.107
31935W        W93389  12.759  22.740  10.446
31936W        W93390  21.709  13.845  11.078
31937W        W93391  15.152  36.893  13.490
31938W        W93392  43.343  34.390  11.385
31939W        W93393  15.259  41.415   1.230
31940W        W93394   2.315   8.336   3.184
31941W        W93395  35.094  20.568   0.836
31942W        W93396   2.771  30.415   3.289
31943W        W93397  40.343  42.853  10.452
31944W        W93398  43.287   8.166   4.749
31945W        W93399  18.707   8.327  14.491
31946W        W93400  29.170  37.932  13.429
31947W        W93401  21.518  44.874   2.861
31948W        W93402  23.662   0.834   0.346
31949W        W93403  35.968  29.155   2.195
31950W        W93404  37.569  21.048  14.017
31951W        W93405  27.940  30.031   1.716
31952W        W93406  38.461  14.662   4.220
31953W        W93407  21.607  23.507   1.407
31954W        W93408  42.986  43.331  12.533
31955W        W93409  31.919  24.074   4.713
31956W        W93410  38.377  36.413   3.663
31957W        W93411  37.083  29.542   2.228
31958W        W93412   1.330  29.060  14.775
31959W        W93413  33.975  31.479   1.842
31960W        W93414  25.184  43.375   4.208
31961W        W93415   4.442  26.513   0.296
31962W        W93416  32.431  35.412  14.765
31963W        W93417  43.860  14.095  11.104
31964W        W93418   7.873   0.334   4.197
31965W        W93419  36.894   3.894  10.582
31966W        W93420  25.467   9.162  12.846
31967W        W93421   9.827  43.388  14.385
31968W        W93422  14.740  38.060   2.419
31969W        W93423   7.384   3.846  14.286
31970W        W93424   6.193  34.584  12.847
31971W        W93425  11.805   2.759  11.993
31972W        W93426  21.201  18.564   2.341
31973W        W93427  40.894  27.050  12.541
31974W        W93428   2.260  21.514  14.961
31975W        W93429  14.277  44.318   3.851
31976W        W93430  12.621   8.197  12.904
31977W        W93431  35.000  39.012  11.061
31978W        W93432  21.142  15.817   2.800
31979W        W93433  14.603  41.517  12.439
31980W        W93434  41.803  14.829  11.024
31981W        W93435  10.697  27.066  12.366
31982W        W93436  38.540  23.240   3.155
31983W        W93437  31.083  41.296   1.694
31984W        W93438   6.756  15.621   0.879
31985W        W93439  27.670  24.152   3.678
31986W        W93440  13.211  41.404   5.276
31987W        W93441   5.911  15.640  11.407
31988W        W93442  10.652  12.315   1.414
31989W        W93443   3.948   5.411   0.778
31990W        W93444   6.678   1.434   2.311
31991W        W93445  10.836  43.003   4.770
31992W        W93446  41.398  17.112   1.344
31993W        W93447   2.775  15.191   4.738
31994W        W93448   6.706  23.232  10.577
31995W        W93449  13.676  19.148  14.004
31996W        W93450  42.872  44.880   0.386
31997W        W93451   0.972   0.325   3.680
31998W        W93452  31.408  29.964   3.719
31999W        W93453   7.831  37.365  12.044
32000W        W93454  44.800  36.082  12.923
32001W        W93455  27.587  16.714  13.514
32002W        W93456   0.986  35.477  13.541
32003W        W93457  14.208  36.571   4.123
32004W        W93458   7.389  10.751   2.403
32005W        W93459  30.491  34.614   2.825
32006W        W93460   1.786  30.097   4.663
32007W        W93461  27.520  21.581  10.532
32008W        W93462  28.136  17.193   2.322
32009W        W93463  33.551  26.467   3.679
32010W        W93464  35.372  21.689   0.307
32011W        W93465  41.352  23.732  12.931
32012W        W93466   4.783  42.362  11.524
32013W        W93467  37.076  23.658  13.992
32014W        W93468  11.840  33.074  13.405
32015W        W93469  27.052   4.394   3.209
32016W        W93470   3.797   5.903  11.981
32017W        W93471  38.461   8.768  13.475
32018W        W93472  17.555  21.633   4.350
32019W        W93473   6.349   1.865  13.815
32020W        W93474  15.780  36.994  10.113
32021W        W93475  37.393  37.948   0.455
32022W        W93476  21.042  24.674  11.037
32023W        W93477  26.973   6.272   4.782
32024W        W93478   6.884  22.007  11.408
32025W        W93479  12.792  44.895  14.026
32026W        W93480  30.075  26.461  10.641
32027W        W93481  30.572  21.586  13.050
32028W        W93482  14.797  44.877   4.693
32029W        W93483  32.442  36.917  11.421
32030W        W93484  37.578  23.228   4.620
32031W        W93485  40.943  21.630  12.980
32032W        W93486  21.131  27.603  13.937
32033W        W93487  31.432  11.819  14.295
32034W        W93488  10.226  27.021  11.941
32035W        W93489  13.651   0.945   4.754
32036W        W93490   4.771  44.785   4.629
32037W        W93491  32.520  31.449  14.319
32038W        W93492  42.394  32.107  12.992
32039W        W93493  18.571  22.136   1.287
32040W        W93494  32.113  36.034  14.878
32041W        W93495  31.561   7.320   3.177
32042W        W93496  29.155  15.139   2.899
32043W        W93497   4.760  11.795  14.796
32044W        W93498  40.841  26.578  14.898
32045W        W93499  36.002  33.595  11.574
32046W        W93500  42.809  42.838   1.365
32047W        W93501  41.968  42.478   2.340
32048W        W93502  12.748  42.021  14.343
32049W        W93503  20.556   6.185   3.857
32050W        W93504   2.932  11.647  13.454
32051W        W93505  36.569  31.917   4.805
32052W        W93506   1.736   2.234  13.385
32053W        W93507  42.466  34.909   3.671
32054W        W93508   1.743  42.426  10.457
32055W        W93509  44.471  44.426   0.958
32056W        W93510  16.786  29.005  12.509
32057W        W93511  10.201  38.993   1.855
32058W        W93512  12.276  25.079  11.060
32059W        W93513  22.573   0.418  12.942
32060W        W93514  15.205   8.262   1.367
32061W        W93515  28.944   6.693   1.818
32062W        W93516  34.386   8.285   3.664
32063W        W93517  40.313  21.257   1.847
32064W        W93518  39.971   0.394   3.265
32065W        W93519   3.851   4.316   3.814
32066W        W93520  26.089   3.710  14.430
32067W        W93521  36.396  26.140  13.802
32068W        W93522   6.262  28.614   0.788
32069W        W93523  22.685   8.228  13.371
32070W        W93524  33.612  40.980   2.707
32071W        W93525   8.211   4.702   3.170
32072W        W93526  31.620  34.995  10.091
32073W        W93527  22.618  25.507  14.018
32074W        W93528  28.510  44.941   0.806
32075W        W93529   1.363  43.309   3.653
32076W        W93530  29.985  23.113   4.305
32077W        W93531  18.783  11.169   3.672
32078W        W93532  32.119   0.460  14.324
32079W        W93533  17.142  11.662   3.730
32080W        W93534  15.084  38.445  10.592
32081W        W93535  31.630   6.412  10.951
32082W        W93536   0.268   8.868   0.956
32083W        W93537  27.542  21.169   1.713
32084W        W93538  37.509  36.454   0.786
32085W        W93539  12.790  13.193  11.990
32086W        W93540  19.152  44.976   2.283
32087W        W93541   5.711  19.568  13.511
32088W        W93542  37.931   0.916   0.288
32089W        W93543  25.213  43.822  12.554
32090W        W93544  15.119   3.905   4.317
32091W        W93545  34.405  26.640  13.044
32092W        W93546  31.574  20.101  11.036
32093W        W93547  19.046  39.338  11.023
32094W        W93548   9.157  23.628  11.900
32095W        W93549  39.466   0.358   3.355
32096W        W93550  19.053  41.297   2.215
32097W        W93551   6.366   4.756  14.318
32098W        W93552  27.509  13.751   1.735
32099W        W93553  15.756  29.498   4.249
32100W        W93554  12.621  43.355   0.750
32101W        W93555   5.238  38.945   2.388
32102W        W93556   0.840  28.611  14.832
32103W        W93557  19.651  35.405   3.184
32104W        W93558  10.746  26.093   0.285
32105W        W93559  22.631  22.166   0.861
32106W        W93560  15.734  13.309   5.214
32107W        W93561  43.949   0.409   1.789
32108W        W93562   7.803  28.084   2.742
32109W        W93563  28.604  29.525   0.875
32110W        W93564  13.786  36.361  12.932
32111W        W93565   3.230   3.413   3.728
32112W        W93566   4.912  35.445  12.014
32113W        W93567   2.315  31.456  13.959
32114W        W93568  32.488  30.989   0.967
32115W        W93569   2.721  43.337   4.302
32116W        W93570  19.664  19.195   0.759
32117W        W93571  23.649  22.611   0.755
32118W        W93572   0.854  31.483  13.043
32119W        W93573  20.255   8.724  12.084
32120W        W93574  44.795  14.625  12.395
32121W        W93575  15.663  11.828   4.629
32122W        W93576  35.457   6.708  14.471
32123W        W93577   8.381  23.059   0.243
32124W        W93578  40.454  39.051   4.167
32125W        W93579  39.966   7.183   4.303
32126W        W93580  17.605  28.660   4.624
32127W        W93581  33.918  13.708   9.944
32128W        W93582  35.408  43.437  13.332
32129W        W93583  15.212  38.444   3.736
32130W        W93584  37.060  40.905  12.550
32131W        W93585   7.855  42.464  14.802
32132W        W93586  14.113  40.824  13.033
32133W        W93587  16.212  39.507   4.164
32134W        W93588  44.859  32.918  13.906
32135W        W93589  32.098  30.135  13.546
32136W        W93590  18.215  12.664   5.082
32137W        W93591   7.293   2.374  13.433
32138W        W93592  33.461  39.438   3.215
32139W        W93593  41.891  39.863  12.016
32140W        W93594  22.017  10.713   9.963
32141W        W93595   8.854  42.998   4.809
32142W        W93596  35.370  22.506   1.329
32143W        W93597  36.478  10.216   2.895
32144W        W93598   9.806   0.968   2.353
32145W        W93599  43.981  15.665  12.513
32146W        W93600  15.088  14.262   3.386
32147W        W93601  35.052  31.548   0.302
32148W        W93602  34.064   9.647  13.473
32149W        W93603  24.222  39.368  11.044
32150W        W93604   2.292  28.623   4.312
32151W        W93605  10.782   4.782  12.362
32152W        W93606  13.657   0.339   2.298
32153W        W93607  22.047   2.436   1.438
32154W        W93608   1.975  32.970   4.348
32155W        W93609  32.455  31.051  12.425
32156W        W93610  12.220  24.593  13.825
32157W        W93611   8.387  18.175   3.844
32158W        W93612  15.108  43.291  11.990
32159W        W93613  25.473  15.287   1.432
32160W        W93614  15.189  19.064  12.838
32161W        W93615  31.105  33.031  10.471
32162W        W93616   2.313  27.643   0.456
32163W        W93617  19.537  16.771   2.327
32164W        W93618  12.201  40.881   1.378
32165W        W93619  19.534  19.093  12.960
32166W        W93620  36.927  38.837  11.441
32167W        W93621   1.463  38.062   3.691
32168W        W93622  14.656   4.940  13.941
32169W        W93623  37.573   6.777  10.898
32170W        W93624  42.375  29.091   0.834
32171W        W93625   1.953   3.215  10.532
32172W        W93626   2.307   8.319  11.985
32173W        W93627  26.672  26.675  11.102
32174W        W93628  30.625  19.639  10.634
32175W        W93629  42.410  23.514  14.377
32176W        W93630  35.977  17.566   3.252
32177W        W93631  25.714  23.152  11.871
32178W        W93632  20.685   1.337  11.550
32179W        W93633  40.954  20.593  11.037
32180W        W93634   7.706  30.985   3.774
32181W        W93635  23.208  24.488   2.245
32182W        W93636   1.968  12.154  12.071
32183W        W93637   7.308   8.250  14.424
32184W        W93638  44.490   7.695   2.179
32185W        W93639  27.593   4.349   1.342
32186W        W93640   1.340  19.566  10.455
32187W        W93641  43.378  27.087  14.416
32188W        W93642  39.055  41.528   0.313
32189W        W93643  40.854  44.438   0.394
32190W        W93644   8.830  17.150   1.444
32191W        W93645   5.244  34.990   3.221
32192W        W93646  36.565   1.896   0.961
32193W        W93647  42.473  40.519   1.295
32194W        W93648  40.847  11.739   3.684
32195W        W93649  43.448  11.372   0.293
32196W        W93650  28.532  35.378   4.746
32197W        W93651  38.880   3.824   2.367
32198W        W93652  42.459  29.969  11.425
32199W        W93653  41.516   3.908   0.297
32200W        W93654  11.252   3.773  14.836
32201W        W93655  16.096  35.975   0.952
32202W        W93656   7.802  44.826   0.347
32203W        W93657  11.720  27.130  13.852
32204W        W93658  27.980  42.968   0.827
32205W        W93659   4.741  33.555  14.910
32206W        W93660   8.319  14.693  14.492
32207W        W93661  44.856  23.164   1.756
32208W        W93662  23.542  20.631   0.481
32209W        W93663  30.653  39.930  11.947
32210W        W93664   6.781   4.703   4.621
32211W        W93665  41.370  43.357   0.906
32212W        W93666   1.806  20.708   0.445
32213W        W93667  44.369  17.771   4.686
32214W        W93668  31.075   8.729  14.797
32215W        W93669  34.460   6.729   0.759
32216W        W93670  40.425  13.749   4.625
32217W        W93671  22.119  42.346   4.829
32218W        W93672   4.237   6.919  11.076
32219W        W93673  11.725  22.718   4.782
32220W        W93674  25.142   7.216  14.372
32221W        W93675  30.433  44.868   4.223
32222W        W93676  10.167  25.161   4.711
32223W        W93677  39.926  22.246   4.294
32224W        W93678  42.391  19.645  11.117
32225W        W93679  18.790  12.675   3.744
32226W        W93680   6.715  16.087  12.872
32227W        W93681  24.619  11.814  13.855
32228W        W93682  26.164  30.557   2.814
32229W        W93683  19.050  42.431   3.675
32230W        W93684  23.190  42.011   0.400
32231W        W93685  11.821  21.643   0.314
32232W        W93686   0.322  40.845  14.436
32233W        W93687   5.286  34.523  11.546
32234W        W93688  19.575  21.677   2.286
32235W        W93689  40.045  35.388   0.745
32236W        W93690  43.308  16.757   4.295
32237W        W93691   4.803   2.275  12.443
32238W        W93692  20.624   3.773  14.942
32239W        W93693  20.574  41.429  11.558
32240W        W93694  16.225  12.117   1.401
32241W        W93695  11.742  29.015  11.997
32242W        W93696  31.002  28.634  13.874
32243W        W93697  31.499   6.871  11.531
32244W        W93698  16.664  43.334  13.823
32245W        W93699  14.233  25.566   2.843
32246W        W93700   5.834  12.850  13.349
32247W        W93701  38.987   2.372   0.925
32248W        W93702  12.119   5.271  11.865
32249W        W93703  32.992  26.660  10.893
32250W        W93704  42.852  32.116   1.775
32251W        W93705  44.314  44.972  10.433
32252W        W93706  28.929  27.161   2.403
32253W        W93707  38.336  33.485  12.478
32254W        W93708   8.748  24.581   3.386
32255W        W93709   8.224   3.807  13.829
32256W        W93710  26.117  41.966   0.884
32257W        W93711  21.637  34.524  13.934
32258W        W93712   1.477  36.439  13.516
32259W        W93713   2.822  34.601   2.278
32260W        W93714  38.336  16.711   2.706
32261W        W93715  20.550  16.275   0.346
32262W        W93716  11.361  41.426   2.295
32263W        W93717  35.995  37.037   2.825
32264W        W93718  37.525  37.537   1.842
32265W        W93719  26.107  37.440  11.456
32266W        W93720  28.660  33.993  12.528
32267W        W93721  14.590  13.828  12.058
32268W        W93722  15.734  39.808   2.387
32269W        W93723  24.042  11.284  14.295
32270W        W93724  44.271  29.075  11.119
32271W        W93725  32.439  17.712   4.808
32272W        W93726  35.862  42.909   2.877
32273W        W93727   8.862  19.536   1.260
32274W        W93728  32.482  41.877  12.985
32275W        W93729  36.894   3.306  13.349
32276W        W93730  24.709  14.761  12.387
32277W        W93731  15.273  44.946  11.935
32278W        W93732   7.243   5.435   1.357
32279W        W93733   8.377   4.353  11.034
32280W        W93734  23.724  43.886  11.103
32281W        W93735  40.922   0.909   1.380
32282W        W93736  42.803  41.509   3.196
32283W        W93737  34.540  42.788  10.907
32284W        W93738  39.046  30.468   4.807
32285W        W93739  32.485  38.831  13.528
32286W        W93740  42.384  39.327   1.270
32287W        W93741  33.418  10.700  14.024
32288W        W93742  28.027  29.948  13.998
32289W        W93743  28.578  35.464  14.811
32290W        W93744   6.921  30.997   1.445
32291W        W93745   9.754  17.593   4.191
32292W        W93746   4.800  19.769  14.967
32293W        W93747  40.000   8.811  10.586
32294W        W93748   2.306  23.025  10.928
32295W        W93749   2.357   4.705  11.505
32296W        W93750  34.479  15.717   2.743
32297W        W93751  28.934  43.302   1.357
32298W        W93752  41.907   9.841  13.371
32299W        W93753  38.981  36.942  12.941
32300W        W93754  38.973  15.198   4.304
32301W        W93755  24.077   4.295   3.754
32302W        W93756   0.753   8.884  12.364
32303W        W93757  42.794   6.426   4.324
32304W        W93758   4.739   7.187  10.046
32305W        W93759  28.650  44.963   1.784
32306W        W93760  40.392   5.712  13.461
32307W        W93761   8.279  41.469  14.339
32308W        W93762  39.537  24.673  14.342
32309W        W93763  36.480  31.431  11.101
32310W        W93764  19.724  37.546  12.566
32311W        W93765   8.867  29.503  14.514
32312W        W93766  15.600  35.554   0.440
32313W        W93767   2.940   3.916   2.741
32314W        W93768  16.208  29.145  12.471
32315W        W93769   4.855  20.527  12.864
32316W        W93770  40.397  27.126   3.358
32317W        W93771  19.125  31.446   1.239
32318W        W93772  44.998   6.407  14.422
32319W        W93773   3.860  36.865  14.446
32320W        W93774   7.235   5.355   2.178
32321W        W93775  36.973   3.277  12.916
32322W        W93776   5.815  15.219   0.800
32323W        W93777   3.741   6.404  13.473
32324W        W93778  39.947  36.552   2.853
32325W        W93779  41.002  23.124   3.168
32326W        W93780  26.106  40.961  14.468
32327W        W93781   0.451  41.490   4.288
32328W        W93782  18.181  30.453   1.377
32329W        W93783  18.589  26.062   4.771
32330W        W93784  15.750  25.594   4.339
32331W        W93785  39.062  15.577   4.141
32332W        W93786  37.957   0.434  11.971
32333W        W93787  36.398  15.816  10.119
32334W        W93788   5.371  33.131  10.571
32335W        W93789   8.708  11.733  13.386
32336W        W93790  16.275  16.078  10.952
32337W        W93791  42.468  43.463  12.570
32338W        W93792  32.902  18.201  11.972
32339W        W93793  14.263  17.798   1.919
32340W        W93794  43.430  40.432   0.746
32341W        W93795  37.509  18.559  14.924
32342W        W93796  19.666  39.509  12.070
32343W        W93797  31.974  29.076  12.949
32344W        W93798  38.037  41.436  11.120
32345W        W93799  28.007  23.531   1.441
32346W        W93800   7.905  27.564   4.184
32347W        W93801  28.950  17.591  10.505
32348W        W93802  20.194  13.118   4.665
32349W        W93803  36.416  31.913   3.735
32350W        W93804  30.988  29.973   4.243
32351W        W93805   9.779  38.969   1.818
32352W        W93806  16.633  29.626   1.866
32353W        W93807  26.658  34.956   3.335
32354W        W93808   9.339  34.044  12.977
32355W        W93809  15.720  11.225   0.837
32356W        W93810  42.816  30.093   1.796
32357W        W93811   8.698   1.390   0.851
32358W        W93812   4.884  16.732  10.045
32359W        W93813   3.924  40.991  14.511
32360W        W93814  12.226  14.694   0.835
32361W        W93815   9.781   1.261  13.441
32362W        W93816  24.157  41.976  12.884
32363W        W93817   5.728  15.621  10.615
32364W        W93818  35.963  27.093   4.216
32365W        W93819  41.005  42.942  11.856
32366W        W93820  41.298  38.568   0.289
32367W        W93821  36.435  36.407  14.419
32368W        W93822  14.193  26.504  10.521
32369W        W93823  33.489   1.838   1.218
32370W        W93824  19.758  15.593  12.864
32371W        W93825  13.135  17.723   0.251
32372W        W93826  39.381  33.578  10.002
32373W        W93827   5.410  15.614  14.878
32374W        W93828  25.969  16.081   2.686
32375W        W93829  32.998  14.722  11.543
32376W        W93830  20.720  30.490   0.837
32377W        W93831  23.079   3.877   1.892
32378W        W93832  18.066  17.098  12.851
32379W        W93833  35.977  28.470   3.204
32380W        W93834  23.115  10.162  10.147
32381W        W93835  28.575  17.763   1.391
32382W        W93836  42.905  32.437   3.321
32383W        W93837  43.489   9.341  12.442
32384W        W93838   3.907  15.180  10.632
32385W        W93839  34.971  12.322   3.156
32386W        W93840  23.173  13.745   1.237
32387W        W93841  14.807  39.514   1.821
32388W        W93842  43.328   4.865  14.800
32389W        W93843  25.478   5.714  14.786
32390W        W93844  36.950  13.137   1.327
32391W        W93845   6.267  29.436  11.531
32392W        W93846  40.510   9.644  14.444
32393W        W93847  26.061  39.971   3.676
32394W        W93848  21.733  40.379  11.585
32395W        W93849  35.907   5.799  11.090
32396W        W93850  30.580  27.166  10.963
32397W        W93851  42.336   5.773   3.256
32398W        W93852   8.657  13.638  13.379
32399W        W93853   5.693  13.214   3.358
32400W        W93854   3.766  23.669  11.999
32401W        W93855   7.888   9.315   1.859
32402W        W93856   1.965  16.742   1.749
32403W        W93857  19.693  36.906  13.001
32404W        W93858  19.198  14.683   0.886
32405W        W93859  33.491   4.929   3.153
32406W        W93860  24.076  38.390   1.275
32407W        W93861  38.413  38.893   3.250
32408W        W93862  10.714   5.220   4.279
32409W        W93863  16.627  10.648  13.940
32410W        W93864  28.970  17.606  11.485
32411W        W93865   0.409  33.438   0.768
32412W        W93866  23.684  21.240   4.753
32413W        W93867  27.033  33.889  11.936
32414W        W93868  31.429   3.344   4.130
32415W        W93869  23.539  17.575   0.844
32416W        W93870  23.693   2.428   2.807
32417W        W93871  40.027  14.787   4.617
32418W        W93872   0.290   3.838  10.508
32419W        W93873  30.915   1.430   4.771
32420W        W93874   4.241  33.602   2.282
32421W        W93875   0.312   0.481   0.406
32422W        W93876  16.685  44.926   2.355
32423W        W93877  17.761  13.787   0.900
32424W        W93878  35.512  36.863  11.923
32425W        W93879  14.330  35.997   4.613
32426W        W93880  43.835  16.293  13.826
32427W        W93881  24.715  42.392   0.268
32428W        W93882  21.121  13.111  13.908
32429W        W93883  16.204  21.560  11.914
32430W        W93884  10.167  36.916  13.329
32431W        W93885  39.007  29.644   4.611
32432W        W93886   3.354   2.322  14.991
32433W        W93887  25.634  28.653   0.383
32434W        W93888  37.548  30.608   3.146
32435W        W93889   4.933  39.051   4.792
32436W        W93890  35.482  29.081  11.869
32437W        W93891  43.508  43.877   1.840
32438W        W93892   9.224  31.619  14.284
32439W        W93893  16.206  40.011   5.668
32440W        W93894  33.419   4.774   4.716
32441W        W93895   5.295  35.037   3.663
32442W        W93896   5.247  29.518   4.137
32443W        W93897  31.575  36.526  10.535
32444W        W93898   8.295  34.507  13.931
32445W        W93899  35.884   5.736   1.797
32446W        W93900   4.314  23.231   1.846
32447W        W93901  36.550  23.605  12.838
32448W        W93902  20.226  33.437  14.926
32449W        W93903  40.003  21.516  12.558
32450W        W93904  25.075  36.410  10.984
32451W        W93905  19.636  41.900   4.754
32452W        W93906  22.605  24.605   3.708
32453W        W93907   9.656   7.328  11.066
32454W        W93908  21.518   6.272  13.391
32455W        W93909   2.323  12.725  14.987
32456W        W93910  29.015  14.775  12.445
32457W        W93911  35.983   0.337  14.940
32458W        W93912   3.827   0.756   3.314
32459W        W93913  19.736  41.012  12.013
32460W        W93914  35.077  38.860   1.252
32461W        W93915  15.311  10.683   1.841
32462W        W93916   5.281  29.638   3.264
32463W        W93917  32.578  32.106  12.366
32464W        W93918  23.657   0.936   1.231
32465W        W93919  23.085   1.442  13.989
32466W        W93920  39.829  42.383   1.389
32467W        W93921  39.002  43.480  14.861
32468W        W93922  27.050   0.427  14.371
32469W        W93923  15.706  19.535  13.318
32470W        W93924  40.938  44.317   1.443
32471W        W93925   7.849   3.891   0.951
32472W        W93926   7.670  21.525   4.260
32473W        W93927  22.234   2.403  14.861
32474W        W93928   8.655   1.307   1.850
32475W        W93929   4.412   6.254   4.280
32476W        W93930  30.992  28.577   0.824
32477W        W93931  23.568  23.201  14.279
32478W        W93932  20.627  13.206  14.403
32479W        W93933  36.492   2.463  14.993
32480W        W93934  38.999  44.480  14.899
32481W        W93935  43.324  26.638  13.468
32482W        W93936  18.618  32.493   4.677
32483W        W93937  27.963  31.441   2.191
32484W        W93938  19.749  40.377   0.354
32485W        W93939  39.026  26.687   2.233
32486W        W93940   4.240  40.862   0.828
32487W        W93941  42.813   1.435   1.404
32488W        W93942  34.466  15.645   1.789
32489W        W93943  44.268  40.038   0.278
32490W        W93944  30.085  31.966  13.866
32491W        W93945   8.402  23.134  13.955
32492W        W93946  37.545  30.095   1.361
32493W        W93947   7.208  43.777   3.651
32494W        W93948  16.618  17.128   4.767
32495W        W93949  41.350  43.869   1.874
32496W        W93950   8.890  35.956  13.910
32497W        W93951   4.329  36.031   3.791
32498W        W93952   2.245   3.403   2.394
32499W        W93953  32.030  13.266   0.728
32500W        W93954  33.430  12.277  11.999
32501W        W93955  23.057   9.226  12.852
32502W        W93956   0.393  44.929   2.695
32503W        W93957  13.752  28.507  14.785
32504W        W93958  31.093  32.937   1.703
32505W        W93959  17.073  15.116   4.610
32506W        W93960  23.153   6.383  11.494
32507W        W93961  14.183   7.869   1.933
32508W        W93962  43.487  32.937  12.019
32509W        W93963  10.694  13.671   1.869
32510W        W93964  29.424   1.780   0.290
32511W        W93965  28.166   7.899  11.089
32512W        W93966  37.930  22.616  13.424
32513W        W93967  19.217   4.285  14.443
32514W        W93968  27.119  19.640   2.861
32515W        W93969  19.755  10.754   5.242
32516W        W93970  31.031  42.903   0.430
32517W        W93971  28.501  22.737  14.347
32518W        W93972  37.996  18.255  14.870
32519W        W93973  20.060  43.811  11.975
32520W        W93974  12.265  40.335   0.364
32521W        W93975  20.270   4.839   0.905
32522W        W93976   5.407  17.646   3.726
32523W        W93977  30.907  26.484  14.943
32524W        W93978  36.924  29.492   0.739
32525W        W93979  37.544  24.480  11.089
32526W        W93980  14.621   2.402  10.626
32527W        W93981   1.248   2.367   0.773
32528W        W93982  21.570  44.434   0.466
32529W        W93983   2.349  43.002  14.393
32530W        W93984   4.816  17.663  11.114
32531W        W93985   3.907  15.667  10.161
32532W        W93986   8.369  37.511   4.656
32533W        W93987  41.530  38.338   0.886
32534W        W93988  21.151  43.438  14.411
32535W        W93989  13.805   5.878  14.276
32536W        W93990  13.666  28.551  13.421
32537W        W93991  23.012  43.009  12.466
32538W        W93992   3.780  18.094   0.966
32539W        W93993  33.104   2.787   4.637
32540W        W93994  17.603  20.549   2.290
32541W        W93995  37.025   6.342   1.256
32542W        W93996  15.712  12.811   0.458
32543W        W93997  28.109  35.056   0.929
32544W        W93998   1.809  21.120  10.997
32545W        W93999  20.176   4.410   1.236
32546W        W94000   7.827  33.444   1.317
32547W        W94001  27.068  17.667  12.573
32548W        W94002  18.610  16.115  13.836
32549W        W94003  39.035  24.539   0.783
32550W        W94004  40.003  29.520   1.714
32551W        W94005  39.388   8.701  14.488
32552W        W94006   1.423  21.565   0.747
32553W        W94007  40.813  38.564  12.535
32554W        W94008  33.455  31.930  10.983
32555W        W94009   4.357   0.792  12.059
32556W        W94010  43.969  37.391   2.235
32557W        W94011  18.188  35.947  13.352
32558W        W94012   4.761  33.986  11.934
32559W        W94013  43.491  35.014  14.764
32560W        W94014  15.257   2.441   3.771
32561W        W94015  16.805   0.419   4.833
32562W        W94016  10.804  38.059  14.339
32563W        W94017   2.901  33.897  13.338
32564W        W94018  30.151   6.368  12.975
32565W        W94019  29.066  26.574   3.671
32566W        W94020  38.493  32.577   1.771
32567W        W94021  17.306  44.962  11.596
32568W        W94022  17.253   8.722   1.839
32569W        W94023   2.903  40.946   2.402
32570W        W94024  44.759   1.741  13.022
32571W        W94025  26.090  26.665  10.467
32572W        W94026   2.849   8.680   3.828
32573W        W94027  39.422  36.537  14.822
32574W        W94028  18.688  35.969   4.341
32575W        W94029  10.853  26.685   3.633
32576W        W94030  33.892  40.954  14.412
32577W        W94031  41.791  38.008   2.246
32578W        W94032  34.934  39.486  11.927
32579W        W94033  19.554  37.010   1.780
32580W        W94034  38.960  35.557   4.632
32581W        W94035  23.205   2.290   3.169
32582W        W94036  30.053   0.907   0.857
32583W        W94037  20.222  39.433   1.252
32584W        W94038  13.818   5.856  14.993
32585W        W94039  27.542  22.652   9.938
32586W        W94040  30.440  27.481  10.945
32587W        W94041   6.885   2.442   1.442
32588W        W94042  21.529  37.379   1.781
32589W        W94043  43.816  28.062  10.485
32590W        W94044   9.755  25.072   2.834
32591W        W94045   3.909  22.681  11.453
32592W        W94046  20.188  39.038   0.743
32593W        W94047  41.458  43.424  11.470
32594W        W94048  24.983  29.934   4.287
32595W        W94049  21.076  31.557  12.056
32596W        W94050  37.406  21.540   4.331
32597W        W94051  37.833  30.969   4.152
32598W        W94052  26.663  37.910   4.325
32599W        W94053  42.413   9.825   3.185
32600W        W94054  40.453  26.180   1.903
32601W        W94055  25.991  20.038  13.999
32602W        W94056   5.764  29.489  13.432
32603W        W94057   9.845   1.857  14.884
32604W        W94058  26.683  30.031  10.404
32605W        W94059  17.724  38.074  10.894
32606W        W94060  25.062  42.865   4.271
32607W        W94061  27.005  38.459  13.471
32608W        W94062  28.437   2.282   1.722
32609W        W94063  38.884  36.954  10.108
32610W        W94064  20.676  23.041  11.923
32611W        W94065  10.254  36.850   3.356
32612W        W94066  32.528  18.631   2.796
32613W        W94067  22.091  31.624   0.476
32614W        W94068  43.482   5.251   0.264
32615W        W94069  27.583  16.257   2.663
32616W        W94070  24.588  23.039  14.349
32617W        W94071  34.112  32.585  14.770
32618W        W94072  40.430  13.299   4.832
32619W        W94073  24.109  40.429  11.096
32620W        W94074  33.391  38.454   4.821
32621W        W94075  44.505  21.047  12.876
32622W        W94076  31.081  16.603   3.277
32623W        W94077  33.976   0.438  14.022
32624W        W94078  32.428  35.562  10.955
32625W        W94079  24.498  10.285   0.350
32626W        W94080  37.061   1.346   3.374
32627W        W94081  12.324  41.527  11.935
32628W        W94082  37.462  14.320   0.333
32629W        W94083  24.127  24.989  10.409
32630W        W94084  16.090  29.047   3.751
32631W        W94085  36.850  19.765   3.800
32632W        W94086  29.111  25.671  11.067
32633W        W94087  24.531  18.667  13.924
32634W        W94088   2.880  19.672  12.078
32635W        W94089   7.680   9.715  14.389
32636W        W94090  38.337  20.227  11.019
32637W        W94091  17.157  32.049   5.308
32638W        W94092   2.809  37.433   1.881
32639W        W94093   2.442  34.035   4.128
32640W        W94094  26.572  24.997   3.148
32641W        W94095  36.013  38.927  14.471
32642W        W94096  40.337   3.457   4.605
32643W        W94097  24.694  41.352   1.806
32644W        W94098  26.580  32.050  12.027
32645W        W94099   8.187  20.236   0.945
32646W        W94100  41.884  34.070  12.510
32647W        W94101  10.144   9.810   1.380
32648W        W94102  17.620  11.331   9.963
32649W        W94103  17.768  41.461   4.774
32650W        W94104  24.137  10.789  11.888
32651W        W94105  22.132  22.667   3.347
32652W        W94106  36.863  38.830  13.800
32653W        W94107  23.989   2.463   4.703
32654W        W94108  38.926  17.654  12.992
32655W        W94109  29.620  33.917   3.162
32656W        W94110  11.729   2.814   2.773
32657W        W94111  13.268   3.414   4.219
32658W        W94112  20.072  13.218  12.926
32659W        W94113  22.658  23.661  14.787
32660W        W94114  17.179  41.024  12.425
32661W        W94115  41.913  41.394  14.346
32662W        W94116  18.645  37.537  13.933
32663W        W94117   6.258  35.861  14.786
32664W        W94118  28.490  39.325   1.933
32665W        W94119  35.023  29.436  14.448
32666W        W94120  31.438  19.752   2.890
32667W        W94121  27.028   4.826  10.554
32668W        W94122   1.927   5.412  11.002
32669W        W94123  16.171  44.396   1.784
32670W        W94124  13.217  24.493  13.028
32671W        W94125  43.799   6.411  14.997
32672W        W94126  44.828  16.077   3.747
32673W        W94127  42.463  41.796   0.768
32674W        W94128   6.223  35.528   4.834
32675W        W94129  22.033  30.106  13.799
32676W        W94130   2.909   3.362   2.766
32677W        W94131  30.031   8.369   9.994
32678W        W94132  19.065  44.809  13.375
32679W        W94133  21.749  10.352  11.887
32680W        W94134  27.458  32.019   9.959
32681W        W94135   9.184  21.121   4.193
32682W        W94136  31.126   8.832   4.289
32683W        W94137  33.610  24.072  14.955
32684W        W94138  39.480  19.719  14.505
32685W        W94139   2.267   9.351  12.987
32686W        W94140  18.053  34.525  10.596
32687W        W94141  37.337   3.772   2.378
32688W        W94142  24.676   0.967   2.776
32689W        W94143  39.471  34.390  12.947
32690W        W94144   2.341  40.978   1.724
32691W        W94145   0.753  41.947  11.023
32692W        W94146  23.629   9.184  14.976
32693W        W94147  44.416   4.330   3.670
32694W        W94148  36.591  43.515   0.913
32695W        W94149  19.249  43.989   4.177
32696W        W94150   2.791   8.361  14.378
32697W        W94151  30.147  28.560  14.294
32698W        W94152   6.878  24.229  12.053
32699W        W94153  23.718  20.536  10.503
32700W        W94154  40.943  34.948   4.114
32701W        W94155  23.651   2.762  10.622
32702W        W94156  13.737  19.766   3.654
32703W        W94157  19.600   0.791   1.849
32704W        W94158   6.316  35.956  13.499
32705W        W94159  10.697  28.472   0.389
32706W        W94160  36.076  27.106  13.920
32707W        W94161  34.523   1.381  13.486
32708W        W94162   0.447   0.873   1.446
32709W        W94163  19.562  38.824  11.016
32710W        W94164  14.599  18.683  14.308
32711W        W94165   1.374  44.809   0.840
32712W        W94166  21.571  22.082  14.989
32713W        W94167  24.582  36.091   0.949
32714W        W94168  10.773  32.489  13.423
32715W        W94169  27.481  36.371   3.785
32716W        W94170  14.728   4.938  14.955
32717W        W94171  30.956  41.838  10.522
32718W        W94172   4.855  33.945  10.406
32719W        W94173  33.054  38.003   3.286
32720W        W94174  37.355  44.280   5.223
32721W        W94175  16.136  29.990  11.536
32722W        W94176  38.835  42.521  14.413
32723W        W94177  12.327   2.955  12.565
32724W        W94178  30.597  15.775  12.422
32725W        W94179  10.170  28.533  11.960
32726W        W94180  27.993  27.489  11.026
32727W        W94181  14.099  11.860   0.263
32728W        W94182  43.439  38.830  13.016
32729W        W94183   0.903  44.920   3.193
32730W        W94184  10.832  10.176   4.121
32731W        W94185  44.789  41.487  10.959
32732W        W94186   5.424   4.909  12.349
32733W        W94187  30.535  14.726   0.929
32734W        W94188  35.373  43.868   2.292
32735W        W94189   8.175   0.440  13.466
32736W        W94190  23.493  24.624   4.251
32737W        W94191  25.156   2.820  10.423
32738W        W94192  40.862   9.298  11.456
32739W        W94193  14.105  29.052   0.316
32740W        W94194   6.719   2.349  14.288
32741W        W94195   6.354  26.105  14.007
32742W        W94196  43.272  37.001  13.480
32743W        W94197  21.602  13.267  12.026
32744W        W94198   3.390  28.648   0.939
32745W        W94199  26.952  18.617   2.268
32746W        W94200  16.159  43.365   1.738
32747W        W94201  22.995  34.878   4.824
32748W        W94202  18.760  28.028  13.503
32749W        W94203  44.779  42.509  14.514
32750W        W94204   4.770  23.146   1.255
32751W        W94205  26.645  22.020   1.805
32752W        W94206  34.058  42.466   3.814
32753W        W94207  35.532  11.216  10.460
32754W        W94208  39.978  27.595  11.577
32755W        W94209   6.378   5.381   3.373
32756W        W94210  26.518  22.693   1.774
32757W        W94211  21.635  32.485  10.550
32758W        W94212   7.412  12.153   0.899
32759W        W94213  36.881  36.435  10.492
32760W        W94214  40.053  16.235   0.391
32761W        W94215  11.840  14.180   2.771
32762W        W94216  19.580  31.993  12.841
32763W        W94217   5.931   7.243   1.339
32764W        W94218  10.369  30.146   1.765
32765W        W94219  17.797  23.704  12.903
32766W        W94220  27.633   1.744  11.989
32767W        W94221  41.940   8.298  13.314
32768W        W94222   8.816  36.352   1.895
32769W        W94223  13.221  11.197   0.741
32770W        W94224  37.005  34.976  10.954
32771W        W94225  12.358  21.038  12.977
32772W        W94226  31.933  37.373   0.445
32773W        W94227  40.018  38.517  13.988
32774W        W94228  41.845  20.590   2.827
32775W        W94229  16.226  21.692   1.719
32776W        W94230  44.912  42.783   2.797
32777W        W94231  11.761  27.950  14.320
32778W        W94232  42.398  23.630   0.945
32779W        W94233  36.876  24.532  12.474
32780W        W94234  26.636  14.198   0.842
32781W        W94235  31.626   5.232  10.420
32782W        W94236  37.507  39.554   1.902
32783W        W94237  24.627   7.229   0.401
32784W        W94238  37.454  14.589   2.348
32785W        W94239  30.030  30.088  11.385
32786W        W94240  38.009  30.630   9.923
32787W        W94241  39.809  14.647   2.790
32788W        W94242   9.755  14.164   1.703
32789W        W94243   5.397  34.397  14.914
32790W        W94244  31.637  13.790   5.114
32791W        W94245   5.756  44.872   1.897
32792W        W94246   3.920  44.773   0.901
32793W        W94247  26.052  36.884   3.269
32794W        W94248  17.563  41.535   2.347
32795W        W94249  31.961  23.547  13.877
32796W        W94250  27.524  20.177   2.764
32797W        W94251  22.713  15.116  13.847
32798W        W94252   7.801  36.941   2.663
32799W        W94253   7.683  24.009  14.921
32800W        W94254  25.587  29.441  14.032
32801W        W94255  23.498  18.780  13.962
32802W        W94256   2.369  43.765  11.436
32803W        W94257  17.180  42.913  11.599
32804W        W94258  33.032  22.096  12.386
32805W        W94259  43.303  35.042   4.750
32806W        W94260  21.539   7.266   0.339
32807W        W94261  22.505   4.236  13.010
32808W        W94262  34.110  15.277   1.352
32809W        W94263   3.271  21.550  11.032
32810W        W94264  19.110  36.868  10.456
32811W        W94265  24.990   7.766   4.653
32812W        W94266  37.544  35.478  11.600
32813W        W94267  35.083  38.027  13.855
32814W        W94268   8.205   8.357  10.441
32815W        W94269   9.865  30.636   0.470
32816W        W94270  18.051  30.972   4.658
32817W        W94271  21.592   2.255   1.264
32818W        W94272  28.541  22.131   1.900
32819W        W94273  13.252  32.582  11.541
32820W        W94274   9.363  20.098  10.903
32821W        W94275   2.472  41.350   0.355
32822W        W94276   4.215   7.356   1.390
32823W        W94277  44.865  27.505   4.829
32824W        W94278  20.662  37.927   1.398
32825W        W94279   5.889  11.289  14.482
32826W        W94280  28.649  34.113  13.916
32827W        W94281  30.511  10.356   9.581
32828W        W94282  33.625  20.637   2.194
32829W        W94283  43.921  16.650   3.671
32830W        W94284  11.370  12.344   1.392
32831W        W94285  28.976  25.620  13.855
32832W        W94286  34.601   1.862  12.367
32833W        W94287  18.264  30.626   0.335
32834W        W94288  24.181  28.138   4.657
32835W        W94289   2.328  22.742  12.378
32836W        W94290  18.282  10.707  10.558
32837W        W94291  28.178  42.414   4.223
32838W        W94292  41.868  18.745   0.878
32839W        W94293  14.292   6.788   4.329
32840W        W94294   5.761  30.923  14.001
32841W        W94295  38.026  26.633  11.473
32842W        W94296   7.868  31.603  14.291
32843W        W94297   9.649  20.247  11.403
32844W        W94298  31.618  21.642  13.938
32845W        W94299   1.768  34.891  14.330
32846W        W94300  33.045  35.000  13.475
32847W        W94301  35.534  43.426   2.753
32848W        W94302   5.909   6.887   2.706
32849W        W94303  21.212  27.163  12.928
32850W        W94304  38.878  32.456   2.267
32851W        W94305  12.761   4.290   4.274
32852W        W94306  16.628  30.426   2.278
32853W        W94307   7.227  38.555  13.842
32854W        W94308  28.039  37.501  13.917
32855W        W94309  38.545  25.573   2.378
32856W        W94310  11.220  30.539  11.396
32857W        W94311  21.728  15.130   2.330
32858W        W94312  22.084   5.916  14.851
32859W        W94313  10.330  17.762   3.753
32860W        W94314  29.925   3.425   0.280
32861W        W94315   0.779  11.677  11.568
32862W        W94316  36.968   7.179  13.805
32863W        W94317   5.325  27.579   0.832
32864W        W94318  40.998   4.921  13.844
32865W        W94319  15.581  38.863   0.289
32866W        W94320  36.034   5.409   2.195
32867W        W94321   8.385  25.031  10.933
32868W        W94322  40.042  10.347   2.331
32869W        W94323  25.153  26.102  14.807
32870W        W94324  11.307  41.918   0.920
32871W        W94325  33.470  23.240   4.717
32872W        W94326  24.111  25.218   0.401
32873W        W94327  17.116  42.315  12.075
32874W        W94328   0.370  11.320  10.478
32875W        W94329  18.103   9.750  10.613
32876W        W94330   9.870   9.866   0.951
32877W        W94331  20.725  11.343  11.460
32878W        W94332  22.590  42.432   2.745
32879W        W94333  17.273  21.748   0.807
32880W        W94334  17.248  40.453   3.714
32881W        W94335  10.382   4.368   3.709
32882W        W94336  13.342  27.079  11.091
32883W        W94337   3.377  15.086  11.859
32884W        W94338  20.212  14.610   1.445
32885W        W94339  22.558  19.249  11.012
32886W        W94340  35.478  16.209   0.263
32887W        W94341   5.270  36.526  13.956
32888W        W94342  31.579  35.533   2.663
32889W        W94343  39.473  24.067  11.121
32890W        W94344   7.231   6.911  14.926
32891W        W94345  27.035   3.868  12.873
32892W        W94346  26.133  24.104   1.819
32893W        W94347   3.730  39.850   0.328
32894W        W94348  40.456  33.074   2.201
32895W        W94349  27.665   3.268  11.608
32896W        W94350  10.710  13.175  10.613
32897W        W94351  14.292  31.574  13.998
32898W        W94352  38.061  42.880  14.016
32899W        W94353  17.213  20.577   4.626
32900W        W94354   7.286  29.568   2.860
32901W        W94355  15.137  15.717  12.367
32902W        W94356  13.700  31.587   4.672
32903W        W94357  44.981  29.534  13.869
32904W        W94358   6.302  25.206   1.836
32905W        W94359   8.764  28.100  10.626
32906W        W94360   3.242  29.948  13.031
32907W        W94361  18.717  37.997  13.835
32908W        W94362  24.028  42.451   4.246
32909W        W94363  19.201  24.032  14.835
32910W        W94364  31.011  30.472  13.376
32911W        W94365  29.127  24.534  13.323
32912W        W94366   0.970  44.925  11.434
32913W        W94367  18.628   4.423  12.833
32914W        W94368  33.092  21.194   4.252
32915W        W94369  43.389  26.021   2.768
32916W        W94370   6.875  39.359  14.478
32917W        W94371   3.234  14.212   2.859
32918W        W94372   1.395  34.900   2.369
32919W        W94373  39.457  14.777  12.044
32920W        W94374   2.234  15.256   3.263
32921W        W94375  31.417  43.812  13.029
32922W        W94376  28.566  28.107   1.402
32923W        W94377  12.237   6.785  14.946
32924W        W94378   2.339   4.767   0.354
32925W        W94379   4.308  27.687   0.328
32926W        W94380  36.448  16.781   3.301
32927W        W94381  12.666  36.581   1.249
32928W        W94382  37.869  28.533   3.675
32929W        W94383  16.190   1.337  10.615
32930W        W94384   1.776   3.911  14.767
32931W        W94385  17.211  31.065   3.364
32932W        W94386  23.198  29.985  14.013
32933W        W94387  20.233  26.530   1.394
32934W        W94388  11.653  16.731  12.083
32935W        W94389  27.145  26.151   3.214
32936W        W94390   0.340   3.324  14.975
32937W        W94391  10.335   7.390  11.926
32938W        W94392  24.122  31.907   4.344
32939W        W94393  33.506   3.340   0.356
32940W        W94394   0.875   4.800  11.015
32941W        W94395  25.109  10.669   4.812
32942W        W94396  11.360  26.638  13.506
32943W        W94397   8.705  15.269  12.089
32944W        W94398  43.832  42.513  12.564
32945W        W94399  12.613  33.961  12.361
32946W        W94400  34.977  23.711   0.250
32947W        W94401  15.806   1.732   2.368
32948W        W94402  38.477  19.081   2.334
32949W        W94403   4.431  23.135  14.299
32950W        W94404  42.368  28.442  10.529
32951W        W94405  11.323  34.403   0.339
32952W        W94406  38.889  34.894   3.275
32953W        W94407  35.489  20.692   3.720
32954W        W94408   4.878  34.526   3.337
32955W        W94409  43.984  39.396  12.871
32956W        W94410  38.828   8.179   0.344
32957W        W94411  29.029  12.317   0.928
32958W        W94412   9.212  40.305  10.404
32959W        W94413  39.847   7.275  11.525
32960W        W94414   5.916  26.467   3.303
32961W        W94415  41.004   5.773   0.436
32962W        W94416  22.603  24.502  14.290
32963W        W94417  22.603  35.868   4.304
32964W        W94418  18.663  41.455  10.588
32965W        W94419  11.751  28.179   1.891
32966W        W94420  24.690  30.126   4.285
32967W        W94421   8.775  32.616   1.739
32968W        W94422  39.934  36.351   2.390
32969W        W94423  26.081  41.504  12.859
32970W        W94424  10.184  18.599  14.959
32971W        W94425  17.596   1.879   1.400
32972W        W94426  20.755  44.868   0.338
32973W        W94427  15.182  23.101   1.297
32974W        W94428  35.592  34.051  14.945
32975W        W94429  21.561  22.247   4.727
32976W        W94430   8.169   8.682  12.559
32977W        W94431   1.849   1.371   2.842
32978W        W94432  21.180  31.640   1.829
32979W        W94433  16.082  41.501   1.751
32980W        W94434  25.087  13.635   1.322
32981W        W94435  38.823  39.934  11.916
32982W        W94436  29.432  18.159   1.433
32983W        W94437  21.066   6.790   2.369
32984W        W94438  11.348  42.501   4.631
32985W        W94439  40.011  26.021  11.378
32986W        W94440  31.431  12.763   3.850
32987W        W94441  44.848  29.667  11.002
32988W        W94442  32.946   9.676   3.264
32989W        W94443  27.144  30.913   5.659
32990W        W94444  32.556  19.655  11.892
32991W        W94445   0.973  28.156  11.543
32992W        W94446  16.730  42.412   4.296
32993W        W94447  20.229  30.155  11.453
32994W        W94448  10.816  10.222   4.825
32995W        W94449   0.346  40.852   3.642
32996W        W94450  25.538  36.973   2.250
32997W        W94451  36.565  20.164  14.342
32998W        W94452  15.592  17.619  14.464
32999W        W94453  32.481  35.106  10.404
33000W        W94454  38.874  12.636   3.745
33001W        W94455  19.110   1.767   1.921
33002W        W94456  43.798  22.695  13.944
33003W        W94457  40.988   8.747   2.216
33004W        W94458  23.208  23.228  10.630
33005W        W94459  43.501  25.093  12.912
33006W        W94460  22.679   2.388  14.844
33007W        W94461   2.877  20.636  14.843
33008W        W94462  29.016  19.638  13.924
33009W        W94463  35.000  34.605  13.999
33010W        W94464  16.741  38.347  13.534
33011W        W94465   2.436  12.630   4.787
33012W        W94466  20.730   6.846   1.931
33013W        W94467  12.170  23.713   3.190
33014W        W94468   1.916  12.138  10.990
33015W        W94469   4.877  27.968   2.697
33016W        W94470   9.380  11.216  13.884
33017W        W94471   1.274  38.963   0.909
33018W        W94472  12.292  18.123   9.533
33019W        W94473  31.923  27.508   4.135
33020W        W94474  23.615  30.121  11.118
33021W        W94475  11.712  30.983  12.901
33022W        W94476  25.639  35.020   0.793
33023W        W94477   8.771   7.867  14.485
33024W        W94478   0.840  42.445   3.245
33025W        W94479  24.664  29.575   2.244
33026W        W94480  16.220  34.553   0.762
33027W        W94481  27.689  41.514   1.929
33028W        W94482  30.544  32.455   0.741
33029W        W94483  34.596  11.321   0.289
33030W        W94484  35.921  10.838  13.467
33031W        W94485  29.491  14.827  11.093
33032W        W94486  14.332  44.774  10.635
33033W        W94487  37.974   8.373  14.760
33034W        W94488  34.389   4.448  13.336
33035W        W94489  19.104  18.277  13.352
33036W        W94490  37.550   2.847   0.861
33037W        W94491  23.681  22.189   1.709
33038W        W94492  42.841  26.597  13.454
33039W        W94493   8.231  29.055  14.480
33040W        W94494  36.892  24.603   4.237
33041W        W94495  20.629  25.971  12.576
33042W        W94496  24.640  25.115   4.758
33043W        W94497   3.369  27.580  10.458
33044W        W94498  19.254  43.407   4.347
33045W        W94499  36.414  21.097   2.689
33046W        W94500  16.103   5.256   4.194
33047W        W94501  22.709  41.790  13.004
33048W        W94502  10.827  17.717   3.299
33049W        W94503  27.548  21.087   3.348
33050W        W94504  13.262  35.872  12.046
33051W        W94505  26.491  12.820   4.762
33052W        W94506  20.648  14.602   2.867
33053W        W94507  15.143  20.267  12.515
33054W        W94508  27.080  17.646   3.764
33055W        W94509  16.796  19.173  14.383
33056W        W94510  39.046   2.438  13.898
33057W        W94511  26.014  32.112   0.386
33058W        W94512  25.647  43.923   3.316
33059W        W94513  28.945  29.048   0.751
33060W        W94514  29.156  26.033  13.390
33061W        W94515  36.033  23.193  12.426
33062W        W94516  38.548  30.064  12.398
33063W        W94517  14.301  38.848   2.344
33064W        W94518   2.961   3.782   1.718
33065W        W94519  31.975  38.410  14.407
33066W        W94520  30.585  25.708  12.377
33067W        W94521  11.211  39.431   4.279
33068W        W94522   9.664  17.126  11.414
33069W        W94523  25.525  11.629   4.631
33070W        W94524  36.895  11.176  13.867
33071W        W94525  15.278  39.366   1.924
33072W        W94526  38.069  21.066   2.771
33073W        W94527  40.841  33.514   4.673
33074W        W94528  13.325  32.482   4.750
33075W        W94529  18.160   8.231  10.541
33076W        W94530  32.133   2.726  12.986
33077W        W94531  38.861  29.542  11.593
33078W        W94532  18.758   3.363  12.409
33079W        W94533  12.304   0.313   1.917
33080W        W94534  37.848  32.403  10.583
33081W        W94535  31.110   0.318  10.573
33082W        W94536  20.069  36.083  12.532
33083W        W94537  27.487   2.803   1.221
33084W        W94538  31.919   0.750  13.451
33085W        W94539   1.272   2.823   4.704
33086W        W94540  19.704  42.859   4.811
33087W        W94541  38.883   4.227   4.762
33088W        W94542   5.779  11.719  12.061
33089W        W94543  30.625  18.233   0.751
33090W        W94544   2.309  13.834  13.987
33091W        W94545  35.509   9.818  14.400
33092W        W94546  29.585  41.005   1.225
33093W        W94547  39.541  41.821   4.760
33094W        W94548  33.120  14.829   9.656
33095W        W94549   7.796  35.893  12.845
33096W        W94550  18.606   9.164  11.993
33097W        W94551  15.672  11.191  12.563
33098W        W94552  15.263  29.451   2.712
33099W        W94553  16.791  22.628  14.852
33100W        W94554  43.958  34.874   3.344
33101W        W94555  41.885  19.573  10.476
33102W        W94556  16.251  20.218  13.996
33103W        W94557  37.356  26.993  11.033
33104W        W94558  22.072  26.679  14.459
33105W        W94559  37.916  29.990  11.551
33106W        W94560  18.585   0.966   2.869
33107W        W94561   3.845  44.972  11.387
33108W        W94562  27.124   0.940   0.885
33109W        W94563   0.405  22.560   4.343
33110W        W94564  10.682  31.047   3.684
33111W        W94565  17.740  39.314   2.809
33112W        W94566   0.870  26.557  12.067
33113W        W94567  12.620  27.650  14.343
33114W        W94568  18.603  33.384  14.008
33115W        W94569   1.239   0.986   1.810
33116W        W94570   1.776  24.087  10.478
33117W        W94571  13.303  42.953   4.115
33118W        W94572  24.602  17.149  13.792
33119W        W94573  14.588  39.825  11.549
33120W        W94574  12.166  40.351   5.630
33121W        W94575  40.314  20.240  11.580
33122W        W94576  42.363   8.399   1.852
33123W        W94577  43.841   7.909   2.343
33124W        W94578   1.411  19.251   2.707
33125W        W94579   7.710   3.740  11.072
33126W        W94580  10.776  38.970   4.205
33127W        W94581   5.811  13.244  13.923
33128W        W94582  39.313  35.010  13.310
33129W        W94583   5.769  14.173  13.987
33130W        W94584  44.431  44.944   0.364
33131W        W94585  21.527  38.545   0.260
33132W        W94586  18.738  29.461  10.645
33133W        W94587  44.259   6.710   4.352
33134W        W94588   9.821  29.975  14.409
33135W        W94589  34.540  33.414   2.299
33136W        W94590   8.293  33.401   2.871
33137W        W94591  11.720  32.141  14.515
33138W        W94592  35.034   4.739   0.890
33139W        W94593  24.066  26.469  10.126
33140W        W94594  15.239  25.140  13.972
33141W        W94595  42.483   2.814   0.360
33142W        W94596  40.922  16.639  14.345
33143W        W94597  23.107  31.150  13.863
33144W        W94598   3.836  10.683  14.443
33145W        W94599   8.211  12.131   2.878
33146W        W94600   9.663  29.990  11.085
33147W        W94601  19.701  21.152   4.781
33148W        W94602  29.482  10.236   3.297
33149W        W94603  29.158  30.148   4.163
33150W        W94604  13.828  34.969  12.529
33151W        W94605  40.451  26.007  10.464
33152W        W94606   0.936  27.011  14.333
33153W        W94607  40.925  11.788  11.073
33154W        W94608  34.873  22.057  12.928
33155W        W94609  37.900  39.346   0.842
33156W        W94610   3.219  37.393   3.789
33157W        W94611   3.420  34.476  10.044
33158W        W94612  34.024   5.396   0.758
33159W        W94613  20.670   9.861  10.459
33160W        W94614  28.450   7.832  14.346
33161W        W94615  19.255  23.629  11.394
33162W        W94616  43.420  22.504  11.106
33163W        W94617  34.958   4.378   1.232
33164W        W94618  30.965  30.443   5.124
33165W        W94619  26.147  30.427  13.826
33166W        W94620  39.826  17.253   4.677
33167W        W94621  31.521  37.919  13.508
33168W        W94622  37.869   9.219   1.284
33169W        W94623  43.020   3.713   0.451
33170W        W94624  44.359   9.858   9.961
33171W        W94625   0.908  10.381  10.158
33172W        W94626   1.439   3.457   3.251
33173W        W94627  28.935  44.968   2.249
33174W        W94628   8.232   5.280  13.473
33175W        W94629  28.573  31.985   3.292
33176W        W94630  43.443  10.782   4.187
33177W        W94631  35.500  19.704  12.945
33178W        W94632  42.478  36.864  14.816
33179W        W94633  38.496   9.223   2.198
33180W        W94634   0.857  41.395  10.525
33181W        W94635  20.058  43.806   4.206
33182W        W94636   5.339  10.645   0.873
33183W        W94637  29.111  41.870  12.032
33184W        W94638  23.186  10.643   0.412
33185W        W94639  38.381  32.524   0.891
33186W        W94640  22.248  43.347   0.359
33187W        W94641   0.864  13.789  12.833
33188W        W94642   1.758  14.288   5.259
33189W        W94643  12.326   1.911  13.378
33190W        W94644  44.285  37.057   3.175
33191W        W94645  18.081  44.958   3.234
33192W        W94646  39.015  14.107   2.316
33193W        W94647  40.053  32.431   0.930
33194W        W94648   0.255  32.446  14.315
33195W        W94649  23.115  38.954  13.308
33196W        W94650  26.000  10.665  13.338
33197W        W94651  30.610   0.841  13.965
33198W        W94652   0.917  23.720   3.682
33199W        W94653  22.620  43.494  14.513
33200W        W94654  41.810  40.473  12.567
33201W        W94655  11.349  42.960   9.973
33202W        W94656  27.989  44.973   4.187
33203W        W94657  22.664  15.228   3.804
33204W        W94658   4.816  25.179   0.943
33205W        W94659  27.987   0.925   2.756
33206W        W94660  38.950  24.090   4.280
33207W        W94661  39.480  38.858   4.782
33208W        W94662   9.248   7.237  12.432
33209W        W94663  33.938  43.378   1.802
33210W        W94664  20.126  15.120  12.474
33211W        W94665   0.851  25.677   3.731
33212W        W94666  26.514   1.952   2.229
33213W        W94667  33.050  12.631   0.832
33214W        W94668  28.033  16.173  10.939
33215W        W94669  15.586  10.641   5.791
33216W        W94670  36.564  16.803   2.734
33217W        W94671  29.544  42.806   2.668
33218W        W94672  19.739   8.666   2.704
33219W        W94673  15.686  44.974   3.834
33220W        W94674   7.764  24.642   0.736
33221W        W94675  40.805   0.812  11.587
33222W        W94676  23.574  23.600  12.394
33223W        W94677   6.768   0.913  10.562
33224W        W94678   2.367  20.655   0.470
33225W        W94679  44.353  34.524  11.522
33226W        W94680  14.750  36.494   2.410
33227W        W94681  19.624  21.163  12.579
33228W        W94682  16.147  33.049  14.946
33229W        W94683  37.418  26.650  11.881
33230W        W94684  24.007  33.109  11.574
33231W        W94685  33.108  29.039  12.071
33232W        W94686  34.867  12.154  12.914
33233W        W94687  36.024  18.790  13.936
33234W        W94688  43.419  22.006  13.408
33235W        W94689  20.178  22.719  13.856
33236W        W94690  30.132  37.534  10.904
33237W        W94691  12.704  26.200   1.715
33238W        W94692  25.086   9.876  14.828
33239W        W94693  43.907  17.220  12.518
33240W        W94694  41.367  15.783  14.429
33241W        W94695  16.679  37.889  10.976
33242W        W94696  10.659  34.891   4.327
33243W        W94697  31.958  42.840   1.450
33244W        W94698   4.358  24.023  13.872
33245W        W94699  26.638  33.966  11.572
33246W        W94700   8.883  18.565  13.821
33247W        W94701  34.012  22.592   4.713
33248W        W94702   5.929   4.429   2.673
33249W        W94703  29.157  31.904  13.934
33250W        W94704  27.559  35.039  11.021
33251W        W94705   1.828  10.751  10.970
33252W        W94706  26.524   5.915  13.378
33253W        W94707   6.768  31.941  13.942
33254W        W94708  27.642  41.325   0.787
33255W        W94709   5.837  25.080  11.566
33256W        W94710   9.179  38.953  10.025
33257W        W94711  27.133   2.379   3.269
33258W        W94712  15.178   2.784  11.905
33259W        W94713  39.811  32.470  12.465
33260W        W94714  34.508  36.929   0.413
33261W        W94715   4.866  21.550  11.957
33262W        W94716  23.620  17.304  14.433
33263W        W94717  40.523   6.696  12.028
33264W        W94718  16.769  33.616   1.737
33265W        W94719  20.165  43.284  14.405
33266W        W94720  14.625  23.693  11.993
33267W        W94721   5.317  30.938  10.416
33268W        W94722  20.194  12.318  12.014
33269W        W94723  29.636  28.593   0.735
33270W        W94724  17.740  33.886  14.480
33271W        W94725  20.097  24.521  10.639
33272W        W94726  13.179   2.369  11.007
33273W        W94727   8.339  16.717  11.960
33274W        W94728  29.623  36.376   3.222
33275W        W94729   5.333  32.130   0.260
33276W        W94730   2.950   2.924  10.434
33277W        W94731   0.877  36.459  12.023
33278W        W94732  31.565  44.418  12.984
33279W        W94733   2.352  21.738  10.419
33280W        W94734  39.533  27.991   3.729
33281W        W94735  37.470  34.483   3.268
33282W        W94736   8.660  33.016   0.366
33283W        W94737  19.081  19.700   3.333
33284W        W94738   7.736  31.911  13.529
33285W        W94739  40.874  42.905  14.908
33286W        W94740  36.583  11.206  13.502
33287W        W94741  23.174  40.042   3.676
33288W        W94742  25.498  42.396   3.774
33289W        W94743  23.681  41.454   2.223
33290W        W94744  23.184  40.840  12.353
33291W        W94745  16.278  33.421   2.737
33292W        W94746  25.533  23.720  10.419
33293W        W94747  23.653  40.459  13.026
33294W        W94748  18.560  25.071  11.904
33295W        W94749  27.066  28.071  14.389
33296W        W94750  19.217   9.701  14.484
33297W        W94751  11.755  29.452   5.111
33298W        W94752  22.233  15.747  10.604
33299W        W94753   7.789  13.286  10.958
33300W        W94754  29.440  25.005  12.066
33301W        W94755  21.655  10.746   4.633
33302W        W94756   5.412  21.529   0.754
33303W        W94757  19.597  35.524   4.650
33304W        W94758   2.914  37.948  12.993
33305W        W94759   9.791  16.180  13.843
33306W        W94760  35.527   6.209   0.440
33307W        W94761  23.582  36.411   2.252
33308W        W94762  16.275  14.336  12.894
33309W        W94763  35.968   0.915   3.658
33310W        W94764  41.486  40.468  14.465
33311W        W94765  44.407  19.234   2.710
33312W        W94766  12.270  26.481   0.388
33313W        W94767   8.214  20.659  14.023
33314W        W94768  43.832   8.892   1.287
33315W        W94769  42.381   8.854  10.896
33316W        W94770  35.442  24.627   0.431
33317W        W94771   6.191  22.583  13.410
33318W        W94772  29.549  17.799  13.048
33319W        W94773   1.416   7.328   3.200
33320W        W94774  20.203  17.283  12.958
33321W        W94775  38.344  39.425   4.786
33322W        W94776  43.418  25.217  10.938
33323W        W94777  40.991  33.044  12.903
33324W        W94778  13.302  44.354  10.490
33325W        W94779  27.639  29.670  11.024
33326W        W94780  41.855   6.707  13.383
33327W        W94781   1.291  25.555  11.550
33328W        W94782  21.685  37.959  13.524
33329W        W94783  29.928   8.230  11.379
33330W        W94784  11.331  32.093   2.199
33331W        W94785  13.160  37.839  11.597
33332W        W94786  12.657   9.324  11.405
33333W        W94787   8.398  15.195  12.049
33334W        W94788   3.430   4.438  12.914
33335W        W94789  40.988  35.495   3.709
33336W        W94790  31.450  36.464   0.329
33337W        W94791   3.747   0.904  13.480
33338W        W94792  11.771  40.040  13.400
33339W        W94793  40.025  19.094  12.380
33340W        W94794  36.019  35.882   3.366
33341W        W94795   9.703   9.800   2.769
33342W        W94796  38.334  10.166   4.278
33343W        W94797  40.399  24.536   4.728
33344W        W94798   8.178  14.663   1.771
33345W        W94799  35.891  20.095  12.417
33346W        W94800  41.538  19.647  12.434
33347W        W94801  16.075  16.106   0.336
33348W        W94802  30.645   8.704  11.489
33349W        W94803  44.753  18.663   2.901
33350W        W94804  15.733  28.462   3.145
33351W        W94805  16.744   6.882   1.914
33352W        W94806  25.072  41.371   1.416
33353W        W94807  13.770  23.593  14.298
33354W        W94808  28.581  29.925  14.415
33355W        W94809  41.790  25.671   2.321
33356W        W94810  27.615  28.585  12.442
33357W        W94811  34.100  16.690  11.888
33358W        W94812  17.711  15.257  13.000
33359W        W94813  16.764   2.733   2.303
33360W        W94814  35.901   4.205  14.494
33361W        W94815   0.943  28.025   5.247
33362W        W94816   7.238   5.898   2.760
33363W        W94817  37.387  43.971   1.833
33364W        W94818  33.397  15.232   2.259
33365W        W94819  41.498  21.522   4.286
33366W        W94820  26.506  17.798   1.878
33367W        W94821  10.637   7.180   1.772
33368W        W94822  25.130  17.303   0.400
33369W        W94823  42.351  34.908   4.729
33370W        W94824   9.271  19.647   0.760
33371W        W94825  26.492  40.390  13.999
33372W        W94826  42.018   0.319  13.993
33373W        W94827  29.634  29.437   2.762
33374W        W94828  30.538   0.744   0.801
33375W        W94829  44.466  11.863   0.819
33376W        W94830  23.489  33.558   3.340
33377W        W94831  32.952  21.041  12.537
33378W        W94832  13.267  36.999  13.989
33379W        W94833  17.161   6.859  11.519
33380W        W94834  21.628  25.116  12.578
33381W        W94835  13.277   2.302  12.988
33382W        W94836  27.036   6.842  10.613
33383W        W94837  33.602   1.254   1.760
33384W        W94838  23.670  32.505  12.501
33385W        W94839  44.413  10.191  11.418
33386W        W94840  17.700  43.361  14.477
33387W        W94841  39.396  26.509   1.244
33388W        W94842  32.425  14.689   1.785
33389W        W94843  41.020  12.611   3.646
33390W        W94844  26.182  43.960   3.713
33391W        W94845  15.824  16.305   2.769
33392W        W94846   2.902  41.296   2.847
33393W        W94847  39.011  40.920   0.439
33394W        W94848  43.392  16.219  14.960
33395W        W94849  41.841  44.318   2.408
33396W        W94850  38.023  12.139  11.582
33397W        W94851  42.853  32.035  10.891
33398W        W94852  32.918  10.872  11.469
33399W        W94853  38.894  27.960  10.987
33400W        W94854   0.895  34.879   1.392
33401W        W94855  28.537  30.543  10.520
33402W        W94856  16.146  16.588  11.977
33403W        W94857   0.971  29.660   4.724
33404W        W94858  13.669  30.659   2.764
33405W        W94859  39.881  41.519  13.510
33406W        W94860  25.105  35.956  13.050
33407W        W94861  41.457  19.573  13.017
33408W        W94862  27.622  19.595   2.229
33409W        W94863  26.960  31.123   4.826
33410W        W94864  44.808  40.911   1.276
33411W        W94865   8.202  30.415   4.288
33412W        W94866  40.842  43.438   4.224
33413W        W94867   3.222  37.076   2.759
33414W        W94868  14.697  20.742  13.851
33415W        W94869  21.648  28.937   4.726
33416W        W94870  15.199  27.132  12.093
33417W        W94871  42.471  15.679   2.732
33418W        W94872  26.473  34.920  10.994
33419W        W94873  40.439  38.999   3.323
33420W        W94874  34.443  32.593  12.999
33421W        W94875  41.394  44.824  10.544
33422W        W94876  20.072  18.705   4.193
33423W        W94877  21.685  22.537  14.350
33424W        W94878  25.653  11.357  10.054
33425W        W94879  12.320  33.885  10.942
33426W        W94880  14.337  32.432  11.897
33427W        W94881  18.599  17.304   2.672
33428W        W94882   4.701   6.413   1.798
33429W        W94883   5.852  15.764   1.310
33430W        W94884  21.738  11.358   9.532
33431W        W94885  10.743  25.969   4.248
33432W        W94886  11.657  15.636   3.667
33433W        W94887   1.736  20.539   2.743
33434W        W94888  22.157  19.592  14.867
33435W        W94889  42.516  43.772  13.515
33436W        W94890  39.319   4.906   3.367
33437W        W94891  41.352  27.051   2.391
33438W        W94892   2.261  13.846  14.406
33439W        W94893   0.280  10.300  12.502
33440W        W94894  36.932   1.312  11.441
33441W        W94895   5.799  31.451  10.064
33442W        W94896  30.639   9.770  13.791
33443W        W94897  40.027  18.128   2.717
33444W        W94898  29.460   6.923   4.278
33445W        W94899  13.684   9.722   1.293
33446W        W94900  21.650  24.159   4.184
33447W        W94901  16.714  39.366   2.413
33448W        W94902  22.529   0.774   1.379
33449W        W94903   9.293   9.756   2.316
33450W        W94904  43.829   7.404  11.463
33451W        W94905  29.956  17.074  10.624
33452W        W94906  42.427  18.102   1.438
33453W        W94907  17.655  36.362  12.482
33454W        W94908  30.512  15.136  12.499
33455W        W94909  15.174  30.432  12.951
33456W        W94910  22.221  22.154   2.377
33457W        W94911   4.245  43.388  14.984
33458W        W94912  26.052  17.672  12.368
33459W        W94913  27.190  12.181  12.482
33460W        W94914  30.582  42.384   3.652
33461W        W94915  26.505  32.477   0.392
33462W        W94916  28.948  20.274  10.481
33463W        W94917   6.423  42.304  10.994
33464W        W94918  14.189  43.894  13.342
33465W        W94919  20.212  33.979  13.055
33466W        W94920  12.205  38.840   5.596
33467W        W94921   6.716  20.584   4.185
33468W        W94922   4.385  22.557  14.397
33469W        W94923  32.627  23.092   4.311
33470W        W94924   2.788  34.427  14.359
33471W        W94925  16.812  26.589   0.753
33472W        W94926  25.139  21.037  12.921
33473W        W94927  36.577  17.570   3.658
33474W        W94928  31.054  12.321  11.013
33475W        W94929  12.644   3.714   3.350
33476W        W94930   8.268  31.501   2.408
33477W        W94931  14.333   8.746   1.771
33478W        W94932  10.174  14.607   1.931
33479W        W94933   6.396   5.701   4.635
33480W        W94934   8.167  13.112  13.863
33481W        W94935  26.170  32.582  14.776
33482W        W94936  23.562  37.475   4.159
33483W        W94937  22.518  24.206  13.845
33484W        W94938  35.882  34.454  14.434
33485W        W94939  35.583  31.899   0.962
33486W        W94940  16.223  44.993   2.208
33487W        W94941  32.573   5.866  11.025
33488W        W94942  18.090  44.910  12.090
33489W        W94943  34.865  30.655   2.882
33490W        W94944  34.415   3.250   1.241
33491W        W94945   8.294   3.773   2.326
33492W        W94946   5.347  18.251   2.733
33493W        W94947   9.355  14.668   0.739
33494W        W94948  20.652  19.039   0.402
33495W        W94949  22.604   2.941   9.927
33496W        W94950  35.418  30.631  14.977
33497W        W94951   8.228  15.091  11.428
33498W        W94952  44.767  19.708  10.404
33499W        W94953   2.429  19.720  11.524
33500W        W94954  21.665  42.446  13.838
33501W        W94955  33.019  19.193  14.945
33502W        W94956   5.428  37.965  12.073
33503W        W94957   2.818  26.975  11.472
33504W        W94958  18.724   2.789  13.389
33505W        W94959  29.122   6.289   1.287
33506W        W94960  39.926  30.152  14.831
33507W        W94961  15.125  22.704   0.344
33508W        W94962   9.208   5.810   4.233
33509W        W94963  33.530  27.671  12.022
33510W        W94964  26.488  28.563   1.245
33511W        W94965  18.637   2.282   2.686
33512W        W94966  13.206  19.552  14.342
33513W        W94967  17.141  28.165  10.406
33514W        W94968  34.982  18.058   2.377
33515W        W94969   9.199  25.536  11.027
33516W        W94970  22.581   2.337   1.338
33517W        W94971   1.462  12.827   1.835
33518W        W94972  28.546  39.423   4.647
33519W        W94973  40.367  43.888   1.717
33520W        W94974   5.763   6.405  13.032
33521W        W94975  37.497   2.287  14.799
33522W        W94976  10.291  37.885   2.191
33523W        W94977  11.624  33.059   5.247
33524W        W94978  27.109   7.301  13.411
33525W        W94979  41.380  23.677   2.271
33526W        W94980  24.494  41.375   2.752
33527W        W94981   1.901  34.899   1.402
33528W        W94982  26.685   9.282  14.895
33529W        W94983  37.896  39.048  12.945
33530W        W94984  21.749   9.189  11.891
33531W        W94985  38.832  20.630   2.354
33532W        W94986  30.982  38.557   4.832
33533W        W94987  30.957  36.031  13.492
33534W        W94988   9.331  34.568  13.466
33535W        W94989   5.748  14.283  12.959
33536W        W94990  23.201  44.403  12.370
33537W        W94991  43.304  32.095  12.545
33538W        W94992  44.986   5.858  12.373
33539W        W94993  36.412  34.906   2.756
33540W        W94994  38.489  39.852  12.060
33541W        W94995  16.274  14.134  12.487
33542W        W94996  24.075   0.348   0.801
33543W        W94997  12.721   4.864   2.234
33544W        W94998   6.397  30.935  13.829
33545W        W94999  25.482   7.177   4.235
33546W        W95000   4.831  16.201  11.069
33547W        W95001  34.963   3.291  12.545
33548W        W95002  26.038   3.735  11.422
33549W        W95003  42.915  35.427  11.470
33550W        W95004  43.857  36.885  11.022
33551W        W95005  16.131  39.998   4.339
33552W        W95006  21.070  10.222  13.945
33553W        W95007   4.834  37.523   2.693
33554W        W95008  25.097  17.781   4.283
33555W        W95009  32.450  43.883  12.363
33556W        W95010  32.041  18.059  13.347
33557W        W95011  16.606  26.468  14.957
33558W        W95012  17.264  27.512   1.428
33559W        W95013  15.622  32.395   2.756
33560W        W95014   5.323  41.028   2.200
33561W        W95015  30.475  15.700  13.464
33562W        W95016  22.247  19.588   0.343
33563W        W95017   4.920  23.528  10.958
33564W        W95018  23.146  17.124   1.394
33565W        W95019  41.387   1.432   1.245
33566W        W95020  33.886  19.063  11.949
33567W        W95021  42.861  18.606   3.191
33568W        W95022  30.940  11.844  14.448
33569W        W95023  12.257  21.756   4.223
33570W        W95024  44.764  18.648  11.961
33571W        W95025  38.017  35.927   4.302
33572W        W95026  23.565  24.149   4.330
33573W        W95027  23.504  13.174  12.576
33574W        W95028  29.169  13.826   2.847
33575W        W95029  22.698  37.894   4.695
33576W        W95030  24.503  15.172   1.705
33577W        W95031  32.977  26.193  13.905
33578W        W95032   6.352  17.075  11.979
33579W        W95033  10.879  26.981   3.850
33580W        W95034  40.049  17.751   3.693
33581W        W95035  18.577   5.917  14.815
33582W        W95036   8.322   2.430   4.806
33583W        W95037  10.240  43.981   1.914
33584W        W95038  37.562  16.186   3.257
33585W        W95039   1.839  33.542   0.919
33586W        W95040  31.404  43.767  14.976
33587W        W95041  44.834  36.953  10.972
33588W        W95042  41.419  31.011  14.422
33589W        W95043  43.332   9.327   3.782
33590W        W95044  37.437  24.520   2.862
33591W        W95045  12.275  36.468  11.568
33592W        W95046   5.863   5.215   3.231
33593W        W95047  20.230  29.560   2.900
33594W        W95048  12.154  29.445  14.421
33595W        W95049  15.098  39.408  13.529
33596W        W95050  41.929   8.772   2.394
33597W        W95051  22.168  13.293   2.827
33598W        W95052  26.952  25.193   2.400
33599W        W95053  21.173  14.265  14.775
33600W        W95054   6.395  17.287   0.890
33601W        W95055  33.449  16.150   4.659
33602W        W95056  41.511   2.730   4.295
33603W        W95057  18.098  30.642  13.519
33604W        W95058  27.674  38.556  12.462
33605W        W95059   2.722  17.191  14.960
33606W        W95060  14.662  18.554   5.715
33607W        W95061  22.599  10.776   4.687
33608W        W95062   6.758  44.876   0.922
33609W        W95063  35.992  38.512   4.334
33610W        W95064  26.675   4.336  14.765
33611W        W95065   8.666  23.219  14.006
33612W        W95066  23.147  11.159  12.439
33613W        W95067  12.755   9.646  10.574
33614W        W95068  27.979  12.653   3.798
33615W        W95069  41.414  15.786   3.858
33616W        W95070  36.881   9.706  10.960
33617W        W95071  13.270  39.433  12.093
33618W        W95072  27.661  20.091   0.389
33619W        W95073  32.410  18.242  10.072
33620W        W95074  40.545  16.102   4.124
33621W        W95075  41.416  18.176   0.272
33622W        W95076  39.502  16.136  11.921
33623W        W95077  30.543  10.737   0.272
33624W        W95078  34.969  12.697  11.991
33625W        W95079  27.050  18.696  11.966
33626W        W95080  16.166  10.826   3.287
33627W        W95081  44.836  28.123   3.300
33628W        W95082  20.036   2.745  12.975
33629W        W95083  11.865   2.324  12.059
33630W        W95084  24.056  29.940   4.782
33631W        W95085  37.972  26.120   2.277
33632W        W95086  37.483  34.033  14.863
33633W        W95087  42.411  42.432  14.417
33634W        W95088  32.138  32.390  11.420
33635W        W95089  43.413   6.685   0.259
33636W        W95090   1.756  25.066  13.491
33637W        W95091  40.889  44.442  13.407
33638W        W95092   4.924  26.478  12.094
33639W        W95093   2.260  39.992  14.487
33640W        W95094   7.729  40.886   2.328
33641W        W95095  37.935  39.861  11.869
33642W        W95096  31.047  28.969   0.335
33643W        W95097  33.561   6.182  13.390
33644W        W95098   7.236   4.904   0.469
33645W        W95099  10.302  34.087  13.062
33646W        W95100  32.636  13.127  14.806
33647W        W95101  19.164   7.796   2.227
33648W        W95102  16.120  43.968   0.818
33649W        W95103  13.147   4.332  12.935
33650W        W95104  14.655   8.228  11.969
33651W        W95105  19.573  28.483   3.847
33652W        W95106  20.596   5.782  10.481
33653W        W95107  38.408   2.454   0.799
33654W        W95108  38.044  37.002  11.123
33655W        W95109   9.210  12.224  11.508
33656W        W95110  12.252   4.773   0.803
33657W        W95111  12.693  38.923  14.303
33658W        W95112  28.591  17.739   4.820
33659W        W95113  17.165   8.174  11.009
33660W        W95114  28.128  21.181   2.353
33661W        W95115  30.124   3.759   2.723
33662W        W95116  35.037  15.329  13.986
33663W        W95117   6.297   7.852  14.440
33664W        W95118  35.598  42.878  13.462
33665W        W95119  28.067  37.007   2.417
33666W        W95120  10.852   6.390   0.268
33667W        W95121  33.533  25.211   5.223
33668W        W95122  35.579  28.440  12.398
33669W        W95123  36.875  26.557  14.826
33670W        W95124   4.792  35.503  10.156
33671W        W95125  43.988  42.916  11.971
33672W        W95126  25.150   2.449   0.962
33673W        W95127  35.453  29.112  13.354
33674W        W95128  43.823  22.572   0.885
33675W        W95129  11.229  39.470   5.282
33676W        W95130   9.354  27.041   3.385
33677W        W95131  36.421  12.227   0.903
33678W        W95132  22.135   0.479  14.879
33679W        W95133  10.313  30.926   2.236
33680W        W95134  36.012   7.177  13.493
33681W        W95135  43.909   7.890  12.447
33682W        W95136   3.281  22.699  13.870
33683W        W95137  25.965  14.249  14.498
33684W        W95138  17.792  23.048   2.890
33685W        W95139  23.011   0.306   0.863
33686W        W95140  22.027  20.060   3.204
33687W        W95141  26.004  27.466  11.902
33688W        W95142  29.033  35.867  11.959
33689W        W95143  44.451  38.890   4.733
33690W        W95144  15.278  11.342   3.353
33691W        W95145  37.056   1.267   0.357
33692W        W95146  24.538  44.286   0.753
33693W        W95147  25.212  41.883   0.842
33694W        W95148  11.332  41.363  10.906
33695W        W95149  36.523  12.821   2.739
33696W        W95150  38.077  42.969  10.891
33697W        W95151  30.967  22.240   2.412
33698W        W95152  12.292   6.749   4.614
33699W        W95153  16.677   6.365   3.760
33700W        W95154  23.218  31.527  11.925
33701W        W95155  42.927  29.109  11.384
33702W        W95156  10.774   9.351  12.968
33703W        W95157  27.049   5.712  10.934
33704W        W95158   0.812   6.399   4.670
33705W        W95159  17.243  28.159  10.153
33706W        W95160   9.768  26.143  11.556
33707W        W95161   9.729  33.039   1.285
33708W        W95162   5.259  43.948  12.437
33709W        W95163  30.951  37.832  11.511
33710W        W95164  28.453   9.390   2.248
33711W        W95165  29.078   3.254  13.458
33712W        W95166   7.383  25.048  14.483
33713W        W95167   2.458  44.936   0.881
33714W        W95168   4.269  18.082   4.279
33715W        W95169   0.464  10.172  10.526
33716W        W95170   2.346   6.811  11.953
33717W        W95171  18.232  24.032   3.168
33718W        W95172  26.185  27.049  11.055
33719W        W95173  22.190  43.789   3.737
33720W        W95174   0.775   9.651   2.757
33721W        W95175  15.794  17.791   0.318
33722W        W95176  44.888  15.180  14.325
33723W        W95177  44.406  11.368   4.750
33724W        W95178  18.551  31.912   4.742
33725W        W95179  28.157  15.811   3.379
33726W        W95180  43.012   8.704  14.921
33727W        W95181   7.853  43.953  12.022
33728W        W95182  40.023  43.804   3.759
33729W        W95183   9.360   7.677   2.283
33730W        W95184  35.101  13.300  13.840
33731W        W95185  37.918  30.074   2.739
33732W        W95186  23.133  13.313  11.056
33733W        W95187  28.022  36.395   3.279
33734W        W95188  44.408  30.649  11.372
33735W        W95189  22.683  16.240   1.249
33736W        W95190  17.798  31.508   0.280
33737W        W95191  34.412   9.352  12.868
33738W        W95192  19.085  24.097   2.377
33739W        W95193  20.159  37.431   2.210
33740W        W95194  23.600  14.330  11.397
33741W        W95195  27.572  24.997  14.823
33742W        W95196  24.005  34.530   1.247
33743W        W95197  30.071  39.978   1.922
33744W        W95198  26.493  23.624  12.347
33745W        W95199  14.201   3.372  11.468
33746W        W95200  43.506  32.440  11.085
33747W        W95201  26.473   6.716  10.430
33748W        W95202  26.167  42.348  10.943
33749W        W95203  19.605  37.515  13.525
33750W        W95204  21.630  17.124  11.468
33751W        W95205  17.179  37.031   4.656
33752W        W95206  13.266  35.410   2.865
33753W        W95207  36.503  37.853   5.301
33754W        W95208   8.788  37.455  12.360
33755W        W95209   4.885   4.802   1.887
33756W        W95210   6.844   5.197   4.184
33757W        W95211   3.871  26.181  12.074
33758W        W95212  33.423  32.468   2.738
33759W        W95213  15.283  16.099   4.302
33760W        W95214   6.337  31.137  13.438
33761W        W95215  25.517  37.525  11.088
33762W        W95216  16.798  43.929  11.484
33763W        W95217  16.643  17.595   0.964
33764W        W95218  12.313  37.902  12.351
33765W        W95219  29.523  16.241  12.015
33766W        W95220  35.086   7.283   2.693
33767W        W95221   8.203  36.508  14.448
33768W        W95222  39.510  32.538   3.297
33769W        W95223   7.186  30.968   2.683
33770W        W95224  10.836   2.326  14.786
33771W        W95225  38.381  16.250  14.850
33772W        W95226  31.463   0.463  11.929
33773W        W95227  38.036  19.043  13.840
33774W        W95228  16.239  29.441   2.179
33775W        W95229  36.864  37.379   4.739
33776W        W95230  17.272  42.837  12.014
33777W        W95231  31.470  11.748  11.017
33778W        W95232   2.874   4.210  10.993
33779W        W95233  15.736  11.145   9.965
33780W        W95234  14.647  20.259  12.381
33781W        W95235  38.996   2.749   3.746
33782W        W95236  42.987   9.167   4.605
33783W        W95237  12.614  20.228   1.919
33784W        W95238   8.696  27.606  10.063
33785W        W95239  33.090   4.809  11.611
33786W        W95240  39.374   5.832  11.447
33787W        W95241   4.865  44.383  10.535
33788W        W95242   7.899   7.252  14.784
33789W        W95243  28.036  37.400   1.332
33790W        W95244  41.867  10.201  11.426
33791W        W95245  37.882  32.434   0.769
33792W        W95246  33.017  38.842  14.030
33793W        W95247  40.898  33.018  12.093
33794W        W95248  41.377   7.393  14.479
33795W        W95249  14.286  41.354   0.268
33796W        W95250  25.088  40.453   3.798
33797W        W95251  29.927  10.809   1.269
33798W        W95252   8.715   5.363   2.770
33799W        W95253  42.311  38.391  12.365
33800W        W95254  13.706  17.222  13.053
33801W        W95255   2.427  13.129   1.795
33802W        W95256   8.882  10.304  12.498
33803W        W95257  20.141  43.805  14.434
33804W        W95258  44.961  25.573   3.778
33805W        W95259  14.307  30.557  10.455
33806W        W95260  13.669  37.922  13.460
33807W        W95261  21.107  27.104   1.906
33808W        W95262  25.980  24.059   5.615
33809W        W95263  19.598  23.143  12.352
33810W        W95264  34.898  34.111   2.319
33811W        W95265  29.480   8.874   4.242
33812W        W95266   6.815  12.251   4.654
33813W        W95267  29.528  17.101  11.025
33814W        W95268  23.126  44.827  14.512
33815W        W95269  30.025  26.514  11.105
33816W        W95270   1.963  13.194   0.326
33817W        W95271   8.309  28.006   3.220
33818W        W95272  15.588  20.599   0.262
33819W        W95273   3.738   3.950   3.793
33820W        W95274   5.898  34.415  11.076
33821W        W95275  39.479   7.682   1.805
33822W        W95276   0.772  40.357   0.948
33823W        W95277   8.775   6.254  11.092
33824W        W95278  25.699  37.059   3.805
33825W        W95279  18.070  26.148   4.814
33826W        W95280  30.046  31.990  14.850
33827W        W95281   5.212  13.219   1.749
33828W        W95282  23.104   9.685   1.851
33829W        W95283  34.478  29.132   2.794
33830W        W95284  26.514  13.315   0.803
33831W        W95285   5.387   9.870  14.398
33832W        W95286  42.461  25.485   4.827
33833W        W95287  42.797  37.368  14.511
33834W        W95288  24.977  23.583  10.134
33835W        W95289   1.950  38.999   2.334
33836W        W95290  36.873  22.252   2.687
33837W        W95291  41.935   5.757  13.010
33838W        W95292  18.547  19.141   2.794
33839W        W95293  32.915   1.269   0.271
33840W        W95294  11.192  33.083   4.127
33841W        W95295  19.709  13.805   4.113
33842W        W95296  12.346  24.095   2.760
33843W        W95297  37.051   3.362   2.762
33844W        W95298  15.229   0.933   1.335
33845W        W95299  27.576  13.302   2.302
33846W        W95300  25.547  11.164  13.842
33847W        W95301  37.377  16.162   0.872
33848W        W95302  29.581  20.045  13.400
33849W        W95303  29.450  35.562  14.461
33850W        W95304   0.281  40.341  12.358
33851W        W95305  42.391   6.734  11.499
33852W        W95306  32.133  30.523  13.902
33853W        W95307  33.045  35.479   4.219
33854W        W95308   3.798  39.359  14.956
33855W        W95309  40.510   0.892  11.933
33856W        W95310  38.417  36.503   4.801
33857W        W95311  31.432  31.422  12.515
33858W        W95312  29.073  30.640   4.251
33859W        W95313  31.418  19.680  13.397
33860W        W95314  32.582   1.850   4.116
33861W        W95315  41.328  13.143  14.365
33862W        W95316  36.361  34.920  11.611
33863W        W95317  26.035  15.324  13.995
33864W        W95318  14.245  21.056   0.743
33865W        W95319  15.723  34.059   3.737
33866W        W95320  24.588  22.715   2.414
33867W        W95321  21.668  41.012  13.029
33868W        W95322  40.889  33.883  14.790
33869W        W95323  15.301   4.932  13.807
33870W        W95324   8.659  18.254  13.851
33871W        W95325  32.060  21.093  10.155
33872W        W95326  12.735  29.428  13.890
33873W        W95327  15.104  26.072  14.387
33874W        W95328  13.268  43.328  12.865
33875W        W95329  14.784  29.580  11.952
33876W        W95330  40.420  37.895   2.894
33877W        W95331  16.778  18.274   3.857
33878W        W95332  31.122  25.970   5.231
33879W        W95333  12.611  41.336   2.724
33880W        W95334   9.770   6.706  12.412
33881W        W95335  34.886   9.393  14.991
33882W        W95336  20.195  11.701  13.975
33883W        W95337   3.283   6.215   4.635
33884W        W95338  15.285  25.499   1.328
33885W        W95339  11.263  44.969   1.711
33886W        W95340   3.811  13.264   4.200
33887W        W95341  30.917   7.751  12.350
33888W        W95342  31.622  33.001   9.481
33889W        W95343  29.627  41.310  10.157
33890W        W95344   0.332   7.709   3.168
33891W        W95345   2.255  18.699  12.041
33892W        W95346  30.501   1.961   1.298
33893W        W95347   1.776  40.838   0.876
33894W        W95348  14.703  28.175  12.452
33895W        W95349  10.791  11.715   0.762
33896W        W95350  34.435  40.541   3.644
33897W        W95351  21.152  32.128   3.312
33898W        W95352  14.238  21.525   3.731
33899W        W95353  15.205  38.843   2.416
33900W        W95354  12.148  29.635   3.215
33901W        W95355   2.413  29.974  13.462
33902W        W95356  18.094  21.063  13.387
33903W        W95357  33.502  28.006  14.289
33904W        W95358  34.550  39.954  14.940
33905W        W95359  38.956  31.436  10.602
33906W        W95360  41.949  23.732   3.165
33907W        W95361  37.045   9.844   3.148
33908W        W95362  35.077  16.194   0.427
33909W        W95363  34.529  39.889  14.505
33910W        W95364  26.152  17.630  14.003
33911W        W95365   9.335  16.219   2.381
33912W        W95366  33.478  20.257   3.238
33913W        W95367  29.122  42.411   4.602
33914W        W95368   1.263  23.490  13.046
33915W        W95369  20.752  25.494  13.527
33916W        W95370  30.158  20.683  11.921
33917W        W95371  34.391  21.228  10.608
33918W        W95372  36.577  24.704  13.451
33919W        W95373  21.547   4.749  13.949
33920W        W95374   2.931  10.747  12.531
33921W        W95375  22.528  18.276   2.403
33922W        W95376   1.265  29.577  13.936
33923W        W95377  27.068  29.953   4.719
33924W        W95378  30.074  40.395   2.681
33925W        W95379  15.659  42.012  12.557
33926W        W95380   4.746  26.980  11.418
33927W        W95381  19.130  30.138  11.127
33928W        W95382  12.836  22.071   2.305
33929W        W95383  44.873   5.795  13.439
33930W        W95384  38.013  26.503   4.635
33931W        W95385  11.184  36.404   4.332
33932W        W95386  27.533   8.726   1.278
33933W        W95387  11.139  24.579  11.924
33934W        W95388  18.613  33.398  14.492
33935W        W95389  35.577  39.036   9.477
33936W        W95390   6.789   2.745   2.755
33937W        W95391  25.691  14.120   5.165
33938W        W95392  24.545  14.633   4.350
33939W        W95393  21.197  24.620   1.820
33940W        W95394  15.758  44.448   1.919
33941W        W95395  33.548   4.398   4.676
33942W        W95396  14.239  34.372  14.960
33943W        W95397  31.022  27.579  14.800
33944W        W95398  17.211   3.927   3.379
33945W        W95399   6.777   4.804  10.452
33946W        W95400  10.674  23.639  12.870
33947W        W95401  30.426  15.646  11.496
33948W        W95402  12.708  12.846   4.146
33949W        W95403  24.572   0.410  12.858
33950W        W95404  40.946  22.085  14.459
33951W        W95405  40.439  14.642   4.179
33952W        W95406  22.092  44.478  12.450
33953W        W95407  32.942  35.439  12.889
33954W        W95408  43.780  15.708  11.068
33955W        W95409  10.153  18.606  11.896
33956W        W95410   4.737  24.169  13.026
33957W        W95411  15.106  38.067  11.917
33958W        W95412  11.654  18.701   2.724
33959W        W95413  14.237  39.385  11.482
33960W        W95414  44.829   7.252   4.620
33961W        W95415   8.668  31.092   3.275
33962W        W95416  13.646  28.526   4.812
33963W        W95417  13.304  23.146  12.404
33964W        W95418  13.328  38.539   1.444
33965W        W95419   0.282  34.435   3.734
33966W        W95420  19.185  18.621  12.504
33967W        W95421  19.661  22.721   0.861
33968W        W95422   6.732  34.525  12.347
33969W        W95423  15.674   0.326  11.875
33970W        W95424   6.263  34.425   3.250
33971W        W95425   0.784  39.444  13.989
33972W        W95426  20.707  37.963  10.424
33973W        W95427  17.727  29.143  11.564
33974W        W95428  28.074  44.900   3.336
33975W        W95429   6.414   3.881   2.400
33976W        W95430  38.024  11.207  12.842
33977W        W95431  26.159   5.723   4.247
33978W        W95432   2.885   6.857   3.748
33979W        W95433  44.971  18.760  12.426
33980W        W95434  36.891  26.099  14.999
33981W        W95435  38.527  42.877   3.715
33982W        W95436   2.313  35.096   5.310
33983W        W95437  32.022   0.357   2.213
33984W        W95438   0.924  40.955  13.378
33985W        W95439  12.808  11.359   2.866
33986W        W95440  27.627  14.683   0.833
33987W        W95441   6.215  44.962   3.324
33988W        W95442   8.400  38.437  13.804
33989W        W95443  42.363  24.511  13.483
33990W        W95444  10.196   4.337  14.386
33991W        W95445   6.348  29.458   0.926
33992W        W95446  21.099   9.660  12.449
33993W        W95447   3.457   1.926   0.747
33994W        W95448  21.263  21.186  13.348
33995W        W95449   4.868  31.102   0.273
33996W        W95450   4.927  40.897   0.906
33997W        W95451  22.701  30.618  13.907
33998W        W95452  29.115  13.155  10.450
33999W        W95453  38.029  20.570   4.310
34000W        W95454  32.471   6.403   0.447
34001W        W95455  28.092  10.823  10.473
34002W        W95456  14.218  35.866  14.781
34003W        W95457   6.309   8.308  11.878
34004W        W95458  21.034  44.829   3.349
34005W        W95459   6.756  20.744  14.759
34006W        W95460  42.512  19.085   3.351
34007W        W95461   8.396  14.791   0.266
34008W        W95462  18.712  26.159   2.802
34009W        W95463   6.403   9.795   0.275
34010W        W95464   4.910  13.171  11.914
34011W        W95465  16.175  17.645   3.209
34012W        W95466  42.362   5.759  10.620
34013W        W95467   7.886  41.326   0.796
34014W        W95468  14.690  35.568   1.821
34015W        W95469  27.950  14.103  13.390
34016W        W95470  25.664   4.929   2.767
34017W        W95471  34.106  34.409  11.458
34018W        W95472  39.873   2.467  10.907
34019W        W95473   6.396  39.425   4.611
34020W        W95474  39.064  25.589  13.860
34021W        W95475  17.164  37.565  13.841
34022W        W95476  25.019  10.844  13.383
34023W        W95477  22.241  25.605   2.411
34024W        W95478  38.066  43.998   4.253
34025W        W95479  10.684  11.625   2.834
34026W        W95480  36.369  15.667  12.967
34027W        W95481  23.006  35.894   3.739
34028W        W95482  10.167  26.116   3.698
34029W        W95483  33.944   4.208   0.357
34030W        W95484   3.799  38.034   3.770
34031W        W95485  36.894  34.045  11.544
34032W        W95486  12.267  21.672   1.913
34033W        W95487  31.984  42.976  11.497
34034W        W95488  39.338  36.975   2.251
34035W        W95489  40.516  26.984  13.312
34036W        W95490  23.008  41.950   2.872
34037W        W95491  38.038  18.677  14.431
34038W        W95492  15.172  10.688  10.000
34039W        W95493  33.590  40.998  11.419
34040W        W95494  24.665   5.228  14.386
34041W        W95495   0.774  12.156   1.270
34042W        W95496  14.743  27.990  11.068
34043W        W95497  31.977  41.429   3.669
34044W        W95498  34.573   2.437  12.860
34045W        W95499   6.386  29.499  12.003
34046W        W95500  33.466  15.117   4.246
34047W        W95501  31.048  41.849   3.293
34048W        W95502  42.938  14.716  13.014
34049W        W95503   5.791   2.314  10.995
34050W        W95504  33.071  17.776   0.875
34051W        W95505  15.289  13.199   3.213
34052W        W95506  36.528  24.723   4.620
34053W        W95507  36.505  34.899  10.982
34054W        W95508  25.589  11.144  14.463
34055W        W95509  30.477  24.662  14.395
34056W        W95510   8.162   5.838  13.058
34057W        W95511  17.745  14.247  13.889
34058W        W95512  35.522  28.963   1.229
34059W        W95513  21.205  21.756  13.026
34060W        W95514   6.282  41.887  13.311
34061W        W95515  11.152  11.235  10.989
34062W        W95516   6.426  11.699  12.928
34063W        W95517  16.310   5.793   3.315
34064W        W95518  37.472  35.387   0.780
34065W        W95519   4.750   0.932   3.362
34066W        W95520  16.143  40.840  14.382
34067W        W95521   8.900  23.524   4.744
34068W        W95522  23.039  37.465   3.369
34069W        W95523  13.621  41.885   1.440
34070W        W95524  11.143  27.491  12.946
34071W        W95525  16.709   6.253   4.752
34072W        W95526  31.583  35.459  11.567
34073W        W95527  43.359  19.092  12.019
34074W        W95528  22.545  24.534  13.382
34075W        W95529  37.372   4.283  10.518
34076W        W95530  38.023  39.004   3.798
34077W        W95531  10.239  33.110  13.824
34078W        W95532  12.841  43.931   2.333
34079W        W95533  41.448   8.196   3.824
34080W        W95534  41.456  15.316   0.846
34081W        W95535  22.147  16.299   0.816
34082W        W95536  32.010  31.034  10.637
34083W        W95537  15.820  37.925   3.639
34084W        W95538   6.316   3.271  10.116
34085W        W95539  20.129  25.202  13.325
34086W        W95540   7.225  17.713  11.961
34087W        W95541  35.895   8.677  14.967
34088W        W95542  39.844  38.965  13.028
34089W        W95543  36.940  43.328   0.866
34090W        W95544  12.325  43.327   0.752
34091W        W95545  22.534  41.447   4.234
34092W        W95546  36.585  44.421   3.710
34093W        W95547  44.918  39.869  11.531
34094W        W95548  12.207  33.380  12.855
34095W        W95549  11.654  36.430   3.737
34096W        W95550  30.596   9.818   5.260
34097W        W95551   4.801  38.006   1.896
34098W        W95552  15.806  13.725  12.888
34099W        W95553   7.773  40.392  10.595
34100W        W95554  30.500  40.395  11.937
34101W        W95555  32.461   6.790  12.840
34102W        W95556  43.975  30.944   3.760
34103W        W95557  39.960  23.546   1.831
34104W        W95558  32.484   5.301   4.793
34105W        W95559  39.419  34.876  11.038
34106W        W95560  31.119  15.643  14.839
34107W        W95561   5.258  18.277  11.491
34108W        W95562  18.228  28.499  12.958
34109W        W95563  28.515  12.355   1.434
34110W        W95564  10.824  16.568  13.412
34111W        W95565   1.239  16.262   1.304
34112W        W95566  20.704  43.814   4.295
34113W        W95567  17.073   5.414   3.172
34114W        W95568  13.236   0.253  14.821
34115W        W95569  15.087  44.483  12.038
34116W        W95570   7.880  42.004  10.615
34117W        W95571  24.644  18.552  10.975
34118W        W95572  22.249   6.378  13.329
34119W        W95573  34.994   5.352  12.547
34120W        W95574  38.885  33.042   0.311
34121W        W95575  22.593   9.818  14.301
34122W        W95576  39.832   2.793   2.791
34123W        W95577   8.304  15.702   3.146
34124W        W95578  28.966  21.021   1.400
34125W        W95579  10.733   1.811   1.251
34126W        W95580  39.933   6.684   3.752
34127W        W95581  10.242  17.763   2.692
34128W        W95582  13.242  34.423   2.377
34129W        W95583  33.578  27.107   4.677
34130W        W95584  25.500  16.714  14.471
34131W        W95585   0.910  14.166  10.102
34132W        W95586  39.960  42.385  12.357
34133W        W95587  11.347  35.992   1.775
34134W        W95588  33.967  25.605  14.313
34135W        W95589  22.227  40.039  14.434
34136W        W95590  24.151  35.977  14.336
34137W        W95591  31.938  26.995   0.918
34138W        W95592  31.911  22.192  11.612
34139W        W95593  10.233  29.157   9.927
34140W        W95594  23.109  22.704   2.866
34141W        W95595  20.655  15.675   3.179
34142W        W95596  32.614  28.602   4.303
34143W        W95597  14.753  10.324   1.328
34144W        W95598  13.236  19.069  11.518
34145W        W95599  38.514  30.595   1.920
34146W        W95600  17.705   9.790  13.033
34147W        W95601  37.579  23.119  13.398
34148W        W95602  40.919  27.496  10.946
34149W        W95603  25.037   8.721  12.963
34150W        W95604  11.210  18.089   1.345
34151W        W95605  39.528  28.660   3.351
34152W        W95606  10.273  20.532   2.735
34153W        W95607  28.440  24.573  14.470
34154W        W95608  30.080  41.374  12.075
34155W        W95609  36.916  29.129  13.054
34156W        W95610  31.919  26.485   1.239
34157W        W95611  30.935  26.694  14.495
34158W        W95612  40.485  25.191  12.855
34159W        W95613   9.774  40.854  11.062
34160W        W95614  27.529   3.791  13.966
34161W        W95615  28.979   9.186  11.855
34162W        W95616   1.330   0.282   1.909
34163W        W95617  30.567  17.182   1.411
34164W        W95618  21.221  29.491   0.928
34165W        W95619  13.171   9.181   3.361
34166W        W95620  10.238  40.339   2.665
34167W        W95621   5.911  31.503   5.226
34168W        W95622  43.778   9.773   3.316
34169W        W95623  25.003  26.118   0.946
34170W        W95624   0.881  26.667  14.822
34171W        W95625  22.507  27.069  11.933
34172W        W95626  33.077   3.406   3.828
34173W        W95627  42.286  16.105  10.921
34174W        W95628   3.833  42.889   3.263
34175W        W95629  38.519  44.912  13.902
34176W        W95630  14.271  35.063  10.957
34177W        W95631   4.886  19.171  14.027
34178W        W95632  18.548   8.160   4.681
34179W        W95633   2.394   8.190  14.868
34180W        W95634   2.386  20.195  12.918
34181W        W95635   8.879  35.105  11.490
34182W        W95636  35.006  18.275  13.872
34183W        W95637  34.028  37.371   3.787
34184W        W95638  23.574  15.727   4.302
34185W        W95639  40.461  30.487  11.043
34186W        W95640  28.998  21.714  10.915
34187W        W95641  32.588  19.636   1.440
34188W        W95642  19.270   3.380  14.946
34189W        W95643  10.789  41.502   4.781
34190W        W95644   6.685   0.792   3.812
34191W        W95645  17.188  23.552   3.347
34192W        W95646  25.513  21.544   0.963
34193W        W95647  10.138  11.298  14.003
34194W        W95648   1.366  22.556   2.841
34195W        W95649   3.875  33.081   4.122
34196W        W95650  24.072   5.889  11.921
34197W        W95651  21.693  44.461   4.601
34198W        W95652  33.909  23.044  14.908
34199W        W95653  35.520  16.683   3.653
34200W        W95654  10.184  16.302  11.890
34201W        W95655  21.129  42.391  12.398
34202W        W95656  13.766  11.257   5.163
34203W        W95657  36.393  11.220   3.264
34204W        W95658  30.915  25.120  12.481
34205W        W95659  44.371  22.597   3.798
34206W        W95660   6.361  34.462  13.889
34207W        W95661  13.607  35.529   4.775
34208W        W95662  17.622  24.056   0.900
34209W        W95663   8.367   9.218   2.282
34210W        W95664  11.694  17.092   2.357
34211W        W95665  33.608  44.932   2.881
34212W        W95666  41.378  23.642   4.818
34213W        W95667  37.438  19.187  11.428
34214W        W95668  43.994  24.176   1.869
34215W        W95669  39.029  36.526   2.780
34216W        W95670   8.670  27.484   0.442
34217W        W95671  10.845  23.686  10.552
34218W        W95672   0.966   6.834  11.428
34219W        W95673  15.708   8.763  12.556
34220W        W95674  16.799   1.276  10.611
34221W        W95675  26.101  10.805   0.284
34222W        W95676  40.307  38.994   1.348
34223W        W95677  19.693  40.534   2.690
34224W        W95678  38.864  32.540  12.925
34225W        W95679  27.470  16.766   0.351
34226W        W95680  44.913  38.325  14.505
34227W        W95681  30.538  30.029  13.813
34228W        W95682   8.375  12.206   3.237
34229W        W95683  10.275  20.232   1.868
34230W        W95684  44.292  39.463  13.031
34231W        W95685   1.469   3.778  11.611
34232W        W95686  40.353   2.900  10.974
34233W        W95687  44.993  18.095   0.295
34234W        W95688  12.337  27.515   1.730
34235W        W95689  42.376  17.153   2.721
34236W        W95690  16.601  21.225  11.045
34237W        W95691  41.370   3.811   1.357
34238W        W95692  41.953  37.399  11.944
34239W        W95693  40.913  23.995   1.249
34240W        W95694  10.757   3.823   1.373
34241W        W95695   1.363  13.342   2.824
34242W        W95696  17.061  19.046   1.920
34243W        W95697  11.247   7.397   3.355
34244W        W95698  38.358  24.067   4.615
34245W        W95699  44.754  39.022   0.727
34246W        W95700   6.273  31.454   2.381
34247W        W95701  24.228  19.704   1.884
34248W        W95702  26.150  30.086   1.233
34249W        W95703  20.244   1.900   1.783
34250W        W95704  12.662  16.583   3.336
34251W        W95705   1.892  11.685   3.850
34252W        W95706  39.845  32.886   3.162
34253W        W95707   3.868   2.880  11.490
34254W        W95708   9.293   4.250  14.331
34255W        W95709  37.563   0.305  14.312
34256W        W95710   4.395  32.942   3.811
34257W        W95711   9.304  33.434   0.787
34258W        W95712   4.712   1.753   0.815
34259W        W95713  28.576   6.382  10.965
34260W        W95714  41.026  26.512   4.279
34261W        W95715   7.218   4.790  10.934
34262W        W95716  24.591  23.493  11.507
34263W        W95717  23.156  29.007   2.805
34264W        W95718  11.274   5.278  14.403
34265W        W95719  44.400  18.783   3.172
34266W        W95720  41.916   0.337  14.868
34267W        W95721  29.087  26.547  10.600
34268W        W95722  19.675  15.251   2.303
34269W        W95723  31.458   2.729  14.767
34270W        W95724  32.130  28.104   3.300
34271W        W95725  44.426  19.103   0.413
34272W        W95726   9.844  44.494   1.786
34273W        W95727   7.725  23.161   1.808
34274W        W95728  28.638  40.503  11.967
34275W        W95729  34.930   9.356   4.138
34276W        W95730  17.577  24.177   1.288
34277W        W95731  36.387   0.477   4.153
34278W        W95732  16.073  28.156  11.462
34279W        W95733  17.092  25.529  10.556
34280W        W95734  17.706  35.446  13.804
34281W        W95735  27.500  38.851   1.363
34282W        W95736  31.101   6.229   0.392
34283W        W95737  19.766  43.478   1.759
34284W        W95738  23.528  14.822   2.217
34285W        W95739   6.340  18.650   5.147
34286W        W95740  32.470   8.851   3.270
34287W        W95741  14.752  18.053   1.446
34288W        W95742  14.211  11.225   4.755
34289W        W95743  24.065  13.716  14.812
34290W        W95744  20.108  19.677  11.906
34291W        W95745  37.857  34.018   3.336
34292W        W95746  39.966  26.568   4.130
34293W        W95747  24.587  18.667  12.900
34294W        W95748  33.593  40.457  10.486
34295W        W95749  20.067  26.658  12.077
34296W        W95750  10.316  41.832   0.377
34297W        W95751   9.886  38.030   2.190
34298W        W95752   2.289  10.304  12.835
34299W        W95753   8.882   3.338  11.929
34300W        W95754   7.239  26.642  12.453
34301W        W95755   7.741  21.571   0.251
34302W        W95756  26.118  29.431  13.833
34303W        W95757  23.710  19.597   0.321
34304W        W95758  33.950  16.109  11.938
34305W        W95759  16.277  33.918   0.843
34306W        W95760  26.607  21.231  13.026
34307W        W95761  25.488  18.203   0.318
34308W        W95762  28.599   6.768  12.431
34309W        W95763   9.297   1.267  14.365
34310W        W95764  26.477   2.923  12.951
34311W        W95765  27.547  17.717  14.955
34312W        W95766  34.530   1.953  13.012
34313W        W95767   4.943  37.390   0.470
34314W        W95768   8.791  30.000   3.321
34315W        W95769  11.297  19.162  12.872
34316W        W95770  27.520   1.911   4.821
34317W        W95771  42.853   9.807  13.030
34318W        W95772  30.525  25.088  11.068
34319W        W95773   3.293  15.245   1.930
34320W        W95774  33.481  14.691   4.285
34321W        W95775   9.327   8.889   2.184
34322W        W95776  32.108  41.355  13.407
34323W        W95777  21.649  13.250  13.863
34324W        W95778   7.263   8.894  13.843
34325W        W95779  28.652   5.756  11.074
34326W        W95780  43.952  11.853  12.885
34327W        W95781  34.091   0.348   3.350
34328W        W95782  22.615  23.108  13.055
34329W        W95783  14.643   0.894   3.302
34330W        W95784  27.541  17.736   4.798
34331W        W95785  12.253  18.613   1.846
34332W        W95786  44.791  30.115   4.289
34333W        W95787  16.086   8.858  14.498
34334W        W95788  25.654  33.068  14.920
34335W        W95789  31.110   1.835  14.018
34336W        W95790   8.665  28.515   1.334
34337W        W95791   1.743  13.215   1.728
34338W        W95792  10.209   0.968  11.107
34339W        W95793   8.262  42.445  12.959
34340W        W95794   1.762  38.999  12.993
34341W        W95795  35.060   1.261  12.855
34342W        W95796  41.330  26.493  14.395
34343W        W95797  14.765  38.353  12.364
34344W        W95798  13.302   3.870   0.422
34345W        W95799  30.062  24.149   2.696
34346W        W95800  11.733  43.878  10.642
34347W        W95801  40.921  29.944   2.183
34348W        W95802  21.617  37.435   4.220
34349W        W95803   7.738  40.991   3.776
34350W        W95804   4.829  30.488  12.067
34351W        W95805  42.028   1.784  13.484
34352W        W95806  37.837  11.294   2.870
34353W        W95807  31.064   5.212  13.517
34354W        W95808  34.410  25.526  10.521
34355W        W95809  20.618  10.759  10.991
34356W        W95810  17.566  27.123   4.117
34357W        W95811  44.858  39.827   2.330
34358W        W95812  13.776  31.546   0.353
34359W        W95813  30.645  34.569   1.847
34360W        W95814  21.744  15.106   3.824
34361W        W95815  14.681   1.818  11.073
34362W        W95816  38.537   6.372  12.436
34363W        W95817  20.723  24.133  10.896
34364W        W95818  19.195  40.499   3.293
34365W        W95819   8.830   3.833   3.373
34366W        W95820  11.774   4.713   2.840
34367W        W95821  11.185  33.478   2.396
34368W        W95822   5.923  42.307  14.487
34369W        W95823  42.388  28.983  14.514
34370W        W95824  20.533  17.250   4.174
34371W        W95825  40.478  37.478  14.026
34372W        W95826  44.782  10.287   4.322
34373W        W95827  13.320  26.479  14.832
34374W        W95828  11.285  14.114   2.795
34375W        W95829  22.046  24.698  10.991
34376W        W95830  37.494  24.675   3.847
34377W        W95831  21.596  16.244   0.329
34378W        W95832  23.084   9.793   3.749
34379W        W95833  30.130   2.259  12.383
34380W        W95834  12.217  12.852   3.730
34381W        W95835  15.595  12.359  12.041
34382W        W95836  35.437   4.732   4.738
34383W        W95837  22.602  26.566   0.439
34384W        W95838   3.409  27.067  14.337
34385W        W95839  43.363  36.393   2.416
34386W        W95840  33.973  26.652   3.773
34387W        W95841   0.416   3.953   1.867
34388W        W95842   1.954  17.231  10.607
34389W        W95843  34.093  14.185   1.393
34390W        W95844  39.557  23.493  12.345
34391W        W95845   9.171  22.084   3.369
34392W        W95846  33.963  24.224  13.426
34393W        W95847   2.239  43.421   1.248
34394W        W95848  10.151  42.304   0.271
34395W        W95849  18.624  33.075  14.950
34396W        W95850   3.455  11.142   3.710
34397W        W95851  39.532  29.498  11.872
34398W        W95852  19.581  24.217  10.591
34399W        W95853   7.299  22.169  12.428
34400W        W95854  32.106   2.890  14.887
34401W        W95855  18.269  27.057   2.862
34402W        W95856   7.342  23.523   2.892
34403W        W95857  31.915  30.516  12.989
34404W        W95858  10.641   2.914  11.545
34405W        W95859  27.183   0.260   4.175
34406W        W95860   6.777  21.057   1.231
34407W        W95861  38.498  38.518   3.293
34408W        W95862  35.383  13.754   2.832
34409W        W95863   1.375   0.919   2.339
34410W        W95864  42.459  31.907   4.333
34411W        W95865  18.282  30.017  12.955
34412W        W95866  27.159  20.630   4.825
34413W        W95867  40.013  20.207   4.253
34414W        W95868  45.000  27.078   3.321
34415W        W95869  11.306  28.443   0.910
34416W        W95870  40.493   1.841   5.195
34417W        W95871  17.734   2.935   0.732
34418W        W95872   8.841  40.501  14.875
34419W        W95873  34.389  11.192  13.061
34420W        W95874  39.491  43.888   2.741
34421W        W95875  17.780  38.550   1.328
34422W        W95876  26.094  14.237  11.529
34423W        W95877  31.035  22.569  14.514
34424W        W95878  35.934  40.484   4.265
34425W        W95879  33.977   4.388  14.499
34426W        W95880   1.823   8.900   0.911
34427W        W95881   2.914  16.201   0.260
34428W        W95882  18.688   7.790   3.154
34429W        W95883  33.606  39.343  11.036
34430W        W95884  34.013  33.386   0.341
34431W        W95885  30.592   8.702  13.354
34432W        W95886  24.625   4.862   1.852
34433W        W95887  41.414  35.905  13.940
34434W        W95888  41.030   0.363   3.360
34435W        W95889  29.589  40.358  14.910
34436W        W95890   5.201  33.408   4.789
34437W        W95891  12.783  12.180  14.977
34438W        W95892  35.974  36.537   4.260
34439W        W95893  22.134   8.663  13.995
34440W        W95894   6.809  36.502   3.380
34441W        W95895  33.112  42.478   2.269
34442W        W95896  30.426  30.461   4.174
34443W        W95897   3.397  16.211  14.507
34444W        W95898  34.990   9.262   3.373
34445W        W95899  21.177  15.617   3.641
34446W        W95900  19.583   7.700   4.142
34447W        W95901  28.027  29.580  14.510
34448W        W95902  26.159  26.028   2.301
34449W        W95903  15.089  30.551   4.708
34450W        W95904  44.756  20.054   2.887
34451W        W95905   0.915   5.758  10.142
34452W        W95906  27.463  14.641   4.241
34453W        W95907   7.356  19.218   1.430
34454W        W95908   0.265  27.104   4.821
34455W        W95909  41.537  13.669   4.625
34456W        W95910  16.093  39.833   4.679
34457W        W95911  25.478  21.237  13.327
34458W        W95912  10.344  42.916   1.217
34459W        W95913  43.440  37.492  13.423
34460W        W95914   9.710  13.673   3.357
34461W        W95915  16.306  14.599   2.347
34462W        W95916   6.204  13.665  11.986
34463W        W95917  29.005  43.994  14.759
34464W        W95918  24.660   7.731   3.279
34465W        W95919  31.004  33.579  12.445
34466W        W95920  29.149  22.143   0.433
34467W        W95921  15.189  13.760   0.282
34468W        W95922  40.418  34.505  10.015
34469W        W95923  33.083  26.649   0.473
34470W        W95924  37.019  42.846  12.059
34471W        W95925   1.237   4.257  13.049
34472W        W95926  23.218  37.483  12.414
34473W        W95927  35.944  16.617   3.375
34474W        W95928   5.349  25.071  13.429
34475W        W95929  37.467  14.188   0.782
34476W        W95930  44.391  13.118   2.235
34477W        W95931  31.070  29.964  10.912
34478W        W95932   0.952   3.916  14.275
34479W        W95933  43.935  12.644   2.200
34480W        W95934  32.951  23.999   0.819
34481W        W95935  15.153  37.442   2.676
34482W        W95936  19.638  20.158   4.193
34483W        W95937  43.352   2.724  10.990
34484W        W95938  23.608  24.633  11.518
34485W        W95939  40.315   1.953   2.849
34486W        W95940  35.049  18.137   1.381
34487W        W95941  23.697  35.031   2.200
34488W        W95942  12.854   1.329  12.935
34489W        W95943  31.420  11.317  11.871
34490W        W95944  10.271   0.437   0.909
34491W        W95945  29.521  31.998  14.287
34492W        W95946   2.450  23.115   4.635
34493W        W95947   8.694  20.631   2.751
34494W        W95948  15.164  44.790  13.918
34495W        W95949  21.723   9.822  11.494
34496W        W95950  10.683  44.322  13.310
34497W        W95951  42.927  11.173  12.571
34498W        W95952   0.363   0.818  12.831
34499W        W95953  43.318  36.898   1.716
34500W        W95954   7.287  22.025  14.016
34501W        W95955  37.417  37.974   4.806
34502W        W95956   9.764  32.476  11.393
34503W        W95957  16.116  11.167   4.278
34504W        W95958  36.575  23.560   4.805
34505W        W95959  31.053  19.761  12.863
34506W        W95960  35.399   9.863   3.217
34507W        W95961  18.082  14.820   4.783
34508W        W95962   6.805  27.055   2.822
34509W        W95963   9.890   2.954  14.276
34510W        W95964   6.372   9.817  10.467
34511W        W95965  23.053   8.311   3.183
34512W        W95966   3.848  27.003  12.526
34513W        W95967  13.209   5.853   1.908
34514W        W95968  28.437  23.567  10.958
34515W        W95969  17.773  13.139  14.280
34516W        W95970   6.309  22.251  13.011
34517W        W95971  32.394  37.394  11.944
34518W        W95972  43.003  17.299  11.095
34519W        W95973  38.536  29.479   2.283
34520W        W95974  42.877  30.495   2.889
34521W        W95975  35.880  33.525  14.769
34522W        W95976  13.829  32.105   4.832
34523W        W95977  27.016  31.920   0.936
34524W        W95978  15.824  40.890  10.098
34525W        W95979  17.088   6.300  14.779
34526W        W95980  33.582  32.904  12.972
34527W        W95981  28.434   6.242  14.005
34528W        W95982  27.456  19.087  13.856
34529W        W95983  44.821  44.804  12.838
34530W        W95984  32.581   5.703   4.602
34531W        W95985  25.019  31.016   1.722
34532W        W95986  27.653  31.617  11.462
34533W        W95987  26.473  11.721  13.854
34534W        W95988  40.443  35.869   2.255
34535W        W95989  13.793  41.022  12.960
34536W        W95990  31.096   1.438  10.602
34537W        W95991  37.877  33.397  14.301
34538W        W95992  21.249   6.807  13.451
34539W        W95993   9.318  34.064  11.412
34540W        W95994  20.604   4.325  14.282
34541W        W95995   9.376  31.636  14.787
34542W        W95996  12.726  36.955  14.289
34543W        W95997  19.668   7.221  10.076
34544W        W95998   6.795   3.248   3.201
34545W        W95999  37.350  23.628  10.430
34546W        W96000  43.349   7.800  10.474
34547W        W96001  12.818  14.282   3.337
34548W        W96002  20.580  13.301   1.270
34549W        W96003  34.514  44.427  14.799
34550W        W96004   9.751  34.040  12.427
34551W        W96005  25.522  18.559  11.993
34552W        W96006  40.345   2.437  11.930
34553W        W96007  10.382  26.009   1.274
34554W        W96008  26.690  35.370   3.254
34555W        W96009  32.570  14.815   3.275
34556W        W96010  36.463  44.943  14.471
34557W        W96011  38.443   0.329   3.795
34558W        W96012   0.787  26.683   0.770
34559W        W96013  37.458   6.827  12.456
34560W        W96014  16.246  28.450   2.298
34561W        W96015  39.892   6.736  10.931
34562W        W96016  22.086  28.501  11.568
34563W        W96017  37.384  15.820   4.636
34564W        W96018  36.455  21.707  10.996
34565W        W96019  22.123  11.368   1.289
34566W        W96020  16.094  29.647  11.543
34567W        W96021  43.977  36.082  13.513
34568W        W96022  34.503  40.524  14.006
34569W        W96023   0.378  35.912   4.638
34570W        W96024  41.898  24.681   0.439
34571W        W96025  37.343   8.277   4.216
34572W        W96026  12.828  10.663  14.837
34573W        W96027  35.452  42.454   0.856
34574W        W96028  22.065  34.421  11.054
34575W        W96029  18.683  28.085  14.311
34576W        W96030  11.268  31.402   3.371
34577W        W96031  40.439  28.105   4.799
34578W        W96032  39.955  11.819  10.554
34579W        W96033  33.597  24.578  14.896
34580W        W96034  28.032  43.996  14.281
34581W        W96035  10.309  18.053  13.538
34582W        W96036   2.357   2.403  11.122
34583W        W96037  31.413  34.069   3.166
34584W        W96038  31.458   0.354   3.666
34585W        W96039  24.190   1.462  11.114
34586W        W96040  35.090  12.843   1.759
34587W        W96041  26.641  24.617   2.309
34588W        W96042  22.581  17.274   1.425
34589W        W96043   9.214  44.917  14.803
34590W        W96044   4.804  20.692   4.174
34591W        W96045  32.076  20.620   3.764
34592W        W96046  31.636   2.911   2.277
34593W        W96047  16.235  12.703   2.730
34594W        W96048  38.484   8.368   2.901
34595W        W96049  20.528  36.970  11.515
34596W        W96050  24.993  12.150   1.929
34597W        W96051  36.572   5.273   0.830
34598W        W96052  36.995   0.337  11.533
34599W        W96053   0.958   1.928  12.929
34600W        W96054  27.632  40.412   1.794
34601W        W96055  29.057  10.773   0.743
34602W        W96056   4.712  35.878   3.645
34603W        W96057  28.462  15.148  14.374
34604W        W96058  24.611  36.928   4.771
34605W        W96059  13.186   6.231   2.413
34606W        W96060  25.521  31.506  11.879
34607W        W96061   8.261   7.781   1.326
34608W        W96062  25.627  38.531  13.433
34609W        W96063  31.073  17.120   1.270
34610W        W96064  30.060  12.747   1.267
34611W        W96065  38.426   2.242   4.259
34612W        W96066   3.810  32.523  12.943
34613W        W96067  20.273  35.564   2.212
34614W        W96068  42.874  15.821   1.818
34615W        W96069  21.230  34.928   3.666
34616W        W96070   8.829  34.409   5.126
34617W        W96071  41.309  11.319  14.824
34618W        W96072  22.667  35.510   3.280
34619W        W96073  23.643  41.308   1.233
34620W        W96074  16.297  28.638  12.999
34621W        W96075  33.028   4.431  10.527
34622W        W96076   5.317  39.914  14.506
34623W        W96077   9.688  36.392   3.196
34624W        W96078  29.135   7.680   4.768
34625W        W96079  14.179  20.248   9.983
34626W        W96080  31.036  28.056  10.639
34627W        W96081  10.635  19.603  10.005
34628W        W96082  41.462   3.778  11.920
34629W        W96083   2.921  38.969   3.788
34630W        W96084   5.703  33.079  12.388
34631W        W96085  19.210   1.818   1.339
34632W        W96086  38.927  31.073  14.777
34633W        W96087   0.436   3.440  12.856
34634W        W96088  35.067  40.446  12.047
34635W        W96089  38.373  16.152  10.407
34636W        W96090  18.554  14.709   9.964
34637W        W96091  27.120  38.043   2.401
34638W        W96092  24.636   1.953   4.666
34639W        W96093  11.767  11.832  10.958
34640W        W96094  29.633  22.550   5.596
34641W        W96095  44.894   5.719   0.376
34642W        W96096  33.103  33.962  12.938
34643W        W96097  21.155  44.292  13.955
34644W        W96098  43.803  35.860  14.969
34645W        W96099  40.359  11.281  14.420
34646W        W96100  12.767  18.572   0.911
34647W        W96101  28.473  25.493  12.046
34648W        W96102  20.640  43.777   1.729
34649W        W96103   3.757  43.334   0.810
34650W        W96104  30.640  10.793  12.349
34651W        W96105  10.643  13.296  14.773
34652W        W96106  34.012  10.705   2.882
34653W        W96107   3.712  44.010   0.927
34654W        W96108  29.984   9.233   4.638
34655W        W96109  31.484  40.833   1.383
34656W        W96110  34.402   8.788   3.221
34657W        W96111  21.208  38.459   0.809
34658W        W96112  13.720   6.834  12.519
34659W        W96113  23.498   3.287  11.486
34660W        W96114  34.452  20.698   4.199
34661W        W96115  34.426   3.934   1.873
34662W        W96116  26.482  31.423  10.975
34663W        W96117   8.830  29.034   3.387
34664W        W96118  36.508   1.889   1.281
34665W        W96119   8.358  42.962  14.798
34666W        W96120  36.037   5.439   0.847
34667W        W96121  38.499  25.702   0.248
34668W        W96122  23.503  30.041  14.997
34669W        W96123  33.605  37.940  14.028
34670W        W96124  16.738  26.963  12.926
34671W        W96125  42.334  37.378   3.372
34672W        W96126  30.429  35.530   2.341
34673W        W96127   6.699   3.858  11.548
34674W        W96128  41.989  33.112   3.350
34675W        W96129  43.831   2.369   2.899
34676W        W96130  32.411  31.468  12.435
34677W        W96131  38.928  37.482  14.931
34678W        W96132  29.568  13.235   0.797
34679W        W96133  34.954  44.834  14.820
34680W        W96134   4.372  18.781  12.834
34681W        W96135   4.799  35.058  10.450
34682W        W96136  14.153  34.895   1.754
34683W        W96137  33.052  13.601  14.770
34684W        W96138  35.004  22.236   1.424
34685W        W96139  18.217  30.082  14.896
34686W        W96140  14.757  42.847  12.042
34687W        W96141  20.684  34.926  11.599
34688W        W96142   5.766  37.434   2.730
34689W        W96143  24.495  15.667   2.414
34690W        W96144  17.775  31.128   0.770
34691W        W96145  37.995  38.048   0.917
34692W        W96146   9.273   7.366  14.279
34693W        W96147  39.883  26.545  13.792
34694W        W96148  16.188  29.100   2.368
34695W        W96149  12.132  32.985   1.709
34696W        W96150  13.126  31.486   4.726
34697W        W96151   3.869  27.462   4.753
34698W        W96152   4.426  27.032   3.260
34699W        W96153  30.946  22.747   1.849
34700W        W96154  18.053  17.203   3.828
34701W        W96155   9.696  37.881   0.300
34702W        W96156  33.097   7.302   1.434
34703W        W96157  34.948   0.443  14.446
34704W        W96158  39.404  39.906  12.557
34705W        W96159  15.659  32.137   1.393
34706W        W96160  42.437  27.480   3.204
34707W        W96161  40.524  27.493   4.754
34708W        W96162  33.404  18.690   4.177
34709W        W96163   0.481  33.577   2.313
34710W        W96164  43.325  38.451  10.515
34711W        W96165  39.967  15.733   4.205
34712W        W96166  37.374  14.161   1.864
34713W        W96167  29.943   4.203   1.251
34714W        W96168  25.969   9.218   0.763
34715W        W96169  35.373  17.796  12.091
34716W        W96170  20.534  20.723  13.894
34717W        W96171  14.801  19.573  14.328
34718W        W96172  44.408  42.297  12.011
34719W        W96173   3.270  12.784  12.095
34720W        W96174   5.841   4.321   1.426
34721W        W96175  26.175   8.215  12.068
34722W        W96176   1.313  10.242  10.618
34723W        W96177  15.631  11.297  14.827
34724W        W96178   1.453   6.310  11.425
34725W        W96179  36.540  40.052   5.247
34726W        W96180   8.192  23.698  14.409
34727W        W96181  15.229   0.906   0.842
34728W        W96182  44.996  40.907  12.530
34729W        W96183  32.993  44.333  12.387
34730W        W96184  44.952   1.898   1.400
34731W        W96185  18.569  12.121  11.435
34732W        W96186  27.155  44.846   4.721
34733W        W96187  37.880   7.268  14.948
34734W        W96188  36.091   5.417   0.405
34735W        W96189  42.483  19.714   0.760
34736W        W96190  23.192  17.097  14.309
34737W        W96191  22.036  24.986  12.058
34738W        W96192  35.551   7.210   0.376
34739W        W96193  21.679  27.513  14.470
34740W        W96194  24.686  40.399   4.746
34741W        W96195  13.249  30.640  10.988
34742W        W96196  37.888   1.383  11.499
34743W        W96197  20.703  12.162   0.361
34744W        W96198  20.701  40.476   0.450
34745W        W96199  37.401  33.425  13.051
34746W        W96200  22.589  41.496   0.749
34747W        W96201   7.727  31.151  13.991
34748W        W96202   3.896  42.367  13.983
34749W        W96203  37.473  17.291  11.090
34750W        W96204  36.965  31.072  10.632
34751W        W96205  24.037  44.809   4.641
34752W        W96206  13.265   9.676   1.246
34753W        W96207  20.651  12.318   3.868
34754W        W96208  37.450  29.006  11.102
34755W        W96209  11.859  40.452   5.640
34756W        W96210  33.899   7.717   0.957
34757W        W96211  20.655  14.108   2.794
34758W        W96212  11.343  36.035  14.885
34759W        W96213   7.766   2.411   4.737
34760W        W96214   6.758  31.101   4.700
34761W        W96215  27.612  31.993   0.470
34762W        W96216  23.018  36.853  11.892
34763W        W96217  39.014  15.652  12.500
34764W        W96218  14.168  10.269   1.262
34765W        W96219  23.706  31.543   1.919
34766W        W96220  18.605  22.542  10.999
34767W        W96221   2.801  43.455  12.488
34768W        W96222  33.131  37.016   1.901
34769W        W96223   0.785  41.836   0.390
34770W        W96224   5.411  31.430  10.581
34771W        W96225  37.877  26.466  14.941
34772W        W96226  40.898  21.556  11.972
34773W        W96227  16.129  25.675  11.075
34774W        W96228  30.442  42.863   2.709
34775W        W96229  44.764  10.857   2.729
34776W        W96230   6.870  35.869  14.312
34777W        W96231  10.636  30.564   4.175
34778W        W96232  14.649  18.586  10.547
34779W        W96233  26.123  10.325  11.095
34780W        W96234  19.188  14.118  14.030
34781W        W96235  36.429  14.706  11.536
34782W        W96236  16.288  23.136  11.862
34783W        W96237   8.254  38.905   1.890
34784W        W96238  33.451   1.287   2.308
34785W        W96239  13.614   0.306   1.902
34786W        W96240  20.630  20.236   0.851
34787W        W96241  21.580  13.806   0.837
34788W        W96242  27.446  13.137  10.621
34789W        W96243  35.901  30.135  11.072
34790W        W96244   8.341  13.613  13.955
34791W        W96245  18.726  29.116   2.782
34792W        W96246  14.812  37.391  13.799
34793W        W96247  23.153   2.897  10.919
34794W        W96248  19.228  16.078   1.915
34795W        W96249  19.115  25.182   4.117
34796W        W96250   5.307  38.906   0.374
34797W        W96251   3.360  30.949   2.754
34798W        W96252  32.068  36.483  10.455
34799W        W96253   4.868  26.553  14.777
34800W        W96254   8.701   1.835   0.450
34801W        W96255  34.610  25.006   3.704
34802W        W96256  32.502  39.410  13.798
34803W        W96257  19.747  18.736  12.950
34804W        W96258   4.751  28.047   4.248
34805W        W96259  21.216  42.389  14.772
34806W        W96260  21.666  26.463  13.450
34807W        W96261   9.229  14.246   4.197
34808W        W96262  15.207  18.169   1.315
34809W        W96263   3.338  23.211   3.683
34810W        W96264  43.473  23.719  10.976
34811W        W96265  15.292  12.165  14.854
34812W        W96266   9.181  22.659  14.797
34813W        W96267  25.714   0.860  12.903
34814W        W96268  31.525   1.414  13.053
34815W        W96269  31.537  43.897  11.096
34816W        W96270  20.619   5.260  11.855
34817W        W96271  29.451  38.874  13.830
34818W        W96272  21.119  23.546  11.979
34819W        W96273   7.180  27.095   0.947
34820W        W96274   7.799  40.448  11.029
34821W        W96275   4.884  36.551  14.485
34822W        W96276   5.767   0.958  11.573
34823W        W96277  10.877  24.610  13.529
34824W        W96278  20.737  35.461   4.195
34825W        W96279  27.003  15.580  12.346
34826W        W96280  22.518  31.096  13.040
34827W        W96281   0.349  43.961  12.081
34828W        W96282   2.797  19.119   4.782
34829W        W96283  34.965  10.749  11.960
34830W        W96284   4.843  15.164  10.444
34831W        W96285   8.164   5.332  12.539
34832W        W96286  27.609  42.433   0.757
34833W        W96287  29.101  42.446  10.431
34834W        W96288  11.833  29.483   4.808
34835W        W96289  14.834  25.033  12.856
34836W        W96290  12.213   1.976  14.368
34837W        W96291   5.415  29.062   0.796
34838W        W96292  20.601  32.886  12.415
34839W        W96293  14.799   6.212   0.910
34840W        W96294  34.117   6.392   3.265
34841W        W96295  25.710  41.467   0.805
34842W        W96296  26.516  34.097  11.952
34843W        W96297   2.226  23.494  14.822
34844W        W96298  42.923  33.088   2.243
34845W        W96299  24.490  13.731  13.546
34846W        W96300  28.018  33.937  10.438
34847W        W96301  11.147  23.073  14.310
34848W        W96302  42.287   4.325   1.871
34849W        W96303  20.164  28.550   2.680
34850W        W96304   7.245  16.222  11.886
34851W        W96305   6.378  44.432  14.764
34852W        W96306  37.549  38.539  14.875
34853W        W96307  41.965  20.612  13.806
34854W        W96308  38.542  33.523  13.956
34855W        W96309   4.762  21.752   3.242
34856W        W96310  30.592   9.826  12.515
34857W        W96311  33.616  10.339   0.367
34858W        W96312  10.165  28.123  10.550
34859W        W96313  24.679  34.511  13.352
34860W        W96314  34.912  37.428  14.424
34861W        W96315  38.886  38.349   9.592
34862W        W96316   6.719   6.331  12.571
34863W        W96317  43.877  39.027   2.852
34864W        W96318  32.935   8.811   4.698
34865W        W96319  10.140  35.432  13.050
34866W        W96320  18.077   8.665  14.343
34867W        W96321  42.903   5.388   4.275
34868W        W96322  11.794  12.263   0.959
34869W        W96323  37.990  43.278  11.453
34870W        W96324   7.368  40.448   2.374
34871W        W96325  15.732   5.886   2.714
34872W        W96326   9.217  15.736   3.177
34873W        W96327  39.457  14.210   4.291
34874W        W96328  27.109   0.340   0.471
34875W        W96329  23.105  26.568  12.498
34876W        W96330  33.430  43.327  11.946
34877W        W96331   9.785   5.933   0.828
34878W        W96332  10.709  24.581  14.329
34879W        W96333  12.645   9.821   2.315
34880W        W96334  19.690  19.592   0.870
34881W        W96335  40.881  31.460  10.503
34882W        W96336  13.132  10.305   4.621
34883W        W96337   4.391   8.396   0.816
34884W        W96338   5.715  25.002  12.037
34885W        W96339  19.586   9.807   1.341
34886W        W96340   5.843  27.983   3.326
34887W        W96341  13.700  25.045   3.384
34888W        W96342  38.571   4.251   3.743
34889W        W96343  12.249  14.230   0.472
34890W        W96344  15.150  15.173   1.290
34891W        W96345  28.525  44.899   4.235
34892W        W96346   9.228  39.821  13.429
34893W        W96347  43.839  25.512  12.474
34894W        W96348  36.553  31.459  12.535
34895W        W96349  18.263  11.686   0.327
34896W        W96350  43.301  43.930  12.072
34897W        W96351  32.453  10.794   0.292
34898W        W96352  30.958   1.951  11.922
34899W        W96353  17.659  10.171  12.075
34900W        W96354  35.566  26.537  12.068
34901W        W96355  14.134  32.630   1.370
34902W        W96356  22.028  43.981   0.452
34903W        W96357  44.958  31.921  11.500
34904W        W96358  33.506  28.018  10.073
34905W        W96359  29.520  38.376   4.255
34906W        W96360  17.650  17.740  14.484
34907W        W96361  26.965  12.162  13.448
34908W        W96362  37.566   5.799   0.422
34909W        W96363  20.682  20.099   2.736
34910W        W96364  33.907  11.624  13.521
34911W        W96365  28.576  11.309   5.205
34912W        W96366  40.516  29.578  11.908
34913W        W96367  15.140   4.699  14.410
34914W        W96368  35.899  38.983   2.777
34915W        W96369   6.736  22.549   1.290
34916W        W96370   9.723  10.287   4.157
34917W        W96371  39.451  16.201   4.344
34918W        W96372  17.750  29.129   1.819
34919W        W96373  26.160  18.274  13.315
34920W        W96374  21.735  30.430   4.737
34921W        W96375  33.018   3.782  13.883
34922W        W96376   7.252  15.238   4.289
34923W        W96377  36.096  25.184  11.500
34924W        W96378  29.930  39.393   2.809
34925W        W96379  43.953  33.912   3.685
34926W        W96380   0.906  39.924  12.491
34927W        W96381  13.127  12.744  13.827
34928W        W96382  21.701  15.736  11.929
34929W        W96383  39.048   7.759   1.780
34930W        W96384   8.780  29.595   4.788
34931W        W96385   3.396  10.692   2.744
34932W        W96386   9.716  44.375  11.480
34933W        W96387  19.262  39.840   1.260
34934W        W96388   8.341  34.466   3.782
34935W        W96389  34.387  40.424  13.346
34936W        W96390  20.761  31.401  12.411
34937W        W96391  18.565  20.218  13.494
34938W        W96392  19.580   9.875   0.288
34939W        W96393  29.134  39.336  14.376
34940W        W96394   8.675   2.458   4.673
34941W        W96395  35.019  35.058   1.842
34942W        W96396  18.276  25.179   4.294
34943W        W96397  11.724  24.503  14.375
34944W        W96398  30.079  25.075   0.844
34945W        W96399  30.986   4.808  13.531
34946W        W96400   7.354  17.079  11.080
34947W        W96401  28.159   8.278  10.939
34948W        W96402  38.377  38.849  13.007
34949W        W96403  28.502  41.534  12.409
34950W        W96404   0.289  13.252  11.014
34951W        W96405  20.696  39.837   4.709
34952W        W96406  22.154   5.885   2.720
34953W        W96407  38.822  20.054   0.923
34954W        W96408   6.242  41.851  12.518
34955W        W96409  17.242  27.058  14.840
34956W        W96410  32.904  32.012   0.377
34957W        W96411  31.597  41.800  11.927
34958W        W96412  39.557  20.632  14.901
34959W        W96413  17.123  13.172  11.444
34960W        W96414  30.085  42.909   4.208
34961W        W96415  34.004  42.373  11.475
34962W        W96416  22.249   6.696  12.420
34963W        W96417  38.557  15.144   0.282
34964W        W96418  27.527  11.280  11.610
34965W        W96419  40.872  40.425  13.443
34966W        W96420   1.350  25.965  11.983
34967W        W96421  44.868   2.818  10.424
34968W        W96422  24.130  44.003  11.525
34969W        W96423  12.175  14.790  14.991
34970W        W96424  41.991  13.245   4.624
34971W        W96425  40.970  40.457  12.959
34972W        W96426  16.162   8.891   0.893
34973W        W96427  38.052  36.436  12.572
34974W        W96428  32.112  18.627   1.784
34975W        W96429   8.798  28.984   1.362
34976W        W96430  19.691   1.397  10.948
34977W        W96431  25.137  39.526  12.450
34978W        W96432  11.810  17.639   2.900
34979W        W96433  13.665  20.262  14.472
34980W        W96434  23.604   6.775   0.791
34981W        W96435  15.761  34.989  11.478
34982W        W96436  13.640  21.152  11.975
34983W        W96437  37.540  38.506  11.611
34984W        W96438  13.258  32.602  14.437
34985W        W96439   4.798  43.800   3.807
34986W        W96440   9.272  28.933  10.527
34987W        W96441   8.792  22.626  14.806
34988W        W96442   0.775   3.276  10.097
34989W        W96443  18.549  35.919   0.785
34990W        W96444  14.182  12.685  13.031
34991W        W96445  20.557   5.430   1.365
34992W        W96446  35.476  41.901  11.479
34993W        W96447  37.918  16.174   1.391
34994W        W96448  36.485  26.144   0.298
34995W        W96449   9.252  26.030  12.341
34996W        W96450   4.930  18.687  14.891
34997W        W96451  21.581  36.881  10.565
34998W        W96452   3.369  13.320   3.784
34999W        W96453  17.232  14.241   1.361
35000W        W96454  43.929  41.800  14.512
35001W        W96455  31.014   8.887  14.444
35002W        W96456  33.980  31.587  14.354
35003W        W96457  30.945  22.613   0.377
35004W        W96458   1.464  28.066  12.552
35005W        W96459  21.569   8.340  13.510
35006W        W96460  43.006  41.842   1.411
35007W        W96461  22.050  22.667   4.703
35008W        W96462  35.417  13.715   1.904
35009W        W96463  29.580  15.186   0.847
35010W        W96464  26.537  44.988  14.378
35011W        W96465  23.239  24.144  13.470
35012W        W96466  10.264  28.611   2.412
35013W        W96467  35.594   8.307  14.501
35014W        W96468   5.358  21.070  11.001
35015W        W96469  41.496   6.846   4.261
35016W        W96470  15.256  29.469  11.116
35017W        W96471  38.508  41.396  12.953
35018W        W96472  32.899  25.122   2.902
35019W        W96473  29.549  14.804  12.410
35020W        W96474  39.538   5.410   3.719
35021W        W96475   1.978  37.340   0.754
35022W        W96476  27.578  29.918   4.253
35023W        W96477  40.427  11.796  13.459
35024W        W96478  19.567  35.902  14.913
35025W        W96479  38.925  31.408   3.374
35026W        W96480  11.662  17.130   2.806
35027W        W96481   2.754   5.335   4.663
35028W        W96482  21.609  29.101  12.395
35029W        W96483  44.471  37.368   4.194
35030W        W96484  24.991  34.543  12.554
35031W        W96485  38.011   2.894   0.965
35032W        W96486  27.955  25.070  14.513
35033W        W96487  12.768  31.514  12.987
35034W        W96488  22.674   0.472   0.743
35035W        W96489  27.053  26.078  13.871
35036W        W96490  32.545  23.038  12.357
35037W        W96491   5.765  33.935   4.285
35038W        W96492  36.510  43.962   4.170
35039W        W96493  40.915  43.801  14.850
35040W        W96494  42.970  30.568   2.320
35041W        W96495  11.640  32.427  11.115
35042W        W96496  30.024  16.305   4.699
35043W        W96497   7.840  40.350   4.756
35044W        W96498  41.943  17.680  14.952
35045W        W96499  24.094   3.455  10.446
35046W        W96500   8.375  44.865   1.826
35047W        W96501  39.972  35.463  12.411
35048W        W96502   7.875   8.390  10.603
35049W        W96503  11.805   4.844  11.940
35050W        W96504  24.994  43.388  11.393
35051W        W96505  14.325   3.891   0.432
35052W        W96506   7.413  42.992  14.416
35053W        W96507   3.324  13.119  12.935
35054W        W96508   2.247  18.075   1.837
35055W        W96509  20.677  21.678   0.424
35056W        W96510  29.634  21.601  11.944
35057W        W96511  41.824  35.905  12.907
35058W        W96512  32.417  41.431   4.223
35059W        W96513  23.146   4.927   3.212
35060W        W96514   9.784  41.466  11.389
35061W        W96515   0.434  44.786   1.342
35062W        W96516   8.351  25.594  10.965
35063W        W96517   8.852  25.085  11.915
35064W        W96518  25.124  17.582   4.640
35065W        W96519  20.580   5.365   1.875
35066W        W96520  34.535  23.088   1.754
35067W        W96521  20.050  40.347   2.735
35068W        W96522  11.336   7.194   4.351
35069W        W96523  31.951  33.600  11.378
35070W        W96524   0.362  15.160  14.303
35071W        W96525  21.192  37.902  11.970
35072W        W96526   6.872  34.528   4.642
35073W        W96527  35.093  32.486  13.970
35074W        W96528  37.015  24.723   0.424
35075W        W96529   2.932  42.336  11.491
35076W        W96530  40.023  30.491  14.004
35077W        W96531  30.475  41.409   2.889
35078W        W96532  31.131  18.068   4.761
35079W        W96533  36.860  27.612   2.871
35080W        W96534  21.528  26.516   4.194
35081W        W96535  27.555  39.498  11.087
35082W        W96536  13.350  23.729  12.514
35083W        W96537  25.475  18.709   4.192
35084W        W96538  19.658  32.530  14.952
35085W        W96539  32.961  43.861   1.730
35086W        W96540  31.419  20.273  11.914
35087W        W96541  30.424  24.038  11.065
35088W        W96542  33.056   5.696  14.447
35089W        W96543  20.764  43.000   2.896
35090W        W96544  16.811  16.766  10.549
35091W        W96545  14.305  38.936   3.287
35092W        W96546  30.972  24.169   5.093
35093W        W96547  42.019  34.094   3.687
35094W        W96548  31.039  14.162   3.671
35095W        W96549  28.970   8.667  12.031
35096W        W96550  30.483  37.068   3.183
35097W        W96551   3.885   2.869   0.938
35098W        W96552  33.928   6.262  11.079
35099W        W96553  12.826  39.825   3.273
35100W        W96554  26.506  32.139   0.804
35101W        W96555   9.199   3.749  14.929
35102W        W96556   1.465  39.316   3.217
35103W        W96557  26.096  42.459   1.226
35104W        W96558  42.001  18.062  13.380
35105W        W96559  22.584  21.069   0.952
35106W        W96560   5.719   5.906  14.286
35107W        W96561  19.147  19.686   1.427
35108W        W96562  13.210   8.670  12.451
35109W        W96563  16.150  21.085  11.897
35110W        W96564  18.189  15.325  13.367
35111W        W96565   5.853  34.499  12.446
35112W        W96566  16.168  33.915   3.232
35113W        W96567  30.429  30.144  14.843
35114W        W96568  43.915  25.536   3.241
35115W        W96569  17.739  20.719  12.870
35116W        W96570  44.469  28.672  14.803
35117W        W96571  36.532   5.404   3.662
35118W        W96572   6.720  13.145   1.321
35119W        W96573  10.244   2.955  14.018
35120W        W96574  16.666  24.020   0.917
35121W        W96575   1.819  43.465   3.773
35122W        W96576  22.010  25.605   4.803
35123W        W96577  18.276  11.335   1.349
35124W        W96578  10.227   4.726   2.345
35125W        W96579  17.646  37.346   1.857
35126W        W96580   4.833  23.117   3.632
35127W        W96581  24.567   1.321   4.292
35128W        W96582  18.229  30.428  14.000
35129W        W96583  11.235  41.428  13.924
35130W        W96584   3.460  39.467  10.974
35131W        W96585  34.574  32.052  13.018
35132W        W96586  15.744  32.497   0.311
35133W        W96587  26.663   3.727   2.208
35134W        W96588  38.973  29.506  12.494
35135W        W96589  31.614  10.811  12.025
35136W        W96590  31.981   3.415   3.761
35137W        W96591  28.951  39.352  10.638
35138W        W96592  19.565  21.247  12.086
35139W        W96593   7.375  20.538   1.250
35140W        W96594  29.606   4.891  10.979
35141W        W96595   3.878  40.021   1.430
35142W        W96596  10.232  22.075   0.951
35143W        W96597   3.839  43.311   1.749
35144W        W96598  39.888  33.050  13.447
35145W        W96599  13.816  36.566   4.831
35146W        W96600   8.179   2.250  10.930
35147W        W96601   6.790  15.102   3.333
35148W        W96602  35.444  43.291   2.373
35149W        W96603  39.397  18.624  12.460
35150W        W96604   2.446  42.014   4.245
35151W        W96605  44.460  19.687  14.280
35152W        W96606  14.252  37.840   1.325
35153W        W96607   3.854  43.845  14.300
35154W        W96608  31.546  43.315   1.857
35155W        W96609  17.755  10.713  11.957
35156W        W96610  11.748   3.403  13.936
35157W        W96611  36.384  34.502   1.828
35158W        W96612  38.447  13.143   0.273
35159W        W96613  28.440   1.356   0.452
35160W        W96614  24.494  29.480   4.190
35161W        W96615  24.528  15.740  13.497
35162W        W96616   4.277   5.822   1.342
35163W        W96617  17.664  15.269   2.855
35164W        W96618   0.900   4.261  12.560
35165W        W96619  39.928   1.885   3.257
35166W        W96620  22.651  24.626  11.993
35167W        W96621   2.961  16.594   4.303
35168W        W96622  20.760  25.684   4.688
35169W        W96623  33.456  32.916   4.327
35170W        W96624  36.414  10.728   4.833
35171W        W96625  28.443  19.152  11.566
35172W        W96626   1.925  25.065   2.350
35173W        W96627   9.317   1.833  13.853
35174W        W96628  28.509  19.550  11.051
35175W        W96629  31.152  33.942   3.174
35176W        W96630  13.746   4.795  11.523
35177W        W96631  19.229  27.173  11.911
35178W        W96632  17.748   6.244   4.140
35179W        W96633  40.424  27.086  14.352
35180W        W96634  40.445   0.947   0.318
35181W        W96635  35.934   5.230  13.818
35182W        W96636  33.426  34.376  11.859
35183W        W96637   2.906   8.811  14.806
35184W        W96638  35.922  29.962   3.665
35185W        W96639  39.495  15.604   2.216
35186W        W96640  22.521  32.483   2.755
35187W        W96641  18.172  11.252   0.339
35188W        W96642   1.844  20.271  11.996
35189W        W96643  22.571  38.065   2.822
35190W        W96644  12.766  11.305   4.209
35191W        W96645  26.512  44.848   2.838
35192W        W96646  32.094  23.619  11.379
35193W        W96647  24.076  11.339   4.216
35194W        W96648   5.707  40.894   3.856
35195W        W96649  26.084   1.796   3.244
35196W        W96650  24.051  12.779   1.272
35197W        W96651  26.478  18.178   0.795
35198W        W96652  36.075   1.973   0.395
35199W        W96653  21.708  41.355  11.040
35200W        W96654   6.253  31.019  12.949
35201W        W96655  30.575  40.400  10.459
35202W        W96656  25.645  30.137   0.861
35203W        W96657  43.513  28.964   2.848
35204W        W96658   6.755  37.949   1.767
35205W        W96659  38.822  27.186  13.482
35206W        W96660  25.610  23.547  14.285
35207W        W96661   9.257  15.582  12.348
35208W        W96662   0.825  44.431   1.288
35209W        W96663   5.293  16.616   1.430
35210W        W96664  28.140   3.925  12.884
35211W        W96665  28.565  19.585  12.865
35212W        W96666  29.592  19.602   3.712
35213W        W96667  20.625  20.089   2.253
35214W        W96668  35.475  21.181   4.745
35215W        W96669  18.618   6.836   1.701
35216W        W96670  28.055  35.532   0.937
35217W        W96671  32.398  17.133   2.308
35218W        W96672  39.482  38.875   1.765
35219W        W96673  25.202  38.875   1.259
35220W        W96674  30.127  40.335   1.301
35221W        W96675  37.400  14.332   5.262
35222W        W96676  39.839  35.876   3.299
35223W        W96677  26.470  21.188  14.775
35224W        W96678   4.328  18.179  11.938
35225W        W96679  43.966  24.020   0.848
35226W        W96680  39.032  40.871  14.821
35227W        W96681  20.577   3.277  11.591
35228W        W96682  10.228  39.046  10.535
35229W        W96683  14.756   8.312  12.841
35230W        W96684   3.445  26.577   1.847
35231W        W96685  44.293  35.505   3.778
35232W        W96686   4.917  18.119  10.962
35233W        W96687  14.274   5.334  12.544
35234W        W96688  14.264  21.132   1.860
35235W        W96689  33.522  18.174  10.052
35236W        W96690  19.044   9.246   3.747
35237W        W96691  28.938  23.013   3.383
35238W        W96692  32.122  23.606   0.447
35239W        W96693   9.744  13.275  11.907
35240W        W96694  30.151   7.327  11.445
35241W        W96695  16.105  37.917   4.800
35242W        W96696  28.031  29.070   5.087
35243W        W96697   6.843  40.855  14.918
35244W        W96698  25.005  19.712  12.922
35245W        W96699  19.284  26.550   0.320
35246W        W96700  27.172  29.985   2.687
35247W        W96701   3.411   9.852  14.012
35248W        W96702  30.142  31.637   5.143
35249W        W96703  11.196  23.646  10.993
35250W        W96704  37.882  38.822  14.464
35251W        W96705  41.993  36.011   0.794
35252W        W96706  34.483  16.790   2.674
35253W        W96707  14.257  37.369   1.378
35254W        W96708  28.974   0.844   1.231
35255W        W96709  12.768  22.521  14.416
35256W        W96710   5.258  24.569   2.669
35257W        W96711  18.143  20.738  11.070
35258W        W96712  33.537  36.861   0.762
35259W        W96713  37.452  24.489   3.324
35260W        W96714  32.507  39.547   2.332
35261W        W96715  17.169  41.432  10.534
35262W        W96716  37.579  18.295   1.884
35263W        W96717  20.534  14.274   3.203
35264W        W96718  16.595   5.790  12.858
35265W        W96719  15.122  35.360  13.325
35266W        W96720  13.830  13.285   3.651
35267W        W96721  23.693  11.864   4.684
35268W        W96722  28.177  30.640   3.379
35269W        W96723  34.957  34.915  12.058
35270W        W96724  16.284  17.164   0.271
35271W        W96725  27.535  28.517   4.272
35272W        W96726  18.717  38.053  14.790
35273W        W96727   6.900   6.778  13.970
35274W        W96728  27.608  39.835  12.968
35275W        W96729   3.803  36.004  14.872
35276W        W96730   8.274  44.853   4.269
35277W        W96731  34.568  33.552  12.466
35278W        W96732   1.256   6.397   1.337
35279W        W96733  18.643  28.632  14.828
35280W        W96734  13.109  26.023  14.867
35281W        W96735  26.075   7.188   4.295
35282W        W96736   3.343  26.041  12.987
35283W        W96737  21.018  37.085   3.280
35284W        W96738  36.360  36.561   4.214
35285W        W96739  12.176  36.059   0.458
35286W        W96740  26.583   4.796   0.949
35287W        W96741   3.215  44.328   0.810
35288W        W96742   9.746   5.867  13.979
35289W        W96743   2.808   8.860   0.296
35290W        W96744  21.740  19.141  14.379
35291W        W96745  13.702  16.316   3.845
35292W        W96746  36.848  20.662   0.772
35293W        W96747  33.435   6.393   4.206
35294W        W96748  27.024  29.965   1.401
35295W        W96749  26.136   6.906   0.347
35296W        W96750  28.010  34.067   5.136
35297W        W96751  12.673  25.132  13.313
35298W        W96752  16.301  33.010   3.198
35299W        W96753  21.183  33.489   5.212
35300W        W96754  10.876   9.391   0.870
35301W        W96755   2.732  34.084   3.218
35302W        W96756  33.002  43.793   3.308
35303W        W96757  23.592  20.598   1.342
35304W        W96758   2.461  20.030  10.521
35305W        W96759   1.877   8.230  11.950
35306W        W96760  16.576   1.801   2.850
35307W        W96761  36.011  34.538  10.492
35308W        W96762  38.839  28.974   2.812
35309W        W96763  27.513  11.625   3.660
35310W        W96764  12.763  17.739  12.507
35311W        W96765  33.045  33.501  14.842
35312W        W96766  22.627  37.961   1.914
35313W        W96767  27.479  22.045  11.866
35314W        W96768  23.005  25.045  10.600
35315W        W96769  10.337   1.276  13.051
35316W        W96770   8.222  16.778   1.758
35317W        W96771  25.064  10.295  14.413
35318W        W96772   7.902   5.270   1.796
35319W        W96773  29.555  38.870   4.116
35320W        W96774  19.190  27.164   1.439
35321W        W96775  29.997  36.845  10.643
35322W        W96776  29.102  32.393  11.591
35323W        W96777  37.401  18.092  10.625
35324W        W96778  31.942  30.616   1.366
35325W        W96779  39.034   4.315  14.003
35326W        W96780  12.333  14.760  13.353
35327W        W96781  15.617   1.333  12.923
35328W        W96782  33.615  13.194  14.001
35329W        W96783  32.034   0.748  11.027
35330W        W96784  23.523  23.706  13.365
35331W        W96785  22.597   9.742   0.424
35332W        W96786   3.397  43.433  13.511
35333W        W96787  36.924  26.005  10.965
35334W        W96788   5.750  31.465   0.303
35335W        W96789  16.222  24.586  14.020
35336W        W96790  42.496  42.940   2.825
35337W        W96791   9.657   2.740   2.327
35338W        W96792  41.034  10.734   2.386
35339W        W96793  37.336  27.046  12.497
35340W        W96794   9.281   1.394  10.565
35341W        W96795   3.946  25.633   4.609
35342W        W96796  14.622   2.953   1.917
35343W        W96797  39.456  36.095   0.275
35344W        W96798  17.558  26.031  11.495
35345W        W96799  17.181  16.719   4.249
35346W        W96800  37.858  29.572   4.824
35347W        W96801  31.436  30.138  12.085
35348W        W96802  40.033   7.195   0.746
35349W        W96803  29.176  11.718  11.974
35350W        W96804  34.495  12.783   5.312
35351W        W96805  30.912  41.850  12.484
35352W        W96806   2.843   8.397  11.447
35353W        W96807  22.087  33.993  14.853
35354W        W96808  42.813   3.926   4.645
35355W        W96809  24.179  22.660   3.153
35356W        W96810  37.536  10.203  14.407
35357W        W96811  11.855  27.156   1.835
35358W        W96812  15.805  32.031  13.893
35359W        W96813  21.044  11.197  14.006
35360W        W96814  43.788  10.705   0.245
35361W        W96815  18.570   8.217  13.995
35362W        W96816  34.000  18.690  14.926
35363W        W96817  38.342  28.993   0.452
35364W        W96818  40.385   2.722   3.752
35365W        W96819  31.578  44.906  12.833
35366W        W96820  39.499  42.896   9.543
35367W        W96821  42.511  40.466  11.891
35368W        W96822  39.514  26.095  13.008
35369W        W96823  31.506   7.282  11.037
35370W        W96824  22.730   5.395  14.445
35371W        W96825  38.033  30.580  11.597
35372W        W96826  16.609  31.407   3.768
35373W        W96827  16.638  13.835   2.866
35374W        W96828  15.735   0.317  14.411
35375W        W96829   5.208  41.412  13.063
35376W        W96830  22.701  36.593  13.492
35377W        W96831   5.198  35.098  12.027
35378W        W96832  35.437  34.383   3.156
35379W        W96833  22.747   6.420   4.807
35380W        W96834  38.058   0.261   0.924
35381W        W96835  13.275  12.353  12.092
35382W        W96836   9.276  41.962   3.697
35383W        W96837  14.725  24.580  14.322
35384W        W96838   8.720  28.176  13.431
35385W        W96839   5.416  22.729   4.143
35386W        W96840  19.102  29.121  14.348
35387W        W96841   1.476  13.772   4.326
35388W        W96842  20.533   1.348   4.178
35389W        W96843  39.342  41.827   3.156
35390W        W96844  30.420  11.662  11.855
35391W        W96845  26.457  15.291  11.080
35392W        W96846  17.175  29.934  14.930
35393W        W96847  38.943  14.740  11.481
35394W        W96848  10.841  33.064  10.979
35395W        W96849  39.954  18.550   3.382
35396W        W96850  22.123  25.082   2.773
35397W        W96851  21.217  39.881   2.684
35398W        W96852  35.396   1.424  12.407
35399W        W96853  20.613  20.700  14.828
35400W        W96854  31.072  34.570  13.307
35401W        W96855  37.549  33.383   1.362
35402W        W96856   5.292  43.323   4.142
35403W        W96857  35.522  25.710   2.232
35404W        W96858   3.834   4.246  11.442
35405W        W96859  10.273  11.632   2.309
35406W        W96860  39.051  26.544   0.885
35407W        W96861  28.609  38.475   0.261
35408W        W96862  34.524   4.238   4.158
35409W        W96863   8.716  23.591   2.768
35410W        W96864  13.656  39.816   3.828
35411W        W96865  18.062  33.955   3.358
35412W        W96866  13.193  36.424   1.889
35413W        W96867   3.285  14.142  12.970
35414W        W96868  36.491  23.058  13.011
35415W        W96869  31.418  34.374   4.601
35416W        W96870  18.550  33.620  10.022
35417W        W96871  13.618  39.862  14.296
35418W        W96872  30.968  44.892  10.529
35419W        W96873  22.149   7.218   4.684
35420W        W96874  42.459  26.017  12.937
35421W        W96875  22.022  34.482  14.294
35422W        W96876  26.174  11.827  13.347
35423W        W96877  28.560   4.771  11.595
35424W        W96878  33.563  44.388  10.431
35425W        W96879  26.162  17.120   4.121
35426W        W96880  11.166  24.154   1.834
35427W        W96881  35.884  32.934  12.462
35428W        W96882  28.138  20.236  13.991
35429W        W96883   8.275  30.920  12.956
35430W        W96884  23.626   4.768   0.338
35431W        W96885   4.824  31.551   1.215
35432W        W96886  38.862  13.199  11.559
35433W        W96887   5.373  25.559   1.335
35434W        W96888   1.388  13.776  11.890
35435W        W96889   5.238  18.072  14.988
35436W        W96890  19.170  42.527   2.818
35437W        W96891  35.048  41.992   3.370
35438W        W96892  39.039  44.450   2.375
35439W        W96893  18.618  44.303  14.355
35440W        W96894  16.137   4.306  11.046
35441W        W96895  42.847   5.773  11.103
35442W        W96896  37.040  43.904   4.278
35443W        W96897   1.444  20.247  14.412
35444W        W96898  15.190  24.536   0.324
35445W        W96899   7.351  27.185   4.741
35446W        W96900  32.417  14.753   3.696
35447W        W96901  18.101  38.896   5.112
35448W        W96902  33.412   7.679   3.356
35449W        W96903  13.207  35.024  11.465
35450W        W96904  11.178  28.536  13.457
35451W        W96905  29.505  44.431  12.411
35452W        W96906   1.920  12.756  10.945
35453W        W96907  19.138   2.951  11.416
35454W        W96908  11.847  16.794  12.956
35455W        W96909  25.562  29.618  10.560
35456W        W96910  22.997  26.188  10.464
35457W        W96911  25.523  33.113   0.756
35458W        W96912  17.647  44.965   4.720
35459W        W96913  20.594  24.089   1.721
35460W        W96914   9.674  23.009   0.266
35461W        W96915  33.503  26.684  12.474
35462W        W96916  38.981  26.961  11.124
35463W        W96917  25.640  41.026   1.335
35464W        W96918  15.277  22.674  12.853
35465W        W96919   9.320  16.713  12.557
35466W        W96920   3.710   0.475   2.275
35467W        W96921  36.401  15.798  14.866
35468W        W96922   9.351  14.762   0.259
35469W        W96923  36.377  15.280  13.464
35470W        W96924   0.832  39.901  13.801
35471W        W96925  24.125  19.276   3.634
35472W        W96926   8.864   9.691  14.499
35473W        W96927  35.431  36.877  10.526
35474W        W96928  18.203  19.053   3.166
35475W        W96929  27.569  16.646  14.319
35476W        W96930   8.747  22.565   1.426
35477W        W96931  11.697  23.134  14.465
35478W        W96932  12.644  40.005   1.369
35479W        W96933  25.620  36.561  12.470
35480W        W96934  18.581  27.185  11.427
35481W        W96935  27.143  26.201   0.954
35482W        W96936  37.574  11.182  13.885
35483W        W96937  21.533  23.064   4.806
35484W        W96938  18.785  14.188   0.482
35485W        W96939  18.291  17.291  12.005
35486W        W96940  15.696  21.041  14.350
35487W        W96941  33.027  12.200  14.417
35488W        W96942  26.462   0.343  10.464
35489W        W96943  19.667   2.956   3.780
35490W        W96944  43.980  41.866   4.126
35491W        W96945  16.666  34.419  10.434
35492W        W96946  12.213  43.362   4.279
35493W        W96947  37.876  15.734   4.610
35494W        W96948  29.931  33.089  10.496
35495W        W96949  11.721  39.825  11.528
35496W        W96950  17.110  13.642  12.570
35497W        W96951  38.354   7.844  14.407
35498W        W96952  39.341  21.601  13.999
35499W        W96953  34.476  12.244  12.410
35500W        W96954  24.529  43.417   4.733
35501W        W96955   0.951  32.981   1.287
35502W        W96956  21.111  30.436  14.829
35503W        W96957  21.597  31.621  10.590
35504W        W96958  21.728   0.263   4.698
35505W        W96959  18.574  17.126   2.301
35506W        W96960  32.513  44.811   1.410
35507W        W96961   6.266  19.283   3.698
35508W        W96962  13.667  28.551   1.825
35509W        W96963  44.376  12.853   1.362
35510W        W96964  13.784  29.575  10.956
35511W        W96965  43.925  35.001  12.894
35512W        W96966  35.048  42.849   0.749
35513W        W96967  32.906  44.492   4.265
35514W        W96968   0.979  24.716   3.699
35515W        W96969  13.769   1.366  14.985
35516W        W96970  15.265  23.718   2.696
35517W        W96971   0.901  15.265   2.866
35518W        W96972  36.966  42.950   0.740
35519W        W96973  22.080  37.569  11.874
35520W        W96974  31.615  40.457   4.342
35521W        W96975   9.285  19.271  10.564
35522W        W96976  22.154  16.688  12.499
35523W        W96977  32.138   9.838   1.397
35524W        W96978   1.964  23.991   3.675
35525W        W96979  31.412  19.095  10.957
35526W        W96980  26.978  16.239   2.274
35527W        W96981  18.249  36.081   2.792
35528W        W96982  32.515   7.287   1.917
35529W        W96983  43.479   3.338   4.654
35530W        W96984   4.772  33.028  10.499
35531W        W96985  23.702  10.151  12.079
35532W        W96986   7.178  42.839  13.907
35533W        W96987  28.448  24.121   9.983
35534W        W96988  14.614  10.818   1.875
35535W        W96989   4.344  17.651   3.821
35536W        W96990  12.788  29.567   4.340
35537W        W96991  15.142  33.602  11.893
35538W        W96992   1.435   7.825   3.773
35539W        W96993  24.022  41.851  13.340
35540W        W96994  44.005  27.095   2.785
35541W        W96995  20.532  39.061   3.698
35542W        W96996  30.061  26.166  12.463
35543W        W96997   7.330  40.433  12.048
35544W        W96998  39.009   4.263  12.088
35545W        W96999  41.849  38.898  10.099
35546W        W97000  26.996  27.112  14.472
35547W        W97001  20.155  11.657   2.702
35548W        W97002  43.939  25.991  11.528
35549W        W97003  39.411  23.125   3.197
35550W        W97004  16.733  38.474  11.106
35551W        W97005  18.768   3.425  11.970
35552W        W97006  34.087  40.888  10.899
35553W        W97007   9.871   8.169  11.537
35554W        W97008  28.440  41.018  13.905
35555W        W97009  24.548   3.272   0.857
35556W        W97010  28.445  29.119   2.231
35557W        W97011  39.843  20.106  13.015
35558W        W97012  17.276  23.605   4.641
35559W        W97013  32.898  33.995  11.037
35560W        W97014   5.205  12.714  12.861
35561W        W97015   3.745  16.139   3.222
35562W        W97016  11.850  43.791   0.815
35563W        W97017   5.861  32.064  14.379
35564W        W97018  21.557   5.398   5.185
35565W        W97019   5.791  27.953   3.852
35566W        W97020  25.645  36.941  14.349
35567W        W97021  43.345  34.066   4.829
35568W        W97022  11.741  44.505  12.047
35569W        W97023  18.219  29.035  13.932
35570W        W97024  44.274  24.175   3.737
35571W        W97025   3.424   5.861  14.857
35572W        W97026  17.139   1.870   9.979
35573W        W97027   6.356  26.170   2.814
35574W        W97028  39.878  40.509  11.580
35575W        W97029  25.607  11.846  14.973
35576W        W97030  40.398  13.250   0.253
35577W        W97031   0.791  14.818  13.500
35578W        W97032   7.676  37.409   5.093
35579W        W97033  29.059  22.633  14.015
35580W        W97034  41.954  10.706   0.363
35581W        W97035   8.338  25.106  14.291
35582W        W97036  13.315   2.439   2.217
35583W        W97037  22.577  32.556  10.504
35584W        W97038  27.684  41.332  11.491
35585W        W97039  25.210  18.273   2.183
35586W        W97040   7.667  12.733   1.737
35587W        W97041  23.232  29.038   1.915
35588W        W97042  26.168  11.361  11.002
35589W        W97043  39.044   5.404  12.432
35590W        W97044   4.363  14.290  11.915
35591W        W97045  29.618   4.876   1.427
35592W        W97046  43.322   1.947   2.355
35593W        W97047  37.479  36.916   3.738
35594W        W97048  34.569  22.160  10.416
35595W        W97049  34.402  27.447  14.940
35596W        W97050   8.852  26.556  14.793
35597W        W97051  23.642  35.022  10.606
35598W        W97052  21.120  42.793  11.502
35599W        W97053  28.008  20.685   0.908
35600W        W97054  40.353  43.418  11.517
35601W        W97055  29.137   9.664   2.804
35602W        W97056  26.516  15.221   3.725
35603W        W97057  31.141  27.176  13.330
35604W        W97058  24.703   9.857   4.256
35605W        W97059  14.188  13.218  14.913
35606W        W97060  26.182  37.355   4.276
35607W        W97061  36.935  37.528  13.826
35608W        W97062  29.041   0.780  12.390
35609W        W97063  37.868  13.189  12.494
35610W        W97064  38.825  42.932   1.435
35611W        W97065  32.018  26.545   0.460
35612W        W97066   9.355  31.077  11.465
35613W        W97067   3.235  22.635   0.357
35614W        W97068  12.153   8.330   3.246
35615W        W97069  10.689  21.226   2.265
35616W        W97070   4.264  40.548  11.381
35617W        W97071  22.745  39.023   2.250
35618W        W97072  40.468  25.626   0.734
35619W        W97073   1.847  33.446  14.004
35620W        W97074  28.523   2.940  12.833
35621W        W97075  39.885   7.175   2.351
35622W        W97076  13.622   9.659   0.377
35623W        W97077   2.942  34.872  10.618
35624W        W97078  43.948   4.330   1.875
35625W        W97079  12.119  41.796   1.210
35626W        W97080   6.269  43.913  11.021
35627W        W97081  29.952  30.131  10.446
35628W        W97082  40.867  10.656  10.594
35629W        W97083  31.115  13.748  14.483
35630W        W97084  36.471  34.595  12.070
35631W        W97085  35.010  23.217   1.213
35632W        W97086   8.838   8.303   1.848
35633W        W97087  21.105  21.050   4.734
35634W        W97088  10.840  43.410  14.391
35635W        W97089  21.116  40.833   3.302
35636W        W97090  23.010   1.863   4.678
35637W        W97091  35.999  25.651   4.683
35638W        W97092  35.965  14.763   4.227
35639W        W97093  41.851  44.976   1.260
35640W        W97094  43.395  38.538   1.429
35641W        W97095   1.909  36.447  13.515
35642W        W97096  39.332  10.328  14.353
35643W        W97097  42.480  34.865  11.019
35644W        W97098   5.346  13.660  10.458
35645W        W97099  17.205  14.651  12.032
35646W        W97100   3.218  21.251  12.569
35647W        W97101  16.161  38.051  11.445
35648W        W97102  39.467   0.377   1.378
35649W        W97103  16.180  14.776  13.319
35650W        W97104  13.247  38.866   5.085
35651W        W97105  39.010  37.363  10.636
35652W        W97106  23.690  13.800  13.803
35653W        W97107  21.022   6.419   2.797
35654W        W97108  21.592  29.665   4.632
35655W        W97109  36.410  18.281  11.057
35656W        W97110  19.590  33.383   0.339
35657W        W97111   1.794  44.833  14.818
35658W        W97112  16.574   6.713   2.704
35659W        W97113   4.825   2.783   1.902
35660W        W97114  13.254  15.762  10.040
35661W        W97115  20.220   9.830  13.900
35662W        W97116  42.862  39.540   2.803
35663W        W97117  15.118  42.305   2.667
35664W        W97118   7.279  11.770  14.279
35665W        W97119  15.772  34.505  14.800
35666W        W97120  27.497  13.792  14.795
35667W        W97121  22.516   5.368   4.113
35668W        W97122   7.826  10.145  11.503
35669W        W97123  26.685   0.891  14.894
35670W        W97124   1.907  38.554  13.440
35671W        W97125  34.428  38.480   1.239
35672W        W97126  14.261  19.720   1.421
35673W        W97127  12.617  12.254  10.107
35674W        W97128  13.711  29.497  14.502
35675W        W97129  30.071  28.069   3.343
35676W        W97130  38.402   7.355   1.294
35677W        W97131  29.561  32.587   4.652
35678W        W97132  42.818  23.237   3.374
35679W        W97133   2.904  14.750   1.727
35680W        W97134  23.556  32.625   0.429
35681W        W97135  26.551   1.436  11.498
35682W        W97136   6.304   6.254   2.758
35683W        W97137  32.568  14.111  11.074
35684W        W97138  44.433  34.503  13.035
35685W        W97139  10.691  23.986   4.126
35686W        W97140  20.067  28.997   3.324
35687W        W97141   4.215  35.087   4.760
35688W        W97142  12.273  32.626   3.357
35689W        W97143  23.064  12.156   4.723
35690W        W97144  31.591  12.767  11.461
35691W        W97145  36.906  20.734  10.962
35692W        W97146  21.227   5.398   1.834
35693W        W97147  16.730  35.393   1.307
35694W        W97148   4.397  18.784   4.661
35695W        W97149  30.038  43.934  11.506
35696W        W97150   9.239   9.200   2.199
35697W        W97151  37.084  30.608  14.895
35698W        W97152  23.131  21.672  14.284
35699W        W97153   8.868  24.188  10.929
35700W        W97154   6.795   2.795  11.379
35701W        W97155  44.893  28.648   2.843
35702W        W97156  26.007  13.127  11.605
35703W        W97157  38.464  20.050   4.225
35704W        W97158  18.174   9.327  10.939
35705W        W97159   7.231  43.015   2.753
35706W        W97160  13.342  14.317   4.664
35707W        W97161   1.290  28.125  11.050
35708W        W97162  41.803  22.594   1.741
35709W        W97163  15.278  28.505  12.477
35710W        W97164   3.800   4.716   9.973
35711W        W97165  35.954  11.788   0.475
35712W        W97166   7.400  13.805   3.255
35713W        W97167  15.155  11.812  13.533
35714W        W97168   3.347  38.882   1.787
35715W        W97169   4.766   0.394  13.375
35716W        W97170  41.919  25.468   3.745
35717W        W97171  41.829  40.480   4.298
35718W        W97172  42.501  39.417   3.303
35719W        W97173  23.105  31.968   0.826
35720W        W97174  15.809  28.997   0.290
35721W        W97175   0.764  32.460  13.312
35722W        W97176  35.360   7.359  14.964
35723W        W97177  27.501  25.652   0.372
35724W        W97178  14.796  44.284   1.431
35725W        W97179  23.582   5.793   3.230
35726W        W97180  36.884  34.896   1.374
35727W        W97181  15.242  24.158  14.901
35728W        W97182   6.680  16.583   1.735
35729W        W97183  10.230  18.266  10.569
35730W        W97184   8.246   6.876  14.778
35731W        W97185  38.871  21.688   4.159
35732W        W97186  15.671  19.680   0.833
35733W        W97187  26.146   3.949  13.876
35734W        W97188  40.986  38.043  12.903
35735W        W97189  39.437  24.699   3.824
35736W        W97190  35.477   0.959  11.598
35737W        W97191  43.471  26.067   3.181
35738W        W97192  44.480  24.062  14.486
35739W        W97193   4.367  33.949   1.448
35740W        W97194   2.873   0.473  14.295
35741W        W97195  25.151  43.496  13.381
35742W        W97196  14.244  33.077  13.004
35743W        W97197  36.408  15.638   2.300
35744W        W97198  30.090  21.659  13.831
35745W        W97199  13.138  44.402   1.929
35746W        W97200  33.520  30.108   1.345
35747W        W97201   5.865   0.757  12.999
35748W        W97202  21.714  16.086   1.354
35749W        W97203  43.329  41.509  10.593
35750W        W97204   8.667   5.835  11.904
35751W        W97205  14.834  23.491   4.627
35752W        W97206  27.451   1.972   4.234
35753W        W97207  32.142  43.867  10.973
35754W        W97208  17.121   2.849   2.287
35755W        W97209  22.574  15.186   0.785
35756W        W97210   1.334  18.734  13.831
35757W        W97211  23.128  16.250  13.505
35758W        W97212  22.199   0.947  13.951
35759W        W97213  11.311  40.369   5.795
35760W        W97214  44.459  14.762  14.342
35761W        W97215  42.282  31.017  14.992
35762W        W97216  43.811   6.428   2.291
35763W        W97217  39.552  31.963  14.509
35764W        W97218  30.506   1.804  11.575
35765W        W97219  18.734  13.663   3.286
35766W        W97220  28.563  39.412   4.162
35767W        W97221  13.711   8.832  14.283
35768W        W97222  34.889   4.868   1.224
35769W        W97223  40.427  41.821  12.362
35770W        W97224  12.324  16.158  11.430
35771W        W97225  10.707   3.755   0.458
35772W        W97226   3.292  43.881  11.426
35773W        W97227  28.599  19.547   2.281
35774W        W97228  22.518  26.170   0.466
35775W        W97229  33.905  43.978   4.201
35776W        W97230  20.608  10.646  14.788
35777W        W97231  13.320   1.447  13.390
35778W        W97232  33.019  30.655  14.777
35779W        W97233  14.777   9.207  13.308
35780W        W97234  36.868  21.756   0.386
35781W        W97235  21.535  36.354  14.945
35782W        W97236  42.928  35.009   2.299
35783W        W97237  22.582  41.422   9.995
35784W        W97238   0.289  14.784   3.295
35785W        W97239   1.364  21.699  10.908
35786W        W97240  21.550  14.713   0.270
35787W        W97241  28.459  23.199   2.360
35788W        W97242   3.457  17.788  12.388
35789W        W97243   7.245  41.981   3.179
35790W        W97244  29.458  23.214   5.151
35791W        W97245  37.045  44.946   3.318
35792W        W97246  18.754  16.142   3.294
35793W        W97247  23.599  42.800   1.834
35794W        W97248   2.308   6.836  14.479
35795W        W97249  34.120  20.540  12.571
35796W        W97250  11.339  25.574   2.884
35797W        W97251   3.418  21.146  11.577
35798W        W97252  43.287  18.662   4.166
35799W        W97253  41.907  42.311   2.719
35800W        W97254  39.363  22.010  14.497
35801W        W97255  20.174   7.817   0.350
35802W        W97256  11.817  37.567  10.553
35803W        W97257  36.576  10.832   4.136
35804W        W97258   4.329  43.780  11.049
35805W        W97259   6.427  14.707  10.515
35806W        W97260  19.560   9.742   1.929
35807W        W97261  42.947  42.448  11.869
35808W        W97262  26.105   5.920  10.973
35809W        W97263  36.555  14.743   4.791
35810W        W97264  31.050  15.216  12.077
35811W        W97265  37.553  30.164  11.891
35812W        W97266  11.863  22.506  11.531
35813W        W97267  17.761  22.199  11.594
35814W        W97268   6.373  22.576   3.818
35815W        W97269  14.207  15.649   1.243
35816W        W97270  44.799  14.166  13.443
35817W        W97271  12.172  35.395  10.457
35818W        W97272  40.816  29.046  11.371
35819W        W97273   7.818  27.661   4.727
35820W        W97274  35.438   6.709  11.863
35821W        W97275   6.337  15.106   3.293
35822W        W97276  14.172  43.322   3.686
35823W        W97277  41.977  41.522   1.395
35824W        W97278  13.843  41.532   5.627
35825W        W97279  16.745  29.124  13.058
35826W        W97280  11.790   7.289  14.860
35827W        W97281  27.124   3.813  12.365
35828W        W97282  24.156  24.125   4.171
35829W        W97283   3.397  36.897  13.875
35830W        W97284  25.163   8.662   3.753
35831W        W97285  14.620  20.721   1.349
35832W        W97286  28.506  26.037   1.412
35833W        W97287  29.155  12.264   2.340
35834W        W97288  19.075  34.437  14.480
35835W        W97289   8.169  10.673   1.446
35836W        W97290  37.576  44.915  14.933
35837W        W97291   4.313  41.381   4.828
35838W        W97292  18.727  24.681  14.944
35839W        W97293  28.581  14.136   3.344
35840W        W97294   9.244  33.432   1.423
35841W        W97295  31.058   5.707   1.833
35842W        W97296   8.262  13.783   2.704
35843W        W97297  18.191  26.551   4.275
35844W        W97298  12.201  15.282  14.938
35845W        W97299  35.441  44.950  13.354
35846W        W97300  37.355  44.453   3.243
35847W        W97301  44.991  44.762   1.799
35848W        W97302  41.354   5.345  11.419
35849W        W97303  12.723  30.037  10.437
35850W        W97304  39.964  41.516  12.406
35851W        W97305  42.837  43.385  11.422
35852W        W97306  33.031  24.557   0.819
35853W        W97307  27.495  17.793   2.185
35854W        W97308  10.831   4.384   1.700
35855W        W97309  35.092  40.528   4.290
35856W        W97310  14.124  30.107   3.723
35857W        W97311  35.495  38.898  11.471
35858W        W97312  29.583   7.765   1.408
35859W        W97313  34.888   9.297   1.710
35860W        W97314  32.917  17.571  13.415
35861W        W97315  43.861  23.678  11.031
35862W        W97316  28.581  25.537   2.815
35863W        W97317  18.131  10.157   1.909
35864W        W97318  29.522  30.108   2.831
35865W        W97319  30.952  44.330  12.540
35866W        W97320  19.277  35.478   0.338
35867W        W97321  35.036   3.358   2.699
35868W        W97322   3.224   7.336  12.868
35869W        W97323  38.529  32.077   2.741
35870W        W97324  44.450   4.445  11.523
35871W        W97325  22.011  11.199  13.054
35872W        W97326  24.074  44.811  13.488
35873W        W97327  42.932  40.470  12.445
35874W        W97328  44.803   7.202   1.737
35875W        W97329   0.253   5.344  11.008
35876W        W97330  43.930  24.041   1.306
35877W        W97331  42.399  22.120  13.342
35878W        W97332   8.665  43.901  14.900
35879W        W97333  32.554  31.618   4.627
35880W        W97334  28.671   7.295   2.378
35881W        W97335  36.080  33.100   0.911
35882W        W97336  30.033  19.691   0.375
35883W        W97337  34.546  13.114   3.259
35884W        W97338  24.974  12.697  14.478
35885W        W97339  16.293  36.466  11.949
35886W        W97340  29.617  41.425   2.795
35887W        W97341  44.816  15.754   2.238
35888W        W97342   2.751   1.361  10.523
35889W        W97343  14.127  41.955  12.868
35890W        W97344   6.423   6.758   2.719
35891W        W97345  14.622  42.997  11.110
35892W        W97346  25.640  23.696   0.297
35893W        W97347   8.260   6.225   1.307
35894W        W97348   8.322  28.115   4.766
35895W        W97349  34.486  27.476  13.463
35896W        W97350  44.331  25.189   0.752
35897W        W97351  37.435   9.304   4.312
35898W        W97352  11.817  19.283   0.323
35899W        W97353  22.188  30.145   2.893
35900W        W97354  17.216  22.167  14.300
35901W        W97355  39.002  28.079   3.724
35902W        W97356  26.996  31.022   5.183
35903W        W97357  23.144  21.108   3.774
35904W        W97358  28.589   4.428   2.669
35905W        W97359   3.231  28.997  12.514
35906W        W97360  37.064  42.415   1.416
35907W        W97361  42.966  13.205  14.766
35908W        W97362   8.678  42.970   0.940
35909W        W97363  36.456  19.092   3.323
35910W        W97364  23.509  13.254  13.487
35911W        W97365  34.963  21.062   5.094
35912W        W97366  29.593   2.877   0.393
35913W        W97367  33.981  31.611   2.868
35914W        W97368  42.474   1.472   3.734
35915W        W97369  44.358  23.671  10.969
35916W        W97370   1.838  27.514   3.672
35917W        W97371  19.547  30.603  14.000
35918W        W97372  30.517  12.763  10.002
35919W        W97373  22.676  31.485   2.881
35920W        W97374   8.325  27.125  12.887
35921W        W97375  18.640  20.053  13.046
35922W        W97376  35.976  38.502  12.003
35923W        W97377  27.152   7.364   0.318
35924W        W97378  22.143  33.578   1.299
35925W        W97379  12.759   9.785  13.868
35926W        W97380  30.534   7.728   4.152
35927W        W97381  42.936  34.578   1.768
35928W        W97382  15.638  17.201   0.792
35929W        W97383   3.246  42.402   1.413
35930W        W97384   4.314  25.123   0.387
35931W        W97385  34.510  38.025  14.764
35932W        W97386  21.247  19.192  13.504
35933W        W97387  39.990   4.338  13.824
35934W        W97388   7.797  33.488  13.536
35935W        W97389   4.245  15.660   0.268
35936W        W97390   1.350  21.053   0.866
35937W        W97391  37.432   2.851   3.296
35938W        W97392  17.685  38.056   2.722
35939W        W97393  32.098  10.686   0.946
35940W        W97394  42.439  27.609  12.041
35941W        W97395  32.559  14.691   4.765
35942W        W97396  33.978  39.019   4.232
35943W        W97397  12.717  19.702  12.910
35944W        W97398  43.010  35.977  14.029
35945W        W97399  41.411  24.027  11.472
35946W        W97400  42.310  18.555   1.893
35947W        W97401  39.529   2.878  11.024
35948W        W97402  42.314  11.234   4.249
35949W        W97403  28.035  23.583   4.808
35950W        W97404   2.365   0.984  13.801
35951W        W97405   2.861  13.704   3.194
35952W        W97406  15.656  31.070   4.713
35953W        W97407  43.012  23.732  14.910
35954W        W97408  43.314   1.897   0.373
35955W        W97409  23.010  36.369   4.141
35956W        W97410  31.903  29.164  10.139
35957W        W97411  33.086   1.452  13.867
35958W        W97412   2.899  38.375   0.913
35959W        W97413   9.175  22.069  14.839
35960W        W97414  40.538   6.213   2.390
35961W        W97415  40.466   1.360  11.498
35962W        W97416  14.190  42.956  13.047
35963W        W97417  30.651  20.761  13.441
35964W        W97418  21.582   9.266  10.129
35965W        W97419  36.091  21.633  11.916
35966W        W97420  35.492  11.668  11.955
35967W        W97421  38.369  27.474  13.521
35968W        W97422   3.222   4.919  12.050
35969W        W97423   5.694  35.478   3.663
35970W        W97424  13.654   9.736   9.611
35971W        W97425  28.442  40.450  13.307
35972W        W97426  36.562  28.478  13.444
35973W        W97427  31.906  27.649   2.734
35974W        W97428  22.538  20.232   3.198
35975W        W97429   1.344  44.908  13.823
35976W        W97430  20.073  36.513   0.822
35977W        W97431   0.366  37.447  13.814
35978W        W97432  13.342   8.662  12.836
35979W        W97433  12.730  21.125   5.315
35980W        W97434   0.910  44.478   0.254
35981W        W97435  34.603  29.111   1.416
35982W        W97436  27.992  32.629   9.983
35983W        W97437  12.675  28.966   2.859
35984W        W97438  17.751  28.941  13.537
35985W        W97439  19.073  19.611  13.337
35986W        W97440  40.501   9.226  14.328
35987W        W97441  11.738  26.982   3.755
35988W        W97442   5.258  17.150  12.062
35989W        W97443  41.350  37.952  13.818
35990W        W97444  38.954   2.346  11.561
35991W        W97445  19.079  36.439   2.864
35992W        W97446   4.700  23.516  13.810
35993W        W97447  41.818  19.279   2.715
35994W        W97448  24.158  37.903   0.959
35995W        W97449  38.346  22.587   4.614
35996W        W97450  25.670  28.633   3.327
35997W        W97451  19.711  12.788  14.003
35998W        W97452  18.188  34.032  13.316
35999W        W97453   3.917   8.704   1.741
36000W        W97454  21.104  18.729  10.894
36001W        W97455  16.571  44.756   3.180
36002W        W97456  26.481  40.820   4.621
36003W        W97457  16.166  38.950  12.044
36004W        W97458  20.212   5.428  13.934
36005W        W97459   2.829  44.261  14.830
36006W        W97460  44.385  28.043  11.440
36007W        W97461  41.392  33.422   2.734
36008W        W97462  29.643  18.651   1.897
36009W        W97463  38.997  17.161   3.730
36010W        W97464   8.730   3.461   2.246
36011W        W97465  43.283  25.209   0.427
36012W        W97466  44.874  38.060  11.379
36013W        W97467  39.829  23.232   0.428
36014W        W97468   7.383  20.223  13.380
36015W        W97469  20.578   7.284   2.790
36016W        W97470  15.146   6.826   3.359
36017W        W97471  30.010   0.813  10.990
36018W        W97472  40.338  12.201  13.864
36019W        W97473  10.776  18.087   0.926
36020W        W97474  10.858  36.023  13.891
36021W        W97475  17.590   0.773  10.580
36022W        W97476   2.382  25.211  11.437
36023W        W97477  13.334   9.237  11.569
36024W        W97478  43.945   4.405   3.727
36025W        W97479  13.676  15.585  14.504
36026W        W97480  30.658  28.055   2.779
36027W        W97481  19.164  19.736   2.732
36028W        W97482  10.839  11.284  10.433
36029W        W97483  12.343  20.767   5.113
36030W        W97484   7.289  13.105   0.290
36031W        W97485   1.737  13.607  14.492
36032W        W97486  39.485   1.874  12.018
36033W        W97487  21.222  29.452  11.877
36034W        W97488  22.631  10.356   3.321
36035W        W97489  35.566  34.492   1.212
36036W        W97490  31.647  30.438   1.316
36037W        W97491  43.897   7.189  10.606
36038W        W97492  42.430  15.320   4.157
36039W        W97493  21.218  32.605   4.142
36040W        W97494  42.392   1.879  14.003
36041W        W97495  34.412  37.467   4.826
36042W        W97496  38.335   0.768   2.375
36043W        W97497  41.524  41.398   2.665
36044W        W97498  24.489  28.992  10.537
36045W        W97499  12.180  17.137   3.752
36046W        W97500   3.359  37.964   4.787
36047W        W97501  36.984  27.130  10.629
36048W        W97502  11.332   7.854   4.797
36049W        W97503  13.810  17.682   0.374
36050W        W97504  12.666  14.183   1.766
36051W        W97505  42.382  28.177  10.510
36052W        W97506  33.935  29.161  12.580
36053W        W97507  16.650  39.522   3.845
36054W        W97508  12.699  42.380  14.330
36055W        W97509  12.676  44.860  12.871
36056W        W97510  10.225  18.086  14.433
36057W        W97511  36.529   6.383  14.293
36058W        W97512  21.211  39.409  13.880
36059W        W97513  31.007  40.361   0.922
36060W        W97514  13.218  19.266   1.355
36061W        W97515   8.900  20.702  14.832
36062W        W97516  17.266   2.341   3.865
36063W        W97517  27.101  29.435   2.841
36064W        W97518  18.167  20.177  14.504
36065W        W97519   0.341  39.489   3.714
36066W        W97520  10.750   8.686  10.541
36067W        W97521  28.459  26.506  14.805
36068W        W97522  18.210  27.950  10.501
36069W        W97523  32.539  41.351  14.339
36070W        W97524  29.133  22.231  11.075
36071W        W97525   7.677  24.030   3.636
36072W        W97526   2.801  18.095   3.837
36073W        W97527  21.555   2.260   0.423
36074W        W97528  15.325   3.261  14.387
36075W        W97529  27.014  39.359   1.770
36076W        W97530  28.554  21.205   3.774
36077W        W97531  36.969  28.434  13.047
36078W        W97532  32.399  35.599  10.427
36079W        W97533  12.147   9.392  10.507
36080W        W97534  30.499  17.085   4.789
36081W        W97535   8.276   1.947  13.013
36082W        W97536  44.430   2.468   0.737
36083W        W97537  38.340   6.759   4.742
36084W        W97538  31.493  37.435   2.369
36085W        W97539  24.708  14.116   2.349
36086W        W97540  11.785  14.307   3.341
36087W        W97541   3.263  42.927  14.800
36088W        W97542  32.521   2.848   1.397
36089W        W97543  23.647  40.482  13.395
36090W        W97544  41.827   2.940  11.027
36091W        W97545  28.098  26.618  14.790
36092W        W97546  17.567  34.972   1.247
36093W        W97547  25.574  25.003  12.507
36094W        W97548  20.743  28.472   1.238
36095W        W97549   2.270   4.767   4.772
36096W        W97550  21.098  12.307  11.454
36097W        W97551  42.305  18.789   4.599
36098W        W97552  41.379  18.274  11.587
36099W        W97553  15.747  24.540   3.205
36100W        W97554   8.280  39.344  13.330
36101W        W97555  26.648  17.120   3.818
36102W        W97556  43.906   0.956  12.578
36103W        W97557  10.829   9.374  14.965
36104W        W97558  25.113  22.165   4.324
36105W        W97559  12.683  15.130  12.033
36106W        W97560  23.148  28.998   0.326
36107W        W97561   7.710   2.952  14.299
36108W        W97562  17.689  22.599  13.514
36109W        W97563  38.945  15.273  13.827
36110W        W97564  43.387  21.690   1.214
36111W        W97565  28.585  14.624  11.003
36112W        W97566  35.952  24.187   4.836
36113W        W97567  38.433  16.644   4.649
36114W        W97568  31.620  37.432   4.771
36115W        W97569   2.403  14.249   0.444
36116W        W97570  17.751   9.813  12.058
36117W        W97571   4.349   1.772  11.545
36118W        W97572   9.199   6.386  12.082
36119W        W97573  43.929  35.857   3.216
36120W        W97574  41.415   8.783  10.449
36121W        W97575  23.699   6.681  14.438
36122W        W97576  23.562  36.909  13.372
36123W        W97577   5.788  29.105   2.684
36124W        W97578  20.187   8.266  14.763
36125W        W97579  35.417   7.210  11.508
36126W        W97580  38.027  26.952   1.424
36127W        W97581  27.943  18.293   2.254
36128W        W97582  17.741  23.579   4.750
36129W        W97583   8.209  34.934  10.450
36130W        W97584   7.347  35.856  10.977
36131W        W97585  23.703  38.870  13.307
36132W        W97586   3.383  25.494   2.232
36133W        W97587  18.068  23.233   3.304
36134W        W97588  22.648  41.366  12.827
36135W        W97589  23.600   0.841  11.944
36136W        W97590  23.085   9.293  14.338
36137W        W97591  44.384  17.597   1.213
36138W        W97592  28.005   0.417  12.960
36139W        W97593   7.252  16.152  12.455
36140W        W97594  25.990  29.073   2.797
36141W        W97595  24.683  30.925   4.616
36142W        W97596  41.477  23.226   0.865
36143W        W97597  13.182  26.161   4.336
36144W        W97598  29.636  36.055  11.121
36145W        W97599   5.898  30.421   4.797
36146W        W97600  34.482  32.070   2.413
36147W        W97601  16.730  25.667   0.311
36148W        W97602  10.740  18.581   3.847
36149W        W97603  36.876  10.767   0.805
36150W        W97604  19.107  43.273   2.663
36151W        W97605  43.271  23.054   0.453
36152W        W97606   9.159   6.390   1.388
36153W        W97607  21.565   4.807  11.882
36154W        W97608  37.042  43.388   2.888
36155W        W97609  31.053   3.860  10.540
36156W        W97610  21.144  37.576   4.761
36157W        W97611  44.915  35.461  13.400
36158W        W97612  28.438  19.182   3.254
36159W        W97613  29.105   9.675  11.371
36160W        W97614   1.477  28.072   0.922
36161W        W97615  32.948   2.939  12.476
36162W        W97616  23.701  38.551   2.737
36163W        W97617  41.032  44.364  12.339
36164W        W97618  37.447  13.762   3.162
36165W        W97619  36.932   6.774  13.857
36166W        W97620  41.483  22.594  12.533
36167W        W97621  19.711  30.101   4.652
36168W        W97622  24.063   0.826  13.889
36169W        W97623  28.530  30.659   1.242
36170W        W97624  18.099  38.868   1.919
36171W        W97625  30.136   7.318   1.360
36172W        W97626  10.159   1.756  10.902
36173W        W97627  25.115   5.706   1.274
36174W        W97628  22.176  15.820  11.413
36175W        W97629  37.975  38.452  11.516
36176W        W97630  15.712  43.960   2.873
36177W        W97631   1.346   3.216  13.990
36178W        W97632   3.255  21.098  14.283
36179W        W97633  30.589  32.919  14.924
36180W        W97634  30.987   5.894   2.235
36181W        W97635  21.216  36.459   2.227
36182W        W97636   7.244  35.459  13.002
36183W        W97637  14.263  35.512   3.313
36184W        W97638  35.950  25.066   0.912
36185W        W97639  29.554  38.466  12.356
36186W        W97640  18.168  41.842   2.752
36187W        W97641  19.041  10.761  11.096
36188W        W97642  27.601  16.678   1.406
36189W        W97643  37.447  28.461  11.419
36190W        W97644  36.481  40.454  13.543
36191W        W97645  12.319  39.880   1.782
36192W        W97646  43.436   7.677  13.798
36193W        W97647   6.712  36.030  14.989
36194W        W97648  36.433   9.698   1.220
36195W        W97649  26.134   4.214   2.202
36196W        W97650  30.146  18.666   1.826
36197W        W97651  40.415  32.071   1.877
36198W        W97652  32.565  37.572   3.187
36199W        W97653  40.492   5.880  13.009
36200W        W97654   6.403  16.168  11.902
36201W        W97655  44.807  29.543   4.698
36202W        W97656  12.327  28.470   3.311
36203W        W97657   4.448  34.119   2.870
36204W        W97658  41.409  34.501   1.868
36205W        W97659  35.924  43.369   4.655
36206W        W97660  34.375  21.707  11.582
36207W        W97661  13.625  21.115   4.279
36208W        W97662  32.995  28.528   0.912
36209W        W97663   1.359  18.694   2.200
36210W        W97664  34.055  14.795  12.930
36211W        W97665   4.233  35.907  11.862
36212W        W97666  33.913  37.997   2.387
36213W        W97667  19.612  10.269   2.754
36214W        W97668   3.744  22.607  13.399
36215W        W97669   8.753  36.557  10.917
36216W        W97670  17.782  32.602  13.880
36217W        W97671   8.875   9.782  14.813
36218W        W97672  37.538  25.216  11.996
36219W        W97673  42.849  42.478  12.545
36220W        W97674  25.615  12.635  12.831
36221W        W97675  24.493  43.800   2.851
36222W        W97676  22.726   4.806   4.723
36223W        W97677  38.977   8.819   4.182
36224W        W97678  35.993  36.488   0.381
36225W        W97679   5.853   2.442  11.983
36226W        W97680  27.157  32.928   3.327
36227W        W97681  37.074  32.080   0.962
36228W        W97682  13.226  34.930  11.101
36229W        W97683  43.964  12.164   0.834
36230W        W97684  17.226  35.426  12.351
36231W        W97685  19.648  32.049  13.419
36232W        W97686  17.292  13.658  12.832
36233W        W97687  17.557   5.759   1.793
36234W        W97688  22.199  39.978  12.978
36235W        W97689   9.319   5.700   3.334
36236W        W97690  33.470  21.057  13.028
36237W        W97691  32.032  16.811  11.860
36238W        W97692  32.604  14.242   2.204
36239W        W97693  44.782  44.911  10.508
36240W        W97694   8.677   1.814  12.985
36241W        W97695   4.332  39.018  14.405
36242W        W97696  15.673  14.158   2.304
36243W        W97697  40.025  34.406   1.309
36244W        W97698  31.520  26.650   1.327
36245W        W97699  16.655  13.737   3.680
36246W        W97700  37.024   6.721  13.533
36247W        W97701   5.265   6.319   3.165
36248W        W97702  42.303  41.533   2.347
36249W        W97703  44.385  28.047  13.980
36250W        W97704  12.764  20.091  11.871
36251W        W97705  12.823  38.526  11.934
36252W        W97706  36.948  11.753   3.805
36253W        W97707   0.435  12.696  10.471
36254W        W97708  28.458  13.159   1.255
36255W        W97709  36.502  40.453  10.136
36256W        W97710  21.749  19.703  12.435
36257W        W97711  20.547  16.217  11.098
36258W        W97712  22.678   9.152   0.800
36259W        W97713  22.512  23.990   0.399
36260W        W97714  18.691  28.131   4.215
36261W        W97715  43.413  17.203  11.918
36262W        W97716  14.592  29.141   4.626
36263W        W97717  16.729  28.079  12.932
36264W        W97718   9.674  30.101  11.594
36265W        W97719  18.060  40.950  10.444
36266W        W97720  12.821  34.090  13.447
36267W        W97721  33.593  29.919  11.936
36268W        W97722  17.153  22.171  10.942
36269W        W97723   0.954  15.671   0.769
36270W        W97724   6.818  31.553   0.397
36271W        W97725   0.819  41.930  11.558
36272W        W97726  10.271  21.122   3.384
36273W        W97727  33.067  28.591   2.769
36274W        W97728  28.122  43.407   4.275
36275W        W97729   9.794  21.752  12.576
36276W        W97730  43.507  23.625   5.263
36277W        W97731  17.229   7.270  11.402
36278W        W97732  32.898  26.164  10.409
36279W        W97733  17.577  41.363  13.499
36280W        W97734  39.846   9.187  11.420
36281W        W97735  43.994  37.394  10.606
36282W        W97736  28.606  40.396  10.944
36283W        W97737  21.601  20.564  14.467
36284W        W97738  19.270  43.310  12.425
36285W        W97739  34.975   6.705  10.429
36286W        W97740   7.224  37.533   0.465
36287W        W97741  25.084  17.781   2.312
36288W        W97742  29.532   5.363   2.721
36289W        W97743  25.995   2.460   4.822
36290W        W97744   4.930  11.759  11.081
36291W        W97745  19.776  12.171   2.214
36292W        W97746  27.486  42.455  13.433
36293W        W97747  20.168  14.174   1.365
36294W        W97748  28.944  22.221   2.863
36295W        W97749  29.664  32.477   5.146
36296W        W97750   9.660  16.652   1.750
36297W        W97751   9.373  28.986  13.546
36298W        W97752  16.239  17.288   4.246
36299W        W97753  38.060  19.149   0.859
36300W        W97754  36.054  10.790   4.787
36301W        W97755  43.944  27.115  13.976
36302W        W97756  23.168  28.146  13.798
36303W        W97757  35.872  17.187   4.734
36304W        W97758  12.626  36.588   0.844
36305W        W97759  18.103   7.824   4.765
36306W        W97760  31.004  15.743  11.107
36307W        W97761  19.162   7.407   1.414
36308W        W97762  27.602  32.590  10.611
36309W        W97763  19.564  25.150  12.071
36310W        W97764  40.874  34.423  14.451
36311W        W97765  41.793  11.688  12.948
36312W        W97766  21.618  28.459   3.704
36313W        W97767  35.880  29.468  11.941
36314W        W97768  44.363   6.705  13.357
36315W        W97769   3.362  16.119  12.007
36316W        W97770  32.018   4.736   3.354
36317W        W97771  27.602  22.741   4.258
36318W        W97772   2.720  39.482  12.348
36319W        W97773  30.021  42.907   2.810
36320W        W97774  18.784  42.969   2.688
36321W        W97775   3.751  31.971   3.301
36322W        W97776   3.427  44.405   4.312
36323W        W97777  21.195  13.688  12.896
36324W        W97778  39.064  18.074  10.990
36325W        W97779  22.207  19.613  14.475
36326W        W97780  13.752  30.987   1.270
36327W        W97781  36.018  21.213  14.868
36328W        W97782  22.542  31.942  12.363
36329W        W97783  37.383  32.993  13.375
36330W        W97784  42.491  33.493   3.367
36331W        W97785  12.677  20.589  12.385
36332W        W97786  37.047   0.899  12.864
36333W        W97787   1.456  38.858   3.736
36334W        W97788  29.006  44.344   1.407
36335W        W97789  44.404  24.152   5.141
36336W        W97790  44.924  39.956   3.765
36337W        W97791  36.455  36.039   1.846
36338W        W97792  39.064  41.917   5.606
36339W        W97793  31.006  29.602  12.984
36340W        W97794   6.690  22.248  13.396
36341W        W97795  22.743   1.849  11.969
36342W        W97796   3.764   9.208  14.495
36343W        W97797  16.705   1.324  10.936
36344W        W97798  17.230  43.765   2.194
36345W        W97799  12.789   7.766   2.825
36346W        W97800  33.503  41.499   4.657
36347W        W97801   1.928  27.081  12.481
36348W        W97802  21.581   0.914  10.887
36349W        W97803   7.402  12.158  11.485
36350W        W97804  26.145  31.146   2.716
36351W        W97805  36.506  32.095  12.900
36352W        W97806  44.981  29.032   0.408
36353W        W97807   7.776  12.667  12.050
36354W        W97808  31.493  20.608  14.850
36355W        W97809  36.015  29.576  14.943
36356W        W97810  25.175  27.676  14.880
36357W        W97811  31.511  17.678   3.303
36358W        W97812  12.782  35.983  13.934
36359W        W97813   3.766   3.728   1.826
36360W        W97814   5.341  20.203  14.838
36361W        W97815  44.975  41.397  13.818
36362W        W97816  15.721   7.274  14.509
36363W        W97817  21.744  11.761   2.672
36364W        W97818  21.195  25.099  10.154
36365W        W97819   5.203  42.856  12.069
36366W        W97820  35.379  34.060  12.427
36367W        W97821  32.443   1.473   0.242
36368W        W97822  19.776   6.331   2.241
36369W        W97823  17.640  27.159  13.883
36370W        W97824   8.818   0.333   0.447
36371W        W97825  20.646  38.005   2.258
36372W        W97826  34.047   7.313  10.626
36373W        W97827  42.422   5.231   2.265
36374W        W97828   1.954  29.110  13.957
36375W        W97829  12.797  32.081   0.915
36376W        W97830  25.092  43.458   3.734
36377W        W97831  33.921   1.852   3.350
36378W        W97832  35.091  12.698  13.475
36379W        W97833   1.822  23.070   3.847
36380W        W97834  28.040  42.825  13.983
36381W        W97835  36.955  30.029  10.586
36382W        W97836  23.500  19.551  14.832
36383W        W97837   0.785   5.438   1.249
36384W        W97838  25.202  40.936   0.373
36385W        W97839  27.575  10.854   3.806
36386W        W97840  29.005   5.428  10.559
36387W        W97841  41.043   8.733   2.858
36388W        W97842  20.211  33.075   3.309
36389W        W97843  10.320  41.534  11.479
36390W        W97844  25.149  10.292   2.844
36391W        W97845  10.714  22.060  10.593
36392W        W97846  20.222  37.897  11.110
36393W        W97847  12.848  23.233   5.621
36394W        W97848  13.649  14.307   0.882
36395W        W97849  15.800  43.490  14.834
36396W        W97850  28.601   4.367   3.849
36397W        W97851  40.953   7.280   3.802
36398W        W97852  40.826  37.974  11.389
36399W        W97853  43.309  16.581   3.190
36400W        W97854  17.558  36.045   4.655
36401W        W97855  23.991  25.216   3.376
36402W        W97856  29.467  37.495   0.925
36403W        W97857  40.441  30.644   3.788
36404W        W97858   2.410  18.136  13.477
36405W        W97859  15.091  14.778   2.807
36406W        W97860  40.050   1.352  14.858
36407W        W97861  28.033   6.735  13.823
36408W        W97862  32.127  27.182  12.510
36409W        W97863  21.180  19.552  13.403
36410W        W97864  33.429  32.992   3.732
36411W        W97865  27.678  38.335   2.706
36412W        W97866  41.918  24.714   3.849
36413W        W97867   3.740  24.574   2.663
36414W        W97868   7.257  43.879  12.479
36415W        W97869  23.656  17.764  14.415
36416W        W97870   2.448  20.715   3.771
36417W        W97871  34.038  22.700  14.928
36418W        W97872  35.064  26.080   0.281
36419W        W97873  12.794   4.799  10.100
36420W        W97874  13.305  32.418  13.895
36421W        W97875   5.308  40.900  13.489
36422W        W97876  30.107  38.916   0.932
36423W        W97877   1.350  42.388   3.833
36424W        W97878   5.867  25.119  13.952
36425W        W97879  42.963   6.310   1.837
36426W        W97880   3.890  37.983   2.867
36427W        W97881   3.233  42.004  12.974
36428W        W97882  30.614   3.769  14.795
36429W        W97883  32.456  37.373   1.271
36430W        W97884   2.403  10.348   1.781
36431W        W97885   4.943  40.939  14.828
36432W        W97886  35.529  37.413   4.620
36433W        W97887  16.229  23.161   2.296
36434W        W97888   6.240  39.458  14.032
36435W        W97889   2.914  40.011  12.952
36436W        W97890  13.271  32.491  10.963
36437W        W97891  11.790  35.947  13.970
36438W        W97892   1.733  14.604  11.957
36439W        W97893  17.153  28.057  13.411
36440W        W97894  24.988  31.028  14.858
36441W        W97895  39.438  27.466   4.124
36442W        W97896  38.890   3.922   4.181
36443W        W97897   4.868  31.564  12.403
36444W        W97898  15.191  12.763  14.278
36445W        W97899  23.134  14.117  12.857
36446W        W97900  15.707   6.691   0.246
36447W        W97901   6.189  38.409  13.343
36448W        W97902   7.379  41.423   3.352
36449W        W97903  29.648   0.272   1.720
36450W        W97904  17.706  37.400  12.402
36451W        W97905  33.967   4.769   1.934
36452W        W97906  27.574  17.655   1.908
36453W        W97907  26.607  34.422   5.309
36454W        W97908  28.069   3.775   0.769
36455W        W97909  31.985  36.895   2.803
36456W        W97910  39.883  10.682  12.987
36457W        W97911  38.535  17.169   1.862
36458W        W97912  35.414  21.082  14.818
36459W        W97913  34.469  37.964   0.939
36460W        W97914  44.872  27.677  14.937
36461W        W97915  41.439  42.280  12.522
36462W        W97916  17.144  22.700   0.484
36463W        W97917  18.277  35.532  11.525
36464W        W97918  27.093  13.802   4.127
36465W        W97919   1.858  35.553   2.346
36466W        W97920  27.002  15.792   3.738
36467W        W97921  23.208  43.912  14.448
36468W        W97922  11.663  17.654   9.647
36469W        W97923  13.712  19.241   0.335
36470W        W97924  19.237   8.787   4.779
36471W        W97925  23.237  29.117   0.763
36472W        W97926  14.212   2.847   0.318
36473W        W97927  36.074  28.174   4.609
36474W        W97928  30.618  39.829   4.266
36475W        W97929  37.998  29.576  11.927
36476W        W97930   9.352  40.420  13.541
36477W        W97931  14.291  17.078  12.827
36478W        W97932   3.411  33.932  14.008
36479W        W97933  29.162   7.699  14.327
36480W        W97934  42.480  17.221  10.460
36481W        W97935   5.928  43.988  13.429
36482W        W97936  38.449   6.327  13.805
36483W        W97937  33.896  39.444   3.836
36484W        W97938   1.940  24.480  13.389
36485W        W97939  44.277  37.381   2.368
36486W        W97940  29.003  42.912   1.898
36487W        W97941  30.129  16.210   2.778
36488W        W97942  16.735  26.652   4.115
36489W        W97943   0.976  20.048  13.987
36490W        W97944  10.662  24.531  11.610
36491W        W97945  23.012  44.269   4.668
36492W        W97946  30.962   9.249  13.963
36493W        W97947  41.793  43.827  13.924
36494W        W97948  42.340   6.260   4.235
36495W        W97949  38.946  26.149  13.386
36496W        W97950  37.557  12.831  11.926
36497W        W97951   0.825  14.334   5.146
36498W        W97952  39.384  26.457  13.502
36499W        W97953  38.443   1.443  14.762
36500W        W97954  13.316  18.643   2.297
36501W        W97955  13.731  12.337  12.091
36502W        W97956   4.924  43.955  13.399
36503W        W97957  39.501  41.926  11.435
36504W        W97958   7.789  19.134  11.403
36505W        W97959  10.191  39.354   3.851
36506W        W97960   1.757  44.464   4.300
36507W        W97961  19.142   7.732  14.456
36508W        W97962  29.636  18.753   4.638
36509W        W97963  31.002  33.540  14.021
36510W        W97964   6.755  39.876  13.350
36511W        W97965   6.276  43.431   0.874
36512W        W97966   9.281  25.565   3.656
36513W        W97967   2.277  38.329  14.334
36514W        W97968  23.067  13.657  11.883
36515W        W97969   2.862  37.537  13.350
36516W        W97970  32.542  17.675  13.873
36517W        W97971   3.431  41.986   5.193
36518W        W97972  38.951  24.516  13.515
36519W        W97973  35.361  17.074  12.574
36520W        W97974  33.552   2.411  14.819
36521W        W97975  29.558   4.748  13.466
36522W        W97976  10.372  34.526   3.330
36523W        W97977   7.888  16.692  14.497
36524W        W97978  42.443  24.035  13.526
36525W        W97979  43.972  42.844   2.804
36526W        W97980  21.256  29.935  12.464
36527W        W97981  21.693  22.012  11.569
36528W        W97982  38.937  43.969  14.321
36529W        W97983  42.319  25.543   1.897
36530W        W97984  14.647   8.815   5.246
36531W        W97985  11.818  44.955  11.065
36532W        W97986  17.720  29.602  13.490
36533W        W97987   0.436  29.443   2.728
36534W        W97988  11.691  24.173   0.942
36535W        W97989   9.876  10.140  11.462
36536W        W97990  21.704  28.158  13.544
36537W        W97991  31.634  24.720  12.513
36538W        W97992  11.806  40.309   1.373
36539W        W97993  19.082  41.893   3.782
36540W        W97994  41.424   4.765  14.416
36541W        W97995  24.145  42.502  12.508
36542W        W97996  25.193  18.746   0.259
36543W        W97997   6.859  32.545   2.899
36544W        W97998  39.895  21.089  13.997
36545W        W97999  41.334  25.007  12.444
36546W        W98000  15.250  18.755  11.600
36547W        W98001  30.488  12.288  12.824
36548W        W98002   7.192   2.305   2.365
36549W        W98003   5.231  15.679  10.478
36550W        W98004  25.702   0.302  13.518
36551W        W98005  18.786  10.274   4.719
36552W        W98006  41.814  41.915  14.330
36553W        W98007  41.336  39.842   2.205
36554W        W98008   0.963  44.940  12.035
36555W        W98009  40.053   5.349  11.385
36556W        W98010  30.550  31.073   1.798
36557W        W98011  20.535  13.198  10.622
36558W        W98012  34.423   2.291  12.030
36559W        W98013  26.070   0.849  12.485
36560W        W98014  16.748   2.299  12.343
36561W        W98015  35.876  29.165  11.051
36562W        W98016  25.552  25.157   4.350
36563W        W98017  24.172  15.735  14.002
36564W        W98018   1.336  26.536   2.769
36565W        W98019  38.491  36.521   4.143
36566W        W98020  14.832  17.239  10.466
36567W        W98021  23.598  42.778  10.545
36568W        W98022   7.883  15.148   0.872
36569W        W98023  44.934   1.858   2.842
36570W        W98024  39.322  40.852  14.396
36571W        W98025   1.916  31.493  12.909
36572W        W98026   5.729  11.828   1.435
36573W        W98027  38.410  11.724  11.527
36574W        W98028  28.939  24.119   1.352
36575W        W98029  15.743  18.708   1.752
36576W        W98030  25.208   7.295   3.734
36577W        W98031  36.910   9.818   4.286
36578W        W98032  11.252  28.965   4.642
36579W        W98033  30.450  30.006  12.954
36580W        W98034  40.917  31.470  14.506
36581W        W98035  14.285  37.491  12.989
36582W        W98036  35.049   7.711  11.968
36583W        W98037  34.955  36.371  10.905
36584W        W98038   1.977  30.554   0.741
36585W        W98039   8.739   6.257  14.822
36586W        W98040  15.585  30.543  12.491
36587W        W98041  34.005  43.402  13.793
36588W        W98042  29.003   4.250  12.835
36589W        W98043  14.272  29.477   1.733
36590W        W98044  18.192  22.996   0.818
36591W        W98045   0.893  40.477  11.968
36592W        W98046  40.400  33.003  10.625
36593W        W98047  33.042  27.684   1.853
36594W        W98048   0.348  18.657  12.408
36595W        W98049   2.419  42.307  13.965
36596W        W98050  33.946  14.762  12.544
36597W        W98051  23.217  41.972   1.290
36598W        W98052  16.772  32.563  10.442
36599W        W98053  41.868  37.335  12.923
36600W        W98054  14.322  13.107  12.501
36601W        W98055  38.484  14.255  10.637
36602W        W98056  39.560   8.293   2.410
36603W        W98057  25.016   5.730   4.151
36604W        W98058  11.213  34.999  11.598
36605W        W98059  24.218  27.946   4.294
36606W        W98060  21.027  11.252   2.746
36607W        W98061  15.693   9.279  11.072
36608W        W98062  15.822   1.772  12.479
36609W        W98063  17.301  38.445   4.200
36610W        W98064   0.918  34.402  12.835
36611W        W98065   2.458  27.974  13.472
36612W        W98066  19.664   4.386   0.750
36613W        W98067  30.558  21.218  12.052
36614W        W98068  37.344  13.240   5.316
36615W        W98069  11.197   0.801   3.634
36616W        W98070  10.718  11.756  11.023
36617W        W98071  31.634  19.060  10.642
36618W        W98072   1.829  22.176  11.526
36619W        W98073  23.092   0.334   1.353
36620W        W98074   7.349   8.396  14.952
36621W        W98075  35.402  30.564   1.266
36622W        W98076  13.804  21.537  13.316
36623W        W98077   9.255  14.337   1.441
36624W        W98078   7.332   3.409  13.449
36625W        W98079   5.340  23.708  12.899
36626W        W98080  18.690  25.467   0.351
36627W        W98081  36.400  12.362  12.004
36628W        W98082  28.047  28.992  13.475
36629W        W98083   3.341   1.925   3.266
36630W        W98084  13.112  31.408   0.954
36631W        W98085  31.462  17.691  10.938
36632W        W98086  31.514  33.492  14.888
36633W        W98087  27.123  10.282  13.025
36634W        W98088  37.430   5.318  10.611
36635W        W98089  33.013   9.849   1.777
36636W        W98090  37.544  19.642   1.291
36637W        W98091  25.529  32.416   0.341
36638W        W98092  41.395  26.559   4.235
36639W        W98093  32.415  28.169   4.336
36640W        W98094  34.919  30.960   3.220
36641W        W98095  15.585   7.393  10.045
36642W        W98096  11.205  39.432   4.756
36643W        W98097  42.475  42.411   4.274
36644W        W98098  35.569  13.806   3.184
36645W        W98099  10.829  30.421   2.385
36646W        W98100  14.223  31.505   4.769
36647W        W98101   9.822  32.066  14.390
36648W        W98102   2.424  33.561   5.152
36649W        W98103  20.218   3.248   0.731
36650W        W98104  20.700  17.603  13.829
36651W        W98105   9.300  19.201  11.527
36652W        W98106   8.675  21.740  10.931
36653W        W98107   7.873  11.233   4.835
36654W        W98108  21.256  20.245  10.557
36655W        W98109  23.667   6.681  13.517
36656W        W98110  21.161  37.382   4.325
36657W        W98111  41.427   4.305   2.848
36658W        W98112  31.944  16.270  14.000
36659W        W98113  36.493  16.746  13.348
36660W        W98114  21.135   8.201   0.295
36661W        W98115  22.032  15.287   3.666
36662W        W98116   3.809  27.187  14.920
36663W        W98117  43.348  18.647  13.000
36664W        W98118  24.652  29.072  11.557
36665W        W98119   5.841  32.484   2.724
36666W        W98120   7.884  23.682  11.893
36667W        W98121  14.669  36.524  12.492
36668W        W98122  39.817  20.706  13.396
36669W        W98123  37.948  13.301   4.612
36670W        W98124  18.055  32.497   3.278
36671W        W98125   0.917  22.143   1.266
36672W        W98126  37.433  44.458  11.099
36673W        W98127  17.595  33.472  13.924
36674W        W98128  11.324  16.711   2.818
36675W        W98129  38.968   0.973   3.365
36676W        W98130   3.946   4.925   4.263
36677W        W98131  36.410   6.885   4.257
36678W        W98132  38.034  12.802   4.167
36679W        W98133  34.535  17.795   3.714
36680W        W98134   9.375  29.922   5.678
36681W        W98135  31.474   8.203  10.474
36682W        W98136  20.618  13.242   3.233
36683W        W98137  11.289  34.991   0.910
36684W        W98138  15.194  28.640  12.082
36685W        W98139  37.860   2.946  12.863
36686W        W98140  31.508  34.052   4.822
36687W        W98141  26.487  10.662  14.886
36688W        W98142  14.114  22.597   4.613
36689W        W98143  18.764  31.987   3.236
36690W        W98144  17.628  44.991  11.039
36691W        W98145  38.339   6.359   0.461
36692W        W98146  19.706  23.060   1.310
36693W        W98147  13.260  43.484  12.347
36694W        W98148  19.719   8.332  13.331
36695W        W98149  17.086   5.252  11.606
36696W        W98150  31.919  18.772  14.456
36697W        W98151  44.956  33.009  10.936
36698W        W98152  11.759   5.261   0.292
36699W        W98153  31.548  10.173  11.879
36700W        W98154  39.007   7.675   3.359
36701W        W98155  33.492  32.973   0.372
36702W        W98156  21.598  16.666   4.344
36703W        W98157  33.075   1.331  14.300
36704W        W98158  41.320   2.248   3.671
36705W        W98159  39.861   6.743  11.449
36706W        W98160   8.770  29.090   0.905
36707W        W98161  22.509  10.845  13.359
36708W        W98162   6.748  44.884   1.760
36709W        W98163  28.995   3.913   1.921
36710W        W98164  37.348  21.678   1.450
36711W        W98165  14.797   6.417  13.806
36712W        W98166  30.650  17.651  10.470
36713W        W98167  35.396  37.503   4.315
36714W        W98168   8.669  44.892  13.855
36715W        W98169  40.965  36.845  10.935
36716W        W98170   4.292  13.633  12.538
36717W        W98171  34.590  27.503   4.824
36718W        W98172  40.835   9.330   1.408
36719W        W98173  12.727   8.168  13.481
36720W        W98174  23.082  31.451  11.610
36721W        W98175  10.805  40.405   1.752
36722W        W98176  37.337   9.741  11.933
36723W        W98177   6.694  42.909  11.550
36724W        W98178   9.811  27.542  14.856
36725W        W98179  13.148   5.760  14.862
36726W        W98180  34.048  22.083   3.659
36727W        W98181  27.072  27.124  11.384
36728W        W98182  21.647  12.162  10.632
36729W        W98183  40.302  34.392   1.880
36730W        W98184  18.671  10.221   2.674
36731W        W98185  27.549  12.327  11.917
36732W        W98186   8.701  31.963  14.932
36733W        W98187  41.478  24.156   2.394
36734W        W98188  10.679  19.094   0.387
36735W        W98189   7.907  34.600   4.125
36736W        W98190   5.385  11.302   3.661
36737W        W98191   7.861   7.833  13.519
36738W        W98192  39.361  30.423   3.221
36739W        W98193  21.128  21.720  13.518
36740W        W98194  36.504  25.565   2.853
36741W        W98195   2.267  27.995  12.865
36742W        W98196   2.737   8.263  12.918
36743W        W98197  26.150   9.869  11.914
36744W        W98198  27.981  39.466  14.963
36745W        W98199  41.862  41.462   4.766
36746W        W98200  37.072  18.101   3.377
36747W        W98201  18.769   9.792  11.459
36748W        W98202  26.671  12.717   0.283
36749W        W98203  25.520  40.410  11.952
36750W        W98204  15.649  31.094  14.942
36751W        W98205   8.295  33.535  13.012
36752W        W98206  33.520   6.708  10.039
36753W        W98207   2.799  44.484  12.477
36754W        W98208  13.219  18.188   3.171
36755W        W98209  26.991   6.367   2.311
36756W        W98210  27.080  16.252  11.489
36757W        W98211  31.588  39.033   3.234
36758W        W98212  20.531   8.194   2.268
36759W        W98213  28.027  15.812   4.122
36760W        W98214  30.599  13.781   0.382
36761W        W98215  31.405  29.999   4.322
36762W        W98216  43.999   5.886   0.318
36763W        W98217   4.741  17.134   2.417
36764W        W98218  24.184  16.262  12.444
36765W        W98219  34.469   6.823  12.490
36766W        W98220  43.866  23.025  10.562
36767W        W98221  37.937  25.120   0.389
36768W        W98222   2.395   3.819  13.328
36769W        W98223  37.387   5.725   4.183
36770W        W98224  22.722   8.220  14.367
36771W        W98225  37.854  18.101  10.457
36772W        W98226  38.356   7.708  13.865
36773W        W98227  17.206  16.261  13.432
36774W        W98228  15.599   7.677   1.898
36775W        W98229  37.080  11.222  12.428
36776W        W98230  25.574  34.550  10.153
36777W        W98231   4.766   3.759   1.226
36778W        W98232  33.991  42.465  12.487
36779W        W98233  31.005   9.838  11.880
36780W        W98234  24.112  14.811  10.542
36781W        W98235  43.978  24.131  12.940
36782W        W98236  27.121  26.616  14.369
36783W        W98237  31.144  42.284  11.547
36784W        W98238   8.340   5.202   0.286
36785W        W98239   2.291  26.106  12.996
36786W        W98240  13.156  12.687   1.431
36787W        W98241  19.638  31.466  13.343
36788W        W98242  23.228  13.624   4.268
36789W        W98243  39.413   3.764   0.829
36790W        W98244  23.625  38.473   0.322
36791W        W98245  42.980  19.249   0.926
36792W        W98246  41.807  31.963  10.567
36793W        W98247  30.536  40.380  11.424
36794W        W98248  16.762  43.014   3.649
36795W        W98249  38.439  24.681  13.892
36796W        W98250  40.920  36.537   2.832
36797W        W98251  34.390  22.565   4.808
36798W        W98252  18.069  12.689   5.798
36799W        W98253  24.206  34.411  13.991
36800W        W98254   3.793  18.058  14.998
36801W        W98255  16.770   2.873  11.887
36802W        W98256   8.372  30.590  13.335
36803W        W98257   5.204  12.771  14.437
36804W        W98258  29.933  42.004  13.937
36805W        W98259  18.269  36.873   1.878
36806W        W98260  34.593  32.545  12.452
36807W        W98261  32.593   5.838   3.244
36808W        W98262   7.864  12.243  14.334
36809W        W98263  17.769  25.539  12.991
36810W        W98264  10.702  33.585  12.361
36811W        W98265  31.084   9.660  14.429
36812W        W98266  27.651  20.543   0.734
36813W        W98267  44.783  40.036   2.673
36814W        W98268   0.318   3.742  14.907
36815W        W98269  40.396   1.799   3.811
36816W        W98270  35.958  41.940   0.873
36817W        W98271  26.168  27.497   1.235
36818W        W98272  44.494  30.125   2.780
36819W        W98273  16.188  11.744  12.539
36820W        W98274  41.446  18.682   4.645
36821W        W98275  13.813  35.990   1.713
36822W        W98276  35.588  18.615  14.982
36823W        W98277  21.098  27.613  14.472
36824W        W98278  18.739  37.527  10.965
36825W        W98279  27.470  25.125  11.507
36826W        W98280  26.544   6.304   2.419
36827W        W98281  12.124  41.515   1.431
36828W        W98282  16.673  28.069  12.570
36829W        W98283  13.223   2.393   2.729
36830W        W98284  26.047  37.881  13.829
36831W        W98285  14.774   5.400  12.024
36832W        W98286  17.151  23.647  10.528
36833W        W98287  25.539  21.624   4.721
36834W        W98288  12.313   1.794   4.138
36835W        W98289   9.387  19.602  14.277
36836W        W98290  15.264  15.642   2.694
36837W        W98291  27.029  10.381   2.706
36838W        W98292  44.844   7.738   1.854
36839W        W98293   7.810  41.873  11.104
36840W        W98294  26.994   8.680   2.383
36841W        W98295  43.359  38.027   2.402
36842W        W98296  35.992  13.330   4.183
36843W        W98297  31.526  18.103   1.926
36844W        W98298  32.627   5.857  12.059
36845W        W98299  33.085  30.049  12.968
36846W        W98300  33.531  17.250   3.647
36847W        W98301  26.491  43.857  12.044
36848W        W98302  31.642  14.595  14.969
36849W        W98303  14.715  14.795  12.405
36850W        W98304   7.343  43.296   3.654
36851W        W98305  41.041  16.315   0.285
36852W        W98306  40.029  39.043   2.332
36853W        W98307  27.135  40.359  12.488
36854W        W98308  24.018  29.929   2.344
36855W        W98309   8.789   5.368   4.137
36856W        W98310   7.862  43.958   2.852
36857W        W98311  31.112   1.873  10.416
36858W        W98312  28.040  39.441   2.267
36859W        W98313  31.564  13.826   4.308
36860W        W98314   5.289  35.023  10.562
36861W        W98315   4.240  13.306  13.416
36862W        W98316   3.765  39.525   3.318
36863W        W98317  44.827   4.339   3.193
36864W        W98318  19.572  37.881   2.409
36865W        W98319  23.578   0.392   2.708
36866W        W98320  43.456   5.193  11.869
36867W        W98321  12.736  29.660   3.720
36868W        W98322  17.250  14.834   1.385
36869W        W98323  29.081  14.735  11.116
36870W        W98324  23.635  23.583   4.283
36871W        W98325  41.318  31.133   1.863
36872W        W98326  10.344  21.706   3.344
36873W        W98327  43.962   3.906   0.380
36874W        W98328  26.007  39.428  12.013
36875W        W98329  29.123  13.187  13.357
36876W        W98330  41.488  41.376  11.984
36877W        W98331  35.563   6.795  10.462
36878W        W98332  42.526   8.194  12.353
36879W        W98333  26.547  31.948   2.305
36880W        W98334  43.981   0.819   1.262
36881W        W98335  14.805  28.439  13.386
36882W        W98336  22.219  17.261  12.539
36883W        W98337   5.799  24.566  12.942
36884W        W98338   5.860  43.767  12.916
36885W        W98339  36.056   4.262  13.324
36886W        W98340  23.602   6.892  11.929
36887W        W98341  42.319   9.278   3.387
36888W        W98342  16.723  28.552  12.506
36889W        W98343  10.756  39.360  13.476
36890W        W98344  14.659  11.341   9.631
36891W        W98345  38.501  30.022   3.684
36892W        W98346  22.615  42.877  14.975
36893W        W98347  26.624  33.402   2.718
36894W        W98348  18.109  10.240   3.652
36895W        W98349   8.332  12.647  12.547
36896W        W98350  35.041  18.094  10.446
36897W        W98351   1.807  17.242   2.720
36898W        W98352  21.712   7.319  12.901
36899W        W98353  33.613   1.866  10.007
36900W        W98354  26.966   6.350   1.310
36901W        W98355  28.567  11.637   0.298
36902W        W98356  25.662  30.586   2.716
36903W        W98357  12.294  42.000   0.459
36904W        W98358  16.730   9.210   2.241
36905W        W98359  18.179  30.452  12.944
36906W        W98360  41.028  23.990   4.147
36907W        W98361  42.024   2.336   2.779
36908W        W98362  11.816  41.420  12.374
36909W        W98363  23.509  20.111   0.784
36910W        W98364  39.333  41.335   0.783
36911W        W98365  30.547  42.821   3.350
36912W        W98366  42.339  24.213   2.323
36913W        W98367  44.857  26.020  13.062
36914W        W98368  30.430  14.311  11.870
36915W        W98369  23.049  19.074   3.226
36916W        W98370  27.591  37.859   0.300
36917W        W98371   9.240  39.882  10.468
36918W        W98372   0.940  27.087   4.200
36919W        W98373  14.754   5.304  10.584
36920W        W98374   3.872  17.302   4.730
36921W        W98375  16.587  36.928  14.385
36922W        W98376  31.507  34.410  13.439
36923W        W98377  16.199  17.227   1.423
36924W        W98378  37.356  31.511   3.197
36925W        W98379  43.849  29.019  13.803
36926W        W98380  19.125  12.674   1.898
36927W        W98381  38.546  39.466  13.483
36928W        W98382  38.002  36.383   3.752
36929W        W98383  21.598  19.757   3.716
36930W        W98384  24.669   9.756   4.730
36931W        W98385  15.755   1.817  11.540
36932W        W98386  43.349   5.194  14.008
36933W        W98387  34.947  37.960  11.931
36934W        W98388  35.374  30.425   3.705
36935W        W98389  37.896  18.290  14.488
36936W        W98390  23.158  27.603  14.762
36937W        W98391  14.319  30.491   2.721
36938W        W98392   1.347   0.422  12.955
36939W        W98393  36.455  18.704  11.382
36940W        W98394  43.377  37.941   1.225
36941W        W98395  11.849  32.414   4.818
36942W        W98396   2.291  22.633  14.494
36943W        W98397  18.142  21.244  11.066
36944W        W98398  41.016  28.609   3.640
36945W        W98399  42.992  12.192   1.801
36946W        W98400  43.951   2.277  14.289
36947W        W98401   0.453  13.816   0.423
36948W        W98402  42.475  41.401   0.247
36949W        W98403  13.619  17.658   0.738
36950W        W98404  15.801  19.241   2.352
36951W        W98405  23.729  40.968  11.455
36952W        W98406  16.645  19.133   4.672
36953W        W98407  32.625  26.630   3.382
36954W        W98408  13.659  11.742   0.243
36955W        W98409   7.835  20.660   4.232
36956W        W98410  24.536   5.802   9.444
36957W        W98411  34.113  11.816   2.870
36958W        W98412  23.039  44.876   4.668
36959W        W98413  21.539  11.867   3.367
36960W        W98414   0.365  33.623   1.833
36961W        W98415   7.895  14.178  13.479
36962W        W98416  41.973  40.891  12.002
36963W        W98417  16.762  23.037  11.448
36964W        W98418  30.102  35.492   0.439
36965W        W98419  20.628  15.692   2.726
36966W        W98420   8.271  27.588  13.439
36967W        W98421   5.858  21.746   1.739
36968W        W98422  28.664   8.392   3.203
36969W        W98423  15.228  41.979  14.358
36970W        W98424  37.001  12.209   4.660
36971W        W98425   7.829   9.200   1.252
36972W        W98426   8.319  16.796  13.809
36973W        W98427  32.505  17.563   1.386
36974W        W98428  12.134  37.518   0.955
36975W        W98429  41.790  31.083   1.265
36976W        W98430  11.209  14.774   0.884
36977W        W98431  40.875  26.657   0.940
36978W        W98432  22.638  31.959  10.961
36979W        W98433   3.721  27.048  12.917
36980W        W98434  26.173  39.397   2.887
36981W        W98435  43.470  33.885  14.468
36982W        W98436   6.303  15.649   4.201
36983W        W98437   3.774  26.492   3.353
36984W        W98438  25.638  25.065  12.984
36985W        W98439  19.750  15.802  14.952
36986W        W98440   3.818  23.045  12.068
36987W        W98441  28.159  12.786  11.586
36988W        W98442  26.980  34.428  10.080
36989W        W98443   5.250  39.494   3.789
36990W        W98444   0.266   1.888   1.771
36991W        W98445  13.770  36.367  10.939
36992W        W98446  36.518  26.683   4.176
36993W        W98447  27.673   9.649   4.823
36994W        W98448  38.929  12.176  11.105
36995W        W98449  38.052  31.007   0.390
36996W        W98450  20.080   6.884  14.894
36997W        W98451  39.555  21.582  10.521
36998W        W98452   0.468  24.074   4.775
36999W        W98453  22.193   1.311  11.969
37000W        W98454  32.631  24.640   1.214
37001W        W98455  22.034   1.367   0.421
37002W        W98456  37.358  20.557  13.383
37003W        W98457   8.302  14.154  12.874
37004W        W98458  10.324  42.824   0.731
37005W        W98459  24.042  16.279  10.893
37006W        W98460  18.205  25.693  14.896
37007W        W98461  43.916  29.519  13.864
37008W        W98462  30.508   7.189   4.159
37009W        W98463   3.320  31.104  11.071
37010W        W98464  22.568  37.420  12.000
37011W        W98465  31.145   2.318   1.350
37012W        W98466  41.496   3.911   2.306
37013W        W98467  18.733  30.054   2.285
37014W        W98468  34.938  45.000  13.361
37015W        W98469  20.162  23.524   3.254
37016W        W98470  30.024  31.966   0.855
37017W        W98471  19.540  32.418   4.677
37018W        W98472  28.561   4.941  13.398
37019W        W98473  10.248  15.239   1.880
37020W        W98474  10.364  40.503   1.917
37021W        W98475  12.614  28.165  13.817
37022W        W98476  44.354  36.898  14.819
37023W        W98477  12.209  28.939  10.439
37024W        W98478   0.849  32.499  10.561
37025W        W98479   6.842  21.727  11.863
37026W        W98480  12.267   6.739   1.931
37027W        W98481  22.124  40.904   2.843
37028W        W98482  28.537  13.620   1.900
37029W        W98483  35.451  44.444  11.453
37030W        W98484  41.341  28.010  10.643
37031W        W98485  37.945  17.562  10.998
37032W        W98486  11.203  30.966   2.703
37033W        W98487  27.118  34.556  12.840
37034W        W98488  34.542  16.280  12.348
37035W        W98489  28.177   7.817  14.275
37036W        W98490   2.882  26.995  13.879
37037W        W98491  18.099  32.087   2.418
37038W        W98492  37.486  18.658  12.071
37039W        W98493   9.775  26.072   0.912
37040W        W98494   7.721  20.534  14.376
37041W        W98495  15.606  44.387  12.533
37042W        W98496  11.173  31.926   0.823
37043W        W98497  41.438  24.489  11.453
37044W        W98498  32.447  29.553  10.548
37045W        W98499  26.689  37.876  11.375
37046W        W98500  32.539  16.689  11.530
37047W        W98501  17.159  18.276   0.387
37048W        W98502  31.938  21.552   1.242
37049W        W98503  43.404  41.479  13.321
37050W        W98504  10.773  42.966  13.840
37051W        W98505  30.509  13.213  14.486
37052W        W98506   4.750  28.953  12.036
37053W        W98507  29.167  15.664  12.859
37054W        W98508  16.634  31.023  13.911
37055W        W98509   1.740  30.520  13.518
37056W        W98510   3.907  18.269   5.273
37057W        W98511  23.546  44.354  11.885
37058W        W98512  14.721  27.455   3.721
37059W        W98513  33.038  10.260  13.056
37060W        W98514  29.493  28.131  12.573
37061W        W98515  22.744  11.824  12.855
37062W        W98516  15.198  13.835  13.944
37063W        W98517  28.634  36.400   3.695
37064W        W98518  43.940  27.601   3.806
37065W        W98519  39.455  24.492   4.618
37066W        W98520   0.781  38.369  10.903
37067W        W98521  44.496  15.282   0.466
37068W        W98522  22.212  44.003  14.333
37069W        W98523  31.532   3.768  13.311
37070W        W98524  22.559  25.120   5.095
37071W        W98525  11.783  28.961  14.013
37072W        W98526  43.502  16.640  13.341
37073W        W98527  21.635  30.523   0.805
37074W        W98528  10.181   1.349   1.910
37075W        W98529  38.362  37.013   3.211
37076W        W98530  31.514  14.705   0.481
37077W        W98531  32.475  31.950   1.759
37078W        W98532  10.284  24.184   2.773
37079W        W98533   6.416  23.106   1.234
37080W        W98534  27.457  31.907   4.721
37081W        W98535  14.726  22.726  12.485
37082W        W98536  30.519   2.758   4.834
37083W        W98537  30.029   2.320   3.363
37084W        W98538  16.199  25.510  12.422
37085W        W98539  34.450  34.545   4.681
37086W        W98540  42.795   2.910  10.516
37087W        W98541  11.161   2.845   1.318
37088W        W98542  44.798   4.912   3.791
37089W        W98543  21.625  35.460   3.271
37090W        W98544  39.437  24.491   0.943
37091W        W98545   6.208  37.380  11.517
37092W        W98546  42.424  30.652  11.959
37093W        W98547   6.761  21.020   0.901
37094W        W98548  16.706  36.885  12.961
37095W        W98549  33.062  44.940   3.160
37096W        W98550  18.213  10.259  12.080
37097W        W98551  31.508  34.894   1.421
37098W        W98552  29.096  24.114   3.717
37099W        W98553   9.754   4.799  11.574
37100W        W98554  10.233   8.303   2.355
37101W        W98555  27.503  38.890  14.031
37102W        W98556  24.072  32.058  13.959
37103W        W98557  27.018   8.852  14.989
37104W        W98558  16.709   8.719   1.722
37105W        W98559  26.007  30.037   0.913
37106W        W98560  33.479  23.541  14.872
37107W        W98561   8.810  25.094   2.372
37108W        W98562  40.962  26.536   1.744
37109W        W98563  28.450  22.694   1.294
37110W        W98564  29.490  12.347   3.271
37111W        W98565   5.303  16.700   3.848
37112W        W98566  41.412  41.340  12.569
37113W        W98567  17.212  16.800   4.722
37114W        W98568   4.248  19.634   4.122
37115W        W98569   2.402   4.375   1.287
37116W        W98570  11.853  34.535   1.283
37117W        W98571  31.930  17.238   2.265
37118W        W98572   5.869   8.771   1.391
37119W        W98573  11.739  35.947   4.712
37120W        W98574   6.279   6.742  11.395
37121W        W98575   1.466   5.815   0.368
37122W        W98576  36.387  29.159   3.326
37123W        W98577  40.519  40.368   1.313
37124W        W98578   2.233  29.618   2.386
37125W        W98579   1.841  12.628   2.751
37126W        W98580   7.257  43.901   1.801
37127W        W98581  34.481  43.946  13.328
37128W        W98582  25.168  16.755   0.945
37129W        W98583  28.672   6.203   2.763
37130W        W98584  43.438  35.884   9.987
37131W        W98585  42.956  24.688  11.032
37132W        W98586  14.788  44.822  10.958
37133W        W98587  15.614   2.784  12.937
37134W        W98588  41.493  26.144  14.508
37135W        W98589  17.636  13.110   3.631
37136W        W98590  45.000   0.879   3.678
37137W        W98591  37.540  38.848   0.921
37138W        W98592   0.957  15.589  14.948
37139W        W98593  40.007  38.025  12.532
37140W        W98594   5.200   7.255   1.330
37141W        W98595  22.208  20.114  10.569
37142W        W98596  21.039  17.733  14.509
37143W        W98597  22.502  22.114  10.954
37144W        W98598  29.425   9.774   4.767
37145W        W98599  39.317  26.014  10.634
37146W        W98600  18.232  40.889   1.911
37147W        W98601  31.048  29.448   5.217
37148W        W98602  34.523  37.455   9.969
37149W        W98603  41.990  22.659  12.917
37150W        W98604  32.007   8.356   0.261
37151W        W98605  37.446  21.545   2.664
37152W        W98606  18.269  18.736   4.167
37153W        W98607  11.197   5.694  11.592
37154W        W98608   5.264  26.072   3.243
37155W        W98609  36.944  41.904   4.713
37156W        W98610  30.458  32.591   3.358
37157W        W98611  37.337  30.518  12.866
37158W        W98612  16.175  13.188   3.813
37159W        W98613   9.274   7.248   4.780
37160W        W98614  18.702  17.603  14.277
37161W        W98615  32.561  25.675   3.766
37162W        W98616  26.160  29.936   4.274
37163W        W98617  43.484  11.672  14.829
37164W        W98618   8.896  28.013   4.169
37165W        W98619  14.200   0.801   2.702
37166W        W98620  15.774  25.598   2.225
37167W        W98621  29.553  38.011   1.705
37168W        W98622  18.120  29.982  12.002
37169W        W98623   0.295  11.720  10.983
37170W        W98624  29.970  10.289  11.495
37171W        W98625   9.261  10.223   2.186
37172W        W98626  18.665  42.000  13.377
37173W        W98627  30.018  21.029  12.517
37174W        W98628  42.019  31.548   3.715
37175W        W98629  20.712  13.709  11.512
37176W        W98630   5.286  44.350   4.148
37177W        W98631   8.291  12.295  12.381
37178W        W98632  39.996  15.732   4.617
37179W        W98633  32.531   5.264  13.525
37180W        W98634  24.053  31.905  11.932
37181W        W98635  16.091  44.819   0.318
37182W        W98636  17.191  23.500  10.126
37183W        W98637  10.785  26.955   2.877
37184W        W98638  22.618  17.574  10.934
37185W        W98639  28.527  15.310   3.691
37186W        W98640  34.945   7.753  11.416
37187W        W98641  37.887  33.125   3.864
37188W        W98642   9.788  18.155   3.371
37189W        W98643  35.465  29.987   4.260
37190W        W98644  21.735  22.182   3.201
37191W        W98645  38.508   0.427  12.880
37192W        W98646  13.271  37.456  14.870
37193W        W98647   8.751   6.346  10.404
37194W        W98648   5.287   1.861  10.530
37195W        W98649  18.578  17.099   0.426
37196W        W98650  25.966   8.243   4.227
37197W        W98651  36.492  37.440  10.516
37198W        W98652  25.124   1.774  14.455
37199W        W98653  10.363   8.332   4.705
37200W        W98654  38.438  17.570   0.858
37201W        W98655  19.085   2.965  13.803
37202W        W98656   6.709  19.088  11.466
37203W        W98657  38.906  28.605   3.693
37204W        W98658  18.073  14.698  11.050
37205W        W98659  22.107   1.822   2.398
37206W        W98660  32.515  24.715  13.995
37207W        W98661  44.938  17.802  11.111
37208W        W98662   2.452  10.723  11.944
37209W        W98663  42.393  10.636  15.000
37210W        W98664  32.022  11.800  12.068
37211W        W98665  23.715  21.590  11.994
37212W        W98666  22.558  39.369   3.736
37213W        W98667  32.930  20.108  13.507
37214W        W98668  37.035   4.731  13.877
37215W        W98669  40.384  13.722  11.107
37216W        W98670  36.012  42.520  13.916
37217W        W98671  19.661  22.241  11.491
37218W        W98672  24.578  32.960  12.542
37219W        W98673   5.731  19.686  12.835
37220W        W98674  37.919  38.418   1.921
37221W        W98675  33.401   3.316   4.290
37222W        W98676  44.293  14.624  14.929
37223W        W98677  30.069  40.986  11.050
37224W        W98678  21.653  13.642  12.468
37225W        W98679  13.607  16.082  14.981
37226W        W98680   4.867  31.925   3.834
37227W        W98681  34.964  25.496   4.748
37228W        W98682  42.927   7.220  13.514
37229W        W98683  35.362  23.051   4.354
37230W        W98684  12.256   9.655   0.925
37231W        W98685   6.805  32.920   9.954
37232W        W98686   9.352  13.804   3.680
37233W        W98687  25.470  28.051  11.488
37234W        W98688  32.587  12.239  10.918
37235W        W98689  41.526   7.315   0.786
37236W        W98690   0.326  43.802  10.901
37237W        W98691  12.657   0.429  14.445
37238W        W98692   3.275  35.905  14.341
37239W        W98693  32.613   1.383   4.307
37240W        W98694   1.404  30.513  12.915
37241W        W98695  20.678  42.446  11.448
37242W        W98696  22.731  42.996  10.038
37243W        W98697  30.920   7.729  10.521
37244W        W98698  24.517  10.269  14.825
37245W        W98699  21.152  14.613  12.342
37246W        W98700  44.435  14.729  13.035
37247W        W98701  13.268  37.948   3.231
37248W        W98702  28.047   0.874  13.400
37249W        W98703  30.617  37.845   1.329
37250W        W98704  17.746  10.256  13.528
37251W        W98705  22.064   0.834  13.049
37252W        W98706  18.122  36.591  12.345
37253W        W98707   4.271  30.557  12.042
37254W        W98708   0.986  24.654   2.372
37255W        W98709  32.436  26.667   2.858
37256W        W98710  24.173  44.293  12.885
37257W        W98711  17.139  18.257  14.833
37258W        W98712   0.879  39.507  13.001
37259W        W98713  32.046   1.401  10.890
37260W        W98714   0.424  27.168  14.949
37261W        W98715   7.218  27.584  14.950
37262W        W98716  35.501  16.743   1.793
37263W        W98717  33.405  14.109  12.508
37264W        W98718   9.273  29.968   9.631
37265W        W98719  42.339  30.624   3.305
37266W        W98720  44.486   2.744  10.626
37267W        W98721  40.511  10.295  12.087
37268W        W98722  17.797  35.468  13.481
37269W        W98723   6.230  19.696   0.481
37270W        W98724  17.664  12.314  12.538
37271W        W98725  14.182   0.798  13.862
37272W        W98726  12.811  39.905  11.538
37273W        W98727  17.733  23.497  11.563
37274W        W98728   6.822  29.525   4.206
37275W        W98729  35.559  36.040   4.773
37276W        W98730  37.986   8.890   3.731
37277W        W98731  38.355  25.582   3.344
37278W        W98732  28.060  17.674  11.064
37279W        W98733  14.238   4.703   3.294
37280W        W98734  44.927  10.254  11.884
37281W        W98735  40.315  13.236   5.147
37282W        W98736   1.800  13.218  13.048
37283W        W98737  20.088  33.966   2.419
37284W        W98738   7.899   4.892  12.491
37285W        W98739   4.762  35.876  14.323
37286W        W98740  29.149  18.706  13.050
37287W        W98741   5.894   8.191   0.827
37288W        W98742  39.548   1.977   0.377
37289W        W98743   5.907  42.799  14.793
37290W        W98744  24.573  44.818   1.310
37291W        W98745  27.948   9.716   2.249
37292W        W98746  27.042  13.232   4.135
37293W        W98747  12.137  42.937  11.085
37294W        W98748  44.472  43.340  11.501
37295W        W98749  40.843  11.807  11.921
37296W        W98750  32.035  26.069  13.025
37297W        W98751  35.982  22.099   4.331
37298W        W98752  18.222  19.081   0.346
37299W        W98753  15.686  26.615  14.787
37300W        W98754  34.457   5.714  14.503
37301W        W98755  14.205  26.181   0.768
37302W        W98756  29.657   6.679  10.994
37303W        W98757  32.536  29.591  13.351
37304W        W98758  21.705  37.078   4.245
37305W        W98759  27.621  27.189   1.856
37306W        W98760  33.422   4.891  10.564
37307W        W98761   7.677   1.774   9.969
37308W        W98762  19.254  19.201  13.509
37309W        W98763  42.341  37.072   2.696
37310W        W98764  20.192  23.011  14.290
37311W        W98765  20.067  40.024   0.810
37312W        W98766  39.832  28.464  14.762
37313W        W98767   2.852  24.173  13.872
37314W        W98768  25.215  25.485  11.969
37315W        W98769  14.212   3.731  14.833
37316W        W98770  11.802  42.807   1.300
37317W        W98771  44.772   9.162   0.927
37318W        W98772  21.684  28.469   2.765
37319W        W98773  39.880  11.673  14.453
37320W        W98774   6.886  32.052   3.342
37321W        W98775  17.638  34.895   2.895
37322W        W98776   1.880  12.840  12.838
37323W        W98777  37.363  35.940   1.743
37324W        W98778   6.684  13.615  14.803
37325W        W98779  24.014  29.963   4.334
37326W        W98780  35.425  43.919   3.739
37327W        W98781  14.621  36.363  13.941
37328W        W98782  30.580   8.296  13.998
37329W        W98783  24.988  29.478  10.428
37330W        W98784  18.107  34.566   2.865
37331W        W98785   8.859   5.281  10.521
37332W        W98786  25.025  18.217  10.964
37333W        W98787   6.757  27.131   4.621
37334W        W98788  30.546   7.249  12.002
37335W        W98789  30.557  13.802  10.139
37336W        W98790  23.088   1.970  12.404
37337W        W98791  18.159   6.224  14.782
37338W        W98792   7.875  24.102   3.360
37339W        W98793  35.510  40.313   3.342
37340W        W98794  41.902   5.805   4.125
37341W        W98795  11.137   7.206  11.043
37342W        W98796  31.409  29.573   4.697
37343W        W98797  22.249  18.748   0.443
37344W        W98798   2.943  37.508  14.459
37345W        W98799  18.576  28.525  11.599
37346W        W98800  39.962  43.515  13.997
37347W        W98801  26.681   1.246   4.712
37348W        W98802  18.196  34.577  11.027
37349W        W98803  14.611  37.442   2.322
37350W        W98804  42.878  22.732  11.109
37351W        W98805   3.791  42.303   3.207
37352W        W98806  20.057  27.065   0.473
37353W        W98807  25.197  31.630   4.188
37354W        W98808  21.727  12.188  10.951
37355W        W98809  22.218  22.118  12.485
37356W        W98810  33.894  44.448  11.084
37357W        W98811  19.592  37.993   1.343
37358W        W98812  19.679  25.100   2.264
37359W        W98813   7.319  19.740   2.341
37360W        W98814  44.309  19.753   2.893
37361W        W98815   7.700  12.214   2.401
37362W        W98816   8.343  11.156  14.021
37363W        W98817  38.028  44.762   2.903
37364W        W98818  18.653  15.321   3.635
37365W        W98819  23.055  13.122  10.609
37366W        W98820   2.234   3.379  11.948
37367W        W98821   1.754  25.201   1.883
37368W        W98822  24.685  44.494   4.334
37369W        W98823  24.054  39.396   2.341
37370W        W98824  43.000  26.035  13.393
37371W        W98825  21.174  20.149   4.267
37372W        W98826  12.267  37.034  11.475
37373W        W98827  34.041   2.914  13.023
37374W        W98828   9.337  34.560   9.968
37375W        W98829   2.835  26.163   3.736
37376W        W98830  19.216  31.928  14.935
37377W        W98831   3.231  14.751  13.844
37378W        W98832  26.972  17.295  13.028
37379W        W98833   0.337  24.111  14.846
37380W        W98834  34.952  21.619  12.558
37381W        W98835  44.839  21.191   0.796
37382W        W98836  44.405  35.927   2.799
37383W        W98837  12.838   7.670   3.337
37384W        W98838  29.535  11.366   3.774
37385W        W98839  32.481  24.994   1.850
37386W        W98840  37.410   7.339  14.762
37387W        W98841  35.986  30.057   1.374
37388W        W98842  27.463  40.519  11.887
37389W        W98843  13.150  44.919   3.834
37390W        W98844  38.362   2.932   0.921
37391W        W98845  14.221  31.975   4.603
37392W        W98846  25.626  40.037   3.762
37393W        W98847  18.782  42.423   0.390
37394W        W98848   7.280  14.131  10.599
37395W        W98849  32.003  34.600  11.997
37396W        W98850  34.110  15.810  12.989
37397W        W98851  20.762  40.412   4.697
37398W        W98852   8.839  31.445   3.678
37399W        W98853  26.526  11.676  10.614
37400W        W98854  11.793  20.127  14.903
37401W        W98855  14.298  38.901   3.740
37402W        W98856  21.174  10.207  12.969
37403W        W98857  28.518  20.721  10.489
37404W        W98858  25.217  35.590   0.346
37405W        W98859  34.542  13.832   1.725
37406W        W98860  38.026   0.326   4.306
37407W        W98861  32.449  30.507   0.398
37408W        W98862  38.379  26.133  11.554
37409W        W98863  40.986  44.786   3.145
37410W        W98864  42.950   5.898  13.968
37411W        W98865   9.184  43.429   1.697
37412W        W98866  18.224  17.131   2.808
37413W        W98867   3.764   0.846  12.467
37414W        W98868  16.166  19.706   2.321
37415W        W98869   5.870   8.795   2.217
37416W        W98870   7.750  14.704   4.205
37417W        W98871   8.353  16.191   3.269
37418W        W98872  15.816   2.840  12.520
37419W        W98873  19.767   7.190   2.779
37420W        W98874  11.704  20.543  14.444
37421W        W98875  38.897  37.951  11.426
37422W        W98876  17.204   4.414   2.290
37423W        W98877   9.875   9.883   3.380
37424W        W98878  38.920   7.347  11.963
37425W        W98879  43.455  33.623   3.769
37426W        W98880   7.413  25.161   4.822
37427W        W98881  41.979  43.416  14.437
37428W        W98882  35.892  14.785   0.901
37429W        W98883  10.254  21.046   1.303
37430W        W98884  15.256   2.436   0.273
37431W        W98885  44.835  33.878   2.408
37432W        W98886  42.495  23.103   1.819
37433W        W98887  17.182  26.598  10.106
37434W        W98888  12.745   5.823   3.659
37435W        W98889  33.884  19.637  14.810
37436W        W98890  26.543  34.401   3.361
37437W        W98891  34.476   2.905   2.259
37438W        W98892   3.443  15.103   2.359
37439W        W98893   4.370   0.926   4.132
37440W        W98894  28.155   2.917  13.382
37441W        W98895  41.460  19.120   2.344
37442W        W98896   6.835  41.316  11.481
37443W        W98897  12.283   2.799  12.067
37444W        W98898  35.962   7.309  12.874
37445W        W98899  35.009  17.122   2.378
37446W        W98900  35.086  26.970   4.176
37447W        W98901  40.996  18.118   3.267
37448W        W98902   2.250  39.469  11.933
37449W        W98903  37.918   7.352  12.395
37450W        W98904  10.189  34.524  11.409
37451W        W98905  39.531   1.258   0.442
37452W        W98906  18.691   0.937   4.312
37453W        W98907  10.172   8.219  13.976
37454W        W98908  36.358   9.383  12.431
37455W        W98909  27.960  19.647  12.881
37456W        W98910  40.935  23.709   1.926
37457W        W98911   8.330  40.414   4.150
37458W        W98912  28.046  24.715  10.927
37459W        W98913   5.849   5.201  13.532
37460W        W98914  25.524  10.817   2.258
37461W        W98915  37.959  32.523   2.299
37462W        W98916  14.250   1.955   1.296
37463W        W98917  18.105   5.380   1.323
37464W        W98918  13.304   0.480  12.017
37465W        W98919   5.205  27.491  10.515
37466W        W98920  31.447  22.600   2.890
37467W        W98921  30.106  22.731  10.978
37468W        W98922   3.752  41.293  12.068
37469W        W98923  15.627  27.474   2.822
37470W        W98924  30.538  20.649   0.852
37471W        W98925  31.002  43.855  10.548
37472W        W98926  28.630  35.578   3.763
37473W        W98927  33.974   6.861  10.477
37474W        W98928  18.100  13.303  10.438
37475W        W98929   9.656  17.117   2.291
37476W        W98930  18.241  10.691   1.805
37477W        W98931   6.369  31.921   3.725
37478W        W98932   0.427  11.732  10.533
37479W        W98933  14.686  16.258  11.507
37480W        W98934  18.622   3.426  10.453
37481W        W98935  38.352   4.772  12.858
37482W        W98936   2.471  14.621   1.806
37483W        W98937  19.089   9.394   5.129
37484W        W98938   8.702  43.928   3.190
37485W        W98939  37.542  39.052   4.748
37486W        W98940   7.905  33.622   0.760
37487W        W98941  24.051  12.612   2.673
37488W        W98942   1.887  16.204   3.810
37489W        W98943   7.868  15.302   4.827
37490W        W98944  21.032  11.190  10.483
37491W        W98945  32.400  38.972   3.751
37492W        W98946  39.535  18.602  12.852
37493W        W98947   8.194   6.303  11.477
37494W        W98948   1.736   4.845  13.817
37495W        W98949   3.714   2.778   1.696
37496W        W98950   4.270  38.463   3.709
37497W        W98951  18.105  30.507   2.350
37498W        W98952  10.799  31.120  10.579
37499W        W98953  20.712  33.543  11.993
37500W        W98954  26.531  29.563  14.816
37501W        W98955  12.230  28.070  10.989
37502W        W98956  15.113  39.390   0.849
37503W        W98957  32.009  36.054   3.212
37504W        W98958  26.636  16.287   4.312
37505W        W98959   1.399   0.883   4.119
37506W        W98960  28.681  33.543  12.946
37507W        W98961   9.279   3.304   0.929
37508W        W98962  37.454   9.674   3.695
37509W        W98963  28.615  17.253  10.512
37510W        W98964  34.549  13.280  11.548
37511W        W98965  20.106  33.060   3.801
37512W        W98966  35.058   8.189   0.937
37513W        W98967  37.969  30.591  12.078
37514W        W98968  34.064  29.618  13.328
37515W        W98969   7.176  26.524  11.962
37516W        W98970  22.558  32.637  13.972
37517W        W98971  19.538  14.790  10.495
37518W        W98972  43.417  41.935   2.878
37519W        W98973  10.278   1.769  12.975
37520W        W98974   6.414   7.223  11.980
37521W        W98975   8.790  41.436  12.946
37522W        W98976  27.580  43.906   0.417
37523W        W98977  15.162  36.458   0.458
37524W        W98978  33.131  22.521   1.346
37525W        W98979  26.670  44.487  10.489
37526W        W98980  24.045  33.037   3.797
37527W        W98981  31.965  41.970  14.947
37528W        W98982  37.563   1.923  10.118
37529W        W98983   7.713  21.171   3.267
37530W        W98984  20.698  14.203  11.107
37531W        W98985  35.868  29.152  13.391
37532W        W98986  27.002   7.346  10.643
37533W        W98987   9.840  33.114  12.827
37534W        W98988   3.320  24.646   4.278
37535W        W98989  24.707   4.792  13.514
37536W        W98990  38.353  44.939   0.742
37537W        W98991  30.120  19.600   1.909
37538W        W98992  35.460  16.620   4.628
37539W        W98993  32.109  19.722  14.510
37540W        W98994  20.230  41.443  14.930
37541W        W98995  42.967  39.904  12.958
37542W        W98996  21.536   3.858   1.726
37543W        W98997  43.471  13.117  12.952
37544W        W98998  30.479   3.241   3.636
37545W        W98999  30.445  27.575   2.349
37546W        W99000  34.597  28.180   0.427
37547W        W99001  11.628   5.714   0.965
37548W        W99002  21.141  44.787  13.857
37549W        W99003  18.111  39.022  14.885
37550W        W99004   8.750   9.367  10.930
37551W        W99005  43.798   1.939   1.367
37552W        W99006   3.924  13.659   1.921
37553W        W99007  30.089  42.866   3.231
37554W        W99008  39.851   9.813   1.325
37555W        W99009  10.761  36.080  13.049
37556W        W99010  17.658   8.354   2.406
37557W        W99011   2.814  30.125   4.672
37558W        W99012  13.181  40.029  11.473
37559W        W99013  18.161   1.882   3.227
37560W        W99014  24.227   6.800   4.602
37561W        W99015   5.291   1.829  14.918
37562W        W99016  40.964  14.772   3.362
37563W        W99017  28.091   7.895   0.338
37564W        W99018  23.589  44.361  13.791
37565W        W99019  22.068  21.252  13.357
37566W        W99020  16.199   6.894   4.175
37567W        W99021   1.378  22.530   3.809
37568W        W99022  21.113  35.544   0.434
37569W        W99023  19.124  31.107   1.354
37570W        W99024  28.107  11.138   9.628
37571W        W99025  29.936   8.838  10.555
37572W        W99026   6.337  25.158  11.451
37573W        W99027  15.213  23.686   3.365
37574W        W99028   0.436  13.651  14.821
37575W        W99029  37.899   6.922   0.390
37576W        W99030   9.365  10.864  13.931
37577W        W99031  23.126   4.408  12.890
37578W        W99032   4.213  16.243   4.123
37579W        W99033  10.330  40.919   1.447
37580W        W99034  29.935  38.054  12.501
37581W        W99035  40.012  16.236   2.259
37582W        W99036   1.969  21.670  13.357
37583W        W99037  25.093  18.118  11.855
37584W        W99038  23.719  37.938   4.145
37585W        W99039  10.215  39.533  12.010
37586W        W99040  23.082   1.897   3.335
37587W        W99041  16.804  33.921  14.350
37588W        W99042  14.596  26.998   1.358
37589W        W99043  36.060  32.935  11.395
37590W        W99044  29.437   1.946  11.501
37591W        W99045  44.326   5.751   3.262
37592W        W99046   1.975  23.525   1.899
37593W        W99047  39.058  15.252   3.162
37594W        W99048   2.299  32.941  14.855
37595W        W99049  44.338  28.572   3.327
37596W        W99050  15.293   2.923   2.804
37597W        W99051  13.614  35.912   4.791
37598W        W99052  36.031  30.950   2.850
37599W        W99053  13.188  36.512   2.194
37600W        W99054  14.276  26.638   1.714
37601W        W99055  25.582  10.754  13.928
37602W        W99056  38.067   6.816  13.447
37603W        W99057  40.499   8.307   0.737
37604W        W99058  32.036  20.062   3.836
37605W        W99059  19.191  12.656  10.897
37606W        W99060  21.161  28.047   5.295
37607W        W99061  38.336  33.561  14.460
37608W        W99062  44.842  28.954  10.498
37609W        W99063  32.420  13.301   0.816
37610W        W99064  11.166   2.364  14.946
37611W        W99065  40.903  44.985   3.734
37612W        W99066  31.446  34.519   0.242
37613W        W99067   3.283   1.376   3.339
37614W        W99068  19.075  42.476  11.007
37615W        W99069   9.832  40.830  14.864
37616W        W99070  22.208   4.312  14.897
37617W        W99071  17.195  21.699   4.633
37618W        W99072   5.931  40.958  13.308
37619W        W99073  20.746  44.459  11.509
37620W        W99074   7.212   8.223  12.346
37621W        W99075  29.075  14.813   1.921
37622W        W99076  38.564  17.728  11.479
37623W        W99077  18.137  18.767  11.021
37624W        W99078  15.586  23.575   0.362
37625W        W99079  20.204   6.809  10.568
37626W        W99080   0.988  23.176  13.542
37627W        W99081  12.676   2.267   0.409
37628W        W99082  13.629  10.807   1.720
37629W        W99083   7.811  34.931   2.693
37630W        W99084  39.959  18.550  13.036
37631W        W99085  26.659  40.486  14.310
37632W        W99086  22.202  20.661  13.816
37633W        W99087  29.425  35.499  11.479
37634W        W99088  43.837   4.748  14.275
37635W        W99089  21.022   3.910   1.216
37636W        W99090  33.426  35.380  13.869
37637W        W99091  42.934  39.532  14.820
37638W        W99092   2.735  39.378   0.831
37639W        W99093  30.527  29.429  13.920
37640W        W99094  24.499  36.524   4.278
37641W        W99095  21.136  22.016  13.828
37642W        W99096  23.076  18.573  11.046
37643W        W99097   5.356  40.353  12.859
37644W        W99098  34.544  40.898  12.504
37645W        W99099  30.035   4.905   2.335
37646W        W99100   9.816   4.708   0.287
37647W        W99101  39.015  10.167   2.751
37648W        W99102  16.757  26.634  12.475
37649W        W99103   7.744   2.294  14.945
37650W        W99104  31.021  13.837  12.021
37651W        W99105  28.641  42.950  10.531
37652W        W99106   0.350  15.613  10.554
37653W        W99107  35.049  43.866  14.838
37654W        W99108  16.602  17.766  11.079
37655W        W99109  32.512  19.562  13.493
37656W        W99110  17.144  23.506   1.395
37657W        W99111  35.499  27.954   4.354
37658W        W99112  41.980   9.861  10.505
37659W        W99113  31.942  36.961   0.280
37660W        W99114  11.369  18.787  12.003
37661W        W99115  39.331  29.919  11.393
37662W        W99116  30.578  22.556  11.100
37663W        W99117  13.313   0.866  13.028
37664W        W99118  39.503   2.395  12.036
37665W        W99119  32.556  27.043  13.888
37666W        W99120   5.847  29.119   3.178
37667W        W99121   9.674  43.305  13.828
37668W        W99122  26.657  10.720  12.077
37669W        W99123  10.141  21.672   4.763
37670W        W99124  10.247  13.300  14.993
37671W        W99125  18.564  41.988  12.527
37672W        W99126   5.831  11.272  10.421
37673W        W99127  12.174  25.713   2.369
37674W        W99128   4.298   0.979  13.388
37675W        W99129   5.251   0.883  12.045
37676W        W99130  32.957   1.470  11.982
37677W        W99131   5.891  21.197  11.911
37678W        W99132  41.415  14.590   3.209
37679W        W99133  17.080  39.459  10.030
37680W        W99134  15.132  30.479  11.552
37681W        W99135  10.704  22.141   2.850
37682W        W99136  43.391  36.509   4.709
37683W        W99137  35.004  27.692   1.844
37684W        W99138  19.155   9.330  12.562
37685W        W99139  37.033  32.998  12.412
37686W        W99140  33.879  16.194  12.539
37687W        W99141  43.460  27.510   3.308
37688W        W99142  14.120   4.369  14.897
37689W        W99143   1.287  16.116  11.483
37690W        W99144   0.749  25.709   0.778
37691W        W99145  43.790  15.320  12.512
37692W        W99146  36.500  37.500   5.149
37693W        W99147   6.337  40.942  13.333
37694W        W99148  35.480  39.914  11.443
37695W        W99149   7.354  16.588  12.964
37696W        W99150  28.625  38.994   2.404
37697W        W99151  26.986  30.134   0.398
37698W        W99152  43.437  11.780  13.498
37699W        W99153  18.728  36.393   3.197
37700W        W99154  18.266  21.535  11.444
37701W        W99155  40.501   1.805   0.911
37702W        W99156  30.128  36.072  10.595
37703W        W99157  42.870  13.161   3.695
37704W        W99158  40.949  36.070   3.692
37705W        W99159   9.855  38.905  12.562
37706W        W99160  35.510  13.214  11.387
37707W        W99161  24.175  40.884  13.374
37708W        W99162  10.632  16.664   0.255
37709W        W99163  12.730  13.237  14.458
37710W        W99164  34.477  38.892   1.244
37711W        W99165  10.754  39.038  11.905
37712W        W99166  44.923  38.006  12.392
37713W        W99167  13.611  12.651  12.538
37714W        W99168   4.784  40.806   0.282
37715W        W99169  33.925  33.580  10.623
37716W        W99170  24.578   8.729  13.477
37717W        W99171  29.632  39.495  10.455
37718W        W99172   6.323  11.628   1.795
37719W        W99173  39.375  15.688  13.435
37720W        W99174  19.255  20.601  12.009
37721W        W99175  18.121  39.935  11.579
37722W        W99176  37.404  42.831  10.645
37723W        W99177   6.230   7.369   3.792
37724W        W99178  28.624  41.806   0.810
37725W        W99179  25.571  21.041  14.287
37726W        W99180  15.180  27.970   1.431
37727W        W99181  33.088   0.932  11.487
37728W        W99182  40.956  23.994  12.932
37729W        W99183  14.712  43.788   1.843
37730W        W99184  17.209  41.491   2.375
37731W        W99185  10.712  29.163   1.220
37732W        W99186  32.141  32.048   2.787
37733W        W99187  36.381   0.861   2.809
37734W        W99188  26.496   8.255  13.061
37735W        W99189  40.382  18.196   2.713
37736W        W99190   8.885  13.682   3.236
37737W        W99191   9.814  42.010   4.665
37738W        W99192  36.432  43.002   1.267
37739W        W99193   9.841  38.857  13.307
37740W        W99194   3.894   8.664  10.584
37741W        W99195  25.121   7.807  12.578
37742W        W99196   0.459   7.892   0.903
37743W        W99197   9.820  20.620   2.883
37744W        W99198  42.844  20.669   3.328
37745W        W99199   7.326  39.880  10.504
37746W        W99200   9.343   8.257   2.772
37747W        W99201  43.963  40.924   2.834
37748W        W99202   0.955  42.376  13.519
37749W        W99203   4.831   5.240  14.356
37750W        W99204  32.044   8.376   4.157
37751W        W99205   1.760  16.283   2.229
37752W        W99206  19.039  18.157  14.946
37753W        W99207  18.585  33.491   1.737
37754W        W99208  34.014  44.912  14.013
37755W        W99209  15.591  10.875  12.918
37756W        W99210  26.518   1.938  12.955
37757W        W99211  10.716  10.713  11.869
37758W        W99212  40.327   0.858   3.653
37759W        W99213  19.679  34.026   1.799
37760W        W99214  30.143  11.707  11.992
37761W        W99215  22.736  14.630  11.395
37762W        W99216  41.387  44.326  13.869
37763W        W99217  16.701  39.323  14.905
37764W        W99218  35.366  32.637   2.227
37765W        W99219   8.684  33.127   3.253
37766W        W99220  24.190  29.940  11.533
37767W        W99221  37.390  26.089   0.876
37768W        W99222  15.140   8.669  11.564
37769W        W99223   5.311   6.871   1.812
37770W        W99224   7.780  24.148  11.915
37771W        W99225  17.682  34.013  12.953
37772W        W99226   5.830  34.116  11.570
37773W        W99227  36.002  40.990   4.182
37774W        W99228  12.192  36.962   2.815
37775W        W99229  22.729   1.376   0.886
37776W        W99230  20.608  37.988   4.767
37777W        W99231  25.087   1.254  14.424
37778W        W99232  26.551  30.095  13.851
37779W        W99233  43.284  23.055   3.818
37780W        W99234  42.417  11.774   2.851
37781W        W99235  34.937  29.166  11.405
37782W        W99236  11.725  27.611   3.349
37783W        W99237   1.380  43.962   3.312
37784W        W99238   9.654  25.527  12.518
37785W        W99239   9.281   6.823   3.385
37786W        W99240  25.101  32.429  10.094
37787W        W99241  28.455   7.366  14.770
37788W        W99242  16.673  24.481  13.017
37789W        W99243  13.636  15.789   3.761
37790W        W99244  24.224   6.845  13.872
37791W        W99245  34.005  31.996  12.977
37792W        W99246  23.236  13.295  11.573
37793W        W99247  35.952  20.622  10.959
37794W        W99248  29.523   9.319  13.844
37795W        W99249   1.384   4.904  12.967
37796W        W99250  24.574  35.037  13.826
37797W        W99251  29.962  20.683   0.872
37798W        W99252  26.464   8.195   2.380
37799W        W99253  14.626   7.332   2.218
37800W        W99254  19.574  41.897  14.980
37801W        W99255  10.764  35.365   4.769
37802W        W99256   3.450   8.718  14.857
37803W        W99257  30.013   3.240   3.692
37804W        W99258  39.018   4.410  12.367
37805W        W99259  10.350  13.299   3.337
37806W        W99260  10.876  39.369   3.187
37807W        W99261  26.134  28.508  11.568
37808W        W99262  10.381  27.007  12.853
37809W        W99263  39.015  34.950  12.956
37810W        W99264  26.495   4.303   2.206
37811W        W99265  12.308  20.111   2.854
37812W        W99266  40.039  12.199   2.837
37813W        W99267   6.848   3.731  13.984
37814W        W99268  30.487  23.180   2.206
37815W        W99269  40.918  19.724   5.239
37816W        W99270  15.211  17.248  14.925
37817W        W99271   3.420  10.702  10.600
37818W        W99272  29.480  18.081   4.674
37819W        W99273  23.605  37.496  12.432
37820W        W99274  30.551   1.407   4.158
37821W        W99275  21.179   8.320   2.818
37822W        W99276  34.530  37.008  14.939
37823W        W99277  13.282   2.253  12.091
37824W        W99278   6.271  37.492   4.266
37825W        W99279  12.793   4.420   0.764
37826W        W99280  18.218   8.686  11.577
37827W        W99281  19.045   3.780  14.986
37828W        W99282  40.363  25.096   5.195
37829W        W99283  42.367  27.037  14.908
37830W        W99284   5.435  44.449   4.747
37831W        W99285  24.184   4.329  13.907
37832W        W99286  28.930  39.003   2.341
37833W        W99287   4.284  26.563   3.837
37834W        W99288  38.909  29.467  14.858
37835W        W99289  29.465  16.664   4.140
37836W        W99290  36.440  11.629  12.498
37837W        W99291  30.911   1.821  14.906
37838W        W99292  27.577  10.692   2.825
37839W        W99293  29.473  16.611  14.942
37840W        W99294   9.329  34.541   4.674
37841W        W99295  20.028   8.792   4.294
37842W        W99296  16.770  32.413  11.450
37843W        W99297  17.259   7.278   2.296
37844W        W99298  13.278  20.198   0.419
37845W        W99299  43.975  36.038   1.299
37846W        W99300  17.667  40.849  14.369
37847W        W99301  27.193  10.773  13.472
37848W        W99302  24.133   4.910  14.475
37849W        W99303  22.543   1.967  14.845
37850W        W99304  12.329   8.268   0.762
37851W        W99305  35.045  40.817  14.386
37852W        W99306  32.911  43.964  12.874
37853W        W99307  22.598  17.142   3.281
37854W        W99308  18.772  26.689   0.357
37855W        W99309  13.776  22.628  12.848
37856W        W99310  32.557  25.157  12.416
37857W        W99311  26.494  42.454  13.465
37858W        W99312  26.628   7.383  11.481
37859W        W99313  21.606  35.525  12.405
37860W        W99314  41.787  24.137   4.221
37861W        W99315  30.924  29.939   2.190
37862W        W99316  23.010   9.254   2.194
37863W        W99317  21.260   7.809  13.018
37864W        W99318  20.093  40.953   1.353
37865W        W99319  23.667  36.555   3.273
37866W        W99320  33.083  28.460   0.297
37867W        W99321  42.008  38.958  10.622
37868W        W99322  25.568   6.424  12.473
37869W        W99323   5.688  13.723  14.835
37870W        W99324  12.234  28.930   2.751
37871W        W99325   7.694   4.411  12.975
37872W        W99326  19.777   3.383  13.923
37873W        W99327  39.347  12.335   2.395
37874W        W99328  22.166   9.330  14.954
37875W        W99329  19.073  26.117  11.910
37876W        W99330   4.741   7.215   3.863
37877W        W99331  10.309  23.730  11.091
37878W        W99332  36.521  43.790  12.950
37879W        W99333   9.752  10.235   2.191
37880W        W99334   9.291  36.439  14.324
37881W        W99335  29.136   9.181   4.769
37882W        W99336  13.788   5.924   4.681
37883W        W99337  43.294   8.360   0.426
37884W        W99338  41.905  40.971   3.790
37885W        W99339   1.803   1.966  13.519
37886W        W99340  39.528  23.608  12.878
37887W        W99341  20.647  12.190   3.168
37888W        W99342  11.630  28.943   4.628
37889W        W99343  35.043  39.344   2.818
37890W        W99344  11.359   9.229   1.377
37891W        W99345  26.079  36.080   1.337
37892W        W99346   0.381  26.637   0.876
37893W        W99347  12.136  35.953  12.825
37894W        W99348  11.157  40.508  11.564
37895W        W99349  15.794  37.074   4.614
37896W        W99350  23.645  10.221   3.703
37897W        W99351  25.543  14.199  10.027
37898W        W99352  26.969  25.592  14.774
37899W        W99353  31.990  32.900  12.051
37900W        W99354  32.909  13.317  11.897
37901W        W99355  26.667   8.683   4.603
37902W        W99356   3.939  43.901  12.966
37903W        W99357  14.795  27.010   4.124
37904W        W99358  20.651   3.715   3.385
37905W        W99359  39.358  19.055  13.007
37906W        W99360  17.108  27.495  11.072
37907W        W99361   7.726  30.652  13.454
37908W        W99362  39.456  38.368   0.447
37909W        W99363  27.142  33.922  13.453
37910W        W99364  28.527  19.268  13.025
37911W        W99365  28.478  24.203   2.217
37912W        W99366  29.486   9.250  12.541
37913W        W99367  37.928   1.952   0.757
37914W        W99368  31.567  32.036   0.774
37915W        W99369  15.775  15.105  13.380
37916W        W99370   7.697  35.410   1.800
37917W        W99371   7.675   7.797  10.441
37918W        W99372   4.389  22.695   1.267
37919W        W99373  21.594  29.112   3.823
37920W        W99374  23.604   5.215  10.404
37921W        W99375  33.586  15.183   1.224
37922W        W99376  24.562  34.392   0.928
37923W        W99377  20.185   2.245   1.876
37924W        W99378   4.375   0.924  10.439
37925W        W99379  16.676  36.508  12.539
37926W        W99380  41.342  35.469   1.434
37927W        W99381   0.763   4.804   1.374
37928W        W99382  27.506  36.509   2.321
37929W        W99383   2.901  29.931  13.050
37930W        W99384  28.663  20.750   0.276
37931W        W99385  13.743   5.210   4.170
37932W        W99386  35.600  12.677  14.469
37933W        W99387  21.223  34.449   3.770
37934W        W99388  31.587   0.453   2.698
37935W        W99389  28.981   8.230  10.911
37936W        W99390  42.436  13.621   4.607
37937W        W99391  40.314  21.739  12.898
37938W        W99392  40.869  19.709  13.414
37939W        W99393  32.567  21.255   4.337
37940W        W99394  12.636  26.702   3.795
37941W        W99395   8.778  39.900   2.225
37942W        W99396  41.867  29.583   5.082
37943W        W99397   1.329  29.602  12.442
37944W        W99398  22.525   0.424   1.267
37945W        W99399   9.885  31.110   3.329
37946W        W99400  25.606  11.360  11.056
37947W        W99401   5.861  10.816  14.471
37948W        W99402  37.886   7.681   0.755
37949W        W99403  23.092  27.979   2.755
37950W        W99404  25.072  15.656   3.632
37951W        W99405  39.815   0.331   4.261
37952W        W99406  19.595  37.487   2.787
37953W        W99407  44.892  42.402  12.084
37954W        W99408  22.502   4.338   3.635
37955W        W99409  21.256   5.433   2.704
37956W        W99410  27.513  43.430  11.568
37957W        W99411  44.505   0.289  14.501
37958W        W99412  28.520   7.312  14.404
37959W        W99413  44.493  32.009   4.205
37960W        W99414   6.809  24.141   0.763
37961W        W99415  26.979  25.154  14.014
37962W        W99416  37.909  38.965   0.843
37963W        W99417  41.805  44.816   3.300
37964W        W99418  36.555  25.047  11.002
37965W        W99419  28.621  25.154  11.448
37966W        W99420  13.800  29.580  13.503
37967W        W99421  44.386  15.700   3.147
37968W        W99422  23.100  37.551   4.254
37969W        W99423  23.517  43.352  11.943
37970W        W99424  42.882  35.594  12.556
37971W        W99425  19.613  21.573  13.959
37972W        W99426  33.619  24.513   1.748
37973W        W99427   0.279  33.930  11.969
37974W        W99428  34.099   1.738  14.340
37975W        W99429  36.931  21.640  10.494
37976W        W99430  35.891  25.684   4.220
37977W        W99431  32.484   3.346  10.995
37978W        W99432  30.099  30.929  13.379
37979W        W99433  24.651  40.947  12.960
37980W        W99434  10.273  36.483   1.270
37981W        W99435   2.732  14.785   2.178
37982W        W99436  32.125  26.539  10.946
37983W        W99437  35.902  23.575  12.395
37984W        W99438  18.780  11.252   1.438
37985W        W99439  28.637  26.058   0.442
37986W        W99440  30.428   0.782  12.516
37987W        W99441   8.293  27.482   4.778
37988W        W99442   7.742   9.799   2.354
37989W        W99443  28.593  43.789  13.360
37990W        W99444   4.910   6.370   0.459
37991W        W99445   1.945  37.470   4.326
37992W        W99446   8.328  10.315  14.928
37993W        W99447  18.058   7.379  12.897
37994W        W99448   3.868   1.386   4.323
37995W        W99449  26.588  25.101  14.023
37996W        W99450  40.377  25.039   1.728
37997W        W99451   0.269  33.090  10.561
37998W        W99452  15.689   8.369  10.928
37999W        W99453  18.249   0.288   4.323
38000W        W99454  26.561  28.664   2.796
38001W        W99455  34.539   7.884  12.390
38002W        W99456  41.929  39.353  12.873
38003W        W99457  44.291  35.431   3.259
38004W        W99458  38.423  21.651  12.358
38005W        W99459  28.630  21.078  11.497
38006W        W99460   3.284   5.342  13.967
38007W        W99461  32.507   8.258  10.516
38008W        W99462  12.146  19.126   2.233
38009W        W99463  26.980   0.821  12.355
38010W        W99464  35.412  29.976  14.442
38011W        W99465  15.724  12.237   1.852
38012W        W99466  24.182   8.177   0.334
38013W        W99467  35.368  21.664   2.808
38014W        W99468  26.533  33.014  14.827
38015W        W99469   5.327  38.554  14.941
38016W        W99470  18.143   4.827   3.204
38017W        W99471   9.816  17.193   3.313
38018W        W99472  40.919  32.970  13.311
38019W        W99473  32.476   3.750   2.736
38020W        W99474  36.018   5.914  13.920
38021W        W99475  32.436   8.278  12.548
38022W        W99476  19.114  10.362   2.697
38023W        W99477  36.073  25.555  13.410
38024W        W99478  10.310  31.898   3.824
38025W        W99479  31.020  11.260   5.215
38026W        W99480  37.947  28.162   1.426
38027W        W99481  21.752   6.757   1.367
38028W        W99482  36.441  20.633   2.824
38029W        W99483   5.367   8.857  10.528
38030W        W99484  35.961  33.013  13.018
38031W        W99485  24.105  30.125  14.412
38032W        W99486  20.181   2.839  11.382
38033W        W99487   3.815  41.913   3.804
38034W        W99488  39.946  23.730  12.563
38035W        W99489  36.378  26.990   0.451
38036W        W99490  31.543   3.739   2.254
38037W        W99491   6.858   1.952  12.855
38038W        W99492  16.107  33.391   2.191
38039W        W99493  30.072  36.021  14.800
38040W        W99494  14.310  17.727   4.715
38041W        W99495  21.538  28.586  13.526
38042W        W99496  17.722  12.319  13.333
38043W        W99497  11.221  17.571   2.783
38044W        W99498  19.692  17.573   0.303
38045W        W99499  13.707   3.856   0.457
38046W        W99500   7.845  12.240  14.994
38047W        W99501  17.082  42.997   0.416
38048W        W99502  35.544  38.442   1.927
38049W        W99503  12.124   7.856   3.717
38050W        W99504  21.748  18.569   4.613
38051W        W99505  28.960  28.632   4.270
38052W        W99506  30.614  25.595   1.930
38053W        W99507   1.863  14.821   4.652
38054W        W99508  19.619  29.973  14.880
38055W        W99509  28.038   4.854  12.358
38056W        W99510  18.054  13.285  14.490
38057W        W99511  33.593  27.611   5.175
38058W        W99512  30.584  31.431  14.002
38059W        W99513  24.209  33.450   0.305
38060W        W99514  39.343   8.242  13.024
38061W        W99515  22.553   7.909   1.745
38062W        W99516  19.197  38.018  11.384
38063W        W99517  23.229   5.350   2.792
38064W        W99518   2.338  32.105   0.858
38065W        W99519  23.674  29.573   0.254
38066W        W99520  38.075  43.472  10.962
38067W        W99521   4.706  44.318  12.470
38068W        W99522   2.379  42.284   4.677
38069W        W99523  10.273  42.966   9.957
38070W        W99524  21.525  28.995   2.693
38071W        W99525  37.524  14.228  11.961
38072W        W99526  36.455  32.394   2.374
38073W        W99527   1.405  31.123  12.016
38074W        W99528  19.598  14.187  12.449
38075W        W99529   2.962  42.427  13.531
38076W        W99530  25.981   3.229  13.446
38077W        W99531   1.781  44.381   0.803
38078W        W99532  14.596  42.518  12.869
38079W        W99533  15.645   2.294   3.364
38080W        W99534   8.789  27.564   4.825
38081W        W99535  24.708  37.987   0.346
38082W        W99536  13.844  28.930  13.958
38083W        W99537   8.719   6.912   3.819
38084W        W99538  26.551   5.738   1.817
38085W        W99539  14.327  20.164   4.215
38086W        W99540  39.946  44.348   0.916
38087W        W99541  24.706  11.774   0.475
38088W        W99542   7.726  15.782  10.122
38089W        W99543  30.620  20.123   1.764
38090W        W99544  19.538   9.273   4.691
38091W        W99545  15.590  29.073  14.327
38092W        W99546   5.830  18.625  10.607
38093W        W99547   1.754  20.201   2.231
38094W        W99548  43.376  15.145   0.267
38095W        W99549  36.988   1.737  12.529
38096W        W99550  26.003  15.145   4.667
38097W        W99551  34.115  22.123   0.348
38098W        W99552  32.546  10.763   2.415
38099W        W99553  34.613  41.309   1.853
38100W        W99554  24.674  22.194   3.844
38101W        W99555   8.387   8.297  12.552
38102W        W99556  34.484  36.037  12.857
38103W        W99557   3.266  35.973  12.519
38104W        W99558   9.215   8.385   4.813
38105W        W99559  30.141  41.997   1.213
38106W        W99560   3.868   0.342  12.981
38107W        W99561  40.971  44.836   0.964
38108W        W99562  24.685  10.756   1.929
38109W        W99563  26.994   5.860  13.365
38110W        W99564  38.331   8.225  13.850
38111W        W99565   7.226  10.228   0.917
38112W        W99566   0.788  23.583   1.773
38113W        W99567   7.799  35.970   3.802
38114W        W99568  17.690  20.708   0.336
38115W        W99569   3.831  12.775  13.800
38116W        W99570  38.541  16.644  13.045
38117W        W99571  38.461  21.543   1.345
38118W        W99572   6.207  24.984   1.381
38119W        W99573  41.473  25.981   1.700
38120W        W99574  11.702  12.622  11.449
38121W        W99575  15.767  21.237  13.455
38122W        W99576  12.844  11.672  10.093
38123W        W99577  21.755  31.480   2.406
38124W        W99578   9.792  43.924   3.759
38125W        W99579   8.772  43.846  10.498
38126W        W99580   1.861  37.975   4.174
38127W        W99581  22.558  43.394   0.894
38128W        W99582  43.285  35.916  10.899
38129W        W99583  33.544  20.198   4.309
38130W        W99584  32.529  36.061  13.349
38131W        W99585   1.820  27.966   4.776
38132W        W99586  15.090  35.388   0.355
38133W        W99587  21.060  28.986   4.804
38134W        W99588  21.149  36.358  11.585
38135W        W99589  40.376  10.168  11.407
38136W        W99590   1.933  24.100  12.096
38137W        W99591  32.508  26.680   1.329
38138W        W99592  11.160  43.485   1.339
38139W        W99593  23.639  40.936  11.859
38140W        W99594  28.440  38.517  11.588
38141W        W99595  18.090  29.043   1.857
38142W        W99596   1.820  10.759   0.764
38143W        W99597  25.607  42.003  10.490
38144W        W99598  44.340  41.962  10.607
38145W        W99599  32.034  29.450   2.775
38146W        W99600  31.906   3.713   4.141
38147W        W99601  33.419  23.214   3.382
38148W        W99602  39.899   6.258   2.403
38149W        W99603  41.020  15.111  11.903
38150W        W99604  30.570  34.541  11.467
38151W        W99605  27.674  10.199  14.467
38152W        W99606  30.437  44.755   3.787
38153W        W99607  39.520  43.938   5.265
38154W        W99608   1.458  35.872  10.910
38155W        W99609  44.854  32.973  12.057
38156W        W99610  38.017  16.216  12.400
38157W        W99611  32.962  13.719   0.370
38158W        W99612  38.928  31.084   1.736
38159W        W99613  11.329  42.322  12.499
38160W        W99614  21.593  34.097   0.875
38161W        W99615  32.507  28.510  10.899
38162W        W99616  22.219  41.844  14.490
38163W        W99617  20.110  37.337  14.282
38164W        W99618  31.580  31.150   4.769
38165W        W99619  12.128  16.610  11.602
38166W        W99620   8.354  12.727  12.983
38167W        W99621  28.631  40.802  14.383
38168W        W99622  37.903  29.076  14.952
38169W        W99623   3.857   8.247  13.430
38170W        W99624  21.226  44.307   1.723
38171W        W99625  37.425   3.814  14.320
38172W        W99626  24.047   5.778   3.802
38173W        W99627  39.992   6.739  10.612
38174W        W99628  11.780  17.250  10.143
38175W        W99629  31.593  36.030  14.390
38176W        W99630  36.355  14.672   3.225
38177W        W99631  27.582  37.887   1.221
38178W        W99632  41.904  32.583  14.798
38179W        W99633  37.915  27.957  14.427
38180W        W99634  26.100  35.077   1.785
38181W        W99635   9.743  33.404  14.837
38182W        W99636  35.372  22.191   0.867
38183W        W99637  40.948  38.919  14.021
38184W        W99638  10.700   9.160  10.498
38185W        W99639   6.340  12.780  13.407
38186W        W99640  32.896  24.126  10.954
38187W        W99641  38.971  41.932  11.878
38188W        W99642  43.862  11.772   3.283
38189W        W99643   7.712   1.452  12.510
38190W        W99644  34.932  42.857  11.859
38191W        W99645   9.750   4.933   3.270
38192W        W99646  20.084   6.243   1.722
38193W        W99647  15.152  26.958  14.007
38194W        W99648  36.589  41.421   0.942
38195W        W99649  30.077   0.753  13.434
38196W        W99650  22.054  27.178  10.603
38197W        W99651  16.718  35.465  12.543
38198W        W99652  11.835  41.314   2.721
38199W        W99653   4.370  15.119   3.335
38200W        W99654  24.014  12.732  14.829
38201W        W99655  20.758  14.314  13.851
38202W        W99656   2.928  21.157  14.351
38203W        W99657  20.239  30.427  12.909
38204W        W99658  28.107  43.392  13.451
38205W        W99659  32.897   9.263  10.506
38206W        W99660  34.045  14.176  11.858
38207W        W99661  40.464  13.789  11.950
38208W        W99662  33.892  33.586  13.015
38209W        W99663  19.233  20.106   0.310
38210W        W99664  26.465  17.101   2.216
38211W        W99665  10.298   4.450  11.585
38212W        W99666  21.614  27.639  11.994
38213W        W99667  28.075  41.480   1.856
38214W        W99668  10.780  25.141  11.944
38215W        W99669   1.790  37.988  13.856
38216W        W99670   5.400  14.154  14.278
38217W        W99671  12.200  32.919   3.791
38218W        W99672   4.931  22.530   3.734
38219W        W99673  39.973  10.378   0.316
38220W        W99674  32.620   3.748  12.094
38221W        W99675  19.254  40.459  12.459
38222W        W99676  28.577  28.993  11.466
38223W        W99677  31.489  42.382   1.876
38224W        W99678  21.067  10.145   2.265
38225W        W99679  36.929  35.003  12.523
38226W        W99680  33.065   8.769   3.357
38227W        W99681  42.898  18.653  12.341
38228W        W99682  11.753  16.266  13.022
38229W        W99683  42.886  10.650  13.890
38230W        W99684  10.305  35.068   1.355
38231W        W99685  13.607  21.127  12.423
38232W        W99686   3.235  36.415   1.406
38233W        W99687  20.574  31.451   3.297
38234W        W99688  30.613  26.996   2.265
38235W        W99689   4.828  28.473  10.434
38236W        W99690  30.086  37.373  11.461
38237W        W99691  18.732  35.997   0.443
38238W        W99692  25.154  17.091   5.299
38239W        W99693  20.616  15.780  13.844
38240W        W99694  31.627  18.227  12.961
38241W        W99695  42.966  42.295   1.294
38242W        W99696  22.582   2.254   4.714
38243W        W99697   1.753  42.926   0.369
38244W        W99698  27.126   1.930   3.253
38245W        W99699  41.006  11.246  11.011
38246W        W99700  11.246   8.733   2.676
38247W        W99701  43.425  10.767   4.621
38248W        W99702  29.075   7.704  13.423
38249W        W99703  27.156  17.283  13.849
38250W        W99704  10.155   2.240  12.990
38251W        W99705   6.380   5.289  10.543
38252W        W99706   7.907  41.978   1.240
38253W        W99707   3.348  38.476   1.248
38254W        W99708  29.467  28.010   1.784
38255W        W99709   5.744  33.447   4.319
38256W        W99710   5.730  22.696   3.642
38257W        W99711  43.869  40.006   0.256
38258W        W99712   4.397  10.377  14.437
38259W        W99713  32.561  10.824  10.480
38260W        W99714  12.769  41.868  11.096
38261W        W99715  25.696  11.182   1.332
38262W        W99716  11.857   4.894  10.627
38263W        W99717  29.976  28.942   4.170
38264W        W99718   5.265  10.730  12.446
38265W        W99719   9.762  29.461   3.714
38266W        W99720  21.738  21.237   1.361
38267W        W99721  28.435  37.088   3.257
38268W        W99722   6.829   2.449  13.859
38269W        W99723   9.364  21.699  10.060
38270W        W99724  29.953  44.857   2.220
38271W        W99725  43.957  31.003   1.897
38272W        W99726  36.546  22.574  14.002
38273W        W99727  33.021  16.610   4.606
38274W        W99728  38.009  18.556  11.544
38275W        W99729  38.326  37.058   1.270
38276W        W99730   3.857  27.643   4.239
38277W        W99731  34.403  15.585   0.339
38278W        W99732   8.202   0.967   3.317
38279W        W99733   3.809  14.717  14.305
38280W        W99734  11.674   3.739  14.771
38281W        W99735  18.736  31.924  11.003
38282W        W99736  12.332  17.146  10.617
38283W        W99737  42.311   7.699  14.474
38284W        W99738  11.250  13.133  13.845
38285W        W99739  16.202   5.720   0.403
38286W        W99740  32.583   8.205   2.237
38287W        W99741  10.722  41.893   3.861
38288W        W99742   5.249  37.488  13.486
38289W        W99743  12.191  18.679  13.983
38290W        W99744  40.799  23.067   3.644
38291W        W99745  13.328   5.195  13.962
38292W        W99746  33.127  39.320  14.440
38293W        W99747  15.292  31.470  14.331
38294W        W99748  30.086   2.938   0.246
38295W        W99749  13.786  17.304   4.118
38296W        W99750  32.426   1.817   3.310
38297W        W99751  30.443  35.855  14.848
38298W        W99752  38.518   9.207  11.987
38299W        W99753   6.877  29.990   9.953
38300W        W99754  40.027   0.398  12.484
38301W        W99755  29.132  38.962   1.882
38302W        W99756   6.731  34.395   5.587
38303W        W99757  26.198  28.444   2.384
38304W        W99758  40.994   9.679   2.394
38305W        W99759  25.103  42.791   4.778
38306W        W99760  42.348   2.907  12.013
38307W        W99761   0.478  33.891   0.789
38308W        W99762  16.770  15.783  14.313
38309W        W99763  26.517  16.803  12.442
38310W        W99764  36.380  30.595   1.852
38311W        W99765  22.013   6.685   2.253
38312W        W99766  29.647  19.233  13.015
38313W        W99767  42.805  38.334   3.742
38314W        W99768   3.745  14.749  11.384
38315W        W99769  37.877  10.841  11.856
38316W        W99770  42.929   1.874  14.013
38317W        W99771  31.587  28.523   2.317
38318W        W99772  21.701  14.736   4.272
38319W        W99773   3.449  34.118  10.566
38320W        W99774  19.057  32.943  10.609
38321W        W99775   2.431  26.594  14.902
38322W        W99776   9.391   2.904  13.524
38323W        W99777  38.350  29.036   0.856
38324W        W99778  27.463  24.201  14.410
38325W        W99779  37.975  42.376  10.537
38326W        W99780  25.009   9.328  14.997
38327W        W99781   9.276  30.573  10.575
38328W        W99782  40.043  29.425  11.579
38329W        W99783  31.569   6.884  13.033
38330W        W99784  31.471  33.489  14.415
38331W        W99785  41.019  41.304   0.370
38332W        W99786  11.652  32.477  12.042
38333W        W99787  38.409  35.380  14.380
38334W        W99788   0.257  27.617   4.837
38335W        W99789  34.501   8.667   3.854
38336W        W99790  29.566   3.443   2.195
38337W        W99791  21.154   1.374  13.410
38338W        W99792  21.536  13.144   0.309
38339W        W99793  35.406  43.491   4.766
38340W        W99794  42.458  26.489  14.804
38341W        W99795  20.219  29.952   3.726
38342W        W99796  35.891  10.218   2.790
38343W        W99797   0.418  31.953  11.566
38344W        W99798   1.884  18.249   0.822
38345W        W99799  22.239  25.557   4.321
38346W        W99800  11.726  17.690  12.381
38347W        W99801  13.713  33.603   0.785
38348W        W99802  44.340  12.316   0.919
38349W        W99803  12.655  28.988  11.484
38350W        W99804  33.509  26.995  12.041
38351W        W99805  18.653  14.795  12.384
38352W        W99806  10.379  30.140   3.641
38353W        W99807  22.142  20.106  11.503
38354W        W99808  42.311  27.184   1.333
38355W        W99809  26.964  41.887  10.556
38356W        W99810  15.582  32.515   3.689
38357W        W99811  35.907  14.810  12.058
38358W        W99812   7.338   8.896   4.135
38359W        W99813  28.976  26.593  12.416
38360W        W99814  17.736   0.790   1.347
38361W        W99815  11.135  33.599  12.382
38362W        W99816  26.091  17.572   4.679
38363W        W99817   7.751  11.354  11.966
38364W        W99818  44.964   9.358   3.340
38365W        W99819  35.067  11.761   4.813
38366W        W99820  35.975  22.048   2.791
38367W        W99821  26.486  31.063  12.507
38368W        W99822  33.984  15.590   1.890
38369W        W99823  31.109  13.647   2.902
38370W        W99824  29.168  14.196  14.290
38371W        W99825  18.109   0.934   2.250
38372W        W99826  35.438  15.821  11.037
38373W        W99827  24.973   3.926  11.570
38374W        W99828  15.707  14.707  10.101
38375W        W99829  38.832  24.139  10.931
38376W        W99830  33.065  36.435  11.384
38377W        W99831  34.548  14.745  13.048
38378W        W99832  24.193  39.017   1.227
38379W        W99833   3.387  32.514   1.771
38380W        W99834  28.583   6.272   4.623
38381W        W99835  29.604   6.394   3.657
38382W        W99836  14.791  12.835  14.368
38383W        W99837  28.089   3.761  10.945
38384W        W99838  13.755   6.271  12.966
38385W        W99839   5.433  33.444   3.717
38386W        W99840   0.411  11.305   0.868
38387W        W99841  32.468   4.370   1.788
38388W        W99842   1.778  44.898  14.418
38389W        W99843  41.518  31.118  13.438
38390W        W99844  44.285  28.558   2.758
38391W        W99845   2.308  37.866  13.371
38392W        W99846   7.829   9.245   3.811
38393W        W99847  16.696  26.119   2.272
38394W        W99848  43.973  43.494  13.062
38395W        W99849  18.168  41.858   0.945
38396W        W99850  11.711   6.265   3.258
38397W        W99851   2.738  39.827   1.237
38398W        W99852   9.200  21.612   3.704
38399W        W99853  26.158  23.666  12.082
38400W        W99854  43.819   3.853  11.594
38401W        W99855  29.147  20.177  12.511
38402W        W99856   4.831  24.089   0.431
38403W        W99857  32.003  27.043   3.150
38404W        W99858  15.605  19.739   2.235
38405W        W99859  43.502  31.424   0.258
38406W        W99860  18.639  11.195   5.204
38407W        W99861  30.581  26.674  11.470
38408W        W99862  22.657  42.945  11.526
38409W        W99863  23.000  26.631  14.803
38410W        W99864  20.262  18.625  14.020
38411W        W99865  35.931  26.527  13.933
38412W        W99866   6.220  44.880  11.860
38413W        W99867  38.526  43.286   4.817
38414W        W99868   7.833  30.532  13.899
38415W        W99869  40.967  25.975  11.423
38416W        W99870  19.562   3.919  12.051
38417W        W99871   1.384   1.794  13.388
38418W        W99872  27.690   7.240  10.421
38419W        W99873   5.366   6.695  11.122
38420W        W99874  10.155  38.970  13.523
38421W        W99875  32.123  12.239  14.415
38422W        W99876  35.460  14.729   0.774
38423W        W99877   3.901   5.307  10.481
38424W        W99878  28.436  33.128   0.934
38425W        W99879  17.143   8.344  11.430
38426W        W99880  12.712  20.550  14.341
38427W        W99881   3.241  38.382  12.954
38428W        W99882   0.791   9.724  12.347
38429W        W99883  17.206   9.363  14.862
38430W        W99884  24.607  34.996  13.367
38431W        W99885   5.847  12.838  12.003
38432W        W99886   1.859   4.320   1.900
38433W        W99887  12.233  37.033  10.960
38434W        W99888  38.993   3.948  14.827
38435W        W99889  41.942  16.291   2.303
38436W        W99890  18.186  17.609  14.366
38437W        W99891   9.653  16.669  12.981
38438W        W99892   1.340  36.013   3.856
38439W        W99893  10.290  44.443   3.166
38440W        W99894   9.747   7.697   1.321
38441W        W99895  23.091   0.972   3.189
38442W        W99896  38.482   5.725   1.438
38443W        W99897   1.870  10.688   0.442
38444W        W99898   4.248  39.868  11.548
38445W        W99899  36.373  36.865  10.532
38446W        W99900  31.079   9.667   3.222
38447W        W99901  23.613  44.968  13.826
38448W        W99902  39.977  33.387  12.550
38449W        W99903  14.242   8.189   2.379
38450W        W99904  33.069  17.680   0.300
38451W        W99905  14.629  44.989  13.013
38452W        W99906   1.801  16.166   1.900
38453W        W99907  25.155  23.984   2.704
38454W        W99908  11.308  41.940   1.898
38455W        W99909  21.153  21.729  13.797
38456W        W99910  32.962  35.934  11.008
38457W        W99911  11.325   3.941   3.386
38458W        W99912  15.612  37.936  12.566
38459W        W99913  35.525  15.104  12.856
38460W        W99914  42.814  28.929  12.451
38461W        W99915  32.437  19.557  13.857
38462W        W99916  42.933  36.962  13.420
38463W        W99917  32.624   3.818  14.945
38464W        W99918  13.634  38.434   1.774
38465W        W99919   2.389   8.231   4.270
38466W        W99920  17.774  17.269   2.363
38467W        W99921  41.304   3.720   4.673
38468W        W99922  42.775  40.452   0.832
38469W        W99923  27.518  11.725   0.806
38470W        W99924  20.617  36.455  12.563
38471W        W99925  35.884  38.451  10.952
38472W        W99926  41.008   8.709  13.917
38473W        W99927  38.458   5.357  10.927
38474W        W99928   1.905  20.567  14.317
38475W        W99929  21.741  10.302  13.932
38476W        W99930   4.766  18.203  12.510
38477W        W99931  13.239   4.808   1.730
38478W        W99932   5.736   7.211  10.501
38479W        W99933  16.721   2.842  14.286
38480W        W99934  42.888  44.777   2.868
38481W        W99935   9.354  43.976   0.805
38482W        W99936  22.045  35.398   0.410
38483W        W99937  32.587  31.114   3.629
38484W        W99938  28.606   0.938   0.965
38485W        W99939  18.707   8.869   0.914
38486W        W99940   0.966  21.070   1.399
38487W        W99941  38.997  13.601  13.003
38488W        W99942  41.905  38.008  11.944
38489W        W99943  40.473  25.593  12.460
38490W        W99944  11.159  43.388   3.650
38491W        W99945  10.753  34.538  11.072
38492W        W99946  24.075  21.042   2.724
38493W        W99947  26.646  19.148   4.613
38494W        W99948  27.942  33.955  11.539
38495W        W99949  38.032  22.073   0.359
38496W        W99950  39.040  25.623  14.763
38497W        W99951   6.230  26.490  13.412
38498W        W99952  13.772  10.153   2.894
38499W        W99953  41.527  34.943   3.238
38500W        W99954  17.772  24.053  12.929
38501W        W99955  19.110  30.068  12.415
38502W        W99956  27.579  19.539   4.727
38503W        W99957  33.064   6.883   2.716
38504W        W99958  15.159  25.647   3.241
38505W        W99959  42.781  15.189  11.031
38506W        W99960  23.508   2.444   2.262
38507W        W99961  20.170  22.198   2.769
38508W        W99962   6.382  26.163  14.334
38509W        W99963  29.657  40.918   3.741
38510W        W99964  40.898   4.437  10.497
38511W        W99965  15.591   5.751   4.143
38512W        W99966  25.501  20.541   4.760
38513W        W99967  19.110   9.871  10.543
38514W        W99968   9.770   6.749  12.965
38515W        W99969  39.325  33.886   4.116
38516W        W99970  24.023  41.302   5.291
38517W        W99971  21.194   4.896   4.272
38518W        W99972   7.207  34.019   1.932
38519W        W99973  21.074  21.260   0.801
38520W        W99974  28.045   8.896   1.338
38521W        W99975  29.083  36.060  13.839
38522W        W99976  16.643  24.099  12.964
38523W        W99977  13.116  13.279   0.464
38524W        W99978  33.123  32.141  14.926
38525W        W99979  14.789  32.594  13.023
38526W        W99980  42.376   0.754  13.952
38527W        W99981  24.191   7.314   5.184
38528W        W99982  39.486  15.715   0.966
38529W        W99983   8.170  28.463   1.233
38530W        W99984   0.352  43.514  12.577
38531W        W99985  43.844  13.156  12.954
38532W        W99986  43.346   8.339   1.934
38533W        W99987  43.488  32.914   1.851
38534W        W99988  12.341  36.519  12.091
38535W        W99989  14.100  25.189   3.262
38536W        W99990  28.507  16.154   4.804
38537W        W99991  17.752  13.313  12.355
38538W        W99992  22.699  34.496  13.926
38539W        W99993  39.869  24.173   3.244
38540W        W99994  30.070  15.816  14.785
38541W        W99995  41.969  37.559   4.272
38542W        W99996  16.667  39.975   2.696
38543W        W99997  34.417  19.542   1.258
38544W        W99998  29.578   7.731  12.460
38545W        W99999  15.583  37.055   1.317
38546W        W    0  42.518  37.397  13.399
38547W        W    1  37.494  29.563  10.516
38548W        W    2  34.476  15.784  12.980
38549W        W    3  39.021  33.882   3.851
38550W        W    4  37.019  32.490  12.402
38551W        W    5  37.478  15.599  11.879
38552W        W    6  18.119  38.492   2.247
38553W        W    7   1.375  11.796   2.903
38554W        W    8   2.380  22.554  10.939
38555W        W    9  17.558   3.268   3.750
38556W        W   10   7.728  44.934   0.778
38557W        W   11  26.472   5.418  13.415
38558W        W   12  23.995   8.836   2.693
38559W        W   13  18.697   6.882   0.256
38560W        W   14  25.625  37.031   4.748
38561W        W   15  32.906   8.745  13.462
38562W        W   16  24.063  19.179  13.455
38563W        W   17  26.653  17.589   4.667
38564W        W   18   2.254  15.606  11.524
38565W        W   19  30.982  12.161   2.366
38566W        W   20  20.077   3.363   2.782
38567W        W   21  37.351   9.177   2.778
38568W        W   22  25.611  41.352  11.498
38569W        W   23  19.156   9.716   3.329
38570W        W   24  36.437  16.112  12.476
38571W        W   25   6.202  23.123   4.733
38572W        W   26  39.446  37.860   2.799
38573W        W   27  16.284  41.383  10.888
38574W        W   28   1.284   1.451  13.473
38575W        W   29   6.347  26.119  14.876
38576W        W   30  32.091   1.247   4.136
38577W        W   31   1.406  28.106  12.984
38578W        W   32  21.168   5.897   5.570
38579W        W   33  12.684  26.988  14.842
38580W        W   34   4.385  10.258   4.771
38581W        W   35  25.557  10.344  13.386
38582W        W   36   3.953  21.177   0.929
38583W        W   37  35.455  37.575   2.814
38584W        W   38  29.041   7.211   4.747
38585W        W   39  18.719   6.202  11.906
38586W        W   40  24.685  35.062   2.335
38587W        W   41   1.385  30.078   2.857
38588W        W   42  15.711  13.217  14.851
38589W        W   43  30.438  37.082  11.465
38590W        W   44  20.114  31.541   2.796
38591W        W   45   3.847  30.486  11.107
38592W        W   46  35.443  38.884  12.354
38593W        W   47   7.325  35.428   1.780
38594W        W   48  40.406  40.481  13.397
38595W        W   49  42.313  19.675   1.808
38596W        W   50   2.243  29.146   3.162
38597W        W   51  12.334   9.679  12.572
38598W        W   52  13.833   5.376   3.217
38599W        W   53   0.368   6.314  14.457
38600W        W   54  11.160  39.440   3.238
38601W        W   55   0.855  28.091  13.439
38602W        W   56  22.643  41.358  14.943
38603W        W   57  16.250  24.663  12.979
38604W        W   58  15.674   7.765  11.065
38605W        W   59  42.291   8.256  13.367
38606W        W   60  18.627  32.472  14.404
38607W        W   61  34.107   3.811   2.718
38608W        W   62  40.007  17.232  11.472
38609W        W   63   7.894  32.424  12.418
38610W        W   64  41.984   2.302   1.324
38611W        W   65  25.689  44.375  14.339
38612W        W   66  30.519  19.624   1.717
38613W        W   67  41.450  32.592   2.686
38614W        W   68  13.162  30.502  13.022
38615W        W   69  29.599  14.719   9.950
38616W        W   70  39.043   0.254   2.749
38617W        W   71  21.556  40.809  10.428
38618W        W   72  40.534  18.058   1.883
38619W        W   73  17.754   7.689  11.536
38620W        W   74  15.249  38.996   1.774
38621W        W   75  18.665  26.505  12.886
38622W        W   76  43.494   9.659   2.384
38623W        W   77  17.171   2.962  12.453
38624W        W   78  37.994  17.242  14.830
38625W        W   79  18.665  13.697   4.115
38626W        W   80   9.855  29.126  10.568
38627W        W   81  43.366  24.713  14.990
38628W        W   82   6.331   1.891  13.313
38629W        W   83   0.871  12.747  14.818
38630W        W   84   6.844  36.061   4.291
38631W        W   85  44.369  35.545   1.926
38632W        W   86  32.004   1.356  14.505
38633W        W   87  40.526  39.453   4.711
38634W        W   88  28.435  21.637   4.239
38635W        W   89  29.524  36.923   2.811
38636W        W   90  39.492  34.551   0.846
38637W        W   91   4.314  30.506   3.346
38638W        W   92  19.137  32.000   1.782
38639W        W   93  44.269  44.457   2.334
38640W        W   94  21.112  22.540   3.785
38641W        W   95  44.352   1.948  10.564
38642W        W   96  30.458  23.215  10.636
38643W        W   97  36.082  41.793  11.437
38644W        W   98  44.970   2.784  14.478
38645W        W   99  19.543  18.659   1.393
38646W        W  100  28.992   3.895   0.765
38647W        W  101  37.392  24.484  14.866
38648W        W  102  40.868  29.611   2.407
38649W        W  103  11.728  43.374   3.770
38650W        W  104  35.433  42.884  14.312
38651W        W  105  21.036  39.048   1.309
38652W        W  106  43.885  13.721  11.422
38653W        W  107  12.138  44.271  13.894
38654W        W  108  16.205  17.615  12.351
38655W        W  109  42.445   5.749   2.280
38656W        W  110  41.475  17.076  10.972
38657W        W  111  29.549  18.125   2.273
38658W        W  112   2.860  33.400  10.548
38659W        W  113  18.170  43.279  12.059
38660W        W  114  44.870  22.600   4.619
38661W        W  115  39.370   0.879   0.437
38662W        W  116  11.131   9.269  11.519
38663W        W  117  18.163   7.673  11.605
38664W        W  118  43.857  17.633   3.734
38665W        W  119  27.134  42.515   0.416
38666W        W  120  15.141  37.897   3.822
38667W        W  121  26.201  39.450  13.383
38668W        W  122  21.152  25.555   1.217
38669W        W  123  23.629  11.321  10.458
38670W        W  124   1.453  11.250   2.407
38671W        W  125  22.997  41.493   4.256
38672W        W  126   5.819  23.046   0.956
38673W        W  127  20.693   1.739  10.898
38674W        W  128  33.002  31.574  14.423
38675W        W  129  19.272  25.999   1.861
38676W        W  130  22.709  31.489  12.933
38677W        W  131  17.275  29.577  11.968
38678W        W  132  18.617   1.262  12.999
38679W        W  133  18.674  21.709   0.823
38680W        W  134  42.031  30.987  10.931
38681W        W  135  15.600   1.294   2.330
38682W        W  136   6.812  36.405  13.311
38683W        W  137  19.083  24.056  11.110
38684W        W  138  44.397  14.648   2.805
38685W        W  139  32.557  44.879  14.324
38686W        W  140   9.165   7.203  11.042
38687W        W  141  40.396  28.048   4.311
38688W        W  142   1.954  11.173   1.907
38689W        W  143   7.775  41.805  13.882
38690W        W  144  17.152   3.412  12.089
38691W        W  145  14.283  31.543  11.091
38692W        W  146  29.969  33.062  14.773
38693W        W  147  13.621  30.621   3.230
38694W        W  148  13.235   6.823  10.511
38695W        W  149  17.671  11.258   1.774
38696W        W  150   7.352  29.066  12.021
38697W        W  151  16.762   0.267   2.869
38698W        W  152  43.431  23.584   3.359
38699W        W  153  28.647  19.716   0.807
38700W        W  154  29.591  32.964   2.299
38701W        W  155  35.537  41.941  13.463
38702W        W  156  12.221   6.369   3.841
38703W        W  157  17.745  32.004   3.194
38704W        W  158  44.914   7.308   0.343
38705W        W  159  18.115  25.497   2.873
38706W        W  160  19.074  39.999   2.415
38707W        W  161  13.325  30.061  11.904
38708W        W  162  28.133  12.359  14.447
38709W        W  163  25.652   0.399   3.847
38710W        W  164  15.729   4.359  12.823
38711W        W  165   3.317  38.872  12.055
38712W        W  166  11.152  30.947  11.001
38713W        W  167   1.861  35.544   2.851
38714W        W  168  32.026  38.429  14.935
38715W        W  169  21.117  19.160   4.786
38716W        W  170   5.886  38.412   0.370
38717W        W  171  17.216  10.275  13.397
38718W        W  172  28.028  11.688  12.002
38719W        W  173  15.692  10.192   3.182
38720W        W  174   3.945   4.939  12.871
38721W        W  175  44.848  16.313  11.004
38722W        W  176  35.599  41.914   5.093
38723W        W  177  41.372  34.107  11.119
38724W        W  178  16.138  44.894  12.001
38725W        W  179  31.968  15.803   5.319
38726W        W  180  17.212  16.179   3.751
38727W        W  181  12.843  33.032  11.982
38728W        W  182  24.210   9.870   0.385
38729W        W  183  35.001   6.791  11.054
38730W        W  184   6.766  29.069  13.061
38731W        W  185  10.729  27.496   3.158
38732W        W  186  18.689  35.483  11.607
38733W        W  187  33.083   2.795  12.892
38734W        W  188   4.414   3.391  12.954
38735W        W  189  13.685  42.788   4.277
38736W        W  190  33.527  27.461   2.767
38737W        W  191  43.499  13.336   0.834
38738W        W  192  42.802  43.493  14.874
38739W        W  193  24.593  32.605   4.321
38740W        W  194  15.261  30.568   1.697
38741W        W  195   4.204  38.337   4.337
38742W        W  196  22.619  32.606   4.663
38743W        W  197  20.707  18.676   1.704
38744W        W  198  17.764  24.149   0.476
38745W        W  199   4.724  40.424  10.911
38746W        W  200  30.658   2.772  11.453
38747W        W  201  38.057  36.529   4.193
38748W        W  202   9.657  12.632  11.061
38749W        W  203  14.248  11.830  10.938
38750W        W  204   5.238   4.359   4.240
38751W        W  205  33.088  43.384  12.974
38752W        W  206  28.482  20.195  12.438
38753W        W  207  22.643  28.947   2.720
38754W        W  208  14.327  44.455  13.452
38755W        W  209  36.077   7.215   0.329
38756W        W  210  12.709  34.573   0.290
38757W        W  211  24.161  22.211   4.654
38758W        W  212   6.698  27.030  10.470
38759W        W  213  27.554  36.985   1.251
38760W        W  214  13.177   2.925  11.960
38761W        W  215  32.574  43.875  10.897
38762W        W  216  33.925   8.824   3.717
38763W        W  217  14.809  35.504   2.896
38764W        W  218  31.065  35.448  10.021
38765W        W  219  15.609  12.309  10.935
38766W        W  220   3.780  43.960   2.309
38767W        W  221  37.015  30.025  11.093
38768W        W  222  15.315  36.412   1.914
38769W        W  223  33.419  15.774   1.707
38770W        W  224  25.559  20.623   3.225
38771W        W  225  27.655  38.980   3.269
38772W        W  226  16.718  30.519   2.785
38773W        W  227  24.147  39.965   2.245
38774W        W  228  10.288  15.139   4.312
38775W        W  229  22.168  23.120  13.488
38776W        W  230  42.518  28.447  13.358
38777W        W  231  44.996   3.364  14.773
38778W        W  232   3.433  27.991  13.524
38779W        W  233  39.376  42.368  10.999
38780W        W  234  17.631  17.252   2.718
38781W        W  235  34.553  37.405   2.187
38782W        W  236  38.010  17.065  13.971
38783W        W  237  12.776  16.773  13.051
38784W        W  238   6.820  42.969  14.383
38785W        W  239   4.942  36.062   2.302
38786W        W  240  37.522   1.740  13.501
38787W        W  241   1.304  19.230   3.844
38788W        W  242  27.142   6.241   9.997
38789W        W  243  22.549  44.350   3.784
38790W        W  244  34.894   0.352  11.958
38791W        W  245  44.463  30.478  12.954
38792W        W  246  30.608  29.472  12.967
38793W        W  247  18.625  10.832   2.839
38794W        W  248  41.523  40.968  10.529
38795W        W  249  39.059   1.821   4.607
38796W        W  250  10.217  43.374  12.389
38797W        W  251  38.976   4.286   1.259
38798W        W  252  43.320  30.610  14.817
38799W        W  253   6.877  43.961   1.212
38800W        W  254  17.081  26.624   4.667
38801W        W  255   2.768  14.741   4.171
38802W        W  256   0.359  41.029  11.987
38803W        W  257  12.130  18.586   3.807
38804W        W  258  39.331  12.728   3.351
38805W        W  259  18.700  26.106   0.813
38806W        W  260  21.050  13.105   1.933
38807W        W  261   8.849   8.709  12.983
38808W        W  262  30.507  42.953   4.286
38809W        W  263  15.293  20.638  11.451
38810W        W  264  13.146  32.956   4.281
38811W        W  265  10.652  18.644  11.597
38812W        W  266   9.816  38.346  12.079
38813W        W  267  29.075  41.938   3.182
38814W        W  268   1.952   2.245   4.132
38815W        W  269   0.948  44.970   2.352
38816W        W  270  25.694  28.473   0.759
38817W        W  271  23.002  20.051  11.980
38818W        W  272  23.576  18.238   4.757
38819W        W  273  35.904  16.738   2.352
38820W        W  274   3.404  30.146   2.801
38821W        W  275  24.149  17.305  11.987
38822W        W  276  39.015  18.238   3.756
38823W        W  277   4.823  13.265  10.523
38824W        W  278  39.954  21.145  11.568
38825W        W  279  27.069  43.502  11.461
38826W        W  280  26.699  31.105   3.683
38827W        W  281  32.978  11.785   0.429
38828W        W  282  22.212   8.289  10.478
38829W        W  283  30.526  38.020  14.843
38830W        W  284  13.835   1.826  14.925
38831W        W  285  41.323   7.357  13.937
38832W        W  286  24.090  18.689   1.317
38833W        W  287  18.232   8.720  11.021
38834W        W  288  15.604  42.288  13.495
38835W        W  289  36.444  25.599   3.805
38836W        W  290  17.750  37.402   2.696
38837W        W  291  17.568  22.240  12.507
38838W        W  292  17.800  21.585   0.750
38839W        W  293   3.304  27.566  14.836
38840W        W  294   1.750  27.462  14.792
38841W        W  295  42.323   7.213   1.921
38842W        W  296  12.826   3.381   1.709
38843W        W  297  17.231  32.004   4.345
38844W        W  298  32.549  27.541   0.432
38845W        W  299  13.194  17.619  10.565
38846W        W  300  44.504  18.287  11.963
38847W        W  301  27.595  29.116   0.446
38848W        W  302  24.705   3.767  13.438
38849W        W  303  27.508  26.071   3.801
38850W        W  304  15.121  13.643  10.909
38851W        W  305  31.124  14.685  11.459
38852W        W  306  22.596  15.099   2.683
38853W        W  307   5.788  28.636   1.696
38854W        W  308   8.808  28.947   4.634
38855W        W  309  38.433  44.867   4.314
38856W        W  310   9.317  24.495  13.499
38857W        W  311   2.464   2.457  13.420
38858W        W  312  12.333   0.815   4.718
38859W        W  313  34.115   6.906  14.431
38860W        W  314  19.039  20.566   2.252
38861W        W  315  38.023  27.195  14.030
38862W        W  316  31.522  23.494  12.924
38863W        W  317  24.686  20.204  14.498
38864W        W  318  35.854   1.855  11.484
38865W        W  319  35.981  31.521   4.177
38866W        W  320  18.548  34.960  11.866
38867W        W  321  23.566   3.901  11.997
38868W        W  322  19.244  40.493  12.886
38869W        W  323  26.999  10.185   3.705
38870W        W  324  43.305  10.321   2.879
38871W        W  325  19.101  14.222  12.957
38872W        W  326  21.209  21.613  14.382
38873W        W  327  28.052  35.365   5.207
38874W        W  328  18.764  36.937  10.639
38875W        W  329   8.174  14.119   2.404
38876W        W  330  29.138  40.499  11.082
38877W        W  331  37.372  12.790   2.194
38878W        W  332  18.200  42.939  10.610
38879W        W  333  28.074  13.629   4.294
38880W        W  334   7.288  41.483  14.987
38881W        W  335  26.465  30.112   0.814
38882W        W  336  13.794  43.475   1.702
38883W        W  337  37.346   8.346  13.022
38884W        W  338  42.009   4.402   0.827
38885W        W  339  20.766  34.971  12.896
38886W        W  340  43.514  13.260  13.332
38887W        W  341   1.337  17.094  14.024
38888W        W  342  42.470  23.652  10.641
38889W        W  343  14.198   8.867   2.728
38890W        W  344  28.570  44.401   3.155
38891W        W  345  13.638  21.676   1.236
38892W        W  346  24.651  24.615  14.441
38893W        W  347  22.085  12.229  11.573
38894W        W  348  28.563   5.277  14.386
38895W        W  349  32.132  20.602  13.362
38896W        W  350   9.281  21.060  14.957
38897W        W  351  24.190  11.701   4.655
38898W        W  352   4.320  38.021   0.415
38899W        W  353  30.426   3.818   4.307
38900W        W  354  40.003  12.854   0.872
38901W        W  355  24.983  32.051  12.548
38902W        W  356  41.337  31.901  13.506
38903W        W  357  14.608  23.005   0.798
38904W        W  358  41.461  13.807   2.300
38905W        W  359  31.576   5.252  11.951
38906W        W  360  42.847  19.719  10.412
38907W        W  361  25.573  43.000  14.505
38908W        W  362  24.063   3.355  11.527
38909W        W  363  17.661   1.925  12.382
38910W        W  364  34.973   8.750   4.751
38911W        W  365  33.506  11.248   9.989
38912W        W  366  11.836  33.523  13.435
38913W        W  367   2.386  39.479  13.408
38914W        W  368   4.448  20.727   3.171
38915W        W  369   2.427   5.195  13.948
38916W        W  370   4.784  16.285  10.617
38917W        W  371  29.957  22.249   2.380
38918W        W  372  22.247  35.011  11.008
38919W        W  373  29.933   1.280   9.973
38920W        W  374  36.008  43.294   3.871
38921W        W  375  40.383  21.121  12.982
38922W        W  376   2.265  19.208  12.488
38923W        W  377   5.237  13.694   4.311
38924W        W  378   2.943  19.073  14.359
38925W        W  379  41.871   4.417  11.434
38926W        W  380  35.043  25.057  14.970
38927W        W  381  28.160   1.378  11.593
38928W        W  382   4.926  31.632  13.493
38929W        W  383  13.298  15.170   0.807
38930W        W  384  13.322  11.739   5.748
38931W        W  385   5.822   4.270   3.656
38932W        W  386  43.006  43.019  12.502
38933W        W  387  41.304  29.510   4.686
38934W        W  388  44.851  34.512  10.553
38935W        W  389  30.110  31.132  13.016
38936W        W  390  30.636   9.387  12.430
38937W        W  391  31.915   6.286   2.822
38938W        W  392   8.337  26.204   3.270
38939W        W  393  16.715  32.982   3.658
38940W        W  394  20.271   1.942   2.866
38941W        W  395  44.297  17.084   4.616
38942W        W  396  10.379  21.612   0.901
38943W        W  397  22.063   4.307  11.012
38944W        W  398  25.999  41.506   0.287
38945W        W  399  20.534  27.945   3.822
38946W        W  400   8.857  11.656  10.519
38947W        W  401  33.949   0.282  10.641
38948W        W  402   1.439   7.775   4.760
38949W        W  403  20.689   1.917  13.875
38950W        W  404  30.081   3.726  12.450
38951W        W  405  37.546   9.863   0.827
38952W        W  406  36.900  40.400   1.317
38953W        W  407   0.918  12.225  11.605
38954W        W  408  28.497  27.144   3.671
38955W        W  409  36.073   5.712   1.419
38956W        W  410  36.544   5.868  10.024
38957W        W  411  44.466  42.989  14.823
38958W        W  412  30.049  37.931   2.776
38959W        W  413   7.716   5.374  14.778
38960W        W  414   4.333   9.296  11.377
38961W        W  415   5.783  14.116  11.919
38962W        W  416  43.276   2.265   2.190
38963W        W  417  16.588   0.312  13.497
38964W        W  418  31.108   5.851  11.057
38965W        W  419  31.067   6.864   2.680
38966W        W  420  25.180  40.329  11.005
38967W        W  421  25.596  32.094  12.880
38968W        W  422  38.474  30.535   0.788
38969W        W  423   8.856  37.015   3.839
38970W        W  424  25.132  17.212  13.450
38971W        W  425  37.060   6.346   0.947
38972W        W  426  29.020  35.448   4.186
38973W        W  427  23.614   6.906   3.702
38974W        W  428  29.079   5.804  12.059
38975W        W  429   5.297  31.553   4.823
38976W        W  430  21.243  33.604   2.740
38977W        W  431  26.060  42.407   1.813
38978W        W  432  14.801  14.600   1.425
38979W        W  433  14.809  38.894   9.999
38980W        W  434  38.860  29.454   1.758
38981W        W  435  25.103  41.800  11.488
38982W        W  436  24.494  20.545   0.813
38983W        W  437  21.650  36.575  14.305
38984W        W  438  25.524   1.336  13.979
38985W        W  439  13.253  41.952  12.066
38986W        W  440  11.736  35.992   5.179
38987W        W  441  29.067  25.562  10.607
38988W        W  442  38.061  12.760  11.472
38989W        W  443   5.699  24.500  14.780
38990W        W  444  27.674  25.051  13.841
38991W        W  445   7.739   4.332  14.463
38992W        W  446  24.136  39.904   0.423
38993W        W  447  13.281  25.559  14.834
38994W        W  448   5.706   3.817   3.838
38995W        W  449  20.617  32.073  13.919
38996W        W  450  20.251  31.522   3.178
38997W        W  451  16.272  16.204   4.791
38998W        W  452   6.418  32.634  10.039
38999W        W  453  29.125  17.060   0.933
39000W        W  454  20.569  33.590  14.453
39001W        W  455  12.349  23.206   0.311
39002W        W  456  19.165   9.153   0.963
39003W        W  457  32.107  18.695   0.933
39004W        W  458  34.113  40.530   4.198
39005W        W  459   0.880  28.474   1.728
39006W        W  460  27.555  40.874   2.768
39007W        W  461  26.099  29.651   4.129
39008W        W  462  21.234  22.107   0.378
39009W        W  463  24.719   2.237  11.604
39010W        W  464  19.615  30.989   3.366
39011W        W  465  44.920  34.117  11.991
39012W        W  466   2.469  30.018  10.961
39013W        W  467   5.755  37.936  13.462
39014W        W  468  16.246  26.570   3.227
39015W        W  469   7.867  24.095   2.233
39016W        W  470   7.714  34.403  11.863
39017W        W  471  27.110  12.131   4.608
39018W        W  472  21.052   1.271   4.731
39019W        W  473  35.575  36.472  10.405
39020W        W  474  33.562  33.562  12.403
39021W        W  475  15.635   0.313  13.930
39022W        W  476  20.135  36.517   0.432
39023W        W  477  43.002  35.086   3.290
39024W        W  478  41.969  38.409   2.805
39025W        W  479  14.767   1.383   3.354
39026W        W  480  29.102  25.663   1.774
39027W        W  481  44.913  24.178  11.429
39028W        W  482  17.121  26.632  10.415
39029W        W  483  34.946  43.384  12.010
39030W        W  484   7.305  25.651  14.996
39031W        W  485   5.415  22.138  14.458
39032W        W  486  12.809   5.735  12.834
39033W        W  487  19.571  44.962  14.769
39034W        W  488  11.142  42.915   0.433
39035W        W  489  18.574   2.288   0.950
39036W        W  490   3.718   0.808   4.611
39037W        W  491  28.637  31.598   1.425
39038W        W  492  41.904  29.146   4.667
39039W        W  493  21.754   9.227   4.832
39040W        W  494   4.747  37.954   0.441
39041W        W  495   0.279   4.776  10.624
39042W        W  496  10.845  15.226  12.920
39043W        W  497  16.300  18.702   1.401
39044W        W  498  42.434  41.898   2.273
39045W        W  499  29.456  34.405   0.874
39046W        W  500  33.382  32.042  12.344
39047W        W  501   2.766  20.579  12.847
39048W        W  502  31.553  44.355  10.637
39049W        W  503  28.620  36.901   0.925
39050W        W  504  39.536  17.758  14.846
39051W        W  505  28.484  27.111   1.442
39052W        W  506  14.147  42.394  11.908
39053W        W  507  27.450  20.534  12.480
39054W        W  508  10.697  20.205   3.685
39055W        W  509  27.130   0.803   4.269
39056W        W  510  26.163  20.191  10.417
39057W        W  511  33.900  15.132   3.331
39058W        W  512  35.575   4.340   0.385
39059W        W  513   7.374   7.864  13.821
39060W        W  514  18.667  38.474   1.230
39061W        W  515  32.017   9.281   1.853
39062W        W  516  22.170  31.055   2.187
39063W        W  517  40.997  13.629  13.864
39064W        W  518  43.780  28.626  10.586
39065W        W  519  25.669  27.496  13.976
39066W        W  520   8.380  39.818  11.098
39067W        W  521   6.407   3.952   3.637
39068W        W  522  33.575  11.346   0.338
39069W        W  523  41.034  14.608   1.862
39070W        W  524  25.039  14.238  11.922
39071W        W  525  14.816   5.421  13.948
39072W        W  526  37.459  41.023  12.027
39073W        W  527   5.243  22.160  11.427
39074W        W  528   9.206  19.650   4.246
39075W        W  529  31.070  11.137  11.510
39076W        W  530  41.790  33.449   0.754
39077W        W  531  28.458   3.286  13.967
39078W        W  532  15.130  15.673  14.846
39079W        W  533  19.583   8.223   1.342
39080W        W  534  39.359  29.131  12.869
39081W        W  535  24.672  27.491   2.707
39082W        W  536  41.365   6.796  11.115
39083W        W  537  27.139  38.381  13.888
39084W        W  538  21.735  14.263  13.426
39085W        W  539   0.441   8.831   0.251
39086W        W  540   2.965  36.413   3.824
39087W        W  541  41.021  22.148  12.961
39088W        W  542   9.700   4.271  11.548
39089W        W  543  23.223   0.959   2.662
39090W        W  544  29.995  11.295  12.835
39091W        W  545  14.649  34.053  13.953
39092W        W  546   8.293  20.681   1.767
39093W        W  547  11.725   7.744  11.545
39094W        W  548   6.323  20.249  14.989
39095W        W  549  11.129  25.612   3.146
39096W        W  550  23.117   4.296   4.835
39097W        W  551  10.233  31.639  13.402
39098W        W  552  41.497  35.085  14.773
39099W        W  553  14.333  16.168  14.426
39100W        W  554  12.159  21.047   0.372
39101W        W  555   4.727  29.446   2.293
39102W        W  556  32.123  39.924  10.404
39103W        W  557  27.652  33.957  11.515
39104W        W  558  14.691   0.317  13.446
39105W        W  559  26.645  33.009   1.361
39106W        W  560  30.533  28.597  13.308
39107W        W  561   1.976  21.527   3.254
39108W        W  562  17.666  35.555  12.091
39109W        W  563  13.802  31.500  14.968
39110W        W  564  39.382  36.014   1.432
39111W        W  565   0.974  37.402  12.002
39112W        W  566   0.267  30.148   1.915
39113W        W  567  44.278  11.209  12.943
39114W        W  568  15.176  37.423   4.626
39115W        W  569  25.195  33.016   4.640
39116W        W  570  32.456  34.582  10.486
39117W        W  571  17.731  38.929   1.343
39118W        W  572  34.085  41.332  14.023
39119W        W  573  42.375  26.012  14.948
39120W        W  574  12.183  28.672   1.223
39121W        W  575  37.402  15.245   4.186
39122W        W  576   9.769  25.198  11.443
39123W        W  577   9.768  26.488   3.865
39124W        W  578   0.811  24.176   0.365
39125W        W  579  19.685  18.108  14.784
39126W        W  580   8.402   6.265  12.921
39127W        W  581  36.525  34.084  14.487
39128W        W  582  18.780   6.362  10.621
39129W        W  583  13.707  37.048   4.255
39130W        W  584  34.031  28.107  14.774
39131W        W  585   8.759   3.714  13.509
39132W        W  586  34.913  25.589   1.448
39133W        W  587  10.195   4.421   4.259
39134W        W  588   8.859  22.571   4.637
39135W        W  589   7.324   0.293  12.355
39136W        W  590   1.945  17.258  12.384
39137W        W  591  12.830  12.217   3.791
39138W        W  592  34.013  23.532  13.332
39139W        W  593  26.592  32.406  12.865
39140W        W  594   0.918   2.770   4.114
39141W        W  595  30.637  37.038   3.670
39142W        W  596  11.638   4.731  13.470
39143W        W  597   6.335  13.665  12.899
39144W        W  598  34.576  23.172  14.760
39145W        W  599  10.331   3.951  10.015
39146W        W  600  19.740  27.612  14.462
39147W        W  601  42.376  15.279  13.382
39148W        W  602  31.109  32.944  11.993
39149W        W  603   1.319  31.092  14.376
39150W        W  604  18.755  26.994  11.881
39151W        W  605  41.445  10.281   3.657
39152W        W  606  19.114   8.384   3.251
39153W        W  607  16.121   4.929   0.471
39154W        W  608  23.665  30.467  13.836
39155W        W  609  32.119  28.565   2.321
39156W        W  610   7.413  44.800  14.351
39157W        W  611  21.245  27.516  12.999
39158W        W  612  44.970   6.762  10.636
39159W        W  613  33.380  23.648  12.038
39160W        W  614  34.576  36.477  11.098
39161W        W  615  42.846  36.540   1.794
39162W        W  616  36.861   1.808  13.874
39163W        W  617  15.686  28.462   2.343
39164W        W  618   0.250  43.314  10.463
39165W        W  619  19.154  12.780   9.923
39166W        W  620  21.128   3.794   1.849
39167W        W  621  19.642  22.222   3.254
39168W        W  622  28.450  14.682  14.838
39169W        W  623  32.612  32.925   2.701
39170W        W  624  31.539  44.819   4.835
39171W        W  625  20.527   7.384  12.046
39172W        W  626  39.488  32.104  13.382
39173W        W  627  26.048  18.175  10.905
39174W        W  628  30.613   6.341  13.460
39175W        W  629  19.280  39.919   4.776
39176W        W  630  39.914  32.490  11.500
39177W        W  631  18.562   3.296   4.619
39178W        W  632  41.955  11.214   4.164
39179W        W  633   7.820  44.829  13.967
39180W        W  634  31.992  26.672  13.967
39181W        W  635  38.550  35.544   3.329
39182W        W  636  38.834   3.893  11.075
39183W        W  637  14.741   4.740   4.774
39184W        W  638  24.002   7.233   3.188
39185W        W  639  16.220  44.326   3.317
39186W        W  640  10.314   2.846   0.358
39187W        W  641  29.076  22.247   2.372
39188W        W  642  35.941  23.174  11.060
39189W        W  643   2.811   4.795   1.359
39190W        W  644  44.984  25.168   0.873
39191W        W  645   5.223  15.779  13.880
39192W        W  646  14.290  38.545   3.162
39193W        W  647  19.757  35.047   2.821
39194W        W  648  37.885   8.864  14.826
39195W        W  649  16.258   5.784   4.815
39196W        W  650  32.447   5.789   2.272
39197W        W  651  18.059   1.952  13.385
39198W        W  652   2.453  22.524   1.435
39199W        W  653  25.127  33.973  12.551
39200W        W  654  22.685  25.498  12.382
39201W        W  655  17.781  40.322   4.219
39202W        W  656  12.211  18.221  13.936
39203W        W  657  12.730  32.003  10.554
39204W        W  658  43.785  16.705  10.634
39205W        W  659  26.580   6.378  14.479
39206W        W  660  14.830   1.767   5.112
39207W        W  661  22.173  21.061   0.785
39208W        W  662  24.217  18.632  12.557
39209W        W  663  31.063  32.929   2.253
39210W        W  664   4.357  21.177   3.333
39211W        W  665  43.921  38.862   4.832
39212W        W  666  14.311   1.848   1.861
39213W        W  667  22.678  43.780   0.881
39214W        W  668  12.662  43.862  14.814
39215W        W  669  34.092  26.692  12.542
39216W        W  670   3.857   0.847  10.897
39217W        W  671  37.986  17.597  12.364
39218W        W  672   8.799  17.637   1.319
39219W        W  673  37.913  12.811  10.468
39220W        W  674  20.088  14.244   2.862
39221W        W  675  40.370   8.387   2.374
39222W        W  676  17.204  24.091  11.996
39223W        W  677  29.028  19.137  11.442
39224W        W  678   0.938  19.109   3.734
39225W        W  679  12.768   8.299  14.023
39226W        W  680   7.398  12.851   1.272
39227W        W  681   6.913  26.156  13.454
39228W        W  682  26.002   6.897   0.730
39229W        W  683  11.313   0.905  13.041
39230W        W  684  44.902   8.682  11.861
39231W        W  685  30.484  20.263   3.232
39232W        W  686  17.274  37.346   3.676
39233W        W  687   4.363   9.339   1.225
39234W        W  688  44.856  14.621  10.548
39235W        W  689   6.777  30.437  11.127
39236W        W  690  37.085  42.903   2.774
39237W        W  691  19.705  28.601   3.364
39238W        W  692   6.258   4.300   1.279
39239W        W  693  44.413  44.865   0.741
39240W        W  694  43.358   7.263   5.183
39241W        W  695  15.200   2.254  10.575
39242W        W  696   3.747   9.317   1.250
39243W        W  697  11.720   8.677  14.899
39244W        W  698   6.893   2.784  12.971
39245W        W  699  12.239   1.467   4.673
39246W        W  700  43.897  38.946  12.383
39247W        W  701  13.295  30.115   3.815
39248W        W  702  31.442   2.403   4.313
39249W        W  703  41.331  12.675   2.795
39250W        W  704  35.921  27.607  11.058
39251W        W  705  17.179  27.119   3.824
39252W        W  706  17.723  42.940   1.905
39253W        W  707  20.598   8.674  11.492
39254W        W  708  22.038  30.044  14.378
39255W        W  709   9.766   3.352  14.809
39256W        W  710  42.515   1.296   2.703
39257W        W  711  37.458  10.222  12.857
39258W        W  712   3.271   6.426   3.836
39259W        W  713  26.097  24.229  14.943
39260W        W  714  23.698  41.943  11.874
39261W        W  715   5.825  34.010  13.438
39262W        W  716  32.616  16.155  11.471
39263W        W  717   2.725   3.275  10.941
39264W        W  718  11.763  21.085   0.459
39265W        W  719  41.915   3.862  14.375
39266W        W  720  23.171  31.558  14.862
39267W        W  721   9.187   8.277   0.418
39268W        W  722  21.116  32.569   0.251
39269W        W  723  36.997  13.743   0.769
39270W        W  724  31.951  33.928  11.997
39271W        W  725  14.704  44.828   1.778
39272W        W  726  19.669  21.664   3.297
39273W        W  727  18.671  14.745  10.920
39274W        W  728  36.093   7.765   3.236
39275W        W  729   5.426  12.667  13.505
39276W        W  730  43.274  43.869   4.225
39277W        W  731  11.774  16.618   4.691
39278W        W  732  33.456   6.881  11.466
39279W        W  733  35.070   4.303  10.644
39280W        W  734  30.091  41.372   1.764
39281W        W  735   2.882  22.677   4.316
39282W        W  736   2.740  37.837  12.403
39283W        W  737  35.068  31.131  10.561
39284W        W  738  29.981   0.768   1.802
39285W        W  739  10.289   5.781  11.125
39286W        W  740  28.638   1.838   0.771
39287W        W  741  18.740  13.281  10.944
39288W        W  742  40.307  19.637   2.333
39289W        W  743  13.757  33.562   3.777
39290W        W  744  30.542  21.621   0.967
39291W        W  745  15.147   5.890   2.377
39292W        W  746  16.089   5.374  11.444
39293W        W  747  34.112  39.446  14.892
39294W        W  748  25.612  38.991   1.761
39295W        W  749  42.918  26.545   2.848
39296W        W  750  20.081  30.427   1.395
39297W        W  751  22.186  44.448  10.143
39298W        W  752  29.634  18.154  13.433
39299W        W  753  38.826  42.341   0.954
39300W        W  754  20.254   0.300  13.942
39301W        W  755  14.773  42.501   2.304
39302W        W  756  25.023  17.741  13.843
39303W        W  757  15.260  28.071  12.015
39304W        W  758  27.016  30.973  13.468
39305W        W  759   2.323  24.124   4.246
39306W        W  760   0.910  22.552  14.788
39307W        W  761   0.459  16.691  12.926
39308W        W  762   6.782  35.047  14.291
39309W        W  763  29.112  28.552   0.818
39310W        W  764   4.918  41.993  11.913
39311W        W  765   8.339   0.391   1.214
39312W        W  766  42.027  44.904   3.657
39313W        W  767  24.099   2.325  11.100
39314W        W  768  17.656  27.139  11.509
39315W        W  769  38.051  12.673   1.794
39316W        W  770  20.237  30.501   0.398
39317W        W  771   7.242  43.003  11.991
39318W        W  772   0.876  44.468   4.350
39319W        W  773  41.837  36.500   0.872
39320W        W  774  40.312   6.219   4.716
39321W        W  775  43.363  35.967  14.444
39322W        W  776   0.478  34.535   1.295
39323W        W  777  13.123  44.820  10.558
39324W        W  778   3.318   9.644  12.433
39325W        W  779   6.875  26.974   1.712
39326W        W  780  39.892  10.292   4.279
39327W        W  781  22.060  13.153   4.347
39328W        W  782  28.614  13.759   3.171
39329W        W  783  23.648   7.303   2.239
39330W        W  784   5.919  38.873   4.750
39331W        W  785  35.367  30.525   2.845
39332W        W  786  23.188   1.461  10.638
39333W        W  787  13.205   2.263   3.381
39334W        W  788  10.380   9.247   1.221
39335W        W  789  15.615  10.814  13.978
39336W        W  790  40.871   0.871  14.388
39337W        W  791   2.747  15.273  10.961
39338W        W  792  24.981  15.645   0.443
39339W        W  793  14.713  35.903  13.478
39340W        W  794  19.207  17.099   2.791
39341W        W  795   8.882  21.654   3.853
39342W        W  796  13.319   3.917   3.238
39343W        W  797  29.525  13.174  14.303
39344W        W  798  31.532   7.676  12.825
39345W        W  799   6.229  11.771  11.008
39346W        W  800  28.064   2.236   2.839
39347W        W  801  31.451  12.808  12.022
39348W        W  802  40.911  33.922  12.042
39349W        W  803  20.173  21.242  13.416
39350W        W  804   9.191  20.647  13.008
39351W        W  805   2.848  23.196  12.423
39352W        W  806   3.806   6.690  12.523
39353W        W  807  32.928  12.806   1.308
39354W        W  808  24.188  42.916   1.777
39355W        W  809  20.062  35.035   1.244
39356W        W  810  25.170  28.100  11.110
39357W        W  811   1.254  19.749  10.967
39358W        W  812  33.982  39.853  10.983
39359W        W  813  15.798  16.110  11.935
39360W        W  814  26.520  22.211  10.548
39361W        W  815   4.822  31.509  10.037
39362W        W  816   0.964  27.024   0.282
39363W        W  817  13.673  23.660   0.916
39364W        W  818   0.344  37.402  13.463
39365W        W  819  22.249  13.771   0.247
39366W        W  820  16.805  42.002  14.363
39367W        W  821  30.124   6.865  11.557
39368W        W  822  39.407   5.752   0.744
39369W        W  823  34.023   1.805  13.439
39370W        W  824  43.946  33.608   3.771
39371W        W  825  23.638  11.631  11.535
39372W        W  826  11.637  16.651  11.383
39373W        W  827  25.048  18.734  14.020
39374W        W  828  41.491  37.553  14.021
39375W        W  829  41.803   5.852  14.759
39376W        W  830  29.951  37.969   1.320
39377W        W  831  16.716   5.696   1.923
39378W        W  832   1.378  20.169  12.059
39379W        W  833  28.524  33.884   2.405
39380W        W  834  27.621  43.987  10.446
39381W        W  835  35.433  14.149  11.531
39382W        W  836  24.049  39.894  14.308
39383W        W  837  34.003  29.143   1.213
39384W        W  838  34.461  20.714   2.665
39385W        W  839  43.360  39.965  14.831
39386W        W  840   4.837  27.011   3.174
39387W        W  841   3.839  28.158  11.129
39388W        W  842  24.619  27.464   4.690
39389W        W  843  34.424  29.607  14.001
39390W        W  844  38.957  37.479   2.806
39391W        W  845  15.727  15.253   1.313
39392W        W  846   3.825  31.900  14.935
39393W        W  847   7.671   8.817  11.420
39394W        W  848  32.141  14.113  13.323
39395W        W  849  36.945  21.616  14.464
39396W        W  850  28.459  44.485   1.267
39397W        W  851   2.856  26.572  11.903
39398W        W  852  26.019  42.938   4.176
39399W        W  853  27.087  37.044  12.981
39400W        W  854  42.874  22.711  12.440
39401W        W  855  16.801  34.866  13.025
39402W        W  856  29.424  21.591  11.524
39403W        W  857  14.141  16.612  13.848
39404W        W  858  15.751  10.725   9.613
39405W        W  859  42.429  34.935  12.068
39406W        W  860  18.654  11.820  14.806
39407W        W  861  21.225  22.650  13.963
39408W        W  862  42.881   1.743   2.244
39409W        W  863  30.044  19.135  14.784
39410W        W  864  35.872  40.015  10.998
39411W        W  865  37.350   4.284  12.903
39412W        W  866   0.444  17.746   2.199
39413W        W  867  13.625   8.698  11.865
39414W        W  868  33.936   8.737   2.194
39415W        W  869  20.082  23.147   3.780
39416W        W  870   1.361  43.450   4.615
39417W        W  871   5.808  31.428   2.388
39418W        W  872  15.187   7.816   3.778
39419W        W  873  22.019  29.488  13.450
39420W        W  874  33.927   3.223  10.447
39421W        W  875  35.009  31.096   3.739
39422W        W  876  16.183  36.420   2.306
39423W        W  877   9.154  16.138   2.702
39424W        W  878  27.604  23.654  12.913
39425W        W  879   2.804  12.133  14.798
39426W        W  880   4.862   4.770   3.320
39427W        W  881  12.803  28.622  10.931
39428W        W  882  38.952  33.043  11.543
39429W        W  883  18.091  19.107  14.421
39430W        W  884  10.189   8.714  10.615
39431W        W  885   9.251  41.950   4.729
39432W        W  886   2.789  43.405  13.400
39433W        W  887  25.623  34.938   4.774
39434W        W  888  14.208  10.690  10.546
39435W        W  889  42.865  15.769  12.366
39436W        W  890  31.994   6.261   4.611
39437W        W  891  29.588  36.068  12.067
39438W        W  892  43.400  17.776   0.771
39439W        W  893  34.909  42.930   4.234
39440W        W  894  21.550  32.446  14.940
39441W        W  895  41.902  10.860  14.900
39442W        W  896  28.060  39.475   3.866
39443W        W  897  10.252  21.569  10.544
39444W        W  898  15.232  30.002   0.827
39445W        W  899  40.011  15.326  13.959
39446W        W  900  42.507  28.121  13.539
39447W        W  901  35.010  30.559   1.716
39448W        W  902  11.711  26.061   4.750
39449W        W  903  14.179   8.723  12.580
39450W        W  904  35.431  22.045  13.915
39451W        W  905   1.416   6.860   3.371
39452W        W  906  31.987  24.547  10.952
39453W        W  907  19.621  21.115  13.332
39454W        W  908  18.661  44.802  13.009
39455W        W  909  20.108  21.229  12.433
39456W        W  910  28.127   0.301  14.844
39457W        W  911   0.290  15.216  12.073
39458W        W  912  27.690  20.659  10.429
39459W        W  913  40.922  35.043  10.941
39460W        W  914  29.615  42.889  10.117
39461W        W  915  17.636  35.922  11.051
39462W        W  916  38.394  21.652   0.467
39463W        W  917  11.733  43.964   3.374
39464W        W  918  21.682  15.301   2.705
39465W        W  919  29.448  42.007   4.133
39466W        W  920  14.747   6.257  12.505
39467W        W  921  43.786  38.967   0.819
39468W        W  922  18.768  21.541   0.444
39469W        W  923   7.881  39.901   1.253
39470W        W  924   6.684  26.172  11.913
39471W        W  925   9.161  19.057  14.297
39472W        W  926  24.144   6.806  12.373
39473W        W  927  10.278  37.084   0.861
39474W        W  928   6.420  39.932  14.890
39475W        W  929  22.602  23.733   3.262
39476W        W  930  40.813  34.464   2.364
39477W        W  931  21.610  38.428   0.805
39478W        W  932  12.235  36.485  14.993
39479W        W  933  18.148  40.308  11.482
39480W        W  934  29.669  26.494  13.832
39481W        W  935  28.035  42.864   1.823
39482W        W  936   5.404  34.593   3.342
39483W        W  937  15.775  34.470  12.467
39484W        W  938  23.048   4.747   2.391
39485W        W  939  13.830  21.665   4.228
39486W        W  940  30.064  10.783  14.759
39487W        W  941   3.806  33.551  11.520
39488W        W  942   5.315   7.715  10.559
39489W        W  943  39.835  40.879   5.122
39490W        W  944  35.915  32.947   0.471
39491W        W  945  14.656  29.580  13.943
39492W        W  946   7.293  25.164  12.352
39493W        W  947  28.120  27.491   1.821
39494W        W  948  24.128   8.227   2.409
39495W        W  949  14.155   6.311  10.569
39496W        W  950   7.332  13.791   1.332
39497W        W  951  34.024  24.670  11.916
39498W        W  952   6.913   3.812   4.811
39499W        W  953  44.858  15.790  12.347
39500W        W  954  19.696   6.842   4.814
39501W        W  955   5.385  17.300  12.509
39502W        W  956  26.660  26.128  14.781
39503W        W  957   3.746  41.529   4.828
39504W        W  958   9.730  38.968  10.931
39505W        W  959  13.707  25.204  12.934
39506W        W  960  38.421   6.883   2.719
39507W        W  961  31.149  40.047  14.274
39508W        W  962  23.587  17.575   1.248
39509W        W  963  28.551  19.661  13.446
39510W        W  964  40.332  20.029   0.827
39511W        W  965  42.998  22.608  12.878
39512W        W  966  12.648   0.259   0.883
39513W        W  967   4.924  24.598   2.716
39514W        W  968   3.729  39.041   0.933
39515W        W  969  16.241  19.606   3.724
39516W        W  970  31.992  15.634   4.609
39517W        W  971  17.117  18.790  10.616
39518W        W  972   5.891   9.352  13.485
39519W        W  973  33.578  25.576  11.949
39520W        W  974  18.671  33.476   2.363
39521W        W  975  26.206  32.554   3.753
39522W        W  976  43.359  42.828  10.535
39523W        W  977   1.241   7.390   4.179
39524W        W  978  40.481  34.072   3.660
39525W        W  979  42.990   8.384   0.729
39526W        W  980  34.909  19.758   0.385
39527W        W  981  27.962  27.486   3.242
39528W        W  982  44.788  10.695  11.487
39529W        W  983  17.218  15.740   1.365
39530W        W  984  11.761  39.061   5.139
39531W        W  985   7.748  37.389  11.545
39532W        W  986   2.852  25.054  13.813
39533W        W  987  24.991  12.334   0.271
39534W        W  988  39.959  35.431  11.390
39535W        W  989  30.562   0.404  12.070
39536W        W  990  41.791   8.767  14.839
39537W        W  991   5.324  43.934  13.930
39538W        W  992   7.804  24.618  13.386
39539W        W  993  27.020  42.437  14.441
39540W        W  994   4.698  42.928   3.713
39541W        W  995  23.042  13.287   2.294
39542W        W  996  31.611  31.979   4.780
39543W        W  997  16.655  25.003   4.614
39544W        W  998  41.995  24.058  13.987
39545W        W  999  23.134  43.341   1.336
39546W        W 1000  22.067  14.268   0.285
39547W        W 1001  21.108   8.709  12.576
39548W        W 1002  17.113  22.186   4.144
39549W        W 1003  26.069  18.155   4.620
39550W        W 1004  24.079  39.506   3.826
39551W        W 1005  13.116   7.246   1.769
39552W        W 1006   6.209   0.949   2.286
39553W        W 1007  43.386  33.943  11.031
39554W        W 1008   5.294  37.346   1.784
39555W        W 1009  41.398  24.656  13.882
39556W        W 1010  37.953   3.380   0.385
39557W        W 1011  38.873  44.341  11.472
39558W        W 1012  35.500  30.639  13.381
39559W        W 1013  25.494  21.158  14.862
39560W        W 1014  21.700   8.323   3.319
39561W        W 1015   3.447  40.395   2.218
39562W        W 1016   4.837  15.737   3.151
39563W        W 1017  34.964  37.479   0.873
39564W        W 1018  16.622  36.963   1.340
39565W        W 1019  23.597  10.796  11.116
39566W        W 1020  11.777  36.060   3.224
39567W        W 1021  22.668  16.759  14.462
39568W        W 1022   4.814  35.905   2.873
39569W        W 1023  41.307  44.424  12.371
39570W        W 1024  39.392  27.947  10.109
39571W        W 1025   5.880  43.511  13.028
39572W        W 1026   3.942  13.823  12.371
39573W        W 1027  40.532  20.763   2.697
39574W        W 1028  33.540  42.829  14.972
39575W        W 1029  26.660  44.309   5.250
39576W        W 1030  39.379   7.262   1.430
39577W        W 1031  29.966  22.177   3.289
39578W        W 1032   6.219  24.576   2.721
39579W        W 1033  37.539  38.834  10.961
39580W        W 1034  39.492   6.742   1.847
39581W        W 1035  40.312  24.690   2.825
39582W        W 1036  40.501  42.969  13.366
39583W        W 1037   4.731  16.082  14.313
39584W        W 1038  20.662   3.714   0.874
39585W        W 1039  32.416  15.775  11.371
39586W        W 1040  29.086  35.544   3.792
39587W        W 1041  18.740  42.833  13.404
39588W        W 1042  10.722   3.843  10.629
39589W        W 1043  32.908  26.458  14.385
39590W        W 1044  19.681  14.190  10.921
39591W        W 1045   8.682  12.182   0.806
39592W        W 1046  21.031  19.182   3.742
39593W        W 1047   5.277  13.142  10.524
39594W        W 1048  39.516  40.523  12.855
39595W        W 1049  34.554  18.212   0.930
39596W        W 1050  32.953  29.501   2.339
39597W        W 1051  44.294  18.575  14.825
39598W        W 1052   2.228  15.796  13.957
39599W        W 1053  37.964   8.901  13.946
39600W        W 1054  18.734  30.165   0.321
39601W        W 1055  34.030  44.363   2.782
39602W        W 1056   1.271   4.936  14.861
39603W        W 1057   7.306  13.844   4.288
39604W        W 1058  27.543  12.708  10.470
39605W        W 1059  31.586  18.550   3.805
39606W        W 1060  35.971   3.449   2.798
39607W        W 1061  16.196  33.467  14.781
39608W        W 1062  21.536   6.256  11.108
39609W        W 1063   2.349   5.691  10.430
39610W        W 1064  32.579  28.943   4.662
39611W        W 1065  21.579  35.085  10.595
39612W        W 1066  22.707  25.686  10.517
39613W        W 1067  22.591  40.002  14.955
39614W        W 1068  17.712  39.923   2.856
39615W        W 1069  43.378  12.189   3.221
39616W        W 1070  42.515  12.256   3.169
39617W        W 1071  26.678  29.153  13.861
39618W        W 1072   8.747  21.097  10.127
39619W        W 1073  12.683  11.208  12.948
39620W        W 1074  42.978  24.040   0.249
39621W        W 1075  22.584  30.988  14.496
39622W        W 1076  44.878  16.781   3.651
39623W        W 1077   5.329  11.709  11.579
39624W        W 1078   2.420  14.331  13.314
39625W        W 1079  41.320  44.361   2.183
39626W        W 1080  37.538  27.463   1.365
39627W        W 1081  32.138  16.809   3.350
39628W        W 1082  12.729   8.866   1.861
39629W        W 1083  23.667   6.319   4.672
39630W        W 1084   7.813  19.253   0.314
39631W        W 1085  35.058  36.403   4.248
39632W        W 1086  34.887  27.107   0.377
39633W        W 1087  15.098  33.550   4.213
39634W        W 1088  25.213  22.747  12.066
39635W        W 1089  37.954  41.850  13.820
39636W        W 1090  36.574  37.930   0.788
39637W        W 1091   4.407  33.584   4.206
39638W        W 1092  30.547  31.466   2.355
39639W        W 1093  23.076  38.348   2.262
39640W        W 1094  42.893  26.051  11.003
39641W        W 1095  31.471  24.097  13.955
39642W        W 1096  37.841  37.380   2.800
39643W        W 1097  31.148   8.774   4.819
39644W        W 1098  32.461   0.494   1.879
39645W        W 1099  26.194   5.766   1.286
39646W        W 1100  43.803  22.104  10.439
39647W        W 1101  14.818  26.207   1.402
39648W        W 1102   3.457  43.284   2.781
39649W        W 1103  27.959  12.790   9.525
39650W        W 1104  26.098  13.676   3.764
39651W        W 1105   8.786   3.461   0.361
39652W        W 1106  13.298  25.183   5.094
39653W        W 1107  12.160  35.505   1.694
39654W        W 1108  37.021   8.182  11.034
39655W        W 1109  26.596   2.262   4.701
39656W        W 1110   2.797  31.123  13.807
39657W        W 1111  44.354  15.126  11.880
39658W        W 1112  11.748  16.761   1.771
39659W        W 1113  17.304   7.206  13.990
39660W        W 1114   0.451  43.464  13.043
39661W        W 1115  44.886  37.984  14.470
39662W        W 1116  38.979  31.419   1.717
39663W        W 1117  27.521   1.312   3.818
39664W        W 1118  42.909  27.030  13.014
39665W        W 1119  21.576  39.964   3.303
39666W        W 1120  10.354  25.978  14.008
39667W        W 1121  19.131  11.198   4.314
39668W        W 1122  25.553  11.847  13.413
39669W        W 1123  15.612  42.805   2.720
39670W        W 1124   5.205   5.361  12.845
39671W        W 1125  15.595   0.331  12.830
39672W        W 1126  29.049  30.642  11.087
39673W        W 1127  43.408   4.919   1.357
39674W        W 1128   3.262  39.887  11.968
39675W        W 1129  33.973   7.222  11.125
39676W        W 1130  19.100  36.399   1.227
39677W        W 1131  27.968  11.304  12.531
39678W        W 1132   4.266  23.509  12.037
39679W        W 1133  41.442  13.723   3.183
39680W        W 1134  36.405  15.800  13.996
39681W        W 1135  32.076   5.331  14.931
39682W        W 1136  31.942   7.889  10.475
39683W        W 1137  35.457  12.200   1.899
39684W        W 1138  13.133  15.595  12.838
39685W        W 1139  12.693  19.202  14.766
39686W        W 1140  31.484   7.374  11.973
39687W        W 1141   1.277  15.748   1.931
39688W        W 1142  42.456  28.979  10.425
39689W        W 1143   3.874  17.672  12.572
39690W        W 1144  42.895  36.540   5.154
39691W        W 1145  33.106   2.939   1.796
39692W        W 1146   6.306  16.689  13.495
39693W        W 1147   2.275  19.594  12.394
39694W        W 1148  15.175  42.316   4.716
39695W        W 1149  11.661  39.854   2.338
39696W        W 1150  36.556  23.602   0.951
39697W        W 1151  28.151  32.562   3.831
39698W        W 1152  22.155  22.058  12.969
39699W        W 1153  27.512  14.237   4.303
39700W        W 1154   1.974   9.207   0.375
39701W        W 1155   2.888  29.040  13.801
39702W        W 1156  12.318   5.884  14.447
39703W        W 1157  23.613  17.253   1.309
39704W        W 1158  41.502   0.790  14.492
39705W        W 1159  31.139   3.256  12.551
39706W        W 1160  34.606  44.318  10.944
39707W        W 1161  18.152  11.144  11.911
39708W        W 1162  39.559  21.122   1.914
39709W        W 1163  25.610  18.721   3.303
39710W        W 1164  28.586  21.622  10.586
39711W        W 1165   5.705   3.827   3.244
39712W        W 1166   2.740  34.558   3.244
39713W        W 1167  14.108  29.121  13.028
39714W        W 1168  31.585  41.984   4.707
39715W        W 1169  23.711   4.363  14.300
39716W        W 1170  24.609  38.951  12.002
39717W        W 1171  27.590  44.967   0.895
39718W        W 1172   2.831   5.763  12.361
39719W        W 1173   1.887  19.188   0.312
39720W        W 1174   6.848  23.525   3.654
39721W        W 1175   4.699  26.601   5.111
39722W        W 1176  17.564  28.461   3.380
39723W        W 1177   0.295  14.615   4.767
39724W        W 1178  29.964  28.163  12.952
39725W        W 1179  23.182   9.249   5.288
39726W        W 1180  15.770  40.909   3.273
39727W        W 1181  36.520  25.099  12.906
39728W        W 1182  18.064  24.213  10.929
39729W        W 1183   5.285  24.688   0.284
39730W        W 1184  39.447   7.227   2.382
39731W        W 1185  15.126  30.149  10.500
39732W        W 1186   0.462  41.025   4.156
39733W        W 1187  17.604   3.908   3.698
39734W        W 1188   8.312  35.082  10.945
39735W        W 1189   7.254   1.461   2.355
39736W        W 1190  17.109   3.308   2.206
39737W        W 1191   4.899  37.890  14.883
39738W        W 1192  41.927  35.947   4.170
39739W        W 1193  14.204  20.041  14.947
39740W        W 1194  17.061   2.302  14.902
39741W        W 1195  19.151  23.557  11.910
39742W        W 1196  23.121  16.784  14.893
39743W        W 1197  17.704  37.844   4.231
39744W        W 1198  27.626  20.584  14.340
39745W        W 1199  13.176  36.937   1.757
39746W        W 1200  33.975  40.989   2.785
39747W        W 1201  14.735  10.718   4.633
39748W        W 1202  29.082  39.952   4.693
39749W        W 1203  22.529   6.208  14.478
39750W        W 1204   6.393   7.297   2.852
39751W        W 1205  20.211   1.344   1.903
39752W        W 1206  20.096  40.000  11.938
39753W        W 1207  35.935  20.080  14.974
39754W        W 1208  11.635  37.061  13.495
39755W        W 1209  37.016  41.923  14.425
39756W        W 1210  20.037  29.133  12.565
39757W        W 1211  25.521  15.155   3.332
39758W        W 1212  14.709  21.066  13.958
39759W        W 1213  39.819  14.245   2.285
39760W        W 1214  34.051   7.285  14.278
39761W        W 1215  44.786  11.314   4.648
39762W        W 1216  19.056  33.577   0.938
39763W        W 1217  34.441  25.473  14.872
39764W        W 1218   5.789  15.170   4.711
39765W        W 1219  24.698  32.615   3.280
39766W        W 1220  31.003  10.782  14.356
39767W        W 1221  19.670  43.374  11.072
39768W        W 1222  33.907   9.392   0.436
39769W        W 1223   0.756  35.483  11.596
39770W        W 1224   5.723  26.495  14.411
39771W        W 1225  15.117  32.035   4.722
39772W        W 1226  24.062   1.919  11.541
39773W        W 1227  14.257  20.531   3.656
39774W        W 1228  43.855  41.936   0.249
39775W        W 1229  12.287  17.152   2.700
39776W        W 1230  24.017  19.197   0.852
39777W        W 1231  39.833  14.681  12.043
39778W        W 1232  31.941  40.332  12.926
39779W        W 1233  32.520  15.274  11.998
39780W        W 1234  32.599  17.132  12.388
39781W        W 1235  38.820   2.900  12.833
39782W        W 1236  10.334  43.432  12.863
39783W        W 1237  18.137   4.869  10.457
39784W        W 1238   4.798  24.036  11.449
39785W        W 1239  10.362  42.331   2.349
39786W        W 1240  16.756  30.948  10.536
39787W        W 1241  26.952   6.764  12.520
39788W        W 1242   5.366  25.702  12.950
39789W        W 1243  24.156  26.962   0.735
39790W        W 1244  43.824  39.365  11.405
39791W        W 1245  15.124  31.625  13.820
39792W        W 1246  27.170  27.616   0.431
39793W        W 1247  25.191   6.197  10.160
39794W        W 1248  34.950  20.202   4.114
39795W        W 1249  44.494  29.153  13.058
39796W        W 1250  24.060  16.790   1.321
39797W        W 1251  16.207  34.467   3.151
39798W        W 1252  36.548  30.656  13.454
39799W        W 1253  30.659  43.377   4.349
39800W        W 1254  31.058  28.006  11.488
39801W        W 1255  22.132  14.680   3.767
39802W        W 1256  24.694   2.461  13.985
39803W        W 1257  41.792   6.223  11.127
39804W        W 1258  28.020  36.863   0.361
39805W        W 1259   2.281  12.259   1.920
39806W        W 1260   4.321   7.187  11.441
39807W        W 1261  38.919  31.428  12.044
39808W        W 1262  25.042  42.784   1.395
39809W        W 1263  42.802  15.652   0.275
39810W        W 1264  42.964  41.440   4.667
39811W        W 1265  24.113  27.132   4.605
39812W        W 1266  10.164  27.623   4.237
39813W        W 1267  41.827  32.110  12.924
39814W        W 1268  42.441  10.861   4.736
39815W        W 1269   2.806   0.895  13.933
39816W        W 1270  25.668   3.238  14.965
39817W        W 1271  26.020  41.977  11.112
39818W        W 1272  34.373   4.802  13.980
39819W        W 1273  10.256  18.059   4.656
39820W        W 1274  21.261   6.258  10.010
39821W        W 1275  39.387  17.669  14.333
39822W        W 1276   6.281  21.714  14.851
39823W        W 1277  36.984  30.060   2.366
39824W        W 1278  10.366  11.300  12.504
39825W        W 1279  14.275  43.398  11.491
39826W        W 1280  22.225   5.809   4.330
39827W        W 1281  44.502   9.356  14.314
39828W        W 1282  28.030  26.684   5.116
39829W        W 1283  25.665  17.682   0.432
39830W        W 1284  10.211  44.990   2.310
39831W        W 1285  23.498   6.757   4.114
39832W        W 1286  36.893  15.654   0.246
39833W        W 1287  42.519  26.029  10.934
39834W        W 1288  23.700   1.731   4.697
39835W        W 1289  34.597  24.229   4.297
39836W        W 1290  18.584  26.594  14.967
39837W        W 1291   8.719  10.364  13.401
39838W        W 1292  31.131   7.679  14.963
39839W        W 1293  28.616  32.498   1.248
39840W        W 1294  29.116  15.256  13.397
39841W        W 1295  22.639  31.528   2.252
39842W        W 1296  36.488  40.947   3.800
39843W        W 1297  28.018  31.460  10.961
39844W        W 1298   5.811   9.309   3.379
39845W        W 1299  13.837  44.798  10.565
39846W        W 1300  22.564  41.512   3.815
39847W        W 1301   1.942  19.536   2.774
39848W        W 1302  31.929   4.245   1.734
39849W        W 1303  13.749  18.650   4.254
39850W        W 1304  10.680  23.686  12.524
39851W        W 1305  26.624  13.117  13.427
39852W        W 1306  32.405  22.196  14.982
39853W        W 1307  35.560  44.855  13.050
39854W        W 1308  25.582  17.260  13.862
39855W        W 1309   0.268  15.124   1.389
39856W        W 1310  14.608  10.377   0.759
39857W        W 1311   3.917  16.788   1.382
39858W        W 1312  28.629   3.728   3.301
39859W        W 1313  38.019  36.525  13.063
39860W        W 1314  13.345   2.959   0.827
39861W        W 1315  34.995  27.504  12.393
39862W        W 1316  42.448  24.027  10.907
39863W        W 1317   7.404  43.340   4.286
39864W        W 1318  42.476   1.915  11.527
39865W        W 1319  43.356  30.972  13.958
39866W        W 1320  33.915   0.901   1.321
39867W        W 1321   8.870   8.654   2.706
39868W        W 1322   8.226  31.971   2.697
39869W        W 1323   3.276   2.955  10.447
39870W        W 1324  41.938  12.621  13.006
39871W        W 1325   7.321  43.894   0.783
39872W        W 1326  31.077  41.536   4.268
39873W        W 1327  15.092  22.007   0.425
39874W        W 1328  27.620  32.895  12.923
39875W        W 1329  44.416  33.978   4.253
39876W        W 1330   0.945  42.341  11.043
39877W        W 1331  41.842  14.625   3.226
39878W        W 1332  32.511   1.826  12.448
39879W        W 1333  44.010  19.133   2.883
39880W        W 1334  20.715  29.116  12.844
39881W        W 1335  16.149  28.973   0.824
39882W        W 1336  42.892  14.145   1.865
39883W        W 1337   6.419  17.770  14.936
39884W        W 1338  12.751   6.298  13.529
39885W        W 1339   0.464   9.707   0.776
39886W        W 1340   4.925   5.408   4.747
39887W        W 1341  36.563  18.110   1.405
39888W        W 1342  13.228   3.442  10.930
39889W        W 1343  10.857  19.534   5.222
39890W        W 1344  15.655  32.624  10.933
39891W        W 1345  17.098  12.231   3.645
39892W        W 1346  29.432  27.453   0.337
39893W        W 1347  22.579  11.208   2.268
39894W        W 1348  16.292   6.217  13.442
39895W        W 1349  30.147  25.498  12.955
39896W        W 1350  37.066  32.540  11.934
39897W        W 1351  40.859  28.451  10.519
39898W        W 1352   3.454  44.474   2.760
39899W        W 1353  22.502  32.493  14.944
39900W        W 1354   3.947  13.625   2.691
39901W        W 1355  27.061  29.660  14.904
39902W        W 1356   0.973  41.536  12.053
39903W        W 1357   4.211  37.980   3.870
39904W        W 1358   7.179  13.711   1.726
39905W        W 1359  11.196  15.591   0.422
39906W        W 1360   5.756  23.019  11.030
39907W        W 1361  27.624  25.027   4.245
39908W        W 1362   1.812  12.300  10.638
39909W        W 1363  39.343   8.188  14.799
39910W        W 1364  35.559   8.773   0.740
39911W        W 1365  19.633  26.650   0.907
39912W        W 1366   1.737  19.180   1.705
39913W        W 1367  21.586   4.369   0.431
39914W        W 1368   5.350  22.624   2.363
39915W        W 1369  19.715   1.379   2.879
39916W        W 1370  13.139  22.600   2.189
39917W        W 1371  35.543   7.173  11.883
39918W        W 1372  19.116  26.571   1.339
39919W        W 1373  29.043  10.335  13.937
39920W        W 1374  25.576   9.285   2.690
39921W        W 1375   9.657  40.052  13.991
39922W        W 1376   2.901  27.510   4.239
39923W        W 1377  32.634  16.109  12.406
39924W        W 1378  25.004   7.711   2.273
39925W        W 1379   6.893   7.912  10.958
39926W        W 1380  43.998  42.288   0.905
39927W        W 1381   2.361  13.232  14.779
39928W        W 1382   5.229  23.070  14.302
39929W        W 1383   0.287   0.781   4.327
39930W        W 1384  40.351  41.449  14.903
39931W        W 1385  18.554  24.563   3.216
39932W        W 1386  39.481  40.813  14.889
39933W        W 1387  41.980   6.322  11.588
39934W        W 1388  19.741  25.543   2.409
39935W        W 1389   8.893  34.990   1.279
39936W        W 1390   9.761  28.961   1.761
39937W        W 1391   5.721  22.517   4.280
39938W        W 1392   5.723   6.726   1.734
39939W        W 1393   9.766   2.231   2.258
39940W        W 1394   5.882  42.399  14.915
39941W        W 1395  25.992   3.801   3.788
39942W        W 1396  40.397  26.649  10.033
39943W        W 1397  32.987  27.057   1.423
39944W        W 1398  21.239  43.345  11.061
39945W        W 1399  17.676  35.970  12.077
39946W        W 1400  21.220  40.802  12.462
39947W        W 1401  11.327   2.328   0.728
39948W        W 1402   1.243   9.789  14.301
39949W        W 1403  39.061   3.236  11.052
39950W        W 1404  11.322  37.002  14.853
39951W        W 1405   0.922  28.152   0.792
39952W        W 1406  44.277  25.152   4.328
39953W        W 1407  27.990  26.480   4.829
39954W        W 1408   8.901  44.859   1.706
39955W        W 1409   8.194  12.713   3.658
39956W        W 1410   6.385  11.338  11.448
39957W        W 1411   5.812   6.246   2.779
39958W        W 1412  16.600  23.053  11.906
39959W        W 1413  34.974  36.359  13.007
39960W        W 1414  43.412  27.618   2.275
39961W        W 1415   5.290  30.618   4.191
39962W        W 1416   6.887   4.284  13.416
39963W        W 1417  25.612  36.471   3.333
39964W        W 1418  16.762  14.143   5.279
39965W        W 1419  18.787  32.925  13.035
39966W        W 1420   8.805  39.448  14.433
39967W        W 1421   7.266  12.229  13.310
39968W        W 1422  16.115  31.054  10.632
39969W        W 1423  23.561  27.588   1.728
39970W        W 1424  18.082   2.957  10.935
39971W        W 1425  20.127  15.813  11.002
39972W        W 1426  29.991  41.797  12.841
39973W        W 1427  13.175   1.971   3.258
39974W        W 1428  33.384   4.255   4.282
39975W        W 1429   9.683   4.374   4.167
39976W        W 1430  36.011  10.829  11.518
39977W        W 1431   6.827  38.847  13.500
39978W        W 1432  17.747   5.245   0.291
39979W        W 1433  39.924  44.492  10.087
39980W        W 1434  20.637   5.777   3.147
39981W        W 1435   0.939   5.771  11.399
39982W        W 1436  36.915  15.086  14.943
39983W        W 1437   3.877   5.259   0.380
39984W        W 1438  38.820  11.735  12.914
39985W        W 1439  19.729  21.564  11.011
39986W        W 1440  38.325  16.698   0.895
39987W        W 1441  11.704   8.363   4.765
39988W        W 1442  40.938  18.235   1.879
39989W        W 1443   3.851  12.267   0.326
39990W        W 1444  16.715  15.289  12.363
39991W        W 1445   8.335  44.405   4.326
39992W        W 1446  16.775   5.862  14.500
39993W        W 1447  37.400  36.982  11.999
39994W        W 1448  27.037  34.535  12.559
39995W        W 1449  13.811  28.518   0.851
39996W        W 1450  42.404  28.457   1.347
39997W        W 1451  19.653  36.486  12.554
39998W        W 1452   4.871  43.502   1.803
39999W        W 1453  34.598  26.192   3.780
40000W        W 1454  43.779  31.417  10.611
40001W        W 1455  32.105  12.679   3.311
40002W        W 1456  42.873  38.850  11.462
40003W        W 1457   1.911  40.455  11.964
40004W        W 1458  31.956  37.880  14.961
40005W        W 1459  32.974   0.260   1.312
40006W        W 1460  13.736  27.125  11.122
40007W        W 1461  26.014  28.946   1.268
40008W        W 1462  18.648  14.274  11.532
40009W        W 1463  29.924  43.271   1.773
40010W        W 1464  43.458  11.722   2.809
40011W        W 1465   0.436  32.477  12.555
40012W        W 1466  30.061  15.666  10.114
40013W        W 1467  24.178  34.915   1.293
40014W        W 1468  42.380   2.962  13.892
40015W        W 1469  25.611  19.779   0.349
40016W        W 1470  38.865   1.897  14.908
40017W        W 1471   6.355  27.065   3.719
40018W        W 1472  40.936  23.124   4.653
40019W        W 1473  10.726  13.134   0.347
40020W        W 1474  42.831  10.776   4.622
40021W        W 1475  24.090  20.569  10.414
40022W        W 1476  32.589  28.563  12.849
40023W        W 1477   9.173  25.111  10.583
40024W        W 1478  29.980  33.986  12.927
40025W        W 1479  28.104  37.080  10.967
40026W        W 1480  27.538   0.444  10.460
40027W        W 1481  29.100   9.867   0.424
40028W        W 1482  41.948   9.179  11.118
40029W        W 1483  21.142  40.324   3.301
40030W        W 1484  18.134  37.365   2.183
40031W        W 1485  33.386  40.509  12.421
40032W        W 1486  16.118   5.900   0.846
40033W        W 1487  18.635   0.288   0.805
40034W        W 1488   7.294   1.765   3.254
40035W        W 1489  40.325  39.366   9.943
40036W        W 1490  10.854  24.206   1.449
40037W        W 1491  38.472  15.329  11.881
40038W        W 1492  39.542  22.501  12.403
40039W        W 1493  31.506  20.664   1.787
40040W        W 1494  44.374  13.120  14.473
40041W        W 1495  39.055  27.502  14.025
40042W        W 1496   8.873  40.336   1.430
40043W        W 1497  39.319  18.132   1.304
40044W        W 1498  36.411   3.741   4.647
40045W        W 1499  17.634  18.734   3.182
40046W        W 1500  10.726  23.728   4.679
40047W        W 1501  37.086  37.836  11.938
40048W        W 1502  14.125  28.041   1.260
40049W        W 1503  22.199  20.690  11.011
40050W        W 1504  11.288   0.974  14.513
40051W        W 1505  20.544   1.324  14.935
40052W        W 1506  10.769  17.151   3.188
40053W        W 1507  38.445  17.252  11.018
40054W        W 1508   9.801  36.847  10.949
40055W        W 1509   7.871  37.411   1.252
40056W        W 1510  17.661   4.338   1.870
40057W        W 1511  11.696  12.822  13.368
40058W        W 1512  42.299  27.076   3.767
40059W        W 1513  31.049  40.973  11.023
40060W        W 1514  41.386   9.874  13.997
40061W        W 1515  15.171  26.177   0.876
40062W        W 1516  18.719  20.606  13.498
40063W        W 1517  33.090  29.550  13.491
40064W        W 1518  35.885  31.062   3.668
40065W        W 1519  21.541  22.604  13.442
40066W        W 1520  17.233   7.682   1.913
40067W        W 1521  44.974  32.400  11.465
40068W        W 1522  40.474  26.673   0.473
40069W        W 1523  27.053   9.771   3.311
40070W        W 1524  37.412  43.967   0.282
40071W        W 1525  28.644  22.996   1.763
40072W        W 1526   6.791  40.413  14.294
40073W        W 1527  42.526  44.443  13.942
40074W        W 1528  36.901  26.114  10.417
40075W        W 1529  19.668   9.162   0.283
40076W        W 1530  35.602  26.570   2.224
40077W        W 1531   1.953   6.391  11.464
40078W        W 1532  24.531   1.867  10.125
40079W        W 1533  32.919   4.825   3.763
40080W        W 1534   0.904  15.258   1.748
40081W        W 1535  37.875   3.834   1.721
40082W        W 1536  41.933   1.395   4.824
40083W        W 1537   0.845  12.719   0.408
40084W        W 1538   7.219   5.848   3.668
40085W        W 1539  10.696  17.074  13.863
40086W        W 1540  22.049   9.749   3.703
40087W        W 1541  11.234  33.408   3.326
40088W        W 1542  11.279  30.642  10.959
40089W        W 1543  10.655   0.908  10.024
40090W        W 1544  30.045  26.659  12.889
40091W        W 1545  34.429  30.524   1.694
40092W        W 1546   2.862  40.891   0.420
40093W        W 1547  20.110   5.398   3.331
40094W        W 1548   8.764   8.802  14.938
40095W        W 1549   0.757  36.893  12.476
40096W        W 1550  38.935   9.269  12.525
40097W        W 1551  16.699  13.206   1.312
40098W        W 1552  21.107  32.018  12.018
40099W        W 1553   2.949   1.277   3.636
40100W        W 1554  20.673  33.130  14.300
40101W        W 1555  43.281  18.707  14.964
40102W        W 1556   1.887   8.339   4.255
40103W        W 1557  15.625  31.459  13.995
40104W        W 1558  33.045   8.818  12.023
40105W        W 1559  36.899  25.681   1.832
40106W        W 1560  37.967  38.990   4.800
40107W        W 1561  29.581   6.420   3.364
40108W        W 1562   4.849  36.052   4.779
40109W        W 1563  32.486  25.077   0.380
40110W        W 1564  13.759   8.194   1.236
40111W        W 1565  31.622  14.756  14.366
40112W        W 1566  24.988  26.116   2.726
40113W        W 1567  22.034  26.659  14.007
40114W        W 1568  36.909  32.918   3.356
40115W        W 1569  27.470  11.287  13.814
40116W        W 1570  11.194  14.820  14.834
40117W        W 1571  37.862   2.797  14.377
40118W        W 1572  18.109  17.567  12.576
40119W        W 1573  35.026   6.417   0.438
40120W        W 1574   7.819  18.262   5.138
40121W        W 1575  22.156  11.700   1.858
40122W        W 1576  43.975  43.875   4.816
40123W        W 1577  19.283  21.729   0.370
40124W        W 1578  41.929  30.611  14.919
40125W        W 1579  14.159   2.419   1.821
40126W        W 1580  19.769  12.233   3.639
40127W        W 1581  19.696  38.854   0.325
40128W        W 1582  31.552  16.719   2.756
40129W        W 1583  29.532  21.586   4.329
40130W        W 1584  35.382  32.415  11.956
40131W        W 1585  12.838  41.983  11.463
40132W        W 1586   9.366  27.612  13.310
40133W        W 1587  24.168   2.805  14.917
40134W        W 1588  37.964  10.826   2.237
40135W        W 1589  38.992  41.430  13.973
40136W        W 1590   1.745  16.756  13.487
40137W        W 1591   7.209   5.333   1.779
40138W        W 1592  22.571  11.754   5.220
40139W        W 1593   9.292  17.281   3.670
40140W        W 1594   4.870  34.062   2.729
40141W        W 1595  39.052  31.926  10.558
40142W        W 1596  10.264   5.263   4.823
40143W        W 1597  10.328  44.837   1.401
40144W        W 1598  34.864  36.583   0.901
40145W        W 1599  18.052   1.374  13.345
40146W        W 1600  23.645  43.931   4.314
40147W        W 1601  11.326  27.058   4.264
40148W        W 1602  31.639  11.851   1.885
40149W        W 1603  37.861  22.055   3.150
40150W        W 1604   2.906  29.108   2.799
40151W        W 1605  36.377  44.461  13.433
40152W        W 1606  31.442   5.908  10.558
40153W        W 1607  35.446  14.156   4.745
40154W        W 1608  23.671   1.387   2.221
40155W        W 1609  41.437  23.685  10.490
40156W        W 1610  43.416  29.934   2.199
40157W        W 1611  38.003  37.357  10.037
40158W        W 1612  30.499  27.092  12.029
40159W        W 1613  16.730  10.370   3.867
40160W        W 1614   4.728   4.248   2.219
40161W        W 1615  15.727  35.373  13.794
40162W        W 1616  19.174  27.179   4.348
40163W        W 1617   0.892  34.397   2.805
40164W        W 1618   2.305  17.591  14.496
40165W        W 1619   8.763  30.561  13.875
40166W        W 1620  37.910  14.239  10.029
40167W        W 1621   2.235  24.198  10.461
40168W        W 1622  33.422   6.832   3.298
40169W        W 1623  27.128  30.657   0.935
40170W        W 1624   2.318  14.286  14.790
40171W        W 1625  43.802  17.146   2.700
40172W        W 1626   1.429  38.010   2.773
40173W        W 1627  10.817  38.508  11.434
40174W        W 1628   2.404  18.091   3.276
40175W        W 1629   8.669  29.033   2.875
40176W        W 1630  43.426  42.784  10.076
40177W        W 1631  31.471  44.277   3.737
40178W        W 1632  30.157  37.858  13.434
40179W        W 1633  31.120  29.051   3.740
40180W        W 1634   7.853   7.405   1.397
40181W        W 1635  42.998  42.302  10.470
40182W        W 1636  21.039  32.540   3.186
40183W        W 1637  43.953  44.903   3.844
40184W        W 1638  24.524  15.188   2.390
40185W        W 1639  29.057  39.872   1.813
40186W        W 1640   1.810  16.288   4.125
40187W        W 1641  43.912  35.983   4.314
40188W        W 1642  30.125  39.844  12.352
40189W        W 1643  30.625  42.442   0.844
40190W        W 1644  39.373  18.652   0.421
40191W        W 1645  22.102  16.712   4.740
40192W        W 1646  23.529  42.295  10.939
40193W        W 1647  42.785  21.580  13.367
40194W        W 1648  11.719   9.323   3.843
40195W        W 1649  16.628  44.264   0.804
40196W        W 1650  22.633  16.584  13.022
40197W        W 1651   2.756   5.381  12.353
40198W        W 1652  10.243   1.275  13.906
40199W        W 1653   4.766  10.257   0.835
40200W        W 1654   8.695  17.185  12.469
40201W        W 1655  43.014  24.520   4.146
40202W        W 1656   6.239  38.879   4.602
40203W        W 1657  30.557  27.032  10.439
40204W        W 1658   2.897  39.423   4.316
40205W        W 1659  18.691   2.327  14.277
40206W        W 1660  16.719  38.049   1.887
40207W        W 1661   2.874  32.123  14.410
40208W        W 1662  22.725  12.729  13.010
40209W        W 1663  11.303  35.597  12.868
40210W        W 1664  30.940  39.399  11.533
40211W        W 1665  20.262  10.797   5.114
40212W        W 1666  15.163   8.670   0.804
40213W        W 1667   7.223   1.906   4.123
40214W        W 1668  13.660   2.255  14.441
40215W        W 1669  31.083  25.129   4.195
40216W        W 1670  39.853  25.070  14.799
40217W        W 1671   3.229  24.020   1.219
40218W        W 1672   2.286   6.247  14.889
40219W        W 1673  39.881  40.523  13.539
40220W        W 1674  35.922   7.816   1.778
40221W        W 1675  35.036  31.062  13.040
40222W        W 1676  12.625  35.069  11.492
40223W        W 1677  40.876  18.168  14.021
40224W        W 1678  15.145  13.667  14.371
40225W        W 1679  36.927   7.223  12.466
40226W        W 1680  12.313   0.293   0.265
40227W        W 1681  15.324  15.722   0.436
40228W        W 1682  34.601  15.168   4.615
40229W        W 1683  43.392  27.027  12.456
40230W        W 1684   0.380  14.264  14.403
40231W        W 1685  30.103  28.127   1.931
40232W        W 1686  41.844  41.422  12.932
40233W        W 1687  30.596  22.144  10.635
40234W        W 1688  20.634   0.873   1.215
40235W        W 1689  35.502  21.175  14.393
40236W        W 1690  39.942  32.047   0.881
40237W        W 1691  43.985  34.568  14.987
40238W        W 1692  38.995  21.641   3.665
40239W        W 1693  11.342  39.925   5.125
40240W        W 1694   8.207   0.298  13.846
40241W        W 1695  36.073  38.992   1.895
40242W        W 1696  14.135  10.180   0.284
40243W        W 1697  36.415   4.937  11.404
40244W        W 1698  12.122  27.453  11.514
40245W        W 1699   0.388   7.373   4.224
40246W        W 1700   4.366  37.891  14.424
40247W        W 1701  36.937   5.310   0.256
40248W        W 1702   4.759  15.155   3.303
40249W        W 1703  23.692   0.305   3.179
40250W        W 1704  40.864  13.692   4.176
40251W        W 1705  32.532  30.993   4.258
40252W        W 1706   9.238  15.301  13.837
40253W        W 1707  32.987  32.396   4.286
40254W        W 1708  34.403  40.867  11.121
40255W        W 1709   4.216  22.556   3.367
40256W        W 1710  19.766  24.557   3.177
40257W        W 1711  28.014  22.644  12.083
40258W        W 1712  28.548  18.613  12.041
40259W        W 1713  37.433  20.608   1.221
40260W        W 1714   3.716  11.136   1.900
40261W        W 1715  16.137   1.241   3.291
40262W        W 1716  35.369  40.960   4.701
40263W        W 1717  13.824  37.562   0.730
40264W        W 1718  25.160  27.647   1.437
40265W        W 1719  18.608  37.421   5.146
40266W        W 1720  41.881  14.679  10.411
40267W        W 1721   6.894  34.079  13.386
40268W        W 1722  15.673  10.139  12.918
40269W        W 1723  12.324   5.337   4.777
40270W        W 1724   6.241  39.471   2.831
40271W        W 1725   0.942  21.667   4.728
40272W        W 1726  41.935  35.436   4.261
40273W        W 1727  39.316  29.576  14.428
40274W        W 1728  15.123  32.586   0.928
40275W        W 1729  26.457   1.305   1.328
40276W        W 1730  26.617  28.968   1.793
40277W        W 1731  30.079  16.785  11.534
40278W        W 1732  21.576  17.061  11.856
40279W        W 1733   9.278  16.798   1.399
40280W        W 1734   9.889  29.446  13.399
40281W        W 1735  27.087  11.319   4.771
40282W        W 1736  19.070   4.435  14.015
40283W        W 1737  34.402  40.814   1.283
40284W        W 1738   0.853   3.221  10.900
40285W        W 1739   4.231  24.180   1.405
40286W        W 1740  19.201  18.630   2.885
40287W        W 1741  32.452  41.365  13.058
40288W        W 1742   0.263  24.680   0.764
40289W        W 1743   3.260  39.354  10.537
40290W        W 1744  19.170  28.172   0.332
40291W        W 1745  20.643  28.080  14.441
40292W        W 1746  44.938  25.488  10.941
40293W        W 1747  15.671   7.313   3.163
40294W        W 1748   1.968  11.177  10.470
40295W        W 1749  31.145  35.062   1.379
40296W        W 1750  27.575  18.577  12.965
40297W        W 1751  41.440  41.431  14.940
40298W        W 1752  15.168  41.300  12.875
40299W        W 1753  42.483  40.899   0.944
40300W        W 1754  43.481   8.388   3.661
40301W        W 1755  29.438  28.067  12.911
40302W        W 1756  14.228  38.075  10.489
40303W        W 1757   8.297   7.377  12.825
40304W        W 1758  30.011  24.645   3.316
40305W        W 1759  40.545  22.020  11.448
40306W        W 1760  40.949  22.514  14.840
40307W        W 1761  29.108   9.198  13.454
40308W        W 1762  22.506   1.930   0.915
40309W        W 1763   2.459  32.993   1.388
40310W        W 1764  14.318  20.575   0.311
40311W        W 1765   4.353  34.487   0.302
40312W        W 1766  19.129   2.391   1.360
40313W        W 1767  36.929   7.885   2.791
40314W        W 1768  41.398   3.311   5.263
40315W        W 1769  29.128   4.216   0.895
40316W        W 1770  42.800   0.411   2.294
40317W        W 1771  42.418  39.956  12.933
40318W        W 1772  44.361  37.440  12.400
40319W        W 1773  19.263  38.406   0.875
40320W        W 1774  35.959   0.970  11.461
40321W        W 1775   0.301  27.643  10.416
40322W        W 1776   0.301   3.710  11.604
40323W        W 1777  34.476  28.455   2.797
40324W        W 1778  44.298  35.390  14.306
40325W        W 1779  15.746  28.505   0.744
40326W        W 1780   7.800   7.292   0.293
40327W        W 1781  30.041  18.286  11.063
40328W        W 1782   8.221  43.301   1.229
40329W        W 1783  26.134  37.886   3.301
40330W        W 1784  42.298   5.410   4.692
40331W        W 1785  27.509  16.795   0.786
40332W        W 1786  38.038  43.390  12.340
40333W        W 1787  37.932  13.808   3.150
40334W        W 1788  44.377  22.525  12.430
40335W        W 1789  31.948  22.151   2.695
40336W        W 1790  20.229  25.476  12.567
40337W        W 1791  33.949  42.776   1.322
40338W        W 1792  39.548  35.434  13.967
40339W        W 1793  36.025  21.595   4.234
40340W        W 1794  44.855   0.952  11.924
40341W        W 1795  17.288   0.349  12.414
40342W        W 1796  24.514   6.398   3.278
40343W        W 1797  19.761  35.982  11.112
40344W        W 1798   6.219  24.069  12.071
40345W        W 1799  15.187  41.504   3.713
40346W        W 1800  21.537  12.336  11.965
40347W        W 1801  39.376   7.254   0.734
40348W        W 1802  41.450   5.870  14.279
40349W        W 1803  20.617   1.783   0.424
40350W        W 1804  19.134  18.168   2.844
40351W        W 1805   2.318   8.845  14.790
40352W        W 1806  32.501   6.875  10.414
40353W        W 1807  24.579   4.767   2.838
40354W        W 1808  36.564  32.468  11.408
40355W        W 1809   8.175   7.692   2.665
40356W        W 1810  25.125  14.635  14.405
40357W        W 1811  15.680  38.337  11.398
40358W        W 1812   5.367   8.749   0.800
40359W        W 1813  12.760   1.836   0.756
40360W        W 1814  44.502  29.573  11.544
40361W        W 1815  22.137  19.757   2.376
40362W        W 1816   4.939  19.667   3.651
40363W        W 1817   8.737  21.744   2.736
40364W        W 1818   4.824  41.351   4.274
40365W        W 1819  20.249   4.877   3.241
40366W        W 1820  10.799   0.312  12.004
40367W        W 1821   0.781  11.255  14.927
40368W        W 1822  37.477  20.088  14.772
40369W        W 1823  36.590  35.046   1.451
40370W        W 1824  42.425  10.261   1.727
40371W        W 1825  17.076   2.933   4.821
40372W        W 1826  27.142  21.172   3.645
40373W        W 1827  17.223  31.966   3.664
40374W        W 1828  43.358   7.908  12.967
40375W        W 1829  38.883  29.974   0.945
40376W        W 1830  31.055   5.314  10.406
40377W        W 1831  16.302  32.395   3.348
40378W        W 1832  10.872  16.670  14.882
40379W        W 1833  19.609  33.974  11.948
40380W        W 1834  24.528   5.280   3.334
40381W        W 1835   9.235  33.926   9.962
40382W        W 1836  34.467  22.681  14.843
40383W        W 1837   1.404  24.497  13.374
40384W        W 1838  22.247  24.042   1.410
40385W        W 1839  10.249   9.287  11.930
40386W        W 1840  10.214  38.379  12.092
40387W        W 1841  16.198   7.352   1.862
40388W        W 1842  36.867  22.539   0.392
40389W        W 1843  34.909  20.108  11.945
40390W        W 1844  11.294   3.709  13.012
40391W        W 1845  20.676  36.887  13.307
40392W        W 1846  15.728  16.781   4.201
40393W        W 1847  31.008   9.867   5.141
40394W        W 1848  29.991  42.368   4.640
40395W        W 1849   3.849  13.261  13.017
40396W        W 1850  10.845  26.110   2.886
40397W        W 1851  28.106  16.666  14.324
40398W        W 1852  41.983   3.831   0.851
40399W        W 1853  32.545  34.410   1.395
40400W        W 1854  23.199  32.993   2.210
40401W        W 1855  36.464  42.970   0.768
40402W        W 1856  21.152  19.193   2.256
40403W        W 1857  21.680  25.640  11.544
40404W        W 1858  33.886  37.943  13.867
40405W        W 1859  38.918   6.864  12.577
40406W        W 1860  24.558  39.829   3.727
40407W        W 1861   4.433   0.770  11.416
40408W        W 1862   7.282  32.950   4.283
40409W        W 1863  31.962  37.886   4.665
40410W        W 1864  32.628  30.426  14.511
40411W        W 1865  36.407  38.328   2.811
40412W        W 1866   3.220  29.124  14.274
40413W        W 1867   9.221  17.081   4.728
40414W        W 1868  22.714  23.583  14.001
40415W        W 1869  14.606  30.007  10.438
40416W        W 1870  17.307  31.447   2.855
40417W        W 1871   5.848   1.945  13.514
40418W        W 1872  30.084   7.675   3.691
40419W        W 1873  38.504  44.413   4.185
40420W        W 1874  26.061  21.108   2.269
40421W        W 1875  21.061  19.661   1.714
40422W        W 1876  39.914  15.691  13.921
40423W        W 1877  39.905  26.988  12.580
40424W        W 1878  11.170   8.875  11.505
40425W        W 1879  33.607  44.287  11.115
40426W        W 1880   2.402  25.963   4.185
40427W        W 1881  20.157  13.234  13.527
40428W        W 1882   4.219  25.593   3.703
40429W        W 1883  12.159  37.874  13.957
40430W        W 1884  42.924  16.660  11.070
40431W        W 1885  20.271  26.028   0.780
40432W        W 1886  38.570  43.901  13.045
40433W        W 1887  20.151  25.102   3.808
40434W        W 1888  31.425  30.625   1.799
40435W        W 1889  22.195  34.419   1.732
40436W        W 1890  44.374  34.959   0.957
40437W        W 1891  23.159   0.877  12.054
40438W        W 1892   3.914  40.050  10.445
40439W        W 1893   8.779  32.593  13.362
40440W        W 1894   4.304  38.499   1.900
40441W        W 1895  17.148  22.689   1.314
40442W        W 1896   2.872  30.096  14.309
40443W        W 1897  27.595   6.904  13.057
40444W        W 1898  43.332  17.298  10.605
40445W        W 1899  38.357   4.928  10.638
40446W        W 1900  19.107  38.982   1.285
40447W        W 1901  22.161  14.813  14.781
40448W        W 1902  40.053   4.854   3.639
40449W        W 1903  44.823  24.711  12.994
40450W        W 1904  22.708   0.857  14.474
40451W        W 1905  12.130  15.268  10.933
40452W        W 1906   5.759  35.943   0.311
40453W        W 1907  30.439   6.701   4.252
40454W        W 1908  35.596  39.394  10.019
40455W        W 1909  34.406  13.795  13.946
40456W        W 1910  25.175   1.300   0.855
40457W        W 1911   7.696  13.196  11.588
40458W        W 1912  35.469  33.394  11.386
40459W        W 1913   1.866   7.811   3.713
40460W        W 1914  32.060  42.796  13.016
40461W        W 1915  44.758  16.165   0.441
40462W        W 1916   9.275   1.876  11.043
40463W        W 1917  12.152  31.975   4.815
40464W        W 1918  22.114  19.670   4.293
40465W        W 1919  23.026  30.078  12.560
40466W        W 1920  40.859   6.401  10.423
40467W        W 1921  32.415  43.483   3.313
40468W        W 1922  34.374  19.187  14.763
40469W        W 1923  19.662  27.996   3.268
40470W        W 1924   1.967  11.194   3.357
40471W        W 1925  31.056  31.536  12.468
40472W        W 1926   7.362  40.370  13.527
40473W        W 1927   0.828  16.292   0.837
40474W        W 1928  43.274  25.604   2.404
40475W        W 1929  12.669  37.980   2.242
40476W        W 1930  21.127  38.327   3.669
40477W        W 1931  44.485  17.179   4.277
40478W        W 1932  12.770  36.566   3.324
40479W        W 1933   4.335  18.631  14.493
40480W        W 1934  42.324  38.383   3.209
40481W        W 1935  44.295  26.500   1.816
40482W        W 1936   4.266  31.514   0.255
40483W        W 1937  43.394  35.856   5.266
40484W        W 1938  16.111  21.604  12.529
40485W        W 1939  41.821  19.216  12.420
40486W        W 1940  29.034  25.981  11.960
40487W        W 1941  31.458  30.057   2.331
40488W        W 1942  40.897  19.248  11.031
40489W        W 1943  29.087   2.849   3.802
40490W        W 1944   1.962  32.614   0.828
40491W        W 1945  32.902  40.819   0.877
40492W        W 1946  18.066  32.412   3.847
40493W        W 1947  13.677  36.972   1.702
40494W        W 1948  31.064   4.732   5.788
40495W        W 1949  37.963  16.632   2.233
40496W        W 1950  22.606  18.280  10.018
40497W        W 1951  23.076  38.826   3.276
40498W        W 1952  16.074  31.464   4.223
40499W        W 1953  14.115   4.905  11.123
40500W        W 1954   4.878  41.836  11.498
40501W        W 1955  25.194   5.434  14.029
40502W        W 1956  31.132  19.603   2.795
40503W        W 1957  21.062  44.491   2.361
40504W        W 1958  22.666  31.056   0.813
40505W        W 1959  22.537  21.708   2.301
40506W        W 1960  26.556  20.534  13.548
40507W        W 1961   8.298  13.194  11.062
40508W        W 1962  14.161  41.303   5.311
40509W        W 1963  16.132  29.545   2.733
40510W        W 1964  23.699  40.306   4.771
40511W        W 1965  16.149  38.907  11.036
40512W        W 1966   2.883   3.795   1.248
40513W        W 1967   8.681  25.037   4.242
40514W        W 1968  30.146  27.142   0.914
40515W        W 1969  38.852  36.540   0.326
40516W        W 1970   0.383   7.416  13.483
40517W        W 1971   5.821  38.867  13.961
40518W        W 1972   9.221  13.236   2.283
40519W        W 1973  15.257  25.596   4.613
40520W        W 1974   6.383  10.839  11.467
40521W        W 1975   5.854  38.528  10.986
40522W        W 1976  42.964  29.984  12.389
40523W        W 1977  32.110   4.316  10.489
40524W        W 1978   9.276  31.425  13.812
40525W        W 1979  43.997  27.977   3.855
40526W        W 1980  36.474  37.394   1.739
40527W        W 1981  21.058  29.543  14.881
40528W        W 1982  35.061  30.466   3.831
40529W        W 1983   8.306  26.169   1.291
40530W        W 1984  25.494  34.384   4.713
40531W        W 1985  22.670  26.507   4.342
40532W        W 1986  13.814   4.366   2.678
40533W        W 1987  29.628  37.566  11.895
40534W        W 1988   9.727  32.553   1.866
40535W        W 1989  32.482   5.700   0.295
40536W        W 1990  16.747  25.033  12.401
40537W        W 1991  17.642  40.027  12.389
40538W        W 1992  15.286   5.234   2.699
40539W        W 1993  37.352  32.896   4.678
40540W        W 1994   5.801  20.575   4.306
40541W        W 1995  37.914  27.170  14.486
40542W        W 1996  27.463  37.342  10.431
40543W        W 1997  40.482  20.736   3.214
40544W        W 1998  33.428  28.142   4.651
40545W        W 1999  11.829  18.778  14.784
40546W        W 2000  33.525   0.862   3.243
40547W        W 2001  39.049   6.407  11.915
40548W        W 2002  10.724   8.877  13.935
40549W        W 2003  34.500   9.679   1.221
40550W        W 2004  15.083  26.155  14.806
40551W        W 2005   9.814   2.289  12.429
40552W        W 2006  28.153  29.651   3.815
40553W        W 2007  44.353  18.571   4.140
40554W        W 2008  18.684  37.871   2.348
40555W        W 2009  24.070  10.319   1.328
40556W        W 2010  34.984  21.694   3.196
40557W        W 2011   0.308  22.123   4.727
40558W        W 2012  39.048  22.678  10.503
40559W        W 2013  31.990  36.574  11.097
40560W        W 2014  11.300   2.948  12.879
40561W        W 2015  15.721  39.901  13.378
40562W        W 2016   2.312   5.750   1.427
40563W        W 2017  10.715   0.281   2.665
40564W        W 2018   7.193   9.762   3.296
40565W        W 2019  12.317  10.871   0.754
40566W        W 2020  16.608  14.696   0.778
40567W        W 2021  12.243  22.637   5.292
40568W        W 2022  19.563  11.271  12.524
40569W        W 2023  15.120  22.015  12.976
40570W        W 2024  34.534   3.340  11.868
40571W        W 2025  11.716  23.666  14.882
40572W        W 2026  36.396  21.035   4.624
40573W        W 2027  36.485  10.749   1.325
40574W        W 2028  37.012   5.276  13.937
40575W        W 2029  43.367  44.499  14.417
40576W        W 2030  30.155  33.907   9.447
40577W        W 2031  11.262  14.266   2.279
40578W        W 2032  43.794  32.419   4.742
40579W        W 2033  16.768  37.035   1.751
40580W        W 2034  18.094   7.834   2.296
40581W        W 2035   8.764  40.040   1.812
40582W        W 2036  25.661  14.241   0.477
40583W        W 2037   5.830  10.784   3.251
40584W        W 2038  17.601   7.682   3.832
40585W        W 2039  17.259  40.833  11.392
40586W        W 2040   2.445   2.282  10.409
40587W        W 2041  24.012  18.685  12.950
40588W        W 2042  10.822  15.674   2.749
40589W        W 2043  13.272  30.569   3.773
40590W        W 2044   4.254   7.703   3.384
40591W        W 2045  16.633  19.711   4.704
40592W        W 2046  22.141   5.691   1.330
40593W        W 2047  27.979  36.924  13.045
40594W        W 2048  25.707  38.999  11.935
40595W        W 2049   6.294  37.482  13.401
40596W        W 2050  15.788   1.895   3.153
40597W        W 2051  26.461   9.775   1.807
40598W        W 2052  43.992  25.591  11.009
40599W        W 2053  11.727  44.843   3.654
40600W        W 2054  34.398  32.074  11.948
40601W        W 2055  28.625  28.488  14.310
40602W        W 2056  13.652  25.128   2.332
40603W        W 2057  14.201  11.640  12.350
40604W        W 2058  22.060  36.434  13.025
40605W        W 2059   8.830  29.169  13.044
40606W        W 2060   8.240  30.923  10.056
40607W        W 2061  37.409  13.612  14.759
40608W        W 2062  21.215  18.135  12.958
40609W        W 2063   6.313   5.269   1.243
40610W        W 2064   7.895  18.633   3.775
40611W        W 2065  32.049  24.553  12.881
40612W        W 2066   5.415   3.322   2.335
40613W        W 2067  32.104  30.008   1.362
40614W        W 2068   3.445  11.266  12.348
40615W        W 2069  33.463  34.485  14.355
40616W        W 2070  31.442   1.763  12.465
40617W        W 2071  12.320   5.371  11.084
40618W        W 2072   8.349  30.458  14.483
40619W        W 2073  23.012  19.263   2.882
40620W        W 2074  34.520  17.149   1.856
40621W        W 2075  12.619  28.506   0.840
40622W        W 2076  26.632  16.672  14.854
40623W        W 2077  21.103  22.577  13.035
40624W        W 2078  37.924  39.898   1.274
40625W        W 2079  32.972   1.450   3.742
40626W        W 2080   6.816  16.246   2.776
40627W        W 2081  42.798  34.890  11.099
40628W        W 2082  14.231  42.953  14.514
40629W        W 2083  39.422   8.219   3.821
40630W        W 2084  39.828  24.089  12.954
40631W        W 2085  36.582  43.869  12.511
40632W        W 2086  40.315  44.898   2.306
40633W        W 2087  26.494   8.778  12.929
40634W        W 2088   0.770  16.584  14.880
40635W        W 2089  19.243  21.748  10.544
40636W        W 2090   4.911  44.470  11.867
40637W        W 2091  15.639   8.690  11.895
40638W        W 2092  32.509  16.572   3.863
40639W        W 2093  41.951  24.682   1.929
40640W        W 2094   0.478  15.799  13.451
40641W        W 2095  11.359  17.734  10.987
40642W        W 2096  15.171  34.033   3.269
40643W        W 2097  39.031  20.641  11.386
40644W        W 2098  31.577  42.342  11.963
40645W        W 2099  25.706  30.018   0.277
40646W        W 2100  12.854   2.405   3.704
40647W        W 2101   0.348   0.988   2.417
40648W        W 2102  35.879  13.261  12.880
40649W        W 2103   0.983   9.732   3.244
40650W        W 2104  38.340  25.633   4.629
40651W        W 2105  14.289  42.896   3.849
40652W        W 2106  43.819  41.915   3.837
40653W        W 2107  34.113  37.505  11.448
40654W        W 2108  28.563   7.753  13.986
40655W        W 2109  38.515  28.039   1.219
40656W        W 2110  27.152  35.071   2.687
40657W        W 2111  36.474  30.953   4.230
40658W        W 2112  34.411  23.682   3.766
40659W        W 2113  35.069  20.244  13.468
40660W        W 2114  15.582  37.444  10.644
40661W        W 2115  11.689  11.283  10.644
40662W        W 2116  27.943   6.694   3.829
40663W        W 2117   9.346  11.795  12.914
40664W        W 2118  29.568  22.068  13.927
40665W        W 2119   8.701  22.088   3.777
40666W        W 2120  16.802  29.549  11.588
40667W        W 2121   8.257  17.598   3.727
40668W        W 2122  21.691  10.694  12.886
40669W        W 2123  44.859  18.061  14.457
40670W        W 2124  44.436  18.676  12.421
40671W        W 2125  18.218  30.038   4.697
40672W        W 2126   5.721  13.622   2.825
40673W        W 2127  24.010  10.820   4.346
40674W        W 2128  20.643  23.114  10.620
40675W        W 2129  32.439  16.291   4.810
40676W        W 2130  23.163  33.432  11.565
40677W        W 2131  35.025  17.604  12.991
40678W        W 2132  36.011  22.629  13.905
40679W        W 2133  43.926   8.331  11.575
40680W        W 2134  42.985  33.930   4.201
40681W        W 2135  31.479   4.308   1.402
40682W        W 2136  29.488   2.367  10.118
40683W        W 2137  28.054  27.149   4.285
40684W        W 2138  28.460  19.617  14.301
40685W        W 2139  36.025  26.144  14.318
40686W        W 2140   2.261   3.257   2.785
40687W        W 2141   5.846  31.440  14.293
40688W        W 2142   2.253   2.267  13.927
40689W        W 2143  13.192  11.260   9.983
40690W        W 2144  44.265  13.129  11.438
40691W        W 2145  43.783  31.501   4.173
40692W        W 2146   3.382  17.692  11.542
40693W        W 2147  20.579  40.426   2.316
40694W        W 2148  19.598  20.069  13.885
40695W        W 2149  15.097  10.351   1.926
40696W        W 2150  11.244  34.107   1.715
40697W        W 2151  33.575   0.267  12.400
40698W        W 2152  38.969   0.287  14.476
40699W        W 2153  23.122  34.404  13.967
40700W        W 2154  12.633   9.325   3.316
40701W        W 2155  44.298   7.222  14.339
40702W        W 2156  33.528  13.693   1.256
40703W        W 2157  13.769  27.068   3.692
40704W        W 2158   2.903   3.265  12.933
40705W        W 2159   6.324  36.556   1.841
40706W        W 2160   6.788  19.629   4.324
40707W        W 2161  39.824  23.988   2.716
40708W        W 2162  39.823  19.569   4.763
40709W        W 2163  21.694   3.749  11.516
40710W        W 2164  40.337  44.317   4.769
40711W        W 2165  32.885  37.013   4.798
40712W        W 2166  30.620  40.893  11.124
40713W        W 2167  26.095   9.373  12.047
40714W        W 2168  19.219  16.157   2.289
40715W        W 2169   4.407  24.030   1.759
40716W        W 2170  13.350  10.825   4.258
40717W        W 2171  22.731  21.193  14.452
40718W        W 2172  17.105  36.926   1.842
40719W        W 2173   6.889  34.102   1.441
40720W        W 2174  33.993  33.016   0.755
40721W        W 2175  23.065  22.180   2.899
40722W        W 2176  34.378  15.197  11.955
40723W        W 2177   3.422  23.541   2.821
40724W        W 2178   1.816  24.007   5.317
40725W        W 2179  24.529  38.436  14.375
40726W        W 2180  22.115  25.517  14.313
40727W        W 2181  32.905  24.132   1.348
40728W        W 2182  33.419   8.733   1.803
40729W        W 2183  23.622  28.617  11.416
40730W        W 2184  29.162  42.954  14.472
40731W        W 2185  11.203  29.439  14.773
40732W        W 2186  18.673  14.719   5.179
40733W        W 2187   1.907  29.073   3.722
40734W        W 2188  21.074  28.182  13.931
40735W        W 2189  36.989  23.690   2.795
40736W        W 2190  30.590  16.653   0.300
40737W        W 2191   8.855   1.905  14.914
40738W        W 2192   7.890   5.767   0.794
40739W        W 2193   2.738   6.799   1.423
40740W        W 2194  40.817  39.835  13.488
40741W        W 2195   7.353  29.982  14.293
40742W        W 2196  17.567  19.205   4.292
40743W        W 2197   2.432  25.528   3.277
40744W        W 2198   7.755  25.041  13.359
40745W        W 2199   0.268   8.792   2.713
40746W        W 2200   7.378  25.091   0.763
40747W        W 2201  12.809  14.731   1.802
40748W        W 2202   7.905  43.304  13.372
40749W        W 2203  27.001  20.244   3.305
40750W        W 2204  24.521  13.829  14.330
40751W        W 2205  22.192   4.928  13.907
40752W        W 2206   0.457  22.505   1.352
40753W        W 2207   3.872  16.126  10.450
40754W        W 2208  25.061  38.342   1.696
40755W        W 2209  35.512   6.753   1.713
40756W        W 2210   6.889  44.895  12.033
40757W        W 2211   8.808  41.454   3.871
40758W        W 2212   1.926  37.530  12.936
40759W        W 2213   7.787   1.860   4.257
40760W        W 2214  28.966  11.160   2.319
40761W        W 2215  38.984  31.471   3.813
40762W        W 2216  39.376  42.304  13.841
40763W        W 2217  31.497  34.991   1.820
40764W        W 2218  42.407  27.107  13.483
40765W        W 2219   3.906  17.300  12.096
40766W        W 2220  15.274  40.921  13.372
40767W        W 2221  16.666   2.935  12.423
40768W        W 2222  12.780  44.871  11.597
40769W        W 2223  24.506  41.018   4.767
40770W        W 2224  27.643  39.982  10.527
40771W        W 2225  38.977   6.376  13.381
40772W        W 2226   0.931  14.668   4.832
40773W        W 2227  30.966  35.021   2.853
40774W        W 2228  12.299  44.891   2.267
40775W        W 2229  19.667  43.014   1.879
40776W        W 2230  13.714   6.854   0.385
40777W        W 2231   6.677  21.611   2.380
40778W        W 2232  22.539   3.222  14.770
40779W        W 2233  25.027  17.796  10.902
40780W        W 2234  29.046  22.223   4.292
40781W        W 2235  24.208  29.666   1.707
40782W        W 2236  13.677  33.092   3.800
40783W        W 2237   7.232  12.703  11.101
40784W        W 2238  34.951  35.430  12.351
40785W        W 2239  14.814   3.765  11.415
40786W        W 2240  37.028  20.142  12.856
40787W        W 2241  37.908  20.244   2.751
40788W        W 2242   7.339  40.342  10.575
40789W        W 2243  15.120   7.238  10.890
40790W        W 2244  21.741  38.938  14.761
40791W        W 2245  31.073  18.176   0.325
40792W        W 2246  40.976  18.108  12.947
40793W        W 2247   3.715  30.468  13.804
40794W        W 2248  35.439   7.409   1.887
40795W        W 2249  16.312  37.058   2.862
40796W        W 2250  14.205  42.490   4.148
40797W        W 2251  25.011  11.154   1.407
40798W        W 2252   4.776  42.351   4.306
40799W        W 2253  25.498  15.184   2.258
40800W        W 2254   2.899  22.599  12.444
40801W        W 2255  34.066  26.045   2.400
40802W        W 2256  41.956  36.849   1.879
40803W        W 2257  10.187  13.633  10.929
40804W        W 2258   3.833  12.172   4.304
40805W        W 2259  15.091  16.633  11.530
40806W        W 2260  19.129  14.765  12.558
40807W        W 2261  14.701  36.498  11.056
40808W        W 2262  10.647  31.464  13.384
40809W        W 2263   5.230  29.490   0.305
40810W        W 2264  25.205  17.570   2.787
40811W        W 2265  32.031   0.397  12.383
40812W        W 2266  31.532  29.164  10.435
40813W        W 2267  44.307  26.615  10.528
40814W        W 2268  15.249  34.370   1.418
40815W        W 2269  20.062  26.989  10.907
40816W        W 2270  41.422  17.685  12.034
40817W        W 2271  10.704  31.083  11.555
40818W        W 2272   8.817   9.738  10.984
40819W        W 2273  34.461  18.117   0.341
40820W        W 2274   4.321   4.742   1.440
40821W        W 2275  43.970  38.027   3.778
40822W        W 2276   3.904  39.912   3.324
40823W        W 2277  20.191  20.710  12.927
40824W        W 2278  40.316   2.269  10.482
40825W        W 2279   0.321  20.613   0.967
40826W        W 2280  40.502   7.330  12.974
40827W        W 2281   2.774  19.161  10.924
40828W        W 2282  14.320   9.304   3.324
40829W        W 2283   5.725  18.588   0.295
40830W        W 2284  14.179  27.099  10.996
40831W        W 2285   3.366  27.982   2.731
40832W        W 2286   8.890   4.826   0.360
40833W        W 2287  19.171   6.322  14.763
40834W        W 2288  39.934   4.876  10.639
40835W        W 2289  23.225   9.329   0.303
40836W        W 2290  33.498  27.160  10.504
40837W        W 2291  36.995  39.314  14.360
40838W        W 2292  41.368   3.452  12.843
40839W        W 2293   6.856  43.787   3.262
40840W        W 2294   8.180  28.669  14.950
40841W        W 2295  37.462  21.156   0.866
40842W        W 2296  30.600   1.743  13.874
40843W        W 2297  16.227  25.511  11.964
40844W        W 2298   0.346  17.128   4.835
40845W        W 2299  35.088  24.480  14.844
40846W        W 2300   5.916  34.596  10.118
40847W        W 2301   0.882   1.882   2.193
40848W        W 2302  12.670  14.609  10.960
40849W        W 2303  23.544  18.055  14.786
40850W        W 2304  29.105  29.102   2.804
40851W        W 2305   3.357  38.559  14.285
40852W        W 2306   1.401  16.638  11.580
40853W        W 2307  41.025  33.931   2.379
40854W        W 2308  17.287  22.565   4.174
40855W        W 2309  42.779  16.233  12.358
40856W        W 2310  12.292   8.879   3.173
40857W        W 2311  20.724  21.204   2.185
40858W        W 2312  29.165   9.242   4.133
40859W        W 2313   7.213  27.478   4.762
40860W        W 2314  21.089   7.779  14.024
40861W        W 2315  23.028  12.236   1.860
40862W        W 2316  10.384  34.495  14.858
40863W        W 2317  40.483  32.433  13.474
40864W        W 2318  27.529  42.522   3.293
40865W        W 2319  36.495   4.333   0.761
40866W        W 2320  12.138  20.756   2.708
40867W        W 2321  26.686  30.157   3.863
40868W        W 2322  25.510  35.930  11.944
40869W        W 2323   7.817  15.115   2.327
40870W        W 2324   6.902  42.339  10.956
40871W        W 2325  10.353  17.709  12.438
40872W        W 2326  13.659  16.770   0.934
40873W        W 2327  13.646  16.640   2.736
40874W        W 2328  20.070  42.915   3.740
40875W        W 2329  40.414   8.227   0.414
40876W        W 2330  17.596  38.844   0.799
40877W        W 2331  13.351  19.140   3.152
40878W        W 2332  10.840  18.192   4.794
40879W        W 2333  37.981  10.153   0.411
40880W        W 2334  14.815  43.772  11.534
40881W        W 2335   3.401  29.940  13.384
40882W        W 2336  16.660  28.161  10.472
40883W        W 2337   4.775  37.878   4.227
40884W        W 2338  21.591  36.364  11.084
40885W        W 2339  24.230  22.132   1.890
40886W        W 2340  23.618  23.095   1.819
40887W        W 2341  32.891  19.674  14.004
40888W        W 2342  37.951  18.729   0.819
40889W        W 2343   4.227  26.023   0.477
40890W        W 2344   4.909  10.700   4.823
40891W        W 2345  20.744   4.431  10.623
40892W        W 2346   3.919   5.845   4.830
40893W        W 2347  31.490   5.797   3.261
40894W        W 2348   1.475   3.858   4.172
40895W        W 2349  19.242  36.898   1.844
40896W        W 2350  10.336  40.895  11.948
40897W        W 2351  24.611  17.130   1.412
40898W        W 2352   7.691  40.974   1.331
40899W        W 2353  42.959  32.925  11.985
40900W        W 2354  30.520  24.229  13.970
40901W        W 2355  13.773  32.105  14.925
40902W        W 2356  20.682   4.767  11.432
40903W        W 2357  19.733  16.807  10.528
40904W        W 2358  35.998  17.108  11.921
40905W        W 2359  44.956  37.944   3.731
40906W        W 2360  44.341  12.326   2.292
40907W        W 2361  41.031  44.316  14.493
40908W        W 2362  21.020  17.104  14.907
40909W        W 2363  25.594  14.752  10.522
40910W        W 2364  14.238  42.995  11.489
40911W        W 2365   3.933   5.428  11.474
40912W        W 2366  17.155   6.681  10.569
40913W        W 2367   0.966  14.811  13.929
40914W        W 2368   6.722   0.271   1.369
40915W        W 2369   2.341  12.704   3.746
40916W        W 2370  26.518  40.476  12.373
40917W        W 2371  41.478   4.760  11.950
40918W        W 2372  43.947   8.794  12.400
40919W        W 2373  39.861   5.846   4.727
40920W        W 2374  10.734  26.011   3.150
40921W        W 2375  24.078   3.932   2.259
40922W        W 2376   4.438  40.403  14.479
40923W        W 2377   8.673  22.111  14.823
40924W        W 2378   8.711  29.525   3.856
40925W        W 2379   3.323  12.167  11.094
40926W        W 2380   5.292   2.293  14.466
40927W        W 2381  40.903  39.043  10.569
40928W        W 2382  21.056   1.364   0.329
40929W        W 2383  12.817  17.272  11.920
40930W        W 2384   2.822   1.847   3.326
40931W        W 2385  39.063  22.707   1.739
40932W        W 2386  16.112   3.392   2.730
40933W        W 2387  41.955  31.110  11.610
40934W        W 2388  18.248  12.138   4.113
40935W        W 2389  14.644  35.949  11.427
40936W        W 2390   3.375  21.559  12.539
40937W        W 2391  32.464  32.537   3.300
40938W        W 2392   9.766  20.221   0.259
40939W        W 2393   6.267   9.681  13.969
40940W        W 2394  12.155  25.502   1.328
40941W        W 2395  31.103   1.365   2.293
40942W        W 2396   3.291  18.224   3.648
40943W        W 2397  41.411  22.685  13.512
40944W        W 2398  37.493   6.750   4.305
40945W        W 2399  10.375  39.863  11.603
40946W        W 2400  23.031   2.831  14.461
40947W        W 2401  24.625  31.607   1.303
40948W        W 2402  33.414   9.815  12.898
40949W        W 2403  25.687  39.560  14.030
40950W        W 2404  21.686  44.482   1.440
40951W        W 2405  18.151  40.891   4.351
40952W        W 2406  25.597   5.315  12.075
40953W        W 2407  15.223  22.540   2.299
40954W        W 2408  38.880   3.291  11.511
40955W        W 2409  14.691  26.484   2.773
40956W        W 2410  43.963  30.133   4.322
40957W        W 2411   4.803   2.339  11.870
40958W        W 2412  39.455  26.995   3.240
40959W        W 2413  17.158  35.553  14.769
40960W        W 2414  16.096   2.770  13.344
40961W        W 2415  16.305  16.740  12.563
40962W        W 2416   4.886  29.116  12.882
40963W        W 2417  28.158  22.035   5.780
40964W        W 2418  32.968  24.689  10.912
40965W        W 2419  39.901  30.528   4.769
40966W        W 2420   4.349  15.292  12.876
40967W        W 2421  11.294  16.237   2.813
40968W        W 2422  44.438  36.554  14.904
40969W        W 2423  37.912   9.242   4.165
40970W        W 2424  43.319  23.659   3.751
40971W        W 2425  12.117  19.082   4.334
40972W        W 2426  35.015  16.226  13.792
40973W        W 2427  21.166   5.714   3.305
40974W        W 2428  41.889  12.672  12.473
40975W        W 2429  33.984  28.146   2.262
40976W        W 2430  21.041  26.675  11.064
40977W        W 2431  14.236  40.973   3.349
40978W        W 2432   0.813  42.438  10.552
40979W        W 2433  33.606  31.015  10.897
40980W        W 2434  29.615  18.064  13.806
40981W        W 2435  44.753   9.297   4.819
40982W        W 2436  17.131  22.184   2.718
40983W        W 2437  36.087   9.654   4.802
40984W        W 2438  22.180   3.751   0.751
40985W        W 2439  22.639  33.116   0.332
40986W        W 2440  26.603  25.612  11.527
40987W        W 2441  13.144  32.981   2.383
40988W        W 2442  26.551  24.623   2.688
40989W        W 2443  41.881  32.048   2.243
40990W        W 2444   9.695  19.270  12.522
40991W        W 2445   0.295  22.063   3.188
40992W        W 2446   5.237   6.749   4.210
40993W        W 2447   0.833  21.226  12.981
40994W        W 2448  36.385  15.640  10.945
40995W        W 2449   1.478  27.576   1.836
40996W        W 2450  26.988  26.106  12.910
40997W        W 2451  14.616  30.048   1.824
40998W        W 2452  35.053  12.186  14.810
40999W        W 2453  12.250  19.275  13.825
41000W        W 2454   0.874  28.645  11.093
41001W        W 2455  29.498  24.523  14.275
41002W        W 2456  11.356   7.410   1.385
41003W        W 2457  27.672  44.269   1.409
41004W        W 2458  12.319  14.210  14.359
41005W        W 2459  27.610  42.859  13.457
41006W        W 2460  31.008  39.819   3.306
41007W        W 2461  38.963   2.299  13.447
41008W        W 2462  14.314   5.321  11.933
41009W        W 2463  15.739  42.483   3.253
41010W        W 2464   7.178   1.886  10.969
41011W        W 2465  41.416   1.295  12.437
41012W        W 2466  35.369  14.819  14.385
41013W        W 2467  41.344   9.232   3.756
41014W        W 2468  31.597  13.687   3.367
41015W        W 2469  35.361  13.681   0.946
41016W        W 2470  26.465   4.909   3.269
41017W        W 2471  37.858   2.260  13.832
41018W        W 2472  25.070  32.949   3.175
41019W        W 2473  32.903  15.615   3.789
41020W        W 2474   6.407  37.044  10.977
41021W        W 2475  35.872  30.933   2.336
41022W        W 2476  25.002  21.239  13.810
41023W        W 2477  40.314  43.997  11.100
41024W        W 2478  19.612  33.492   1.844
41025W        W 2479  12.631   8.791  11.031
41026W        W 2480   8.328  40.524   2.731
41027W        W 2481  24.720  10.798  14.873
41028W        W 2482   9.700  17.737  13.991
41029W        W 2483  25.478  31.456  13.452
41030W        W 2484  33.431  30.070   4.353
41031W        W 2485   9.703  43.296  13.028
41032W        W 2486  33.614   9.283  10.891
41033W        W 2487  15.654  34.605   1.222
41034W        W 2488  15.281  40.824   4.224
41035W        W 2489   0.350  42.835  14.350
41036W        W 2490  38.861  36.349  14.793
41037W        W 2491  44.799  11.282   4.297
41038W        W 2492  24.590  34.542   9.672
41039W        W 2493  38.505  19.773  10.929
41040W        W 2494  29.106  38.997  12.571
41041W        W 2495  18.759  21.690   1.896
41042W        W 2496  35.462   8.386  11.553
41043W        W 2497  32.953  17.725  12.087
41044W        W 2498   1.795  44.777   4.706
41045W        W 2499   5.770  23.600  14.355
41046W        W 2500   0.326  32.632   0.312
41047W        W 2501  30.568   2.447   4.127
41048W        W 2502  35.903  27.955   1.362
41049W        W 2503  27.977  43.015   4.246
41050W        W 2504   7.310  26.114   3.179
41051W        W 2505  27.455   8.754  11.573
41052W        W 2506   5.292  33.092  12.988
41053W        W 2507   9.256  26.588   1.770
41054W        W 2508  17.193  25.051   4.774
41055W        W 2509  34.462   7.177  12.045
41056W        W 2510  22.232  13.639   1.388
41057W        W 2511   1.822   0.485   2.813
41058W        W 2512   3.326   6.194   0.340
41059W        W 2513  10.671  17.602   3.662
41060W        W 2514  30.553  28.074  11.610
41061W        W 2515  22.668  43.342  14.024
41062W        W 2516  14.724  11.343  12.076
41063W        W 2517   4.698   4.310  11.007
41064W        W 2518  17.194  32.525   2.401
41065W        W 2519  32.939  20.582   4.757
41066W        W 2520  28.113  27.598  13.963
41067W        W 2521  10.695  39.841  11.994
41068W        W 2522  27.596   1.268  10.523
41069W        W 2523  36.476  33.899  12.027
41070W        W 2524  26.114  37.373  14.309
41071W        W 2525  11.716   4.263   0.452
41072W        W 2526  34.054   4.933   1.450
41073W        W 2527  32.066  30.426   4.728
41074W        W 2528  12.812  30.625  11.393
41075W        W 2529  23.227   6.805   0.405
41076W        W 2530   8.722   9.840   1.875
41077W        W 2531  42.808  40.393   1.748
41078W        W 2532  44.394  29.428  13.863
41079W        W 2533  44.937  24.174  12.909
41080W        W 2534  28.648  29.075   0.862
41081W        W 2535  21.572  44.851   3.673
41082W        W 2536  20.143  37.841   1.399
41083W        W 2537  26.474  23.006  11.547
41084W        W 2538   6.333   2.311  14.354
41085W        W 2539  21.127  37.433   1.329
41086W        W 2540   4.739  25.119   5.315
41087W        W 2541  23.560  28.089   2.725
41088W        W 2542  35.895  15.202  11.920
41089W        W 2543  29.142   9.663   0.826
41090W        W 2544  44.448  41.961  11.983
41091W        W 2545  17.790  30.999  11.059
41092W        W 2546  41.039  16.282  10.607
41093W        W 2547  18.616  38.405   0.763
41094W        W 2548  12.688  26.653   1.331
41095W        W 2549   7.830  33.538   3.685
41096W        W 2550   2.742  14.738   4.758
41097W        W 2551  16.783  34.031   1.235
41098W        W 2552  28.646  26.091   4.634
41099W        W 2553  29.483  32.546   3.850
41100W        W 2554  10.227  22.541   4.723
41101W        W 2555  44.264  13.711  10.601
41102W        W 2556   3.834  26.662  11.990
41103W        W 2557  23.614   1.451   1.381
41104W        W 2558  30.089  21.064   4.640
41105W        W 2559  43.013   8.196  12.385
41106W        W 2560   9.680  44.386  14.473
41107W        W 2561  42.475  27.465  12.451
41108W        W 2562  13.325  36.556  12.093
41109W        W 2563  28.497  25.469   0.826
41110W        W 2564  22.609   9.776  14.813
41111W        W 2565   4.889  29.988   4.704
41112W        W 2566   7.737   3.823  13.856
41113W        W 2567  13.631   3.737   4.829
41114W        W 2568   7.895   0.874  14.761
41115W        W 2569  38.568  10.171  14.344
41116W        W 2570   0.456  15.156   2.358
41117W        W 2571  25.116   8.712   3.237
41118W        W 2572  13.141  33.432   4.827
41119W        W 2573  14.832   9.331   2.243
41120W        W 2574  16.270   1.245  10.967
41121W        W 2575  20.260   5.326  12.995
41122W        W 2576   0.952  39.865  10.128
41123W        W 2577   7.407  15.788  12.002
41124W        W 2578  38.535  18.633   1.911
41125W        W 2579   3.289   5.924  10.083
41126W        W 2580  19.064  29.051   4.280
41127W        W 2581  31.994  26.527   9.957
41128W        W 2582  30.015  24.623   4.606
41129W        W 2583  11.188   6.404   3.692
41130W        W 2584  22.065   8.242  14.923
41131W        W 2585  34.444   9.809   0.268
41132W        W 2586  30.576  35.514   1.929
41133W        W 2587   3.807  29.022   1.835
41134W        W 2588  38.041   4.720  10.525
41135W        W 2589  36.548   4.272  10.575
41136W        W 2590  14.684  31.474   3.240
41137W        W 2591  38.430  26.525   2.342
41138W        W 2592   9.382  39.897   0.827
41139W        W 2593  19.221  32.524  14.815
41140W        W 2594  37.495  11.788  12.492
41141W        W 2595  14.333  13.783  14.807
41142W        W 2596  18.200  10.667   3.197
41143W        W 2597  31.960   8.403   2.350
41144W        W 2598   3.293  30.911   4.302
41145W        W 2599   8.723   4.217   0.929
41146W        W 2600  43.466  20.535   1.767
41147W        W 2601  15.114  10.288  14.803
41148W        W 2602  24.674   9.198   3.785
41149W        W 2603   6.215  16.205   3.695
41150W        W 2604  12.742  16.198   9.514
41151W        W 2605  41.380  18.127   3.371
41152W        W 2606  43.452  42.512   1.891
41153W        W 2607  43.948  33.537  14.894
41154W        W 2608  25.502   7.709  13.922
41155W        W 2609  12.127   6.209  13.925
41156W        W 2610   6.705   4.391  11.402
41157W        W 2611  36.962  26.110   3.860
41158W        W 2612  21.527   6.322   3.279
41159W        W 2613  39.038  27.959   4.836
41160W        W 2614  43.334  38.970   0.272
41161W        W 2615  18.206  33.548  12.475
41162W        W 2616  23.056  30.608   0.856
41163W        W 2617  21.640  42.327   2.248
41164W        W 2618  25.605  14.120  10.434
41165W        W 2619   0.855   4.405  13.426
41166W        W 2620   4.807  37.415   2.237
41167W        W 2621  27.969   5.755  14.452
41168W        W 2622  28.092  18.747   3.642
41169W        W 2623  37.964  25.638   0.421
41170W        W 2624  20.272  30.599   2.843
41171W        W 2625  21.217  44.300  12.838
41172W        W 2626  11.645  25.135   2.304
41173W        W 2627  27.608  16.749   4.714
41174W        W 2628  10.796  17.743  13.822
41175W        W 2629   8.787  10.685   1.814
41176W        W 2630  35.869  19.695  11.011
41177W        W 2631  24.992  37.958  10.610
41178W        W 2632  31.076  22.612   4.280
41179W        W 2633  39.465  34.000  14.805
41180W        W 2634  17.759  11.859   1.807
41181W        W 2635   9.210  40.409   2.247
41182W        W 2636   9.261   6.680  14.927
41183W        W 2637   3.882  33.998  13.949
41184W        W 2638  26.172   2.857  12.976
41185W        W 2639  41.468  15.816   4.204
41186W        W 2640  23.657  42.829  12.955
41187W        W 2641  29.010  35.381   3.311
41188W        W 2642  39.320  38.899   3.347
41189W        W 2643  16.076   8.334   3.237
41190W        W 2644  37.068  10.210  12.886
41191W        W 2645  42.844  27.197  14.821
41192W        W 2646  23.703  11.658   3.234
41193W        W 2647  23.148  37.492  13.466
41194W        W 2648   5.425  35.562   3.199
41195W        W 2649   0.761  38.471  13.395
41196W        W 2650  24.130  17.095   0.481
41197W        W 2651  37.964  39.044  11.953
41198W        W 2652  29.943  28.607  12.067
41199W        W 2653  29.112  19.760  12.392
41200W        W 2654  18.077  35.593   4.273
41201W        W 2655  21.699  28.477   1.790
41202W        W 2656  26.158  19.103  10.956
41203W        W 2657  21.162  31.557   2.330
41204W        W 2658  24.494  35.430   0.415
41205W        W 2659  15.181  18.096   9.985
41206W        W 2660  38.885  22.999   4.199
41207W        W 2661  38.837  25.169  13.835
41208W        W 2662  31.024  22.150  14.282
41209W        W 2663  24.588  41.506   0.264
41210W        W 2664  24.590  28.449  10.983
41211W        W 2665  29.666  12.279   3.768
41212W        W 2666  15.191  33.474   0.751
41213W        W 2667  32.035  24.533  11.530
41214W        W 2668  21.647  27.051  13.843
41215W        W 2669   8.690  13.776   0.256
41216W        W 2670  15.242  16.095   0.300
41217W        W 2671  44.942  34.095   4.229
41218W        W 2672   1.959  24.626   1.892
41219W        W 2673  18.594  23.088  13.836
41220W        W 2674  42.322  11.290  13.061
41221W        W 2675  37.013  20.711  12.434
41222W        W 2676  39.343  35.520   3.303
41223W        W 2677  20.560  43.350  13.441
41224W        W 2678  29.961  34.049  12.518
41225W        W 2679  26.645  16.177   3.199
41226W        W 2680  25.105  27.449  11.072
41227W        W 2681  11.739  36.074  10.557
41228W        W 2682  41.906   4.404   1.437
41229W        W 2683  20.129  30.096   3.291
41230W        W 2684  10.843  41.837   2.885
41231W        W 2685  20.037  19.050  10.931
41232W        W 2686  42.471  31.615   4.150
41233W        W 2687  30.973  34.476   1.239
41234W        W 2688   3.809  20.717  14.825
41235W        W 2689  44.327  42.382  14.279
41236W        W 2690  41.353  35.021  12.007
41237W        W 2691  28.658  23.692  14.941
41238W        W 2692  34.930  10.734  12.866
41239W        W 2693   3.408  21.717  11.608
41240W        W 2694  25.054  34.591   1.768
41241W        W 2695  37.897   5.776   1.428
41242W        W 2696  32.541  40.006   4.604
41243W        W 2697  24.712  41.958  12.510
41244W        W 2698  42.331  36.456   3.147
41245W        W 2699  23.210  20.181  11.451
41246W        W 2700  16.626   1.888  13.814
41247W        W 2701   1.239  14.137   2.848
41248W        W 2702   9.201  13.287   1.721
41249W        W 2703  17.797  16.276   3.771
41250W        W 2704  14.288  17.733  12.945
41251W        W 2705  38.820  16.698   3.659
41252W        W 2706  14.595  10.203   1.722
41253W        W 2707  10.800  16.139  14.345
41254W        W 2708   9.723  35.958  13.980
41255W        W 2709  44.461  13.732  14.441
41256W        W 2710  17.097  20.530  12.555
41257W        W 2711   3.906   5.309  12.019
41258W        W 2712  14.267  19.709   3.149
41259W        W 2713   9.351  28.436  14.893
41260W        W 2714  19.076   4.334  12.423
41261W        W 2715   3.873  15.671   2.338
41262W        W 2716  37.911  10.366  13.848
41263W        W 2717  13.114  14.637  13.811
41264W        W 2718  31.943  33.505   1.430
41265W        W 2719  11.203  17.254   1.344
41266W        W 2720  27.643  43.957   1.915
41267W        W 2721  33.379  20.034  14.974
41268W        W 2722   4.380  14.231  13.369
41269W        W 2723  17.620   8.239  11.072
41270W        W 2724  40.005  24.151  14.957
41271W        W 2725  39.013   1.443   0.968
41272W        W 2726  34.376  33.086   2.689
41273W        W 2727  36.915   0.922  14.491
41274W        W 2728  36.918  11.187  12.899
41275W        W 2729  34.604  30.604  13.006
41276W        W 2730  20.129   0.253   3.858
41277W        W 2731   9.303   0.810   2.190
41278W        W 2732   8.288  30.442   9.539
41279W        W 2733  15.095  19.672  14.333
41280W        W 2734   3.398  24.679   2.324
41281W        W 2735  16.095  10.831   0.248
41282W        W 2736  16.663   2.759   3.265
41283W        W 2737  27.145  12.854  10.577
41284W        W 2738   4.919   6.260   3.678
41285W        W 2739  19.112  24.539   4.732
41286W        W 2740  25.112  23.633   1.393
41287W        W 2741  28.141  32.545   1.224
41288W        W 2742  31.115   9.869   4.648
41289W        W 2743  28.480  18.166  12.876
41290W        W 2744  26.147  43.950  14.342
41291W        W 2745   2.254  31.062   4.659
41292W        W 2746  19.189  12.767  12.541
41293W        W 2747   3.272  22.731   3.754
41294W        W 2748  15.594  25.199   1.786
41295W        W 2749  29.470  16.732  13.886
41296W        W 2750  26.203  16.568  12.459
41297W        W 2751   5.384  44.944  13.427
41298W        W 2752  20.636   5.852   1.703
41299W        W 2753   1.817  34.909  11.455
41300W        W 2754  29.104   4.763  12.482
41301W        W 2755  32.055  37.581  12.047
41302W        W 2756  33.081   0.460   0.782
41303W        W 2757   3.717  11.778   1.751
41304W        W 2758  36.946  10.722  12.848
41305W        W 2759  24.568  16.615  12.467
41306W        W 2760  21.077  40.400   1.887
41307W        W 2761  39.532  10.733  13.015
41308W        W 2762  17.122  33.892  14.477
41309W        W 2763  12.685  18.768  11.393
41310W        W 2764  18.745  21.138   0.321
41311W        W 2765   6.852  27.037  13.955
41312W        W 2766   9.246  40.936  11.499
41313W        W 2767  25.188  24.633  14.898
41314W        W 2768  18.611  26.497  14.464
41315W        W 2769  29.020  11.372   0.443
41316W        W 2770   9.369  13.240  13.410
41317W        W 2771  15.789   2.887  10.409
41318W        W 2772  22.646   1.443  10.595
41319W        W 2773  14.717  34.905   0.803
41320W        W 2774  40.050  33.560   1.904
41321W        W 2775  13.829  41.862   0.470
41322W        W 2776   2.913  11.161  13.523
41323W        W 2777  10.651   1.840  11.119
41324W        W 2778  30.537  28.552  12.578
41325W        W 2779   1.473  27.535  12.903
41326W        W 2780  11.267  29.536  13.970
41327W        W 2781   0.417  13.154   0.313
41328W        W 2782   0.879  38.889   0.818
41329W        W 2783  32.632  10.150  14.470
41330W        W 2784  38.070  44.338  13.926
41331W        W 2785  34.890  36.906   0.885
41332W        W 2786  32.959  33.585   3.213
41333W        W 2787   8.219  37.902   0.900
41334W        W 2788  21.115  20.614  13.929
41335W        W 2789   5.783  11.372  12.411
41336W        W 2790  18.630  16.278   3.794
41337W        W 2791  36.424  20.112  12.994
41338W        W 2792  35.505  39.458   0.468
41339W        W 2793  23.121  38.062   3.153
41340W        W 2794   6.694   9.810   3.787
41341W        W 2795   6.702  19.065   3.766
41342W        W 2796  30.042  23.728  13.838
41343W        W 2797  11.258  11.187   2.673
41344W        W 2798  44.472  26.206   4.837
41345W        W 2799  13.185   3.828  11.942
41346W        W 2800  31.092  11.774   2.693
41347W        W 2801  13.826   6.303   3.273
41348W        W 2802  16.149  40.849  13.346
41349W        W 2803  42.362  17.611  14.905
41350W        W 2804  11.310   3.899  12.427
41351W        W 2805  40.478  15.185  11.964
41352W        W 2806   5.889  22.574   1.257
41353W        W 2807   2.401  13.700   4.725
41354W        W 2808  19.094  12.726   0.274
41355W        W 2809  19.599  32.597  14.385
41356W        W 2810  21.603  37.993   2.218
41357W        W 2811  25.643  11.715   2.861
41358W        W 2812  44.824  44.999   3.240
41359W        W 2813   0.296  19.643   0.904
41360W        W 2814  25.617  42.890   0.917
41361W        W 2815   0.964  43.272   2.186
41362W        W 2816  30.044   6.194   0.259
41363W        W 2817  44.001  12.687  11.915
41364W        W 2818  19.101  28.578  13.497
41365W        W 2819  33.069  36.911  14.394
41366W        W 2820   8.176  13.233  13.516
41367W        W 2821  29.137  14.725  10.604
41368W        W 2822  25.643   8.206  14.829
41369W        W 2823  14.135  32.437  11.465
41370W        W 2824  35.053  20.693  11.373
41371W        W 2825  33.557  30.921  11.461
41372W        W 2826  10.338  32.130  11.928
41373W        W 2827   5.383   3.248   0.252
41374W        W 2828  26.658  12.301  13.348
41375W        W 2829  24.647  32.626  10.930
41376W        W 2830   5.295   2.376  12.042
41377W        W 2831   7.217  24.493   2.254
41378W        W 2832  40.836  36.894  14.276
41379W        W 2833  24.011  43.769   0.892
41380W        W 2834  35.523  31.975  13.344
41381W        W 2835  32.409  11.629   1.362
41382W        W 2836  21.242  23.141   3.223
41383W        W 2837  25.210  28.084   3.335
41384W        W 2838  27.451  31.086  10.102
41385W        W 2839  38.961  26.048  12.880
41386W        W 2840  40.481  28.994   1.915
41387W        W 2841  10.205  30.968  12.404
41388W        W 2842   2.865   0.975  12.404
41389W        W 2843  40.044  13.813   4.821
41390W        W 2844   2.434  25.194   2.204
41391W        W 2845   9.837  17.618  13.024
41392W        W 2846  32.910  35.080   2.902
41393W        W 2847   2.336  42.987  14.777
41394W        W 2848  33.458  30.924  14.013
41395W        W 2849  17.234   0.418  11.506
41396W        W 2850  34.001  40.862   4.663
41397W        W 2851  30.434  18.244  13.361
41398W        W 2852  27.638   3.430  14.820
41399W        W 2853  30.655   5.920  13.013
41400W        W 2854  33.550  41.864  14.328
41401W        W 2855  23.529  12.254   1.348
41402W        W 2856  39.828  44.983  14.468
41403W        W 2857  12.662  23.558  13.501
41404W        W 2858  29.441  22.690   4.320
41405W        W 2859  44.281   0.913   2.316
41406W        W 2860  30.086   4.356   1.872
41407W        W 2861  17.237  42.032   4.182
41408W        W 2862  19.255   0.834   0.911
41409W        W 2863   5.322  44.446  14.294
41410W        W 2864   2.875  12.665   2.667
41411W        W 2865  14.299  18.244  10.512
41412W        W 2866  29.093  16.758   1.714
41413W        W 2867  41.949  32.021   3.653
41414W        W 2868  39.403   0.348  12.043
41415W        W 2869  33.992  34.095   3.356
41416W        W 2870  33.880   9.762  11.547
41417W        W 2871   4.413   8.715  12.094
41418W        W 2872  28.637  41.826   0.442
41419W        W 2873  40.967   0.978   1.926
41420W        W 2874  28.995  26.033   4.313
41421W        W 2875   7.363  12.840   2.779
41422W        W 2876  26.672  43.970  13.896
41423W        W 2877  29.056  27.566  14.967
41424W        W 2878  27.650  13.264  14.398
41425W        W 2879  32.408  14.268  13.369
41426W        W 2880  11.150  21.655   4.772
41427W        W 2881  15.708  37.884   2.698
41428W        W 2882  37.874  42.410   0.252
41429W        W 2883   2.239  15.719   3.676
41430W        W 2884   2.291  35.950   3.384
41431W        W 2885  20.741  33.079   3.657
41432W        W 2886  33.564  24.681  14.281
41433W        W 2887  21.041  19.053   4.134
41434W        W 2888  20.184  28.112  14.491
41435W        W 2889  36.012  10.664  14.876
41436W        W 2890  44.898  29.926   0.361
41437W        W 2891  23.607  35.579  11.056
41438W        W 2892   9.824  26.160  12.400
41439W        W 2893  15.223   6.885   0.784
41440W        W 2894  36.078  41.894  10.507
41441W        W 2895  30.557  15.767   4.250
41442W        W 2896  22.241  11.239  11.394
41443W        W 2897  12.197   2.296   4.694
41444W        W 2898  42.479  16.181  12.415
41445W        W 2899   2.938  25.689   2.401
41446W        W 2900   0.890  21.181  13.995
41447W        W 2901   1.445  26.532  14.324
41448W        W 2902   8.312  29.525   2.239
41449W        W 2903  28.024  40.436   4.822
41450W        W 2904   7.341  23.645  11.006
41451W        W 2905   0.836  21.611   0.481
41452W        W 2906   6.923  31.623   3.689
41453W        W 2907  42.352  33.489  10.564
41454W        W 2908   7.707  10.739   0.835
41455W        W 2909  40.408  33.449  14.006
41456W        W 2910  40.450  34.920  14.467
41457W        W 2911  30.418  44.952  14.761
41458W        W 2912  31.477  15.592  10.557
41459W        W 2913  44.429  30.537   3.367
41460W        W 2914  38.407  12.352   0.414
41461W        W 2915  18.122   9.826   4.345
41462W        W 2916  40.918   1.766  13.812
41463W        W 2917  31.443   2.464   2.885
41464W        W 2918  31.039  35.910   4.304
41465W        W 2919  26.158  37.020   1.908
41466W        W 2920  14.717  35.096   4.765
41467W        W 2921  39.837  23.029   3.856
41468W        W 2922  42.777  41.806   5.157
41469W        W 2923  17.609  43.874  12.014
41470W        W 2924  17.193  25.658   2.794
41471W        W 2925  24.157   3.259   4.316
41472W        W 2926  30.615  23.630  13.866
41473W        W 2927  30.581  13.162   1.765
41474W        W 2928  44.925  34.416  12.906
41475W        W 2929  29.531  11.199  13.868
41476W        W 2930  17.730  30.939  14.952
41477W        W 2931  28.641  20.757   3.729
41478W        W 2932  32.108  17.701  14.834
41479W        W 2933  13.243  11.351   3.259
41480W        W 2934  31.153  34.967  14.280
41481W        W 2935  16.779   0.777  12.928
41482W        W 2936  33.998  15.705  13.901
41483W        W 2937  44.803  21.214   0.451
41484W        W 2938   5.336   4.255  11.049
41485W        W 2939  41.873  18.723  13.976
41486W        W 2940  32.118  36.057   2.315
41487W        W 2941  42.292  28.068  12.040
41488W        W 2942   4.928  44.341   4.186
41489W        W 2943  25.674  20.235   2.281
41490W        W 2944  17.306  11.666   0.843
41491W        W 2945  24.704  20.204   0.780
41492W        W 2946  13.813   5.857   1.229
41493W        W 2947  32.545   5.814  14.504
41494W        W 2948  27.973  33.472  12.374
41495W        W 2949  12.358   7.716  14.901
41496W        W 2950   2.846  41.807  12.414
41497W        W 2951  26.028  25.550   4.188
41498W        W 2952   6.818  14.740   4.687
41499W        W 2953   1.319  44.489  10.959
41500W        W 2954  24.564  34.932   1.269
41501W        W 2955  36.432   8.257  13.059
41502W        W 2956  24.599  41.336   3.222
41503W        W 2957  22.070   7.817   2.730
41504W        W 2958  39.318  44.469  14.305
41505W        W 2959  20.530  27.575  12.093
41506W        W 2960  42.395  35.883  13.497
41507W        W 2961  33.406  38.341   4.126
41508W        W 2962  40.906  12.303   3.754
41509W        W 2963  33.561  30.506   2.869
41510W        W 2964  24.717  42.965   2.248
41511W        W 2965  10.275  16.284  13.343
41512W        W 2966  41.429   5.901   3.728
41513W        W 2967  13.309  32.071   3.772
41514W        W 2968  33.027  32.561   1.923
41515W        W 2969  44.283  16.169  11.374
41516W        W 2970   5.290  20.561  12.866
41517W        W 2971  32.463   8.851   0.921
41518W        W 2972  12.297   9.782   4.677
41519W        W 2973  43.781  44.341   3.173
41520W        W 2974  33.405  37.402  14.473
41521W        W 2975  34.512  20.195  12.879
41522W        W 2976  38.472  26.078  12.449
41523W        W 2977  38.469  12.696  14.390
41524W        W 2978   8.688  39.934  10.118
41525W        W 2979  13.107  44.494  12.096
41526W        W 2980   1.247  11.732   0.254
41527W        W 2981  27.972  16.280  14.821
41528W        W 2982  39.390  43.841  10.917
41529W        W 2983  19.218   5.830   4.300
41530W        W 2984  39.442  20.638  12.526
41531W        W 2985   8.665  23.166  14.881
41532W        W 2986  20.620  13.635  12.578
41533W        W 2987  32.447  36.520   3.176
41534W        W 2988   8.291   5.426  10.997
41535W        W 2989  39.419   1.864   4.353
41536W        W 2990   6.705  31.067  13.872
41537W        W 2991  35.552  24.572   2.848
41538W        W 2992  36.472   4.920  11.074
41539W        W 2993   6.353  12.258   2.338
41540W        W 2994  34.461  38.358   2.878
41541W        W 2995  17.740   5.242  13.324
41542W        W 2996   1.427  17.649  13.817
41543W        W 2997  38.517  21.042  10.606
41544W        W 2998  31.104   6.809  11.034
41545W        W 2999  10.826  19.200  14.029
41546W        W 3000  35.491  31.635   2.669
41547W        W 3001  26.952  38.988  10.925
41548W        W 3002  38.325  24.720  14.978
41549W        W 3003  17.231  11.789  14.484
41550W        W 3004  10.351  35.888  14.393
41551W        W 3005  41.846  28.659  12.446
41552W        W 3006   6.289   0.801  10.907
41553W        W 3007  34.066  32.092  11.523
41554W        W 3008   9.376  21.208  13.521
41555W        W 3009  42.865  33.960   3.343
41556W        W 3010  14.174   9.234   1.281
41557W        W 3011  19.772   4.444   2.361
41558W        W 3012  14.639  23.607   4.187
41559W        W 3013  18.691  37.856  11.066
41560W        W 3014  42.993   1.909   0.430
41561W        W 3015  34.889  30.560   0.470
41562W        W 3016   9.711   7.825   1.871
41563W        W 3017  30.096  20.048  12.417
41564W        W 3018  41.038  43.280   4.720
41565W        W 3019  27.136  19.193   2.342
41566W        W 3020  29.102  24.532   1.723
41567W        W 3021  11.750  36.085  12.459
41568W        W 3022  30.081  16.254  11.876
41569W        W 3023  42.435  32.902   4.262
41570W        W 3024   4.433  43.431   1.783
41571W        W 3025  18.212  16.733   4.669
41572W        W 3026  19.764  39.861  10.929
41573W        W 3027  30.071   5.395   3.195
41574W        W 3028   3.421   3.325  12.035
41575W        W 3029  23.502  41.898   2.242
41576W        W 3030  42.926  25.611   4.837
41577W        W 3031   7.867  11.692   4.198
41578W        W 3032  16.606  12.185   3.360
41579W        W 3033  15.705   9.282   3.859
41580W        W 3034  24.156  43.456   1.315
41581W        W 3035  27.997   2.354  12.508
41582W        W 3036   6.807   3.933   3.762
41583W        W 3037  10.236  40.811  13.997
41584W        W 3038   7.235  40.449   1.857
41585W        W 3039  31.052   7.870   4.791
41586W        W 3040  35.501  41.043  14.494
41587W        W 3041  16.237  10.144   5.674
41588W        W 3042  18.559  37.405   3.803
41589W        W 3043  11.353   5.746  12.935
41590W        W 3044  12.736   5.912   0.398
41591W        W 3045  35.532  39.423   3.729
41592W        W 3046  43.796  38.025  10.560
41593W        W 3047  29.031  43.920   0.730
41594W        W 3048  34.520  38.888   4.693
41595W        W 3049   7.199  44.882   3.200
41596W        W 3050   8.290  23.014  10.636
41597W        W 3051   1.938  31.619   1.332
41598W        W 3052  20.190  43.333  11.074
41599W        W 3053  12.629  35.371   3.640
41600W        W 3054  32.913  41.853  11.116
41601W        W 3055  37.013   8.368   0.475
41602W        W 3056  37.533  11.280  10.036
41603W        W 3057  41.395   3.350   1.379
41604W        W 3058  40.817  24.032  14.971
41605W        W 3059  38.403  13.300  13.473
41606W        W 3060  24.155  17.641  12.095
41607W        W 3061  39.967  26.565  11.980
41608W        W 3062   0.772  39.903  13.494
41609W        W 3063  26.579   0.421  11.092
41610W        W 3064  10.743  40.821   1.780
41611W        W 3065   0.887  41.419   1.294
41612W        W 3066  29.018  14.777  10.003
41613W        W 3067  42.998  40.893  11.873
41614W        W 3068   0.821  22.142   0.474
41615W        W 3069  27.993  13.642   4.789
41616W        W 3070  21.608  33.427  10.117
41617W        W 3071  14.642  38.501  11.953
41618W        W 3072  36.507   1.784   1.743
41619W        W 3073   6.356   0.972   3.172
41620W        W 3074   0.420  36.466  12.516
41621W        W 3075  23.567   7.246   0.354
41622W        W 3076   3.416  35.972   4.177
41623W        W 3077  18.189  30.158  14.424
41624W        W 3078  28.106  42.371   3.790
41625W        W 3079  38.972  24.632  11.470
41626W        W 3080  44.375  21.105   5.165
41627W        W 3081  19.123  34.980  11.119
41628W        W 3082  28.562  21.723   2.805
41629W        W 3083  32.936  36.062   0.965
41630W        W 3084  26.465  13.271  14.768
41631W        W 3085  21.068  16.692  13.498
41632W        W 3086  31.436  31.041  11.600
41633W        W 3087   9.645  28.032  13.860
41634W        W 3088  29.084  17.582   2.385
41635W        W 3089  11.258  36.846   0.423
41636W        W 3090  33.475   6.286  11.450
41637W        W 3091   3.756  41.343  14.480
41638W        W 3092  13.130  27.180   2.178
41639W        W 3093   6.296  38.379  11.871
41640W        W 3094  18.734  10.760   0.319
41641W        W 3095  13.105   0.854   3.819
41642W        W 3096  32.955  11.266   2.846
41643W        W 3097  12.686  30.025  10.891
41644W        W 3098  33.447   6.286   1.900
41645W        W 3099  36.934   1.916  10.568
41646W        W 3100  17.107  35.384   1.291
41647W        W 3101  43.470  27.072   0.916
41648W        W 3102  26.092   7.412   3.676
41649W        W 3103  31.913  35.534   3.181
41650W        W 3104   1.875  31.484  14.450
41651W        W 3105  35.546  18.721   0.887
41652W        W 3106   6.912   9.819   0.754
41653W        W 3107  21.709  29.550   0.863
41654W        W 3108   3.832  28.185   2.699
41655W        W 3109  12.844  39.958  12.978
41656W        W 3110  17.130  40.038  11.016
41657W        W 3111  40.492  25.690   2.330
41658W        W 3112   6.743  22.008   4.196
41659W        W 3113   8.757  42.006   4.678
41660W        W 3114  41.391  42.435   2.791
41661W        W 3115   6.340  30.461  11.571
41662W        W 3116   0.923  31.494   1.356
41663W        W 3117   1.263  42.960   0.291
41664W        W 3118  40.484  23.696   1.403
41665W        W 3119  11.291  16.615  10.565
41666W        W 3120  43.359  21.222  10.423
41667W        W 3121  37.552   3.912  10.437
41668W        W 3122  33.385  19.108  11.548
41669W        W 3123   5.791  34.386   2.248
41670W        W 3124  15.792  14.157   3.367
41671W        W 3125  36.468  10.321  12.874
41672W        W 3126  12.839  10.811  12.509
41673W        W 3127  39.329  29.654   0.935
41674W        W 3128  24.671  43.963   3.263
41675W        W 3129  40.519  37.559   0.884
41676W        W 3130  27.572  17.224  13.941
41677W        W 3131   2.800  19.230   3.780
41678W        W 3132  42.010  18.083   4.766
41679W        W 3133   9.673  16.226   0.949
41680W        W 3134  10.189  40.037   4.722
41681W        W 3135  11.172  32.006  12.537
41682W        W 3136   4.702   2.450   3.352
41683W        W 3137  44.290  14.626   4.834
41684W        W 3138   8.175  18.221  13.997
41685W        W 3139  10.814  34.384  12.551
41686W        W 3140   3.854   7.325  11.945
41687W        W 3141  29.562   3.901   3.754
41688W        W 3142  37.433   3.847   1.749
41689W        W 3143  26.148  35.893  13.865
41690W        W 3144  41.000  23.638  13.971
41691W        W 3145  37.504  40.313   2.194
41692W        W 3146  33.915  44.279   4.174
41693W        W 3147  38.869  24.575   1.340
41694W        W 3148  13.315   7.374   2.348
41695W        W 3149   8.361   5.716   1.301
41696W        W 3150   0.416   2.355  14.869
41697W        W 3151  36.924  31.937   3.730
41698W        W 3152  16.604  38.361  12.503
41699W        W 3153  16.100  42.827   2.366
41700W        W 3154  24.216  43.304   3.222
41701W        W 3155   9.781  43.288  14.774
41702W        W 3156   2.852  23.733   0.464
41703W        W 3157   3.812  32.025   1.344
41704W        W 3158  18.216   2.828   0.747
41705W        W 3159   8.862  41.345  10.953
41706W        W 3160   6.702  33.896   2.373
41707W        W 3161  37.972  24.615  13.009
41708W        W 3162   1.274   4.923   4.155
41709W        W 3163  13.206  29.606   2.401
41710W        W 3164  15.102  14.335   2.705
41711W        W 3165  25.669   8.178   4.170
41712W        W 3166  10.784  10.661  10.950
41713W        W 3167  33.502  16.187   1.856
41714W        W 3168  32.073  15.107   2.340
41715W        W 3169  10.311  20.233   0.747
41716W        W 3170   2.901   3.883  11.054
41717W        W 3171  37.914  41.887  11.991
41718W        W 3172  35.487  20.218   3.811
41719W        W 3173  33.902  14.715   3.726
41720W        W 3174  22.718  41.956   1.368
41721W        W 3175  36.030  38.974  14.812
41722W        W 3176  31.460  10.344   4.283
41723W        W 3177  21.089  12.312  12.400
41724W        W 3178  25.478  40.029  11.419
41725W        W 3179  25.641  36.078   1.919
41726W        W 3180   8.671  18.218   4.698
41727W        W 3181  38.364   5.401   2.856
41728W        W 3182  24.693  24.118  13.044
41729W        W 3183  35.999  20.767   3.724
41730W        W 3184  44.005  26.626  10.982
41731W        W 3185  30.656  41.911   2.195
41732W        W 3186   1.429  23.732  12.049
41733W        W 3187  18.247  21.743   1.760
41734W        W 3188  17.186  35.042   1.800
41735W        W 3189  37.953  22.575  11.480
41736W        W 3190  41.808  19.202  14.286
41737W        W 3191   3.795   2.811  13.463
41738W        W 3192  19.262  37.980  12.965
41739W        W 3193  34.030   0.914  11.994
41740W        W 3194  40.898  18.694   0.854
41741W        W 3195   7.283   7.183  11.965
41742W        W 3196   0.866  12.738  12.410
41743W        W 3197  39.505   3.915  11.942
41744W        W 3198  36.092  44.004   1.747
41745W        W 3199   2.878  20.268  13.387
41746W        W 3200  35.387  39.500  10.481
41747W        W 3201  39.528  42.294   4.664
41748W        W 3202  44.981  27.573  11.510
41749W        W 3203  36.917  40.501   2.349
41750W        W 3204  44.005  32.468  14.282
41751W        W 3205  18.656  13.653  13.526
41752W        W 3206   9.311  22.599   9.927
41753W        W 3207  20.752   7.912   2.825
41754W        W 3208   2.233   7.391  14.332
41755W        W 3209  39.516  34.054   0.732
41756W        W 3210   9.288   2.908   3.761
41757W        W 3211  39.387  41.954  14.318
41758W        W 3212  40.402  37.412   3.232
41759W        W 3213   0.419  21.195   0.277
41760W        W 3214  42.027  12.662   0.245
41761W        W 3215  12.776   3.750  14.804
41762W        W 3216  24.602  34.400  12.461
41763W        W 3217  25.162  21.026   4.159
41764W        W 3218  36.371  12.789   4.652
41765W        W 3219  26.634  10.788   1.917
41766W        W 3220  42.518  42.023   3.659
41767W        W 3221  26.569  10.244   4.798
41768W        W 3222  27.985  38.396   3.380
41769W        W 3223  40.915   3.874   2.273
41770W        W 3224  24.615  41.318   1.389
41771W        W 3225  11.221   9.237   4.699
41772W        W 3226   2.857  44.770  14.897
41773W        W 3227  36.438   8.183  13.459
41774W        W 3228  17.621  12.685   1.797
41775W        W 3229  17.635  21.101  12.361
41776W        W 3230  20.752  42.475   4.267
41777W        W 3231  13.744  27.085   1.215
41778W        W 3232  28.569  24.599  11.120
41779W        W 3233   1.373  39.945  11.053
41780W        W 3234  15.621  31.999  10.039
41781W        W 3235  36.556  21.578   4.673
41782W        W 3236  43.329  35.925   0.449
41783W        W 3237  10.665   7.226   2.892
41784W        W 3238   8.666  21.070   4.836
41785W        W 3239  38.497  28.057  10.966
41786W        W 3240  13.813   1.428  10.920
41787W        W 3241  25.088  43.958   0.272
41788W        W 3242  26.571  37.459  13.344
41789W        W 3243  26.175  32.480   1.788
41790W        W 3244  22.684  36.536   0.755
41791W        W 3245  43.277  10.855  14.796
41792W        W 3246   3.227  40.307  12.899
41793W        W 3247  15.580  18.736  11.862
41794W        W 3248   9.318  15.754   2.247
41795W        W 3249  12.261  23.996  14.916
41796W        W 3250  29.475  19.273  14.779
41797W        W 3251  17.625  17.223   4.214
41798W        W 3252  18.666  26.202  13.042
41799W        W 3253  35.561   9.170   3.370
41800W        W 3254  43.353  16.682   1.712
41801W        W 3255  31.907  24.514   4.740
41802W        W 3256  22.522  44.826  12.377
41803W        W 3257   8.823  32.545  11.999
41804W        W 3258  39.432  15.664   1.396
41805W        W 3259  40.360  14.208   2.296
41806W        W 3260  10.825  22.616   0.246
41807W        W 3261  43.871   3.234   1.733
41808W        W 3262  17.198  36.914   2.815
41809W        W 3263  16.281   3.750   3.357
41810W        W 3264   7.737   6.867  14.515
41811W        W 3265  36.517   8.394  10.425
41812W        W 3266  20.200   2.468  11.126
41813W        W 3267  42.484   5.794  11.020
41814W        W 3268  28.956   8.744   2.278
41815W        W 3269  10.290   9.386  11.495
41816W        W 3270  30.141  32.975   3.150
41817W        W 3271  39.429   5.766   1.350
41818W        W 3272  14.684  22.208   0.396
41819W        W 3273  35.105  16.295   1.719
41820W        W 3274   9.365  11.749   3.159
41821W        W 3275  27.544  37.950  13.859
41822W        W 3276  38.332   8.855   2.182
41823W        W 3277  23.025  31.454  13.032
41824W        W 3278   1.313  43.315  14.848
41825W        W 3279   1.852  14.171  11.548
41826W        W 3280  29.457  30.083   4.216
41827W        W 3281   7.739   6.255   4.191
41828W        W 3282  38.510  25.608   2.787
41829W        W 3283   1.848  16.137   3.199
41830W        W 3284  41.522  38.038   1.773
41831W        W 3285  43.824  20.212  14.926
41832W        W 3286  36.011  38.488   1.255
41833W        W 3287  24.643  34.004   2.709
41834W        W 3288  43.952  35.959  10.502
41835W        W 3289  16.679  13.214   0.935
41836W        W 3290   3.933  39.039  10.087
41837W        W 3291  33.070  39.894   2.839
41838W        W 3292   1.856  38.962  10.614
41839W        W 3293  32.961  23.542   4.202
41840W        W 3294   9.172  43.959  12.384
41841W        W 3295  20.707  42.447  10.616
41842W        W 3296   6.830  27.065   3.636
41843W        W 3297  30.907  28.952  13.975
41844W        W 3298  10.336  22.116  11.071
41845W        W 3299  20.654  20.658   3.178
41846W        W 3300   0.818  12.677   5.088
41847W        W 3301  28.450  13.295  13.367
41848W        W 3302   9.857   2.308   0.401
41849W        W 3303  28.671  23.117   2.803
41850W        W 3304  36.058  13.254   1.388
41851W        W 3305  21.020  19.583   1.445
41852W        W 3306  12.354   4.753  13.521
41853W        W 3307  31.426  24.693   1.903
41854W        W 3308   0.744  12.727   4.712
41855W        W 3309   4.731  39.979  11.404
41856W        W 3310  27.479  10.779   4.245
41857W        W 3311  42.445  17.558   3.310
41858W        W 3312  42.822  44.360   5.279
41859W        W 3313   0.361  22.503  14.775
41860W        W 3314  42.340  39.452  11.585
41861W        W 3315  41.858  44.375   3.781
41862W        W 3316  28.954  19.218   2.899
41863W        W 3317  28.123  11.667   5.264
41864W        W 3318  13.825  44.909  11.918
41865W        W 3319   8.406  23.704   4.308
41866W        W 3320  41.812  23.631  12.065
41867W        W 3321   4.312  23.095  13.309
41868W        W 3322   3.361  22.040  11.974
41869W        W 3323   8.230   0.980  14.937
41870W        W 3324  29.491  37.976  13.997
41871W        W 3325  26.657  27.450  13.794
41872W        W 3326  26.496  20.660  13.985
41873W        W 3327  38.393  27.080   3.266
41874W        W 3328   8.832  41.827   0.297
41875W        W 3329   4.737  29.664  11.381
41876W        W 3330  21.157  16.786  14.909
41877W        W 3331  29.646  21.666   2.303
41878W        W 3332  28.605   5.705  13.359
41879W        W 3333  16.148  22.518   1.717
41880W        W 3334  44.929  27.029   1.227
41881W        W 3335  37.079  37.842   4.601
41882W        W 3336  33.946  35.466   2.680
41883W        W 3337  23.510  40.799  10.409
41884W        W 3338  14.193  32.959  13.431
41885W        W 3339  38.332   3.805  12.019
41886W        W 3340  15.325  27.183   4.612
41887W        W 3341  12.291  21.028  11.115
41888W        W 3342  11.223  25.563   0.350
41889W        W 3343  36.550  21.664   3.726
41890W        W 3344   5.359  22.175   1.801
41891W        W 3345   6.257  37.048   2.853
41892W        W 3346  12.319   3.741  14.022
41893W        W 3347   2.779  16.275   1.302
41894W        W 3348  30.636  27.559  10.410
41895W        W 3349  19.260   4.861   2.317
41896W        W 3350  25.665  37.905   2.231
41897W        W 3351  20.690  44.289  12.370
41898W        W 3352   9.240  10.780  11.987
41899W        W 3353  28.492   8.725  14.955
41900W        W 3354   3.283  22.028   4.306
41901W        W 3355   9.710   4.747   0.850
41902W        W 3356  42.437  39.552   0.838
41903W        W 3357   7.253  36.905   4.705
41904W        W 3358   8.884  11.373  10.996
41905W        W 3359  27.052  40.034   0.879
41906W        W 3360  36.467  10.273   4.831
41907W        W 3361  19.746  27.668  10.458
41908W        W 3362  12.252   3.275  12.351
41909W        W 3363  22.727  30.967   0.304
41910W        W 3364  14.624  28.942  14.346
41911W        W 3365  21.657   0.392   2.808
41912W        W 3366  44.325  14.673  12.563
41913W        W 3367  37.548  36.930  14.512
41914W        W 3368   3.752   2.932   2.309
41915W        W 3369  26.462  26.074  11.917
41916W        W 3370  39.509  16.211   3.763
41917W        W 3371   8.163  33.898   0.419
41918W        W 3372  24.015  34.392   4.830
41919W        W 3373  11.209  14.790  12.034
41920W        W 3374  38.024  42.300   2.816
41921W        W 3375   2.953  24.512   4.208
41922W        W 3376   6.362  12.133   0.730
41923W        W 3377   9.807  24.532   1.915
41924W        W 3378   9.879   3.325  12.045
41925W        W 3379  29.460  34.397   9.978
41926W        W 3380   2.379   6.343   2.740
41927W        W 3381  37.349  33.903  11.052
41928W        W 3382  20.166   4.826   3.772
41929W        W 3383  28.562  33.101   2.746
41930W        W 3384   3.402  39.385  14.883
41931W        W 3385  20.211   5.209   0.314
41932W        W 3386   7.369   2.758  14.022
41933W        W 3387  39.019  19.636   2.799
41934W        W 3388  24.608  42.429  10.934
41935W        W 3389  34.611  13.788   4.660
41936W        W 3390  33.479  33.517   2.850
41937W        W 3391   4.921   3.371  12.025
41938W        W 3392   6.734  42.994  11.119
41939W        W 3393   3.927   0.299   4.171
41940W        W 3394  21.158   7.781   0.881
41941W        W 3395  39.994  18.294  11.585
41942W        W 3396   6.388   5.387  10.926
41943W        W 3397  10.280  36.528   0.328
41944W        W 3398  30.596  27.988  13.905
41945W        W 3399  15.630   4.699   0.851
41946W        W 3400  35.976  43.494  10.606
41947W        W 3401   4.762  17.147  13.021
41948W        W 3402  32.601  10.174   3.255
41949W        W 3403  44.340  34.871  11.008
41950W        W 3404  32.091  14.706   1.432
41951W        W 3405  10.801  17.182  14.767
41952W        W 3406  14.755   8.298   0.308
41953W        W 3407   1.732   2.909   3.667
41954W        W 3408  34.080  20.221  10.548
41955W        W 3409  36.414   4.213  14.494
41956W        W 3410  28.620  10.287   0.917
41957W        W 3411   9.850  29.056  14.314
41958W        W 3412  15.157   2.290   1.898
41959W        W 3413  31.007  18.103  12.353
41960W        W 3414  36.366  23.630   1.752
41961W        W 3415  31.127   2.402  11.029
41962W        W 3416  41.898   3.259  10.157
41963W        W 3417  26.165  34.530  14.836
41964W        W 3418   0.882  21.119   5.266
41965W        W 3419   9.814  27.034  11.950
41966W        W 3420  27.534  37.023  11.416
41967W        W 3421  41.880  21.246  10.622
41968W        W 3422  33.544   8.769  14.425
41969W        W 3423   3.772  16.585  12.362
41970W        W 3424  18.739   4.265  12.368
41971W        W 3425  38.065  15.163  11.384
41972W        W 3426  43.455  44.886  12.035
41973W        W 3427   4.267  31.551  12.542
41974W        W 3428   8.265  14.591  13.046
41975W        W 3429  42.467  32.120  11.024
41976W        W 3430  41.310  12.222   4.145
41977W        W 3431  11.753  18.544  13.917
41978W        W 3432   6.744  28.535   4.274
41979W        W 3433  18.623  11.653  10.112
41980W        W 3434  29.921  16.259  14.338
41981W        W 3435  12.810  38.537   1.921
41982W        W 3436   7.727  27.090  14.498
41983W        W 3437  36.901  41.510   2.220
41984W        W 3438  30.991  31.006  10.499
41985W        W 3439  29.052   5.798   2.181
41986W        W 3440   5.797  35.078   4.598
41987W        W 3441   4.921  29.166  11.396
41988W        W 3442  39.499  24.099   3.729
41989W        W 3443  39.038  39.935  11.569
41990W        W 3444  20.655   6.350   2.844
41991W        W 3445   9.880  33.094  12.564
41992W        W 3446  42.000  23.630   1.431
41993W        W 3447  17.070   5.862  12.864
41994W        W 3448   3.919  39.456   4.164
41995W        W 3449   3.849   0.878  14.466
41996W        W 3450  37.582   0.923  10.516
41997W        W 3451  39.464   3.389   0.735
41998W        W 3452  35.928  26.641   4.277
41999W        W 3453   7.269  29.975  14.862
42000W        W 3454  16.636   1.475  11.600
42001W        W 3455  41.932  26.518  11.548
42002W        W 3456  20.738   6.211  10.604
42003W        W 3457  43.439  19.162  13.445
42004W        W 3458  43.383   2.385  13.450
42005W        W 3459  39.932   3.744  12.374
42006W        W 3460  15.737  28.130  10.921
42007W        W 3461  34.480  42.796  14.371
42008W        W 3462  42.394  44.339  11.461
42009W        W 3463  35.928  28.474  14.926
42010W        W 3464  14.317  14.220  11.569
42011W        W 3465   0.420  12.633  11.574
42012W        W 3466  29.433  44.988  13.467
42013W        W 3467   3.863  37.873   1.869
42014W        W 3468  39.057  21.734  12.847
42015W        W 3469   8.835  11.784   4.618
42016W        W 3470   3.942  34.018  10.424
42017W        W 3471  11.228   2.304  14.452
42018W        W 3472  29.658  25.693   1.266
42019W        W 3473  10.676  18.160  10.615
42020W        W 3474  23.995  14.634  12.071
42021W        W 3475  17.074  29.656   5.180
42022W        W 3476  19.699  33.397  11.453
42023W        W 3477  18.134  17.726   1.221
42024W        W 3478  30.089  30.065  13.484
42025W        W 3479  31.635  40.398  13.949
42026W        W 3480  32.114  15.609   0.831
42027W        W 3481  30.146   5.359   4.701
42028W        W 3482  22.097  19.572  12.942
42029W        W 3483  11.731   2.365   3.751
42030W        W 3484  35.067  36.844  14.852
42031W        W 3485  43.490  44.951   0.940
42032W        W 3486  38.483  22.067  11.394
42033W        W 3487   2.391  23.096  12.022
42034W        W 3488  29.590  22.543   3.164
42035W        W 3489  34.937   6.399   0.745
42036W        W 3490   7.177  16.639   4.640
42037W        W 3491  35.956  24.984   4.270
42038W        W 3492  34.870  13.181  12.572
42039W        W 3493  35.587  16.115   2.679
42040W        W 3494  13.621   7.752  11.378
42041W        W 3495  43.479   1.873   1.357
42042W        W 3496   8.324  12.834  14.787
42043W        W 3497  44.505  26.166   1.443
42044W        W 3498   7.327  36.480   4.624
42045W        W 3499  14.250   9.687   2.392
42046W        W 3500  44.825  32.622   1.803
42047W        W 3501  29.116  14.138  11.398
42048W        W 3502  32.940  26.507   3.322
42049W        W 3503  42.783  13.740  14.335
42050W        W 3504  32.614  12.116  12.547
42051W        W 3505  23.581  42.511  12.363
42052W        W 3506   8.767   9.748   4.709
42053W        W 3507  41.005  10.348  12.908
42054W        W 3508  33.570  38.015  10.523
42055W        W 3509  25.168  18.273  14.287
42056W        W 3510  27.589  10.698  10.430
42057W        W 3511  16.236   6.801   3.833
42058W        W 3512  14.723  22.708   3.358
42059W        W 3513  31.402  41.010   2.797
42060W        W 3514  35.942  24.178   4.272
42061W        W 3515   9.671  28.100   2.861
42062W        W 3516   5.326  11.144   1.824
42063W        W 3517  23.512  20.601   3.845
42064W        W 3518   4.426  34.540  13.963
42065W        W 3519  28.589  36.482   5.293
42066W        W 3520  35.921  44.495   3.315
42067W        W 3521  16.072  43.327  11.405
42068W        W 3522  28.523  26.671  10.924
42069W        W 3523  30.931  11.708  12.556
42070W        W 3524  17.070   2.289  11.950
42071W        W 3525  13.296  26.515  10.494
42072W        W 3526  40.054  13.107   2.694
42073W        W 3527  19.071  20.560   1.252
42074W        W 3528  19.111   4.789   3.832
42075W        W 3529  27.460  38.868   4.695
42076W        W 3530  28.977  27.963   1.236
42077W        W 3531  38.567  36.031   0.912
42078W        W 3532  20.146  25.211   3.262
42079W        W 3533  11.824   3.437  12.092
42080W        W 3534  35.432  37.353  10.589
42081W        W 3535  33.489  36.547   3.669
42082W        W 3536   8.720  34.043  13.357
42083W        W 3537  31.078  21.144  10.975
42084W        W 3538  11.853   3.337  12.841
42085W        W 3539  24.076  15.583   4.348
42086W        W 3540   3.291  22.661   2.718
42087W        W 3541   9.163  36.364   4.195
42088W        W 3542  26.073  40.526  11.918
42089W        W 3543   4.846  20.194  14.793
42090W        W 3544  36.864  23.234   2.247
42091W        W 3545  11.778  20.028  13.957
42092W        W 3546  31.057   5.389   1.230
42093W        W 3547  13.621  10.370  12.406
42094W        W 3548  19.112   2.870   1.922
42095W        W 3549  17.747  33.131   3.153
42096W        W 3550  25.060  41.817  13.493
42097W        W 3551  17.746  30.046   2.812
42098W        W 3552  35.039  22.538  10.429
42099W        W 3553  18.133   2.965  14.461
42100W        W 3554  29.986   5.858  13.932
42101W        W 3555  41.522   4.437  10.405
42102W        W 3556  15.158  14.747  12.881
42103W        W 3557  25.020  25.992   3.250
42104W        W 3558   6.277  35.536  13.430
42105W        W 3559  37.578  27.482   4.274
42106W        W 3560  28.951  21.552  14.498
42107W        W 3561   5.241  44.442  13.851
42108W        W 3562  24.975  24.491   3.190
42109W        W 3563   6.745  17.283  11.932
42110W        W 3564  40.407  28.473  12.381
42111W        W 3565  26.638   5.887   0.351
42112W        W 3566  41.837  18.234   3.818
42113W        W 3567  18.691  11.357  10.535
42114W        W 3568  27.135  24.723  12.918
42115W        W 3569  35.531  37.356   2.354
42116W        W 3570  36.479  24.530  11.985
42117W        W 3571  42.355  17.736  10.532
42118W        W 3572   0.315  13.142  13.463
42119W        W 3573   8.858  29.124   5.297
42120W        W 3574  24.711  12.161  13.999
42121W        W 3575  37.955  44.915   0.904
42122W        W 3576   8.374   7.283   2.268
42123W        W 3577  28.972  11.798  14.853
42124W        W 3578   1.460  35.947  14.308
42125W        W 3579  16.680  44.786  10.528
42126W        W 3580  28.549  42.883   3.693
42127W        W 3581   6.216   8.166  14.859
42128W        W 3582  35.398   6.306   2.212
42129W        W 3583  36.089   8.755  10.545
42130W        W 3584   7.668  25.095  12.915
42131W        W 3585  41.966  16.623   4.650
42132W        W 3586   2.285  29.622   4.615
42133W        W 3587   0.809  32.978   1.883
42134W        W 3588  20.620  43.805   3.268
42135W        W 3589  10.368  28.663   3.332
42136W        W 3590  26.035   1.372  10.926
42137W        W 3591  30.115   6.827   0.793
42138W        W 3592  39.935  33.961   1.229
42139W        W 3593   6.386  14.210  11.911
42140W        W 3594  43.954   6.790   2.375
42141W        W 3595   1.789  36.554  11.482
42142W        W 3596   0.316  41.479  12.518
42143W        W 3597  34.967  38.532   2.867
42144W        W 3598  22.045  21.585   1.235
42145W        W 3599  16.074  40.430   1.386
42146W        W 3600  21.056   1.479  10.404
42147W        W 3601  33.521  10.691   1.396
42148W        W 3602   7.718  36.096  12.491
42149W        W 3603   8.242  10.693   0.834
42150W        W 3604  10.834  10.255  11.538
42151W        W 3605   3.873   4.319  14.462
42152W        W 3606  23.154  14.098   0.255
42153W        W 3607  21.219  41.491   4.151
42154W        W 3608  18.130  23.088  12.406
42155W        W 3609  23.549  10.353  10.941
42156W        W 3610  37.899   8.871   4.176
42157W        W 3611   2.917  25.128   1.319
42158W        W 3612  17.743   0.465   2.185
42159W        W 3613  42.908  20.091  12.824
42160W        W 3614  21.184   5.725   0.771
42161W        W 3615  33.437   0.914   0.431
42162W        W 3616   8.883  29.961  11.026
42163W        W 3617  31.141  13.204  10.998
42164W        W 3618  41.366   1.798   0.285
42165W        W 3619  32.609  18.579   0.959
42166W        W 3620  31.024  41.924  13.895
42167W        W 3621  29.016  26.693  12.912
42168W        W 3622  27.579   8.788   1.895
42169W        W 3623   6.819   8.372  12.059
42170W        W 3624  19.128  30.621   2.853
42171W        W 3625  20.743  34.044   0.881
42172W        W 3626  24.102  20.144  14.428
42173W        W 3627  19.050  12.192   4.796
42174W        W 3628  19.567   2.430  11.421
42175W        W 3629  21.125   9.288  13.316
42176W        W 3630   3.803  28.450   2.233
42177W        W 3631  16.202  29.994   1.705
42178W        W 3632  36.031   8.392   2.251
42179W        W 3633  14.816  24.510   3.293
42180W        W 3634  34.113  20.742   3.841
42181W        W 3635   7.407  23.565  14.793
42182W        W 3636  39.384  39.349  12.515
42183W        W 3637  37.085  28.568   1.259
42184W        W 3638   0.484  13.235  14.972
42185W        W 3639  41.894  22.591  10.012
42186W        W 3640   2.451  43.907   3.325
42187W        W 3641  15.644  19.732   2.712
42188W        W 3642  34.064   8.796   1.791
42189W        W 3643   6.239  17.119  13.430
42190W        W 3644  12.817  27.072  11.504
42191W        W 3645  20.114   4.859  12.044
42192W        W 3646  32.430  36.899   4.697
42193W        W 3647  29.588  27.194  11.448
42194W        W 3648  37.857  44.298   3.793
42195W        W 3649  39.359  29.145  14.900
42196W        W 3650  11.158  19.550   0.784
42197W        W 3651  40.347  22.688   3.705
42198W        W 3652   4.806  17.208   3.740
42199W        W 3653  11.802  31.410   2.867
42200W        W 3654  23.197  38.865  14.766
42201W        W 3655  34.508   0.348   3.233
42202W        W 3656  35.977   5.769   4.272
42203W        W 3657  42.025   6.317   3.778
42204W        W 3658   3.295  18.596   1.696
42205W        W 3659   6.233  31.128   3.280
42206W        W 3660   8.847   4.770  13.458
42207W        W 3661   1.774  13.217  13.450
42208W        W 3662  25.108  31.089   2.739
42209W        W 3663  35.891  12.815   4.781
42210W        W 3664  42.790  40.401   2.714
42211W        W 3665  38.466  38.471  10.430
42212W        W 3666  40.034   4.275   4.341
42213W        W 3667  26.533  43.424  10.413
42214W        W 3668  28.942   0.354  13.319
42215W        W 3669  26.643   8.183  13.519
42216W        W 3670  44.860   0.849  14.283
42217W        W 3671   9.686  21.751   4.736
42218W        W 3672   2.436  22.634   0.342
42219W        W 3673  38.990  17.616  10.470
42220W        W 3674  38.521  15.122   2.248
42221W        W 3675  36.358  31.635  11.868
42222W        W 3676  27.119  37.043   4.793
42223W        W 3677   4.811   3.818   4.154
42224W        W 3678  27.111  22.676   2.182
42225W        W 3679  19.674  15.683   3.677
42226W        W 3680   4.795  11.271   1.368
42227W        W 3681   1.733   0.805   2.828
42228W        W 3682  31.557   0.925   1.903
42229W        W 3683  28.161   7.260  11.442
42230W        W 3684  25.566  13.613  13.311
42231W        W 3685   8.382  20.109  11.047
42232W        W 3686  19.754  39.470   1.761
42233W        W 3687   6.297  31.031  10.595
42234W        W 3688  22.072  10.784   3.199
42235W        W 3689   7.781   1.841   3.838
42236W        W 3690   9.319   4.891  13.541
42237W        W 3691   7.829  44.404  12.978
42238W        W 3692  17.201   0.789  11.493
42239W        W 3693  29.547  10.789  11.475
42240W        W 3694   9.154  18.640   2.846
42241W        W 3695  17.258  22.152  12.862
42242W        W 3696   6.423  42.353   0.921
42243W        W 3697  11.212  32.513   5.265
42244W        W 3698  22.029  30.950  12.580
42245W        W 3699  13.137  22.532  13.988
42246W        W 3700  29.498   5.710  14.000
42247W        W 3701  11.664  28.992  11.072
42248W        W 3702  35.419  25.030   1.849
42249W        W 3703  15.671  15.650  11.492
42250W        W 3704  32.600  26.600   3.686
42251W        W 3705  28.031   3.804  10.494
42252W        W 3706  30.938  41.526   1.309
42253W        W 3707  23.613  42.419   0.322
42254W        W 3708  12.652   0.255   1.328
42255W        W 3709  26.494   5.306  12.829
42256W        W 3710  30.118  25.613  11.972
42257W        W 3711  42.907  21.715   4.267
42258W        W 3712  23.215  29.573  13.929
42259W        W 3713  44.960  34.563  11.588
42260W        W 3714  30.452   8.250   0.381
42261W        W 3715   5.844  14.137   3.814
42262W        W 3716  19.223   6.731   4.663
42263W        W 3717  12.314   9.812   1.409
42264W        W 3718  11.366  25.207   1.902
42265W        W 3719  16.763  40.875  12.021
42266W        W 3720  17.136  32.423  14.478
42267W        W 3721  21.685  37.924   2.853
42268W        W 3722  18.618   4.746  12.927
42269W        W 3723  11.359   9.309   0.261
42270W        W 3724  27.050  38.533  12.446
42271W        W 3725  17.291   4.348   3.682
42272W        W 3726  17.067  10.202   1.227
42273W        W 3727  40.990  35.471   0.803
42274W        W 3728  11.315  21.234   3.245
42275W        W 3729  15.163   0.456   2.719
42276W        W 3730  27.003  29.664   4.739
42277W        W 3731  42.921   8.364   1.823
42278W        W 3732  18.761   7.759   4.771
42279W        W 3733  21.595  26.682   4.654
42280W        W 3734  31.491  23.700  13.368
42281W        W 3735  30.087  17.105  12.467
42282W        W 3736   5.726  38.503  14.385
42283W        W 3737  18.714  39.879  14.289
42284W        W 3738  20.192  41.419   4.728
42285W        W 3739  34.056   5.764  13.916
42286W        W 3740  34.008  33.099  12.379
42287W        W 3741   7.773  18.119   4.275
42288W        W 3742  40.983   4.368   2.672
42289W        W 3743   0.822  16.140   4.113
42290W        W 3744  43.967  32.464  11.439
42291W        W 3745  18.612   6.272   0.300
42292W        W 3746   3.352  37.504  13.961
42293W        W 3747   5.364  10.808  10.986
42294W        W 3748  43.944  23.085   4.634
42295W        W 3749  41.299  20.191  11.586
42296W        W 3750  22.103   0.975   1.736
42297W        W 3751  15.084   9.199  11.027
42298W        W 3752  27.531  31.630   1.410
42299W        W 3753  24.196   1.846   5.220
42300W        W 3754   0.875  12.324   0.256
42301W        W 3755  17.094  13.319   3.692
42302W        W 3756  19.663  16.731   2.800
42303W        W 3757  38.439  34.434  14.998
42304W        W 3758  13.842  20.598  10.920
42305W        W 3759  24.496  42.443   2.772
42306W        W 3760  24.598   7.193  12.070
42307W        W 3761  22.249  18.563  14.315
42308W        W 3762  24.006  40.948  14.810
42309W        W 3763   8.284  31.487   1.287
42310W        W 3764  24.497  40.518  12.952
42311W        W 3765   6.208  22.250   3.247
42312W        W 3766  17.627  41.504  10.456
42313W        W 3767  24.482  19.229  12.826
42314W        W 3768  15.596  17.618  13.410
42315W        W 3769  20.728  21.571   4.155
42316W        W 3770   8.686  26.466   2.249
42317W        W 3771   9.244  11.189  10.574
42318W        W 3772   9.724  24.142   2.872
42319W        W 3773  42.344  40.532  10.940
42320W        W 3774  23.498  22.628  10.900
42321W        W 3775  23.153  22.508  12.982
42322W        W 3776   2.366  21.261   4.623
42323W        W 3777  35.496  30.579   1.838
42324W        W 3778  18.549  37.370   1.245
42325W        W 3779  29.996   3.724  11.959
42326W        W 3780  39.344  19.120   4.252
42327W        W 3781  16.092  34.025   4.191
42328W        W 3782  34.930  34.924   4.347
42329W        W 3783  13.168  14.220  13.942
42330W        W 3784  11.697  12.181  12.422
42331W        W 3785   3.340  19.131  13.400
42332W        W 3786  22.670  37.994   4.270
42333W        W 3787  44.364  15.115   3.699
42334W        W 3788  43.803  25.654  14.867
42335W        W 3789  37.534  20.567  10.497
42336W        W 3790  21.067  12.231  13.491
42337W        W 3791  27.047  43.812  11.456
42338W        W 3792  38.827  25.641  10.907
42339W        W 3793  27.091  20.649   0.795
42340W        W 3794  12.322   0.444   0.732
42341W        W 3795   0.798  27.649   3.718
42342W        W 3796   4.864  35.443  14.327
42343W        W 3797   7.674   3.279   0.345
42344W        W 3798  17.786  38.929   0.467
42345W        W 3799  15.692  13.146  10.967
42346W        W 3800  43.392  11.238  12.455
42347W        W 3801   7.375  14.303  12.087
42348W        W 3802  28.601  20.208   1.737
42349W        W 3803   1.366  23.556  11.446
42350W        W 3804  14.214  40.379   1.279
42351W        W 3805  33.017  13.242  10.627
42352W        W 3806  11.340   7.197   2.738
42353W        W 3807  12.249  44.972   2.863
42354W        W 3808  18.762  14.638  10.453
42355W        W 3809  26.644  11.623  12.096
42356W        W 3810  29.450  17.208   2.679
42357W        W 3811  16.274  11.700  11.419
42358W        W 3812  44.430   9.835  14.844
42359W        W 3813   6.849  17.674   0.360
42360W        W 3814  14.709   5.842   0.827
42361W        W 3815  12.165  39.022   2.352
42362W        W 3816  43.350  31.434   3.187
42363W        W 3817  19.218   5.871   0.449
42364W        W 3818  15.233  36.018  11.023
42365W        W 3819   4.892  44.843   4.350
42366W        W 3820   6.808   5.206  12.578
42367W        W 3821  35.529  22.015   4.241
42368W        W 3822  15.181  37.077  11.481
42369W        W 3823   8.351  40.352   0.414
42370W        W 3824  26.650  29.638   4.598
42371W        W 3825  42.340  29.667   2.784
42372W        W 3826  41.856  11.335  10.625
42373W        W 3827  30.140  36.933  11.430
42374W        W 3828  17.235  34.936   3.849
42375W        W 3829   8.354  39.868  14.297
42376W        W 3830  22.739  11.315  14.289
42377W        W 3831  44.295  19.060   1.348
42378W        W 3832   3.915  12.156   3.256
42379W        W 3833  17.699  18.133   0.306
42380W        W 3834  17.754   7.190  10.903
42381W        W 3835  43.882  42.327  10.500
42382W        W 3836  43.339  17.244   2.727
42383W        W 3837  34.034   4.341   1.735
42384W        W 3838  17.759  15.579  14.839
42385W        W 3839  28.471  12.310   3.664
42386W        W 3840   8.185  16.121  11.608
42387W        W 3841  38.423  21.176   4.631
42388W        W 3842   2.310  12.188  13.999
42389W        W 3843  38.892  16.130   3.719
42390W        W 3844  40.431   2.820  13.473
42391W        W 3845  39.920  43.369  12.860
42392W        W 3846   1.803  41.847  13.339
42393W        W 3847  18.745  19.648  13.891
42394W        W 3848  23.601   5.326  12.948
42395W        W 3849  16.786  19.555   4.160
42396W        W 3850  25.011  26.173  10.641
42397W        W 3851   3.859   7.673   2.185
42398W        W 3852  29.549  17.790  11.576
42399W        W 3853  31.425  23.713  14.473
42400W        W 3854  21.216   1.481   0.878
42401W        W 3855  20.196  38.867  12.971
42402W        W 3856  13.134  13.282   1.434
42403W        W 3857  11.319  40.390   3.717
42404W        W 3858  14.169  36.846  11.506
42405W        W 3859   1.349  32.522   4.158
42406W        W 3860  35.417  26.609  13.399
42407W        W 3861   1.456  36.061  12.539
42408W        W 3862  33.968  12.787  13.938
42409W        W 3863  41.906  10.378   2.417
42410W        W 3864  30.428   2.928   1.753
42411W        W 3865   3.430  10.799   0.408
42412W        W 3866  15.715  17.234  13.952
42413W        W 3867  30.913  29.938  14.006
42414W        W 3868  15.325  35.064  14.326
42415W        W 3869  28.641  31.127  13.546
42416W        W 3870   3.300  18.086  13.425
42417W        W 3871  10.665   5.229   0.953
42418W        W 3872  22.515  20.722   1.803
42419W        W 3873  32.419  13.795  11.070
42420W        W 3874  30.983   0.458  14.401
42421W        W 3875  31.537  21.188  11.560
42422W        W 3876  31.030  41.923   0.457
42423W        W 3877  42.853  25.986   4.737
42424W        W 3878  15.102  15.824  11.561
42425W        W 3879  43.498  24.513   0.456
42426W        W 3880  21.736  38.522   3.304
42427W        W 3881   1.914  12.805  12.355
42428W        W 3882  31.582  34.027  10.951
42429W        W 3883  12.689  21.086   0.727
42430W        W 3884  29.052  20.651   0.459
42431W        W 3885  33.888  37.565  12.443
42432W        W 3886  22.549  18.256  10.548
42433W        W 3887  25.629  18.177  14.827
42434W        W 3888  14.813   0.313   4.796
42435W        W 3889   6.189  14.222   0.390
42436W        W 3890  12.763  37.465   2.374
42437W        W 3891  17.617  43.482  14.931
42438W        W 3892   7.381  17.696  13.878
42439W        W 3893  24.225  21.121   2.193
42440W        W 3894  42.897  31.132   0.306
42441W        W 3895  16.164   7.357  12.976
42442W        W 3896   9.718  12.668   3.155
42443W        W 3897  34.422  11.738   4.689
42444W        W 3898  34.871  12.286  10.521
42445W        W 3899  44.979  12.350  13.843
42446W        W 3900   2.757  37.451   3.772
42447W        W 3901   9.849  18.631  12.526
42448W        W 3902   3.923  24.169   3.700
42449W        W 3903  24.578   6.711   2.199
42450W        W 3904  18.740  20.195   2.221
42451W        W 3905  35.075  11.629  13.013
42452W        W 3906  44.444  17.280  10.585
42453W        W 3907  20.250  40.409  12.882
42454W        W 3908  17.639   0.398   3.226
42455W        W 3909   8.736  18.627   2.402
42456W        W 3910  11.370  40.541   0.278
42457W        W 3911  36.408  25.631   0.436
42458W        W 3912   2.800  27.121   4.745
42459W        W 3913  34.546  24.628  11.544
42460W        W 3914  31.555  28.469   3.689
42461W        W 3915  27.656   2.867   5.091
42462W        W 3916  35.890  43.800  13.820
42463W        W 3917  32.985  17.223  11.538
42464W        W 3918  33.930   1.308  11.379
42465W        W 3919  16.784  14.209  10.105
42466W        W 3920  30.912  38.066  14.372
42467W        W 3921  11.622   0.379  10.901
42468W        W 3922  26.618  13.196  12.472
42469W        W 3923  12.714  22.597  12.941
42470W        W 3924  35.450  18.692  13.858
42471W        W 3925   1.835  14.311   2.363
42472W        W 3926   3.719  41.433  14.805
42473W        W 3927  19.655   1.948  11.583
42474W        W 3928  36.909  35.588   1.893
42475W        W 3929  23.987  21.591   2.723
42476W        W 3930   7.280  31.480   4.800
42477W        W 3931  38.339   5.222   4.286
42478W        W 3932  35.554  35.420  10.419
42479W        W 3933  10.723  29.542   3.825
42480W        W 3934   7.273  25.591   0.433
42481W        W 3935  12.837  24.061   0.403
42482W        W 3936  12.149  15.683  11.099
42483W        W 3937  29.010  23.498   3.676
42484W        W 3938  36.368  10.281   1.358
42485W        W 3939  31.604  27.129  14.014
42486W        W 3940   9.828   3.784  14.386
42487W        W 3941  27.949   1.381   1.929
42488W        W 3942  26.482  14.805   0.904
42489W        W 3943  21.757  39.028  13.804
42490W        W 3944  43.496  42.817  14.392
42491W        W 3945  32.142   1.943  12.556
42492W        W 3946   9.174   0.843  12.456
42493W        W 3947   4.807  43.440  11.537
42494W        W 3948  28.123  23.575  14.468
42495W        W 3949   0.953  21.179  10.131
42496W        W 3950  21.643   8.336  10.954
42497W        W 3951  33.496  38.875   4.811
42498W        W 3952  10.377   6.282   2.190
42499W        W 3953  18.262   4.235  11.484
42500W        W 3954  20.225   4.862   5.090
42501W        W 3955  18.669  23.608   3.374
42502W        W 3956  43.331  14.334   0.251
42503W        W 3957  39.357  34.053   2.378
42504W        W 3958  22.504  36.870   1.853
42505W        W 3959  27.028  34.955  12.551
42506W        W 3960  16.099  12.647  14.921
42507W        W 3961  18.568  13.135   0.918
42508W        W 3962  44.994  22.691  10.578
42509W        W 3963  28.104  19.574   2.353
42510W        W 3964  24.978  21.654  11.485
42511W        W 3965  38.507  27.101  11.019
42512W        W 3966  19.656   8.202   3.245
42513W        W 3967   2.258   6.692   0.478
42514W        W 3968  23.237  27.052  10.938
42515W        W 3969  32.526  28.956  12.036
42516W        W 3970  35.586   0.927   3.840
42517W        W 3971  24.685  14.777   3.759
42518W        W 3972  43.464  35.424  11.477
42519W        W 3973   6.256  24.682   0.268
42520W        W 3974  26.483  39.824  14.472
42521W        W 3975   8.338   8.680  12.096
42522W        W 3976  19.574  10.771  10.631
42523W        W 3977   5.420  13.196   0.792
42524W        W 3978  14.670  43.497  12.563
42525W        W 3979  23.167  26.047   2.744
42526W        W 3980  39.983  24.177  11.020
42527W        W 3981   6.188   6.302   4.836
42528W        W 3982  34.427  38.964  13.539
42529W        W 3983  12.737  32.125   3.699
42530W        W 3984  18.676   8.375   1.758
42531W        W 3985  42.362  19.259  11.059
42532W        W 3986  39.916   2.260  13.903
42533W        W 3987  40.390  42.904   4.347
42534W        W 3988  15.170  19.067   2.723
42535W        W 3989  18.270  37.050   4.670
42536W        W 3990   1.787  36.455   1.239
42537W        W 3991  37.402  12.123  13.521
42538W        W 3992  27.504  22.211  14.339
42539W        W 3993  35.504  42.333  10.931
42540W        W 3994   2.954  24.153   3.845
42541W        W 3995  19.779  16.255   2.887
42542W        W 3996  20.042  41.803  11.513
42543W        W 3997   1.343  23.168   2.316
42544W        W 3998  39.322  31.082   0.744
42545W        W 3999  39.467   7.792  11.037
42546W        W 4000  24.197  44.794   3.661
42547W        W 4001  14.195  22.041   1.365
42548W        W 4002  41.013  26.203   1.808
42549W        W 4003   2.418  30.538  14.959
42550W        W 4004  26.064   4.760  10.487
42551W        W 4005   4.724   2.926   0.908
42552W        W 4006   6.424  34.042  12.931
42553W        W 4007  39.992   9.157   1.837
42554W        W 4008  10.205  32.561   0.846
42555W        W 4009  11.686  30.610   4.213
42556W        W 4010   8.342   2.244  13.796
42557W        W 4011  31.136  13.278  10.073
42558W        W 4012  26.650  14.216   2.788
42559W        W 4013  11.260  23.048   1.719
42560W        W 4014   8.321   9.743  12.986
42561W        W 4015  26.129   5.858  13.464
42562W        W 4016  23.090  44.371   4.339
42563W        W 4017  44.790   3.294   0.930
42564W        W 4018   0.303  41.501  13.814
42565W        W 4019  34.413  14.726   2.348
42566W        W 4020   4.368  15.167   1.237
42567W        W 4021   4.867  24.098  10.572
42568W        W 4022  22.526  15.776   4.749
42569W        W 4023  10.343  25.183  10.082
42570W        W 4024  21.738  13.191  13.512
42571W        W 4025  33.434   1.462  14.884
42572W        W 4026   1.789   3.903   3.332
42573W        W 4027  25.705  36.955  10.552
42574W        W 4028   5.209  16.101   2.873
42575W        W 4029   7.809   4.861  12.862
42576W        W 4030   4.248  38.992   4.262
42577W        W 4031  42.523  16.182  14.877
42578W        W 4032  26.190   8.284  10.956
42579W        W 4033   4.386  22.054   4.796
42580W        W 4034  22.582  31.000  12.093
42581W        W 4035  13.666  32.600   3.834
42582W        W 4036  35.507  27.151   1.769
42583W        W 4037   7.244  27.948   4.602
42584W        W 4038  29.646  19.067   4.657
42585W        W 4039  19.718   9.708  13.889
42586W        W 4040  37.878  35.054  11.884
42587W        W 4041   2.273  23.633  12.494
42588W        W 4042  34.533  30.127  11.587
42589W        W 4043  20.580  11.340   1.881
42590W        W 4044  40.443  11.216   2.361
42591W        W 4045   9.261  36.047  10.947
42592W        W 4046  19.613   1.321   3.181
42593W        W 4047  30.119  17.252  12.048
42594W        W 4048  26.581  17.184  11.061
42595W        W 4049  28.969  12.225   1.399
42596W        W 4050  24.041  19.569   1.400
42597W        W 4051  35.493   0.474  13.402
42598W        W 4052  38.903  41.942   2.883
42599W        W 4053   4.735  26.532   1.444
42600W        W 4054  33.601  44.454  11.548
42601W        W 4055  14.773  34.385  14.952
42602W        W 4056   9.334   6.212   2.759
42603W        W 4057  41.024  26.611   4.718
42604W        W 4058  37.072  38.367  13.308
42605W        W 4059  18.743  18.242  10.467
42606W        W 4060  15.767  18.099   0.802
42607W        W 4061  37.914  19.149   2.818
42608W        W 4062  37.983  41.828  13.325
42609W        W 4063  27.567  31.426  10.053
42610W        W 4064   7.856  16.765   4.142
42611W        W 4065   2.843  15.684   2.260
42612W        W 4066  42.954   8.357  11.381
42613W        W 4067   4.440  31.954   0.481
42614W        W 4068  39.871  31.023   3.866
42615W        W 4069   0.780  25.619  13.458
42616W        W 4070   2.787  20.708   2.207
42617W        W 4071  42.004  14.181   3.248
42618W        W 4072  15.278  26.475  12.905
42619W        W 4073  39.501  44.868  12.397
42620W        W 4074  30.985   5.886  12.894
42621W        W 4075  28.481  11.662   3.331
42622W        W 4076  24.110   6.772  13.500
42623W        W 4077  38.492  38.476   3.717
42624W        W 4078   6.210   1.863   1.718
42625W        W 4079   3.240  38.325  12.370
42626W        W 4080  38.066   3.456   3.763
42627W        W 4081  10.832  18.608  13.324
42628W        W 4082  28.442  44.294  13.841
42629W        W 4083  24.162  30.589   2.322
42630W        W 4084   6.288  12.341  13.405
42631W        W 4085  40.879   2.232  11.371
42632W        W 4086   3.720  15.260   4.602
42633W        W 4087  28.454  21.104  10.004
42634W        W 4088  22.655  23.685   2.806
42635W        W 4089  16.730   1.973   0.913
42636W        W 4090  41.511  22.632  12.064
42637W        W 4091  24.574   0.746   3.385
42638W        W 4092   8.709   5.240   4.782
42639W        W 4093   5.808  31.019   9.615
42640W        W 4094  39.439  10.825   1.245
42641W        W 4095  26.473  27.555  10.476
42642W        W 4096  31.623  44.003   2.851
42643W        W 4097  43.397  23.548  12.069
42644W        W 4098  36.878  24.495   3.386
42645W        W 4099  24.107  31.624   3.727
42646W        W 4100  13.225   5.356   0.427
42647W        W 4101   7.326  30.541   1.410
42648W        W 4102  40.881  30.426  12.578
42649W        W 4103  12.188  29.557   1.848
42650W        W 4104  36.418  24.062   4.120
42651W        W 4105  18.241  44.911  12.446
42652W        W 4106  15.168  24.054  14.392
42653W        W 4107  10.642  13.224  11.413
42654W        W 4108  18.752  30.965   3.748
42655W        W 4109  30.049  37.043   2.361
42656W        W 4110  20.560  33.498  14.029
42657W        W 4111  42.919  21.238   0.285
42658W        W 4112   7.358   3.887  11.012
42659W        W 4113  24.562  13.822   4.677
42660W        W 4114  15.596  38.931  13.428
42661W        W 4115  10.643  14.822   2.333
42662W        W 4116  44.941  13.762   1.211
42663W        W 4117  22.153   9.807   4.134
42664W        W 4118  10.173   4.741  14.811
42665W        W 4119  31.054  16.718   0.321
42666W        W 4120  22.146  22.694  10.466
42667W        W 4121  43.963  32.477   4.314
42668W        W 4122  40.917  19.220  10.622
42669W        W 4123   2.225  19.135  11.916
42670W        W 4124  22.143   3.423  12.095
42671W        W 4125  20.078  20.721  11.993
42672W        W 4126   1.380  13.798   2.197
42673W        W 4127  25.548  16.599   2.279
42674W        W 4128  18.659  12.117  14.784
42675W        W 4129   1.332  14.800  11.052
42676W        W 4130  25.682  15.294  11.381
42677W        W 4131  28.606  18.149  10.434
42678W        W 4132   1.967  40.862   2.832
42679W        W 4133  25.111  22.723  14.464
42680W        W 4134   4.315   7.850   0.888
42681W        W 4135  23.024   2.357   4.118
42682W        W 4136   9.262  41.333   4.256
42683W        W 4137  41.855  43.345  10.524
42684W        W 4138  21.699   7.241  12.414
42685W        W 4139   8.190  16.601  13.385
42686W        W 4140   0.248  28.935   1.234
42687W        W 4141   8.878  17.706   3.782
42688W        W 4142  44.874  27.486   0.321
42689W        W 4143  25.620  44.958   3.694
42690W        W 4144  31.106  15.102   2.237
42691W        W 4145   9.698   8.222  12.075
42692W        W 4146  13.834   9.661  10.481
42693W        W 4147   7.230  36.923   1.733
42694W        W 4148  18.085  11.835   5.087
42695W        W 4149  30.448  25.510   2.401
42696W        W 4150  15.300  17.642  14.315
42697W        W 4151   5.897  12.316  13.972
42698W        W 4152  17.721  39.536  12.368
42699W        W 4153  31.955  42.353  14.954
42700W        W 4154   2.436  11.199   1.813
42701W        W 4155  41.901  30.607  12.041
42702W        W 4156   0.368   9.361   0.417
42703W        W 4157  38.332  27.555  11.063
42704W        W 4158  37.396  27.689  11.611
42705W        W 4159  35.951  17.786  14.445
42706W        W 4160  25.485   2.925  10.449
42707W        W 4161   2.727  27.060   1.771
42708W        W 4162  23.221  16.175  13.871
42709W        W 4163  29.147  23.237   0.414
42710W        W 4164   0.898  25.532   3.339
42711W        W 4165  20.148  19.552   4.194
42712W        W 4166  16.675   7.865  12.867
42713W        W 4167  17.722  30.029   4.653
42714W        W 4168  38.029   7.898  13.436
42715W        W 4169   0.798  11.844   3.757
42716W        W 4170   0.302   6.779   4.132
42717W        W 4171  14.279  31.589  12.857
42718W        W 4172  10.287   0.778   3.857
42719W        W 4173  38.498  41.952  10.514
42720W        W 4174  22.740  17.670  13.015
42721W        W 4175  20.683  34.486   2.362
42722W        W 4176   3.443  22.671  13.356
42723W        W 4177   5.703   4.255   2.372
42724W        W 4178  13.640  35.590   2.280
42725W        W 4179   2.361   1.837   2.677
42726W        W 4180  29.045  42.527   1.218
42727W        W 4181   8.191  36.482   1.926
42728W        W 4182  25.549   3.262   0.314
42729W        W 4183   4.711  33.524   0.280
42730W        W 4184  31.907  29.560  13.490
42731W        W 4185  13.173  38.028  12.531
42732W        W 4186   2.444   5.767  12.057
42733W        W 4187   3.386  11.265  11.026
42734W        W 4188  17.761  10.741  14.376
42735W        W 4189  18.572  42.826   1.802
42736W        W 4190  12.339  41.011   0.779
42737W        W 4191  18.067  43.978   1.258
42738W        W 4192  29.144   7.830   2.188
42739W        W 4193  29.604  20.096  12.454
42740W        W 4194  25.042   3.718   3.186
42741W        W 4195  12.840  43.385   3.834
42742W        W 4196  31.482   8.895  14.853
42743W        W 4197   8.665  29.960   2.238
42744W        W 4198  15.191   0.853  14.413
42745W        W 4199   7.818   6.815  12.966
42746W        W 4200  12.761  43.437   5.096
42747W        W 4201   3.812   2.426   0.818
42748W        W 4202  22.230   1.918  11.913
42749W        W 4203   3.716  22.742   0.873
42750W        W 4204  33.956  44.286   3.248
42751W        W 4205  28.446  30.945   9.436
42752W        W 4206  14.778  26.994  13.976
42753W        W 4207  38.566  40.492   4.640
42754W        W 4208  27.047  19.605  13.922
42755W        W 4209   7.666  31.088  11.570
42756W        W 4210  11.173   4.939   2.901
42757W        W 4211  24.084  36.365  12.953
42758W        W 4212  41.006   1.906   4.612
42759W        W 4213   0.743  28.024   1.391
42760W        W 4214  31.089  23.516   4.291
42761W        W 4215  34.465  32.058   3.181
42762W        W 4216  13.725  20.594  10.633
42763W        W 4217  31.033   3.459  10.890
42764W        W 4218  34.041  39.891   3.165
42765W        W 4219  10.158  27.049   4.616
42766W        W 4220   4.284  28.511   1.785
42767W        W 4221  38.959   6.322  14.381
42768W        W 4222  18.669  19.559  10.906
42769W        W 4223  40.945   0.964   3.289
42770W        W 4224  21.734  37.030   1.275
42771W        W 4225  42.424  11.313  13.516
42772W        W 4226  40.467   0.976  12.554
42773W        W 4227  36.945   3.798   1.363
42774W        W 4228  18.623  15.601   1.391
42775W        W 4229   3.420  44.875   1.746
42776W        W 4230  28.463   6.711  14.411
42777W        W 4231  43.285  39.445   4.180
42778W        W 4232   7.731  33.402  14.440
42779W        W 4233  18.758  27.595   2.225
42780W        W 4234  44.899  34.911  13.923
42781W        W 4235  44.468  44.799   4.293
42782W        W 4236   1.735   7.410  12.340
42783W        W 4237   0.907  18.293   3.805
42784W        W 4238  39.426  24.546  11.471
42785W        W 4239  37.939  21.703  12.425
42786W        W 4240  32.043  25.963  11.883
42787W        W 4241  40.501  40.968   1.845
42788W        W 4242  12.307  29.065   1.920
42789W        W 4243  16.610  38.870  11.558
42790W        W 4244  43.480  10.865   2.671
42791W        W 4245  36.097  29.473   1.874
42792W        W 4246  24.716  25.160  11.477
42793W        W 4247  38.495  14.185   0.885
42794W        W 4248  23.647  23.130  10.475
42795W        W 4249  36.895  44.387  14.479
42796W        W 4250   1.241  34.598   4.648
42797W        W 4251  10.814  22.133   0.366
42798W        W 4252  11.363  27.627   2.851
42799W        W 4253   9.360   2.842  11.389
42800W        W 4254  12.361  29.098   4.122
42801W        W 4255  39.857  35.587   3.770
42802W        W 4256  21.119  12.650  13.017
42803W        W 4257  26.671   1.831  14.899
42804W        W 4258  25.690  29.165   1.696
42805W        W 4259  40.973  23.673  10.947
42806W        W 4260  30.913   1.427  11.534
42807W        W 4261  42.514  30.970  11.982
42808W        W 4262  13.841  39.922   0.407
42809W        W 4263  42.837  39.819  10.548
42810W        W 4264  29.542  44.996   2.677
42811W        W 4265  18.243  11.243  12.897
42812W        W 4266  11.677   9.839   2.727
42813W        W 4267  29.004  14.206   2.879
42814W        W 4268  17.684  13.308   4.157
42815W        W 4269  31.991  29.470   4.301
42816W        W 4270  29.151  39.926  11.383
42817W        W 4271  41.873  40.445  14.929
42818W        W 4272  30.154  18.057  11.457
42819W        W 4273   6.354  27.057   3.292
42820W        W 4274  15.154   9.772  14.288
42821W        W 4275  14.336  26.083  12.545
42822W        W 4276  36.954  36.480   4.310
42823W        W 4277  36.436  40.462   2.369
42824W        W 4278  22.170  29.969   3.256
42825W        W 4279  21.586  17.126   4.240
42826W        W 4280  15.200  23.019  12.093
42827W        W 4281  21.260  37.379   3.774
42828W        W 4282  28.964  40.360  14.915
42829W        W 4283   1.243  20.087   2.670
42830W        W 4284  39.348  35.897  14.999
42831W        W 4285  12.761  18.675  13.842
42832W        W 4286  38.969  30.418   0.966
42833W        W 4287  32.934  30.125   3.733
42834W        W 4288   9.172  30.039  10.011
42835W        W 4289   6.734  26.687  10.025
42836W        W 4290  29.590  13.120   3.688
42837W        W 4291  29.523  17.185  13.422
42838W        W 4292  32.524  27.161   1.419
42839W        W 4293  29.662  33.973   1.885
42840W        W 4294  24.201  17.298  12.920
42841W        W 4295  32.969   2.430  12.003
42842W        W 4296  26.205   0.886  11.099
42843W        W 4297   7.307  38.398  12.076
42844W        W 4298  10.362  23.570   1.424
42845W        W 4299  36.401   2.229   2.416
42846W        W 4300  34.552  17.636   1.246
42847W        W 4301   1.301  18.646  12.474
42848W        W 4302  25.558  23.115   5.288
42849W        W 4303   8.846  18.110  14.967
42850W        W 4304   7.318  31.068   0.302
42851W        W 4305  31.440  11.646   2.844
42852W        W 4306  28.947  24.114   9.662
42853W        W 4307  29.077  21.532   3.791
42854W        W 4308   4.707  29.497   3.182
42855W        W 4309   5.416  31.920  11.588
42856W        W 4310  36.027   9.206  13.439
42857W        W 4311   3.912   8.359   2.688
42858W        W 4312   2.836  24.576  10.572
42859W        W 4313  23.017  27.468   0.268
42860W        W 4314  41.974  27.158  14.948
42861W        W 4315  15.777   6.688   9.929
42862W        W 4316  26.558   8.720  13.487
42863W        W 4317  37.908  36.938   2.895
42864W        W 4318  41.538  33.625  14.010
42865W        W 4319  23.106   6.690   3.358
42866W        W 4320  30.652  39.343  13.822
42867W        W 4321   5.202   7.215  14.986
42868W        W 4322  13.313  13.298  14.016
42869W        W 4323   5.858  22.209   3.726
42870W        W 4324  15.272  28.602  12.957
42871W        W 4325  14.706   1.390   0.379
42872W        W 4326  23.057   6.779  12.977
42873W        W 4327   3.341  29.611  14.472
42874W        W 4328  12.299   7.410   3.372
42875W        W 4329  43.478  16.663   0.427
42876W        W 4330  19.132  15.659   2.682
42877W        W 4331  32.405   1.347  13.368
42878W        W 4332  43.917  26.544  12.527
42879W        W 4333   6.248   9.190   2.664
42880W        W 4334  18.718  39.844  11.044
42881W        W 4335  25.164  17.105  11.434
42882W        W 4336  14.278  27.686  14.358
42883W        W 4337  21.111  36.540   0.739
42884W        W 4338  33.437  44.944  12.565
42885W        W 4339  17.742  11.660  13.374
42886W        W 4340   0.310  39.433  13.893
42887W        W 4341   5.844  26.604   1.314
42888W        W 4342   2.801  29.509   2.258
42889W        W 4343  23.020  20.139  13.460
42890W        W 4344  35.077  26.651  13.450
42891W        W 4345  19.215  32.104  12.957
42892W        W 4346   2.770  42.802   4.211
42893W        W 4347  37.492  11.716   2.867
42894W        W 4348  20.579  22.140   4.679
42895W        W 4349  14.686  26.541   9.937
42896W        W 4350  40.805  37.479  13.841
42897W        W 4351  27.064  37.361  13.448
42898W        W 4352  12.203  38.033  11.122
42899W        W 4353  19.616  15.805  10.479
42900W        W 4354  28.594  25.510  10.903
42901W        W 4355  19.261  36.042   3.179
42902W        W 4356  31.026  20.664  12.557
42903W        W 4357  17.585  33.037   1.786
42904W        W 4358  27.529  24.702   2.402
42905W        W 4359  21.528   1.818   0.289
42906W        W 4360   6.300  25.218   3.257
42907W        W 4361  30.066   0.894  11.414
42908W        W 4362  12.177  34.996   1.790
42909W        W 4363  12.220  41.810  11.084
42910W        W 4364  31.909  10.182  10.517
42911W        W 4365  43.959  38.347  11.500
42912W        W 4366  31.011  39.918   1.227
42913W        W 4367   1.809  21.072  13.328
42914W        W 4368  42.292  11.246   0.375
42915W        W 4369  29.070  29.638   4.727
42916W        W 4370  29.126  39.466   3.245
42917W        W 4371  33.447   5.807  10.063
42918W        W 4372   8.844  39.971   1.401
42919W        W 4373  10.360  41.980  14.855
42920W        W 4374  14.715  36.486   1.761
42921W        W 4375  12.770  13.197  11.055
42922W        W 4376   4.881  33.947   1.417
42923W        W 4377   4.884  30.966   4.288
42924W        W 4378  38.508  38.842   5.788
42925W        W 4379  11.733  26.130   2.695
42926W        W 4380  20.564  27.512  13.394
42927W        W 4381  24.687  20.125   1.334
42928W        W 4382  38.016  24.119  12.392
42929W        W 4383  25.553   9.292   4.279
42930W        W 4384  13.117  10.210  10.589
42931W        W 4385   3.900  14.598   1.929
42932W        W 4386  11.765  20.163   9.941
42933W        W 4387  22.692  28.602  11.063
42934W        W 4388  37.939  13.809   0.394
42935W        W 4389   2.437  12.242  10.983
42936W        W 4390   7.859   1.750  12.972
42937W        W 4391  21.196   2.723  11.884
42938W        W 4392  15.309  17.706  11.550
42939W        W 4393  21.656   6.864  11.524
42940W        W 4394  17.737  37.070  14.776
42941W        W 4395  18.219   4.311   4.281
42942W        W 4396  14.661   9.379   1.875
42943W        W 4397  38.851  35.568  12.885
42944W        W 4398  14.598  36.554  13.494
42945W        W 4399  41.021  39.542   5.701
42946W        W 4400  18.179  14.667  13.388
42947W        W 4401  19.655  40.004   2.701
42948W        W 4402  30.963  14.168  13.407
42949W        W 4403  33.050  16.238   0.408
42950W        W 4404  39.035   5.738   1.852
42951W        W 4405  25.523  27.958   2.308
42952W        W 4406   7.309  24.711  11.904
42953W        W 4407  14.332   4.329  14.513
42954W        W 4408  25.585  35.079  11.067
42955W        W 4409  28.023  23.055   2.880
42956W        W 4410   8.773  41.839   3.869
42957W        W 4411  35.593  11.148  14.410
42958W        W 4412  42.502  40.426   2.806
42959W        W 4413   4.217  38.473  13.940
42960W        W 4414   7.733  24.698   2.691
42961W        W 4415  44.989  17.131  14.486
42962W        W 4416  21.254  32.435   4.833
42963W        W 4417   9.760  14.112   2.721
42964W        W 4418  28.180   4.788   0.451
42965W        W 4419  30.073   0.380  12.366
42966W        W 4420  41.972  13.691   0.392
42967W        W 4421  25.528  26.542  11.053
42968W        W 4422  14.179  41.879   5.634
42969W        W 4423  20.168  44.336   2.862
42970W        W 4424  31.458  36.971   1.742
42971W        W 4425  22.696  29.174  10.982
42972W        W 4426  35.554   2.382  12.456
42973W        W 4427  14.100  40.956   1.696
42974W        W 4428  16.237  44.871   2.810
42975W        W 4429  26.603  23.037   0.764
42976W        W 4430   3.739  34.382   1.790
42977W        W 4431  43.956   8.727   5.297
42978W        W 4432  26.048  16.084  11.127
42979W        W 4433  30.100  28.934   1.922
42980W        W 4434  20.041  28.176   3.807
42981W        W 4435  44.960  15.676   1.801
42982W        W 4436  23.527  10.785  11.965
42983W        W 4437  13.678  16.291   0.246
42984W        W 4438   1.380  26.480   1.221
42985W        W 4439   7.212   4.854  13.493
42986W        W 4440  25.142   9.280   9.451
42987W        W 4441  38.062  33.086   3.180
42988W        W 4442  12.701   5.820   0.824
42989W        W 4443  27.524  18.281   1.830
42990W        W 4444  15.241  29.099   4.708
42991W        W 4445  29.510  25.486  14.304
42992W        W 4446   7.676  33.400   1.778
42993W        W 4447  27.012  18.245   0.738
42994W        W 4448  26.045  30.583  14.952
42995W        W 4449  13.723  44.262  14.349
42996W        W 4450  12.246  33.929   2.836
42997W        W 4451  18.777   7.371   4.679
42998W        W 4452  34.447   6.844   0.470
42999W        W 4453   2.868  13.189  14.778
43000W        W 4454  29.084  27.668   2.874
43001W        W 4455   2.791   5.304  10.986
43002W        W 4456  10.313  40.510  11.517
43003W        W 4457   6.918  11.330  12.968
43004W        W 4458  21.037   9.264  11.445
43005W        W 4459   4.247  10.783   1.801
43006W        W 4460   8.850  34.965  14.023
43007W        W 4461  14.728  15.606  14.293
43008W        W 4462   9.838  16.123   4.631
43009W        W 4463  41.920  27.004   3.642
43010W        W 4464  26.146  16.706  13.026
43011W        W 4465  39.457  40.492   3.339
43012W        W 4466  44.322  17.227  10.891
43013W        W 4467  40.426  27.941   0.929
43014W        W 4468  38.998   1.294   2.664
43015W        W 4469  14.335  43.015   5.585
43016W        W 4470  31.973  43.391   1.775
43017W        W 4471   9.182   7.242   0.766
43018W        W 4472  14.694  26.557  14.322
43019W        W 4473  17.250  31.481  10.085
43020W        W 4474   2.930  34.455  12.883
43021W        W 4475  11.698  20.147   4.712
43022W        W 4476  31.998  24.135   2.325
43023W        W 4477  28.558   1.375  14.966
43024W        W 4478  24.480  13.154   0.942
43025W        W 4479  42.305  41.297  11.863
43026W        W 4480   4.364  39.387  12.091
43027W        W 4481  43.880  22.108  11.404
43028W        W 4482  30.073  37.980   1.736
43029W        W 4483   5.224  11.821  11.080
43030W        W 4484  34.433  28.186   3.640
43031W        W 4485  31.093  36.577   1.747
43032W        W 4486   0.841  17.269  14.425
43033W        W 4487  27.025  33.398   0.408
43034W        W 4488  17.301  33.407   9.958
43035W        W 4489   8.875  19.663  13.844
43036W        W 4490   5.271  20.206   2.307
43037W        W 4491  16.613  16.145   1.801
43038W        W 4492  19.196  44.270  14.282
43039W        W 4493  41.812   4.408   4.652
43040W        W 4494  38.390  29.935   2.898
43041W        W 4495  28.936  38.378  11.449
43042W        W 4496   2.745  20.582   3.333
43043W        W 4497  28.444  16.644  14.351
43044W        W 4498  37.337   9.819   4.819
43045W        W 4499  25.503   8.195  13.851
43046W        W 4500  21.718   6.847   4.693
43047W        W 4501  33.030  35.952   3.827
43048W        W 4502   6.399  17.265  14.952
43049W        W 4503  24.206  18.296  14.798
43050W        W 4504  36.930   0.964   1.867
43051W        W 4505  31.629   8.861   3.858
43052W        W 4506  27.998  25.160   3.693
43053W        W 4507  43.426   1.938  14.761
43054W        W 4508  26.144   6.327   1.882
43055W        W 4509   4.935  15.578  13.529
43056W        W 4510  34.934  11.776  13.905
43057W        W 4511  29.665  44.783   0.412
43058W        W 4512  43.973  19.190  11.392
43059W        W 4513   2.334  38.952   3.380
43060W        W 4514  15.140  32.436   2.406
43061W        W 4515  20.705  20.705   1.816
43062W        W 4516  17.177   2.438  12.881
43063W        W 4517  24.200   5.424  10.630
43064W        W 4518  15.175  43.516   4.320
43065W        W 4519  24.205  10.871   1.859
43066W        W 4520  39.397   2.315   1.841
43067W        W 4521  11.651  42.986   4.150
43068W        W 4522  39.921  19.211  11.987
43069W        W 4523   5.738  40.352  12.926
43070W        W 4524  39.972  13.733  14.978
43071W        W 4525  33.919   2.352  14.420
43072W        W 4526  26.512   4.380   1.310
43073W        W 4527  25.987   4.286  13.353
43074W        W 4528   1.926  36.429   2.384
43075W        W 4529  27.135   1.292  11.561
43076W        W 4530  14.708   4.938   3.254
43077W        W 4531  42.498  26.965  11.889
43078W        W 4532  26.465  30.991  13.975
43079W        W 4533  17.597  12.810   3.798
43080W        W 4534  41.835  44.498   3.318
43081W        W 4535  33.966  32.560   2.731
43082W        W 4536  36.455  40.526  11.975
43083W        W 4537  23.575  42.959   2.803
43084W        W 4538   0.393  27.480   2.398
43085W        W 4539  37.860  27.690   1.372
43086W        W 4540  30.125  36.019  13.474
43087W        W 4541   4.317  31.913  14.332
43088W        W 4542  34.596  28.102   3.182
43089W        W 4543  44.852  41.799  12.499
43090W        W 4544  28.181   0.474   1.851
43091W        W 4545  11.253  25.676   1.873
43092W        W 4546  35.470   3.402   0.865
43093W        W 4547  21.050  34.030  12.913
43094W        W 4548  20.729  43.346   0.919
43095W        W 4549  44.910  28.108   2.196
43096W        W 4550  24.501  15.217   3.361
43097W        W 4551  10.651  20.769   2.884
43098W        W 4552  32.558  26.696   0.840
43099W        W 4553  19.224  25.546  10.530
43100W        W 4554  24.644  15.624   3.693
43101W        W 4555  18.780  36.872   1.802
43102W        W 4556   8.860  18.670  10.536
43103W        W 4557  41.483   7.281   3.776
43104W        W 4558  28.596  21.640  14.504
43105W        W 4559   8.246  25.537  12.090
43106W        W 4560  13.160   6.866  13.526
43107W        W 4561  41.459  23.560  14.874
43108W        W 4562  12.141  19.721   5.189
43109W        W 4563  15.191  13.718   0.955
43110W        W 4564   6.745  37.380  13.024
43111W        W 4565  42.960  15.134  14.958
43112W        W 4566  38.479   2.312  13.854
43113W        W 4567  25.966  37.082   0.287
43114W        W 4568  10.149  25.204  10.615
43115W        W 4569  41.316  44.851   2.386
43116W        W 4570  14.744  14.615  14.899
43117W        W 4571  23.529  23.083  13.939
43118W        W 4572  14.717  30.442  14.872
43119W        W 4573   6.188  23.609   0.797
43120W        W 4574  29.051  41.492   3.335
43121W        W 4575   7.760  33.427  11.462
43122W        W 4576  36.975  40.427   3.814
43123W        W 4577  42.966   0.952   0.276
43124W        W 4578  40.322  43.397  13.533
43125W        W 4579  26.199  34.441  10.978
43126W        W 4580   0.393  27.130  11.978
43127W        W 4581   9.687   1.362  12.052
43128W        W 4582  28.003  34.047   1.268
43129W        W 4583  38.936  43.439  11.979
43130W        W 4584  12.659  17.089  12.559
43131W        W 4585  20.067  16.752   0.429
43132W        W 4586   9.646  34.481  14.878
43133W        W 4587   0.744  36.421  11.383
43134W        W 4588  33.128   5.287   0.467
43135W        W 4589  21.132  29.067  13.976
43136W        W 4590   6.692  40.980   1.716
43137W        W 4591  19.216  41.505  10.514
43138W        W 4592   8.832  35.913  11.957
43139W        W 4593  37.855   7.844  13.819
43140W        W 4594  38.340   5.783  14.432
43141W        W 4595   8.168  38.355   4.266
43142W        W 4596  23.201  30.623  11.421
43143W        W 4597  33.554  16.595   4.702
43144W        W 4598  35.913   0.972   3.242
43145W        W 4599  14.152  24.217   0.764
43146W        W 4600  13.660  41.326   1.363
43147W        W 4601  25.068  15.725   0.818
43148W        W 4602   2.965  17.189  13.831
43149W        W 4603  37.420  34.942   4.721
43150W        W 4604  24.666   1.391   4.729
43151W        W 4605   7.773   4.806   5.154
43152W        W 4606  17.146  44.955  11.979
43153W        W 4607  42.520  10.739  10.923
43154W        W 4608  18.221  19.772  11.471
43155W        W 4609  30.909   9.710   0.828
43156W        W 4610   5.804  36.849   0.337
43157W        W 4611  10.293  42.883   3.218
43158W        W 4612   8.831   3.917   2.829
43159W        W 4613  30.117  27.453   1.751
43160W        W 4614  32.473  38.968  14.943
43161W        W 4615   6.246  27.089  14.400
43162W        W 4616  23.625  17.746   0.349
43163W        W 4617   0.289  17.180   4.157
43164W        W 4618  24.598  19.181   0.287
43165W        W 4619  44.497  21.718   3.320
43166W        W 4620  34.034  31.530   2.248
43167W        W 4621   7.379  23.556   4.695
43168W        W 4622   6.747  44.965   2.348
43169W        W 4623  29.074  21.190  12.461
43170W        W 4624  44.805  12.176  14.312
43171W        W 4625  20.592  27.509  11.061
43172W        W 4626  24.136  33.539  10.509
43173W        W 4627  25.077  25.540  13.360
43174W        W 4628   0.917  41.480   4.200
43175W        W 4629  38.988  10.786  10.147
43176W        W 4630  25.062  42.408   3.338
43177W        W 4631  18.249  30.421  12.512
43178W        W 4632  44.835  40.831   2.787
43179W        W 4633   7.749  40.042  13.337
43180W        W 4634  40.387  16.241   1.312
43181W        W 4635  24.602  42.776  11.857
43182W        W 4636   6.734  37.476  14.400
43183W        W 4637  11.162  17.652   3.859
43184W        W 4638   5.313   8.203   3.844
43185W        W 4639  18.075  20.660  10.627
43186W        W 4640  40.958  13.191  14.404
43187W        W 4641   1.454   5.687  10.941
43188W        W 4642  16.247  44.363   9.942
43189W        W 4643  38.828  35.400  13.431
43190W        W 4644   8.736  31.610   1.750
43191W        W 4645  40.533  34.382   3.734
43192W        W 4646  36.852  18.103   3.805
43193W        W 4647  24.080   1.340  11.922
43194W        W 4648  44.790   4.725  14.768
43195W        W 4649  15.310  26.189   1.838
43196W        W 4650  34.047  30.001   3.737
43197W        W 4651  15.158  41.898  11.402
43198W        W 4652  22.166  44.455   0.253
43199W        W 4653   7.366  32.421   2.871
43200W        W 4654  33.589  37.521  14.827
43201W        W 4655  36.847  16.697  13.344
43202W        W 4656  15.197  28.562   4.299
43203W        W 4657  19.131  29.110  14.865
43204W        W 4658  10.660  33.961   3.831
43205W        W 4659  41.392  33.541  14.343
43206W        W 4660  42.031   8.204  11.869
43207W        W 4661  44.418   8.800  10.904
43208W        W 4662   7.254  44.826  10.546
43209W        W 4663  43.382   3.789   2.843
43210W        W 4664  17.093  39.466   1.241
43211W        W 4665  29.603  31.151  13.490
43212W        W 4666  11.803  42.385   2.888
43213W        W 4667  17.218  12.789  12.416
43214W        W 4668  20.066  41.436  12.857
43215W        W 4669   6.679  32.071   0.860
43216W        W 4670  21.152  21.045   0.263
43217W        W 4671   2.949  41.510  10.512
43218W        W 4672  34.379  10.222  11.606
43219W        W 4673  14.324  17.234   3.631
43220W        W 4674  41.935   4.870   2.328
43221W        W 4675  26.111   0.809  11.399
43222W        W 4676  35.917   7.908  12.394
43223W        W 4677  32.431   2.433  14.499
43224W        W 4678  13.193  17.782   1.772
43225W        W 4679   4.754  32.484  14.953
43226W        W 4680   9.740  42.831  11.504
43227W        W 4681  17.616  28.442  13.457
43228W        W 4682  42.403  44.325  13.536
43229W        W 4683  42.811  25.109   0.822
43230W        W 4684  24.497  43.910  12.859
43231W        W 4685   0.250  34.992   2.181
43232W        W 4686  26.112  20.653   1.301
43233W        W 4687  42.434   2.316   0.770
43234W        W 4688  12.635  44.469   4.716
43235W        W 4689  18.587  33.009   4.603
43236W        W 4690  10.846  44.270  14.778
43237W        W 4691  41.850  28.041  11.125
43238W        W 4692   0.905  39.428   3.296
43239W        W 4693  23.040  30.078   0.800
43240W        W 4694  21.560  15.119   3.154
43241W        W 4695  32.024   1.465   2.330
43242W        W 4696  26.163  33.481   2.387
43243W        W 4697  34.093  30.076   2.755
43244W        W 4698  24.077   9.669  10.994
43245W        W 4699  39.548  12.298  13.480
43246W        W 4700  16.090  37.555  12.462
43247W        W 4701  35.062  14.248   3.698
43248W        W 4702  22.625  33.602   1.396
43249W        W 4703  11.324  15.243   3.379
43250W        W 4704  34.110  26.167  14.338
43251W        W 4705  23.544  34.917   1.434
43252W        W 4706  33.991  32.601   4.629
43253W        W 4707  14.314   6.351  12.890
43254W        W 4708  27.452   0.890   4.182
43255W        W 4709  11.730  28.447   2.688
43256W        W 4710  36.537  19.625   3.674
43257W        W 4711  17.673   4.281  12.912
43258W        W 4712  26.549  28.474  12.367
43259W        W 4713  14.250  34.874  13.018
43260W        W 4714  32.619   8.331   0.924
43261W        W 4715  20.641  12.845  11.886
43262W        W 4716   5.379   8.761   2.747
43263W        W 4717   9.370  41.494   3.239
43264W        W 4718  19.136   9.320  10.410
43265W        W 4719  30.101   5.369   0.250
43266W        W 4720   8.758   6.319   4.777
43267W        W 4721  35.015  13.179  10.138
43268W        W 4722   0.855  35.979   1.254
43269W        W 4723   7.277  16.085   2.251
43270W        W 4724   6.725  16.737   4.191
43271W        W 4725  12.134  21.694  12.392
43272W        W 4726  34.911  19.134  14.882
43273W        W 4727  11.628  33.045  14.963
43274W        W 4728  38.471  17.266   0.388
43275W        W 4729  35.493  20.065   0.750
43276W        W 4730  24.103   6.915   4.263
43277W        W 4731   1.900  13.732  11.948
43278W        W 4732   9.787   4.843  14.807
43279W        W 4733  13.346  33.566  10.595
43280W        W 4734   9.289   5.288  13.868
43281W        W 4735  39.495  26.694   3.199
43282W        W 4736   7.865  28.581   0.966
43283W        W 4737  42.414  16.651   0.484
43284W        W 4738  10.363  24.997   2.236
43285W        W 4739   0.852  19.053  14.872
43286W        W 4740  32.611  38.854  11.925
43287W        W 4741   2.935  21.669   4.747
43288W        W 4742  35.460  34.967  11.436
43289W        W 4743  43.430  13.817  11.381
43290W        W 4744   6.246  39.470   0.402
43291W        W 4745  31.424   0.382  14.306
43292W        W 4746   4.246   2.945  12.542
43293W        W 4747  29.924  29.570   4.602
43294W        W 4748  39.004  34.378   2.811
43295W        W 4749  23.066  14.174  13.880
43296W        W 4750  38.392  16.712  14.285
43297W        W 4751  12.785  24.554  12.459
43298W        W 4752  12.194  10.283  10.422
43299W        W 4753  35.456  35.506  11.454
43300W        W 4754  44.944  10.843   0.765
43301W        W 4755  37.443  25.517  10.438
43302W        W 4756  19.557   0.752  12.096
43303W        W 4757   8.235  41.033  14.955
43304W        W 4758  40.907  22.716  13.517
43305W        W 4759  31.137  24.024   4.787
43306W        W 4760  38.379  38.414  10.116
43307W        W 4761  35.548  38.457  10.452
43308W        W 4762  10.305   4.234   0.353
43309W        W 4763  14.799  26.136  13.819
43310W        W 4764  34.429  10.860   9.437
43311W        W 4765  44.847  10.824   1.910
43312W        W 4766  11.368  28.648  11.965
43313W        W 4767  14.606  40.938   0.860
43314W        W 4768  20.148  32.097   1.811
43315W        W 4769  36.038  21.061  14.449
43316W        W 4770   1.954  39.815   4.288
43317W        W 4771  14.234  32.100  13.506
43318W        W 4772   8.355  14.192   1.752
43319W        W 4773   9.276  24.650   0.384
43320W        W 4774  28.057  24.557   5.105
43321W        W 4775  25.112  15.099  14.886
43322W        W 4776   7.255   0.300   2.337
43323W        W 4777  27.472  18.142  11.534
43324W        W 4778  22.156  41.017  11.463
43325W        W 4779  37.573  27.139  13.804
43326W        W 4780  25.216   8.307   0.944
43327W        W 4781   6.792  29.636   4.808
43328W        W 4782  40.389  26.133   3.377
43329W        W 4783  16.262   8.843   3.791
43330W        W 4784  43.954  10.693  11.026
43331W        W 4785  22.188  28.026   3.795
43332W        W 4786   1.302  38.907   2.797
43333W        W 4787  33.095  12.829  10.610
43334W        W 4788  22.995  38.534   1.767
43335W        W 4789  16.316  19.167  13.005
43336W        W 4790  15.258  22.590   1.373
43337W        W 4791   2.275  36.930   1.715
43338W        W 4792   3.271   5.744  12.543
43339W        W 4793  10.632  30.938  11.970
43340W        W 4794  28.036  28.571  11.574
43341W        W 4795  21.525  23.030  10.564
43342W        W 4796   9.824  13.819   4.618
43343W        W 4797   8.335  19.543  13.342
43344W        W 4798  12.333  44.446  10.433
43345W        W 4799  33.606   6.336  12.888
43346W        W 4800  40.542  17.184  11.411
43347W        W 4801  39.038   6.239   4.637
43348W        W 4802  23.557  24.008   3.821
43349W        W 4803  20.587  30.915   1.887
43350W        W 4804  10.291  14.181   3.766
43351W        W 4805  39.332  34.869  13.865
43352W        W 4806  24.057  28.166  12.867
43353W        W 4807  25.556  33.569  12.390
43354W        W 4808   2.886  37.349  12.435
43355W        W 4809   9.744  39.473  13.863
43356W        W 4810  22.241  14.686  11.107
43357W        W 4811  22.586  30.476  14.413
43358W        W 4812  28.937  40.474   0.339
43359W        W 4813   3.749  28.116   3.299
43360W        W 4814  35.058  38.546  12.050
43361W        W 4815  12.331  24.038   3.285
43362W        W 4816  19.193  27.513   1.897
43363W        W 4817  34.876  29.047   4.159
43364W        W 4818  23.682  36.023  13.314
43365W        W 4819  43.811  15.815   2.415
43366W        W 4820  10.258  27.683   3.316
43367W        W 4821  40.871  31.060  12.405
43368W        W 4822  36.527  28.591   1.872
43369W        W 4823  13.272  39.538   4.263
43370W        W 4824  17.197   3.423  13.973
43371W        W 4825  43.883  35.105  13.945
43372W        W 4826  25.049  28.602  12.977
43373W        W 4827  44.901  28.122   0.307
43374W        W 4828   9.379  36.386   0.438
43375W        W 4829  12.201  16.596   2.323
43376W        W 4830  10.249  23.615   9.923
43377W        W 4831  14.814  16.741   2.899
43378W        W 4832  44.762  25.115  13.964
43379W        W 4833  36.929  43.807  12.363
43380W        W 4834  15.613  10.831   4.243
43381W        W 4835   4.323  36.455   1.346
43382W        W 4836  28.486  18.251   0.438
43383W        W 4837  44.810   1.355   1.881
43384W        W 4838  23.086  43.791  12.523
43385W        W 4839  44.357  10.845  14.911
43386W        W 4840  43.500  40.803   2.858
43387W        W 4841   2.882   5.363  12.042
43388W        W 4842  20.592  22.613   2.282
43389W        W 4843   1.411  28.160   2.285
43390W        W 4844   6.677  18.576   2.830
43391W        W 4845  42.436  16.130  13.841
43392W        W 4846  32.902  42.340   0.383
43393W        W 4847  26.065   7.173  11.491
43394W        W 4848   7.364  42.321  14.895
43395W        W 4849   8.770  34.597   2.357
43396W        W 4850  31.485  28.950   2.749
43397W        W 4851  15.701  11.678  11.583
43398W        W 4852  22.742  40.366  13.955
43399W        W 4853  44.857  34.469   0.303
43400W        W 4854  21.690  39.454  10.415
43401W        W 4855  39.058  30.123   4.318
43402W        W 4856  23.027  30.444  13.509
43403W        W 4857   2.934  16.220  12.949
43404W        W 4858   2.774  15.187  11.532
43405W        W 4859   0.294  14.666  14.909
43406W        W 4860   5.419  32.586  13.493
43407W        W 4861  22.573  30.969   1.904
43408W        W 4862  38.950  33.063  14.993
43409W        W 4863   3.762   9.293  12.928
43410W        W 4864   8.401  33.414   1.430
43411W        W 4865  15.241  35.950   4.127
43412W        W 4866  17.611   4.885  12.459
43413W        W 4867  38.931  13.312  14.411
43414W        W 4868  34.028   9.847  13.923
43415W        W 4869   8.891  12.778  14.450
43416W        W 4870  28.005  17.251   4.793
43417W        W 4871   0.272  34.511   2.339
43418W        W 4872   5.725  37.504  10.945
43419W        W 4873   3.244  35.985  13.887
43420W        W 4874  38.828  36.484  13.018
43421W        W 4875   5.707  25.620   4.615
43422W        W 4876  28.021  11.361   2.876
43423W        W 4877   5.315  11.697  11.992
43424W        W 4878  31.971  36.980   3.726
43425W        W 4879   0.468  33.618   0.446
43426W        W 4880  17.179   7.258   3.299
43427W        W 4881  14.115  36.984   2.881
43428W        W 4882   7.705  32.515  13.059
43429W        W 4883  37.014   5.885  14.976
43430W        W 4884  33.613  30.944   0.460
43431W        W 4885  25.639  42.338  13.431
43432W        W 4886  20.210  23.631   4.777
43433W        W 4887   9.335   8.328   3.267
43434W        W 4888  36.981   2.941   4.323
43435W        W 4889  34.035   6.719  11.895
43436W        W 4890  23.994   2.450  13.457
43437W        W 4891   0.450  24.697   3.347
43438W        W 4892   9.772  10.764   1.839
43439W        W 4893  43.786  25.180  12.545
43440W        W 4894  42.442  43.768   0.735
43441W        W 4895  38.463  22.625  12.063
43442W        W 4896  19.602  33.497  12.991
43443W        W 4897  24.706   2.805  14.492
43444W        W 4898   8.213  22.670  13.432
43445W        W 4899  35.938  41.995  10.942
43446W        W 4900   4.775  40.444   1.910
43447W        W 4901  14.742   9.260  10.603
43448W        W 4902  32.626   4.742  13.018
43449W        W 4903   1.810  16.179   4.753
43450W        W 4904   2.270  14.760  12.425
43451W        W 4905  15.711  27.148   2.769
43452W        W 4906  36.951  31.898  10.590
43453W        W 4907   5.924  41.936  13.321
43454W        W 4908  32.572  11.761   3.787
43455W        W 4909   4.374  31.943   1.862
43456W        W 4910  44.892   6.381  10.612
43457W        W 4911   2.848  26.494   1.336
43458W        W 4912  25.542  19.651  11.502
43459W        W 4913   8.710  39.350   3.746
43460W        W 4914  26.561  26.004   1.345
43461W        W 4915  26.198  21.675   1.890
43462W        W 4916  29.121  16.107  11.436
43463W        W 4917  26.060  34.877  14.823
43464W        W 4918   0.988  35.493  12.050
43465W        W 4919  44.423  40.460   4.260
43466W        W 4920  21.205  25.598  13.880
43467W        W 4921  35.099  30.545   0.745
43468W        W 4922  16.576  27.671  12.027
43469W        W 4923  25.165  28.611  10.939
43470W        W 4924   9.846  15.729  14.297
43471W        W 4925  29.095  25.140  13.423
43472W        W 4926   2.436  43.424  12.353
43473W        W 4927  31.953  14.315  11.120
43474W        W 4928  24.699   3.394  12.451
43475W        W 4929   7.239  35.416   2.233
43476W        W 4930   7.675  11.345   1.859
43477W        W 4931  35.059  43.290  10.604
43478W        W 4932  20.607   1.259   0.354
43479W        W 4933   8.182  36.411  11.589
43480W        W 4934   1.400  39.472  13.039
43481W        W 4935   0.457  25.038   4.293
43482W        W 4936  11.267  25.140   4.696
43483W        W 4937  15.589  23.552   4.745
43484W        W 4938  14.257   0.910   5.145
43485W        W 4939  44.407   3.776   3.631
43486W        W 4940  21.533  31.942   1.383
43487W        W 4941  26.591  22.017  11.950
43488W        W 4942   1.897  40.945  11.451
43489W        W 4943   2.900  11.235  14.449
43490W        W 4944  42.931  11.144   1.413
43491W        W 4945  22.589  10.678   3.640
43492W        W 4946  42.401  34.401  11.978
43493W        W 4947  22.007  10.251   2.838
43494W        W 4948  25.700  13.810  13.907
43495W        W 4949  17.208  40.054  14.403
43496W        W 4950  39.887  10.246   1.370
43497W        W 4951   5.436  39.986   3.171
43498W        W 4952  37.488  19.271  13.799
43499W        W 4953   3.285   0.435   2.822
43500W        W 4954  24.647  32.092  10.436
43501W        W 4955  11.176   1.974  14.315
43502W        W 4956   6.695  26.198   0.482
43503W        W 4957  19.170   1.260   3.733
43504W        W 4958  11.342   5.300   4.795
43505W        W 4959  20.116  17.088  14.857
43506W        W 4960   9.349   3.241  12.924
43507W        W 4961  29.582  41.498   3.841
43508W        W 4962  30.163  36.483   2.738
43509W        W 4963  30.083  37.460  12.027
43510W        W 4964  17.177  42.381  13.453
43511W        W 4965   5.860  24.088  12.383
43512W        W 4966   2.892  44.481   0.838
43513W        W 4967  14.291  43.399   4.766
43514W        W 4968   9.717  19.262  11.959
43515W        W 4969  34.545  42.961   2.304
43516W        W 4970  27.101   5.290  11.966
43517W        W 4971  24.505   0.989  11.883
43518W        W 4972  44.805  39.027   4.772
43519W        W 4973  39.358   8.276  12.557
43520W        W 4974  39.986  20.711  11.941
43521W        W 4975  35.870  22.666   1.868
43522W        W 4976   5.703   2.871   4.276
43523W        W 4977   8.290  43.389   3.683
43524W        W 4978   6.786   1.385  10.607
43525W        W 4979  27.674  29.037   3.171
43526W        W 4980  34.522  34.068  13.515
43527W        W 4981  32.549  12.147   4.687
43528W        W 4982  22.572  29.640  14.943
43529W        W 4983  38.909  24.197   2.883
43530W        W 4984  14.658  22.739  10.030
43531W        W 4985  33.556  20.145   2.233
43532W        W 4986  37.351   1.971  12.502
43533W        W 4987  30.025  12.678   0.873
43534W        W 4988  28.641  41.022   2.899
43535W        W 4989  33.024  15.124   4.219
43536W        W 4990   7.368  41.316  13.492
43537W        W 4991  40.316   7.866  13.415
43538W        W 4992   1.746   0.396  11.476
43539W        W 4993  41.346   0.946   0.422
43540W        W 4994  11.758  40.378   0.420
43541W        W 4995   8.801  37.511   2.775
43542W        W 4996  14.800   8.239   2.900
43543W        W 4997  25.614   0.489   1.770
43544W        W 4998  28.124   7.839   2.795
43545W        W 4999  17.166  13.175  14.841
43546W        W 5000  15.326  31.981  10.480
43547W        W 5001   8.686  19.223  10.405
43548W        W 5002  43.430  34.987  12.492
43549W        W 5003   5.255   7.279  12.562
43550W        W 5004  27.501  21.171   5.212
43551W        W 5005   5.273  36.928  12.425
43552W        W 5006  14.116  28.125  13.509
43553W        W 5007  37.838  42.509  13.852
43554W        W 5008  32.076   3.312  12.043
43555W        W 5009  37.501  42.321   3.337
43556W        W 5010  14.312  24.157   4.179
43557W        W 5011   5.831  29.601   2.394
43558W        W 5012  37.038   0.943   0.957
43559W        W 5013  19.546  33.964  13.974
43560W        W 5014   0.853  23.216   4.309
43561W        W 5015  24.173   9.672   2.875
43562W        W 5016   7.728  18.744  14.778
43563W        W 5017  25.074  31.955   2.245
43564W        W 5018   8.387  38.955   3.251
43565W        W 5019  39.036  36.456  10.492
43566W        W 5020  25.979  42.304  14.346
43567W        W 5021  14.730  25.643  11.926
43568W        W 5022  44.321  26.566   1.254
43569W        W 5023  43.321  20.607  11.879
43570W        W 5024  12.800  35.479   2.708
43571W        W 5025  26.076  29.570  14.919
43572W        W 5026  19.042  15.314  10.952
43573W        W 5027  16.193   6.259  14.280
43574W        W 5028   4.845   0.254   9.950
43575W        W 5029  18.656  17.103   4.753
43576W        W 5030  26.614   2.766  12.492
43577W        W 5031  15.190  32.973  10.508
43578W        W 5032  25.198  23.185   3.796
43579W        W 5033   6.361  41.422   2.797
43580W        W 5034   5.815   0.974   0.856
43581W        W 5035  10.333  43.935   3.155
43582W        W 5036  18.246  24.047  13.400
43583W        W 5037  17.710  28.516   0.273
43584W        W 5038  25.199  41.878  14.491
43585W        W 5039  17.106  20.202   2.702
43586W        W 5040  17.605  41.298  13.058
43587W        W 5041  17.243  43.768   3.840
43588W        W 5042  17.704  30.026  13.882
43589W        W 5043  12.215  18.739   4.235
43590W        W 5044  24.497  44.967   4.723
43591W        W 5045  28.147  28.471  10.158
43592W        W 5046  17.714  22.174  14.467
43593W        W 5047  41.431  20.591  10.443
43594W        W 5048  32.600   0.300  13.504
43595W        W 5049  35.487  20.264   2.416
43596W        W 5050   5.229   0.802   2.253
43597W        W 5051  31.600   8.211   9.633
43598W        W 5052  34.054  11.790   4.763
43599W        W 5053  36.863   6.193  10.502
43600W        W 5054  35.443  26.986   0.919
43601W        W 5055  29.506  31.508  11.438
43602W        W 5056   4.442  15.177  13.894
43603W        W 5057  27.025  20.263   3.714
43604W        W 5058  10.707   6.428  10.067
43605W        W 5059  32.545  28.069   2.306
43606W        W 5060  29.989  15.627   0.840
43607W        W 5061   8.718  13.609   4.748
43608W        W 5062  23.090  30.000   4.238
43609W        W 5063  34.962  10.864   3.764
43610W        W 5064  37.552  22.649  11.972
43611W        W 5065  34.098   7.386  11.563
43612W        W 5066  42.328  29.068   2.671
43613W        W 5067  29.476  28.967  14.771
43614W        W 5068  23.217  10.642  14.913
43615W        W 5069  15.192   4.245  11.861
43616W        W 5070  29.964  22.127   3.685
43617W        W 5071  18.176  13.795   4.243
43618W        W 5072   8.332  31.436  13.833
43619W        W 5073  15.751  38.369   4.258
43620W        W 5074  34.050  33.435   3.734
43621W        W 5075  36.404  20.236  10.491
43622W        W 5076   3.369   9.802  11.593
43623W        W 5077   0.895   4.851  11.591
43624W        W 5078   7.272  27.488  13.975
43625W        W 5079  42.896  39.839  11.600
43626W        W 5080   7.782  15.216   1.350
43627W        W 5081   7.371   5.394   4.128
43628W        W 5082   1.845  23.686   2.412
43629W        W 5083  34.982   6.739   4.310
43630W        W 5084   5.412  41.297   3.804
43631W        W 5085  25.508   2.290   1.809
43632W        W 5086  31.024   5.263  13.881
43633W        W 5087  31.951  41.929  12.368
43634W        W 5088  18.636  38.530  10.619
43635W        W 5089   1.267  25.045   3.378
43636W        W 5090  13.249  37.947   2.366
43637W        W 5091  17.740  34.893   0.906
43638W        W 5092  22.171  36.024  14.978
43639W        W 5093  14.642  15.143  11.006
43640W        W 5094  39.360   7.382  14.293
43641W        W 5095  24.707  15.274   2.849
43642W        W 5096  15.161  22.561  10.553
43643W        W 5097  21.168  24.663   4.353
43644W        W 5098  15.735   6.718  13.421
43645W        W 5099  14.143  28.126  14.860
43646W        W 5100  17.067  38.000  13.924
43647W        W 5101  37.060  27.613  14.457
43648W        W 5102  18.162  25.031  11.440
43649W        W 5103  10.654  11.204  11.496
43650W        W 5104  37.931  38.496   0.771
43651W        W 5105  19.191  12.158   2.234
43652W        W 5106  34.526  34.090   3.345
43653W        W 5107  26.195  15.328   3.248
43654W        W 5108  34.481   7.666   1.402
43655W        W 5109  11.662  41.425   3.172
43656W        W 5110  23.591  27.087   1.285
43657W        W 5111   7.815  43.425   1.801
43658W        W 5112   0.470  13.202  14.022
43659W        W 5113  12.245  22.570   1.251
43660W        W 5114  19.189  27.589  13.035
43661W        W 5115  31.592  21.641   4.759
43662W        W 5116   6.777  23.629   3.370
43663W        W 5117  24.510   3.453  14.439
43664W        W 5118  11.667  14.250   0.748
43665W        W 5119  43.945  43.480  11.021
43666W        W 5120  30.564  22.668   4.760
43667W        W 5121  28.145  40.469  12.927
43668W        W 5122   7.379  26.029  11.973
43669W        W 5123   6.797  29.574   2.236
43670W        W 5124  17.748  40.047   4.830
43671W        W 5125  22.620   0.878   3.827
43672W        W 5126  25.688  18.777   0.428
43673W        W 5127  29.097  27.971   5.166
43674W        W 5128  41.533   1.925  11.106
43675W        W 5129  44.773  29.111  10.941
43676W        W 5130  20.149  14.735  11.438
43677W        W 5131  30.483  44.277   3.851
43678W        W 5132  42.028  34.372  12.568
43679W        W 5133  16.259   6.795  13.009
43680W        W 5134   3.870  17.718   1.445
43681W        W 5135  22.230  24.560  11.993
43682W        W 5136  43.920   3.319  13.885
43683W        W 5137  24.069  29.587  10.450
43684W        W 5138  21.726  43.911   3.631
43685W        W 5139   7.274   0.352   0.267
43686W        W 5140   6.895   5.702  12.377
43687W        W 5141  20.066   7.307  12.846
43688W        W 5142  36.865  29.640  11.397
43689W        W 5143  11.371  32.595   3.671
43690W        W 5144  19.753  30.925  11.476
43691W        W 5145  39.432  38.823   2.737
43692W        W 5146  26.012  43.900   1.389
43693W        W 5147  24.502  12.815  12.054
43694W        W 5148   0.253   9.888  14.455
43695W        W 5149  12.257  22.086  11.913
43696W        W 5150  38.887  18.224   2.843
43697W        W 5151  10.356   9.267   2.799
43698W        W 5152  44.933  14.673  11.523
43699W        W 5153  12.130  32.894  10.038
43700W        W 5154  26.608  42.939  11.437
43701W        W 5155  39.428  28.553   4.615
43702W        W 5156  32.616  32.573  10.521
43703W        W 5157  29.166  13.666  13.432
43704W        W 5158  16.114  33.002   1.230
43705W        W 5159  11.217  24.532   2.206
43706W        W 5160  43.358  13.196   0.464
43707W        W 5161  11.188  35.855   0.292
43708W        W 5162  23.230  12.646   3.233
43709W        W 5163  18.768  29.663  10.115
43710W        W 5164  38.555  21.669  13.379
43711W        W 5165  20.270  44.960   2.675
43712W        W 5166   4.439  35.937   0.830
43713W        W 5167   5.852  41.421  11.426
43714W        W 5168  14.643  26.522   1.859
43715W        W 5169   4.386  29.010  12.082
43716W        W 5170   1.923  31.592   4.137
43717W        W 5171  21.069  35.976   3.331
43718W        W 5172  34.043  13.832  12.473
43719W        W 5173  36.905  42.492   3.374
43720W        W 5174  24.056  27.656  12.836
43721W        W 5175  10.847   6.403   0.777
43722W        W 5176   2.343  34.865  14.941
43723W        W 5177  23.226  27.480   3.645
43724W        W 5178  28.002  10.834  10.027
43725W        W 5179  26.993  27.445   1.371
43726W        W 5180  13.310  25.122   9.976
43727W        W 5181  18.182  26.983   2.264
43728W        W 5182  31.010   6.799   2.328
43729W        W 5183   7.736  10.827  10.561
43730W        W 5184  30.018  21.521  14.357
43731W        W 5185  34.073  34.865  10.060
43732W        W 5186   9.778  26.540   1.922
43733W        W 5187  29.962  19.176   1.772
43734W        W 5188  27.033  37.517   5.300
43735W        W 5189  19.714   4.350  13.336
43736W        W 5190  32.410   6.895   3.644
43737W        W 5191  35.088  17.800   4.630
43738W        W 5192  40.860  44.937  12.088
43739W        W 5193  21.212  40.428  12.886
43740W        W 5194  10.379   0.900  11.889
43741W        W 5195  41.442   0.838  11.868
43742W        W 5196  20.567  23.240  14.294
43743W        W 5197  24.514  13.641  12.937
43744W        W 5198  28.954  42.819   0.830
43745W        W 5199  41.468  29.043  14.368
43746W        W 5200  19.180  18.573  14.460
43747W        W 5201  22.720  31.959   4.704
43748W        W 5202  33.448  21.661   1.355
43749W        W 5203  25.673   3.300   4.701
43750W        W 5204  21.572   1.393  10.510
43751W        W 5205  11.846  24.537  10.964
43752W        W 5206  28.003  38.558  10.590
43753W        W 5207   8.748  38.958   0.318
43754W        W 5208  19.257  37.077  13.838
43755W        W 5209  14.135  28.615   3.272
43756W        W 5210  30.041  14.142   1.315
43757W        W 5211   3.326   7.249  10.058
43758W        W 5212  38.360   0.940   4.298
43759W        W 5213  21.529  19.277   1.291
43760W        W 5214  35.948  36.498  10.477
43761W        W 5215   8.380   1.423   1.808
43762W        W 5216   2.842  37.532   3.355
43763W        W 5217  31.988  26.097  10.906
43764W        W 5218   5.745  23.114  14.370
43765W        W 5219  41.876  42.470  13.798
43766W        W 5220   5.800  26.563   1.748
43767W        W 5221  35.086  36.420   4.698
43768W        W 5222   8.311  15.653   2.356
43769W        W 5223   7.901  29.536   1.440
43770W        W 5224  42.829  41.980   0.358
43771W        W 5225  21.068  42.377  11.414
43772W        W 5226  11.641  30.483  11.472
43773W        W 5227   5.895  22.610   2.332
43774W        W 5228  15.105  35.479  14.938
43775W        W 5229  37.506  18.715  13.988
43776W        W 5230  24.028   9.660   2.215
43777W        W 5231  14.094   3.876  14.401
43778W        W 5232   7.391  13.235   0.903
43779W        W 5233  36.888  18.562   3.760
43780W        W 5234  21.629  10.313   0.927
43781W        W 5235  27.105  20.650   3.780
43782W        W 5236   0.411   2.282  12.367
43783W        W 5237  29.657  14.810   5.245
43784W        W 5238  15.604  19.131   0.761
43785W        W 5239  36.590  20.083   2.244
43786W        W 5240   7.387  21.580  14.785
43787W        W 5241   6.335  25.058   0.288
43788W        W 5242  31.499  42.941  12.036
43789W        W 5243  12.122  18.664  14.945
43790W        W 5244   5.393  44.299   3.225
43791W        W 5245  15.720  14.200  10.421
43792W        W 5246   4.798  19.545   4.153
43793W        W 5247  41.813  37.414  14.876
43794W        W 5248  32.892  18.071   4.786
43795W        W 5249  40.995   3.300  14.941
43796W        W 5250  43.293  12.305   4.720
43797W        W 5251  37.073   5.414  13.039
43798W        W 5252  24.099  23.634   3.762
43799W        W 5253  30.494  22.639   0.866
43800W        W 5254  39.004  39.413   4.220
43801W        W 5255  32.525  25.145  10.946
43802W        W 5256  44.873  25.093   4.230
43803W        W 5257  14.300   7.817  12.386
43804W        W 5258  29.583  30.508  11.018
43805W        W 5259  27.111  23.521  13.823
43806W        W 5260  23.202   8.785  13.819
43807W        W 5261  22.573  19.103   4.781
43808W        W 5262  24.068  11.859   2.776
43809W        W 5263  11.362   9.700   3.867
43810W        W 5264  28.551   8.338  14.499
43811W        W 5265  24.033  37.445  10.984
43812W        W 5266  19.163  44.301   1.697
43813W        W 5267   0.385  21.205   2.813
43814W        W 5268  15.276   8.160   4.800
43815W        W 5269  14.733  18.294   1.906
43816W        W 5270  29.972   0.277  14.424
43817W        W 5271   8.878  30.412   1.767
43818W        W 5272  18.269  14.116  12.575
43819W        W 5273   1.426  23.594  13.459
43820W        W 5274   7.200  35.485   4.175
43821W        W 5275   3.831   0.447  13.471
43822W        W 5276  37.896  39.063  12.477
43823W        W 5277  29.669  10.685   2.811
43824W        W 5278  20.201  14.815   3.362
43825W        W 5279  44.434  16.710   1.236
43826W        W 5280  25.643  17.272   1.711
43827W        W 5281  28.542  36.028  13.351
43828W        W 5282  34.976   3.302   1.707
43829W        W 5283   3.733  28.671  11.081
43830W        W 5284  41.362  42.339   3.685
43831W        W 5285   6.323  35.048  10.107
43832W        W 5286  28.115  40.891   2.217
43833W        W 5287  23.670  28.938   0.845
43834W        W 5288  35.002   8.201  11.035
43835W        W 5289  28.120  35.572  14.821
43836W        W 5290  16.201  18.096   1.275
43837W        W 5291  43.374  28.133  14.433
43838W        W 5292  17.277  35.920   5.303
43839W        W 5293  26.470  12.116  11.070
43840W        W 5294  26.153  12.263  13.317
43841W        W 5295  30.131  31.132  14.805
43842W        W 5296   3.811  19.087  12.974
43843W        W 5297   4.402  27.188  12.499
43844W        W 5298   3.740   0.455  14.925
43845W        W 5299  38.859  28.001   2.264
43846W        W 5300  20.196   2.253   2.370
43847W        W 5301  29.011  29.122  13.003
43848W        W 5302  26.607  32.965  11.978
43849W        W 5303   8.855  40.897  13.986
43850W        W 5304  20.240  34.985   5.126
43851W        W 5305  39.959   4.863  11.095
43852W        W 5306  29.641  11.292  11.954
43853W        W 5307  29.138  32.054  14.983
43854W        W 5308  39.551  21.699   2.221
43855W        W 5309   2.914  36.855  12.344
43856W        W 5310  42.286  21.212   2.837
43857W        W 5311  43.850  31.425   1.402
43858W        W 5312  33.613   0.971  14.376
43859W        W 5313  18.239  23.135   2.387
43860W        W 5314  25.502  40.985  12.559
43861W        W 5315  44.277  21.025   3.373
43862W        W 5316   9.787   2.893  11.099
43863W        W 5317  20.746   1.247  13.371
43864W        W 5318   9.202  14.129  10.975
43865W        W 5319  17.236  44.363   0.359
43866W        W 5320   4.355  21.149  14.975
43867W        W 5321  12.640  42.978  10.073
43868W        W 5322   0.861   3.405   2.248
43869W        W 5323   0.305  29.449  14.866
43870W        W 5324  17.269  30.612   4.263
43871W        W 5325  28.496  25.626  13.946
43872W        W 5326  30.925  27.001  12.993
43873W        W 5327  40.865   4.350   4.771
43874W        W 5328   9.811   1.255   2.740
43875W        W 5329  42.829   7.894   3.231
43876W        W 5330  39.962  41.019  12.991
43877W        W 5331  41.358  10.205  14.955
43878W        W 5332  43.857  39.861   2.334
43879W        W 5333  17.130  20.647  10.547
43880W        W 5334  40.043  25.969  13.063
43881W        W 5335   9.331  12.797  13.531
43882W        W 5336  34.383  17.662  10.939
43883W        W 5337   8.791  40.047  10.607
43884W        W 5338  30.464   6.750  10.626
43885W        W 5339   7.347   9.395   1.435
43886W        W 5340  34.503   0.472  11.403
43887W        W 5341  15.810  29.430  14.840
43888W        W 5342   8.734  27.062   4.782
43889W        W 5343  19.143  41.517   2.786
43890W        W 5344  19.111  13.684  12.505
43891W        W 5345  11.325  11.144   3.203
43892W        W 5346  22.134  41.809   2.786
43893W        W 5347  24.137  27.979  14.326
43894W        W 5348  32.444   4.854  10.473
43895W        W 5349  33.459   0.937   2.895
43896W        W 5350   1.855  26.575  13.355
43897W        W 5351   3.459  39.935   2.206
43898W        W 5352  40.536  30.003   2.321
43899W        W 5353  34.596  20.658   2.256
43900W        W 5354  43.403  32.055   0.856
43901W        W 5355  39.035  32.950  13.791
43902W        W 5356  13.171  20.246   1.439
43903W        W 5357   9.368  19.624  12.379
43904W        W 5358   4.305  39.430  12.412
43905W        W 5359  14.238   2.790   2.722
43906W        W 5360  35.049  42.840  13.375
43907W        W 5361  34.573  39.506  12.890
43908W        W 5362   8.746  14.630  10.450
43909W        W 5363  15.167  26.505   1.710
43910W        W 5364   5.724   9.327  10.568
43911W        W 5365   2.737  18.181  13.343
43912W        W 5366  26.059   2.877   1.225
43913W        W 5367  20.735  28.105  10.602
43914W        W 5368  36.964  39.387  10.618
43915W        W 5369  38.333   5.315   1.323
43916W        W 5370  13.154  35.490  14.973
43917W        W 5371   9.681  34.576  13.369
43918W        W 5372  13.834  37.565  12.968
43919W        W 5373   4.784   3.854  10.522
43920W        W 5374  38.416  15.729   1.446
43921W        W 5375  39.043  10.763  11.515
43922W        W 5376   1.954  28.610  11.511
43923W        W 5377  21.515   9.304  11.507
43924W        W 5378  27.471   1.895   1.354
43925W        W 5379   1.774  18.780  14.881
43926W        W 5380  10.823  17.306  11.027
43927W        W 5381  22.505   2.248  10.552
43928W        W 5382  27.445  32.392   3.356
43929W        W 5383  26.973  13.789   3.177
43930W        W 5384  31.909  18.281  10.500
43931W        W 5385   6.802  41.822  10.955
43932W        W 5386  17.664  29.009  14.777
43933W        W 5387  17.091  17.672   3.162
43934W        W 5388  16.157  34.563  11.066
43935W        W 5389  10.680   5.431   2.179
43936W        W 5390  15.589  19.222  11.525
43937W        W 5391   4.302  24.209  11.438
43938W        W 5392   9.789  21.083   2.875
43939W        W 5393   0.874   3.901   1.421
43940W        W 5394  14.625  21.063   2.788
43941W        W 5395  25.041  41.878   4.771
43942W        W 5396  24.998  42.392   2.319
43943W        W 5397  23.005  41.401  11.993
43944W        W 5398  33.484  14.164  11.083
43945W        W 5399  31.464   7.327  13.954
43946W        W 5400  26.068  44.426  11.561
43947W        W 5401  21.148  23.075  14.274
43948W        W 5402   3.395  23.016   4.740
43949W        W 5403  11.303  35.021   2.768
43950W        W 5404   7.685  25.597  13.427
43951W        W 5405  27.673  38.373  11.056
43952W        W 5406  26.145  42.844  13.958
43953W        W 5407  26.514  44.397  13.475
43954W        W 5408  19.557   1.886  13.415
43955W        W 5409  17.246  36.428  10.953
43956W        W 5410   7.217  31.144   3.170
43957W        W 5411  25.529  20.672  13.414
43958W        W 5412   9.771  44.814   3.840
43959W        W 5413  20.760  38.057   3.281
43960W        W 5414  16.147   3.301  13.816
43961W        W 5415  26.482  11.678   5.185
43962W        W 5416   6.348  12.786  10.923
43963W        W 5417  37.462  25.046  12.339
43964W        W 5418  18.568   0.796   2.205
43965W        W 5419   3.253  29.151   0.799
43966W        W 5420  21.531  28.560  12.440
43967W        W 5421  33.410  35.911   0.395
43968W        W 5422  25.143  35.876   3.161
43969W        W 5423  23.608   9.230   5.126
43970W        W 5424  36.446   1.772   4.663
43971W        W 5425  15.742   8.792  11.542
43972W        W 5426  14.765  44.295   4.684
43973W        W 5427  36.451  19.546  10.087
43974W        W 5428  14.182  24.116  12.477
43975W        W 5429  29.118   6.882  14.975
43976W        W 5430  26.175  32.927   3.193
43977W        W 5431  34.987   3.280   1.398
43978W        W 5432  25.122  16.151  13.441
43979W        W 5433  29.649  39.546   0.954
43980W        W 5434  17.638  11.767   3.214
43981W        W 5435  28.436   2.346   1.443
43982W        W 5436  17.606  40.833  10.954
43983W        W 5437  23.039   6.716  12.457
43984W        W 5438  37.061  32.570   4.326
43985W        W 5439   0.943   1.419  11.877
43986W        W 5440  36.095  20.636  13.948
43987W        W 5441  21.108  32.970  10.405
43988W        W 5442  17.071   6.687  13.988
43989W        W 5443  34.897  25.111   0.470
43990W        W 5444   3.276   2.426   2.694
43991W        W 5445  21.121   0.314   2.763
43992W        W 5446  15.183  25.029  14.339
43993W        W 5447  31.022  44.486  14.486
43994W        W 5448  10.287  10.338   4.767
43995W        W 5449   3.247   7.840  10.455
43996W        W 5450  33.618  35.026  14.886
43997W        W 5451  24.166  24.537  14.874
43998W        W 5452  43.997   3.394   0.418
43999W        W 5453   4.710  25.485   1.386
44000W        W 5454  39.895  22.048   3.674
44001W        W 5455  39.457  35.964   4.249
44002W        W 5456  11.215  34.941   4.742
44003W        W 5457  32.926   6.901  13.938
44004W        W 5458  12.267  34.038   2.210
44005W        W 5459  14.121  11.857  10.619
44006W        W 5460  19.062  20.274   2.774
44007W        W 5461  37.436  19.057   0.385
44008W        W 5462  14.744  26.489   1.297
44009W        W 5463  26.052   0.956  10.644
44010W        W 5464  25.014  34.105  14.438
44011W        W 5465  24.108  30.025  13.056
44012W        W 5466  13.204  15.155   2.283
44013W        W 5467  44.473  44.439   5.252
44014W        W 5468  32.604  44.975  12.006
44015W        W 5469  16.167   1.371   4.786
44016W        W 5470   5.433  36.583   0.356
44017W        W 5471  11.663  32.494   0.329
44018W        W 5472  15.252   8.251   2.216
44019W        W 5473   7.779  42.405   4.813
44020W        W 5474  37.438  33.077   2.674
44021W        W 5475  15.797   4.813   1.803
44022W        W 5476   4.839   5.196  12.446
44023W        W 5477  39.371  37.525   3.656
44024W        W 5478  37.500  13.130   1.406
44025W        W 5479  28.564  29.927   3.640
44026W        W 5480  35.979  27.505  12.571
44027W        W 5481   7.385  16.570   0.267
44028W        W 5482  32.569  23.684   2.863
44029W        W 5483  19.264  17.259  10.617
44030W        W 5484   1.759  11.230   4.674
44031W        W 5485  44.917  13.137  13.825
44032W        W 5486  35.381  12.707   3.833
44033W        W 5487  22.236  10.770   1.439
44034W        W 5488  24.214   8.309  13.394
44035W        W 5489  39.436  31.537   1.341
44036W        W 5490  41.957  33.908   4.620
44037W        W 5491   3.388   5.803   1.796
44038W        W 5492  31.948  40.866   4.120
44039W        W 5493  21.672  18.567  10.995
44040W        W 5494  14.651  23.704  12.429
44041W        W 5495   6.882  24.078   3.233
44042W        W 5496  31.495  30.554  10.630
44043W        W 5497  22.159  19.073   1.812
44044W        W 5498  35.430   3.372  12.421
44045W        W 5499   1.877  26.573  12.058
44046W        W 5500   8.303  36.524   3.692
44047W        W 5501  23.583  35.094  11.016
44048W        W 5502  40.493  14.170   3.326
44049W        W 5503   6.834  13.293   2.811
44050W        W 5504  32.894  24.149  13.008
44051W        W 5505  37.356  32.594   4.639
44052W        W 5506   3.333   0.980   5.104
44053W        W 5507  39.473  42.421   9.466
44054W        W 5508  13.129  23.592   4.825
44055W        W 5509  40.526  15.769   2.696
44056W        W 5510  31.905  28.030   3.803
44057W        W 5511   9.190  15.130   3.660
44058W        W 5512  13.337  28.941  10.613
44059W        W 5513   9.342  20.251   4.763
44060W        W 5514  15.591  33.969  14.370
44061W        W 5515  31.477  23.110   0.317
44062W        W 5516  24.001  15.183  14.397
44063W        W 5517  43.293  28.518   2.320
44064W        W 5518  15.108  44.350   3.699
44065W        W 5519  25.569  37.497  13.354
44066W        W 5520  10.183  31.004   3.155
44067W        W 5521  18.673  10.677   9.919
44068W        W 5522  18.701   3.341  11.589
44069W        W 5523   4.394  16.600   0.888
44070W        W 5524  22.072  44.262   2.811
44071W        W 5525  30.470  38.924  12.494
44072W        W 5526  35.531  10.732  12.468
44073W        W 5527   5.826  43.876   3.719
44074W        W 5528   2.740  36.403  13.815
44075W        W 5529  10.733   8.363   1.398
44076W        W 5530  39.023  25.644   0.866
44077W        W 5531  42.380  24.095   1.929
44078W        W 5532  23.595  43.414  13.792
44079W        W 5533  33.008  11.126   5.219
44080W        W 5534  42.971   8.685   4.653
44081W        W 5535   7.770  27.684   1.232
44082W        W 5536  31.572  39.823   2.308
44083W        W 5537  37.004  30.643   1.368
44084W        W 5538  25.972  12.727  14.320
44085W        W 5539  10.791  36.873  10.452
44086W        W 5540  19.707  42.931   2.883
44087W        W 5541  23.128   1.757   5.245
44088W        W 5542  32.932  21.700   3.366
44089W        W 5543  38.872  22.662   2.264
44090W        W 5544  27.682  38.855   0.365
44091W        W 5545  15.137   9.298   1.256
44092W        W 5546  23.111  44.756  14.003
44093W        W 5547  37.918  20.030  14.380
44094W        W 5548  15.650  42.026  11.909
44095W        W 5549  10.672  40.404   4.623
44096W        W 5550   5.285   6.757  13.921
44097W        W 5551  13.248  27.022   2.796
44098W        W 5552  29.439  26.528  10.533
44099W        W 5553  33.525  27.090   3.646
44100W        W 5554  10.317  13.659   3.156
44101W        W 5555  22.076  43.366  10.922
44102W        W 5556  38.908  41.464  11.384
44103W        W 5557   2.441  31.052  13.997
44104W        W 5558  28.540  26.463  14.324
44105W        W 5559   2.332  35.928   2.776
44106W        W 5560  30.623  17.082  12.571
44107W        W 5561  28.021   1.961   1.323
44108W        W 5562  38.927  22.512  14.502
44109W        W 5563   3.888  34.594  11.559
44110W        W 5564  26.117  32.540  12.503
44111W        W 5565  25.117  28.121   2.243
44112W        W 5566  44.911   0.884   4.818
44113W        W 5567  25.179  43.944  14.367
44114W        W 5568  18.672  11.719  13.920
44115W        W 5569   0.432  25.054   4.808
44116W        W 5570  25.570  39.409  14.842
44117W        W 5571  12.669  26.545  12.908
44118W        W 5572  33.056  43.867  14.500
44119W        W 5573  43.894  22.689   2.731
44120W        W 5574  35.460  20.537   1.271
44121W        W 5575  44.979  28.070   4.612
44122W        W 5576  17.258  32.042  11.031
44123W        W 5577  24.163  39.438  11.506
44124W        W 5578  37.347  38.423   1.214
44125W        W 5579  35.438  29.653  10.994
44126W        W 5580   0.933  26.147  12.891
44127W        W 5581   4.347  43.486  12.954
44128W        W 5582  26.070  15.734   4.625
44129W        W 5583  35.943   6.365  12.882
44130W        W 5584  14.716   3.864  12.856
44131W        W 5585  31.130   9.749  11.489
44132W        W 5586  30.427   8.198  11.863
44133W        W 5587  43.481  11.242  12.962
44134W        W 5588  21.138  14.250   2.274
44135W        W 5589  13.282  43.009   1.348
44136W        W 5590  25.545  21.511  12.905
44137W        W 5591  14.250  44.895   3.658
44138W        W 5592  39.489  41.529  11.606
44139W        W 5593  39.932  30.144   1.295
44140W        W 5594  32.611   4.767  14.847
44141W        W 5595  40.823  21.647   3.147
44142W        W 5596  42.919  15.772   4.668
44143W        W 5597   7.344  31.102  12.831
44144W        W 5598  33.407   7.901  13.809
44145W        W 5599  44.361  43.930   0.385
44146W        W 5600  25.199  13.603  14.947
44147W        W 5601   6.882  39.475  12.409
44148W        W 5602  27.162   1.856  12.868
44149W        W 5603  23.211  21.599   1.746
44150W        W 5604  40.935  37.527  12.522
44151W        W 5605   3.340  21.188   5.173
44152W        W 5606  16.310   9.375   2.338
44153W        W 5607  37.916  15.709  14.937
44154W        W 5608   2.920  22.691   2.229
44155W        W 5609  25.169  44.759   0.470
44156W        W 5610  23.064  34.932  12.832
44157W        W 5611  23.993  28.018   3.349
44158W        W 5612  18.563  13.235   4.215
44159W        W 5613  40.983  44.895  12.840
44160W        W 5614  29.560   9.704   3.641
44161W        W 5615  20.093  37.371  13.989
44162W        W 5616   0.768  28.469   4.751
44163W        W 5617  22.714   9.853  12.951
44164W        W 5618  31.133  28.169   3.337
44165W        W 5619  24.665   7.696  10.444
44166W        W 5620   0.300   4.760  14.009
44167W        W 5621  28.610  12.786   4.825
44168W        W 5622  28.967  40.358   3.281
44169W        W 5623  16.734  30.640   1.698
44170W        W 5624  32.037  43.975   1.356
44171W        W 5625  32.105   6.907  11.897
44172W        W 5626   4.734   8.684  13.488
44173W        W 5627  32.013  19.761   0.366
44174W        W 5628  29.570   7.248   0.294
44175W        W 5629   5.934  43.301   2.307
44176W        W 5630   0.372   5.352  10.518
44177W        W 5631  25.599   5.711   0.733
44178W        W 5632  13.665  28.165   4.815
44179W        W 5633  27.628   7.267  14.375
44180W        W 5634   8.188  13.723   2.373
44181W        W 5635  31.415  40.052  11.102
44182W        W 5636   4.438  12.793   3.209
44183W        W 5637  35.418   4.402  14.397
44184W        W 5638  16.157  42.355   2.831
44185W        W 5639  35.416  12.836  13.473
44186W        W 5640  16.764  26.078   4.671
44187W        W 5641  22.022  20.096  13.911
44188W        W 5642  40.422   5.768   2.858
44189W        W 5643   9.763  32.436  12.057
44190W        W 5644  44.847  22.221   3.800
44191W        W 5645  27.519  31.555  12.904
44192W        W 5646  13.177  38.838  14.378
44193W        W 5647  33.390  12.310  14.292
44194W        W 5648  26.662  36.985   3.790
44195W        W 5649  28.601   8.791   4.335
44196W        W 5650  29.462  32.890   3.189
44197W        W 5651  41.933  29.135  10.001
44198W        W 5652  39.917   2.286  12.029
44199W        W 5653   7.230  20.657   3.321
44200W        W 5654  29.609  37.462   3.821
44201W        W 5655  14.213  10.147   3.338
44202W        W 5656   1.475  18.558   4.715
44203W        W 5657   9.291   8.221  11.400
44204W        W 5658  25.000  39.011  12.841
44205W        W 5659  36.956  43.472   3.639
44206W        W 5660  24.158  20.746  14.947
44207W        W 5661  44.493  26.531   0.328
44208W        W 5662  40.830  18.786   4.821
44209W        W 5663   9.725   0.857   2.879
44210W        W 5664  33.973  36.065  11.574
44211W        W 5665  18.191   8.824   2.867
44212W        W 5666  18.547   7.217  13.490
44213W        W 5667  37.017  17.629   3.211
44214W        W 5668   3.775  42.395  12.462
44215W        W 5669  32.545  28.934   2.380
44216W        W 5670  37.970  31.563   3.261
44217W        W 5671  10.272  22.214   9.932
44218W        W 5672   7.744  30.599  12.386
44219W        W 5673  31.108   2.879  10.499
44220W        W 5674  19.634  16.179   0.952
44221W        W 5675  17.776  20.199   1.304
44222W        W 5676  27.584  31.461   9.555
44223W        W 5677  20.089  35.039   1.934
44224W        W 5678   9.191  30.583   5.745
44225W        W 5679  35.917  15.234   4.838
44226W        W 5680  28.956  13.820   1.322
44227W        W 5681  27.618  20.662  10.937
44228W        W 5682  36.403  17.663  13.903
44229W        W 5683  38.859  39.928   2.294
44230W        W 5684  27.047  12.348   1.407
44231W        W 5685  30.633  41.999   1.916
44232W        W 5686  24.622  44.463   3.826
44233W        W 5687  21.235  25.017  11.388
44234W        W 5688  39.943  20.573  14.978
44235W        W 5689   0.970  13.320   4.196
44236W        W 5690  14.825  26.964   3.701
44237W        W 5691  15.666  14.664   0.285
44238W        W 5692  41.365   5.838  14.946
44239W        W 5693  34.482  37.571   3.819
44240W        W 5694   7.745  19.218  13.020
44241W        W 5695  29.655  21.064  14.896
44242W        W 5696  26.999   7.752  13.491
44243W        W 5697  21.559  29.021  10.531
44244W        W 5698  35.366  19.124  13.544
44245W        W 5699  26.605  20.666  12.519
44246W        W 5700  32.592   7.383  12.943
44247W        W 5701  29.100   8.799   4.310
44248W        W 5702   8.656  26.504  11.597
44249W        W 5703  32.539  27.625  11.126
44250W        W 5704   6.197  25.988   1.932
44251W        W 5705  12.232  15.283  11.547
44252W        W 5706  40.390  19.285  11.123
44253W        W 5707  24.130  27.457   1.883
44254W        W 5708  19.097   7.417   0.770
44255W        W 5709  36.496  23.095   3.211
44256W        W 5710  20.095  25.152   4.692
44257W        W 5711  10.151  14.192   2.750
44258W        W 5712  25.039   9.298   2.745
44259W        W 5713  17.596  42.510   2.212
44260W        W 5714  15.119   0.380  13.331
44261W        W 5715  30.990   7.324  14.471
44262W        W 5716  13.674  10.837  14.988
44263W        W 5717  12.720  37.932  10.537
44264W        W 5718   4.847  32.498  12.050
44265W        W 5719   5.406   0.898   0.460
44266W        W 5720   9.833   9.353   3.702
44267W        W 5721  30.958  13.685   3.690
44268W        W 5722  12.814   9.201  11.929
44269W        W 5723  24.544  33.895   2.263
44270W        W 5724  28.566  17.585  13.312
44271W        W 5725  44.801  40.467  10.587
44272W        W 5726  43.392  18.142   4.349
44273W        W 5727  20.679  21.169   3.743
44274W        W 5728  26.685  28.070  11.402
44275W        W 5729  44.922   0.475  11.041
44276W        W 5730  22.221  25.493  12.484
44277W        W 5731   7.211  40.920  11.079
44278W        W 5732   1.381  11.791   4.774
44279W        W 5733  18.222  21.626  12.835
44280W        W 5734  39.845   9.794   4.740
44281W        W 5735   0.915  16.603   4.663
44282W        W 5736   4.432   7.350  13.426
44283W        W 5737   8.321  32.479   1.264
44284W        W 5738  35.486  36.362   1.761
44285W        W 5739  13.152   7.763   3.649
44286W        W 5740  34.117  10.376  13.326
44287W        W 5741  30.643  22.120   2.810
44288W        W 5742  39.397  35.074   1.878
44289W        W 5743   6.281  41.319  13.530
44290W        W 5744   8.803  28.120   4.783
44291W        W 5745  14.251  13.808   3.305
44292W        W 5746  29.138   0.262   4.332
44293W        W 5747  40.037  19.717  13.493
44294W        W 5748  28.637  40.324   3.186
44295W        W 5749   9.808  40.439   4.267
44296W        W 5750  34.923   8.295   3.286
44297W        W 5751   1.837  24.720   1.243
44298W        W 5752  40.423   9.888  12.532
44299W        W 5753  32.900  13.834   2.784
44300W        W 5754   5.271   4.266   2.752
44301W        W 5755  15.151  25.572  13.404
44302W        W 5756  33.411  16.570  14.341
44303W        W 5757  21.185   1.886  11.067
44304W        W 5758  19.272  24.560  11.590
44305W        W 5759  17.243  35.006   0.881
44306W        W 5760  40.389  32.062   2.747
44307W        W 5761  36.498  21.036   5.308
44308W        W 5762  37.541   8.691  10.604
44309W        W 5763  29.522  36.513   5.269
44310W        W 5764   2.753  31.968  11.110
44311W        W 5765  35.044  36.503  12.401
44312W        W 5766  28.495   5.734   0.878
44313W        W 5767  10.806  14.248   4.659
44314W        W 5768  42.919  38.542  11.442
44315W        W 5769  30.100  34.565   3.723
44316W        W 5770  21.092  39.964  10.542
44317W        W 5771  16.159   3.716  14.840
44318W        W 5772   6.907  33.056   1.919
44319W        W 5773  11.257   0.915   1.353
44320W        W 5774  38.342   6.779  14.427
44321W        W 5775   3.385  17.245   1.836
44322W        W 5776  23.014  25.525   0.759
44323W        W 5777  33.034  25.025  12.489
44324W        W 5778  18.113   4.890  11.435
44325W        W 5779  18.172  37.468  14.917
44326W        W 5780  38.512  32.107   0.777
44327W        W 5781  26.485  23.031  13.519
44328W        W 5782   4.798  23.723   2.259
44329W        W 5783  35.948  34.505   4.635
44330W        W 5784  20.134  33.527  10.553
44331W        W 5785  22.176  28.558   0.943
44332W        W 5786  23.111   8.265  14.847
44333W        W 5787  35.890  35.910   4.182
44334W        W 5788  41.864  44.928  13.039
44335W        W 5789  44.916  39.820  12.996
44336W        W 5790   3.289  20.562   2.361
44337W        W 5791  43.478  17.273  12.986
44338W        W 5792  10.836   2.779   4.232
44339W        W 5793  33.889  28.018  12.043
44340W        W 5794  18.644   9.213  13.975
44341W        W 5795  22.146  21.646   4.298
44342W        W 5796   3.789  28.501   4.176
44343W        W 5797   8.901  11.834   2.232
44344W        W 5798  37.865  18.210  12.390
44345W        W 5799  16.171   6.918   3.211
44346W        W 5800  33.965  43.830   2.837
44347W        W 5801  35.463  14.604  14.882
44348W        W 5802  39.382  11.225   4.720
44349W        W 5803  16.758   7.327  14.767
44350W        W 5804   8.720  15.821   2.348
44351W        W 5805  33.518  31.143   3.335
44352W        W 5806   2.868   2.401  13.545
44353W        W 5807  23.089  24.500   0.897
44354W        W 5808  30.152   9.160   3.802
44355W        W 5809  26.149  24.009   3.194
44356W        W 5810  41.306  27.646  11.537
44357W        W 5811   9.805  42.397  10.993
44358W        W 5812   4.799  35.962   1.875
44359W        W 5813  23.592   2.876  12.455
44360W        W 5814  17.097  30.458   4.660
44361W        W 5815  35.455  17.105  10.412
44362W        W 5816  22.582  37.026  11.587
44363W        W 5817  15.214   1.945   1.241
44364W        W 5818  28.548  20.738  13.061
44365W        W 5819   4.838   9.709  13.503
44366W        W 5820  27.566  28.511  12.007
44367W        W 5821  22.104  14.682  10.461
44368W        W 5822  18.057  29.444   4.770
44369W        W 5823   1.915  14.255   1.371
44370W        W 5824  10.196  31.603  14.898
44371W        W 5825  21.714  40.328   2.896
44372W        W 5826  37.563  27.008   3.333
44373W        W 5827  31.132  38.503  12.493
44374W        W 5828   4.885  35.885   1.286
44375W        W 5829  14.638  25.543   0.780
44376W        W 5830  11.202  20.592   1.865
44377W        W 5831  16.734   4.254  10.541
44378W        W 5832   2.798  39.477   1.431
44379W        W 5833  25.666  13.814  12.545
44380W        W 5834   0.439   1.834   4.250
44381W        W 5835  39.337  13.838  10.502
44382W        W 5836  35.426   7.794  13.446
44383W        W 5837  27.140  21.559  12.508
44384W        W 5838  11.198  38.538   2.283
44385W        W 5839  15.823   1.937  14.029
44386W        W 5840  27.624  22.631   3.704
44387W        W 5841  23.671  31.955   3.258
44388W        W 5842  29.141  18.544   1.743
44389W        W 5843  31.506  17.126  11.522
44390W        W 5844  32.031  19.534   1.820
44391W        W 5845  12.644  13.846  11.074
44392W        W 5846  16.260  10.708   3.782
44393W        W 5847   0.387  30.962  11.106
44394W        W 5848   1.463   6.382  14.381
44395W        W 5849   8.248   0.306   2.194
44396W        W 5850  39.012  23.065   4.776
44397W        W 5851  19.646   4.232  14.814
44398W        W 5852  37.073  40.460   3.284
44399W        W 5853   3.301  15.115  10.574
44400W        W 5854   4.813  30.532   0.730
44401W        W 5855   0.253  26.994   1.335
44402W        W 5856  22.713   7.336  12.039
44403W        W 5857  37.489  41.853   3.152
44404W        W 5858  37.055  42.936  12.343
44405W        W 5859  42.997  16.803  14.477
44406W        W 5860  26.559  19.156  13.946
44407W        W 5861  35.025  31.586   2.375
44408W        W 5862  43.999  27.092  10.979
44409W        W 5863   6.284   1.734  12.994
44410W        W 5864  35.525   2.895   0.919
44411W        W 5865  18.565  39.865  11.432
44412W        W 5866  20.119   1.306   4.317
44413W        W 5867  36.879  39.349  11.592
44414W        W 5868  11.339   5.813   3.798
44415W        W 5869  33.931  19.587  12.444
44416W        W 5870  22.535  34.041  13.369
44417W        W 5871  16.683  33.132  12.950
44418W        W 5872  26.674  39.948   4.279
44419W        W 5873  41.332  42.943   1.864
44420W        W 5874   8.248  26.599  11.534
44421W        W 5875  24.661   5.832  11.516
44422W        W 5876  41.985  11.839   4.230
44423W        W 5877  25.984  37.841   1.240
44424W        W 5878  41.028  18.592  12.494
44425W        W 5879  32.425  26.556  12.910
44426W        W 5880  17.121   7.183   3.753
44427W        W 5881  25.581  17.588   1.211
44428W        W 5882   7.723   9.715   2.708
44429W        W 5883  34.553  23.041  14.025
44430W        W 5884   5.357  22.210  12.407
44431W        W 5885   5.895   6.917   3.256
44432W        W 5886   4.267   5.815   0.444
44433W        W 5887  24.085  43.928  11.909
44434W        W 5888  33.015  33.022  14.507
44435W        W 5889  32.023  34.541   0.961
44436W        W 5890  22.659  41.298   2.210
44437W        W 5891   0.853  32.528  14.873
44438W        W 5892  21.685   0.366   4.301
44439W        W 5893  26.610   2.280  14.845
44440W        W 5894  36.375  29.501   2.894
44441W        W 5895  21.227  18.093   2.367
44442W        W 5896   9.826  38.507   4.778
44443W        W 5897   3.863   7.353   4.274
44444W        W 5898  38.462  41.037  11.065
44445W        W 5899  41.508  26.967   1.878
44446W        W 5900  31.511  32.134  14.022
44447W        W 5901  12.186  41.446   3.848
44448W        W 5902  15.241  41.470   1.730
44449W        W 5903  39.410   2.348   0.275
44450W        W 5904   8.827  34.019   2.272
44451W        W 5905  19.540  37.844  12.962
44452W        W 5906  37.063   3.816   3.833
44453W        W 5907  36.008  26.171  13.471
44454W        W 5908  25.522  18.693  13.502
44455W        W 5909  35.997   7.667  14.326
44456W        W 5910  31.967  32.394   0.373
44457W        W 5911  12.773   7.692  10.422
44458W        W 5912  22.639  14.246   3.351
44459W        W 5913  44.977  25.188  10.521
44460W        W 5914  38.897  24.071  11.441
44461W        W 5915   7.856  42.901   0.313
44462W        W 5916  21.707  11.862   0.383
44463W        W 5917  34.457  34.017  10.458
44464W        W 5918  17.785  34.514   2.406
44465W        W 5919  33.075   2.277   1.701
44466W        W 5920  29.101  35.433  13.467
44467W        W 5921   0.807  43.978  10.982
44468W        W 5922  25.193  23.002  13.910
44469W        W 5923  20.052  42.303   1.451
44470W        W 5924   4.253  21.073   2.418
44471W        W 5925  30.616  29.573  14.360
44472W        W 5926  10.370  22.620  14.328
44473W        W 5927  26.521   5.433   3.690
44474W        W 5928  29.490  22.059   2.178
44475W        W 5929  23.188  23.123   4.664
44476W        W 5930   1.761  40.046   2.873
44477W        W 5931   3.876  34.505  12.846
44478W        W 5932  17.634  11.140   4.282
44479W        W 5933  28.524   0.387   1.243
44480W        W 5934  25.468  22.236   3.851
44481W        W 5935  34.561  35.017  11.868
44482W        W 5936  37.066  19.215   2.781
44483W        W 5937  39.552  14.196  11.399
44484W        W 5938  41.329  27.988   0.967
44485W        W 5939  44.485   2.249   2.728
44486W        W 5940  42.487  10.722  13.873
44487W        W 5941  10.356  39.906   4.214
44488W        W 5942  12.838   7.392   2.336
44489W        W 5943  31.472  26.697   4.181
44490W        W 5944  13.284   4.217   1.848
44491W        W 5945   5.424  44.814  14.914
44492W        W 5946  22.251  31.422  13.316
44493W        W 5947   0.410  44.807  10.602
44494W        W 5948  39.886  36.066  13.949
44495W        W 5949   6.348  42.842  13.314
44496W        W 5950  44.903  20.058   1.271
44497W        W 5951  17.104  14.807   4.278
44498W        W 5952  23.541  33.993  13.812
44499W        W 5953  19.210  14.785  14.321
44500W        W 5954   0.846  40.868  12.043
44501W        W 5955  11.824  42.889   2.823
44502W        W 5956   8.384  26.973   1.860
44503W        W 5957  12.635  15.218  14.453
44504W        W 5958  38.050  29.514   3.381
44505W        W 5959  29.987  18.077   0.323
44506W        W 5960  43.392   9.178  13.405
44507W        W 5961  18.073  21.175  12.825
44508W        W 5962   7.731  30.051   0.345
44509W        W 5963  27.963  30.115  10.973
44510W        W 5964  40.040  29.564  10.484
44511W        W 5965  28.088  32.972   4.191
44512W        W 5966   7.780  17.172   3.829
44513W        W 5967  13.303   0.967   1.296
44514W        W 5968   4.407  14.098   3.225
44515W        W 5969  30.954   4.764  12.555
44516W        W 5970  39.379   4.739  14.330
44517W        W 5971  17.641  23.015  14.458
44518W        W 5972   0.946  43.427  11.609
44519W        W 5973  26.701  13.280   2.700
44520W        W 5974  11.219   3.425   0.880
44521W        W 5975  14.831  13.171  10.478
44522W        W 5976   7.846  16.573  14.774
44523W        W 5977  23.015  35.602   0.940
44524W        W 5978  18.576  30.461   4.243
44525W        W 5979  41.401  37.442  14.318
44526W        W 5980  42.001   3.374   5.305
44527W        W 5981  21.167  13.723  13.396
44528W        W 5982  17.283   0.762   2.666
44529W        W 5983  19.172   0.821  14.312
44530W        W 5984  22.539   5.803  13.940
44531W        W 5985  15.677  15.803   2.809
44532W        W 5986  25.200  16.150   1.907
44533W        W 5987   0.422  23.568  14.976
44534W        W 5988   4.826   9.868  12.898
44535W        W 5989  16.763  43.795   0.845
44536W        W 5990  16.244  27.475  10.429
44537W        W 5991  15.691   2.260  14.462
44538W        W 5992  29.077  33.589  14.474
44539W        W 5993  31.551   1.311  13.941
44540W        W 5994  26.199  28.966  11.110
44541W        W 5995  22.514  22.173  14.926
44542W        W 5996  10.637   2.931  12.941
44543W        W 5997  14.176  33.002   0.457
44544W        W 5998  21.021  15.126  11.006
44545W        W 5999  42.447   9.733  12.958
44546W        W 6000  36.399  19.597   4.780
44547W        W 6001  16.743  25.146   1.316
44548W        W 6002  32.064   4.815   1.241
44549W        W 6003   1.374  44.954  14.292
44550W        W 6004  39.482   4.445   1.846
44551W        W 6005   8.731   4.720   2.682
44552W        W 6006  43.982  19.674  12.035
44553W        W 6007  38.521  30.592  12.394
44554W        W 6008  27.165  10.738   1.828
44555W        W 6009  11.633  32.415   1.740
44556W        W 6010  30.517   2.737   2.811
44557W        W 6011   3.782  10.710  13.384
44558W        W 6012   6.885  30.611   5.248
44559W        W 6013  32.614  14.787  10.409
44560W        W 6014  35.860  10.363  10.492
44561W        W 6015  40.972  28.946  14.371
44562W        W 6016  20.597  33.487  12.979
44563W        W 6017  36.356  43.453   4.211
44564W        W 6018   1.815  14.229  11.025
44565W        W 6019  18.146   7.350   1.418
44566W        W 6020  22.526   9.741   3.783
44567W        W 6021  18.751  31.495   4.213
44568W        W 6022  19.638   5.394   4.242
44569W        W 6023  27.552  36.537   0.760
44570W        W 6024  14.324  44.392  10.409
44571W        W 6025  15.114  11.253  11.388
44572W        W 6026  35.428  35.872   3.255
44573W        W 6027  10.140  26.069  14.872
44574W        W 6028  19.690   2.915   0.807
44575W        W 6029  37.362  13.613   4.669
44576W        W 6030  31.967   5.833   3.714
44577W        W 6031  32.119  32.137   3.200
44578W        W 6032  18.670  16.200  14.861
44579W        W 6033  44.344  12.150   0.341
44580W        W 6034   8.835  15.262  14.789
44581W        W 6035  43.363  40.798   3.302
44582W        W 6036  42.792  40.536   2.328
44583W        W 6037  27.463  32.568  13.431
44584W        W 6038  12.118  26.025  10.528
44585W        W 6039  36.542  44.499  11.027
44586W        W 6040  11.762  35.408  14.981
44587W        W 6041  21.647  21.256   2.406
44588W        W 6042   4.407  12.656   4.812
44589W        W 6043  37.936   5.422   2.772
44590W        W 6044   6.302   4.798   4.288
44591W        W 6045  35.555   1.255  11.380
44592W        W 6046  41.008   2.471  10.900
44593W        W 6047  37.549  43.401   2.844
44594W        W 6048  36.989  26.561   0.871
44595W        W 6049  43.014   4.850  10.486
44596W        W 6050  35.466  34.453  14.959
44597W        W 6051   0.848   5.374  14.908
44598W        W 6052  34.381  29.442   4.689
44599W        W 6053  23.126  29.059   4.701
44600W        W 6054  36.908  31.120   4.813
44601W        W 6055   8.193  39.848  10.470
44602W        W 6056  21.147   4.414   2.194
44603W        W 6057  29.963  38.514   1.300
44604W        W 6058  34.443  10.769   3.867
44605W        W 6059   2.356  10.658   1.290
44606W        W 6060  35.493  27.059  13.985
44607W        W 6061  40.962  43.296   3.751
44608W        W 6062  28.032  43.778  11.583
44609W        W 6063  21.662  35.955   2.757
44610W        W 6064  31.076  42.337   2.408
44611W        W 6065  14.826  27.557  12.828
44612W        W 6066   5.752  20.705   2.879
44613W        W 6067  16.584  36.994  13.482
44614W        W 6068  21.173  13.774  11.888
44615W        W 6069  17.797  26.616   3.335
44616W        W 6070   6.282  41.353   0.823
44617W        W 6071  27.145  36.456  11.570
44618W        W 6072   8.773  23.090  13.341
44619W        W 6073  19.772  15.143  12.928
44620W        W 6074  21.721  32.568  11.079
44621W        W 6075  14.725  11.678  11.541
44622W        W 6076  26.547  30.912  10.473
44623W        W 6077  33.442  30.502   4.121
44624W        W 6078  44.393  11.357  10.534
44625W        W 6079  30.433  22.162   1.228
44626W        W 6080  14.664  41.358  11.600
44627W        W 6081  33.481  25.993   4.770
44628W        W 6082  42.331   3.794   3.734
44629W        W 6083  22.544   5.313  10.085
44630W        W 6084  42.471   1.284   0.484
44631W        W 6085   8.245  33.546   0.950
44632W        W 6086  32.098  15.188  13.322
44633W        W 6087  35.417  10.829  13.471
44634W        W 6088  35.413  16.699  13.987
44635W        W 6089   4.267  10.384  14.903
44636W        W 6090  37.465  12.649  10.016
44637W        W 6091   9.743  12.635  14.900
44638W        W 6092  18.212  32.098  10.031
44639W        W 6093  28.629  15.267   2.374
44640W        W 6094  40.015  42.317   0.411
44641W        W 6095   4.241   2.904  10.442
44642W        W 6096   6.758  44.803  11.039
44643W        W 6097  40.922  18.582   1.329
44644W        W 6098   0.985  11.697   4.279
44645W        W 6099   0.972  22.625  10.957
44646W        W 6100  24.061  42.027  14.422
44647W        W 6101   0.403  21.756   3.253
44648W        W 6102  25.175  15.617   5.152
44649W        W 6103   4.715  26.181  12.932
44650W        W 6104  33.545  25.038  13.018
44651W        W 6105   9.336  21.201   9.436
44652W        W 6106  24.538  25.974   2.388
44653W        W 6107  31.468   6.829  12.536
44654W        W 6108  15.641  10.346  11.112
44655W        W 6109  27.564  26.960   0.896
44656W        W 6110  27.138  16.149   0.796
44657W        W 6111  42.369  37.057  11.413
44658W        W 6112  33.586  44.008   3.827
44659W        W 6113  13.139  16.648  10.495
44660W        W 6114  16.628  34.949  11.968
44661W        W 6115  11.729   3.370   3.739
44662W        W 6116  39.034  15.594   1.278
44663W        W 6117  40.899  34.470  13.340
44664W        W 6118  32.424  12.152  10.063
44665W        W 6119   0.792   5.771  13.451
44666W        W 6120  35.394  29.449   0.404
44667W        W 6121  11.261  29.436   0.346
44668W        W 6122  41.483  15.779   0.879
44669W        W 6123  32.577  31.604  14.917
44670W        W 6124  28.013  31.506   2.847
44671W        W 6125  41.829  32.100   0.417
44672W        W 6126  37.449  41.505   4.297
44673W        W 6127  41.375  19.077   1.804
44674W        W 6128  11.684  26.626   3.734
44675W        W 6129  19.576   7.749  12.362
44676W        W 6130   2.857  16.624   1.315
44677W        W 6131   2.272  14.825  14.976
44678W        W 6132  18.202  10.266  12.972
44679W        W 6133   8.368   5.847  14.460
44680W        W 6134  41.330  23.017   4.736
44681W        W 6135  35.417  29.619   2.253
44682W        W 6136  20.747  37.522   4.749
44683W        W 6137  44.310  21.570  11.889
44684W        W 6138   7.397  15.239   2.221
44685W        W 6139   8.257   1.859   3.275
44686W        W 6140   5.761   7.396   4.611
44687W        W 6141  26.065  38.912   2.353
44688W        W 6142  15.105  24.008   3.255
44689W        W 6143  25.661  11.822   3.687
44690W        W 6144   2.722  24.060   0.297
44691W        W 6145  36.517   5.905   2.350
44692W        W 6146  17.785   7.405   1.319
44693W        W 6147  32.998  11.657   9.667
44694W        W 6148  26.202  15.170  13.032
44695W        W 6149   5.219  18.665  11.076
44696W        W 6150  19.089  31.607  13.803
44697W        W 6151  38.063  43.314   1.839
44698W        W 6152  37.905  10.788   2.826
44699W        W 6153  44.479  42.780  13.908
44700W        W 6154  35.861   9.772   2.358
44701W        W 6155  38.564   1.918   4.203
44702W        W 6156  26.496  12.260   2.408
44703W        W 6157  43.998  28.445   2.398
44704W        W 6158  38.549  38.829   4.233
44705W        W 6159   2.359  28.092  12.562
44706W        W 6160  22.739  17.281  13.313
44707W        W 6161  30.963  40.526   4.165
44708W        W 6162  37.405  22.593  12.446
44709W        W 6163  38.072  11.337  13.961
44710W        W 6164   7.293  31.151  11.900
44711W        W 6165   3.292  41.030  13.813
44712W        W 6166  18.601  41.008  14.391
44713W        W 6167   0.966   1.365   1.708
44714W        W 6168  14.101   0.300   4.246
44715W        W 6169   8.858  19.670  13.540
44716W        W 6170  30.104  41.988   0.291
44717W        W 6171  14.717  28.568   0.823
44718W        W 6172   5.712  39.442  14.774
44719W        W 6173  26.581   0.338  13.799
44720W        W 6174  36.947  43.316  11.902
44721W        W 6175  16.153   6.295   2.797
44722W        W 6176  35.447  17.288   4.243
44723W        W 6177  31.623   1.465   4.641
44724W        W 6178  21.063  18.179  14.431
44725W        W 6179  31.025  34.023   0.845
44726W        W 6180  24.501  25.094  14.780
44727W        W 6181  21.516  18.764  13.885
44728W        W 6182  16.233   9.361   1.873
44729W        W 6183   3.806  35.087  12.846
44730W        W 6184  22.233  12.780  10.421
44731W        W 6185  16.659  20.681  12.962
44732W        W 6186  25.970  18.700  12.040
44733W        W 6187   4.242  24.088   4.288
44734W        W 6188  42.935  22.148  14.486
44735W        W 6189  40.375  13.807  10.466
44736W        W 6190  19.169  38.325  12.881
44737W        W 6191   5.824   9.668  13.026
44738W        W 6192   7.276  26.574   1.429
44739W        W 6193  15.801  19.763  10.893
44740W        W 6194  36.032  42.863  11.930
44741W        W 6195  37.433  42.307  12.421
44742W        W 6196  22.633  42.897   3.207
44743W        W 6197  44.771  35.405  12.543
44744W        W 6198   2.368  36.420   3.731
44745W        W 6199  40.512  25.552   2.800
44746W        W 6200  39.477  17.746  13.905
44747W        W 6201   0.476  35.416   2.341
44748W        W 6202  31.562  35.541   2.318
44749W        W 6203  19.134  28.934  12.936
44750W        W 6204   0.424   3.454   2.676
44751W        W 6205  43.021  40.505   5.150
44752W        W 6206  36.040  17.204  14.760
44753W        W 6207  40.390   9.248   2.780
44754W        W 6208   7.337   6.217   1.830
44755W        W 6209  25.636   7.220   0.735
44756W        W 6210  10.733  40.868   9.656
44757W        W 6211  30.928  18.695  14.857
44758W        W 6212   4.813   4.910  14.340
44759W        W 6213  20.086   0.761  12.412
44760W        W 6214  21.727   1.882  13.503
44761W        W 6215  10.267  36.482  12.348
44762W        W 6216   3.228  34.400   3.378
44763W        W 6217  11.716  38.977  12.973
44764W        W 6218  25.689  23.114  13.951
44765W        W 6219  14.641   8.706  11.577
44766W        W 6220  38.070  21.607  11.010
44767W        W 6221  41.342  26.676  10.611
44768W        W 6222  37.027   7.697  13.945
44769W        W 6223  36.391  12.811  13.347
44770W        W 6224  25.480  27.138  13.483
44771W        W 6225  38.963  23.051  14.407
44772W        W 6226  37.528  10.865   4.635
44773W        W 6227  22.728  31.611   1.397
44774W        W 6228  14.273  22.173   3.259
44775W        W 6229  26.616  15.626  12.976
44776W        W 6230   9.380  26.493  10.887
44777W        W 6231   6.285  29.612  14.373
44778W        W 6232  35.909  16.739   1.314
44779W        W 6233  35.978  19.670   4.719
44780W        W 6234   6.192   4.864   2.320
44781W        W 6235  40.482  21.717   3.165
44782W        W 6236  15.683  13.302  12.372
44783W        W 6237  33.383   5.791   1.915
44784W        W 6238   3.225  21.183   4.140
44785W        W 6239  37.901  28.444  13.387
44786W        W 6240  35.913  38.563   2.332
44787W        W 6241  39.522  13.121   1.398
44788W        W 6242  16.116  33.401   4.203
44789W        W 6243   1.381  15.299   4.757
44790W        W 6244  41.922  12.358   4.637
44791W        W 6245  34.470  37.041   1.223
44792W        W 6246  36.495  28.108  10.523
44793W        W 6247  43.349   1.779  13.054
44794W        W 6248  39.414  14.762  12.970
44795W        W 6249   8.744  15.238  13.951
44796W        W 6250   2.251  18.184   4.284
44797W        W 6251   5.297  14.781   1.903
44798W        W 6252  25.086   8.331  13.364
44799W        W 6253  23.508   1.433   0.346
44800W        W 6254  18.055   0.459   4.758
44801W        W 6255  19.223  25.509  14.381
44802W        W 6256  16.129   4.425   2.900
44803W        W 6257  32.554  38.029   2.207
44804W        W 6258  16.087   7.173   0.361
44805W        W 6259  11.779  41.510  13.795
44806W        W 6260  16.238   9.781  10.159
44807W        W 6261  26.036  11.223   4.291
44808W        W 6262  43.885  34.607   3.632
44809W        W 6263  42.319  25.119  11.550
44810W        W 6264  23.226  37.005   0.258
44811W        W 6265  18.770   4.217   4.235
44812W        W 6266  29.977  26.628  12.514
44813W        W 6267  28.119  41.815   3.766
44814W        W 6268  37.339   7.715   3.343
44815W        W 6269  33.987   3.731   3.306
44816W        W 6270   6.427   2.278  13.381
44817W        W 6271  10.291  13.185   4.248
44818W        W 6272  29.557  27.020  14.021
44819W        W 6273  29.922  34.940   3.255
44820W        W 6274  21.747  20.718   2.885
44821W        W 6275  21.719  10.294  14.786
44822W        W 6276   7.745  38.898  13.369
44823W        W 6277  38.041   6.784   1.897
44824W        W 6278   8.746   3.396   3.242
44825W        W 6279  12.118  21.076  14.809
44826W        W 6280  26.193  30.099  13.364
44827W        W 6281   3.877   3.443  13.508
44828W        W 6282   0.388  43.914  12.531
44829W        W 6283  29.446   4.219  12.910
44830W        W 6284  44.381   8.318   0.743
44831W        W 6285   1.927  17.244   5.313
44832W        W 6286  35.014   1.842  14.932
44833W        W 6287  21.261  33.130  12.521
44834W        W 6288  12.723  19.188  11.595
44835W        W 6289   2.260  29.999  10.503
44836W        W 6290  44.318  23.513   4.283
44837W        W 6291  19.127   0.440  10.981
44838W        W 6292  42.833  39.831   0.943
44839W        W 6293  22.032   4.850  12.536
44840W        W 6294   5.746  36.415  11.423
44841W        W 6295  23.089  35.490   1.322
44842W        W 6296   0.262  37.935   1.210
44843W        W 6297  43.400   3.896  12.907
44844W        W 6298  27.464   2.241   3.721
44845W        W 6299  21.717   4.348   0.924
44846W        W 6300  34.967  18.204   0.896
44847W        W 6301  23.676  13.257   0.258
44848W        W 6302  29.536  41.502   0.398
44849W        W 6303   0.453  20.049  14.493
44850W        W 6304  30.049   7.369   3.682
44851W        W 6305  13.329  28.649   4.183
44852W        W 6306   3.403  25.049  12.416
44853W        W 6307  19.046   5.224   2.266
44854W        W 6308  40.856  26.486  11.514
44855W        W 6309  33.412  26.009   3.299
44856W        W 6310  36.073  33.552   0.461
44857W        W 6311  23.224  25.084  13.948
44858W        W 6312  14.758  20.543   4.787
44859W        W 6313  10.733  14.801   1.338
44860W        W 6314  17.736  13.284   0.746
44861W        W 6315  37.005  35.450  12.071
44862W        W 6316  32.068  40.050  13.983
44863W        W 6317  18.625   6.414  10.931
44864W        W 6318  25.499  20.621  12.426
44865W        W 6319  43.913   5.800  13.423
44866W        W 6320   1.459  12.297   2.828
44867W        W 6321  42.865  21.513  11.940
44868W        W 6322  43.495  32.449   0.449
44869W        W 6323  21.642  33.610  12.514
44870W        W 6324   7.841  42.859  13.974
44871W        W 6325  10.142  41.440  13.030
44872W        W 6326  40.912  39.927   3.699
44873W        W 6327  22.510   9.372   5.109
44874W        W 6328   2.318   0.840  12.451
44875W        W 6329   3.948  35.016   2.228
44876W        W 6330  24.087  23.549  12.348
44877W        W 6331  13.625  30.450  13.515
44878W        W 6332  32.446  40.506  14.779
44879W        W 6333  42.782  34.610  11.441
44880W        W 6334  19.119  10.193  14.353
44881W        W 6335  20.610  23.044  12.904
44882W        W 6336   3.366  28.066  11.554
44883W        W 6337  12.628   4.757  14.470
44884W        W 6338  24.196  10.178   0.788
44885W        W 6339   8.225  22.053   2.316
44886W        W 6340  15.624   1.382  14.879
44887W        W 6341  25.164  24.588   1.744
44888W        W 6342  23.238  41.424   1.304
44889W        W 6343  14.279  36.572  14.783
44890W        W 6344   2.819  13.302  11.416
44891W        W 6345  27.117  44.860  11.493
44892W        W 6346  43.008   3.943   4.269
44893W        W 6347  44.938  23.655   0.253
44894W        W 6348  11.266  13.167   4.269
44895W        W 6349  39.936  16.300  11.859
44896W        W 6350  18.545  10.247  11.879
44897W        W 6351  25.051   8.794   0.851
44898W        W 6352  38.952  26.168   3.706
44899W        W 6353   0.409  20.144  14.946
44900W        W 6354  24.683   7.703   1.215
44901W        W 6355  14.661  12.284   0.258
44902W        W 6356  41.384  38.928   0.762
44903W        W 6357  36.512   4.834   5.262
44904W        W 6358  42.345  34.090   4.291
44905W        W 6359  28.986  36.071   4.735
44906W        W 6360   9.291   1.907   9.940
44907W        W 6361  40.988  34.034  13.834
44908W        W 6362  43.419  33.016  14.408
44909W        W 6363   4.937   8.886  12.547
44910W        W 6364  25.999  40.387   1.312
44911W        W 6365  36.047  26.631  11.523
44912W        W 6366  21.523  19.747  11.423
44913W        W 6367  11.231  18.101  14.016
44914W        W 6368  33.517  31.574   3.211
44915W        W 6369  26.631   0.785   0.369
44916W        W 6370  16.213  36.016   4.288
44917W        W 6371  41.894  18.054  13.983
44918W        W 6372  15.759  40.346   2.375
44919W        W 6373  33.119  31.427  13.425
44920W        W 6374  12.348  22.601   2.756
44921W        W 6375  19.210  19.166  14.950
44922W        W 6376  44.825   1.934  11.451
44923W        W 6377  22.135  29.070   1.331
44924W        W 6378  21.713  24.603   3.712
44925W        W 6379  10.835  15.308   4.602
44926W        W 6380   7.709  26.523  11.015
44927W        W 6381   0.819  18.065  14.381
44928W        W 6382  36.409  33.408   2.862
44929W        W 6383  20.759  39.827  14.766
44930W        W 6384  13.305  25.012   2.372
44931W        W 6385  18.199  31.069  14.345
44932W        W 6386  24.167   7.774   3.796
44933W        W 6387  31.638  33.421   2.718
44934W        W 6388  27.462   5.311  10.947
44935W        W 6389  42.405  43.001  13.912
44936W        W 6390   3.459  30.956   3.255
44937W        W 6391  32.896  21.629  13.389
44938W        W 6392  38.973  36.069   4.648
44939W        W 6393  40.535   7.320   2.354
44940W        W 6394  13.122   8.739   3.807
44941W        W 6395  26.172  40.958  13.903
44942W        W 6396   8.243   1.407  10.550
44943W        W 6397  40.510  43.990  14.798
44944W        W 6398  40.446  16.169  13.481
44945W        W 6399   4.785  27.631  11.074
44946W        W 6400  40.439  37.055   3.183
44947W        W 6401  37.344  14.258  14.907
44948W        W 6402   7.700  20.223  12.067
44949W        W 6403  38.895  13.719  11.128
44950W        W 6404   7.745  16.265   3.744
44951W        W 6405  37.071   2.315  14.509
44952W        W 6406  40.870  32.397   1.922
44953W        W 6407  15.192  21.643  13.826
44954W        W 6408  22.716  39.846   9.991
44955W        W 6409  24.703  33.410  12.445
44956W        W 6410   6.761  26.679   2.337
44957W        W 6411  39.491  37.982   1.395
44958W        W 6412  25.982  20.205  12.423
44959W        W 6413   9.286  22.573   3.711
44960W        W 6414  21.154   6.705  13.976
44961W        W 6415  32.445   5.385   1.337
44962W        W 6416   3.236  28.468  14.409
44963W        W 6417  39.457  16.172   0.845
44964W        W 6418  34.387  30.620  10.626
44965W        W 6419  11.782  38.328   4.273
44966W        W 6420  40.820  32.929   1.441
44967W        W 6421  43.397   7.902   2.772
44968W        W 6422  34.506  44.872  11.570
44969W        W 6423   6.686  22.031  14.333
44970W        W 6424   0.312  41.369   2.673
44971W        W 6425  14.690  14.701  13.408
44972W        W 6426  33.383  39.340   2.207
44973W        W 6427   4.922  33.921  11.000
44974W        W 6428  28.546  13.811   3.633
44975W        W 6429  35.442  25.529  14.876
44976W        W 6430  37.886  20.525  12.369
44977W        W 6431   3.749  31.145  14.515
44978W        W 6432  38.978  17.295   1.789
44979W        W 6433  13.124  26.158  14.420
44980W        W 6434  34.597  37.902  10.979
44981W        W 6435  24.046  32.924  12.972
44982W        W 6436  26.613  14.173  11.511
44983W        W 6437  28.046  40.939   1.775
44984W        W 6438  21.148  33.392   3.377
44985W        W 6439  19.272  43.967  12.381
44986W        W 6440  26.469  13.639   3.276
44987W        W 6441   7.227  15.273   4.662
44988W        W 6442  39.990  19.656   1.758
44989W        W 6443  12.203   4.256   3.275
44990W        W 6444  12.240  20.068  11.941
44991W        W 6445   4.237  25.118  14.973
44992W        W 6446  16.698   4.250  14.802
44993W        W 6447  18.664  34.597  11.985
44994W        W 6448  44.487   9.346  14.864
44995W        W 6449  15.321  22.593   0.830
44996W        W 6450   6.405  32.962  12.494
44997W        W 6451  17.592  39.818   3.306
44998W        W 6452  15.129  11.862  11.948
44999W        W 6453  40.900   2.284  13.352
45000W        W 6454  19.045  31.492   3.716
45001W        W 6455   9.738  19.544  12.550
45002W        W 6456  38.871  25.218   1.289
45003W        W 6457  10.761   4.346  12.495
45004W        W 6458  28.500  14.256   1.274
45005W        W 6459   8.766  30.516   0.740
45006W        W 6460   1.479  40.832  13.489
45007W        W 6461  32.112  40.803  14.367
45008W        W 6462   9.355   9.362   0.319
45009W        W 6463  39.555   6.340  14.784
45010W        W 6464  20.205  13.163  11.987
45011W        W 6465  32.079   5.194  10.452
45012W        W 6466   1.805  24.565  12.351
45013W        W 6467  25.686  14.283  14.462
45014W        W 6468   0.474  19.223  10.537
45015W        W 6469  35.979  28.088  11.372
45016W        W 6470  26.187  31.013   0.334
45017W        W 6471  23.098  39.339   2.815
45018W        W 6472  16.622  39.971  12.834
45019W        W 6473  18.161  44.334  14.337
45020W        W 6474  17.686  34.899  11.977
45021W        W 6475  36.843  11.159  13.380
45022W        W 6476  38.534  36.077   1.817
45023W        W 6477  26.041   0.920   0.847
45024W        W 6478   5.906   2.938  14.414
45025W        W 6479   0.381  19.547  13.833
45026W        W 6480  34.929  40.824   2.902
45027W        W 6481   0.399  11.254   1.861
45028W        W 6482  39.824  13.706   1.728
45029W        W 6483   2.789  42.969  14.438
45030W        W 6484  15.695   3.287   0.465
45031W        W 6485   3.282   7.260   2.182
45032W        W 6486  32.080  27.542   3.861
45033W        W 6487  10.250   5.281   0.771
45034W        W 6488  11.207  26.117   3.338
45035W        W 6489  19.122  21.254  11.931
45036W        W 6490  42.333  17.263   0.286
45037W        W 6491  11.284  16.610  14.385
45038W        W 6492  25.172  37.835   3.338
45039W        W 6493   5.348  39.049  10.435
45040W        W 6494   2.365  44.311   3.328
45041W        W 6495  24.631  13.841   0.276
45042W        W 6496   7.361   1.960   4.722
45043W        W 6497   4.912  33.384  12.953
45044W        W 6498  34.611  22.557   2.186
45045W        W 6499  28.028  14.818   1.849
45046W        W 6500  34.074  12.680   0.384
45047W        W 6501   3.329  27.970  11.895
45048W        W 6502  27.596  40.799  10.890
45049W        W 6503  29.502  32.602  11.969
45050W        W 6504  20.121  41.996  10.469
45051W        W 6505  37.051  27.168  13.833
45052W        W 6506  31.003  25.108   2.718
45053W        W 6507  24.078  16.080  11.606
45054W        W 6508  19.188   2.282   4.699
45055W        W 6509   2.828  37.007   4.664
45056W        W 6510   1.345  37.074   4.256
45057W        W 6511  23.654   0.368   4.240
45058W        W 6512  34.371  23.688  11.885
45059W        W 6513  40.477  32.524  11.944
45060W        W 6514  21.253  11.750   4.248
45061W        W 6515  35.984  43.271   0.438
45062W        W 6516  36.420  37.442  14.503
45063W        W 6517   4.875   9.789   1.242
45064W        W 6518  18.629  36.058   1.876
45065W        W 6519  10.166   7.872   4.688
45066W        W 6520  19.095  24.659  10.593
45067W        W 6521  44.834  44.421  14.914
45068W        W 6522  25.560  42.876  10.456
45069W        W 6523  35.077  16.742  14.771
45070W        W 6524  30.618  29.165  12.977
45071W        W 6525  41.830   6.764   1.405
45072W        W 6526   0.380   5.856   0.414
45073W        W 6527  28.151  14.694  13.378
45074W        W 6528  34.548  17.242   3.348
45075W        W 6529   8.681  37.503   5.157
45076W        W 6530  31.938  31.494  12.406
45077W        W 6531   3.328  12.737   4.301
45078W        W 6532  39.949  27.595   1.340
45079W        W 6533  34.411  23.137   2.336
45080W        W 6534  43.927  38.448   2.218
45081W        W 6535  21.684   4.716   4.297
45082W        W 6536  26.471  34.957  12.530
45083W        W 6537  38.424  23.661   3.719
45084W        W 6538  20.761  20.538   4.806
45085W        W 6539  11.367  22.047   2.400
45086W        W 6540  17.662  12.690   2.380
45087W        W 6541   8.280  21.227  13.349
45088W        W 6542  44.936  10.322  12.954
45089W        W 6543  27.160  29.058   2.325
45090W        W 6544  40.375  34.986   4.639
45091W        W 6545  24.075  26.480  10.472
45092W        W 6546  15.227  24.630   3.369
45093W        W 6547   9.783  20.666   0.774
45094W        W 6548  41.466  35.969   0.956
45095W        W 6549  27.030   6.909   2.196
45096W        W 6550  20.733   7.859  13.818
45097W        W 6551  12.704  25.198  12.450
45098W        W 6552   2.775  36.047   1.337
45099W        W 6553  25.123  20.741  12.969
45100W        W 6554  31.034  26.701   0.407
45101W        W 6555  38.926  33.495   3.714
45102W        W 6556  16.697  18.091  13.901
45103W        W 6557  27.459   5.779   5.667
45104W        W 6558  29.106  32.465   1.757
45105W        W 6559  15.156   7.197  12.857
45106W        W 6560  18.136  12.712  12.828
45107W        W 6561  25.122   7.231   0.252
45108W        W 6562  13.715  34.615   3.308
45109W        W 6563  28.935   1.258   3.164
45110W        W 6564  30.433  18.666  12.508
45111W        W 6565   5.261   8.192   2.874
45112W        W 6566  14.178  29.939  13.494
45113W        W 6567  33.910  25.138  12.501
45114W        W 6568  12.286  21.753   3.355
45115W        W 6569  37.538  24.218   0.878
45116W        W 6570  41.920  24.998  12.056
45117W        W 6571  11.777   9.875   3.245
45118W        W 6572   5.379  11.782   0.408
45119W        W 6573  37.529  11.663   5.296
45120W        W 6574  14.303  41.523   2.809
45121W        W 6575  26.134  10.331  11.582
45122W        W 6576  31.106   4.355  13.919
45123W        W 6577  32.032  25.554  14.384
45124W        W 6578  19.171   6.345   3.384
45125W        W 6579  44.993   2.261  12.970
45126W        W 6580  15.157  30.087  11.413
45127W        W 6581  10.378  14.247   2.309
45128W        W 6582  28.680  37.948   0.845
45129W        W 6583  40.978  29.975  10.892
45130W        W 6584  43.010  18.065  11.581
45131W        W 6585   2.949  36.868   4.143
45132W        W 6586   9.757  14.704   0.474
45133W        W 6587   2.825  18.701  11.579
45134W        W 6588   3.942  22.251  10.553
45135W        W 6589  37.546  36.579  11.569
45136W        W 6590  39.016   5.721   4.205
45137W        W 6591  12.668   0.416   1.791
45138W        W 6592  21.725  16.279   4.239
45139W        W 6593  23.588  23.192   2.398
45140W        W 6594  37.432   5.247  12.915
45141W        W 6595   9.834  30.068   3.238
45142W        W 6596  21.089  43.409   4.326
45143W        W 6597   0.440  32.541   1.273
45144W        W 6598   2.784  24.502  11.536
45145W        W 6599  32.926  25.542  12.852
45146W        W 6600  37.547   6.693  13.795
45147W        W 6601  40.829  23.492   2.314
45148W        W 6602   5.313   8.731  14.387
45149W        W 6603  31.145  26.152   0.774
45150W        W 6604  18.572   9.314   4.237
45151W        W 6605  20.689  27.526   2.711
45152W        W 6606  44.890  13.346  13.052
45153W        W 6607   6.241  24.117   0.326
45154W        W 6608  20.028  35.065  13.894
45155W        W 6609   3.323  17.075  12.547
45156W        W 6610  28.930  20.594  13.048
45157W        W 6611  35.373   0.945   1.790
45158W        W 6612   4.719  20.577  14.346
45159W        W 6613  18.718  33.434  11.939
45160W        W 6614  13.314   8.658  10.430
45161W        W 6615  29.013  14.770   4.699
45162W        W 6616  34.070  15.706  10.504
45163W        W 6617  34.447  29.148  13.408
45164W        W 6618  28.944   0.898  11.085
45165W        W 6619  35.383  20.607  13.339
45166W        W 6620   0.925  35.485  10.504
45167W        W 6621  17.107  18.715  14.403
45168W        W 6622   4.253  19.141  14.481
45169W        W 6623  39.949  38.966  12.356
45170W        W 6624  27.594  29.492  14.766
45171W        W 6625   3.321  31.922   2.860
45172W        W 6626   9.889  40.886   5.293
45173W        W 6627  39.983  37.340   0.865
45174W        W 6628  21.632  30.435  11.964
45175W        W 6629  16.100  27.059   2.295
45176W        W 6630  10.680  18.283  12.480
45177W        W 6631  41.420   8.381  13.436
45178W        W 6632  42.954  24.569   2.715
45179W        W 6633  15.602  30.151  14.935
45180W        W 6634  14.717  13.112  14.496
45181W        W 6635  11.231  43.338  13.536
45182W        W 6636   1.424  27.959  11.515
45183W        W 6637  19.636  28.517  12.849
45184W        W 6638   8.260  25.167  10.525
45185W        W 6639   5.300   5.430   2.291
45186W        W 6640   9.371  40.045   3.646
45187W        W 6641   4.802  25.090   4.769
45188W        W 6642  31.048  28.983  11.555
45189W        W 6643  33.925   7.233  12.834
45190W        W 6644  30.491  35.089   1.289
45191W        W 6645  37.438  31.509   4.222
45192W        W 6646  27.024  27.019   2.310
45193W        W 6647  25.068  23.205   4.810
45194W        W 6648  17.709  43.883  13.821
45195W        W 6649  32.051  20.533  12.542
45196W        W 6650  22.734  17.613   4.152
45197W        W 6651  22.605   9.256  11.906
45198W        W 6652  10.795   6.757   1.816
45199W        W 6653   5.382  39.964  13.031
45200W        W 6654  34.449  22.079   2.739
45201W        W 6655  43.924  27.623  13.058
45202W        W 6656  28.931  17.195  12.544
45203W        W 6657  23.054  15.719  13.844
45204W        W 6658  31.572  22.693   9.606
45205W        W 6659  43.811   3.953   1.734
45206W        W 6660  34.450  37.408   2.846
45207W        W 6661  32.082  34.587  14.933
45208W        W 6662   9.234  35.548  14.989
45209W        W 6663  19.540  36.528  11.885
45210W        W 6664  30.431   1.386  13.393
45211W        W 6665   0.949  20.578  12.855
45212W        W 6666   4.809  37.035  10.437
45213W        W 6667   5.858  10.296   0.763
45214W        W 6668  42.909   0.291   4.677
45215W        W 6669  25.610   3.294   5.165
45216W        W 6670  19.192  14.815  13.860
45217W        W 6671   0.811   6.699   1.735
45218W        W 6672  15.587  18.196   3.832
45219W        W 6673  40.965   9.339  10.425
45220W        W 6674  21.234   1.270  14.001
45221W        W 6675  41.336   8.674  13.996
45222W        W 6676  28.093   5.334  10.957
45223W        W 6677  10.358  41.498  10.153
45224W        W 6678  40.392  41.515  12.432
45225W        W 6679   8.696  16.300   3.708
45226W        W 6680  22.572  29.458   3.634
45227W        W 6681   4.371  40.394  14.000
45228W        W 6682  38.327  20.201  14.857
45229W        W 6683  24.686  28.096   4.325
45230W        W 6684  22.212   1.471   4.715
45231W        W 6685   1.359  21.734   3.302
45232W        W 6686  10.847   2.854   1.435
45233W        W 6687  27.460  12.207  13.040
45234W        W 6688  20.575  16.258  11.935
45235W        W 6689  14.797  14.767   2.827
45236W        W 6690  20.690   0.280  11.572
45237W        W 6691  38.019   4.216   4.754
45238W        W 6692  43.842   1.431  11.097
45239W        W 6693   5.696  14.099   2.831
45240W        W 6694  26.471   6.252   0.243
45241W        W 6695  13.782   3.850   3.734
45242W        W 6696   6.345  38.539   0.281
45243W        W 6697  10.216  33.057   2.786
45244W        W 6698  42.304  26.008   3.155
45245W        W 6699  32.045   2.303  14.883
45246W        W 6700  20.682  38.910   2.790
45247W        W 6701  16.239  24.069   4.682
45248W        W 6702   5.289  21.566   2.722
45249W        W 6703  33.426  25.210   1.214
45250W        W 6704   4.250  22.547   1.745
45251W        W 6705  13.733   4.450  12.560
45252W        W 6706   1.350  44.778  11.102
45253W        W 6707  30.627   8.815   3.816
45254W        W 6708  35.959   3.423   0.299
45255W        W 6709  40.319   9.662  13.544
45256W        W 6710  25.532  35.459   1.236
45257W        W 6711  27.966  30.466   4.665
45258W        W 6712  38.906   0.384   1.220
45259W        W 6713  20.711  19.082  10.894
45260W        W 6714   1.241   2.394   3.631
45261W        W 6715  26.464  21.230   1.811
45262W        W 6716  33.996   5.226   3.838
45263W        W 6717   1.353  37.040   3.155
45264W        W 6718  13.268   5.326   4.289
45265W        W 6719  23.718  16.157  10.547
45266W        W 6720  17.669  27.997   0.861
45267W        W 6721  31.046   7.318  12.460
45268W        W 6722  38.565   7.862   2.386
45269W        W 6723  12.273  12.128   2.416
45270W        W 6724  31.144   4.874  11.022
45271W        W 6725  36.056   5.845  14.957
45272W        W 6726  39.848  12.141   4.693
45273W        W 6727  10.817   1.382   1.768
45274W        W 6728  41.459  15.297  10.411
45275W        W 6729  11.736  38.414  12.980
45276W        W 6730  42.829  36.507   2.227
45277W        W 6731  38.468  17.714  11.997
45278W        W 6732  21.515  41.446  12.085
45279W        W 6733  32.142  28.024   1.755
45280W        W 6734  24.628  31.484  12.389
45281W        W 6735  36.503  35.447  13.899
45282W        W 6736  25.637   6.231   1.790
45283W        W 6737  42.915  17.585  11.496
45284W        W 6738   4.299  12.211   3.265
45285W        W 6739  32.585  31.443   3.669
45286W        W 6740   3.936  39.867   2.886
45287W        W 6741  40.860  27.529  11.376
45288W        W 6742  33.008  20.741  13.428
45289W        W 6743   4.751  34.420   0.901
45290W        W 6744  19.775  20.076  13.349
45291W        W 6745  21.516   7.750   2.326
45292W        W 6746  15.267  43.460  10.910
45293W        W 6747   5.322   2.446   4.252
45294W        W 6748  31.087  22.234  10.905
45295W        W 6749  13.732  33.108  11.869
45296W        W 6750  31.062   3.425  14.910
45297W        W 6751  22.511  34.096  14.365
45298W        W 6752   2.453   4.230  14.762
45299W        W 6753  12.734   8.838  10.521
45300W        W 6754  40.043   8.228  10.916
45301W        W 6755  22.636  11.742   0.415
45302W        W 6756  26.087  35.054   0.878
45303W        W 6757  34.462  17.571   0.853
45304W        W 6758  16.251   4.269   4.334
45305W        W 6759   4.898  25.168  11.441
45306W        W 6760  18.634  14.269   1.330
45307W        W 6761  24.128  30.163   3.672
45308W        W 6762  14.103  24.986  11.887
45309W        W 6763  34.935  34.019   1.741
45310W        W 6764   0.908   5.204   4.720
45311W        W 6765  32.940  36.960   3.646
45312W        W 6766   1.375  23.988  13.488
45313W        W 6767  17.221  37.456  13.369
45314W        W 6768   0.493  33.073   4.606
45315W        W 6769  25.009   4.923  13.437
45316W        W 6770  20.654  15.156   2.363
45317W        W 6771  33.524  26.102  14.798
45318W        W 6772  10.322  12.248  14.283
45319W        W 6773  19.052  29.439  13.024
45320W        W 6774   6.310  21.543  11.897
45321W        W 6775   9.734  15.599   3.204
45322W        W 6776  22.038  25.045   4.319
45323W        W 6777  30.140  39.434   3.676
45324W        W 6778  29.971  21.107   2.344
45325W        W 6779  30.617   1.864   3.384
45326W        W 6780  42.377  40.818  14.423
45327W        W 6781  40.864  20.205  11.573
45328W        W 6782  11.734  21.080  13.912
45329W        W 6783  14.177  38.327   2.260
45330W        W 6784  39.008  42.788   3.671
45331W        W 6785  12.714  35.051  10.508
45332W        W 6786  35.072  18.788   4.605
45333W        W 6787  29.048  24.084   0.397
45334W        W 6788  28.478  36.068  11.598
45335W        W 6789  23.127  11.854   0.434
45336W        W 6790  27.516  14.781   4.655
45337W        W 6791  29.631  30.930  11.489
45338W        W 6792  32.629  40.979  10.918
45339W        W 6793  18.153  20.267  13.514
45340W        W 6794  20.214  18.715   0.732
45341W        W 6795  37.556   4.706   2.838
45342W        W 6796  36.969  21.261   1.214
45343W        W 6797   3.892  12.705   3.228
45344W        W 6798  18.600  44.381   9.949
45345W        W 6799  27.503  29.054   1.935
45346W        W 6800  41.941   1.441  14.844
45347W        W 6801   8.273  22.615   1.869
45348W        W 6802  31.038   3.253   1.256
45349W        W 6803  40.046  23.733  10.481
45350W        W 6804   3.364  11.837  10.954
45351W        W 6805  39.415   5.720  12.882
45352W        W 6806  35.000  37.386  12.502
45353W        W 6807   6.779  12.317   4.276
45354W        W 6808  30.045  30.457   2.365
45355W        W 6809  13.717  13.182   1.429
45356W        W 6810  40.923  36.550   4.634
45357W        W 6811  36.579   0.814   0.364
45358W        W 6812  19.554  32.977   1.893
45359W        W 6813  16.286  24.226  14.955
45360W        W 6814  11.330  26.993  12.969
45361W        W 6815  21.094   5.311  13.369
45362W        W 6816   9.709  40.527  13.533
45363W        W 6817  15.107  28.003   2.784
45364W        W 6818  19.056  26.585  12.423
45365W        W 6819  22.641  42.366   4.274
45366W        W 6820  35.487  14.100  10.534
45367W        W 6821  27.082  10.826  14.318
45368W        W 6822  38.533   5.707   2.790
45369W        W 6823  25.055  12.251   2.868
45370W        W 6824  37.885  41.972   0.956
45371W        W 6825  22.578  13.795   2.226
45372W        W 6826  28.029  26.090   4.737
45373W        W 6827  19.564   7.387   1.747
45374W        W 6828   7.787  24.055   1.737
45375W        W 6829  34.954  40.841   0.325
45376W        W 6830  40.821   6.240   1.758
45377W        W 6831  21.669  12.708  13.999
45378W        W 6832  42.846  33.074   4.323
45379W        W 6833   0.962   4.717   3.808
45380W        W 6834  36.847  35.087   4.679
45381W        W 6835  20.075  14.140  14.410
45382W        W 6836  20.646   1.923  14.776
45383W        W 6837  16.186  32.526  13.811
45384W        W 6838  12.291  31.031   2.755
45385W        W 6839  28.602  36.043   2.328
45386W        W 6840  30.953   8.761   0.828
45387W        W 6841  29.559   7.749   3.689
45388W        W 6842  20.762  34.017   0.472
45389W        W 6843   8.686   0.474   0.807
45390W        W 6844   1.458  21.152   3.822
45391W        W 6845  11.813  43.937   4.134
45392W        W 6846  39.351  22.506   1.906
45393W        W 6847  40.538  37.394   2.831
45394W        W 6848  38.966  35.504   2.678
45395W        W 6849   9.833  38.513   1.745
45396W        W 6850  27.941  31.595  12.442
45397W        W 6851  30.606  30.579   3.352
45398W        W 6852  27.674  31.925  13.058
45399W        W 6853  15.314   0.463  10.574
45400W        W 6854  42.384  41.988  14.020
45401W        W 6855  34.922  12.248   0.744
45402W        W 6856  43.456  12.778  11.907
45403W        W 6857   4.267   7.729  11.113
45404W        W 6858  11.300  25.014  11.608
45405W        W 6859  24.652  41.874   0.332
45406W        W 6860  40.844  40.923   9.999
45407W        W 6861  34.106  18.057   2.248
45408W        W 6862   6.271  32.988  11.398
45409W        W 6863  26.082  20.706  13.018
45410W        W 6864  12.670  20.708  11.453
45411W        W 6865  43.354  15.329   0.826
45412W        W 6866   5.245  24.148   0.484
45413W        W 6867  36.075   2.419   0.729
45414W        W 6868  16.572  39.511  11.526
45415W        W 6869  27.594  40.359   2.718
45416W        W 6870  16.220  39.919  14.983
45417W        W 6871  11.783  35.086   3.378
45418W        W 6872  21.593  38.340  13.826
45419W        W 6873  43.905   8.715   1.917
45420W        W 6874  25.500  25.660  14.972
45421W        W 6875  31.005   5.267  12.418
45422W        W 6876  33.986  25.497  14.762
45423W        W 6877  40.921  17.208   0.399
45424W        W 6878  22.674  24.126   1.297
45425W        W 6879  43.470  43.955  11.523
45426W        W 6880   5.225   7.765  13.439
45427W        W 6881  18.109  16.734  14.291
45428W        W 6882  29.138  33.622  11.868
45429W        W 6883  34.372  42.907  13.972
45430W        W 6884  13.149  22.643   4.232
45431W        W 6885  32.473  44.335  13.932
45432W        W 6886   8.256  39.889  12.365
45433W        W 6887  28.023  29.512  14.953
45434W        W 6888  23.111  23.723  11.973
45435W        W 6889   2.298  36.889   2.773
45436W        W 6890  41.032  25.538  11.499
45437W        W 6891  34.568  43.975  12.887
45438W        W 6892  41.805  14.795  13.482
45439W        W 6893  20.059  22.097  10.903
45440W        W 6894   6.378  44.485   0.911
45441W        W 6895  33.456  36.932  11.420
45442W        W 6896   6.246  39.882   5.192
45443W        W 6897   8.401   9.340   4.292
45444W        W 6898  33.022  35.048   0.276
45445W        W 6899  32.484  13.724   0.398
45446W        W 6900  17.237   6.897   4.662
45447W        W 6901  35.544   1.816  10.902
45448W        W 6902  28.962  11.788   1.843
45449W        W 6903   5.859  28.529  14.031
45450W        W 6904  43.806  11.178  12.834
45451W        W 6905  19.064  17.616   2.736
45452W        W 6906   2.421  38.822  11.438
45453W        W 6907   1.882  32.467   0.470
45454W        W 6908  18.216   0.421   1.841
45455W        W 6909   0.484  40.414  13.027
45456W        W 6910   8.231  23.625  11.040
45457W        W 6911   7.322  33.907   3.785
45458W        W 6912  25.038  34.460  11.545
45459W        W 6913  12.649   6.884  14.434
45460W        W 6914  35.983  12.333  10.948
45461W        W 6915  36.036  15.318   0.896
45462W        W 6916  14.706  14.302  14.443
45463W        W 6917  43.329  42.850  11.086
45464W        W 6918   3.933   2.324   4.170
45465W        W 6919  32.968  19.678  13.411
45466W        W 6920  43.449  42.329  12.983
45467W        W 6921   8.306  22.123  10.502
45468W        W 6922  26.637   5.228   0.371
45469W        W 6923  32.575  34.038   2.762
45470W        W 6924  42.873   4.334   4.780
45471W        W 6925  29.141   8.821   3.836
45472W        W 6926  26.475  26.167  12.431
45473W        W 6927  35.447  33.943   1.386
45474W        W 6928   7.888  20.176   1.816
45475W        W 6929  28.562  22.513   3.690
45476W        W 6930   9.857  35.001   4.299
45477W        W 6931  32.978   7.731  14.380
45478W        W 6932  35.437   3.844  12.853
45479W        W 6933  44.845  12.681   4.618
45480W        W 6934  40.004  31.420  13.864
45481W        W 6935   0.305  32.991   1.335
45482W        W 6936  33.432  11.685  14.910
45483W        W 6937   2.471   1.781  10.484
45484W        W 6938  32.563  15.245  13.930
45485W        W 6939  41.345  40.816   3.634
45486W        W 6940  44.899  15.674  10.052
45487W        W 6941  21.693   9.885  12.065
45488W        W 6942  31.503   8.656   3.339
45489W        W 6943   5.745  12.712  13.875
45490W        W 6944  37.412  19.617   2.195
45491W        W 6945   9.808  40.042   3.221
45492W        W 6946  44.378   3.459  13.818
45493W        W 6947   8.775  39.469   0.866
45494W        W 6948  25.562   5.356  13.309
45495W        W 6949  10.278  34.875   2.772
45496W        W 6950   1.797  20.697  11.869
45497W        W 6951   1.971  36.397  12.548
45498W        W 6952  27.583  37.074   2.700
45499W        W 6953   0.797   1.476  14.763
45500W        W 6954   3.216  22.025   2.196
45501W        W 6955  38.364  42.351   2.879
45502W        W 6956  32.142  33.076   4.117
45503W        W 6957   9.382  37.521   2.277
45504W        W 6958   5.920  29.965  12.473
45505W        W 6959  24.977  23.679  12.442
45506W        W 6960   2.335   4.803  10.500
45507W        W 6961  43.003   5.701   3.259
45508W        W 6962   4.342  43.497  14.028
45509W        W 6963  24.135  23.589   3.257
45510W        W 6964   2.341  43.443   2.383
45511W        W 6965   6.305  15.665   3.379
45512W        W 6966   4.395  10.732   2.792
45513W        W 6967  10.658  17.251   4.174
45514W        W 6968  20.198  26.178  11.125
45515W        W 6969  36.935  28.978   0.278
45516W        W 6970   3.223  25.015   3.209
45517W        W 6971  18.056   0.796  13.027
45518W        W 6972  20.646  20.672  10.954
45519W        W 6973  33.999  23.159   0.747
45520W        W 6974   5.404  37.924   4.657
45521W        W 6975  22.724  11.696   2.375
45522W        W 6976  31.479  42.932   3.313
45523W        W 6977  33.102   9.785  11.486
45524W        W 6978  29.015  28.051   2.683
45525W        W 6979  34.880   4.700  12.918
45526W        W 6980  43.462  27.663  10.488
45527W        W 6981  29.949  15.118  14.454
45528W        W 6982   2.921  17.202  12.874
45529W        W 6983   5.721  39.021  14.974
45530W        W 6984   3.878  41.802   0.812
45531W        W 6985  17.096  39.540  12.049
45532W        W 6986  29.470  34.097   4.300
45533W        W 6987  40.338  42.892  10.122
45534W        W 6988  10.152  17.589   3.358
45535W        W 6989  27.638  38.480   3.180
45536W        W 6990   2.854  30.115   4.332
45537W        W 6991  40.961  44.393  11.511
45538W        W 6992  13.186  13.797   0.774
45539W        W 6993   4.432  33.993  11.054
45540W        W 6994  39.039  20.067  13.861
45541W        W 6995  23.569  15.584   1.276
45542W        W 6996   9.871  23.496   4.608
45543W        W 6997  18.270  26.989   0.946
45544W        W 6998   0.970   6.316   0.348
45545W        W 6999   6.902   4.286   3.721
45546W        W 7000   8.190  10.216  12.953
45547W        W 7001   4.411   1.796   3.192
45548W        W 7002   6.744  33.625   1.321
45549W        W 7003  16.301   1.830   4.676
45550W        W 7004  41.494  26.591  12.579
45551W        W 7005  22.535  33.946  13.017
45552W        W 7006  10.239  22.580  10.610
45553W        W 7007  29.014   4.724   2.318
45554W        W 7008  30.162  12.634  13.381
45555W        W 7009  17.289  44.782  14.830
45556W        W 7010  19.250  35.535  10.904
45557W        W 7011  19.179  39.331   3.281
45558W        W 7012  36.539  41.325  13.330
45559W        W 7013  43.354   8.762   2.852
45560W        W 7014   9.789  34.918   1.361
45561W        W 7015   7.330   2.416  11.065
45562W        W 7016  20.102  38.957  12.490
45563W        W 7017  38.370  14.152   3.220
45564W        W 7018  10.825  11.263   3.225
45565W        W 7019   6.767   4.363   0.836
45566W        W 7020  10.354  10.678  12.096
45567W        W 7021  27.941  20.607   3.854
45568W        W 7022  28.573  42.884  13.452
45569W        W 7023  26.029  37.344  13.895
45570W        W 7024   7.718   5.364  12.850
45571W        W 7025  37.339   6.259   5.180
45572W        W 7026  37.957  38.443  14.277
45573W        W 7027  42.979  26.543   0.463
45574W        W 7028  30.452  37.838  12.885
45575W        W 7029  18.161  13.153  10.155
45576W        W 7030  40.048  35.599  12.911
45577W        W 7031  30.514  10.668   1.404
45578W        W 7032  37.880  30.476   2.230
45579W        W 7033  10.668   5.859   3.712
45580W        W 7034  39.905  37.517  11.544
45581W        W 7035  31.501  21.685   2.790
45582W        W 7036   1.740   8.381   3.681
45583W        W 7037  17.709  22.565   3.737
45584W        W 7038  10.200  24.596  13.358
45585W        W 7039  13.710   5.297   2.698
45586W        W 7040   7.825  44.917  13.042
45587W        W 7041   2.902  36.454   3.262
45588W        W 7042  18.209  44.890  11.026
45589W        W 7043  19.216  38.999   1.783
45590W        W 7044  44.448  26.023  14.978
45591W        W 7045  41.298  42.928  11.524
45592W        W 7046  44.919   5.917   1.292
45593W        W 7047  15.754  37.869  14.987
45594W        W 7048  33.614  34.980  10.929
45595W        W 7049  44.428  24.132  14.923
45596W        W 7050  39.513  33.533  14.497
45597W        W 7051  36.474  38.533  13.359
45598W        W 7052  23.492   8.199   2.685
45599W        W 7053   0.426  19.605   0.318
45600W        W 7054  25.205  36.405  12.846
45601W        W 7055   2.408  17.191   3.323
45602W        W 7056  35.951  10.255  11.934
45603W        W 7057  39.438  22.095   1.771
45604W        W 7058  38.378  14.717  12.566
45605W        W 7059  18.667  14.676   0.787
45606W        W 7060  19.107  30.909   2.669
45607W        W 7061  42.312  23.019   3.715
45608W        W 7062  44.885   8.660   0.747
45609W        W 7063   7.326   4.718   2.708
45610W        W 7064   5.396  20.094   4.276
45611W        W 7065  17.623  24.720  11.487
45612W        W 7066  22.519  29.986  10.541
45613W        W 7067   8.270  32.420  12.550
45614W        W 7068  41.305  33.593   2.419
45615W        W 7069  31.478  18.091  14.446
45616W        W 7070  16.734  38.535   2.412
45617W        W 7071  20.052  29.984  13.930
45618W        W 7072  43.418  14.588  13.014
45619W        W 7073  10.783  16.605   4.619
45620W        W 7074  15.102  33.057  14.010
45621W        W 7075   1.937   5.220   4.612
45622W        W 7076  20.177  31.446   1.395
45623W        W 7077  10.253  38.426   5.298
45624W        W 7078  41.321  42.912   4.837
45625W        W 7079  42.850  13.768   2.405
45626W        W 7080  39.877   1.370  13.033
45627W        W 7081  22.719  36.004   0.479
45628W        W 7082  44.505  44.351  11.949
45629W        W 7083  25.058  21.148   0.327
45630W        W 7084  38.963  24.055  12.852
45631W        W 7085  35.372  33.411   0.460
45632W        W 7086   9.323  33.387   5.230
45633W        W 7087  29.487   4.308  14.888
45634W        W 7088  24.479  12.764   0.281
45635W        W 7089  19.772  33.038   0.364
45636W        W 7090  30.552  23.692   4.151
45637W        W 7091  11.167  34.464   3.273
45638W        W 7092  10.863  38.541  11.907
45639W        W 7093  17.671  36.502  14.942
45640W        W 7094   2.429   6.336   2.273
45641W        W 7095  41.903  34.011  10.616
45642W        W 7096  28.053  12.144  12.920
45643W        W 7097  19.076  27.991  10.469
45644W        W 7098  39.468  43.502   3.248
45645W        W 7099  15.674   5.886   3.646
45646W        W 7100  44.332  13.803  12.931
45647W        W 7101  27.195  19.267  10.457
45648W        W 7102  15.721  34.061  10.502
45649W        W 7103  12.827   0.753   3.775
45650W        W 7104  31.126  33.014   4.825
45651W        W 7105  37.995  21.687   2.873
45652W        W 7106  34.468  14.638  13.864
45653W        W 7107  33.441  14.217  10.143
45654W        W 7108  33.046  17.211   3.674
45655W        W 7109   8.815  39.017   1.278
45656W        W 7110  40.410   8.765   2.242
45657W        W 7111  10.357  39.482  10.902
45658W        W 7112   1.858  19.107   3.740
45659W        W 7113  30.124   0.955  14.826
45660W        W 7114   3.865  37.858   1.435
45661W        W 7115  30.577   5.884  12.553
45662W        W 7116  16.709  42.498   0.923
45663W        W 7117  41.857   7.401   0.291
45664W        W 7118  14.787  38.903   1.894
45665W        W 7119  32.588   7.297  13.359
45666W        W 7120   8.167  15.224  10.471
45667W        W 7121  25.583  28.524   1.718
45668W        W 7122  29.577  39.828   4.692
45669W        W 7123  21.699  43.013  11.921
45670W        W 7124  29.594  11.147   2.365
45671W        W 7125  37.460  10.724   2.860
45672W        W 7126  17.122  18.620   4.774
45673W        W 7127  23.513  29.171  11.531
45674W        W 7128  27.669  33.505   3.861
45675W        W 7129  26.482  28.645  12.048
45676W        W 7130  17.707  33.061   3.630
45677W        W 7131   6.709  20.228  13.542
45678W        W 7132  12.352  21.179   1.919
45679W        W 7133  24.989  39.449  11.048
45680W        W 7134  42.502  16.624   3.158
45681W        W 7135  22.225  27.025   1.254
45682W        W 7136   9.314  33.950   5.097
45683W        W 7137   2.404  43.354   3.236
45684W        W 7138  38.402  21.680  14.970
45685W        W 7139   8.168  23.163   3.181
45686W        W 7140  40.911  10.734   2.716
45687W        W 7141  10.294   0.259   0.447
45688W        W 7142  38.959  18.608   3.303
45689W        W 7143  30.162   6.198   1.709
45690W        W 7144  25.660   0.389   2.336
45691W        W 7145  34.108  30.148   0.373
45692W        W 7146  38.507  32.490   1.424
45693W        W 7147   7.886  44.325  13.398
45694W        W 7148  15.151  42.393  11.595
45695W        W 7149  19.753  26.601  12.864
45696W        W 7150  25.672  27.667  11.031
45697W        W 7151   5.720   0.895  13.794
45698W        W 7152  38.490  25.155   0.848
45699W        W 7153  13.779  22.679   3.257
45700W        W 7154  25.170  34.382   3.655
45701W        W 7155   2.427  36.025  12.485
45702W        W 7156  11.750  40.863   4.322
45703W        W 7157  11.153  38.016   5.233
45704W        W 7158  25.218  23.152  10.047
45705W        W 7159  24.589  22.697   4.770
45706W        W 7160  43.291   4.262  14.009
45707W        W 7161  28.093  25.028  10.497
45708W        W 7162  28.565  40.992  11.872
45709W        W 7163  34.422  22.146  14.939
45710W        W 7164  40.984  37.930   4.687
45711W        W 7165   3.726   3.416   3.859
45712W        W 7166   6.849  15.632  14.872
45713W        W 7167  26.522  21.055  11.016
45714W        W 7168  17.756  29.629   2.405
45715W        W 7169  20.264  33.381   4.352
45716W        W 7170   1.903  17.110   0.294
45717W        W 7171  34.098  17.718  11.050
45718W        W 7172  26.554  29.069   2.296
45719W        W 7173   0.762  17.223   5.172
45720W        W 7174  28.025  40.496  11.884
45721W        W 7175  13.105  41.877  13.479
45722W        W 7176   3.907  15.585   4.789
45723W        W 7177  34.458  10.861  10.575
45724W        W 7178  12.320  39.823  13.528
45725W        W 7179  18.232   9.216   4.183
45726W        W 7180  28.657   0.862   2.278
45727W        W 7181  30.646  43.799   0.777
45728W        W 7182  34.467  28.618  13.319
45729W        W 7183  18.649  32.122  13.462
45730W        W 7184  40.327  43.401  13.880
45731W        W 7185  33.526  29.483   3.721
45732W        W 7186  40.857  38.550   4.632
45733W        W 7187  39.520   8.227  11.940
45734W        W 7188   3.817  22.170  12.074
45735W        W 7189  30.949  32.028   1.289
45736W        W 7190  23.062   1.879  11.567
45737W        W 7191  18.133   4.214   1.699
45738W        W 7192  15.761  12.731  13.311
45739W        W 7193  23.234  34.600  12.079
45740W        W 7194  38.850  27.011   0.790
45741W        W 7195   9.803   9.686  14.312
45742W        W 7196  21.528   4.401   3.723
45743W        W 7197  13.740  28.491  13.792
45744W        W 7198   5.202  26.670  13.319
45745W        W 7199  21.197   0.926  12.526
45746W        W 7200  42.411  21.215  14.927
45747W        W 7201  27.588  25.688   2.744
45748W        W 7202  30.069   8.287   2.369
45749W        W 7203  22.013  40.929   0.754
45750W        W 7204  43.348  23.238   4.676
45751W        W 7205  27.501  11.237   5.127
45752W        W 7206  22.538  16.735   2.328
45753W        W 7207   2.780  29.550   0.406
45754W        W 7208  24.170  21.254  13.394
45755W        W 7209  26.570  22.082   4.805
45756W        W 7210   1.458  14.816  11.968
45757W        W 7211   2.281  35.889   1.349
45758W        W 7212   0.313  26.634  11.042
45759W        W 7213  11.353  28.466  13.875
45760W        W 7214   1.872  23.692   0.931
45761W        W 7215  31.462   3.362  11.928
45762W        W 7216  37.086  17.583  10.977
45763W        W 7217  31.965  16.316  14.947
45764W        W 7218  34.964  32.110   0.463
45765W        W 7219  10.711  44.815  13.910
45766W        W 7220  38.405  40.968   0.423
45767W        W 7221  41.821  40.867  14.862
45768W        W 7222  16.148   4.809  11.375
45769W        W 7223  37.378   2.398   5.184
45770W        W 7224  14.247  19.667  11.916
45771W        W 7225  16.188   8.290   2.703
45772W        W 7226  34.457  30.065   4.768
45773W        W 7227  18.752  25.039   4.615
45774W        W 7228   5.869  12.715   1.228
45775W        W 7229  40.523  43.898   4.274
45776W        W 7230  39.393  14.615   4.813
45777W        W 7231  24.030  28.644   4.322
45778W        W 7232  41.851  28.631   0.925
45779W        W 7233   1.435  17.178   2.277
45780W        W 7234  44.365  44.454   1.256
45781W        W 7235   6.747   4.837   2.304
45782W        W 7236  34.594  39.014   3.265
45783W        W 7237  20.266  32.437   0.371
45784W        W 7238   1.446  15.583  11.096
45785W        W 7239  33.909  15.697   2.356
45786W        W 7240  25.093   4.433  10.900
45787W        W 7241  35.000  36.046   0.945
45788W        W 7242  21.650  35.530  14.399
45789W        W 7243  27.676  44.293   1.748
45790W        W 7244   3.725  36.002  12.080
45791W        W 7245  11.279  32.417   0.254
45792W        W 7246   6.401  43.858   1.387
45793W        W 7247  22.160  23.166  14.507
45794W        W 7248  18.258  11.811  11.024
45795W        W 7249  36.383  41.866   0.447
45796W        W 7250  15.155  39.855  11.992
45797W        W 7251   0.958  39.374  13.477
45798W        W 7252  13.798  41.860  14.365
45799W        W 7253  41.414  16.781  11.113
45800W        W 7254  36.460  43.847  11.042
45801W        W 7255  38.358  44.003   5.669
45802W        W 7256  42.955  35.958   3.276
45803W        W 7257  39.050  26.701   4.668
45804W        W 7258  31.596   0.979   1.401
45805W        W 7259   4.876  29.657  14.470
45806W        W 7260  42.389  36.983   4.751
45807W        W 7261   0.983  23.157   2.818
45808W        W 7262  43.821   0.753   1.918
45809W        W 7263  37.373  37.990  11.068
45810W        W 7264   0.980   1.298   2.868
45811W        W 7265  19.238   8.315   0.282
45812W        W 7266  24.571  20.610   1.267
45813W        W 7267  22.049  33.089   0.753
45814W        W 7268  16.762  35.504  10.561
45815W        W 7269  16.095  10.845   9.953
45816W        W 7270   3.909  32.497   3.150
45817W        W 7271  39.960  43.285   0.258
45818W        W 7272  27.654  15.320  11.903
45819W        W 7273  21.726  42.499   0.869
45820W        W 7274   9.804  17.770  14.997
45821W        W 7275  40.443  40.380   2.709
45822W        W 7276  16.709  43.927   1.298
45823W        W 7277  27.060  11.824  13.803
45824W        W 7278  40.821  15.756   1.919
45825W        W 7279  25.084  25.486   5.132
45826W        W 7280  10.258   2.429  14.939
45827W        W 7281   2.241  16.675   3.736
45828W        W 7282   7.244  40.840   2.244
45829W        W 7283  43.426  24.495   1.421
45830W        W 7284  31.453  29.549   2.782
45831W        W 7285  44.394  19.760  14.890
45832W        W 7286  16.777  17.113  11.861
45833W        W 7287  38.509  41.858   2.246
45834W        W 7288  30.980  24.020   2.755
45835W        W 7289  33.391  22.526  13.440
45836W        W 7290  32.031  38.501   4.217
45837W        W 7291  37.573  41.449  12.888
45838W        W 7292  19.777  19.626  11.059
45839W        W 7293   1.874  28.183  11.590
45840W        W 7294  12.244  14.182   0.734
45841W        W 7295  28.939  29.582   2.365
45842W        W 7296  26.024  25.676   3.866
45843W        W 7297  10.168  30.590  13.891
45844W        W 7298  19.735  36.089  10.417
45845W        W 7299  30.588  29.481  11.010
45846W        W 7300   3.241  25.604   1.734
45847W        W 7301  42.956  20.716  11.909
45848W        W 7302  34.093   3.802   1.276
45849W        W 7303  18.682   4.257   1.261
45850W        W 7304  42.890  27.112   1.248
45851W        W 7305   9.186  43.955  14.450
45852W        W 7306  40.383  17.192   3.363
45853W        W 7307  18.564  35.001   4.324
45854W        W 7308  12.737  31.060  12.466
45855W        W 7309  38.992  10.801   1.768
45856W        W 7310  13.348  15.235   3.189
45857W        W 7311  38.007   9.683   0.960
45858W        W 7312  44.350  33.972   1.877
45859W        W 7313  44.272   6.755  10.441
45860W        W 7314  26.022   9.227   1.752
45861W        W 7315  24.139  36.018   3.203
45862W        W 7316  14.665  34.433   2.863
45863W        W 7317   6.350   1.365   3.824
45864W        W 7318  38.371  11.787   2.869
45865W        W 7319  25.038  32.564   4.830
45866W        W 7320  13.784  33.503   2.184
45867W        W 7321   0.247  15.591  12.028
45868W        W 7322  13.304  10.822  14.774
45869W        W 7323  26.597   5.390   3.232
45870W        W 7324  40.926  33.567  12.959
45871W        W 7325  30.559   9.359   4.173
45872W        W 7326  11.689  16.100   4.199
45873W        W 7327   9.795   5.417   3.806
45874W        W 7328  42.784  24.104   5.106
45875W        W 7329  35.576  44.906  14.468
45876W        W 7330  16.173  44.776  10.584
45877W        W 7331  14.602   0.433   4.206
45878W        W 7332  28.467   4.313   0.760
45879W        W 7333  39.351   8.815   1.441
45880W        W 7334  18.718  25.528   2.769
45881W        W 7335   0.473  40.521   3.380
45882W        W 7336  10.346  23.209   0.273
45883W        W 7337  14.725  31.488  11.415
45884W        W 7338  31.450   2.963   1.699
45885W        W 7339  29.014  24.078   0.768
45886W        W 7340  32.490  14.233  13.837
45887W        W 7341   2.932  16.184  12.031
45888W        W 7342  12.320  21.127  11.899
45889W        W 7343  39.531  43.815  14.348
45890W        W 7344  21.523  14.829  14.415
45891W        W 7345  16.757  33.561  13.501
45892W        W 7346  37.502  10.352  14.804
45893W        W 7347  43.438  36.096  12.074
45894W        W 7348  10.250  39.895  12.831
45895W        W 7349  25.491  41.901   2.403
45896W        W 7350  31.935  17.160   0.779
45897W        W 7351  21.613  10.362  11.466
45898W        W 7352  27.681  29.976  10.435
45899W        W 7353  12.250  22.579  11.911
45900W        W 7354  39.811  29.563  13.829
45901W        W 7355  42.836   5.743  11.457
45902W        W 7356  20.717  40.874  11.857
45903W        W 7357  41.478  31.104   2.347
45904W        W 7358   6.682  20.221  14.287
45905W        W 7359  31.038  42.896  12.501
45906W        W 7360  42.335  16.772   4.326
45907W        W 7361   6.394  42.343  14.029
45908W        W 7362  17.112  43.937   3.236
45909W        W 7363  18.093  22.744  13.937
45910W        W 7364  12.822  20.179   3.664
45911W        W 7365  31.575  22.206   4.656
45912W        W 7366  23.622  37.443  14.951
45913W        W 7367  44.977  11.159   1.718
45914W        W 7368   0.981  43.832  14.396
45915W        W 7369  26.542  16.223  10.598
45916W        W 7370  21.552  35.968   4.306
45917W        W 7371  15.298   7.223  12.476
45918W        W 7372  40.394  44.285   0.366
45919W        W 7373  33.555  29.127   3.656
45920W        W 7374   5.803  18.789  13.386
45921W        W 7375   7.279  33.020  14.450
45922W        W 7376  12.222  41.442   0.332
45923W        W 7377   7.904  44.838   2.370
45924W        W 7378  32.126  18.594   0.274
45925W        W 7379  29.475  33.521  14.325
45926W        W 7380  23.610  15.780  14.508
45927W        W 7381  27.600  38.025  10.938
45928W        W 7382  41.836  28.679  13.903
45929W        W 7383  17.728   0.267  10.928
45930W        W 7384  40.367  10.657  13.518
45931W        W 7385   4.914  30.060   1.751
45932W        W 7386  38.009  41.796   4.657
45933W        W 7387   0.393   4.716  14.988
45934W        W 7388  16.712  11.667   2.716
45935W        W 7389  43.407  38.826   2.843
45936W        W 7390  42.461  22.019   1.746
45937W        W 7391  28.097  37.870   3.797
45938W        W 7392   7.819   5.405   2.838
45939W        W 7393  38.377   7.886   2.870
45940W        W 7394  13.608  14.593  14.807
45941W        W 7395  28.115  15.172   1.256
45942W        W 7396  16.134  33.956   1.275
45943W        W 7397  12.270  33.513   9.630
45944W        W 7398   7.333  27.036  11.498
45945W        W 7399  33.416  15.600   4.653
45946W        W 7400   6.847  22.166  11.018
45947W        W 7401   7.282  11.308  11.914
45948W        W 7402  13.269  40.811  10.465
45949W        W 7403  17.571  40.922  13.456
45950W        W 7404   8.710   6.692   3.160
45951W        W 7405   9.684   9.240  12.540
45952W        W 7406  18.144  27.644   0.439
45953W        W 7407   8.300  36.902  14.290
45954W        W 7408  40.991  36.371   2.363
45955W        W 7409  11.249  31.074   3.711
45956W        W 7410  20.748  33.408  11.449
45957W        W 7411  16.739  10.836  10.936
45958W        W 7412  17.676  10.219   2.325
45959W        W 7413  41.807   4.761  13.418
45960W        W 7414  19.556   0.267  12.381
45961W        W 7415   9.786   1.766   3.212
45962W        W 7416   3.327  40.943   2.691
45963W        W 7417   1.375  19.644   4.613
45964W        W 7418  26.960  28.596   3.219
45965W        W 7419   1.827  35.924  11.097
45966W        W 7420   1.414  39.891   4.217
45967W        W 7421  10.663  24.217  12.406
45968W        W 7422   5.874  22.089   0.742
45969W        W 7423  23.663  32.435  11.987
45970W        W 7424  10.208  15.707   1.791
45971W        W 7425   6.747  30.917  12.424
45972W        W 7426  14.173  10.644   2.204
45973W        W 7427  34.417   9.221  12.410
45974W        W 7428  26.124  10.378   3.162
45975W        W 7429  21.065  21.177   3.691
45976W        W 7430  37.418   0.296  10.971
45977W        W 7431  21.173  16.157   3.848
45978W        W 7432  36.903  25.215   2.392
45979W        W 7433  26.190  16.187   3.767
45980W        W 7434  25.013  22.510  11.126
45981W        W 7435  14.145   2.333   0.858
45982W        W 7436  36.998  11.152   1.380
45983W        W 7437  13.232  35.486  12.465
45984W        W 7438  28.471  38.952  10.057
45985W        W 7439  32.527  12.173   2.817
45986W        W 7440   8.771  27.005  14.922
45987W        W 7441   9.171  32.137   4.148
45988W        W 7442  30.439  23.732   0.335
45989W        W 7443  24.567   6.897  12.439
45990W        W 7444  44.767  31.515   2.353
45991W        W 7445  15.670  12.807   4.183
45992W        W 7446  25.575  31.534   0.260
45993W        W 7447  23.037  30.119  13.049
45994W        W 7448  31.531  37.361  11.553
45995W        W 7449  12.847  43.936   4.189
45996W        W 7450  38.875  22.119  13.792
45997W        W 7451  39.967  28.160   4.303
45998W        W 7452  19.269  39.029   0.466
45999W        W 7453   2.438  36.593   4.797
46000W        W 7454   8.397  25.040  11.959
46001W        W 7455  44.260  40.028  11.962
46002W        W 7456  30.605  18.270  14.959
46003W        W 7457  14.685  23.585  11.475
46004W        W 7458   5.270  39.361  11.481
46005W        W 7459   9.702  21.597   3.302
46006W        W 7460  18.637  20.145   0.480
46007W        W 7461   7.666  21.651  12.980
46008W        W 7462  42.441  23.689  11.066
46009W        W 7463   7.785  21.521   3.267
46010W        W 7464  34.065  36.074  12.368
46011W        W 7465  30.531   6.892  11.104
46012W        W 7466  44.338   4.857   4.248
46013W        W 7467  26.052  39.363   1.347
46014W        W 7468  13.220  22.218  10.455
46015W        W 7469  27.990  32.960  13.054
46016W        W 7470   5.311   9.796   3.718
46017W        W 7471  42.839  16.194   2.252
46018W        W 7472  11.359   4.905   4.781
46019W        W 7473  24.217  20.135   1.846
46020W        W 7474  10.299  37.924   3.297
46021W        W 7475   9.152  40.969  13.868
46022W        W 7476   9.814   1.316   4.135
46023W        W 7477  41.453  15.755  13.338
46024W        W 7478  43.947   4.904  11.073
46025W        W 7479   0.912  23.643   1.407
46026W        W 7480  39.937  13.344   1.379
46027W        W 7481  40.041   4.797   1.306
46028W        W 7482  32.431   3.921   1.274
46029W        W 7483  27.013  18.213  13.026
46030W        W 7484  35.560  41.846   2.687
46031W        W 7485  40.424  12.826   4.732
46032W        W 7486   8.336  22.678  14.480
46033W        W 7487  27.515  11.348   0.893
46034W        W 7488   9.762  12.639  13.059
46035W        W 7489  27.970  23.635   2.268
46036W        W 7490  44.801  42.916   2.308
46037W        W 7491  38.440  19.280  14.923
46038W        W 7492  20.085  42.922  14.408
46039W        W 7493  26.054   6.852   2.343
46040W        W 7494  25.561  17.734  10.932
46041W        W 7495  16.581  14.757  12.359
46042W        W 7496  42.871  20.749   4.209
46043W        W 7497  17.111  13.720  14.502
46044W        W 7498  35.881  24.624  12.056
46045W        W 7499   3.809  44.869   1.812
46046W        W 7500   4.321  43.935  13.516
46047W        W 7501  38.884  39.320   1.399
46048W        W 7502  41.867  35.866  14.358
46049W        W 7503  19.696  25.531  13.456
46050W        W 7504  22.109  14.321   0.857
46051W        W 7505   4.883  41.846   4.669
46052W        W 7506  37.338  26.501  12.979
46053W        W 7507  25.127   7.702   0.789
46054W        W 7508   9.156  42.463  10.489
46055W        W 7509  14.229  25.684   2.369
46056W        W 7510  17.689  21.720   2.747
46057W        W 7511  27.980  41.484  13.998
46058W        W 7512  33.497  15.746   0.819
46059W        W 7513  14.789  34.906   1.868
46060W        W 7514  22.148   4.922   1.799
46061W        W 7515   0.274  32.095   3.800
46062W        W 7516  13.180  17.184  11.909
46063W        W 7517   1.399  24.078   0.454
46064W        W 7518  44.287  32.554   1.759
46065W        W 7519  18.624  41.391  13.983
46066W        W 7520  22.504  11.805  12.527
46067W        W 7521  13.838  26.980  11.922
46068W        W 7522  35.437   3.951   0.958
46069W        W 7523  22.732  26.062  10.486
46070W        W 7524   7.825  21.745  14.832
46071W        W 7525  10.774  14.319   4.171
46072W        W 7526   2.244   4.903  13.983
46073W        W 7527  34.371  14.680  14.464
46074W        W 7528  43.270  29.450  12.355
46075W        W 7529   7.893  42.876  11.521
46076W        W 7530  13.773   5.919  10.622
46077W        W 7531  42.962  43.863  14.899
46078W        W 7532  30.959  17.139  11.076
46079W        W 7533   2.940  31.597  11.023
46080W        W 7534  39.947  12.232  14.311
46081W        W 7535  21.217   5.773   4.730
46082W        W 7536  13.240  14.096   4.233
46083W        W 7537  17.750  39.859  13.021
46084W        W 7538   3.265  36.007   1.308
46085W        W 7539   2.896   6.888  13.907
46086W        W 7540   3.768  27.975  10.121
46087W        W 7541  24.985  17.204  14.833
46088W        W 7542  38.953  24.217   1.330
46089W        W 7543   4.246   0.817  10.972
46090W        W 7544   8.791  18.731  12.085
46091W        W 7545   5.270  18.712   0.359
46092W        W 7546  31.125  36.562  12.426
46093W        W 7547  30.089  38.828   2.292
46094W        W 7548   1.238  32.956   1.381
46095W        W 7549  31.061   4.721   0.471
46096W        W 7550  29.652  12.129  14.997
46097W        W 7551  21.684  20.540  13.377
46098W        W 7552   8.759  28.142   1.278
46099W        W 7553  19.763  32.120  14.973
46100W        W 7554  22.617  24.638   0.436
46101W        W 7555   4.428  34.436   3.218
46102W        W 7556   9.366  24.105  12.479
46103W        W 7557  44.486  20.249   2.805
46104W        W 7558  40.354  37.400   4.147
46105W        W 7559   5.857  14.177  11.572
46106W        W 7560  35.496  24.628  10.939
46107W        W 7561   7.805   4.726   0.933
46108W        W 7562  31.548  21.209   3.654
46109W        W 7563  28.551  35.973  10.577
46110W        W 7564  23.099   1.804  10.924
46111W        W 7565   5.833   9.768  13.478
46112W        W 7566  16.755   2.459  13.031
46113W        W 7567  38.526   4.770   0.866
46114W        W 7568  23.530  26.467   1.422
46115W        W 7569  20.764  26.496   1.923
46116W        W 7570  21.230   0.888   4.235
46117W        W 7571  44.795  18.614   1.902
46118W        W 7572  21.226  38.532   0.376
46119W        W 7573   4.428   7.871  14.945
46120W        W 7574  20.223  33.392  10.906
46121W        W 7575   2.734   6.739  11.882
46122W        W 7576   4.888  19.586  11.485
46123W        W 7577  33.475  34.535  14.904
46124W        W 7578  12.750  26.676  10.522
46125W        W 7579   0.276  19.097  10.955
46126W        W 7580  11.693   2.766   0.843
46127W        W 7581  30.934  24.150   1.311
46128W        W 7582  12.769  24.170   3.277
46129W        W 7583  18.729  37.028  11.942
46130W        W 7584   1.350  20.109   2.243
46131W        W 7585  27.066  16.675  14.448
46132W        W 7586  39.814  38.926  13.949
46133W        W 7587  35.937  21.522  12.969
46134W        W 7588  41.789  34.525  10.132
46135W        W 7589  31.576  18.691   1.920
46136W        W 7590  29.530  12.706   4.759
46137W        W 7591   4.935   2.366  13.405
46138W        W 7592   8.884   9.270   1.267
46139W        W 7593  35.582   3.218   1.246
46140W        W 7594  28.503  23.494  11.492
46141W        W 7595   1.286   4.896   1.845
46142W        W 7596  36.008  39.054   4.811
46143W        W 7597   8.374   5.274   3.157
46144W        W 7598  14.111  23.998  13.828
46145W        W 7599  10.833  41.421  12.391
46146W        W 7600  20.225  26.026  11.596
46147W        W 7601   4.705  40.949   1.238
46148W        W 7602  17.289   7.239  12.875
46149W        W 7603  11.647  11.827   4.598
46150W        W 7604  14.753  12.795  12.400
46151W        W 7605  34.399  11.135   4.180
46152W        W 7606  14.763  21.615   2.713
46153W        W 7607  42.460  16.694  14.867
46154W        W 7608  13.607   9.351  13.349
46155W        W 7609  44.975  14.338  14.887
46156W        W 7610  10.690  28.461   3.860
46157W        W 7611   1.370  19.103  10.534
46158W        W 7612   2.306  30.443   2.823
46159W        W 7613  16.798  19.150   1.402
46160W        W 7614  16.604  35.998   1.822
46161W        W 7615  28.152  36.064  14.835
46162W        W 7616   7.777  32.906   5.192
46163W        W 7617  30.565   8.821  10.497
46164W        W 7618  35.854  11.293   0.446
46165W        W 7619   8.238   4.914  11.872
46166W        W 7620  13.718  26.122  12.021
46167W        W 7621  21.669  37.875  11.128
46168W        W 7622  14.109  10.794   2.690
46169W        W 7623  32.443  43.341   3.850
46170W        W 7624  19.600  16.578   3.799
46171W        W 7625  17.767   4.263  11.565
46172W        W 7626  21.113  33.025  13.830
46173W        W 7627  22.207   3.427   3.855
46174W        W 7628   1.781  11.626  12.845
46175W        W 7629   5.894  11.205   4.206
46176W        W 7630  41.043   0.984   2.187
46177W        W 7631  38.432  42.332  13.939
46178W        W 7632  34.529  44.406  13.829
46179W        W 7633  44.781  13.614  10.533
46180W        W 7634   4.890  31.464  12.981
46181W        W 7635  38.830   5.419  11.562
46182W        W 7636   3.741  33.394   4.803
46183W        W 7637  12.287  17.132  10.150
46184W        W 7638  38.884   8.880  11.378
46185W        W 7639  29.611   6.247   4.768
46186W        W 7640   3.347  42.496  14.367
46187W        W 7641  41.035  24.228  13.454
46188W        W 7642  27.012  29.524  13.864
46189W        W 7643  35.531  39.543   1.898
46190W        W 7644  40.984  44.328  11.946
46191W        W 7645  18.742  34.604  13.882
46192W        W 7646  21.039  32.998   2.403
46193W        W 7647  18.107  38.559   4.676
46194W        W 7648  18.550  28.463   3.182
46195W        W 7649  40.452  10.716   3.857
46196W        W 7650   4.239  19.778  14.760
46197W        W 7651  19.074  26.498  12.836
46198W        W 7652  21.097  44.948   1.375
46199W        W 7653  20.582   5.819  11.886
46200W        W 7654  18.116  29.122  12.824
46201W        W 7655  32.403   0.296  12.828
46202W        W 7656  30.994  37.464  13.939
46203W        W 7657   6.909   5.875   2.689
46204W        W 7658  31.449  39.452  11.107
46205W        W 7659  20.045  30.150  11.888
46206W        W 7660  29.463  27.631  10.987
46207W        W 7661  42.932  37.992   1.898
46208W        W 7662   3.247  10.683   3.846
46209W        W 7663   4.360  25.129  12.436
46210W        W 7664  35.916   7.836  11.044
46211W        W 7665  19.251  23.592  14.465
46212W        W 7666  19.166   6.355  10.986
46213W        W 7667  27.986  40.396   0.463
46214W        W 7668  44.466  17.582  13.358
46215W        W 7669  41.531   7.686   2.223
46216W        W 7670  26.622  20.145   0.396
46217W        W 7671  21.554  14.320  13.006
46218W        W 7672  27.040   1.374  12.446
46219W        W 7673  17.608  17.654   4.353
46220W        W 7674   3.433  17.231  10.614
46221W        W 7675  10.209  21.199  10.564
46222W        W 7676  20.751  23.709  10.926
46223W        W 7677  41.006   5.247  14.470
46224W        W 7678  35.973  35.552  14.278
46225W        W 7679  32.062   9.173  12.905
46226W        W 7680  33.392   6.740   1.761
46227W        W 7681  13.734  12.351  13.938
46228W        W 7682  30.098  21.603  13.436
46229W        W 7683  31.982  25.653   4.814
46230W        W 7684  13.223  33.052  11.951
46231W        W 7685   1.430  38.902   4.644
46232W        W 7686  44.445  30.111   3.652
46233W        W 7687  20.551  20.262   1.863
46234W        W 7688   7.294  25.578  12.991
46235W        W 7689  34.378  22.230  12.080
46236W        W 7690  20.267  28.048  10.140
46237W        W 7691  38.420  17.275   3.364
46238W        W 7692  21.546   9.845  10.986
46239W        W 7693  44.360  39.513   3.672
46240W        W 7694  24.137  26.647  13.978
46241W        W 7695  35.501  19.727   2.896
46242W        W 7696   0.371  22.070  11.580
46243W        W 7697  28.995  41.491   2.208
46244W        W 7698  40.338  43.276   4.271
46245W        W 7699  27.642  13.770   4.671
46246W        W 7700  11.302  34.466   2.210
46247W        W 7701  16.225   4.852  12.077
46248W        W 7702  15.131  43.469  12.834
46249W        W 7703  13.835  14.752  12.074
46250W        W 7704  36.905  12.631   3.301
46251W        W 7705  24.133  21.136   5.184
46252W        W 7706  36.555  12.194   4.267
46253W        W 7707  22.503  22.199   3.303
46254W        W 7708   5.724   8.746  11.391
46255W        W 7709  22.718  34.615  12.508
46256W        W 7710  38.021  39.518  13.399
46257W        W 7711   9.195  21.648  11.031
46258W        W 7712  18.568  21.693   1.256
46259W        W 7713  41.981  34.995   3.368
46260W        W 7714  27.058  17.779  11.414
46261W        W 7715   1.263   8.739  13.458
46262W        W 7716  44.314   6.302  14.291
46263W        W 7717  24.181  29.155  11.097
46264W        W 7718   1.258  38.530  14.027
46265W        W 7719  38.930  44.837   0.888
46266W        W 7720  43.335   3.406  13.845
46267W        W 7721   5.925   5.311   3.758
46268W        W 7722   1.420  41.009   3.652
46269W        W 7723   6.253  26.158  11.023
46270W        W 7724  21.215  15.104  12.918
46271W        W 7725  20.698  38.508  11.115
46272W        W 7726   1.931  28.986   0.435
46273W        W 7727   7.309  17.243  11.911
46274W        W 7728   9.755  38.044   4.304
46275W        W 7729   7.221  28.476  14.421
46276W        W 7730  27.456  31.455  14.297
46277W        W 7731   1.899  21.542  14.973
46278W        W 7732  30.579  29.605   3.177
46279W        W 7733  19.184  31.113   1.907
46280W        W 7734   5.844  34.591  10.608
46281W        W 7735  35.360  21.095   1.857
46282W        W 7736   2.948  27.505   3.332
46283W        W 7737   4.265  10.696  14.821
46284W        W 7738  28.062  12.271  11.887
46285W        W 7739  13.275  16.566  14.996
46286W        W 7740  27.037  23.550   1.931
46287W        W 7741  33.539  38.978   2.870
46288W        W 7742  28.176  22.649  11.460
46289W        W 7743  29.110  28.179  12.389
46290W        W 7744   7.692  21.111  14.965
46291W        W 7745  40.547  20.646  14.016
46292W        W 7746  40.396  38.437   4.641
46293W        W 7747  14.149  15.725  10.500
46294W        W 7748   9.211  34.912   9.996
46295W        W 7749  28.952  42.514   3.648
46296W        W 7750  13.675  14.724   2.361
46297W        W 7751  38.021   6.708  14.447
46298W        W 7752   3.227  29.933  11.578
46299W        W 7753  32.531  31.648   3.189
46300W        W 7754  25.635  32.472   2.806
46301W        W 7755  10.843  26.635   0.834
46302W        W 7756  29.173  15.265   3.202
46303W        W 7757  14.809  15.670   0.343
46304W        W 7758  24.497  18.664  10.424
46305W        W 7759  17.232  35.033  13.009
46306W        W 7760  11.797  37.423  14.500
46307W        W 7761  25.608  37.977   0.388
46308W        W 7762  19.229  33.427   1.920
46309W        W 7763   0.914  15.329   3.775
46310W        W 7764  32.888  23.715   3.284
46311W        W 7765  17.778   3.347   0.312
46312W        W 7766  16.697  36.939   2.817
46313W        W 7767  26.650   6.416  14.872
46314W        W 7768  15.168  20.567  13.390
46315W        W 7769  27.008  24.184   0.861
46316W        W 7770  27.197  36.547   4.203
46317W        W 7771  26.153   0.749   2.194
46318W        W 7772  17.583  27.519   3.334
46319W        W 7773  41.002  30.095  14.441
46320W        W 7774   7.764  32.474   3.668
46321W        W 7775   3.253  40.849  14.514
46322W        W 7776  36.498   3.296   5.173
46323W        W 7777   0.421  12.679  13.324
46324W        W 7778  32.022  30.462  11.511
46325W        W 7779  34.887  34.047  13.831
46326W        W 7780  29.078   3.787   1.254
46327W        W 7781   5.329   8.747   3.688
46328W        W 7782  28.600  36.367   1.441
46329W        W 7783  13.316  19.563  11.880
46330W        W 7784  10.372  43.329  14.825
46331W        W 7785  34.967  26.173   2.782
46332W        W 7786  43.852  25.093   0.442
46333W        W 7787  21.063  19.537   4.170
46334W        W 7788  14.701  35.947  10.152
46335W        W 7789  12.832  30.658   0.949
46336W        W 7790  28.635  10.163  14.848
46337W        W 7791   7.801  22.678  13.322
46338W        W 7792  43.776  41.020  13.501
46339W        W 7793   3.724  17.779   2.286
46340W        W 7794  29.162   5.321  11.884
46341W        W 7795  12.280  11.642   2.337
46342W        W 7796  39.369  23.061   2.395
46343W        W 7797  41.535  10.205  11.547
46344W        W 7798  25.976  41.938  14.804
46345W        W 7799   6.781  30.087  13.400
46346W        W 7800   2.901  31.574   2.299
46347W        W 7801  11.655   7.409   3.285
46348W        W 7802  26.992  13.783  14.511
46349W        W 7803  21.107  44.805  14.341
46350W        W 7804  10.284   9.651   1.817
46351W        W 7805  41.802  32.963   1.221
46352W        W 7806  25.702   5.932   2.300
46353W        W 7807  17.212  41.995  13.006
46354W        W 7808  25.123  18.247  13.968
46355W        W 7809  32.024  27.033  10.610
46356W        W 7810   9.657   5.805  11.984
46357W        W 7811  23.080  38.062   0.394
46358W        W 7812  44.875  35.011   0.315
46359W        W 7813  18.752   5.277   3.294
46360W        W 7814  16.605  38.912  14.989
46361W        W 7815  26.645   9.715   2.687
46362W        W 7816  13.683  22.175   4.224
46363W        W 7817  23.733  18.269   3.275
46364W        W 7818   1.282  14.313  12.828
46365W        W 7819  38.374  17.184  11.929
46366W        W 7820  25.527  19.117  11.057
46367W        W 7821   5.851   3.815   4.685
46368W        W 7822  43.829  43.946  14.021
46369W        W 7823  23.657  36.906   3.250
46370W        W 7824   3.860  44.276   1.734
46371W        W 7825  11.229  20.634   3.275
46372W        W 7826   6.420  11.627  10.589
46373W        W 7827  28.035  34.091   1.931
46374W        W 7828  37.572   1.810  14.377
46375W        W 7829  42.432  43.775   2.875
46376W        W 7830   9.698  24.612   2.796
46377W        W 7831  11.823   0.284  14.510
46378W        W 7832  10.175   2.869  14.467
46379W        W 7833  22.616  34.999  14.508
46380W        W 7834  28.128  30.103   0.284
46381W        W 7835  42.923  41.483  12.993
46382W        W 7836  21.248  28.165   1.798
46383W        W 7837  41.306   4.428  13.431
46384W        W 7838  24.553  42.993   5.166
46385W        W 7839   3.291  29.632  13.334
46386W        W 7840   8.214   2.303   3.820
46387W        W 7841  22.678  22.033   3.739
46388W        W 7842  43.454  15.215   4.234
46389W        W 7843  16.693  31.097  12.038
46390W        W 7844  36.557  38.046  12.823
46391W        W 7845   0.473  41.824  12.057
46392W        W 7846  41.805  40.408  13.009
46393W        W 7847  42.809   4.905  14.899
46394W        W 7848  10.829  39.438   5.635
46395W        W 7849  42.404  35.928  11.434
46396W        W 7850  30.428  29.109   1.700
46397W        W 7851  31.646  21.122  10.437
46398W        W 7852   0.269  28.446   0.359
46399W        W 7853  17.081  21.516  13.347
46400W        W 7854  32.049   7.402   3.154
46401W        W 7855  20.142  23.556  15.000
46402W        W 7856  32.887  26.037  13.546
46403W        W 7857  26.997  11.765  11.121
46404W        W 7858  44.915  21.610   2.900
46405W        W 7859  11.778   2.356  10.627
46406W        W 7860  37.052  28.999  14.400
46407W        W 7861  34.427   6.906  13.336
46408W        W 7862   7.183  11.145  13.318
46409W        W 7863  13.181  10.349  12.543
46410W        W 7864  16.706  16.145   0.859
46411W        W 7865  28.083  23.564   2.849
46412W        W 7866  44.321  32.431   3.751
46413W        W 7867   1.267  24.724   1.369
46414W        W 7868  12.197  20.538   9.963
46415W        W 7869  38.535  30.548   3.319
46416W        W 7870  23.177  23.678   3.799
46417W        W 7871  18.240   2.431   1.864
46418W        W 7872   0.414  43.299   2.759
46419W        W 7873  39.854  43.869  14.023
46420W        W 7874  37.851  39.961   2.817
46421W        W 7875  41.956  36.966  12.577
46422W        W 7876  18.639   7.415   1.925
46423W        W 7877  31.547  21.538  12.574
46424W        W 7878  43.007  18.104   1.699
46425W        W 7879  18.193   3.353  14.904
46426W        W 7880  18.767  30.611   0.261
46427W        W 7881  31.405  13.305   4.692
46428W        W 7882  41.355  43.000   2.338
46429W        W 7883  28.489  25.506  13.526
46430W        W 7884   4.860  18.102   1.277
46431W        W 7885  40.937  27.197  14.502
46432W        W 7886  22.582  28.108  14.013
46433W        W 7887  43.809  27.495   0.882
46434W        W 7888  12.335   2.449   1.745
46435W        W 7889   2.270   6.842   1.903
46436W        W 7890   9.361  28.004  12.381
46437W        W 7891  13.755   9.804   9.987
46438W        W 7892   2.422  27.487  14.458
46439W        W 7893  43.429  42.010  12.859
46440W        W 7894   5.822  37.026  13.908
46441W        W 7895  24.553  39.395   4.318
46442W        W 7896  22.066   1.804   0.920
46443W        W 7897  11.199   0.426  13.922
46444W        W 7898  23.066   5.290  14.470
46445W        W 7899  16.244  15.168   3.804
46446W        W 7900  13.290  44.858  10.940
46447W        W 7901  36.470  24.500  11.563
46448W        W 7902  27.545  19.559  11.015
46449W        W 7903  42.902  28.460  13.821
46450W        W 7904   9.389   4.708  10.891
46451W        W 7905  18.712   9.264   0.892
46452W        W 7906  16.733  22.106   3.728
46453W        W 7907  26.565  12.848  13.880
46454W        W 7908   4.235  26.162   4.257
46455W        W 7909  44.383  19.550   3.729
46456W        W 7910  28.663  23.179  11.561
46457W        W 7911  13.733   7.901  12.025
46458W        W 7912   5.243   4.857   1.221
46459W        W 7913  13.637  43.329   9.964
46460W        W 7914  19.733  19.534   3.176
46461W        W 7915  25.007  44.444  14.906
46462W        W 7916  39.860  11.824  12.530
46463W        W 7917  28.074   7.728  14.829
46464W        W 7918  25.124  41.849  10.909
46465W        W 7919  20.542   8.710   1.909
46466W        W 7920  35.106   7.854  12.961
46467W        W 7921  36.368  37.063   4.117
46468W        W 7922   9.350  22.590  11.896
46469W        W 7923  40.503   7.670   4.621
46470W        W 7924  18.724   9.886  14.333
46471W        W 7925   1.906  14.747  13.053
46472W        W 7926  27.150  25.079  12.085
46473W        W 7927   7.196   8.694   1.350
46474W        W 7928   3.790  12.788   0.314
46475W        W 7929  17.644  34.453  12.478
46476W        W 7930   0.947  31.431  13.974
46477W        W 7931  23.165  44.356  14.946
46478W        W 7932  15.811  39.936  14.397
46479W        W 7933  43.969  16.259   0.243
46480W        W 7934  38.345  40.545   3.222
46481W        W 7935  38.998  36.515  13.411
46482W        W 7936  12.706  30.013  13.840
46483W        W 7937  43.354  41.954  10.530
46484W        W 7938  12.317  23.216   1.894
46485W        W 7939  33.048  32.560  12.026
46486W        W 7940  18.237  23.591  10.601
46487W        W 7941  41.949   9.265   0.260
46488W        W 7942   4.367  34.406  11.579
46489W        W 7943  11.853   6.756   2.880
46490W        W 7944  13.842  38.917   1.318
46491W        W 7945  37.541  28.132   2.692
46492W        W 7946  14.667   3.461   5.311
46493W        W 7947  35.418  30.922   0.807
46494W        W 7948  16.732  10.309  14.833
46495W        W 7949   3.750  28.075   1.268
46496W        W 7950  29.471  38.959   5.114
46497W        W 7951  19.701  19.228   0.329
46498W        W 7952  10.359   6.871   2.332
46499W        W 7953   9.384  39.002  12.011
46500W        W 7954  21.650  15.730   0.912
46501W        W 7955  10.300   3.432  12.410
46502W        W 7956   2.463  30.927   2.197
46503W        W 7957  18.643  42.509  13.527
46504W        W 7958   0.356  19.229   2.412
46505W        W 7959  16.140  12.139  12.342
46506W        W 7960   5.263  25.134   4.202
46507W        W 7961  36.902  26.195  13.523
46508W        W 7962  39.438  32.557  14.840
46509W        W 7963  44.974  28.943  12.030
46510W        W 7964   7.360  28.632   2.748
46511W        W 7965  20.763  17.607   4.777
46512W        W 7966   9.180  12.237   3.760
46513W        W 7967  21.213  24.576   0.798
46514W        W 7968  31.558  34.580   2.821
46515W        W 7969  34.883  41.530   3.168
46516W        W 7970   8.181  43.005  11.951
46517W        W 7971   7.864  28.100  11.986
46518W        W 7972  10.173  40.479   0.429
46519W        W 7973  39.941  29.058  14.313
46520W        W 7974  16.150  29.152  13.433
46521W        W 7975  39.021   4.783   5.283
46522W        W 7976  21.596   2.739  13.826
46523W        W 7977  36.491  22.203  12.950
46524W        W 7978  23.602  28.561   1.426
46525W        W 7979  17.113  21.648   3.218
46526W        W 7980   2.236  37.426  12.345
46527W        W 7981  15.641  24.513  10.641
46528W        W 7982  36.888  16.661   3.337
46529W        W 7983  26.094  28.931   3.752
46530W        W 7984  14.773  26.007   3.206
46531W        W 7985  10.198  30.005  12.377
46532W        W 7986  13.109   6.316   4.615
46533W        W 7987  24.209  16.106   4.757
46534W        W 7988  42.491   0.288   3.291
46535W        W 7989  34.563   3.849  14.357
46536W        W 7990  44.874  32.512   4.664
46537W        W 7991  15.182  20.221   4.169
46538W        W 7992  39.044  16.173  12.873
46539W        W 7993  30.634   3.901  14.492
46540W        W 7994  16.645  24.998  14.794
46541W        W 7995   1.416  21.020   4.137
46542W        W 7996  34.004  19.735  10.988
46543W        W 7997  21.130  33.552  12.066
46544W        W 7998  34.951  12.738  10.099
46545W        W 7999  20.186   0.427   4.822
46546W        W 8000  20.257  26.618  14.969
46547W        W 8001  21.565  38.367  11.066
46548W        W 8002  29.661  34.085   3.867
46549W        W 8003   2.349  20.593   2.367
46550W        W 8004  34.540   5.422  14.504
46551W        W 8005  42.868  44.967   1.394
46552W        W 8006  18.279  11.828   0.744
46553W        W 8007   4.774  12.848   2.764
46554W        W 8008  11.759  36.895  14.407
46555W        W 8009  24.164  21.697   3.151
46556W        W 8010  37.015  13.190  10.942
46557W        W 8011   3.271  24.091  13.386
46558W        W 8012  24.138  27.127   2.870
46559W        W 8013  19.128   5.885   0.727
46560W        W 8014  41.395  16.190  14.953
46561W        W 8015  43.937   4.313   0.300
46562W        W 8016  12.221  17.120   1.323
46563W        W 8017  14.651   2.270   0.408
46564W        W 8018  43.006   8.747   1.353
46565W        W 8019  20.203  36.456  11.036
46566W        W 8020  13.296  13.301  12.967
46567W        W 8021  44.410  22.139  11.073
46568W        W 8022  33.611   2.256   2.761
46569W        W 8023  14.209  27.548   4.291
46570W        W 8024  27.175  20.071   4.222
46571W        W 8025  44.475  28.515   3.840
46572W        W 8026   8.875  32.019   4.740
46573W        W 8027   1.751  38.482   3.318
46574W        W 8028  35.900   8.310  11.094
46575W        W 8029  14.099  21.638  13.037
46576W        W 8030   8.759  15.112   0.361
46577W        W 8031  43.404   6.199   1.305
46578W        W 8032  28.169  41.797  11.558
46579W        W 8033  36.507  20.696   0.347
46580W        W 8034  10.299  19.675   1.760
46581W        W 8035   9.352   9.827  10.930
46582W        W 8036   6.767  44.441   3.759
46583W        W 8037  29.646  14.329   1.860
46584W        W 8038  18.629  34.938   4.737
46585W        W 8039  13.840  41.530   4.692
46586W        W 8040  33.007  36.584  14.489
46587W        W 8041   0.941  17.285  11.918
46588W        W 8042  24.532  28.515  12.971
46589W        W 8043  11.836  37.963  11.077
46590W        W 8044  44.286   1.401  11.579
46591W        W 8045  32.580  36.092   4.750
46592W        W 8046  19.564  43.375   2.186
46593W        W 8047   4.757   0.332   4.293
46594W        W 8048  25.049  27.618   3.774
46595W        W 8049  43.873  15.148   3.851
46596W        W 8050  39.520  30.607   2.358
46597W        W 8051  40.536  37.906  13.481
46598W        W 8052  20.271  19.552   2.349
46599W        W 8053  18.708  32.438  13.018
46600W        W 8054  26.498  12.699  14.475
46601W        W 8055  29.134  10.872   0.321
46602W        W 8056  14.097  25.612   0.958
46603W        W 8057  20.639   7.852  14.985
46604W        W 8058  28.533   3.331   2.827
46605W        W 8059  10.286  44.908  13.415
46606W        W 8060  32.408  28.173  14.297
46607W        W 8061  44.476  19.043   4.705
46608W        W 8062  25.649   2.963  13.806
46609W        W 8063  15.716  30.024  10.952
46610W        W 8064  16.710  37.971  11.486
46611W        W 8065  36.072   3.455   1.738
46612W        W 8066   9.260  33.429  14.939
46613W        W 8067  23.646  25.120   1.793
46614W        W 8068  44.491  11.245   3.311
46615W        W 8069  43.441  11.238  14.868
46616W        W 8070  33.569   7.401   1.428
46617W        W 8071   4.915  26.691   3.205
46618W        W 8072  31.037  33.487  11.057
46619W        W 8073  41.521  14.266   3.320
46620W        W 8074   8.731  13.125   1.377
46621W        W 8075  42.341  36.347   0.870
46622W        W 8076  18.113  22.227   4.205
46623W        W 8077  44.945  40.507   2.868
46624W        W 8078  32.070  31.039  14.809
46625W        W 8079  21.561  19.162  11.452
46626W        W 8080  44.908   0.793   0.832
46627W        W 8081  40.529   4.400   0.848
46628W        W 8082  40.815  10.693   0.817
46629W        W 8083  20.210  17.631   1.887
46630W        W 8084  34.595  37.565   0.733
46631W        W 8085   1.770  36.977   1.246
46632W        W 8086  19.122  26.664  10.493
46633W        W 8087  19.284   0.873  12.446
46634W        W 8088   8.188   6.905   0.302
46635W        W 8089  23.088  16.294   2.321
46636W        W 8090  40.997  38.005  10.042
46637W        W 8091  30.534  10.289   5.138
46638W        W 8092  34.945  35.518   3.862
46639W        W 8093  35.051  11.129   2.274
46640W        W 8094  10.789  39.954   2.869
46641W        W 8095  17.182   8.680  11.498
46642W        W 8096  35.869  36.890   1.828
46643W        W 8097  20.728   4.255   2.903
46644W        W 8098  26.135   4.280   4.124
46645W        W 8099  38.027  37.916   1.301
46646W        W 8100  13.315  36.449   0.257
46647W        W 8101  43.852  16.084  12.349
46648W        W 8102  18.719   7.872  12.834
46649W        W 8103  33.037  40.052   0.895
46650W        W 8104   8.683  27.127  13.897
46651W        W 8105   3.340  34.951  14.290
46652W        W 8106  27.047  25.997   0.316
46653W        W 8107   7.384  27.120  10.541
46654W        W 8108  43.004   5.784  12.539
46655W        W 8109  37.552  38.328  10.446
46656W        W 8110  41.502  24.975   0.774
46657W        W 8111  10.263  43.394   4.597
46658W        W 8112  15.319  44.300   2.394
46659W        W 8113  15.587  18.245   4.228
46660W        W 8114  23.139  33.531   1.777
46661W        W 8115  21.652  27.589  14.937
46662W        W 8116  31.511  17.654  12.522
46663W        W 8117  30.039  27.594  10.892
46664W        W 8118  25.607  32.425   3.801
46665W        W 8119  40.955  18.552  11.526
46666W        W 8120  41.893   7.738   1.420
46667W        W 8121   2.856  18.083   4.328
46668W        W 8122  28.987  34.494  11.913
46669W        W 8123  13.157  41.817   2.281
46670W        W 8124  13.688   2.779  14.468
46671W        W 8125  37.939  21.739  10.460
46672W        W 8126  35.439   6.194  11.465
46673W        W 8127  38.326   4.396  11.525
46674W        W 8128  20.636  44.297   4.777
46675W        W 8129  11.763  24.977   0.875
46676W        W 8130  43.986  31.915  14.902
46677W        W 8131   9.160  33.120   1.701
46678W        W 8132  42.373  27.456  11.539
46679W        W 8133   7.702  28.640   2.367
46680W        W 8134  39.809  43.318  11.973
46681W        W 8135  25.115  16.140  12.887
46682W        W 8136   1.923  11.209  11.389
46683W        W 8137  20.673  14.643   4.738
46684W        W 8138  11.153   0.354  10.540
46685W        W 8139  12.732  32.909   4.833
46686W        W 8140  31.031  26.577   2.830
46687W        W 8141   9.281  30.582   3.231
46688W        W 8142  32.042   2.254  11.031
46689W        W 8143  13.169  22.597  13.408
46690W        W 8144  35.446   9.872  13.447
46691W        W 8145  20.189   1.815   5.213
46692W        W 8146  40.486  29.041   2.204
46693W        W 8147   8.325   0.787  11.997
46694W        W 8148  24.222  13.639  10.422
46695W        W 8149   9.843  25.641   1.902
46696W        W 8150   0.350   7.307   0.299
46697W        W 8151   0.335  18.207  11.501
46698W        W 8152  31.035  22.009   1.248
46699W        W 8153   5.332   0.259  13.848
46700W        W 8154   0.813  11.699   3.303
46701W        W 8155   4.268  39.911   1.743
46702W        W 8156  36.563  44.782   1.315
46703W        W 8157   6.857  26.656  14.949
46704W        W 8158  38.409  29.940   3.336
46705W        W 8159   4.307  19.552   2.272
46706W        W 8160  38.951  17.295   0.242
46707W        W 8161   9.823   5.768  13.318
46708W        W 8162   9.300  41.490   2.324
46709W        W 8163   4.737  29.126   3.742
46710W        W 8164   6.863  21.703  13.379
46711W        W 8165   2.887  34.892   1.834
46712W        W 8166   4.717  17.114   5.215
46713W        W 8167  15.255  14.172   0.850
46714W        W 8168  26.195  44.755   4.712
46715W        W 8169   9.373   5.293  12.342
46716W        W 8170  24.653   0.345   0.274
46717W        W 8171  18.194  17.738   0.265
46718W        W 8172  37.548  36.536   2.223
46719W        W 8173  27.503  17.298   2.874
46720W        W 8174  26.141  24.702   0.463
46721W        W 8175   5.927  18.788   1.824
46722W        W 8176  12.855  38.422   4.633
46723W        W 8177   5.388  30.965   0.839
46724W        W 8178  38.900  14.671   0.422
46725W        W 8179  23.094  20.115  10.903
46726W        W 8180  41.807  36.501  11.936
46727W        W 8181   1.957  33.431   3.379
46728W        W 8182  10.693  11.160  14.971
46729W        W 8183  34.604   8.814  12.392
46730W        W 8184  41.826  30.927   3.307
46731W        W 8185  19.779  37.066   4.814
46732W        W 8186  15.624  31.145   1.255
46733W        W 8187  25.486  44.433   2.872
46734W        W 8188  30.491  27.176   2.800
46735W        W 8189  22.713   6.348   4.267
46736W        W 8190  40.918  17.304  12.456
46737W        W 8191  14.182  41.311  12.485
46738W        W 8192  27.989  10.783   4.744
46739W        W 8193   3.911   8.273  13.831
46740W        W 8194  42.343  14.241   2.780
46741W        W 8195   1.738  21.082  14.310
46742W        W 8196   1.784  29.948   4.244
46743W        W 8197  11.703  31.133   2.245
46744W        W 8198  26.019  42.358   3.226
46745W        W 8199  16.726  28.076   0.435
46746W        W 8200  28.671  19.573  13.857
46747W        W 8201  30.908  43.856  14.451
46748W        W 8202  39.033  39.327  11.436
46749W        W 8203  29.980  39.433  12.823
46750W        W 8204  16.080  19.238   4.184
46751W        W 8205  43.420  21.559   2.749
46752W        W 8206  10.750  27.647   1.757
46753W        W 8207  32.442  16.110  13.387
46754W        W 8208  42.853  15.175  12.926
46755W        W 8209  35.439   6.333  13.337
46756W        W 8210  33.518  22.695   4.129
46757W        W 8211  19.159  32.630  11.601
46758W        W 8212  15.733  35.883  12.924
46759W        W 8213  17.796  21.643  13.864
46760W        W 8214  33.990  42.935   2.693
46761W        W 8215  24.124  23.133  13.542
46762W        W 8216  10.279  14.714   1.371
46763W        W 8217  15.234  19.691  12.986
46764W        W 8218  43.958  13.783  12.953
46765W        W 8219  23.605  18.627   3.805
46766W        W 8220  32.113  14.667   4.813
46767W        W 8221  19.207   8.294   2.259
46768W        W 8222   7.384  25.200   3.825
46769W        W 8223   9.207  39.829  12.902
46770W        W 8224   2.951  35.532  14.838
46771W        W 8225  12.746  22.187   4.342
46772W        W 8226  13.715  31.456  12.573
46773W        W 8227  27.149   2.821   0.898
46774W        W 8228  42.424  39.331  14.288
46775W        W 8229  16.231  29.603  11.063
46776W        W 8230  14.657  14.274  13.428
46777W        W 8231  30.941   5.433   3.249
46778W        W 8232   9.868  30.613  14.327
46779W        W 8233  35.967  16.108   2.751
46780W        W 8234  13.781  34.456  10.553
46781W        W 8235  42.441  20.536  10.570
46782W        W 8236  11.649  18.557   1.356
46783W        W 8237   8.844  10.690  11.096
46784W        W 8238  15.316  30.523  11.932
46785W        W 8239  38.555   2.756  10.974
46786W        W 8240  38.907  20.250  11.612
46787W        W 8241  26.497  18.698   4.826
46788W        W 8242  41.846   5.911   1.323
46789W        W 8243  37.026  14.249  14.855
46790W        W 8244  15.157  11.653  14.851
46791W        W 8245  15.789  12.209   2.831
46792W        W 8246  44.950   1.905  12.510
46793W        W 8247  13.156  42.425  12.907
46794W        W 8248   4.779   0.829  12.861
46795W        W 8249  34.522  39.982   2.713
46796W        W 8250  19.686   5.233  13.972
46797W        W 8251  38.330  21.612   4.231
46798W        W 8252  13.721  34.116   3.767
46799W        W 8253  23.577  35.470  13.976
46800W        W 8254  39.375  27.628   3.815
46801W        W 8255   7.876   2.810   4.613
46802W        W 8256  23.649  36.846   2.699
46803W        W 8257  39.927  39.505   4.685
46804W        W 8258  13.689  38.500   3.764
46805W        W 8259  28.543  18.115   3.724
46806W        W 8260  21.561  34.037  11.550
46807W        W 8261  11.363   6.878   1.400
46808W        W 8262  19.598  26.017   4.344
46809W        W 8263  17.135  40.030   3.263
46810W        W 8264  11.868  40.421  14.947
46811W        W 8265  24.986  29.078   0.249
46812W        W 8266  14.709  13.317   2.874
46813W        W 8267  30.576  36.876  13.388
46814W        W 8268  20.207   2.384  13.056
46815W        W 8269  17.592  12.759   9.603
46816W        W 8270  14.256  41.983   0.470
46817W        W 8271  17.148  39.063   4.249
46818W        W 8272  35.548  34.006   1.860
46819W        W 8273  44.286  28.160  13.328
46820W        W 8274  24.144  16.627  11.908
46821W        W 8275  39.950  16.642   2.697
46822W        W 8276  40.901   8.272   3.225
46823W        W 8277  14.710  13.611   0.959
46824W        W 8278  30.047  27.009  14.426
46825W        W 8279  31.121  24.659  14.900
46826W        W 8280   0.448  12.348  13.913
46827W        W 8281  12.775   0.966   1.440
46828W        W 8282  36.410   6.294   0.363
46829W        W 8283  33.081  44.826  11.914
46830W        W 8284  13.149   3.820   0.748
46831W        W 8285  21.647  19.198   3.690
46832W        W 8286  43.327  17.650  13.011
46833W        W 8287  20.160  41.041   0.965
46834W        W 8288  24.517  13.240  11.006
46835W        W 8289  34.548  21.025  14.989
46836W        W 8290   5.291  37.005   3.773
46837W        W 8291  39.558  43.022   2.723
46838W        W 8292  42.010  18.578  12.837
46839W        W 8293  42.928  10.251   1.233
46840W        W 8294  42.461  44.303  10.629
46841W        W 8295   0.962  27.616   3.308
46842W        W 8296   1.804  19.551  11.599
46843W        W 8297  40.311  17.621  12.368
46844W        W 8298   2.897   0.255  13.936
46845W        W 8299   4.806  42.962   1.764
46846W        W 8300   2.293  14.159  10.991
46847W        W 8301  34.968  35.408  13.951
46848W        W 8302   8.658  44.807  14.459
46849W        W 8303  37.044   1.773   2.385
46850W        W 8304   4.730  30.106   0.785
46851W        W 8305  32.629  20.635  10.452
46852W        W 8306  12.627  37.881   1.274
46853W        W 8307  39.889  40.016  14.401
46854W        W 8308  41.438  21.626  14.387
46855W        W 8309  22.023  41.351   4.815
46856W        W 8310  30.145  22.134   1.407
46857W        W 8311  21.649   9.192   0.762
46858W        W 8312   3.417   0.885  13.340
46859W        W 8313  33.422  29.618   1.335
46860W        W 8314  18.715  29.071   4.693
46861W        W 8315  37.944  32.612  12.031
46862W        W 8316  41.885  40.515  14.423
46863W        W 8317   6.416  43.010  14.830
46864W        W 8318  10.383  15.684  12.535
46865W        W 8319  18.745  19.238   1.436
46866W        W 8320  31.514   2.342  13.403
46867W        W 8321  42.354  17.305   3.826
46868W        W 8322  38.463  42.445   2.284
46869W        W 8323  34.531  29.424  11.930
46870W        W 8324   6.313   4.226  13.362
46871W        W 8325   7.840  11.720  11.458
46872W        W 8326  39.355   9.761   3.684
46873W        W 8327  41.898   1.924  12.466
46874W        W 8328  28.114  17.204   5.290
46875W        W 8329  10.684   7.792   3.177
46876W        W 8330  33.887   5.338   2.712
46877W        W 8331  26.460  28.500   4.603
46878W        W 8332  18.696  27.082  13.395
46879W        W 8333  12.153  10.377   4.765
46880W        W 8334  43.297  14.195  12.864
46881W        W 8335   7.699  27.617  13.925
46882W        W 8336   4.931  33.895   0.436
46883W        W 8337  16.182  20.758  12.502
46884W        W 8338  30.907  11.765   2.384
46885W        W 8339  17.128   7.842   2.810
46886W        W 8340  36.917   2.343  12.523
46887W        W 8341  10.285  19.618   0.777
46888W        W 8342  27.530   2.937  11.555
46889W        W 8343  25.173   4.395   1.269
46890W        W 8344  20.267  40.548   0.299
46891W        W 8345   1.267  14.115   0.865
46892W        W 8346  15.629  27.058   1.712
46893W        W 8347  44.955  43.818   0.745
46894W        W 8348  44.959  22.035  14.406
46895W        W 8349   9.730  29.158   3.728
46896W        W 8350  38.063  19.039   3.150
46897W        W 8351  24.092   5.270  12.905
46898W        W 8352   3.445  37.965  14.022
46899W        W 8353  31.566  18.216   2.377
46900W        W 8354  44.770  16.612  13.902
46901W        W 8355  36.469  17.093  12.095
46902W        W 8356  24.556  25.481  13.382
46903W        W 8357  31.090  19.620   3.777
46904W        W 8358  23.202  39.554  13.953
46905W        W 8359  32.132  20.615   1.276
46906W        W 8360  12.689  23.208  13.034
46907W        W 8361  34.081  26.014  12.838
46908W        W 8362  41.395  23.007  11.416
46909W        W 8363  33.560   6.304   4.819
46910W        W 8364  15.317   7.698   4.756
46911W        W 8365  34.892  40.502  11.119
46912W        W 8366  16.765   9.737  14.919
46913W        W 8367   0.465   9.223  14.765
46914W        W 8368  42.504  10.821   3.782
46915W        W 8369  40.508  18.121   3.373
46916W        W 8370   3.253  34.960   2.333
46917W        W 8371  20.230   2.436  14.019
46918W        W 8372  40.974   9.312  12.501
46919W        W 8373  42.943   4.320  14.793
46920W        W 8374  20.029  17.228  11.057
46921W        W 8375  41.462  21.180  12.451
46922W        W 8376  33.490   8.349  13.447
46923W        W 8377  44.774  13.110  12.482
46924W        W 8378  36.852   3.727   1.886
46925W        W 8379   6.292  23.021  13.957
46926W        W 8380  12.755   4.838   4.351
46927W        W 8381   3.711  14.149  10.523
46928W        W 8382  30.062  29.001  13.348
46929W        W 8383  20.121  29.636  13.999
46930W        W 8384  38.460   1.847   4.775
46931W        W 8385  18.721  34.050  13.948
46932W        W 8386  22.611  42.390   3.238
46933W        W 8387  39.852  11.370  13.027
46934W        W 8388  27.061  29.456  11.116
46935W        W 8389  31.419  27.064   1.419
46936W        W 8390  21.027  17.626   2.239
46937W        W 8391  43.853  38.371   0.866
46938W        W 8392  43.321   5.372  11.053
46939W        W 8393   2.849   1.813   3.801
46940W        W 8394  25.024  12.353  13.434
46941W        W 8395  32.915  39.851  13.815
46942W        W 8396  14.272  42.909   4.659
46943W        W 8397  31.539  37.963  14.018
46944W        W 8398   7.208  42.436  10.964
46945W        W 8399  13.275  39.559   2.324
46946W        W 8400  15.110  33.482  12.350
46947W        W 8401  19.206  33.578  14.881
46948W        W 8402   9.246  11.182   3.256
46949W        W 8403  22.034  22.246   2.875
46950W        W 8404  31.635   9.812   2.708
46951W        W 8405  31.622   6.223   4.638
46952W        W 8406   7.395   0.870   2.898
46953W        W 8407  17.219  40.431  11.970
46954W        W 8408  40.930  28.173   2.794
46955W        W 8409  29.441  39.319   2.711
46956W        W 8410  22.743   3.767   0.847
46957W        W 8411  33.968   3.232   0.358
46958W        W 8412  15.137  12.348   1.214
46959W        W 8413  16.661  41.037  12.542
46960W        W 8414  17.086  13.226  13.841
46961W        W 8415  31.960  17.631  10.943
46962W        W 8416  44.350  20.041   3.826
46963W        W 8417  36.545  25.712  13.038
46964W        W 8418  40.805  18.089   2.829
46965W        W 8419  42.903   6.841   3.284
46966W        W 8420  32.092  27.142   0.417
46967W        W 8421  13.260   8.886   3.160
46968W        W 8422  35.005  14.625   2.308
46969W        W 8423  37.934  36.554   4.813
46970W        W 8424  36.520   0.403  14.426
46971W        W 8425  42.491  17.563  13.864
46972W        W 8426  38.486  32.903   3.793
46973W        W 8427  11.735  10.242  13.462
46974W        W 8428   5.265   9.756   2.235
46975W        W 8429   0.357  42.886  13.009
46976W        W 8430  13.310  28.619   2.786
46977W        W 8431  20.597   4.729   0.414
46978W        W 8432   3.412  43.952  14.308
46979W        W 8433  15.149  29.564  14.510
46980W        W 8434   7.816  11.787  10.951
46981W        W 8435  18.627  24.642   1.912
46982W        W 8436   2.870  29.557  14.810
46983W        W 8437  11.631  30.039   1.717
46984W        W 8438   3.838   8.707  12.859
46985W        W 8439  41.041   1.780   0.372
46986W        W 8440  34.491  18.637   0.843
46987W        W 8441  28.064   1.839  14.928
46988W        W 8442  21.137  44.940   0.374
46989W        W 8443  29.972  26.472  11.525
46990W        W 8444  22.037  20.039  14.277
46991W        W 8445  31.112  32.107  13.329
46992W        W 8446   5.258  35.552   0.744
46993W        W 8447   5.811  38.547  12.893
46994W        W 8448  40.450  14.835   3.836
46995W        W 8449  11.272  36.434   3.236
46996W        W 8450   3.735  10.874   2.768
46997W        W 8451  25.015  28.446   1.389
46998W        W 8452  20.117   5.749   4.755
46999W        W 8453  44.416  35.421  10.506
47000W        W 8454  36.361   1.844  12.403
47001W        W 8455   5.788  29.666   0.312
47002W        W 8456  37.408  17.274   0.347
47003W        W 8457  37.970  12.321   3.325
47004W        W 8458  10.722  19.576  14.901
47005W        W 8459  36.047   7.680  11.467
47006W        W 8460   0.294  38.420   1.233
47007W        W 8461  26.531  35.972  12.494
47008W        W 8462  18.754  29.149  11.525
47009W        W 8463  10.359  15.751   4.708
47010W        W 8464   5.883  16.099   0.729
47011W        W 8465  27.166  20.068   1.744
47012W        W 8466  28.633  17.227   0.264
47013W        W 8467  28.945  36.529  13.434
47014W        W 8468  26.975  30.092   3.737
47015W        W 8469  28.967  37.431  11.444
47016W        W 8470  20.270   1.963  12.580
47017W        W 8471   3.949  34.062  12.062
47018W        W 8472  28.613   2.297  10.472
47019W        W 8473  30.589   6.420   2.316
47020W        W 8474  26.558   4.746  12.398
47021W        W 8475  36.068  22.648  10.490
47022W        W 8476  18.241  13.702  10.953
47023W        W 8477   2.870  15.108   0.879
47024W        W 8478   7.330  33.541  14.891
47025W        W 8479   9.303   8.256  13.544
47026W        W 8480   4.757  11.256   3.263
47027W        W 8481  12.296  29.130   1.387
47028W        W 8482  37.554  28.975  10.405
47029W        W 8483  23.646  44.435   3.689
47030W        W 8484  19.753   5.805   4.143
47031W        W 8485  38.550   1.256  10.424
47032W        W 8486  38.524  23.146  14.334
47033W        W 8487  20.229   2.242  13.465
47034W        W 8488  21.707  40.535  12.375
47035W        W 8489  44.398   0.836  12.992
47036W        W 8490  11.218  29.029   3.279
47037W        W 8491  28.553  42.957   3.298
47038W        W 8492  37.368   7.809   0.396
47039W        W 8493   8.893  32.885   5.649
47040W        W 8494  18.583  24.008  10.467
47041W        W 8495  42.348  35.992   1.334
47042W        W 8496  29.055  41.022   0.844
47043W        W 8497  18.713  33.975   4.644
47044W        W 8498  33.907  11.826   4.183
47045W        W 8499  41.904  12.345   2.667
47046W        W 8500  29.500  36.862   4.788
47047W        W 8501   5.735  14.617   4.259
47048W        W 8502  25.593  28.166   4.142
47049W        W 8503  25.523   6.234   2.310
47050W        W 8504  41.530   6.329   4.795
47051W        W 8505   0.339  24.519  14.411
47052W        W 8506  33.101  44.294   0.409
47053W        W 8507  30.547  20.229   0.885
47054W        W 8508  32.575  35.595   1.804
47055W        W 8509   0.880  40.822   0.810
47056W        W 8510  20.671  27.487   4.243
47057W        W 8511  13.194  29.035  11.479
47058W        W 8512  35.898  32.053  11.932
47059W        W 8513   9.745  26.965  12.895
47060W        W 8514  12.179  26.138  11.537
47061W        W 8515  13.845   6.411  12.463
47062W        W 8516  16.262   8.669   2.703
47063W        W 8517  33.381  29.033   0.769
47064W        W 8518  37.867  10.706   4.705
47065W        W 8519   0.401  31.644  13.918
47066W        W 8520  18.546  44.388  14.023
47067W        W 8521  10.821   9.838  11.098
47068W        W 8522  15.748   6.407  11.528
47069W        W 8523  16.586   2.452  14.466
47070W        W 8524  44.876   5.813   4.243
47071W        W 8525  39.026  39.929   3.223
47072W        W 8526  33.945  33.945   0.902
47073W        W 8527   6.385   7.207   2.319
47074W        W 8528  34.981  16.221   4.681
47075W        W 8529  42.419  19.540  12.925
47076W        W 8530   6.828  20.620   3.741
47077W        W 8531  33.447  22.036   0.749
47078W        W 8532   4.349  44.998  14.461
47079W        W 8533  39.549   7.863   4.158
47080W        W 8534  38.029   4.876   3.704
47081W        W 8535  21.186  29.603  10.431
47082W        W 8536  29.029  29.539  13.530
47083W        W 8537  31.565   1.890   0.908
47084W        W 8538  25.064  44.999  10.932
47085W        W 8539  38.335   1.789  11.077
47086W        W 8540   0.789  12.703   1.927
47087W        W 8541   5.856  28.999  14.510
47088W        W 8542  44.334  16.310  13.940
47089W        W 8543  27.162  11.200  14.285
47090W        W 8544  15.652   0.487  13.540
47091W        W 8545  30.955  32.902  14.306
47092W        W 8546  40.473  22.717  11.999
47093W        W 8547  15.235  35.439  14.433
47094W        W 8548  15.283  27.552   4.134
47095W        W 8549  25.508  22.167  14.983
47096W        W 8550  22.510  17.279  13.929
47097W        W 8551  25.218   3.454   2.326
47098W        W 8552  20.151  36.018  11.476
47099W        W 8553  24.111  23.576   2.743
47100W        W 8554  25.701   4.300   1.921
47101W        W 8555   0.311  37.492   3.271
47102W        W 8556  40.369  28.617  10.547
47103W        W 8557  25.160  19.637   5.147
47104W        W 8558  21.135  39.459   2.764
47105W        W 8559  11.273   4.875   1.821
47106W        W 8560  38.534  37.909  11.404
47107W        W 8561  17.209  44.828   4.800
47108W        W 8562  12.746  41.896  14.952
47109W        W 8563  22.089  39.462  13.992
47110W        W 8564  24.044   4.213   1.808
47111W        W 8565  29.942  22.693  14.413
47112W        W 8566  29.077  19.226  11.940
47113W        W 8567  29.432  35.003  11.030
47114W        W 8568  15.137  37.836  10.594
47115W        W 8569  42.846  29.584  14.900
47116W        W 8570  44.497  31.004  10.468
47117W        W 8571  44.276  16.775  11.488
47118W        W 8572  43.956  44.957   0.887
47119W        W 8573  43.388  35.086  12.903
47120W        W 8574   0.866  42.794  12.873
47121W        W 8575  31.910  17.130  13.489
47122W        W 8576  37.408   7.877  14.839
47123W        W 8577  22.671   0.965  13.397
47124W        W 8578  40.436   6.689  12.542
47125W        W 8579  19.589   0.761   3.704
47126W        W 8580  24.079  15.628   2.871
47127W        W 8581  42.976  41.848  13.864
47128W        W 8582  29.129  10.288   3.696
47129W        W 8583  32.053   3.792   3.865
47130W        W 8584  21.555  23.583  13.422
47131W        W 8585  16.166   9.343  12.421
47132W        W 8586   3.900   6.810   4.120
47133W        W 8587  44.756   6.393   3.288
47134W        W 8588  26.701   6.774  10.998
47135W        W 8589   5.769  42.004  11.477
47136W        W 8590  18.279  36.424  14.006
47137W        W 8591   7.875  22.042   4.181
47138W        W 8592   3.711  20.108  14.905
47139W        W 8593  27.635  40.413   1.300
47140W        W 8594   6.322  26.190   0.350
47141W        W 8595  17.218  24.986   5.152
47142W        W 8596  19.161  38.503  12.471
47143W        W 8597  39.317  21.620  13.002
47144W        W 8598  29.018   6.808   0.759
47145W        W 8599  37.406   1.403   2.792
47146W        W 8600   9.197   1.909   1.381
47147W        W 8601  11.149   6.199  14.987
47148W        W 8602  23.206   7.412  11.385
47149W        W 8603  29.462   6.699   2.201
47150W        W 8604   6.368  27.492  13.003
47151W        W 8605   9.343  40.036   0.293
47152W        W 8606  27.664   4.340  14.431
47153W        W 8607  32.042  30.453   0.370
47154W        W 8608   2.261  27.501   3.742
47155W        W 8609  40.050  41.528   1.875
47156W        W 8610   5.784   7.295   2.232
47157W        W 8611  23.723  19.170  10.899
47158W        W 8612  43.360  31.095   0.366
47159W        W 8613  18.589  17.645   3.823
47160W        W 8614   9.196   2.411   1.368
47161W        W 8615  14.193   4.439  10.530
47162W        W 8616  16.686  41.009   0.799
47163W        W 8617  30.417  21.071   2.378
47164W        W 8618  11.653  37.399   5.126
47165W        W 8619  12.356  15.314   4.612
47166W        W 8620   8.889   0.260   3.184
47167W        W 8621   2.799  29.615  12.090
47168W        W 8622   6.283  17.092  13.055
47169W        W 8623   2.248   4.394   2.318
47170W        W 8624  34.490  12.719  12.048
47171W        W 8625  14.281   0.370   1.871
47172W        W 8626  11.150  19.154   1.412
47173W        W 8627  26.498   5.897  11.381
47174W        W 8628  41.460  32.929  13.878
47175W        W 8629   7.718  23.138   0.449
47176W        W 8630  39.366  44.279   1.797
47177W        W 8631  25.218  31.407  12.457
47178W        W 8632   6.693  43.927   0.414
47179W        W 8633  12.840   1.858  12.882
47180W        W 8634  33.005   9.339   0.306
47181W        W 8635   8.716  22.532  13.816
47182W        W 8636  27.030   2.244  13.316
47183W        W 8637  24.532  17.238  12.419
47184W        W 8638  13.247  35.448  13.025
47185W        W 8639  11.201  12.643   0.952
47186W        W 8640  43.445  26.951   1.274
47187W        W 8641  24.675   1.354  11.924
47188W        W 8642  31.448  14.810   4.286
47189W        W 8643   3.875  41.365   3.312
47190W        W 8644  18.666  35.869  13.964
47191W        W 8645  33.057  15.770  12.870
47192W        W 8646  16.571  35.562   0.905
47193W        W 8647  19.226  42.972   3.650
47194W        W 8648  35.971  15.319  12.563
47195W        W 8649  33.039   7.273   0.464
47196W        W 8650  23.150   3.356   0.904
47197W        W 8651  20.666  32.923   2.308
47198W        W 8652  27.068  28.560   3.668
47199W        W 8653  28.165  23.180  12.002
47200W        W 8654   4.279  24.584   2.867
47201W        W 8655  29.447  34.864  11.432
47202W        W 8656  28.060  19.273  13.940
47203W        W 8657  20.532  19.189  12.942
47204W        W 8658   3.345  42.939  11.603
47205W        W 8659  25.120  10.766  10.633
47206W        W 8660  27.140  21.215   0.861
47207W        W 8661  15.195  13.201   0.242
47208W        W 8662   8.194  19.639   2.677
47209W        W 8663  25.967  36.886  11.049
47210W        W 8664  27.984   8.358  14.946
47211W        W 8665  31.092  39.825  11.058
47212W        W 8666   0.857  13.256  10.084
47213W        W 8667  37.834  34.048   4.148
47214W        W 8668  13.168  15.285  13.434
47215W        W 8669   2.836   9.282   2.826
47216W        W 8670  21.177  31.033   4.826
47217W        W 8671  44.881  16.087  10.418
47218W        W 8672  40.976  34.605   3.195
47219W        W 8673  33.549   0.282   0.755
47220W        W 8674  17.638   9.193   3.850
47221W        W 8675  44.498  41.440   2.384
47222W        W 8676  42.947  40.335  13.400
47223W        W 8677   9.782  42.990  14.906
47224W        W 8678  44.484  31.601  13.488
47225W        W 8679   1.845  39.434   0.420
47226W        W 8680  37.359  42.914  14.816
47227W        W 8681  13.702  20.676  12.033
47228W        W 8682   0.368  11.666  11.422
47229W        W 8683  21.242  20.568  10.456
47230W        W 8684   8.299  34.004  12.838
47231W        W 8685  39.885   9.371   0.841
47232W        W 8686  22.728  40.509  10.459
47233W        W 8687  41.977  38.921   0.243
47234W        W 8688  38.077  11.364  12.415
47235W        W 8689  23.998  22.535  12.502
47236W        W 8690   3.791  30.096   1.852
47237W        W 8691  11.729  36.906   0.840
47238W        W 8692   8.183  36.928   1.420
47239W        W 8693  12.194  33.019   2.391
47240W        W 8694  27.118  39.844  12.528
47241W        W 8695  39.488  42.454  14.871
47242W        W 8696  12.208  16.591   1.424
47243W        W 8697  38.979  18.790   3.796
47244W        W 8698  35.067  42.403  14.882
47245W        W 8699  40.336  34.544   2.880
47246W        W 8700  31.965   1.739   3.311
47247W        W 8701  29.121  30.964   3.201
47248W        W 8702  29.970  43.925   3.288
47249W        W 8703  24.530  37.074  14.480
47250W        W 8704  18.189  21.261  14.485
47251W        W 8705   2.727   3.856   3.649
47252W        W 8706   3.717  24.724   4.780
47253W        W 8707  11.820  18.592  11.934
47254W        W 8708  15.747  29.662   1.773
47255W        W 8709  27.028  28.033   2.709
47256W        W 8710  35.967   9.879  13.918
47257W        W 8711  40.000  38.571  11.433
47258W        W 8712  28.115  26.117   1.303
47259W        W 8713  26.510  10.789  14.332
47260W        W 8714  39.950  21.237  10.991
47261W        W 8715   4.844  34.491  14.776
47262W        W 8716  17.299   4.919   1.732
47263W        W 8717  19.568  34.958  13.442
47264W        W 8718   2.249  31.986  12.375
47265W        W 8719  19.112   5.237  10.482
47266W        W 8720   9.319  34.579   5.312
47267W        W 8721   3.382  43.808  10.504
47268W        W 8722  26.150  18.743  11.512
47269W        W 8723  26.699  21.190   3.149
47270W        W 8724   1.319  16.268  10.930
47271W        W 8725  43.007   9.878   3.741
47272W        W 8726  23.589  33.564  14.998
47273W        W 8727   5.764  38.819  11.907
47274W        W 8728  29.568  12.804   2.725
47275W        W 8729  13.323  40.018   4.689
47276W        W 8730  14.256  28.067   4.240
47277W        W 8731  19.067   4.898  14.999
47278W        W 8732  40.998  31.571  13.420
47279W        W 8733  42.431   0.867   0.743
47280W        W 8734  21.728  13.763   4.662
47281W        W 8735  24.683  37.871   2.194
47282W        W 8736   8.340  33.022  13.524
47283W        W 8737   9.387   3.241  11.528
47284W        W 8738  38.518  34.041   2.390
47285W        W 8739  41.858   7.329   4.353
47286W        W 8740  21.734  43.415   0.914
47287W        W 8741  10.720  19.779  11.926
47288W        W 8742  38.948  11.749  13.882
47289W        W 8743  24.681   6.720  11.095
47290W        W 8744   6.220  16.746   2.804
47291W        W 8745  23.686  17.245  13.845
47292W        W 8746  34.532  42.308  14.424
47293W        W 8747  41.335  11.776  14.332
47294W        W 8748  12.178  15.213   2.267
47295W        W 8749  37.385  23.641   3.266
47296W        W 8750  22.732  31.539  10.902
47297W        W 8751  24.559  39.966  11.435
47298W        W 8752  13.742  34.944   1.373
47299W        W 8753   6.807  42.936  13.934
47300W        W 8754   3.924  14.185  12.499
47301W        W 8755  39.820  22.109  11.992
47302W        W 8756  12.343  42.013   2.190
47303W        W 8757  23.692  16.190   2.306
47304W        W 8758   6.255   8.714  11.107
47305W        W 8759  41.397  40.520   1.846
47306W        W 8760  30.627  17.605   4.201
47307W        W 8761  26.569  43.946   4.265
47308W        W 8762   6.791  33.621  11.389
47309W        W 8763  12.191  14.678   1.751
47310W        W 8764   2.862   5.403   2.877
47311W        W 8765  23.044  42.805   0.407
47312W        W 8766  12.639   3.381   2.698
47313W        W 8767  17.102  25.122  11.895
47314W        W 8768  11.231  44.405  13.033
47315W        W 8769  14.239  42.376   0.282
47316W        W 8770   4.894  11.801   4.821
47317W        W 8771  19.066  32.937   4.692
47318W        W 8772  37.429   5.711   1.909
47319W        W 8773  41.976   5.810   0.854
47320W        W 8774   0.745   0.884  13.534
47321W        W 8775  43.388  14.279  10.627
47322W        W 8776  26.143  34.955   2.674
47323W        W 8777  25.687  12.840   1.399
47324W        W 8778  25.108   7.776  10.590
47325W        W 8779  17.301   2.955  10.565
47326W        W 8780  20.539  38.569  13.863
47327W        W 8781  22.997  34.585   0.937
47328W        W 8782  44.422   6.883   3.181
47329W        W 8783  24.695  42.835  10.410
47330W        W 8784   7.879   8.241   2.856
47331W        W 8785  34.516   1.803  13.528
47332W        W 8786  32.056  23.550   3.837
47333W        W 8787  40.954   6.736  13.850
47334W        W 8788  31.407   3.413  13.911
47335W        W 8789  34.905  44.799  11.056
47336W        W 8790  41.028  28.022  10.935
47337W        W 8791   4.754  11.637   3.752
47338W        W 8792  44.270   8.179  11.051
47339W        W 8793  19.134  25.983  14.465
47340W        W 8794  28.980  27.142   3.850
47341W        W 8795  15.235  24.482  12.888
47342W        W 8796  11.318   2.324   1.288
47343W        W 8797  23.662   7.756   3.169
47344W        W 8798  20.113  19.066   2.794
47345W        W 8799  20.088  13.253   2.849
47346W        W 8800  24.041  31.642  14.874
47347W        W 8801  29.132   9.310   3.354
47348W        W 8802  33.912  40.029  14.442
47349W        W 8803  11.354  39.394  14.304
47350W        W 8804   1.795   1.293  12.967
47351W        W 8805  40.303  18.229  11.598
47352W        W 8806  28.164  39.504   3.174
47353W        W 8807  37.945  10.814   0.351
47354W        W 8808   9.856   6.283   4.669
47355W        W 8809  32.616  18.786   0.426
47356W        W 8810  16.249  41.489  14.376
47357W        W 8811  37.347  40.319  11.546
47358W        W 8812  22.162  18.262   2.343
47359W        W 8813  32.981  25.485   2.244
47360W        W 8814   6.194  13.624  14.017
47361W        W 8815  38.966  11.354  13.797
47362W        W 8816  42.997   2.860  14.415
47363W        W 8817   2.256   8.816  13.390
47364W        W 8818   2.926  39.549  12.015
47365W        W 8819   0.892  41.028   1.905
47366W        W 8820  12.127   8.220  14.428
47367W        W 8821  36.403  14.314  14.436
47368W        W 8822   7.670  20.677  13.489
47369W        W 8823  23.573  29.119   4.256
47370W        W 8824  38.035  37.555   1.410
47371W        W 8825  43.423  41.406  10.032
47372W        W 8826  17.103  19.152  12.376
47373W        W 8827  23.991  11.308  10.609
47374W        W 8828  15.226  38.979  14.433
47375W        W 8829   2.778  30.425   0.783
47376W        W 8830  34.566  33.411  10.473
47377W        W 8831   6.823  10.337  14.945
47378W        W 8832  41.359  35.568   1.724
47379W        W 8833  43.291   6.373   0.276
47380W        W 8834  10.339   6.384   0.322
47381W        W 8835   4.239  24.099   2.720
47382W        W 8836  31.109  33.079  12.866
47383W        W 8837   1.757   7.410  11.000
47384W        W 8838  14.309  42.426   0.844
47385W        W 8839  21.549  25.712   3.253
47386W        W 8840  21.125  38.068  14.966
47387W        W 8841  24.712  27.635  12.854
47388W        W 8842  37.428   8.818  14.016
47389W        W 8843  41.924  29.009   4.303
47390W        W 8844  15.252   7.846   1.215
47391W        W 8845   9.869  12.258   3.232
47392W        W 8846  40.497  36.980  14.440
47393W        W 8847  24.979  26.579   4.768
47394W        W 8848  29.662  25.578  10.466
47395W        W 8849  32.021  37.994  13.927
47396W        W 8850  30.567   8.745   9.981
47397W        W 8851  10.345  28.467  11.408
47398W        W 8852  24.664  33.595   2.678
47399W        W 8853   6.760  36.436   0.478
47400W        W 8854  44.944   4.212   0.443
47401W        W 8855  30.582  30.629   2.357
47402W        W 8856   4.765  29.480  12.520
47403W        W 8857  13.137  38.819   5.617
47404W        W 8858   9.347  20.541   4.141
47405W        W 8859  40.370  40.392   2.264
47406W        W 8860   4.427  43.516   4.605
47407W        W 8861  11.650  30.610   2.770
47408W        W 8862   9.780   0.367   1.700
47409W        W 8863  12.759  37.511   9.507
47410W        W 8864  22.716  21.176  13.518
47411W        W 8865  39.324  40.050   2.356
47412W        W 8866   8.316  34.551   1.765
47413W        W 8867  16.111   9.824   4.310
47414W        W 8868  39.374   6.888  13.469
47415W        W 8869  34.118  31.988  14.280
47416W        W 8870   6.361   2.275   1.778
47417W        W 8871   9.794  26.121   4.168
47418W        W 8872  30.992  21.530   0.272
47419W        W 8873   8.303  36.456  14.012
47420W        W 8874   5.725  19.681   2.824
47421W        W 8875  36.409  33.455   4.234
47422W        W 8876  36.491  35.431  14.935
47423W        W 8877  16.794  43.016  11.436
47424W        W 8878   8.196  24.569  11.066
47425W        W 8879  19.073   7.716   9.924
47426W        W 8880  13.128  27.496  11.590
47427W        W 8881  18.724  26.021   3.271
47428W        W 8882  15.601  22.631   0.270
47429W        W 8883  35.071   3.406  12.827
47430W        W 8884  27.621  27.000  14.480
47431W        W 8885  18.645  21.049   2.847
47432W        W 8886  34.120  19.695  10.617
47433W        W 8887  26.597   9.151  10.444
47434W        W 8888  16.591   2.806   1.389
47435W        W 8889  32.089   3.403   0.331
47436W        W 8890  19.094   2.948   2.244
47437W        W 8891  30.571  37.370  14.760
47438W        W 8892  43.924   6.693  10.467
47439W        W 8893  10.637  36.366  13.949
47440W        W 8894  40.978  32.941  12.566
47441W        W 8895  27.997  44.850  10.628
47442W        W 8896  44.775  32.484   1.295
47443W        W 8897  44.913  29.558   1.796
47444W        W 8898  21.164  37.502  10.591
47445W        W 8899  13.640  11.129  10.889
47446W        W 8900  32.039  36.040  12.843
47447W        W 8901   9.211   1.364   3.806
47448W        W 8902   9.191  39.465  12.426
47449W        W 8903  24.121  31.101  13.956
47450W        W 8904  31.956  36.466  11.408
47451W        W 8905  13.805  29.954  13.959
47452W        W 8906  31.048   9.812   4.194
47453W        W 8907   9.822   0.302   4.193
47454W        W 8908  14.214  34.402  14.317
47455W        W 8909  10.816  11.731  11.418
47456W        W 8910  30.038  29.001   2.697
47457W        W 8911  40.423   6.421  13.968
47458W        W 8912   5.709   5.719  11.889
47459W        W 8913  42.357  22.019  14.389
47460W        W 8914  31.146  10.731  12.579
47461W        W 8915  16.727  42.431  11.999
47462W        W 8916  38.949  40.352   1.448
47463W        W 8917  18.627  16.787   4.264
47464W        W 8918  11.205   4.281  12.973
47465W        W 8919   1.902  24.496   3.191
47466W        W 8920  41.379  36.955   1.764
47467W        W 8921  22.626  22.249  10.071
47468W        W 8922  16.635  26.690  10.936
47469W        W 8923   6.895  16.768  12.461
47470W        W 8924  13.690  16.787   2.337
47471W        W 8925  42.944  37.553   3.806
47472W        W 8926   1.840  43.397   2.371
47473W        W 8927   1.806  21.658   2.419
47474W        W 8928  10.830  39.833  12.527
47475W        W 8929  21.713  34.612   5.275
47476W        W 8930   9.864  44.477   1.227
47477W        W 8931  39.452  25.518   2.280
47478W        W 8932  11.851   3.710   4.195
47479W        W 8933  40.810  15.665  10.590
47480W        W 8934  44.339  23.538  10.405
47481W        W 8935   4.923  23.530  12.075
47482W        W 8936   3.329  44.296  14.296
47483W        W 8937  25.130  15.107  11.487
47484W        W 8938  31.002  39.375   3.742
47485W        W 8939   0.461  34.379  14.477
47486W        W 8940  30.414   4.752   0.961
47487W        W 8941  35.954   5.234   1.360
47488W        W 8942  18.761  18.765  10.522
47489W        W 8943  11.660  12.626  11.001
47490W        W 8944  10.796   0.480  12.846
47491W        W 8945  21.153   8.383   0.930
47492W        W 8946  12.308  22.250  12.892
47493W        W 8947  39.972  40.886   1.308
47494W        W 8948  37.873  36.348   3.270
47495W        W 8949   2.312   5.724   3.773
47496W        W 8950   5.777  44.345   3.747
47497W        W 8951   4.227  11.703   0.379
47498W        W 8952   5.392  34.895   0.880
47499W        W 8953   0.906  25.120   3.797
47500W        W 8954  30.091  34.871   2.667
47501W        W 8955  22.141   1.315  11.527
47502W        W 8956  23.625  25.974  11.526
47503W        W 8957  18.073  13.252   2.338
47504W        W 8958  25.028  43.850  11.457
47505W        W 8959  10.842  31.953   0.342
47506W        W 8960  42.410  26.611  12.439
47507W        W 8961  34.980  33.120   3.690
47508W        W 8962  33.005  31.521   4.607
47509W        W 8963  15.313  20.059   1.778
47510W        W 8964   5.345  12.118   4.182
47511W        W 8965   6.914  24.611  12.375
47512W        W 8966  27.637  33.065   2.699
47513W        W 8967   1.447  23.220  12.966
47514W        W 8968   5.927  21.138  14.488
47515W        W 8969  25.186   0.448   2.412
47516W        W 8970   1.426   8.197   3.799
47517W        W 8971  28.999  44.422  13.885
47518W        W 8972  37.895  15.806  14.472
47519W        W 8973  29.447  19.727   4.306
47520W        W 8974  43.430   5.736   1.274
47521W        W 8975  34.473   8.815  12.989
47522W        W 8976  37.484  39.387  14.348
47523W        W 8977  13.622  12.620   0.774
47524W        W 8978  39.827  12.748  12.018
47525W        W 8979   2.748  37.041  13.928
47526W        W 8980   7.314   6.713   1.251
47527W        W 8981  36.915   6.385   3.215
47528W        W 8982  31.019  18.281   1.850
47529W        W 8983  16.616  42.960   4.765
47530W        W 8984  43.471  35.010  10.938
47531W        W 8985  25.055  41.039   3.638
47532W        W 8986  17.095  19.276   1.223
47533W        W 8987  15.625  43.372   0.751
47534W        W 8988  21.121  20.248  14.370
47535W        W 8989  21.558   8.891  13.475
47536W        W 8990  34.900  39.398  11.080
47537W        W 8991  28.543  41.018  12.499
47538W        W 8992  38.497  32.475  13.854
47539W        W 8993   3.921  17.607   3.862
47540W        W 8994  44.002   3.929   2.222
47541W        W 8995  18.209  11.691  13.316
47542W        W 8996  30.560  10.208   4.344
47543W        W 8997  16.151  13.684   0.734
47544W        W 8998  18.064  19.685   4.601
47545W        W 8999  23.517  31.457  12.992
47546W        W 9000  39.913  25.982   0.475
47547W        W 9001   2.957  27.687  10.990
47548W        W 9002  15.781  44.314  13.873
47549W        W 9003  21.236  35.054  14.484
47550W        W 9004  23.501  39.519   2.253
47551W        W 9005  12.826  36.513   1.736
47552W        W 9006  44.366  23.622  11.539
47553W        W 9007  26.970  40.455   3.812
47554W        W 9008  30.070  17.163   1.843
47555W        W 9009  25.014  38.416  14.289
47556W        W 9010  17.598  28.548  12.375
47557W        W 9011  38.008  15.120  14.919
47558W        W 9012  39.484  24.585   0.313
47559W        W 9013  20.234   4.876  14.887
47560W        W 9014  16.568  25.564  12.916
47561W        W 9015  25.669   1.349  14.303
47562W        W 9016   7.739   8.693  13.412
47563W        W 9017  10.356  33.500  10.484
47564W        W 9018  44.332  38.857   0.737
47565W        W 9019   2.877   9.710  12.423
47566W        W 9020   2.271  18.560  13.886
47567W        W 9021  27.518  19.250   4.290
47568W        W 9022  37.842  35.406   3.370
47569W        W 9023  16.237  13.675   2.323
47570W        W 9024   9.237  44.463   1.247
47571W        W 9025  32.544  18.110  13.528
47572W        W 9026  12.681   6.364  11.441
47573W        W 9027   3.424   4.337  13.964
47574W        W 9028  18.718  34.564   3.709
47575W        W 9029   2.303   0.878   3.223
47576W        W 9030  20.028  43.789   0.848
47577W        W 9031  25.487  14.230  12.018
47578W        W 9032  30.120  37.566   0.316
47579W        W 9033  24.116  37.867   4.277
47580W        W 9034  25.646  27.644  14.784
47581W        W 9035  26.643  41.793  10.950
47582W        W 9036  16.697  31.083   4.736
47583W        W 9037   1.258  35.057  14.935
47584W        W 9038  27.660   7.791  12.972
47585W        W 9039  35.371  28.446   3.185
47586W        W 9040  14.192   2.413   1.425
47587W        W 9041  13.821  23.161  13.018
47588W        W 9042  36.497  39.459   4.211
47589W        W 9043  23.506  32.038   2.304
47590W        W 9044  16.737   1.461  12.388
47591W        W 9045  22.671  41.990  13.348
47592W        W 9046  29.031  27.470   3.747
47593W        W 9047  10.317   3.938  13.842
47594W        W 9048  12.284  36.509   1.271
47595W        W 9049  43.769  12.745  13.028
47596W        W 9050   1.774   7.402   3.245
47597W        W 9051  27.580  31.628   4.771
47598W        W 9052  22.249  11.773  11.542
47599W        W 9053  37.552   1.278   1.275
47600W        W 9054  14.801   8.172  13.971
47601W        W 9055  44.760  15.138   3.843
47602W        W 9056  12.191   6.381  14.904
47603W        W 9057  36.438   2.385  10.642
47604W        W 9058  42.320  18.276  14.961
47605W        W 9059   3.245   4.872  12.507
47606W        W 9060  25.657   6.764  10.440
47607W        W 9061  21.193  42.321   2.764
47608W        W 9062   5.203  21.221  10.051
47609W        W 9063   0.387  22.533   2.689
47610W        W 9064   9.209  14.128  14.458
47611W        W 9065  42.857  16.148   3.646
47612W        W 9066  41.986   7.251  11.094
47613W        W 9067  13.133   2.369   1.354
47614W        W 9068  18.062  38.343   1.272
47615W        W 9069  22.136  33.451  13.011
47616W        W 9070  43.423  43.375   4.712
47617W        W 9071   3.808  16.304  13.994
47618W        W 9072  35.575  26.622  10.503
47619W        W 9073  27.070  33.517  12.389
47620W        W 9074  42.954   2.923   0.444
47621W        W 9075  22.095   7.689   1.215
47622W        W 9076  35.101  17.212   4.656
47623W        W 9077  43.956   3.750  10.933
47624W        W 9078  31.123  35.457   3.716
47625W        W 9079  25.497  33.417   2.693
47626W        W 9080  38.923   4.779   0.846
47627W        W 9081  30.546  34.460   4.123
47628W        W 9082  42.788   8.725  12.508
47629W        W 9083  21.220  26.557  13.362
47630W        W 9084  36.980  42.802  13.431
47631W        W 9085  20.593  15.679  11.867
47632W        W 9086  44.259  11.231   4.220
47633W        W 9087  25.561  19.053   4.617
47634W        W 9088  27.024  12.681   1.429
47635W        W 9089  26.167   6.778   3.159
47636W        W 9090   8.296  26.563   4.710
47637W        W 9091   4.387  29.424  12.093
47638W        W 9092  16.736  31.984  10.451
47639W        W 9093  40.308  26.066  14.456
47640W        W 9094  43.498  23.120  12.525
47641W        W 9095  11.754  33.609  12.997
47642W        W 9096  16.263  14.200   4.599
47643W        W 9097  15.285   1.407   0.419
47644W        W 9098  38.882  37.058  11.943
47645W        W 9099   3.233   2.867  14.797
47646W        W 9100  16.801  42.831  14.432
47647W        W 9101   5.300  39.419   2.710
47648W        W 9102   1.811   2.815   0.759
47649W        W 9103  15.177  19.681   3.704
47650W        W 9104  23.195  24.098   3.690
47651W        W 9105  24.523  38.908  11.536
47652W        W 9106   6.881   8.814  14.356
47653W        W 9107   9.382  43.013   3.197
47654W        W 9108  21.599  31.513   4.194
47655W        W 9109  21.640  23.546   1.794
47656W        W 9110  19.250  23.016   0.789
47657W        W 9111  43.421   1.912   2.730
47658W        W 9112   4.227  28.056   0.376
47659W        W 9113   6.762  36.485  11.549
47660W        W 9114  36.869  31.449   1.769
47661W        W 9115   0.449  19.077   0.830
47662W        W 9116  40.507   9.811  11.577
47663W        W 9117   7.329   0.815  13.531
47664W        W 9118  20.043  44.439   3.366
47665W        W 9119  43.375   4.362   2.804
47666W        W 9120  23.064  34.068   1.344
47667W        W 9121  40.964   1.478   2.662
47668W        W 9122  39.520   7.349   1.700
47669W        W 9123   6.766  39.456  10.948
47670W        W 9124  44.944  22.703   1.923
47671W        W 9125  33.979  11.141   3.673
47672W        W 9126   0.286   8.764  12.936
47673W        W 9127  44.406  20.650   2.898
47674W        W 9128  10.759  42.903  11.382
47675W        W 9129  10.226   8.785   3.720
47676W        W 9130  29.135  33.021   2.833
47677W        W 9131  40.962  19.087  14.887
47678W        W 9132   2.240  25.172   1.346
47679W        W 9133  23.509  16.697  13.526
47680W        W 9134  29.455  31.041   3.187
47681W        W 9135  44.307   4.338   4.746
47682W        W 9136   2.357  37.370   1.788
47683W        W 9137   7.900   6.348   1.320
47684W        W 9138  19.778  28.526  11.425
47685W        W 9139   6.338  39.417   1.884
47686W        W 9140  28.147  30.656  11.019
47687W        W 9141  27.974  24.043  14.922
47688W        W 9142   1.303  27.513   4.833
47689W        W 9143  28.461   1.861   2.220
47690W        W 9144   4.902  26.685   4.337
47691W        W 9145  24.163  39.427  11.992
47692W        W 9146  12.178  32.083   1.407
47693W        W 9147  37.063  14.124   2.343
47694W        W 9148  13.310   9.258  10.613
47695W        W 9149  29.032  34.042   3.769
47696W        W 9150  25.065   5.243   0.471
47697W        W 9151  42.934  24.708  13.965
47698W        W 9152  38.954  24.031  11.866
47699W        W 9153  41.945   3.783   2.710
47700W        W 9154  36.402  28.013  14.514
47701W        W 9155  33.540   7.901  11.105
47702W        W 9156  17.606  32.984  14.373
47703W        W 9157   6.409   9.270  12.408
47704W        W 9158  33.915   5.234  14.962
47705W        W 9159  20.727  28.969  11.034
47706W        W 9160  21.580  13.252   2.787
47707W        W 9161  44.380  31.025   3.209
47708W        W 9162  42.435  44.966   1.862
47709W        W 9163  25.079  10.232   1.427
47710W        W 9164   9.788  15.312  13.358
47711W        W 9165  37.877   1.832   0.308
47712W        W 9166  12.623  34.104   2.682
47713W        W 9167   7.341   7.357   3.324
47714W        W 9168  28.523  11.728  11.571
47715W        W 9169  33.487  34.936  13.918
47716W        W 9170  16.230  35.897  11.953
47717W        W 9171   0.884  22.202  14.301
47718W        W 9172  20.669  30.602  14.872
47719W        W 9173  21.721  20.131   0.765
47720W        W 9174  23.086  23.624   1.419
47721W        W 9175  32.514  10.844  12.983
47722W        W 9176  40.915   1.312   4.615
47723W        W 9177  25.962  35.895   2.807
47724W        W 9178  44.795   2.271  10.639
47725W        W 9179  26.019  36.508  12.359
47726W        W 9180  35.909   1.850   3.269
47727W        W 9181   2.334  32.452  14.298
47728W        W 9182  36.389  17.681   2.795
47729W        W 9183  34.417  33.404   1.415
47730W        W 9184  32.404  17.797   0.891
47731W        W 9185   9.708   3.233  13.923
47732W        W 9186  23.657   6.317  13.370
47733W        W 9187  44.263   3.282   2.784
47734W        W 9188  42.445   3.295  14.823
47735W        W 9189   8.193  29.660  11.005
47736W        W 9190   6.784  34.067  14.491
47737W        W 9191  24.160  40.373   4.154
47738W        W 9192  14.106  30.533  12.854
47739W        W 9193  20.066  27.632   4.774
47740W        W 9194  32.925   4.867   0.783
47741W        W 9195  12.804  35.888  12.985
47742W        W 9196  10.224  24.019  14.924
47743W        W 9197  16.616  28.594   2.319
47744W        W 9198  27.011   5.844  13.919
47745W        W 9199  24.980  20.185  14.489
47746W        W 9200  37.031   5.432   3.756
47747W        W 9201  26.121   0.255   2.668
47748W        W 9202  16.110   0.820  11.450
47749W        W 9203  25.649  36.892  14.873
47750W        W 9204  40.397   4.720  14.976
47751W        W 9205  14.645  15.654  11.877
47752W        W 9206  22.996   9.742  13.420
47753W        W 9207  26.497  31.429  12.029
47754W        W 9208   2.910  12.269   1.741
47755W        W 9209   9.837  22.687   3.820
47756W        W 9210  20.671  35.000  12.080
47757W        W 9211   9.765   5.341   0.301
47758W        W 9212   8.341  40.926  13.538
47759W        W 9213  26.526   9.724   3.355
47760W        W 9214  31.128  11.313  14.280
47761W        W 9215   6.745   3.712  10.640
47762W        W 9216  21.739  31.904  13.968
47763W        W 9217   0.261  38.045   0.298
47764W        W 9218  27.945  29.175   4.189
47765W        W 9219  26.047  41.494  12.346
47766W        W 9220  42.295  36.065  11.057
47767W        W 9221  41.853  35.517   2.752
47768W        W 9222   5.421  35.035   2.347
47769W        W 9223  13.747  22.241  10.997
47770W        W 9224   4.309  25.676   3.357
47771W        W 9225   5.693  41.922  12.408
47772W        W 9226  33.485  25.543   0.755
47773W        W 9227  30.629  35.964   2.383
47774W        W 9228  13.683  30.965   0.288
47775W        W 9229  11.810   5.209  13.820
47776W        W 9230   8.889  26.695   2.747
47777W        W 9231   1.393  19.595  11.390
47778W        W 9232  39.426   7.199   4.713
47779W        W 9233  24.697  35.531  11.101
47780W        W 9234   3.326   2.433   1.357
47781W        W 9235  17.139   6.863   4.180
47782W        W 9236  30.159  16.686  12.385
47783W        W 9237  28.971  15.789  12.520
47784W        W 9238  18.758  32.019   2.204
47785W        W 9239  27.672  24.696   1.298
47786W        W 9240  13.165  11.776  13.427
47787W        W 9241  41.521   0.286   0.771
47788W        W 9242  18.582   3.840   2.899
47789W        W 9243  10.820   5.918  12.418
47790W        W 9244  10.732  40.368  13.369
47791W        W 9245   3.915   4.261   3.368
47792W        W 9246  14.814  27.606   4.713
47793W        W 9247   2.760  28.039  13.491
47794W        W 9248  37.872  10.351  10.550
47795W        W 9249  20.126  27.982   5.132
47796W        W 9250   0.397  31.939  13.827
47797W        W 9251  44.789  32.561  11.012
47798W        W 9252  24.498  33.926  10.964
47799W        W 9253  41.933  29.537  14.414
47800W        W 9254  32.947  21.072   1.739
47801W        W 9255  44.786  27.060   4.185
47802W        W 9256  28.605   4.386   1.249
47803W        W 9257  26.970   9.226  12.039
47804W        W 9258  23.986  24.017  10.455
47805W        W 9259  17.112  25.975   1.439
47806W        W 9260  10.767  29.971  14.860
47807W        W 9261   1.451  12.165  13.921
47808W        W 9262  19.163  22.031  13.039
47809W        W 9263  41.817  17.095   1.711
47810W        W 9264  16.150  28.937  10.557
47811W        W 9265   1.777  15.139  14.864
47812W        W 9266  23.093   4.816  13.027
47813W        W 9267  32.425  14.190  12.570
47814W        W 9268  14.595  10.677  14.958
47815W        W 9269  28.573   6.335   4.262
47816W        W 9270  24.680  34.496   3.672
47817W        W 9271  24.980  14.607   0.940
47818W        W 9272  32.914  18.192  12.571
47819W        W 9273  13.334  39.990   0.942
47820W        W 9274   7.858  16.798  11.529
47821W        W 9275  12.773  12.254  11.103
47822W        W 9276  35.897  34.004  12.364
47823W        W 9277  28.999  39.329  11.537
47824W        W 9278  21.085  23.665   1.866
47825W        W 9279  24.649   0.315   1.774
47826W        W 9280  31.478  16.742  10.482
47827W        W 9281  35.388  32.117   3.253
47828W        W 9282   1.352  15.711  14.025
47829W        W 9283   9.299  28.104   4.287
47830W        W 9284  16.143   1.416  11.457
47831W        W 9285  32.445  40.039   2.739
47832W        W 9286  18.592  20.041  12.494
47833W        W 9287  10.351  33.621  12.440
47834W        W 9288   1.919  39.402  12.000
47835W        W 9289  32.581  10.848   1.240
47836W        W 9290  19.164  23.217  13.946
47837W        W 9291   2.950  33.459  13.531
47838W        W 9292  42.433  17.720  14.443
47839W        W 9293  39.877  35.409   1.915
47840W        W 9294  30.527  32.610  10.889
47841W        W 9295   2.459  10.280   2.873
47842W        W 9296   4.392  20.264   4.258
47843W        W 9297   0.467  26.160  11.386
47844W        W 9298  11.262  40.051  12.568
47845W        W 9299  20.731  32.448   2.345
47846W        W 9300  15.215  27.028   1.709
47847W        W 9301  13.341  19.054  10.611
47848W        W 9302  36.462  36.086   4.658
47849W        W 9303  23.531  25.617   0.335
47850W        W 9304  42.839  22.164  14.767
47851W        W 9305   0.369  10.789  10.976
47852W        W 9306  40.308  25.045   0.810
47853W        W 9307  19.646  39.897   0.870
47854W        W 9308  21.080  42.369   1.801
47855W        W 9309  25.554   8.312  12.040
47856W        W 9310  44.771   9.215   1.844
47857W        W 9311  36.064  13.335  14.440
47858W        W 9312   2.887  39.871  10.974
47859W        W 9313  29.652  19.657  14.315
47860W        W 9314  36.544   4.387   1.419
47861W        W 9315  24.575  28.170   3.361
47862W        W 9316  15.720  16.298   3.829
47863W        W 9317  21.165  26.518   5.089
47864W        W 9318   5.202   1.380  10.411
47865W        W 9319  24.078  18.215   2.792
47866W        W 9320  10.286  42.814   4.200
47867W        W 9321  14.192  44.787   1.800
47868W        W 9322  34.613  35.424  11.035
47869W        W 9323   1.837  15.152   2.831
47870W        W 9324  11.157  30.943   4.785
47871W        W 9325   8.841  27.620  12.427
47872W        W 9326  36.363   6.773   0.770
47873W        W 9327  21.647  11.861  12.009
47874W        W 9328   0.815  28.140  14.821
47875W        W 9329  34.953  20.200  13.041
47876W        W 9330  37.543  11.221   1.422
47877W        W 9331  22.146  25.148  10.924
47878W        W 9332  25.971  27.586   0.314
47879W        W 9333  42.352   3.768  10.592
47880W        W 9334   3.816  28.985   0.856
47881W        W 9335   9.385  43.510  10.902
47882W        W 9336  29.053  14.305   3.322
47883W        W 9337  33.939  39.915  10.615
47884W        W 9338   0.366  27.616   1.844
47885W        W 9339  17.202  21.551  11.044
47886W        W 9340  22.247  28.087   1.888
47887W        W 9341  19.652  13.283  10.635
47888W        W 9342  29.103  17.143  13.968
47889W        W 9343  40.822  32.933  13.872
47890W        W 9344  23.599  33.462  10.471
47891W        W 9345  10.696   6.887  14.311
47892W        W 9346  17.247   2.847   3.225
47893W        W 9347  19.654   3.763  12.824
47894W        W 9348   7.408   1.804   1.763
47895W        W 9349   6.299  35.455  10.610
47896W        W 9350  24.503  39.809   1.226
47897W        W 9351  41.874  21.084   1.281
47898W        W 9352  37.031   5.813  13.366
47899W        W 9353  10.269  13.179  13.815
47900W        W 9354  30.080  43.402  14.975
47901W        W 9355   7.701  22.619   2.300
47902W        W 9356  17.719   0.291  12.857
47903W        W 9357  39.318  35.069   0.734
47904W        W 9358  37.457   2.966  14.376
47905W        W 9359  18.098  36.068   1.392
47906W        W 9360   7.331  41.475   4.829
47907W        W 9361   0.373  15.283   4.151
47908W        W 9362   1.957  15.657  14.766
47909W        W 9363  23.047  43.275   2.232
47910W        W 9364  24.479  10.365   2.226
47911W        W 9365  22.208  18.181  14.280
47912W        W 9366  29.576  34.576  11.059
47913W        W 9367  20.069  10.640  11.552
47914W        W 9368  38.352  35.884   3.356
47915W        W 9369  10.295  33.933  12.088
47916W        W 9370  42.956  32.143   1.257
47917W        W 9371  35.387   9.691  10.511
47918W        W 9372   5.740  20.526   3.724
47919W        W 9373  36.436  33.620  14.512
47920W        W 9374   0.850   7.203  14.796
47921W        W 9375   3.333  25.562   2.749
47922W        W 9376  42.935  39.032  14.285
47923W        W 9377  15.299   1.472  13.518
47924W        W 9378   3.750  25.220   0.807
47925W        W 9379  27.165   1.822  10.406
47926W        W 9380  19.535  26.647   0.462
47927W        W 9381  33.129  31.916   1.449
47928W        W 9382  39.328  30.517   3.755
47929W        W 9383  37.484   9.344   3.164
47930W        W 9384  30.160  44.873   1.751
47931W        W 9385  20.156  25.998   1.766
47932W        W 9386  13.616  20.175  10.594
47933W        W 9387   1.436  33.494   2.700
47934W        W 9388   2.781  32.587   0.765
47935W        W 9389  32.593   2.791  11.502
47936W        W 9390   3.809   1.905  10.613
47937W        W 9391  15.196  24.514  13.948
47938W        W 9392  25.646  40.879  13.904
47939W        W 9393  30.942  14.289  10.120
47940W        W 9394  10.158   0.451  14.278
47941W        W 9395  38.055  41.330  11.498
47942W        W 9396   4.785  43.364  14.371
47943W        W 9397  22.559  30.000  13.322
47944W        W 9398  38.820   1.777   1.274
47945W        W 9399  15.733  36.500   4.836
47946W        W 9400   9.322  16.072  11.894
47947W        W 9401   4.339  31.430   2.710
47948W        W 9402  15.714   3.457   1.765
47949W        W 9403  36.023  44.821   2.813
47950W        W 9404   7.328  41.847  10.414
47951W        W 9405  39.322  28.536  14.006
47952W        W 9406   6.392   3.251  14.836
47953W        W 9407  38.834  41.826   0.826
47954W        W 9408  10.338   1.445  11.940
47955W        W 9409  15.701  42.322   2.860
47956W        W 9410   3.382  15.724  14.960
47957W        W 9411  16.285  42.982   1.445
47958W        W 9412  39.891  38.563  12.539
47959W        W 9413  17.607  42.931   2.871
47960W        W 9414  28.065  42.312  12.029
47961W        W 9415  39.338   9.321   3.231
47962W        W 9416  39.339  27.448   1.848
47963W        W 9417  31.999  12.116   3.793
47964W        W 9418  26.586  10.213  10.614
47965W        W 9419  27.184   2.304   0.254
47966W        W 9420   5.875  26.015  12.967
47967W        W 9421  42.378   0.936  10.926
47968W        W 9422  16.777  23.220   4.174
47969W        W 9423  22.185  43.311  13.000
47970W        W 9424  22.121   6.409  13.996
47971W        W 9425  40.326   4.337  12.883
47972W        W 9426   7.714  33.878   4.194
47973W        W 9427  30.955  31.900   3.742
47974W        W 9428   9.734  22.146  10.504
47975W        W 9429  36.474  13.660   3.740
47976W        W 9430   5.870  27.618  10.523
47977W        W 9431   3.321  29.142  12.988
47978W        W 9432  18.153  34.582   1.222
47979W        W 9433  14.219  44.795  11.897
47980W        W 9434  42.434  10.277  14.027
47981W        W 9435  37.569  18.691  12.867
47982W        W 9436  33.534  31.125   2.887
47983W        W 9437  18.111  18.612  12.880
47984W        W 9438  29.518  16.686  12.879
47985W        W 9439   9.154   4.224  12.472
47986W        W 9440  24.076  29.542   4.142
47987W        W 9441  44.371  34.466   0.865
47988W        W 9442  26.076   0.255  11.526
47989W        W 9443  21.158  26.960   0.755
47990W        W 9444  40.859  15.693  11.497
47991W        W 9445  22.673  23.688  11.946
47992W        W 9446  16.807  35.505  13.025
47993W        W 9447   0.803  34.574  14.507
47994W        W 9448  17.644  18.156   2.409
47995W        W 9449  34.983  34.592  12.451
47996W        W 9450  10.369  43.908  13.397
47997W        W 9451  13.737  23.196  11.533
47998W        W 9452  25.542  36.359  10.523
47999W        W 9453   2.833  10.808   3.770
48000W        W 9454  35.927  39.907  13.470
48001W        W 9455  34.383  21.673  10.591
48002W        W 9456  39.942  11.627  12.975
48003W        W 9457  35.947  34.949   1.313
48004W        W 9458  33.115  34.427  11.952
48005W        W 9459  38.416  13.603  14.915
48006W        W 9460  30.418  21.636   2.196
48007W        W 9461  13.220   6.887  13.984
48008W        W 9462   3.385  34.482  12.876
48009W        W 9463  34.369  30.485  13.370
48010W        W 9464  30.452  34.438   1.301
48011W        W 9465  35.413  29.656   3.364
48012W        W 9466  14.815   9.198   3.260
48013W        W 9467   3.380   3.942   5.144
48014W        W 9468  25.179   3.370  13.040
48015W        W 9469  10.652  37.435  13.374
48016W        W 9470   1.300  30.460   2.732
48017W        W 9471  18.656  19.724   4.226
48018W        W 9472   5.895  17.791   2.286
48019W        W 9473  33.101   9.828   2.203
48020W        W 9474   0.753  21.088  13.398
48021W        W 9475   7.779  14.143  12.927
48022W        W 9476  28.452   4.344   2.194
48023W        W 9477  31.417  17.083  10.416
48024W        W 9478  38.849   7.336   2.688
48025W        W 9479  43.001  33.396   4.136
48026W        W 9480  22.504  43.940  14.296
48027W        W 9481  41.823  21.089   9.969
48028W        W 9482  14.185  25.607   1.268
48029W        W 9483  39.875   1.851  14.972
48030W        W 9484   1.412  30.520  12.007
48031W        W 9485  29.504  43.507   3.662
48032W        W 9486  14.179  36.026  11.086
48033W        W 9487   2.734  16.194   2.891
48034W        W 9488  39.493  14.302  12.564
48035W        W 9489   1.240  42.474  11.106
48036W        W 9490  34.505  27.498  13.842
48037W        W 9491  23.013   7.741   0.283
48038W        W 9492  37.384  19.246   4.153
48039W        W 9493  42.850  38.421   0.341
48040W        W 9494  10.277   0.437   2.871
48041W        W 9495  12.337  33.601   4.754
48042W        W 9496  31.414  19.647   4.768
48043W        W 9497  21.052  39.917  13.928
48044W        W 9498  35.052  14.168   2.786
48045W        W 9499  33.128  11.822   2.809
48046W        W 9500  36.978  37.907   0.874
48047W        W 9501  43.016  22.620   1.907
48048W        W 9502   6.852  22.661   2.785
48049W        W 9503  10.750  42.027   2.366
48050W        W 9504  10.773  20.087  12.930
48051W        W 9505  25.172  40.443   1.221
48052W        W 9506   7.891  15.304  14.402
48053W        W 9507   5.815  36.412  13.536
48054W        W 9508  10.324   5.856  14.441
48055W        W 9509   8.713  43.314   0.941
48056W        W 9510  37.348  23.104   3.825
48057W        W 9511   4.431   6.323   2.330
48058W        W 9512  33.940   6.814   0.791
48059W        W 9513   7.367  22.190  11.604
48060W        W 9514   2.779   9.833   2.818
48061W        W 9515  15.646  43.777   4.658
48062W        W 9516  18.678   4.256  11.382
48063W        W 9517  28.469  16.743   2.810
48064W        W 9518  18.728  29.600  13.982
48065W        W 9519   7.750  10.820   1.918
48066W        W 9520  15.649  42.422   0.264
48067W        W 9521  43.354  28.944   1.297
48068W        W 9522  43.844  22.238  12.857
48069W        W 9523  34.426  27.138  12.362
48070W        W 9524  10.370  35.076   1.799
48071W        W 9525  35.556  40.016  14.822
48072W        W 9526  29.153  29.437   3.350
48073W        W 9527  17.098  33.518  13.009
48074W        W 9528  43.786   5.372  14.336
48075W        W 9529  40.441  42.292  13.540
48076W        W 9530  12.725   7.272   1.809
48077W        W 9531  11.307  20.115   3.362
48078W        W 9532   1.811  35.109   4.293
48079W        W 9533  33.074   2.236   3.293
48080W        W 9534  19.583  43.823  13.429
48081W        W 9535  24.538  18.595   3.766
48082W        W 9536  35.997   3.364  12.559
48083W        W 9537  13.606  43.926  14.383
48084W        W 9538  25.474  11.769   5.271
48085W        W 9539  20.055  20.699   2.899
48086W        W 9540  16.161  36.437  12.833
48087W        W 9541  25.198  28.570   0.802
48088W        W 9542   3.910  42.860   0.857
48089W        W 9543  30.969   0.364  12.070
48090W        W 9544  30.002   3.779   3.756
48091W        W 9545  24.636  10.763  11.891
48092W        W 9546  14.640  32.621  12.435
48093W        W 9547  31.527  28.067  11.520
48094W        W 9548  36.550  29.054  14.289
48095W        W 9549  39.930  35.902   4.724
48096W        W 9550   5.337  42.780  13.934
48097W        W 9551  33.980  35.898   3.307
48098W        W 9552  32.135  19.713  10.109
48099W        W 9553   7.185  17.687   4.162
48100W        W 9554   9.292  41.860   1.405
48101W        W 9555  22.056  12.326   1.814
48102W        W 9556   2.440  37.397  10.514
48103W        W 9557   8.857  41.968  12.514
48104W        W 9558  15.107  21.623   2.819
48105W        W 9559  15.659  42.956   0.414
48106W        W 9560  25.148  24.518  10.641
48107W        W 9561   6.277  16.177   1.387
48108W        W 9562  17.075  44.970  13.945
48109W        W 9563  30.993  28.964   1.880
48110W        W 9564  10.782  33.109   3.182
48111W        W 9565  26.208  21.262  12.898
48112W        W 9566   7.183  36.390   3.769
48113W        W 9567  19.737   2.264   1.774
48114W        W 9568   6.253   2.355   2.211
48115W        W 9569   7.884  36.494  11.028
48116W        W 9570  29.604  42.293  11.100
48117W        W 9571  15.092  44.774   2.781
48118W        W 9572   4.839  22.686   2.348
48119W        W 9573  44.989  14.284   5.309
48120W        W 9574   8.739   4.391  12.391
48121W        W 9575  17.072  11.373   4.643
48122W        W 9576  34.965  40.995  11.951
48123W        W 9577  16.642  22.689   4.171
48124W        W 9578  38.379   8.679   3.765
48125W        W 9579  15.139  44.956  14.853
48126W        W 9580  15.611  11.311   9.669
48127W        W 9581  30.917   5.885   0.476
48128W        W 9582  40.921  31.032  11.407
48129W        W 9583  22.139  17.715  12.027
48130W        W 9584  12.238  37.917   3.856
48131W        W 9585  20.744   5.815   3.784
48132W        W 9586  36.414  27.084  10.913
48133W        W 9587  13.182  31.060  12.983
48134W        W 9588  12.808  43.795  11.563
48135W        W 9589  33.997  11.164   0.328
48136W        W 9590  27.609  24.538   2.696
48137W        W 9591  10.166  13.351  14.459
48138W        W 9592  41.956  42.505  11.491
48139W        W 9593  22.176  26.077  11.531
48140W        W 9594   9.644  39.997  10.517
48141W        W 9595   7.813  17.128  11.472
48142W        W 9596  44.967  24.183   1.837
48143W        W 9597  13.228  17.564   0.813
48144W        W 9598  11.738  11.751  11.884
48145W        W 9599  37.067  31.940  14.367
48146W        W 9600  16.072  43.980   2.382
48147W        W 9601  42.832  31.067   0.929
48148W        W 9602  20.234  16.257   2.230
48149W        W 9603   8.201  21.670   1.801
48150W        W 9604   4.399   8.270  11.609
48151W        W 9605  12.655  11.642   0.814
48152W        W 9606  12.807   7.890  11.520
48153W        W 9607  14.317  44.922   1.346
48154W        W 9608  15.758  33.077   4.216
48155W        W 9609  16.249  41.506   4.309
48156W        W 9610  14.666  15.093  13.970
48157W        W 9611  12.833  22.682  11.123
48158W        W 9612  42.324   3.253   2.198
48159W        W 9613  23.698  32.907   2.237
48160W        W 9614  11.687  28.028   4.757
48161W        W 9615  31.562  16.186   1.385
48162W        W 9616  21.637  17.595   2.708
48163W        W 9617  19.765  11.707  12.983
48164W        W 9618  35.496   3.418   3.850
48165W        W 9619  35.433   0.305  10.479
48166W        W 9620  40.814  31.501   1.809
48167W        W 9621  14.622  24.494  12.511
48168W        W 9622  14.129   3.403  14.293
48169W        W 9623  21.059   2.340   1.755
48170W        W 9624  18.591   1.823   9.981
48171W        W 9625  32.978  18.608   1.794
48172W        W 9626  29.513  33.073   0.753
48173W        W 9627  17.064  21.233  11.048
48174W        W 9628   1.743  26.472   0.738
48175W        W 9629   3.456   8.266  11.991
48176W        W 9630  35.457   5.909  14.760
48177W        W 9631  28.513  19.666   4.666
48178W        W 9632  23.223  26.620  11.406
48179W        W 9633  26.538  20.171   4.704
48180W        W 9634  41.297  29.469  12.891
48181W        W 9635  30.656  43.859   2.862
48182W        W 9636   8.276  27.172   3.233
48183W        W 9637   4.859  35.876  13.500
48184W        W 9638  32.577  35.567   3.811
48185W        W 9639  33.959  17.249  10.614
48186W        W 9640  12.346  34.566   3.641
48187W        W 9641  15.620  29.958   5.137
48188W        W 9642  23.224  38.402  13.004
48189W        W 9643  42.848  17.801   0.753
48190W        W 9644  30.981   6.428  13.513
48191W        W 9645  26.160  13.148  12.940
48192W        W 9646  38.007  40.451  14.007
48193W        W 9647  22.113  33.926   2.387
48194W        W 9648  23.121  11.244   5.723
48195W        W 9649  20.253   9.736  10.985
48196W        W 9650  13.708  16.720   0.459
48197W        W 9651  29.482  27.107  11.866
48198W        W 9652  11.218   5.855   0.255
48199W        W 9653  10.245  38.451   3.224
48200W        W 9654  26.122  13.239   2.762
48201W        W 9655  13.210  25.473  11.593
48202W        W 9656   4.898  34.066  13.841
48203W        W 9657   4.744   3.778  11.108
48204W        W 9658  21.183  23.113  12.344
48205W        W 9659  35.593  17.608  14.900
48206W        W 9660   4.744  38.330  14.330
48207W        W 9661  12.725  34.095  10.502
48208W        W 9662   1.437  41.824  14.841
48209W        W 9663  43.342  28.060   0.825
48210W        W 9664  44.480  13.757   4.256
48211W        W 9665   6.366  33.547  11.040
48212W        W 9666  21.205  42.431  13.004
48213W        W 9667   8.364  31.519  14.397
48214W        W 9668   5.206  33.036   3.687
48215W        W 9669  30.627  25.112   2.353
48216W        W 9670  32.528  33.930   1.886
48217W        W 9671  20.559  23.001   4.243
48218W        W 9672  38.384   6.720   3.268
48219W        W 9673  20.166  13.301  14.350
48220W        W 9674  26.980  37.928   4.203
48221W        W 9675  26.527  40.822   3.823
48222W        W 9676  40.346  19.279   2.770
48223W        W 9677   4.843  31.088  13.819
48224W        W 9678  32.954  10.814   4.194
48225W        W 9679  26.531  20.227  13.800
48226W        W 9680   4.296  31.632  10.576
48227W        W 9681  36.955   6.830   3.756
48228W        W 9682  12.765  11.766   1.414
48229W        W 9683   0.909  22.187  13.972
48230W        W 9684   3.847   6.727  10.585
48231W        W 9685  20.194  21.240   2.354
48232W        W 9686  38.052  23.093   4.783
48233W        W 9687  15.246  18.602  12.471
48234W        W 9688   7.712  23.112   2.729
48235W        W 9689  32.995  43.344  12.021
48236W        W 9690   4.244  33.014  11.560
48237W        W 9691  12.746   5.716   2.193
48238W        W 9692  40.866  42.319   0.430
48239W        W 9693  18.127  28.446  13.934
48240W        W 9694  26.004  22.612  14.442
48241W        W 9695  26.041  23.123  14.871
48242W        W 9696  22.079   6.263   0.430
48243W        W 9697   0.872  42.989   1.321
48244W        W 9698   8.227   2.875   2.786
48245W        W 9699  26.052  13.796  10.953
48246W        W 9700  34.987  11.808  11.004
48247W        W 9701  28.078  30.423   4.309
48248W        W 9702  10.756  13.318   1.420
48249W        W 9703  34.404  22.181  11.405
48250W        W 9704   0.262  21.139   1.297
48251W        W 9705   8.359  44.904  12.956
48252W        W 9706  18.158  30.926   3.171
48253W        W 9707   6.412  40.542   2.200
48254W        W 9708  31.407  32.020   2.357
48255W        W 9709  29.513  18.263  11.091
48256W        W 9710  26.157   3.324   2.662
48257W        W 9711  19.618  29.124  14.838
48258W        W 9712  32.128  17.297   1.748
48259W        W 9713   2.451  14.245   0.811
48260W        W 9714   5.325  26.065   0.398
48261W        W 9715  16.744  40.992   0.480
48262W        W 9716  34.417  32.461  11.036
48263W        W 9717  33.972   2.288   1.346
48264W        W 9718  41.043  39.963   4.209
48265W        W 9719  23.494  25.038   3.297
48266W        W 9720  21.523  24.720  11.867
48267W        W 9721   8.716  34.982  13.486
48268W        W 9722  33.894  43.937  13.870
48269W        W 9723  42.949  35.419   4.662
48270W        W 9724  40.356  19.249  13.456
48271W        W 9725  34.900  36.465   1.359
48272W        W 9726  38.327  30.498  14.484
48273W        W 9727  14.734  43.362  12.919
48274W        W 9728  20.672  23.526  11.561
48275W        W 9729  10.781   7.224  10.944
48276W        W 9730  17.655  11.288   1.408
48277W        W 9731  35.105  27.021  10.609
48278W        W 9732  15.119  42.353   0.316
48279W        W 9733  13.821   4.821   1.755
48280W        W 9734   5.867  37.873   2.270
48281W        W 9735  43.940  37.362  12.012
48282W        W 9736  39.023  34.100   1.373
48283W        W 9737  28.677   0.804  12.883
48284W        W 9738   0.900  13.741   4.169
48285W        W 9739   5.429   7.797  13.058
48286W        W 9740  20.537  12.724   4.208
48287W        W 9741  16.615  44.477   1.789
48288W        W 9742   0.972  33.991   2.829
48289W        W 9743   7.846   1.816   0.946
48290W        W 9744  16.284  20.732   4.339
48291W        W 9745  16.115   3.809  12.498
48292W        W 9746  33.594  30.568   3.832
48293W        W 9747  22.123  27.025  11.416
48294W        W 9748  27.990   0.965  10.427
48295W        W 9749  32.125  18.233  14.803
48296W        W 9750  28.570  40.452   3.761
48297W        W 9751  30.641   9.382   3.822
48298W        W 9752  28.588  24.524   4.220
48299W        W 9753   2.353  16.315  13.899
48300W        W 9754  18.099  26.643   4.758
48301W        W 9755  38.039  31.151  11.015
48302W        W 9756  10.201  14.338   1.739
48303W        W 9757   3.841  12.130   1.309
48304W        W 9758  15.606  44.833  12.969
48305W        W 9759  30.497  25.525   1.398
48306W        W 9760   5.320  30.443   2.808
48307W        W 9761  34.101  36.866   0.288
48308W        W 9762  41.789  17.233   2.688
48309W        W 9763  41.944  34.117  13.030
48310W        W 9764  42.506  32.003   0.258
48311W        W 9765   4.934  21.571   1.726
48312W        W 9766   9.834  31.905   1.289
48313W        W 9767   4.419  36.091  11.422
48314W        W 9768  29.060  14.239  14.928
48315W        W 9769   0.433   5.436   4.745
48316W        W 9770  18.148  37.010  10.520
48317W        W 9771  27.548  25.564  11.937
48318W        W 9772  16.805  32.454   0.752
48319W        W 9773  40.835   3.392   1.265
48320W        W 9774  11.737  31.522   0.849
48321W        W 9775  24.636  25.641  11.116
48322W        W 9776  20.172  37.532  11.424
48323W        W 9777  10.802  24.187  13.490
48324W        W 9778  21.594  36.063  12.484
48325W        W 9779  34.060  16.758  11.567
48326W        W 9780  43.825  41.902  11.909
48327W        W 9781  23.514  28.172   4.660
48328W        W 9782  32.073   5.838  14.790
48329W        W 9783   4.944  33.931   2.325
48330W        W 9784   3.903  27.557  13.045
48331W        W 9785  18.634  36.950   0.866
48332W        W 9786  36.953  30.613  13.898
48333W        W 9787   8.765  40.020  11.468
48334W        W 9788  41.982   1.358   0.788
48335W        W 9789  26.550  32.134   4.298
48336W        W 9790  30.068  44.983   1.408
48337W        W 9791  27.107   6.759  14.803
48338W        W 9792  28.990   8.817   5.117
48339W        W 9793  40.910  39.941   3.246
48340W        W 9794  21.132  25.047   2.756
48341W        W 9795   8.364   2.392   1.394
48342W        W 9796  43.352  31.643   4.791
48343W        W 9797  18.201  39.486  14.762
48344W        W 9798  17.666  18.090   4.795
48345W        W 9799   3.856  10.741  11.955
48346W        W 9800   3.223   2.437   4.622
48347W        W 9801  21.558   3.855   3.843
48348W        W 9802  42.511  41.480  13.824
48349W        W 9803  41.485  43.444   3.242
48350W        W 9804  35.446  28.489  14.366
48351W        W 9805  30.963  15.789  13.969
48352W        W 9806  18.133  24.001  11.876
48353W        W 9807  20.685  29.058  14.477
48354W        W 9808  23.210  27.676  11.901
48355W        W 9809  36.468  25.065   4.723
48356W        W 9810  27.999  24.661   4.267
48357W        W 9811  34.562  38.342   0.325
48358W        W 9812  17.068  13.763  13.315
48359W        W 9813   9.886  27.184   1.351
48360W        W 9814  30.562  31.907  11.905
48361W        W 9815  19.621  20.532   3.268
48362W        W 9816  29.553  35.064  12.535
48363W        W 9817  38.520  22.608  14.014
48364W        W 9818  32.142  36.924  11.598
48365W        W 9819  41.982  33.406   1.281
48366W        W 9820   9.326   0.290   4.723
48367W        W 9821   6.199  26.490   0.889
48368W        W 9822   3.769  24.128   4.336
48369W        W 9823  11.627  24.518  12.402
48370W        W 9824  18.121  13.607  12.380
48371W        W 9825  41.454  43.303   0.468
48372W        W 9826  43.989  23.089   1.929
48373W        W 9827   8.701  15.247  10.423
48374W        W 9828  28.673  40.006  10.541
48375W        W 9829  44.820  36.079  13.436
48376W        W 9830   8.827  31.987   3.258
48377W        W 9831  34.426  30.026  14.466
48378W        W 9832  11.145  31.497   5.761
48379W        W 9833  16.210  40.503   2.804
48380W        W 9834  33.000  37.489  12.567
48381W        W 9835  40.810  14.624  14.844
48382W        W 9836  10.144  41.869  11.405
48383W        W 9837   1.840  20.716  10.618
48384W        W 9838   6.686  40.979   4.705
48385W        W 9839  44.946  35.100   1.373
48386W        W 9840  13.211  37.374  12.027
48387W        W 9841  33.514   7.828   0.961
48388W        W 9842  41.365   0.976   1.880
48389W        W 9843   3.732   1.759  13.522
48390W        W 9844  36.517  13.188   4.807
48391W        W 9845  23.670  32.993  14.290
48392W        W 9846  13.226  44.401  13.506
48393W        W 9847  15.161   7.183   2.665
48394W        W 9848  14.830  24.666   0.287
48395W        W 9849   6.835  31.442   9.514
48396W        W 9850  14.247  18.056   4.677
48397W        W 9851  24.701   3.883  12.832
48398W        W 9852  37.024  24.555   4.651
48399W        W 9853  36.574  39.483   0.813
48400W        W 9854  30.036   5.846  12.877
48401W        W 9855  16.764  17.233  11.580
48402W        W 9856   7.885  27.985  14.476
48403W        W 9857  29.151  32.018   4.602
48404W        W 9858  41.456   4.818   0.882
48405W        W 9859  26.696   0.937   3.259
48406W        W 9860  26.614  33.408  11.492
48407W        W 9861  27.479  13.196  13.417
48408W        W 9862  15.109  11.724   2.381
48409W        W 9863  34.574  32.984   1.875
48410W        W 9864  41.880  40.846   9.992
48411W        W 9865  32.922  14.129   1.299
48412W        W 9866  36.909  41.463   0.315
48413W        W 9867   2.302  21.705  14.384
48414W        W 9868  14.296  12.197  13.934
48415W        W 9869  10.230  42.454  13.867
48416W        W 9870   9.327  41.914  11.425
48417W        W 9871  26.974   3.920   2.284
48418W        W 9872  36.916  24.975  13.963
48419W        W 9873   4.843   2.256   4.257
48420W        W 9874  42.515  42.016   1.310
48421W        W 9875  34.872   4.302  10.968
48422W        W 9876  32.029  29.138  10.499
48423W        W 9877   8.248  17.242  14.802
48424W        W 9878   6.325  28.080   0.773
48425W        W 9879  26.616  15.236   1.805
48426W        W 9880  33.100  44.364  12.905
48427W        W 9881   1.766  13.656   2.668
48428W        W 9882  24.008  31.967   1.822
48429W        W 9883  36.921   4.407   4.676
48430W        W 9884   6.898   4.905   0.403
48431W        W 9885  39.893  25.014   3.344
48432W        W 9886   2.946  38.903   2.376
48433W        W 9887  30.561  33.602  12.513
48434W        W 9888   3.386  44.917   3.700
48435W        W 9889  22.092  18.251  11.375
48436W        W 9890   0.845  28.040   0.309
48437W        W 9891   5.692  35.901   4.737
48438W        W 9892   4.267  36.969  11.946
48439W        W 9893  25.092  16.211   2.397
48440W        W 9894  39.968  31.078   3.253
48441W        W 9895   1.460  19.661   1.224
48442W        W 9896   9.252  29.062   1.229
48443W        W 9897  40.306  19.766   3.188
48444W        W 9898  43.923  36.482   0.306
48445W        W 9899  30.957  20.244   3.758
48446W        W 9900   7.308   5.411  13.378
48447W        W 9901  15.159  20.640  10.435
48448W        W 9902  13.227   8.807  11.594
48449W        W 9903  17.307  18.235   1.228
48450W        W 9904  40.881  34.424  11.407
48451W        W 9905  38.331  16.180  11.123
48452W        W 9906  11.205  37.433  14.325
48453W        W 9907   6.385   1.470   4.745
48454W        W 9908   1.893  16.086  12.975
48455W        W 9909  27.535   8.762   2.749
48456W        W 9910  19.578  26.959  12.343
48457W        W 9911  28.968  21.536   4.694
48458W        W 9912   3.303  27.994   3.685
48459W        W 9913   0.911  14.776   2.765
48460W        W 9914  42.501   5.425  13.995
48461W        W 9915   0.417  18.610   4.694
48462W        W 9916  35.376   8.782  11.596
48463W        W 9917  33.595  34.988  12.542
48464W        W 9918  43.338  19.268   1.783
48465W        W 9919  14.732  23.697   2.868
48466W        W 9920  32.000  41.953   5.273
48467W        W 9921  17.199  40.003   2.253
48468W        W 9922  22.614  18.720   3.790
48469W        W 9923  38.848  14.602  10.526
48470W        W 9924  17.766  20.171  13.010
48471W        W 9925  30.145  19.123   0.410
48472W        W 9926  17.128  36.489   3.355
48473W        W 9927  41.971   5.769   2.833
48474W        W 9928  43.484   2.729   4.719
48475W        W 9929  44.919  44.363   4.157
48476W        W 9930  17.192  10.196  11.571
48477W        W 9931   1.850  41.383   1.366
48478W        W 9932  42.817  28.495  10.923
48479W        W 9933  13.311  30.420   2.384
48480W        W 9934  43.990   2.909   0.289
48481W        W 9935  23.505   3.950   1.778
48482W        W 9936  37.424  25.169   0.819
48483W        W 9937  31.946   8.226  13.523
48484W        W 9938  12.145   8.259  12.450
48485W        W 9939  11.202  14.107   3.782
48486W        W 9940  35.908   6.717  12.860
48487W        W 9941  42.911  35.076  13.398
48488W        W 9942   2.270  23.586   2.751
48489W        W 9943  14.154  22.672   3.796
48490W        W 9944   5.846  27.634  11.897
48491W        W 9945   5.853   6.292  14.423
48492W        W 9946  10.157  37.073   3.676
48493W        W 9947  34.403   2.470   0.821
48494W        W 9948  26.557  42.432  11.575
48495W        W 9949  30.919   6.416  14.940
48496W        W 9950  28.135  29.123  11.396
48497W        W 9951  41.496  16.255  13.912
48498W        W 9952  18.051   9.650  13.807
48499W        W 9953  20.035  29.464  12.878
48500W        W 9954  18.669  33.044   1.813
48501W        W 9955  18.682  27.519  11.881
48502W        W 9956  28.564  12.679   5.148
48503W        W 9957  34.943  32.019  13.019
48504W        W 9958  12.328   7.757   1.757
48505W        W 9959  20.142  23.676  13.940
48506W        W 9960  40.371  32.100  13.332
48507W        W 9961  18.610  38.416   4.768
48508W        W 9962  25.140   2.336  10.540
48509W        W 9963   5.314  39.932  13.452
48510W        W 9964   6.752   9.655  14.291
48511W        W 9965  11.660  39.546  12.079
48512W        W 9966  25.098   2.431  12.351
48513W        W 9967  12.632  19.684  13.871
48514W        W 9968  13.804  25.612  10.430
48515W        W 9969  16.794  18.677   4.285
48516W        W 9970  36.928  32.502  12.938
48517W        W 9971   7.210  13.257   4.239
48518W        W 9972  37.891  29.494   0.916
48519W        W 9973  39.537  29.175  13.794
48520W        W 9974  43.380   1.814  14.368
48521W        W 9975   9.690  31.461   1.249
48522W        W 9976  39.502  19.599  11.594
48523W        W 9977  23.181  29.574  14.795
48524W        W 9978  41.007  12.760   0.889
48525W        W 9979  38.448  26.619   4.748
48526W        W 9980   6.871   5.307  10.412
48527W        W 9981  19.131  37.888   2.334
48528W        W 9982  31.925  12.792  13.526
48529W        W 9983  13.622  26.680  11.604
48530W        W 9984  13.792  32.962   2.389
48531W        W 9985   6.742  13.200  11.862
48532W        W 9986  15.706  23.574  12.476
48533W        W 9987  19.085  18.177  10.909
48534W        W 9988   6.274   0.257  14.790
48535W        W 9989  16.224  42.288  12.490
48536W        W 9990  37.347  24.662   1.256
48537W        W 9991  23.621   8.796   5.150
48538W        W 9992   1.348  16.753  10.888
48539W        W 9993  14.125  13.194  13.017
48540W        W 9994  27.567  28.173   2.876
48541W        W 9995  23.714  31.051   4.246
48542W        W 9996  40.455  26.982  10.493
48543W        W 9997  32.073  19.774   2.788
48544W        W 9998  41.520  10.733  14.445
48545W        W 9999  40.824   9.222   3.762
48546W        W10000  11.720  42.409  10.987
48547W        W10001  27.073  36.047  10.613
48548W        W10002   7.852   9.327  13.933
48549W        W10003  13.121  44.000  14.305
48550W        W10004   2.848   2.762  11.587
48551W        W10005   9.293  31.492  10.999
48552W        W10006  38.960  28.563   1.842
48553W        W10007  20.532  27.152   4.689
48554W        W10008  41.966   3.841   3.666
48555W        W10009  17.269  25.493  10.119
48556W        W10010  37.577  30.971   0.433
48557W        W10011   3.372   2.764   1.354
48558W        W10012  23.593   8.823   2.729
48559W        W10013  39.365  33.433  14.901
48560W        W10014  11.819   3.399  12.360
48561W        W10015   8.877  24.035   1.220
48562W        W10016  15.624  37.907   2.180
48563W        W10017  19.041   8.201  11.507
48564W        W10018  17.075  43.846   1.733
48565W        W10019  18.109  28.601  11.432
48566W        W10020  12.348  34.057  10.154
48567W        W10021  37.947  43.297   4.624
48568W        W10022  18.715  37.067   0.453
48569W        W10023  34.958  27.088  14.830
48570W        W10024  23.679  10.722   4.184
48571W        W10025  10.677  31.095  10.133
48572W        W10026  35.466  42.339  14.783
48573W        W10027  31.642  26.995   0.862
48574W        W10028  39.020  42.783   2.332
48575W        W10029   6.420  32.100  10.955
48576W        W10030  15.194   4.385   2.763
48577W        W10031  42.868  31.632   4.756
48578W        W10032   5.717   4.427  13.063
48579W        W10033  44.866  10.692   4.168
48580W        W10034   8.264   0.854  14.443
48581W        W10035  25.967  35.565   1.825
48582W        W10036  28.624  20.167   1.267
48583W        W10037  17.560  35.904   3.308
48584W        W10038  42.370  11.763   1.854
48585W        W10039  25.182  18.086  10.638
48586W        W10040  37.381  10.724   2.217
48587W        W10041   0.753   4.394  12.986
48588W        W10042  34.499  13.735   1.295
48589W        W10043   9.385   4.231  13.472
48590W        W10044   8.669  32.063  11.993
48591W        W10045  31.942  21.075  14.459
48592W        W10046  11.342   4.700   0.878
48593W        W10047  31.435  42.352   4.774
48594W        W10048  42.467  24.206   0.903
48595W        W10049  19.660  25.575  12.915
48596W        W10050  35.954  14.219   1.788
48597W        W10051  34.973  28.126  10.527
48598W        W10052   6.742  31.911   1.772
48599W        W10053  16.658  14.243   1.361
48600W        W10054  41.856  34.396   0.922
48601W        W10055  23.083  23.128  13.457
48602W        W10056   1.440  41.025  12.865
48603W        W10057   4.931   3.781   3.341
48604W        W10058  15.265   4.369   3.734
48605W        W10059  28.666   4.850  12.453
48606W        W10060  29.973  38.484   0.733
48607W        W10061   3.779  19.129  13.969
48608W        W10062  38.898  38.483  14.012
48609W        W10063  19.677  38.532   0.965
48610W        W10064  22.650   0.291   4.351
48611W        W10065  10.378  29.591  14.409
48612W        W10066  22.581  18.579   3.155
48613W        W10067  37.936  26.027   1.913
48614W        W10068  10.735   8.877  11.964
48615W        W10069  39.543   1.864  12.933
48616W        W10070  17.714  14.282   0.396
48617W        W10071  37.346   2.945  10.517
48618W        W10072  31.494  16.220  12.955
48619W        W10073  41.788  15.593  10.969
48620W        W10074  37.869  12.794   1.219
48621W        W10075   4.343  43.887   0.912
48622W        W10076   4.779  35.570   2.891
48623W        W10077  43.779  35.462   0.726
48624W        W10078  33.385  10.233  13.937
48625W        W10079  17.123  44.405  10.077
48626W        W10080   6.278  16.206  14.915
48627W        W10081  38.502  43.357   1.918
48628W        W10082  40.991  20.273  11.101
48629W        W10083   0.863  25.963   3.256
48630W        W10084  34.018   6.416  14.974
48631W        W10085  29.918  31.989   0.259
48632W        W10086  31.949  29.080   3.830
48633W        W10087  40.501  28.940  11.942
48634W        W10088   2.326  14.636  11.942
48635W        W10089  28.985  24.185  13.866
48636W        W10090  44.368  27.067  11.960
48637W        W10091  12.685  35.417   2.204
48638W        W10092  17.637   2.234  11.992
48639W        W10093  11.149  37.928  14.816
48640W        W10094  36.487  44.971   0.919
48641W        W10095   1.324  29.637   3.681
48642W        W10096  20.690  10.312  13.802
48643W        W10097  34.922  30.989   1.770
48644W        W10098   9.338  42.449   4.148
48645W        W10099  15.634  43.973   0.336
48646W        W10100  16.130  16.638  13.829
48647W        W10101   3.883  20.144   2.793
48648W        W10102   3.382  22.561  14.348
48649W        W10103  34.610  40.340   1.720
48650W        W10104  36.963  17.556  10.512
48651W        W10105   0.386  16.131   3.757
48652W        W10106  20.692  31.416  12.893
48653W        W10107  15.279  10.718  10.409
48654W        W10108  37.878  26.582   3.720
48655W        W10109  30.118  39.463   4.808
48656W        W10110  23.556  35.059   4.804
48657W        W10111  25.499  38.502   4.245
48658W        W10112  17.637   8.201   3.779
48659W        W10113   6.784  18.572  10.531
48660W        W10114  33.584  34.963   4.776
48661W        W10115  19.062  30.062   1.919
48662W        W10116  25.613  35.581  13.858
48663W        W10117  11.294   3.249  10.894
48664W        W10118  19.136   0.434  13.335
48665W        W10119  35.985   2.901   3.278
48666W        W10120  29.932  16.274   4.283
48667W        W10121  14.113  27.035  14.414
48668W        W10122   0.987   8.656  11.397
48669W        W10123  11.730  21.721   1.406
48670W        W10124  37.889  44.994   3.181
48671W        W10125  21.214  24.015  11.998
48672W        W10126  17.700  36.436  10.439
48673W        W10127  37.516  28.150   0.861
48674W        W10128  37.383  26.472   2.368
48675W        W10129  37.349   9.206  11.988
48676W        W10130  21.571   0.299   1.910
48677W        W10131  12.292   8.739  12.366
48678W        W10132  44.982   0.932  11.571
48679W        W10133  43.827  40.024  14.308
48680W        W10134  27.103  40.482  14.852
48681W        W10135  29.460  14.205   4.126
48682W        W10136   9.782   0.975  13.868
48683W        W10137  36.370  34.615  12.572
48684W        W10138  20.215  41.521  11.525
48685W        W10139   7.214  18.579  12.435
48686W        W10140  20.639  18.103   0.308
48687W        W10141  12.353  31.464   1.368
48688W        W10142  26.665   1.877   3.174
48689W        W10143   5.876  23.553  11.899
48690W        W10144  41.423  33.529  11.469
48691W        W10145   4.817  12.824  14.005
48692W        W10146  37.526  38.839   5.145
48693W        W10147  25.663   3.782  13.909
48694W        W10148  28.644  13.202   4.283
48695W        W10149  21.690  24.583   1.862
48696W        W10150   3.794  26.131   0.775
48697W        W10151  25.694  22.695  14.461
48698W        W10152   9.658  24.622   2.418
48699W        W10153  20.107  37.516  10.095
48700W        W10154  34.521  13.340   3.744
48701W        W10155  13.812  14.808  12.486
48702W        W10156   5.315  22.112  11.026
48703W        W10157   6.195  42.497   1.270
48704W        W10158  28.019  40.415  10.456
48705W        W10159  42.835  15.634  11.919
48706W        W10160  18.755   0.893  10.464
48707W        W10161  22.126  22.577   0.268
48708W        W10162  19.212   7.320  12.414
48709W        W10163  41.536  42.391  10.588
48710W        W10164   0.301  41.793  13.809
48711W        W10165  44.000  32.406   3.151
48712W        W10166  41.357  30.910  11.058
48713W        W10167  21.521  18.722  12.369
48714W        W10168  41.520  19.201   1.291
48715W        W10169  24.023  20.061   2.776
48716W        W10170  36.593  12.307   1.383
48717W        W10171  28.658  39.926   1.218
48718W        W10172   0.913  36.447   4.265
48719W        W10173   9.732  34.922  13.498
48720W        W10174  15.130  22.189   1.231
48721W        W10175  41.362  35.542   0.323
48722W        W10176   3.453   8.172   4.187
48723W        W10177  19.062  21.646   2.725
48724W        W10178  21.698   4.416   3.299
48725W        W10179  29.006  33.084   3.303
48726W        W10180  39.499  24.156  13.965
48727W        W10181  15.662  31.127  13.836
48728W        W10182  34.970  40.532   1.857
48729W        W10183  43.785  10.362   0.437
48730W        W10184  36.028  28.969   0.829
48731W        W10185  12.635  17.141   2.316
48732W        W10186  39.814  22.687  12.548
48733W        W10187  12.655  16.160   5.104
48734W        W10188  23.731  36.379   1.899
48735W        W10189   0.919   6.253   5.120
48736W        W10190  39.965   5.289   3.188
48737W        W10191  20.226  40.418   2.366
48738W        W10192  35.537  25.554  12.429
48739W        W10193  22.740  13.165  11.528
48740W        W10194  12.827  39.484   1.222
48741W        W10195  41.424  30.634   2.776
48742W        W10196   7.372  11.359  11.529
48743W        W10197   8.208  44.297   2.315
48744W        W10198   9.284  37.031  12.420
48745W        W10199   5.697  39.962   3.298
48746W        W10200   2.831   1.769   0.872
48747W        W10201  34.035  21.085  13.376
48748W        W10202  43.777  27.135   2.406
48749W        W10203  40.417  20.637  14.830
48750W        W10204   2.381  33.545   2.810
48751W        W10205  10.169   3.919  12.519
48752W        W10206  18.279   5.363   1.837
48753W        W10207   6.920   6.809   2.722
48754W        W10208  36.093  33.516   1.746
48755W        W10209  42.407  34.373   1.842
48756W        W10210  25.536  20.176   4.327
48757W        W10211  39.894  18.223  13.481
48758W        W10212  17.182  32.398  11.394
48759W        W10213  42.032  30.157  13.362
48760W        W10214  27.471   6.287  12.009
48761W        W10215  36.852  24.996  12.029
48762W        W10216  16.233  40.020  12.393
48763W        W10217   2.731  39.498   3.631
48764W        W10218  43.452  27.112   3.837
48765W        W10219  39.899  16.164  12.881
48766W        W10220  43.503  13.110   2.842
48767W        W10221  42.822  25.175  13.878
48768W        W10222   8.736  16.711   2.718
48769W        W10223  25.646  40.412  12.878
48770W        W10224  29.640  20.653   2.717
48771W        W10225   8.741  44.839  12.442
48772W        W10226  28.030  44.397   3.192
48773W        W10227  35.593   6.683  10.943
48774W        W10228   2.848  26.636   3.735
48775W        W10229   8.241  14.783  11.404
48776W        W10230  28.082   7.205   9.982
48777W        W10231   5.408  39.397  14.769
48778W        W10232   8.389  37.917   0.337
48779W        W10233  31.445  38.031   4.278
48780W        W10234   0.432  15.270  14.967
48781W        W10235   1.960  35.550  11.111
48782W        W10236  38.433  19.277  13.044
48783W        W10237  29.964  21.111  11.977
48784W        W10238  36.917  34.613   3.367
48785W        W10239  44.434  43.293  11.871
48786W        W10240  35.992  18.603  11.075
48787W        W10241  35.871  19.602   3.375
48788W        W10242   3.744  44.402  14.840
48789W        W10243  39.857  18.580   1.349
48790W        W10244   8.674   9.350   2.348
48791W        W10245  41.410  40.321   4.148
48792W        W10246  12.756  44.420  14.457
48793W        W10247  11.820  18.707  12.899
48794W        W10248  44.924  31.405  13.493
48795W        W10249  38.335  19.700  13.382
48796W        W10250  22.155  28.960  12.064
48797W        W10251   4.284   6.830  11.434
48798W        W10252  35.488  11.279   2.743
48799W        W10253  10.820  38.549  10.905
48800W        W10254  16.722  28.983  10.456
48801W        W10255  18.185  41.525  12.441
48802W        W10256  30.009  21.109  10.516
48803W        W10257   9.763  31.119   2.839
48804W        W10258  43.467   6.302  12.458
48805W        W10259  28.581  15.304   1.212
48806W        W10260   9.808  26.612  10.507
48807W        W10261  39.879   5.695   1.753
48808W        W10262  34.547  18.682   2.295
48809W        W10263  14.192  32.583  11.061
48810W        W10264  16.614  44.274  13.999
48811W        W10265   2.872  35.395  11.889
48812W        W10266  16.162  43.430   2.887
48813W        W10267  19.248  36.464   0.422
48814W        W10268   6.255   1.892   1.285
48815W        W10269  44.326  15.696   5.268
48816W        W10270  26.699  18.780   0.333
48817W        W10271  18.286  39.377  10.504
48818W        W10272  43.947  30.496  12.891
48819W        W10273  25.531   3.357   3.290
48820W        W10274  29.921  29.531   0.256
48821W        W10275  41.493   5.816   1.264
48822W        W10276   2.415   0.322  14.334
48823W        W10277  25.073   8.161   1.921
48824W        W10278  40.008  44.809  12.877
48825W        W10279  26.660  24.652  11.980
48826W        W10280  22.199  10.867  12.989
48827W        W10281   5.374  30.566   2.338
48828W        W10282  28.553  33.951  14.284
48829W        W10283   4.766  24.610  10.531
48830W        W10284  37.349  30.069   3.730
48831W        W10285  12.128  17.570  14.945
48832W        W10286  16.738  33.555   4.165
48833W        W10287  31.946  29.466  13.812
48834W        W10288   1.920   7.777  13.993
48835W        W10289  10.802   8.330   4.655
48836W        W10290  37.855  24.199  13.934
48837W        W10291   2.352   4.335   3.864
48838W        W10292  36.563  25.044   1.881
48839W        W10293  31.917   1.741   4.180
48840W        W10294  27.985  13.760  12.854
48841W        W10295  38.985  24.669   3.190
48842W        W10296  40.419  16.296   2.832
48843W        W10297  22.123   2.470  10.501
48844W        W10298  40.521  22.195   4.737
48845W        W10299  14.622  39.847  13.917
48846W        W10300  42.835  27.489   0.861
48847W        W10301  25.203  35.978   0.313
48848W        W10302  42.971   7.417  11.462
48849W        W10303  14.614   2.450  11.454
48850W        W10304   1.750  20.204   1.872
48851W        W10305   0.282  41.924  13.370
48852W        W10306   9.749  28.557   1.322
48853W        W10307  20.758  11.748   3.366
48854W        W10308  18.692  20.615   2.901
48855W        W10309  30.036  42.918  13.321
48856W        W10310  23.588  16.119  12.577
48857W        W10311  17.069  41.892  14.023
48858W        W10312  36.091  33.129  13.546
48859W        W10313  40.934  17.286   1.850
48860W        W10314   5.887  22.550  12.556
48861W        W10315  31.909  29.149   1.347
48862W        W10316  30.020  15.092  12.946
48863W        W10317  17.778  10.764  12.958
48864W        W10318   4.328   4.428  14.855
48865W        W10319  31.983  35.571  13.535
48866W        W10320  21.181  13.178  14.367
48867W        W10321   0.744  30.028   3.170
48868W        W10322  21.044  10.777  13.881
48869W        W10323  36.862  18.096  13.822
48870W        W10324  35.580  19.652  12.483
48871W        W10325  23.031   6.391  13.311
48872W        W10326   7.883  28.513  12.452
48873W        W10327   2.750  42.925  11.033
48874W        W10328  18.776  28.457  11.915
48875W        W10329   3.438  27.465   4.283
48876W        W10330   0.270   1.445   0.275
48877W        W10331  11.224  22.666  11.885
48878W        W10332  37.499  42.996   4.688
48879W        W10333  28.483  41.029  10.487
48880W        W10334  29.121  18.098  13.465
48881W        W10335  16.122   7.776   2.842
48882W        W10336  17.290  19.231  10.936
48883W        W10337  25.703  35.865   0.450
48884W        W10338  30.944  17.722  11.997
48885W        W10339  31.096  41.413  13.850
48886W        W10340   2.820  44.464  11.497
48887W        W10341  22.641   3.290  10.010
48888W        W10342   6.738  42.003   4.598
48889W        W10343   9.370  43.978   0.293
48890W        W10344  10.661  24.041   2.378
48891W        W10345   5.706  22.226  11.401
48892W        W10346   1.869  36.876   1.774
48893W        W10347  31.062  14.716  13.010
48894W        W10348  38.874  37.896   1.884
48895W        W10349  41.837   4.812  12.990
48896W        W10350  17.597  25.968   3.322
48897W        W10351  22.094  30.593  14.496
48898W        W10352  23.068  30.498   1.397
48899W        W10353   7.822  26.046  11.931
48900W        W10354  28.993   9.364  12.871
48901W        W10355  23.122  27.678  11.564
48902W        W10356  31.102  24.497   4.664
48903W        W10357  10.698  16.132  10.415
48904W        W10358  15.744  31.126  12.473
48905W        W10359  40.826   7.756   1.810
48906W        W10360   1.282   3.817  13.917
48907W        W10361  42.477  37.982   0.322
48908W        W10362  13.830   9.217  10.406
48909W        W10363  29.111   1.783  10.931
48910W        W10364  36.456   3.762   1.396
48911W        W10365  20.150  26.617  14.318
48912W        W10366  37.511  18.764   4.176
48913W        W10367  23.597  26.650  14.515
48914W        W10368  37.994  43.516  14.281
48915W        W10369  13.632  37.006  12.883
48916W        W10370  20.063  25.593   3.310
48917W        W10371   4.798   1.253   3.678
48918W        W10372  28.545   2.937  14.838
48919W        W10373   3.216  35.011  14.769
48920W        W10374  29.532  33.884   0.259
48921W        W10375  18.200   0.749  13.857
48922W        W10376  35.875  44.757   0.407
48923W        W10377   9.304  19.172   3.287
48924W        W10378  24.130   5.725  10.585
48925W        W10379  26.696  40.886  12.916
48926W        W10380  11.298   5.256  13.467
48927W        W10381   1.898  11.144  10.911
48928W        W10382  24.679   5.888  13.474
48929W        W10383  20.197  35.001  14.890
48930W        W10384  26.992  42.885  11.937
48931W        W10385   0.897  17.730   1.907
48932W        W10386  27.517  12.814   2.248
48933W        W10387  37.356   0.881  14.381
48934W        W10388  41.462  36.426  11.412
48935W        W10389   8.259  22.704   2.338
48936W        W10390  32.038  27.584   3.253
48937W        W10391   0.862  14.334   0.787
48938W        W10392  19.271  43.502   3.643
48939W        W10393  36.419   8.819  13.524
48940W        W10394   1.245  10.165   2.816
48941W        W10395  44.335  24.008   4.237
48942W        W10396  22.517   0.886   4.622
48943W        W10397  41.354  43.332   2.715
48944W        W10398  22.236  36.391   3.199
48945W        W10399   0.877  34.896  10.098
48946W        W10400   8.263  30.129   3.372
48947W        W10401  21.757  11.741  10.425
48948W        W10402  38.917  22.006  14.377
48949W        W10403  18.196  31.939   4.296
48950W        W10404  29.635  35.855   1.907
48951W        W10405  24.658  33.913   1.874
48952W        W10406  42.936   7.309  11.888
48953W        W10407  38.882  29.663   3.656
48954W        W10408   3.323   9.758  11.052
48955W        W10409  13.249   1.406  11.023
48956W        W10410  35.042  26.635   3.715
48957W        W10411   0.877  20.608   4.222
48958W        W10412  34.595  35.033  14.956
48959W        W10413  19.208  29.450   0.315
48960W        W10414   3.377  30.627   4.672
48961W        W10415  27.449   9.258   1.210
48962W        W10416  37.999  39.522   1.805
48963W        W10417  14.316  29.609   2.275
48964W        W10418  12.160  26.656   0.737
48965W        W10419  24.212   7.820  14.432
48966W        W10420   6.241  41.316  12.969
48967W        W10421  41.372  23.209  14.864
48968W        W10422  32.935  32.523   3.384
48969W        W10423  39.839  35.484   2.259
48970W        W10424   8.742   4.849  10.632
48971W        W10425  38.486   2.952   2.388
48972W        W10426  28.569  38.525   1.795
48973W        W10427  33.555  24.135   1.919
48974W        W10428  23.628  42.483  13.543
48975W        W10429  37.909  39.469   2.185
48976W        W10430  19.113  18.561   1.451
48977W        W10431   1.295  13.220   1.823
48978W        W10432   0.835  15.752  13.934
48979W        W10433   2.420  23.673  10.537
48980W        W10434   3.444  42.325  13.807
48981W        W10435   6.320   0.374   1.787
48982W        W10436  31.596  28.929  11.021
48983W        W10437  32.062  23.590   5.144
48984W        W10438  31.125  44.405   2.849
48985W        W10439  44.875  41.376   4.273
48986W        W10440  36.501  44.437   0.756
48987W        W10441  40.876  14.314  11.610
48988W        W10442  18.270   5.432   3.692
48989W        W10443  36.479  29.476  12.010
48990W        W10444   7.232  42.509  13.042
48991W        W10445  28.966  31.121  13.064
48992W        W10446  16.586   3.271  12.370
48993W        W10447   8.211  43.357  11.609
48994W        W10448  16.704  44.465   0.328
48995W        W10449   6.883  16.174   3.297
48996W        W10450  35.534  25.064   2.897
48997W        W10451  44.955   0.945   3.380
48998W        W10452  12.735  10.222   1.908
48999W        W10453  31.554  38.508   0.776
49000W        W10454  20.048  32.915  14.771
49001W        W10455  30.109   6.860  11.997
49002W        W10456  27.563   2.827   2.753
49003W        W10457  12.353  40.947  13.880
49004W        W10458  30.646  39.824   1.319
49005W        W10459  41.039  15.164  14.780
49006W        W10460  26.509  20.548  14.960
49007W        W10461   4.428  25.190  13.865
49008W        W10462  27.528   0.903   0.965
49009W        W10463  21.593  10.245   4.765
49010W        W10464  28.630   0.893   3.173
49011W        W10465  44.355  31.415   2.254
49012W        W10466  28.660   2.850   3.327
49013W        W10467   1.787   2.805  14.432
49014W        W10468   0.822  34.017  14.984
49015W        W10469   8.228  44.003  14.960
49016W        W10470   5.256  43.480  13.437
49017W        W10471  24.999  11.726  12.052
49018W        W10472   1.913  24.666   4.804
49019W        W10473   2.335   7.780  13.884
49020W        W10474   6.745  35.031   5.224
49021W        W10475  13.115  42.309   2.720
49022W        W10476  16.296  33.535  12.950
49023W        W10477  36.880  18.563  11.933
49024W        W10478   9.286  13.185  11.947
49025W        W10479   9.739  30.540   0.866
49026W        W10480  35.480  11.721   4.684
49027W        W10481  33.102  38.446  13.791
49028W        W10482  20.177   6.307  11.537
49029W        W10483  42.899  44.274  12.389
49030W        W10484  17.799  26.636   4.717
49031W        W10485  39.347  15.115   0.839
49032W        W10486  18.612   3.452  10.038
49033W        W10487  10.797  30.583   0.270
49034W        W10488  22.162  37.466  11.526
49035W        W10489  32.619  27.021  13.060
49036W        W10490  27.068  34.559  14.980
49037W        W10491  26.681  30.654  11.098
49038W        W10492  40.990   8.777   1.729
49039W        W10493  24.500  28.039  10.638
49040W        W10494  16.653  23.496  12.092
49041W        W10495  10.239  40.813   3.692
49042W        W10496  38.563  30.065   4.313
49043W        W10497  19.194  37.080  13.344
49044W        W10498  14.718   9.657  12.864
49045W        W10499  36.894  29.565   1.407
49046W        W10500   7.285  25.080   2.198
49047W        W10501  38.533  16.682   4.186
49048W        W10502  44.382  15.192  11.116
49049W        W10503   9.810  25.523  10.416
49050W        W10504  24.043  39.961  13.864
49051W        W10505  14.266   5.844   4.834
49052W        W10506  28.479  12.706  10.432
49053W        W10507  19.264  18.081  11.938
49054W        W10508   0.322  14.125  14.777
49055W        W10509  33.072   7.386  12.495
49056W        W10510  11.315   0.441  14.508
49057W        W10511   5.912  25.591  13.892
49058W        W10512  26.576  36.918  10.591
49059W        W10513  34.887   9.278   0.816
49060W        W10514  19.275  27.092  13.964
49061W        W10515   3.264  17.737  13.025
49062W        W10516  16.673  34.928   4.310
49063W        W10517  29.580   7.717  11.919
49064W        W10518  13.631  32.474   1.766
49065W        W10519   2.283  34.442  12.024
49066W        W10520  23.138   0.986  13.963
49067W        W10521  37.040   0.318   4.615
49068W        W10522  40.367  36.452   2.214
49069W        W10523   0.352  18.052  12.957
49070W        W10524   5.436  37.518   3.847
49071W        W10525  11.137  15.322  11.100
49072W        W10526  23.575  23.126  14.925
49073W        W10527   2.728  36.423  12.475
49074W        W10528  41.807  44.295  13.904
49075W        W10529  21.107  12.268  14.970
49076W        W10530  35.929  25.032   2.715
49077W        W10531  10.351  31.130   5.122
49078W        W10532   0.750  40.499  14.496
49079W        W10533  12.243  24.220   0.840
49080W        W10534  15.632   2.270   1.373
49081W        W10535  28.994  19.045  13.524
49082W        W10536  32.467  42.825   3.323
49083W        W10537  20.685   1.888  10.511
49084W        W10538  24.080   1.846   4.231
49085W        W10539   8.763  15.592  11.473
49086W        W10540  41.956  22.014   2.338
49087W        W10541   6.709   2.324  12.882
49088W        W10542  33.454  32.009   1.787
49089W        W10543  25.648   8.805  11.052
49090W        W10544  15.286  12.273  11.522
49091W        W10545   9.162  41.814  14.862
49092W        W10546  15.275  26.460  13.956
49093W        W10547  34.605  14.686   0.341
49094W        W10548  20.051  32.995   2.678
49095W        W10549   0.473  22.548  11.374
49096W        W10550   0.860  43.858  13.367
49097W        W10551  33.569  33.030  12.006
49098W        W10552  13.805  28.966  12.067
49099W        W10553   8.217   6.386  13.432
49100W        W10554  32.996  44.928   4.708
49101W        W10555   4.745  31.128  11.454
49102W        W10556  34.980  12.294   4.692
49103W        W10557  20.667   7.296  10.500
49104W        W10558  18.166  12.623  13.540
49105W        W10559   2.373  20.108   2.312
49106W        W10560   7.853  30.553   2.263
49107W        W10561  25.105  39.540   0.401
49108W        W10562  11.323   3.398  11.504
49109W        W10563  29.650  13.237  11.956
49110W        W10564  33.011  20.606  11.997
49111W        W10565  31.949  13.161   2.199
49112W        W10566  11.304  22.655  13.338
49113W        W10567  25.505  32.546   3.294
49114W        W10568  23.566  14.793  12.536
49115W        W10569  30.601  32.481  13.974
49116W        W10570  37.907  37.378   3.743
49117W        W10571  12.611   3.250   4.818
49118W        W10572   8.718   4.424   2.673
49119W        W10573  42.922  38.447  11.979
49120W        W10574  20.551  19.265   2.198
49121W        W10575  31.463  26.512   0.439
49122W        W10576   7.803  28.113  10.156
49123W        W10577  11.793  11.773   5.283
49124W        W10578  35.499  27.595   4.776
49125W        W10579  26.618   2.273   2.856
49126W        W10580  20.712  27.187   3.385
49127W        W10581  15.650  15.200   3.693
49128W        W10582   8.201  38.864  11.476
49129W        W10583  36.903  35.903   4.317
49130W        W10584  42.464  36.909   3.683
49131W        W10585  28.553  38.065  10.572
49132W        W10586  11.335  42.475  12.908
49133W        W10587  17.248  26.546   4.214
49134W        W10588  34.095  35.001   3.245
49135W        W10589  24.010  24.132  13.879
49136W        W10590  28.948  42.492  13.829
49137W        W10591  32.017   1.441  11.557
49138W        W10592  43.286  25.144   2.319
49139W        W10593  24.595  25.110  11.915
49140W        W10594  10.850   7.839  14.304
49141W        W10595  22.064  44.882   1.932
49142W        W10596  41.918   1.406  12.914
49143W        W10597  44.892  40.980  10.500
49144W        W10598  30.931  34.581   1.834
49145W        W10599  36.550   3.730   2.284
49146W        W10600   3.921  27.626   1.710
49147W        W10601  38.969   2.472  10.969
49148W        W10602   4.702  12.336  11.524
49149W        W10603  27.008  16.316   0.380
49150W        W10604   6.352  31.557  13.473
49151W        W10605  21.233   2.740  11.390
49152W        W10606  10.817  41.946  11.539
49153W        W10607  34.001   4.939   0.761
49154W        W10608  12.790  34.914   0.468
49155W        W10609  31.462  16.145   1.825
49156W        W10610   4.845   1.809  11.889
49157W        W10611  30.105  15.154   0.462
49158W        W10612  17.618  18.676  11.067
49159W        W10613  41.954  14.112   2.886
49160W        W10614   2.935  37.045   2.221
49161W        W10615   1.292  19.139   4.802
49162W        W10616  26.091  23.040  14.375
49163W        W10617  37.521   5.723   4.809
49164W        W10618  17.162  12.271  14.469
49165W        W10619   3.276  19.237   1.719
49166W        W10620  21.561  20.210   4.241
49167W        W10621   5.318  36.092  12.441
49168W        W10622   8.827  30.146   2.768
49169W        W10623   5.895   3.374  10.949
49170W        W10624  19.233  11.151   9.519
49171W        W10625  38.491  30.020   4.618
49172W        W10626  14.167  37.364  13.862
49173W        W10627  19.761  29.081   0.257
49174W        W10628   7.792  41.904   0.821
49175W        W10629  32.618   8.406  13.833
49176W        W10630  14.138  21.182  14.362
49177W        W10631  11.841   9.317  14.962
49178W        W10632  33.104  21.742  13.881
49179W        W10633  23.612  11.686  12.411
49180W        W10634   0.296  42.905  10.492
49181W        W10635  30.447   9.364   3.222
49182W        W10636   1.439  17.066   3.378
49183W        W10637   3.407  22.149  11.039
49184W        W10638  16.255  19.660  12.399
49185W        W10639  40.502  43.443  12.842
49186W        W10640  44.433  13.157  12.416
49187W        W10641  28.519  36.047   1.287
49188W        W10642   6.819  24.493  11.566
49189W        W10643  37.057  16.677   0.408
49190W        W10644  23.219  26.698   2.793
49191W        W10645  10.144  24.161   4.710
49192W        W10646  26.513  40.444   1.428
49193W        W10647  40.810  38.941  11.032
49194W        W10648  44.441   9.285  11.415
49195W        W10649   2.400  39.351   1.800
49196W        W10650  10.370  35.417  14.285
49197W        W10651  27.448  21.570  12.457
49198W        W10652  43.840   7.366  14.843
49199W        W10653   6.765  31.000   2.669
49200W        W10654  17.160  20.591   0.278
49201W        W10655  28.546   5.288  13.354
49202W        W10656  39.479   6.328   4.605
49203W        W10657   6.912   0.842   4.174
49204W        W10658  27.962  41.004  12.844
49205W        W10659   8.400   1.975  14.288
49206W        W10660  20.537   4.752  14.007
49207W        W10661  20.047  39.823  10.952
49208W        W10662  44.403   6.358   3.665
49209W        W10663   4.402  24.713   3.642
49210W        W10664  25.093  43.909   2.288
49211W        W10665  13.819   4.340   4.157
49212W        W10666  24.500   4.383   2.274
49213W        W10667  24.223   2.320  14.957
49214W        W10668  12.137  27.579   3.249
49215W        W10669  15.719  42.005  10.611
49216W        W10670  37.453   6.755   3.843
49217W        W10671  12.798   1.824   2.216
49218W        W10672  23.493  36.991   2.325
49219W        W10673  43.291   5.347   4.837
49220W        W10674  33.130   4.862   2.734
49221W        W10675  31.996  41.371  11.103
49222W        W10676   9.365   0.283  10.028
49223W        W10677  41.432  18.272  12.452
49224W        W10678  33.456  12.345  11.409
49225W        W10679  37.346  14.725   4.308
49226W        W10680  36.866   3.247   0.311
49227W        W10681   5.784  24.208  14.416
49228W        W10682   5.400  30.517   5.164
49229W        W10683  32.601   2.449   2.779
49230W        W10684  41.896  31.916   0.944
49231W        W10685  20.108  33.413  13.016
49232W        W10686  32.945  25.012   3.347
49233W        W10687  25.016  23.993   4.656
49234W        W10688   4.446  36.015   4.155
49235W        W10689  14.751  34.521   3.751
49236W        W10690  13.764  40.924   0.355
49237W        W10691  43.284  38.905  10.635
49238W        W10692  42.511  29.571   0.912
49239W        W10693  38.506   4.216  10.554
49240W        W10694  28.515  15.617  13.315
49241W        W10695  17.237  22.573   4.677
49242W        W10696  34.978  17.074  10.913
49243W        W10697  34.402  24.645  10.464
49244W        W10698  43.283  32.553  13.810
49245W        W10699  21.035  25.557  11.508
49246W        W10700  23.066  12.757  12.487
49247W        W10701   6.405  38.985  14.407
49248W        W10702   8.366   0.313  12.959
49249W        W10703  17.084   7.864  11.482
49250W        W10704  19.080  25.999   4.144
49251W        W10705  28.525  25.143  13.438
49252W        W10706  34.053  22.618   3.854
49253W        W10707   0.365  41.979   1.795
49254W        W10708  12.815  41.008  13.975
49255W        W10709  11.343  43.405  14.898
49256W        W10710   7.897   8.702  13.893
49257W        W10711  23.664  24.638  14.463
49258W        W10712  37.072  14.599   3.238
49259W        W10713  21.609   2.879   1.298
49260W        W10714  35.373  26.564   3.754
49261W        W10715  38.041  39.957  14.886
49262W        W10716  20.076  17.108  10.595
49263W        W10717   6.402  17.700   2.322
49264W        W10718   4.289  38.459  14.321
49265W        W10719  20.687  15.595  10.529
49266W        W10720  43.882  18.596  10.949
49267W        W10721   1.786  13.820   2.327
49268W        W10722  13.342  11.800   9.639
49269W        W10723  10.282  21.545  13.520
49270W        W10724  27.116  25.593  14.386
49271W        W10725  44.285   1.239   2.755
49272W        W10726  29.540  36.509   0.420
49273W        W10727   7.272  24.100  14.777
49274W        W10728   9.717  35.557  12.475
49275W        W10729  24.520  24.023  10.964
49276W        W10730  15.104  29.450   0.869
49277W        W10731  42.975  12.803   0.396
49278W        W10732  24.026  33.978   3.259
49279W        W10733  33.500   0.859   3.664
49280W        W10734  32.582  17.109  10.020
49281W        W10735  36.363  32.103   4.207
49282W        W10736  44.964   4.928   0.419
49283W        W10737  39.529  17.235  12.932
49284W        W10738  19.543   2.394  12.565
49285W        W10739   8.322  44.756  11.959
49286W        W10740  15.697   1.252   2.710
49287W        W10741  37.367  17.601  12.074
49288W        W10742  22.122  22.061  11.125
49289W        W10743  14.716   2.470  13.448
49290W        W10744  36.070  12.856  14.860
49291W        W10745   3.440  33.904  14.821
49292W        W10746  39.370  13.783   1.723
49293W        W10747  18.632  19.646   4.654
49294W        W10748  42.397  26.556  10.483
49295W        W10749  26.179  37.369  13.539
49296W        W10750  36.522  10.171  13.466
49297W        W10751  13.151  26.029   3.344
49298W        W10752  35.470  30.959  13.507
49299W        W10753  44.352  24.620   4.140
49300W        W10754  23.168  34.547   4.245
49301W        W10755  25.038  14.328   1.858
49302W        W10756  31.107  36.527   0.356
49303W        W10757  26.651  29.127  12.427
49304W        W10758  40.023   5.752   3.285
49305W        W10759  20.071  15.240   2.736
49306W        W10760  26.954  43.016   0.911
49307W        W10761  37.830  17.687   1.262
49308W        W10762  25.128  29.597  11.598
49309W        W10763  25.002   2.954   9.980
49310W        W10764  26.065  15.108  13.356
49311W        W10765  44.302  30.458  14.443
49312W        W10766  25.000  43.891   4.307
49313W        W10767   5.839  13.269  14.448
49314W        W10768  22.158  22.502  13.804
49315W        W10769   4.248  16.691  11.920
49316W        W10770  22.632  43.464   1.428
49317W        W10771  36.473  36.068   9.981
49318W        W10772  36.395   5.714   3.659
49319W        W10773  12.264  36.379   2.306
49320W        W10774  31.909  15.312  11.066
49321W        W10775   0.415  17.225   3.763
49322W        W10776  21.601  32.888   2.680
49323W        W10777  14.128   0.863   0.856
49324W        W10778   8.328   0.380   1.826
49325W        W10779   1.793  26.125  14.331
49326W        W10780  19.728  34.594  11.868
49327W        W10781  23.186  13.160  13.358
49328W        W10782  43.442  28.478  11.021
49329W        W10783  19.040   1.483   1.367
49330W        W10784  42.941  20.628  14.770
49331W        W10785   3.348   8.758   1.223
49332W        W10786  12.805  20.643   3.362
49333W        W10787   8.754   0.771   0.936
49334W        W10788   5.805  20.139  12.942
49335W        W10789  14.751   6.813  14.400
49336W        W10790  26.012  38.842  12.375
49337W        W10791   7.263  38.428  12.378
49338W        W10792  13.798  17.151  11.089
49339W        W10793  15.188   6.237  11.611
49340W        W10794  27.954  13.311  11.989
49341W        W10795  18.599  40.804  11.993
49342W        W10796   5.924  25.693  14.476
49343W        W10797  26.486  16.758   9.965
49344W        W10798  15.582  25.100  12.828
49345W        W10799  35.080  33.614  11.018
49346W        W10800   0.386  21.534  10.444
49347W        W10801  27.484   3.771  14.847
49348W        W10802   9.352  26.952   4.281
49349W        W10803   0.882   1.956   4.672
49350W        W10804  27.127  29.942  13.812
49351W        W10805  16.303  44.419   2.691
49352W        W10806  18.087  33.613   2.380
49353W        W10807  32.608  25.198  12.086
49354W        W10808  29.946  23.101  10.521
49355W        W10809   3.765  25.626   0.468
49356W        W10810  24.718  40.975   3.169
49357W        W10811  33.626  18.740   1.810
49358W        W10812  13.772  16.682  11.914
49359W        W10813  42.837  16.679   2.716
49360W        W10814  11.625  33.092  14.512
49361W        W10815  26.964  13.708   0.330
49362W        W10816  41.414   4.757  13.870
49363W        W10817  22.546  36.851  10.959
49364W        W10818  30.453  17.090  14.920
49365W        W10819  40.003  32.990  12.454
49366W        W10820  31.646  26.187   4.162
49367W        W10821  33.100  28.162   4.245
49368W        W10822  24.687  17.712   3.255
49369W        W10823   3.737  31.544   2.826
49370W        W10824  27.993  44.395  12.057
49371W        W10825  30.567  10.166  11.928
49372W        W10826  31.120  28.518  11.545
49373W        W10827  37.005  39.493  13.915
49374W        W10828  22.231  44.789   3.162
49375W        W10829  34.408  19.177   4.346
49376W        W10830  38.859  28.479  11.869
49377W        W10831  43.012  36.378   1.309
49378W        W10832   8.312  43.994   3.181
49379W        W10833  37.463  25.686   1.853
49380W        W10834  14.273  40.321   9.459
49381W        W10835  34.059  19.223   3.193
49382W        W10836  29.472  10.725   5.612
49383W        W10837   5.883   8.172  11.071
49384W        W10838   2.396  39.912  11.512
49385W        W10839  12.194   9.735  14.310
49386W        W10840  32.897  35.527  11.952
49387W        W10841  36.509  43.802  13.923
49388W        W10842   3.760   3.792  12.070
49389W        W10843  21.051  33.965   1.928
49390W        W10844  17.673   2.300  10.543
49391W        W10845  14.732  11.826   3.270
49392W        W10846   6.896  34.397   3.843
49393W        W10847  43.288  38.419  13.063
49394W        W10848  24.511  30.446  11.990
49395W        W10849  31.049   2.313  13.365
49396W        W10850  16.180  44.297  13.841
49397W        W10851   1.765   7.318   2.188
49398W        W10852  15.194  36.996   3.674
49399W        W10853   1.912  38.375   1.763
49400W        W10854   0.454  34.477   4.199
49401W        W10855  41.399  34.388   3.212
49402W        W10856  39.043  21.072  12.052
49403W        W10857  16.632   4.323  11.569
49404W        W10858  24.478  34.384  12.969
49405W        W10859  41.338  24.615  11.068
49406W        W10860  42.407   8.778  12.958
49407W        W10861  11.229   3.240   5.094
49408W        W10862  43.837  30.938  12.547
49409W        W10863  44.273  33.473  13.521
49410W        W10864   7.183   2.907  11.580
49411W        W10865  33.025  21.021   0.471
49412W        W10866   6.748  11.269   2.775
49413W        W10867  15.121  42.820   4.327
49414W        W10868  31.429  26.699  14.948
49415W        W10869  34.120  36.902  13.351
49416W        W10870   1.904   4.812   3.330
49417W        W10871  25.180  25.979   1.390
49418W        W10872  24.190   8.858  11.391
49419W        W10873   0.898  31.025   2.806
49420W        W10874  24.201  35.101  11.576
49421W        W10875  37.367  41.301  13.969
49422W        W10876  24.621  24.484   0.409
49423W        W10877  33.617   7.215   2.378
49424W        W10878  26.021  16.729   1.441
49425W        W10879  36.915   9.842   2.353
49426W        W10880  32.113  37.455   4.820
49427W        W10881  19.779  24.200  11.074
49428W        W10882  23.625  24.643   2.204
49429W        W10883  41.868   7.685  10.501
49430W        W10884  44.460  10.706   4.822
49431W        W10885  17.124  30.648  11.984
49432W        W10886  24.628  11.156  12.835
49433W        W10887  33.891  20.177  12.935
49434W        W10888  11.819  22.231  11.523
49435W        W10889  32.599  15.160  11.594
49436W        W10890  19.626  27.482  11.562
49437W        W10891  34.055  33.936  12.955
49438W        W10892  39.881  38.864   3.729
49439W        W10893  36.593  41.484  12.460
49440W        W10894   0.273  21.745   1.323
49441W        W10895  13.702  23.078  10.903
49442W        W10896   8.352  44.764   3.731
49443W        W10897  23.051  27.940   3.255
49444W        W10898  21.110   5.775  14.298
49445W        W10899  40.489   5.214  14.805
49446W        W10900  12.848  33.504   0.833
49447W        W10901   4.342  24.584  12.073
49448W        W10902  18.102  29.138   3.687
49449W        W10903  43.369  26.142   4.296
49450W        W10904  39.936  38.959   5.094
49451W        W10905  21.548   4.850   3.757
49452W        W10906  32.418   9.378   3.171
49453W        W10907  14.717  31.487  13.929
49454W        W10908   1.436  17.599  12.067
49455W        W10909  10.140  15.799  13.897
49456W        W10910  38.873  14.623  13.862
49457W        W10911  19.643  35.874  14.322
49458W        W10912   2.824  40.428  11.525
49459W        W10913  43.881   1.301  14.485
49460W        W10914  42.821  13.707   3.265
49461W        W10915   9.882  34.550  14.433
49462W        W10916  15.663  20.690  11.982
49463W        W10917  10.865  17.677  10.591
49464W        W10918  26.103  26.635   4.349
49465W        W10919  24.001  33.613  14.011
49466W        W10920   0.273  32.096  14.910
49467W        W10921  25.497  13.230  13.952
49468W        W10922  22.062  36.874  11.912
49469W        W10923  37.876   3.412  12.451
49470W        W10924  33.879  12.689   3.363
49471W        W10925  41.827  33.562   2.872
49472W        W10926  33.592  32.613   2.256
49473W        W10927  12.679  24.607  13.021
49474W        W10928  14.703   8.677   4.764
49475W        W10929  10.267  35.965   0.735
49476W        W10930   9.318  15.084   4.244
49477W        W10931   3.382  26.670  14.402
49478W        W10932  43.410  23.600   2.762
49479W        W10933  21.634  14.675  13.320
49480W        W10934   3.418  18.058   1.242
49481W        W10935  42.833   6.811  12.960
49482W        W10936   7.283   8.710   0.816
49483W        W10937  18.167  38.478   1.706
49484W        W10938   6.730  15.147  12.395
49485W        W10939  33.970  34.088   4.668
49486W        W10940  29.065  31.565  12.392
49487W        W10941  27.967  34.922   5.781
49488W        W10942  13.142  42.343   0.383
49489W        W10943   5.199  44.010  14.509
49490W        W10944  34.495  10.757   5.109
49491W        W10945  18.665  36.082   2.397
49492W        W10946  18.176   7.389   2.263
49493W        W10947   7.681   1.965  11.010
49494W        W10948  19.070  17.603   4.135
49495W        W10949  38.896   9.810   3.656
49496W        W10950  35.557   2.859   2.723
49497W        W10951  29.659   5.758  11.012
49498W        W10952   7.290  14.781   2.347
49499W        W10953  36.579  43.506  14.497
49500W        W10954  31.484  26.586  13.033
49501W        W10955  23.592  26.517  12.491
49502W        W10956  37.895  27.679   3.224
49503W        W10957   5.266   5.834   3.857
49504W        W10958  40.823  37.055  12.488
49505W        W10959   3.758   3.822  14.423
49506W        W10960  11.256  31.919  10.111
49507W        W10961  33.611  44.894   4.253
49508W        W10962  15.740  43.968  12.578
49509W        W10963  33.961  10.672  12.510
49510W        W10964  36.540  33.420  11.423
49511W        W10965  20.568  36.013  13.999
49512W        W10966  38.899   7.765   4.646
49513W        W10967   2.299  34.974   1.807
49514W        W10968   0.470   2.322   1.366
49515W        W10969   5.220   5.890  14.021
49516W        W10970   9.747  31.486  12.481
49517W        W10971  26.465  41.414   4.164
49518W        W10972  14.647  40.544  13.357
49519W        W10973  28.664   0.280   5.566
49520W        W10974  29.551  37.044  14.016
49521W        W10975  24.664  36.896   2.894
49522W        W10976  15.731  23.631   2.758
49523W        W10977  13.829  37.877   3.842
49524W        W10978  17.762  37.049   3.154
49525W        W10979  19.597  21.663  14.834
49526W        W10980  21.256  39.458  11.024
49527W        W10981   8.747  14.628  12.957
49528W        W10982   6.688  34.985   4.326
49529W        W10983  19.136  38.900  12.483
49530W        W10984  28.933  38.914   0.368
49531W        W10985  36.593  21.108   0.949
49532W        W10986  10.308  18.211   2.301
49533W        W10987  29.578   3.841   2.899
49534W        W10988  42.369  40.346  12.532
49535W        W10989  41.937  43.361   4.801
49536W        W10990  23.519  41.840  13.940
49537W        W10991  38.447  14.651   4.766
49538W        W10992  14.273  34.392   0.481
49539W        W10993   3.848   4.729  14.921
49540W        W10994  29.480  15.253  11.442
49541W        W10995  23.659  29.170   4.737
49542W        W10996  43.942   1.372   1.299
49543W        W10997   9.740  38.519  14.917
49544W        W10998  42.340  42.776  12.092
49545W        W10999  19.535  15.237  14.798
49546W        W11000  34.379  21.542  11.914
49547W        W11001  37.948  43.828  11.530
49548W        W11002  28.530  21.157  12.058
49549W        W11003   0.978  37.499  14.445
49550W        W11004  38.888  27.037   3.324
49551W        W11005  37.922   2.410  10.505
49552W        W11006  39.050  22.706   0.429
49553W        W11007  12.731   8.279   2.410
49554W        W11008  38.569  10.841   0.286
49555W        W11009  33.557  29.636  10.600
49556W        W11010  18.147  44.406   3.787
49557W        W11011  35.904  29.111   4.794
49558W        W11012  26.468  26.202  14.368
49559W        W11013  37.543  16.803  12.930
49560W        W11014   8.843  25.516   1.820
49561W        W11015   0.805  34.501  10.896
49562W        W11016   4.851  38.020  11.022
49563W        W11017  18.665  20.110  10.992
49564W        W11018   7.224  35.893   2.776
49565W        W11019  18.605  33.441   0.957
49566W        W11020  16.285  20.650  10.979
49567W        W11021  37.469  14.768  13.898
49568W        W11022  40.466  29.982   0.352
49569W        W11023  16.804  29.556  14.394
49570W        W11024  27.488   1.856   5.196
49571W        W11025  10.849   9.836   4.272
49572W        W11026  25.564  19.659  13.364
49573W        W11027  14.660  37.956  11.114
49574W        W11028   5.934   9.825   0.911
49575W        W11029  30.110  28.555   0.794
49576W        W11030  43.481  37.550   1.352
49577W        W11031  27.467   5.758   0.387
49578W        W11032  15.122  16.643   4.302
49579W        W11033   9.228   6.236  14.853
49580W        W11034   3.905  23.513  13.914
49581W        W11035  18.731   5.308  12.464
49582W        W11036  22.222  34.048   4.199
49583W        W11037   8.796  17.790  14.330
49584W        W11038  23.581  38.477   4.190
49585W        W11039   0.445  31.557  10.537
49586W        W11040  30.425  43.968   3.308
49587W        W11041  27.138  37.566   0.248
49588W        W11042   6.202  33.965   2.379
49589W        W11043  15.637  36.445   4.119
49590W        W11044  11.729  30.518   3.805
49591W        W11045  16.190  44.328   1.273
49592W        W11046  15.216  16.127  14.410
49593W        W11047   7.710  43.375   1.328
49594W        W11048   8.223  22.632  11.035
49595W        W11049  30.050  40.491  11.890
49596W        W11050  15.183  13.232  12.579
49597W        W11051  31.490  15.167  10.512
49598W        W11052  24.166  40.544   2.312
49599W        W11053  14.101  33.510   2.880
49600W        W11054  18.199   0.353  11.564
49601W        W11055   6.720   9.223   0.871
49602W        W11056  28.474  12.667   3.316
49603W        W11057   0.863  42.931   0.331
49604W        W11058  14.123  26.546  14.409
49605W        W11059  23.567  39.044  11.449
49606W        W11060  22.039  34.998   2.327
49607W        W11061  19.160  43.006  14.467
49608W        W11062  30.105   0.375   3.385
49609W        W11063   4.262  29.634   1.806
49610W        W11064  28.125  44.831   2.772
49611W        W11065  13.341  11.180  14.346
49612W        W11066  36.946   2.821   3.240
49613W        W11067   4.701   6.187   4.242
49614W        W11068  24.021  13.625   1.278
49615W        W11069   1.911  11.868   0.362
49616W        W11070  12.856  19.732   0.467
49617W        W11071   7.759  42.356   3.703
49618W        W11072  17.645  27.053   3.301
49619W        W11073  33.584  16.282  11.477
49620W        W11074  29.995  14.643   0.430
49621W        W11075  12.801  34.459   2.223
49622W        W11076  31.473  28.162   2.296
49623W        W11077   2.386  10.187  12.489
49624W        W11078  36.909  16.317  13.831
49625W        W11079  28.997  42.949  14.893
49626W        W11080  38.481  37.868   2.749
49627W        W11081  16.209  31.623   2.222
49628W        W11082  36.974  26.954   3.716
49629W        W11083  44.982  10.288   4.710
49630W        W11084  15.112  41.810  11.877
49631W        W11085  30.457  43.768  11.899
49632W        W11086  44.412  35.374   9.927
49633W        W11087  14.296  31.114  13.355
49634W        W11088  44.978  28.624  11.071
49635W        W11089   5.195   8.692  14.891
49636W        W11090  39.464  28.970  12.572
49637W        W11091  39.987   3.402  13.987
49638W        W11092   1.889   6.889   0.859
49639W        W11093  18.738   2.924  10.908
49640W        W11094  27.580  18.101   0.403
49641W        W11095   2.863  19.198   1.735
49642W        W11096  38.561   9.857   4.705
49643W        W11097   0.860  13.679  14.020
49644W        W11098  34.089  15.759  14.491
49645W        W11099  40.302  11.157  10.923
49646W        W11100   1.412  27.169  13.327
49647W        W11101  16.754   5.814   3.698
49648W        W11102  34.894   8.261  10.569
49649W        W11103  16.624  21.713  14.292
49650W        W11104  38.353  37.060  12.484
49651W        W11105  33.948  18.149   1.325
49652W        W11106  43.815  37.995  12.481
49653W        W11107  30.526  42.466  10.407
49654W        W11108  33.011  34.602  12.386
49655W        W11109  28.487   3.749   0.438
49656W        W11110  14.781  19.107   1.274
49657W        W11111  21.693  34.919  11.415
49658W        W11112  30.129  23.574   3.349
49659W        W11113   8.161  31.080   9.613
49660W        W11114  10.309  12.728  11.599
49661W        W11115  38.510  35.570  11.097
49662W        W11116   4.835  29.084   3.369
49663W        W11117  11.278   5.262   4.180
49664W        W11118  27.485  11.656   4.824
49665W        W11119  13.719  13.785   2.186
49666W        W11120  14.674  37.058  12.969
49667W        W11121   0.400  14.241   4.314
49668W        W11122   0.323  24.706  11.501
49669W        W11123  37.898   7.244   3.369
49670W        W11124  34.538  43.356   4.345
49671W        W11125  10.223  29.551   3.761
49672W        W11126  26.960  28.625   4.668
49673W        W11127   2.871  18.284   2.762
49674W        W11128   3.854  20.106  10.595
49675W        W11129  12.166  28.636  14.448
49676W        W11130  14.796   2.865   1.258
49677W        W11131  30.437  32.036  10.968
49678W        W11132  41.820  35.100  12.422
49679W        W11133  41.538  38.940  10.980
49680W        W11134  10.872  29.079  14.988
49681W        W11135  16.599  42.289  10.515
49682W        W11136  30.517  25.086   3.160
49683W        W11137   4.444  31.979   1.245
49684W        W11138  40.450  12.180   4.598
49685W        W11139  10.659  16.789  11.590
49686W        W11140  32.138   5.743   4.149
49687W        W11141  39.427   3.876   3.350
49688W        W11142  14.680  15.744   4.799
49689W        W11143  17.786   0.258   1.432
49690W        W11144  11.324  27.194   3.329
49691W        W11145   5.257  44.434  14.824
49692W        W11146  30.001  40.835   2.199
49693W        W11147  13.800  35.022   1.900
49694W        W11148  35.955  40.490  13.814
49695W        W11149  12.822  36.515  12.407
49696W        W11150  41.497  27.124  12.445
49697W        W11151  19.133  38.351  14.783
49698W        W11152  32.526  18.724  13.877
49699W        W11153  39.850   4.789  13.017
49700W        W11154   1.354   0.849  12.950
49701W        W11155  12.746  32.949   1.256
49702W        W11156  32.077   0.822   4.273
49703W        W11157  22.104  41.346  11.476
49704W        W11158  16.287  27.450   0.426
49705W        W11159   0.364  22.192  13.425
49706W        W11160  36.094  14.173   4.742
49707W        W11161  25.710  22.503  10.592
49708W        W11162   8.248   4.303  14.975
49709W        W11163  34.591  19.233  10.626
49710W        W11164  43.317  37.078   1.419
49711W        W11165  37.504  29.592   1.708
49712W        W11166  19.659  20.660   1.775
49713W        W11167  24.162  28.558   2.231
49714W        W11168   4.820  42.297   2.827
49715W        W11169  41.894  24.703  10.460
49716W        W11170   5.192  12.305  10.445
49717W        W11171  44.898  42.819  10.524
49718W        W11172   7.906   8.898  12.462
49719W        W11173  32.428  21.601  14.833
49720W        W11174   4.248  30.017  11.072
49721W        W11175  24.582  30.132   2.298
49722W        W11176  43.349  31.523  14.316
49723W        W11177   1.367  24.526  11.380
49724W        W11178  21.103  11.784  14.810
49725W        W11179  37.515  14.802   3.710
49726W        W11180  12.669  44.326   2.730
49727W        W11181  30.962  20.141  14.870
49728W        W11182  32.047  35.463  14.356
49729W        W11183  39.352  20.177  13.521
49730W        W11184  24.113   9.666   4.653
49731W        W11185  44.273   6.704  11.386
49732W        W11186  12.256  14.194  11.497
49733W        W11187  13.279  14.290  14.354
49734W        W11188  41.980  14.135   0.444
49735W        W11189  28.937  23.036  14.893
49736W        W11190  31.454  18.237   2.776
49737W        W11191  11.806   8.325   0.477
49738W        W11192  28.167  20.265  14.939
49739W        W11193   1.255  26.160  13.003
49740W        W11194   6.208  36.944  10.495
49741W        W11195  14.130  16.124  14.773
49742W        W11196  37.399  29.633   2.699
49743W        W11197  41.034  13.156   2.894
49744W        W11198  23.503  28.113  13.825
49745W        W11199  25.136  21.194   2.822
49746W        W11200   8.714  10.294   4.616
49747W        W11201  26.681   2.252  10.442
49748W        W11202   4.897  30.625   0.472
49749W        W11203   1.458  31.956  11.559
49750W        W11204   1.851  36.554   5.087
49751W        W11205  44.870  39.044   1.343
49752W        W11206  24.053  22.997  11.943
49753W        W11207  30.487  23.185   2.789
49754W        W11208  18.594  21.674  11.926
49755W        W11209   4.445  20.124   0.913
49756W        W11210  35.400   1.319  12.022
49757W        W11211  12.807   1.410  13.964
49758W        W11212   6.346  33.928  11.864
49759W        W11213  23.149  10.346  11.001
49760W        W11214  35.098  31.097   2.750
49761W        W11215  31.616  44.417   4.776
49762W        W11216  28.040  10.879   0.312
49763W        W11217  21.230  32.440   2.210
49764W        W11218  22.724  33.963  11.090
49765W        W11219  21.087  42.389   3.652
49766W        W11220  12.340  24.568  12.581
49767W        W11221   8.838  11.762  14.028
49768W        W11222  33.396  11.299   4.246
49769W        W11223   6.366  44.503  13.797
49770W        W11224  13.144  33.506   2.257
49771W        W11225   3.336  34.426   2.662
49772W        W11226   8.241  28.944  10.028
49773W        W11227  37.539  24.667   2.257
49774W        W11228  43.422  28.068  13.369
49775W        W11229  16.086  28.556   0.938
49776W        W11230  41.794   3.920   1.901
49777W        W11231   1.845  34.864  10.492
49778W        W11232  37.544  23.569  13.922
49779W        W11233  36.947  33.564   3.343
49780W        W11234  25.535  26.514   1.763
49781W        W11235   1.741   0.880  14.437
49782W        W11236  44.356  20.067  13.062
49783W        W11237  24.134   0.467   1.341
49784W        W11238  34.880  24.052  10.570
49785W        W11239  38.944  44.349  10.969
49786W        W11240  40.346  15.249   0.277
49787W        W11241  16.801   5.355   4.255
49788W        W11242  33.967  32.913  11.435
49789W        W11243  17.698  30.562  12.890
49790W        W11244  21.600  29.994  14.001
49791W        W11245  44.777  12.170   1.796
49792W        W11246  17.798   0.298  10.561
49793W        W11247   0.972   5.314  13.910
49794W        W11248  32.912   0.472   2.732
49795W        W11249  36.002  37.575  14.355
49796W        W11250   0.423  32.100   2.731
49797W        W11251  38.355   6.250   4.796
49798W        W11252  13.767  29.096  11.572
49799W        W11253  25.036  23.120   2.208
49800W        W11254  23.493  40.034  14.958
49801W        W11255  13.314   6.913  14.418
49802W        W11256   6.738  10.687   4.248
49803W        W11257  12.335  43.795   0.356
49804W        W11258   4.888  25.153  14.940
49805W        W11259  25.515  44.810  12.828
49806W        W11260  22.201  36.973   3.158
49807W        W11261  22.163  33.979  11.054
49808W        W11262  37.499  13.765  12.981
49809W        W11263  25.521  12.184   2.297
49810W        W11264  32.915  10.329  13.418
49811W        W11265  40.860  24.157   2.812
49812W        W11266  10.832  14.197  12.523
49813W        W11267  40.023   0.478   3.785
49814W        W11268   6.790   8.849   1.449
49815W        W11269   2.289   9.242   3.719
49816W        W11270  25.985  44.441  11.949
49817W        W11271  24.486  23.122  12.447
49818W        W11272  14.785  13.690  13.405
49819W        W11273   0.802   7.211   2.815
49820W        W11274  13.184  31.430  13.796
49821W        W11275   9.666  20.273   1.301
49822W        W11276  34.069  16.167   0.839
49823W        W11277   2.304  41.425   5.171
49824W        W11278  29.145  25.182   3.147
49825W        W11279   7.851  11.365   0.431
49826W        W11280  21.617   3.372  14.951
49827W        W11281  26.066  21.603   5.595
49828W        W11282  37.864  30.010  13.865
49829W        W11283  22.084  28.667  14.944
49830W        W11284  15.777   6.899  12.014
49831W        W11285  16.587  15.167  10.129
49832W        W11286  19.232  30.534   4.803
49833W        W11287   7.750  32.493   1.834
49834W        W11288  34.068  22.072   1.418
49835W        W11289  15.659   7.788  14.512
49836W        W11290   0.337  44.965   2.333
49837W        W11291  11.315  32.536  10.933
49838W        W11292  41.882  13.246   3.845
49839W        W11293  22.226  26.691   0.818
49840W        W11294  33.524  14.105   0.897
49841W        W11295  17.556  19.721  10.893
49842W        W11296   0.285  35.590   2.819
49843W        W11297  37.518  41.036  14.923
49844W        W11298  32.906  10.752  14.962
49845W        W11299   7.860   3.298   1.416
49846W        W11300  26.564   2.769   0.454
49847W        W11301  36.005  17.681   3.686
49848W        W11302  18.778   3.782  12.889
49849W        W11303  14.716   6.805  12.039
49850W        W11304  33.537  30.016  14.431
49851W        W11305  27.144  44.283   3.666
49852W        W11306   5.234  24.672   0.958
49853W        W11307   1.970  42.898  10.456
49854W        W11308   0.846  37.578   0.390
49855W        W11309  11.648   2.877  14.764
49856W        W11310  16.150  13.313  14.811
49857W        W11311  35.428  43.812  13.984
49858W        W11312  11.721  37.539  12.965
49859W        W11313  43.897  15.653  12.873
49860W        W11314  36.990  40.850   9.927
49861W        W11315  31.125  15.635  11.996
49862W        W11316  35.379  33.549  11.093
49863W        W11317  20.229  27.053   1.868
49864W        W11318   9.266   8.287  12.554
49865W        W11319  34.477  36.573   1.703
49866W        W11320  41.842   1.756  10.635
49867W        W11321  14.282  44.969   2.824
49868W        W11322  30.077  17.704  13.427
49869W        W11323  36.990   8.811   3.810
49870W        W11324  25.704  13.762  10.597
49871W        W11325  42.932  14.231  12.006
49872W        W11326  20.113   9.171   3.362
49873W        W11327   0.491  18.655   1.344
49874W        W11328  24.001  30.114  14.795
49875W        W11329  28.652  24.011  13.831
49876W        W11330  27.114   8.328   4.142
49877W        W11331   6.362  32.610   3.826
49878W        W11332  30.102  18.555   1.269
49879W        W11333  12.127  33.508   2.279
49880W        W11334   0.375  24.145   0.361
49881W        W11335  32.008  37.577   0.898
49882W        W11336   6.685  24.997  11.977
49883W        W11337   8.816  33.495  14.289
49884W        W11338  25.684   4.783   3.383
49885W        W11339  23.641  30.001   0.457
49886W        W11340   0.830  11.692  11.991
49887W        W11341  18.227  30.612   2.682
49888W        W11342  24.547  41.808   1.400
49889W        W11343  36.451   4.223   1.837
49890W        W11344  30.477  39.868   2.179
49891W        W11345   6.762   8.836   3.733
49892W        W11346  40.978  31.116  13.051
49893W        W11347  12.186   1.899   2.855
49894W        W11348  11.352  35.443  10.948
49895W        W11349  15.180  13.803   1.255
49896W        W11350   8.355   1.303  12.027
49897W        W11351   5.883  10.750  13.012
49898W        W11352  12.344  25.042   1.407
49899W        W11353  43.411  21.695   3.734
49900W        W11354  42.327   1.368  11.437
49901W        W11355  20.731  26.076  13.891
49902W        W11356  36.496   8.321   0.895
49903W        W11357  39.922  15.328  12.362
49904W        W11358  34.475  11.165  14.441
49905W        W11359  22.717  41.799  12.082
49906W        W11360  39.487   0.915   3.233
49907W        W11361  31.049  13.682  12.416
49908W        W11362  14.152   0.253  12.555
49909W        W11363  34.930  15.592   9.989
49910W        W11364  28.558  21.711  12.933
49911W        W11365  28.025  37.426   0.909
49912W        W11366  34.522  12.201   4.662
49913W        W11367  13.763  20.034   1.772
49914W        W11368  43.890  17.272   0.349
49915W        W11369   8.708  19.622   0.795
49916W        W11370   7.773  26.075   1.350
49917W        W11371   7.338  10.160  12.498
49918W        W11372  24.085  13.744   3.779
49919W        W11373  18.184  18.130   4.825
49920W        W11374  10.348   0.818   2.816
49921W        W11375  12.141   1.387   2.356
49922W        W11376  39.032  23.554   3.257
49923W        W11377  13.669   5.778  11.453
49924W        W11378  18.759   5.921   3.318
49925W        W11379  23.601  37.887  11.427
49926W        W11380   7.686  43.942   1.910
49927W        W11381   4.442  38.508  10.424
49928W        W11382  44.873  42.483  10.516
49929W        W11383  38.325  40.938  13.918
49930W        W11384  42.381  40.304  12.899
49931W        W11385  21.713  39.873   0.866
49932W        W11386   6.815  28.068  12.395
49933W        W11387  39.426  10.145  14.790
49934W        W11388  33.463  10.836  14.855
49935W        W11389  18.196  33.429   3.777
49936W        W11390  38.328  43.490  14.993
49937W        W11391   1.312  10.196   0.345
49938W        W11392  30.487  38.871   3.699
49939W        W11393  31.081  18.674  14.471
49940W        W11394   2.720   4.277   0.446
49941W        W11395  21.093  21.246   1.827
49942W        W11396  36.889   9.347   0.758
49943W        W11397   9.382  25.636   2.778
49944W        W11398   8.889  37.420  11.041
49945W        W11399   7.708  30.429   3.356
49946W        W11400  41.998  16.206  13.898
49947W        W11401   8.758  21.246   3.251
49948W        W11402  37.055  25.069   4.748
49949W        W11403  14.596  40.909   2.381
49950W        W11404  16.710  34.575  11.537
49951W        W11405  39.534  17.778  12.568
49952W        W11406  19.064  13.806   1.822
49953W        W11407  33.968  14.817   4.717
49954W        W11408  26.149   4.359   5.775
49955W        W11409  13.771  29.458  11.855
49956W        W11410  12.616  37.470  11.029
49957W        W11411  42.804  33.592  10.951
49958W        W11412  32.896  44.399  12.064
49959W        W11413  11.785  37.499   4.669
49960W        W11414  11.695  23.136  11.414
49961W        W11415  24.030  24.980  10.966
49962W        W11416  39.500  39.001  13.849
49963W        W11417  10.319  12.695   4.232
49964W        W11418  13.601   4.873   0.421
49965W        W11419  37.525  39.008  14.800
49966W        W11420   1.257  28.524   3.193
49967W        W11421  25.479  25.534  12.396
49968W        W11422  29.040   9.773   3.751
49969W        W11423  25.206  39.860  10.495
49970W        W11424  22.184   3.767  14.333
49971W        W11425   2.884  23.005   3.339
49972W        W11426  18.756   7.287   4.163
49973W        W11427  23.994   7.195   1.308
49974W        W11428  24.510  34.993  11.974
49975W        W11429  28.658  16.103   2.798
49976W        W11430  18.709   3.799  11.899
49977W        W11431  10.641  19.662   2.735
49978W        W11432  22.031  42.290  11.563
49979W        W11433  19.175  32.980  12.544
49980W        W11434  37.071   7.907   3.351
49981W        W11435  13.842  42.775   1.855
49982W        W11436  21.026  39.932   4.631
49983W        W11437  20.122  26.553   4.222
49984W        W11438   4.921  20.252  10.542
49985W        W11439   5.796  23.545  11.552
49986W        W11440  22.055   1.934  10.895
49987W        W11441  39.826  29.143  13.807
49988W        W11442  32.086  27.974  14.925
49989W        W11443  23.682  23.166  11.422
49990W        W11444  10.289   4.936   4.259
49991W        W11445  32.547  43.486  11.601
49992W        W11446  12.194  25.987   2.341
49993W        W11447  17.631  33.880   0.900
49994W        W11448  32.118   5.410  11.917
49995W        W11449  40.916  28.935  14.004
49996W        W11450  36.023  38.390   4.737
49997W        W11451  12.205   6.750   3.373
49998W        W11452  37.902  32.886  11.056
49999W        W11453   2.423  32.104   3.374
50000W        W11454  18.725  15.318  11.583
50001W        W11455  14.707   2.873  11.095
50002W        W11456  18.208  29.508   1.756
50003W        W11457  33.446  30.983   1.391
50004W        W11458   8.332   0.263  11.435
50005W        W11459  29.127   0.389  11.536
50006W        W11460  16.201   9.715  11.431
50007W        W11461   9.874  15.276   4.164
50008W        W11462  10.367  30.441   1.247
50009W        W11463  37.425  29.142  14.766
50010W        W11464  22.614  32.956  11.570
50011W        W11465  14.175   5.321   2.861
50012W        W11466  39.335  24.197   1.309
50013W        W11467  27.086  10.816   0.305
50014W        W11468  10.199   7.712   4.188
50015W        W11469   6.204  43.308  11.612
50016W        W11470  15.729  30.142   0.444
50017W        W11471  12.850  15.282   1.230
50018W        W11472  43.308  16.197  10.960
50019W        W11473  17.611  44.351   4.145
50020W        W11474   2.450  44.761   0.251
50021W        W11475  17.305   1.346  11.076
50022W        W11476  37.854  44.753  14.911
50023W        W11477  22.617  20.061   1.275
50024W        W11478  25.484  15.151  13.853
50025W        W11479   0.255  22.081  13.916
50026W        W11480   2.965  11.853   2.187
50027W        W11481  41.789  39.952  13.493
50028W        W11482  14.669   5.432   4.803
50029W        W11483  11.800  10.244  12.401
50030W        W11484  25.650  12.683   5.128
50031W        W11485  16.690  43.818  12.452
50032W        W11486  14.158  35.570   0.851
50033W        W11487  36.583  44.313   2.805
50034W        W11488  26.659  10.165  14.764
50035W        W11489  12.785  28.984  14.976
50036W        W11490  10.362  14.795   4.692
50037W        W11491  41.979   5.325  12.432
50038W        W11492  16.138  29.148  12.956
50039W        W11493  18.231  16.083  14.025
50040W        W11494  16.124  31.472   3.771
50041W        W11495  15.168  24.206  13.837
50042W        W11496  31.625  27.139  13.452
50043W        W11497  10.774   0.285  13.855
50044W        W11498  19.702  19.116   1.861
50045W        W11499  26.965  40.381  14.508
50046W        W11500  34.520  26.548   2.712
50047W        W11501   5.781  44.844   2.195
50048W        W11502   9.887   5.863  14.957
50049W        W11503  20.195  37.042   2.831
50050W        W11504  13.224  27.184   4.756
50051W        W11505  28.654  34.098   0.776
50052W        W11506  12.722  13.217   3.866
50053W        W11507  38.831  14.135  11.008
50054W        W11508  25.087   1.469   5.212
50055W        W11509  13.134   6.884  12.341
50056W        W11510  11.665  35.421   4.318
50057W        W11511  44.965  38.008   2.209
50058W        W11512  38.997  21.027   5.182
50059W        W11513  36.501  35.521  10.460
50060W        W11514   9.851  22.647   2.241
50061W        W11515  34.580  27.087   4.182
50062W        W11516  44.416   4.895  10.503
50063W        W11517  29.441   5.916  14.959
50064W        W11518   0.802  13.199  13.044
50065W        W11519  36.388  17.202  12.346
50066W        W11520  35.871  20.097  13.359
50067W        W11521  33.437  28.610   1.275
50068W        W11522  31.948  11.135   1.215
50069W        W11523  40.840  41.021   4.257
50070W        W11524  21.525  25.035   4.762
50071W        W11525  22.532  17.658  10.569
50072W        W11526  28.640  26.696  10.432
50073W        W11527  42.509  29.923   0.280
50074W        W11528  10.252  16.726  14.298
50075W        W11529   2.916  27.469  13.505
50076W        W11530  13.225  16.318   3.386
50077W        W11531  12.734  13.773  14.415
50078W        W11532  40.948  13.649   2.874
50079W        W11533  30.127  29.042  11.975
50080W        W11534   7.873  19.210  14.502
50081W        W11535  12.281  10.802   1.357
50082W        W11536  42.883  21.022  12.499
50083W        W11537   3.865  44.817   1.358
50084W        W11538  34.392  44.422  12.900
50085W        W11539  33.039  19.114  12.366
50086W        W11540   6.387  13.634  11.610
50087W        W11541   4.734  14.624   1.244
50088W        W11542  36.852   6.846   0.947
50089W        W11543   6.333  26.574  12.992
50090W        W11544  44.844  36.061   4.806
50091W        W11545  42.010  17.075  13.536
50092W        W11546  15.180  32.080   0.872
50093W        W11547  41.944  31.441   2.788
50094W        W11548  16.735  20.636   4.761
50095W        W11549   4.312  20.580   1.277
50096W        W11550  28.590  25.063   0.775
50097W        W11551  44.781   9.849   1.766
50098W        W11552  43.893  37.461  14.862
50099W        W11553   3.910  11.785  12.374
50100W        W11554  24.656  23.107   2.662
50101W        W11555  31.628  42.803  12.533
50102W        W11556   0.307   4.837   4.831
50103W        W11557  40.472  39.532   1.805
50104W        W11558  27.196  41.498   2.878
50105W        W11559  14.692  23.189   2.662
50106W        W11560  41.355  22.123   2.270
50107W        W11561  39.463  26.133   2.848
50108W        W11562  27.470  20.079  13.013
50109W        W11563  23.064  44.758   2.332
50110W        W11564  24.983  29.654   2.232
50111W        W11565  14.331  14.758   3.169
50112W        W11566  39.818   9.739   0.966
50113W        W11567  28.163  16.723   0.379
50114W        W11568  10.735  25.704   1.906
50115W        W11569  44.341   5.364   3.642
50116W        W11570  34.018   9.267   1.259
50117W        W11571  21.545  27.478   1.233
50118W        W11572  19.103  32.448   4.262
50119W        W11573  20.746  14.756   0.390
50120W        W11574   6.842  12.341   2.240
50121W        W11575  25.140  35.536  12.050
50122W        W11576  17.286  40.018  11.861
50123W        W11577  13.272   0.487  12.945
50124W        W11578  40.455   7.301  13.830
50125W        W11579  18.610  10.755   5.106
50126W        W11580  17.128  41.358  11.380
50127W        W11581  34.601  26.147  14.984
50128W        W11582  39.440   3.401   2.347
50129W        W11583  27.015  13.659  11.920
50130W        W11584  17.155  28.998   0.327
50131W        W11585  24.087   0.876  10.535
50132W        W11586   7.370  21.569  13.417
50133W        W11587  19.671  40.822  11.583
50134W        W11588  39.033   6.184  11.127
50135W        W11589  18.096  34.106  11.446
50136W        W11590  15.645  23.726   3.291
50137W        W11591  39.448  43.855   4.206
50138W        W11592  10.776   6.893  12.577
50139W        W11593   3.273  40.349   1.353
50140W        W11594  23.152  36.392  10.461
50141W        W11595  13.767  35.080   2.800
50142W        W11596  41.854  21.040  12.852
50143W        W11597  29.598  34.102   0.751
50144W        W11598  34.425   4.209  11.959
50145W        W11599  41.827  30.524   2.351
50146W        W11600  31.056   1.339   3.201
50147W        W11601  10.327  10.214   0.255
50148W        W11602  24.166  11.177   0.250
50149W        W11603  26.651  38.383   1.893
50150W        W11604   4.761  18.645   3.283
50151W        W11605  31.074  16.274   4.708
50152W        W11606  23.178  10.775  10.439
50153W        W11607  39.429  33.874  14.321
50154W        W11608   3.939  34.908  14.988
50155W        W11609  16.305  44.283   0.323
50156W        W11610  15.822   3.274   5.249
50157W        W11611  20.160  14.754  14.505
50158W        W11612   9.254  42.897   9.975
50159W        W11613  26.628   1.840   1.421
50160W        W11614   7.398  18.154   4.215
50161W        W11615  34.942  37.068  12.096
50162W        W11616  13.679  28.519  10.935
50163W        W11617   0.889  31.594   0.960
50164W        W11618   4.392   9.384  14.015
50165W        W11619  10.220  19.055   1.246
50166W        W11620  12.316   3.843  10.644
50167W        W11621  28.667  12.678   2.888
50168W        W11622   3.818  36.540  14.284
50169W        W11623  13.707  29.060  11.074
50170W        W11624  30.576  30.423   1.221
50171W        W11625   0.435  35.554   3.277
50172W        W11626   3.945  32.457  13.362
50173W        W11627  11.334  32.585   5.732
50174W        W11628   4.309   3.874  12.887
50175W        W11629  42.390   7.710  13.462
50176W        W11630  27.161  21.228   2.789
50177W        W11631   1.479  43.399  12.876
50178W        W11632  36.935  10.273  11.422
50179W        W11633   8.383  26.123   3.834
50180W        W11634  40.306  29.943   3.350
50181W        W11635   7.875  14.322  13.801
50182W        W11636   4.292  40.323  13.436
50183W        W11637  43.887  16.589  13.953
50184W        W11638  21.239  27.024   2.225
50185W        W11639  20.270  26.549   2.405
50186W        W11640  33.016  24.993  10.902
50187W        W11641  28.156  30.102   1.361
50188W        W11642  20.110   2.732  14.406
50189W        W11643   4.293  10.164  11.924
50190W        W11644  20.187  19.534  10.520
50191W        W11645  12.222  20.182   3.208
50192W        W11646  17.196  26.132  12.578
50193W        W11647  22.601   2.849  14.813
50194W        W11648  39.533   6.884  11.127
50195W        W11649  13.238   6.392  10.069
50196W        W11650  14.181   4.311  13.801
50197W        W11651  40.352  34.524   2.366
50198W        W11652  38.458  41.311   0.479
50199W        W11653  30.055  18.223  14.849
50200W        W11654  17.658  25.120   1.869
50201W        W11655  40.495  35.944  14.383
50202W        W11656  40.830   5.812  12.844
50203W        W11657  16.292  17.751  10.916
50204W        W11658  31.932   7.251  13.830
50205W        W11659  30.539  33.568  11.112
50206W        W11660  10.812  16.162   0.835
50207W        W11661  39.419   0.457  10.566
50208W        W11662  27.946  39.930  11.516
50209W        W11663  27.683  10.852   2.374
50210W        W11664  17.183   3.906   4.751
50211W        W11665  41.951   9.360  13.881
50212W        W11666  18.787  33.973  10.505
50213W        W11667  11.178   8.834   1.792
50214W        W11668  41.875  41.359  14.900
50215W        W11669  14.310  35.998  14.435
50216W        W11670   0.868  15.814   5.162
50217W        W11671  34.893  28.548  14.330
50218W        W11672  33.042  27.183   0.945
50219W        W11673  23.660   2.463  12.883
50220W        W11674   6.784  41.812  10.619
50221W        W11675  31.433   7.248  10.465
50222W        W11676  36.866  42.954  11.082
50223W        W11677  36.577  19.190  13.002
50224W        W11678  35.428  10.309  14.768
50225W        W11679  31.591  43.497  14.283
50226W        W11680  32.609   4.259  11.035
50227W        W11681  38.395  19.694   1.216
50228W        W11682  13.179  29.589   2.702
50229W        W11683  38.943  38.486   5.184
50230W        W11684  23.116   8.354   3.853
50231W        W11685  32.915  18.105  14.499
50232W        W11686  23.089  21.069  13.033
50233W        W11687   0.837   9.285   0.853
50234W        W11688  15.580   4.351   0.824
50235W        W11689  17.558  18.694  14.402
50236W        W11690  16.260  35.358  10.452
50237W        W11691  31.470  27.967   4.663
50238W        W11692  28.155  22.026   1.361
50239W        W11693  16.138  28.054  14.975
50240W        W11694   5.400  23.159   4.721
50241W        W11695  29.168  24.523  14.402
50242W        W11696   7.764  26.650   0.323
50243W        W11697  17.596   4.204   0.285
50244W        W11698  21.711  21.732   2.328
50245W        W11699  27.991  24.545   2.403
50246W        W11700  23.517  31.455  14.323
50247W        W11701  30.061  17.587  13.027
50248W        W11702   0.429  17.768   4.597
50249W        W11703  23.177  36.979  13.969
50250W        W11704  13.604   5.341   1.438
50251W        W11705   9.681   8.667  12.388
50252W        W11706  19.548  12.664  11.920
50253W        W11707  41.854  30.514  10.917
50254W        W11708   2.293   0.966   0.300
50255W        W11709  26.956  19.276   4.337
50256W        W11710  44.825   4.820  10.898
50257W        W11711   7.417  15.110  12.515
50258W        W11712   2.423  44.899  10.561
50259W        W11713  11.242  30.560  13.020
50260W        W11714  27.662  31.102   2.792
50261W        W11715   1.969  33.456   3.692
50262W        W11716  22.636  19.066  12.014
50263W        W11717   1.372  23.039  11.481
50264W        W11718   4.375   8.295  11.075
50265W        W11719  27.606  26.976  11.916
50266W        W11720   1.360  33.427  13.544
50267W        W11721  41.830  42.025  10.441
50268W        W11722   4.259  24.159  12.992
50269W        W11723  25.645  34.991  12.074
50270W        W11724  37.896  23.048  11.085
50271W        W11725  13.676  20.615   4.270
50272W        W11726  30.020   9.163  13.836
50273W        W11727  44.982  20.225   4.771
50274W        W11728  30.542  13.600  11.926
50275W        W11729  30.152  33.072  12.575
50276W        W11730  28.981  13.343  12.461
50277W        W11731  41.948  25.102   0.890
50278W        W11732  34.047   7.402   0.912
50279W        W11733  38.875  42.918   2.700
50280W        W11734  18.605   8.705   1.294
50281W        W11735  13.324   1.875   0.965
50282W        W11736  29.493   4.720   1.887
50283W        W11737   6.376  10.821  10.041
50284W        W11738  22.602  41.942  10.556
50285W        W11739  35.447  44.483   2.716
50286W        W11740   4.379   8.863  13.839
50287W        W11741  27.009  26.667  10.645
50288W        W11742   9.840  33.920  13.043
50289W        W11743  26.671  37.042   4.145
50290W        W11744   5.244  12.204  12.827
50291W        W11745  31.409  31.018  12.498
50292W        W11746   9.825  22.019   0.350
50293W        W11747   4.402   1.790  11.912
50294W        W11748  16.144  42.971   5.104
50295W        W11749  22.673  40.812   0.871
50296W        W11750   8.846  17.758   0.940
50297W        W11751  26.652  16.230   4.759
50298W        W11752  28.644  40.347  13.020
50299W        W11753  37.577  18.765   0.900
50300W        W11754  10.731  27.035   1.875
50301W        W11755  18.739  29.566   3.632
50302W        W11756  18.754  31.607   2.761
50303W        W11757  36.917  39.997  12.420
50304W        W11758  18.109  28.128   2.852
50305W        W11759  32.574  21.086   2.817
50306W        W11760  10.679   8.326  13.457
50307W        W11761  34.542  10.233  12.851
50308W        W11762  17.598   4.258   2.350
50309W        W11763  26.686   2.332  10.976
50310W        W11764  32.128  38.071   1.423
50311W        W11765  39.335  23.595   4.292
50312W        W11766  28.944  19.268   2.285
50313W        W11767  40.969  28.640   3.230
50314W        W11768  34.993  29.656   4.320
50315W        W11769   6.782  38.346  14.997
50316W        W11770   4.859  10.632  13.038
50317W        W11771  37.036   2.438   0.733
50318W        W11772  13.348   0.951   3.382
50319W        W11773   6.356  23.613  12.003
50320W        W11774  36.428  44.913  11.609
50321W        W11775  31.548  25.574  12.467
50322W        W11776  26.666  15.595   0.460
50323W        W11777  12.738   3.749   0.883
50324W        W11778  14.691  12.789  10.040
50325W        W11779  15.710   3.955   2.871
50326W        W11780  26.130   4.917  14.015
50327W        W11781  32.605  19.148   3.764
50328W        W11782  12.305  12.652  14.351
50329W        W11783   6.363  32.561   2.342
50330W        W11784   6.334  36.071  12.493
50331W        W11785   6.327   9.710   2.738
50332W        W11786  23.231  27.153   2.702
50333W        W11787   6.862  35.915  10.603
50334W        W11788  21.758  34.881  10.153
50335W        W11789  12.356  43.333  12.535
50336W        W11790  42.355  10.794   1.416
50337W        W11791  24.691  23.510   0.289
50338W        W11792  15.770  11.202   4.794
50339W        W11793  10.868  27.523   0.308
50340W        W11794   0.787  34.900   2.181
50341W        W11795  22.669  15.645   4.218
50342W        W11796  21.739  29.625  12.894
50343W        W11797  35.888  40.337  11.978
50344W        W11798  18.627  22.047  10.486
50345W        W11799  22.575  18.744  11.565
50346W        W11800  14.316   4.225  11.898
50347W        W11801  36.473  11.691   0.909
50348W        W11802  32.577  28.623  14.986
50349W        W11803   1.293  19.255   3.156
50350W        W11804   5.296   3.812  13.052
50351W        W11805   9.251   7.730   3.194
50352W        W11806  37.489   6.274  14.508
50353W        W11807   5.289  35.878  14.312
50354W        W11808  25.495  27.568   0.392
50355W        W11809   5.244  38.874  13.942
50356W        W11810  34.495  44.432  10.487
50357W        W11811  18.588   7.710   0.263
50358W        W11812  12.346  12.162  12.464
50359W        W11813  41.948  32.442   2.271
50360W        W11814  13.319  15.633  14.943
50361W        W11815  27.969  16.177  11.971
50362W        W11816  18.702   8.825  13.987
50363W        W11817  13.688  31.958   3.367
50364W        W11818  15.733  42.961  14.516
50365W        W11819  24.062  15.235  14.958
50366W        W11820   3.285  24.110  12.547
50367W        W11821  18.724  11.697  13.025
50368W        W11822  24.567  30.978  10.515
50369W        W11823  33.059  21.692  12.872
50370W        W11824  44.484  15.693  13.440
50371W        W11825  11.207   7.783  10.938
50372W        W11826  17.800  38.442  10.532
50373W        W11827  22.221  16.107  12.440
50374W        W11828  18.680  12.780   2.870
50375W        W11829  14.696  21.103   3.640
50376W        W11830  15.325  13.658  14.779
50377W        W11831  38.870  15.815   3.725
50378W        W11832  40.043  26.489  13.402
50379W        W11833  21.094  16.689  14.316
50380W        W11834  13.772  19.731  13.314
50381W        W11835  41.801  15.803   2.777
50382W        W11836   8.356  23.533   1.766
50383W        W11837  21.209  19.154  11.984
50384W        W11838  13.336  23.495  12.840
50385W        W11839   7.808   2.881   1.903
50386W        W11840   4.444  17.792  11.449
50387W        W11841  14.255   1.760   0.427
50388W        W11842  35.969   2.801   1.907
50389W        W11843  21.072  39.375  13.406
50390W        W11844   5.841   6.290  14.971
50391W        W11845  34.522   4.881   3.349
50392W        W11846   4.747  33.126   4.757
50393W        W11847   1.808  11.658   2.396
50394W        W11848   7.403   4.389  12.975
50395W        W11849  20.735  19.779  11.124
50396W        W11850  27.552   7.334   1.885
50397W        W11851  13.775  33.409   4.142
50398W        W11852  12.769  29.975   1.298
50399W        W11853  40.992  17.759  11.492
50400W        W11854  38.549   1.806   3.669
50401W        W11855   1.319  44.319  12.403
50402W        W11856  22.028   7.721  14.877
50403W        W11857  22.571  23.716   1.359
50404W        W11858  19.710  42.883  12.472
50405W        W11859  34.942  34.495   4.247
50406W        W11860   4.410  33.417   2.851
50407W        W11861  24.673  43.383   0.880
50408W        W11862  29.549  27.069   1.711
50409W        W11863  30.417   8.372   1.879
50410W        W11864   2.758  40.404   4.293
50411W        W11865  11.813   3.812  13.875
50412W        W11866  44.473  23.107   4.191
50413W        W11867  26.468   1.326  13.359
50414W        W11868  24.568   4.710  10.518
50415W        W11869  40.853  21.164  11.038
50416W        W11870  31.491   5.301  14.319
50417W        W11871  44.920  28.086  12.058
50418W        W11872  11.182   5.893   2.774
50419W        W11873   9.201  11.364  14.966
50420W        W11874   8.348  40.953   4.290
50421W        W11875  15.740   4.768  10.942
50422W        W11876  39.050  41.861   4.792
50423W        W11877  13.129  28.028  14.924
50424W        W11878  14.636  16.635  13.512
50425W        W11879   7.315  38.833   0.819
50426W        W11880  41.951   0.945   0.464
50427W        W11881  39.517  10.871   4.769
50428W        W11882  10.822  18.052   1.695
50429W        W11883  19.716  26.186   4.760
50430W        W11884  22.694  28.434   4.790
50431W        W11885  31.954  12.636   4.784
50432W        W11886   2.728  38.458  14.935
50433W        W11887  39.554  37.087   0.421
50434W        W11888  34.118  14.218   2.417
50435W        W11889  31.102  37.520   3.243
50436W        W11890  41.789  21.210   3.870
50437W        W11891  44.308  18.779   3.638
50438W        W11892  10.812  35.364  14.287
50439W        W11893  40.054  36.040   4.156
50440W        W11894   3.265  39.450  13.901
50441W        W11895  24.501   2.408  10.931
50442W        W11896  16.730  34.493   2.672
50443W        W11897  42.379  10.664   1.737
50444W        W11898  16.254  43.819  14.376
50445W        W11899  25.489  31.566   0.741
50446W        W11900  14.740  25.054  14.948
50447W        W11901   9.261   2.324   1.737
50448W        W11902  41.858  29.029  11.994
50449W        W11903  14.216  34.597   4.135
50450W        W11904  30.098  26.562   1.282
50451W        W11905  28.048   7.681   3.225
50452W        W11906  33.915   6.250   3.854
50453W        W11907  37.029  36.404  12.521
50454W        W11908  18.218  40.944  14.790
50455W        W11909  19.250  21.517  12.879
50456W        W11910  36.959  33.073   2.366
50457W        W11911  17.188  23.120  12.355
50458W        W11912  41.853   9.158   2.688
50459W        W11913  14.591   4.782   2.703
50460W        W11914  34.869   2.303   0.368
50461W        W11915   2.725  19.212   0.282
50462W        W11916  25.136   7.671   1.257
50463W        W11917  19.720  31.932   4.711
50464W        W11918   3.768   9.873  11.042
50465W        W11919  29.068   7.831   2.726
50466W        W11920  18.188   5.398  11.994
50467W        W11921  16.590   5.855   2.325
50468W        W11922  14.741  13.700   0.348
50469W        W11923  29.430  37.869   3.261
50470W        W11924   1.398   5.850   1.219
50471W        W11925   8.874  11.214  12.065
50472W        W11926   8.759   8.849   0.403
50473W        W11927  24.210  21.142  12.009
50474W        W11928   4.273  33.980   0.440
50475W        W11929   9.323  10.697  13.471
50476W        W11930  14.140  33.539  14.938
50477W        W11931   3.813   1.857  10.919
50478W        W11932  30.483  19.769  14.789
50479W        W11933  20.617  40.452  10.644
50480W        W11934   2.926  21.609   3.244
50481W        W11935  22.539  16.765   3.205
50482W        W11936  13.210  38.020  13.816
50483W        W11937  15.645   2.406  14.915
50484W        W11938  35.888  19.764   2.856
50485W        W11939  15.174  33.982   0.838
50486W        W11940   9.852  41.401  14.873
50487W        W11941  26.471  43.386   1.735
50488W        W11942   7.910  34.942  13.428
50489W        W11943   9.739  19.198   3.249
50490W        W11944  26.691  16.634  11.543
50491W        W11945  36.858  22.009  11.547
50492W        W11946  37.038  11.693  14.888
50493W        W11947  28.134  30.031   2.691
50494W        W11948  13.146  24.124   3.208
50495W        W11949  33.622  19.250   0.271
50496W        W11950   7.354  31.912   3.831
50497W        W11951  40.406  13.249  13.393
50498W        W11952  12.176  31.608  10.978
50499W        W11953  41.905   1.770  13.036
50500W        W11954  14.178  16.150  13.539
50501W        W11955  13.785  39.837   2.203
50502W        W11956  35.554   1.819  12.823
50503W        W11957   7.343   5.777   4.345
50504W        W11958  19.684  20.239  14.853
50505W        W11959  36.431  33.429  11.864
50506W        W11960  18.627  23.678   1.700
50507W        W11961  30.632  28.585   1.740
50508W        W11962  29.166  43.951   4.284
50509W        W11963  20.639   3.790   1.276
50510W        W11964  24.621   8.224  11.570
50511W        W11965   5.860  13.258   4.779
50512W        W11966  41.975  15.725   1.697
50513W        W11967  14.661  25.596   2.186
50514W        W11968   9.716   1.256   2.388
50515W        W11969  42.396  17.209   4.661
50516W        W11970  10.379  16.206   3.805
50517W        W11971   3.265  41.328  12.025
50518W        W11972   4.400   0.796  12.845
50519W        W11973   6.358   6.366   4.143
50520W        W11974  42.862  16.288  10.442
50521W        W11975  42.363   0.348  10.930
50522W        W11976  35.357  26.067   2.303
50523W        W11977  36.903  23.593   4.256
50524W        W11978  11.765  43.002  13.838
50525W        W11979  19.173  11.664  12.024
50526W        W11980  31.482   7.358  14.764
50527W        W11981   7.701  40.393  14.314
50528W        W11982  26.961  33.055  12.456
50529W        W11983  36.990  35.089   3.689
50530W        W11984  35.063  25.032  11.568
50531W        W11985  23.553  41.940   3.730
50532W        W11986  23.543  32.936  11.942
50533W        W11987  36.950   2.753  13.413
50534W        W11988  12.732  28.938   2.408
50535W        W11989  39.819  37.990  13.944
50536W        W11990  35.993  39.884  11.990
50537W        W11991  10.325  30.423   3.278
50538W        W11992  18.561  37.484  14.321
50539W        W11993  29.034   2.356  12.532
50540W        W11994  32.539  18.074  12.847
50541W        W11995   2.311  36.869  14.386
50542W        W11996   6.916   6.750   3.155
50543W        W11997   0.448  25.090  11.385
50544W        W11998  43.482   7.808  11.953
50545W        W11999  26.051  44.775  11.390
50546W        W12000  28.080  31.606   4.263
50547W        W12001  34.401  44.398   0.927
50548W        W12002   3.226  21.643  12.972
50549W        W12003  24.648  44.771  13.446
50550W        W12004  28.631  28.599  12.925
50551W        W12005  31.424   3.335  10.977
50552W        W12006  28.015  10.152  10.580
50553W        W12007  16.133   4.364  11.583
50554W        W12008  18.600  13.318  14.438
50555W        W12009   1.824  25.022   0.426
50556W        W12010  16.121  16.140  14.878
50557W        W12011  21.757  26.205   4.664
50558W        W12012  43.376   1.376  14.436
50559W        W12013  33.036   8.824  10.009
50560W        W12014  35.489   7.257   2.692
50561W        W12015   9.193  32.974  12.385
50562W        W12016  39.492  14.648   3.823
50563W        W12017  27.601  33.917  14.336
50564W        W12018   1.796  29.509   0.331
50565W        W12019   2.448  44.861  12.448
50566W        W12020  10.837  42.432  12.382
50567W        W12021  29.511  19.671   4.687
50568W        W12022  15.163  16.244   2.188
50569W        W12023  16.618  36.841   2.348
50570W        W12024  13.166  27.465  14.369
50571W        W12025   9.813  24.214  12.956
50572W        W12026  33.025  31.456   0.423
50573W        W12027  17.569   3.812  11.945
50574W        W12028  32.428  23.535  13.439
50575W        W12029  11.302  22.082  14.297
50576W        W12030   3.773  38.902   4.728
50577W        W12031  44.771  44.431   3.691
50578W        W12032  29.028   7.207   4.312
50579W        W12033  29.146  29.948  11.485
50580W        W12034  42.818  12.729   1.368
50581W        W12035   8.380   2.309  12.923
50582W        W12036  10.675  13.185  14.295
50583W        W12037  25.133  11.160  11.966
50584W        W12038   1.423  21.056  13.035
50585W        W12039  11.209   0.454   0.292
50586W        W12040  31.524  33.975  11.592
50587W        W12041  33.494  16.618   3.809
50588W        W12042  15.666   2.724  14.290
50589W        W12043   8.769   5.225   2.283
50590W        W12044  30.108  40.370  11.103
50591W        W12045  22.177  23.664  11.025
50592W        W12046   2.933  16.299   4.218
50593W        W12047  28.534   4.357   3.361
50594W        W12048  34.519  32.998  11.901
50595W        W12049  33.096  33.880   3.821
50596W        W12050  22.525   3.334   5.103
50597W        W12051  31.054  43.448  13.798
50598W        W12052  37.931   6.923  14.815
50599W        W12053  26.680   2.452   4.317
50600W        W12054  19.276  20.040   0.958
50601W        W12055   7.413   7.365  14.297
50602W        W12056  31.457  30.064   0.481
50603W        W12057  15.732  24.586   4.287
50604W        W12058  23.715  25.541   2.756
50605W        W12059   5.800  15.236  10.473
50606W        W12060   1.313  12.119  11.991
50607W        W12061   8.817  16.136  14.300
50608W        W12062  40.392  24.697   3.147
50609W        W12063  41.523   5.398   3.368
50610W        W12064  29.440   0.380  10.987
50611W        W12065  29.482   5.889   0.773
50612W        W12066  28.600   3.941  12.875
50613W        W12067  33.050  12.158  13.042
50614W        W12068  15.194  27.000   2.345
50615W        W12069  12.673  12.301  13.983
50616W        W12070  31.414  27.634   3.723
50617W        W12071   0.440   8.397   3.280
50618W        W12072  19.145  30.075  11.980
50619W        W12073  17.736   3.235   3.356
50620W        W12074   0.413  32.030  10.596
50621W        W12075   2.226  30.048   1.835
50622W        W12076  13.765  16.714  12.936
50623W        W12077  18.700  11.286   9.954
50624W        W12078  34.104  29.131  11.937
50625W        W12079  10.648  34.385  11.861
50626W        W12080  21.026  11.689   1.310
50627W        W12081  43.792   8.779   3.707
50628W        W12082   3.233   4.304  12.080
50629W        W12083  16.106  23.574   0.362
50630W        W12084  20.568  38.020  11.431
50631W        W12085  14.221  10.154  12.499
50632W        W12086  26.542   4.390  11.870
50633W        W12087  31.528  29.648  14.021
50634W        W12088  18.732  25.114  11.422
50635W        W12089  28.147  38.498   1.234
50636W        W12090   9.805  43.422  12.491
50637W        W12091  42.420  24.150  14.864
50638W        W12092   0.765  15.161   0.260
50639W        W12093  34.516   0.255  13.969
50640W        W12094   3.294   6.387   4.217
50641W        W12095  41.310  36.564  11.017
50642W        W12096   5.862  35.976   3.790
50643W        W12097  15.286  21.251  13.836
50644W        W12098  23.584  11.325  14.890
50645W        W12099  24.567  22.538  13.857
50646W        W12100   1.289   7.768  13.362
50647W        W12101  26.658  27.119   3.183
50648W        W12102  38.977   8.160  10.918
50649W        W12103   8.753  36.042   0.446
50650W        W12104  39.898  21.656  10.577
50651W        W12105  29.933  13.846   3.295
50652W        W12106  32.488  38.892   4.767
50653W        W12107  22.086  40.511  12.431
50654W        W12108  29.036  30.969  14.770
50655W        W12109  44.357  15.232  14.393
50656W        W12110   5.862  44.451   0.257
50657W        W12111  22.502   6.284   2.769
50658W        W12112  23.054  34.975  14.370
50659W        W12113  24.989  33.988  11.478
50660W        W12114  17.261  25.479   4.301
50661W        W12115   2.266  22.242   1.212
50662W        W12116  30.421  10.220   3.815
50663W        W12117  40.838  25.699  14.500
50664W        W12118  27.670  40.403  10.449
50665W        W12119  18.077  33.383  10.953
50666W        W12120  42.903  39.390  14.381
50667W        W12121  18.571  37.876  13.539
50668W        W12122   7.831   6.889   2.294
50669W        W12123  31.531  40.904  11.858
50670W        W12124   4.348  34.916  13.533
50671W        W12125   5.232  24.099   3.710
50672W        W12126  19.670  15.101  13.307
50673W        W12127  32.130  14.208  14.412
50674W        W12128  23.618  26.085   3.750
50675W        W12129  26.672  42.001  11.525
50676W        W12130  41.878  13.664  14.016
50677W        W12131   2.877  10.788   0.878
50678W        W12132  28.113  34.524   1.824
50679W        W12133  20.070   5.283  11.458
50680W        W12134  41.866   0.328   1.444
50681W        W12135  15.128  14.829   0.298
50682W        W12136  28.111  44.804   0.921
50683W        W12137   4.278  11.350   4.649
50684W        W12138   5.792  13.792  13.410
50685W        W12139  28.929   2.369   0.377
50686W        W12140  44.379  25.996  14.324
50687W        W12141  41.470   8.198   1.743
50688W        W12142   3.824  18.616  10.948
50689W        W12143   2.785  20.052  10.409
50690W        W12144  43.343   1.365   2.765
50691W        W12145   3.403  25.214   0.902
50692W        W12146  40.508   5.919  13.904
50693W        W12147  26.614  35.956   0.859
50694W        W12148  14.273  25.983  13.354
50695W        W12149   7.718   5.304  12.573
50696W        W12150   7.735  31.941  14.898
50697W        W12151   2.796  22.096   3.858
50698W        W12152   0.852  44.870  10.615
50699W        W12153  34.911  18.654   3.740
50700W        W12154  15.217  14.598  14.882
50701W        W12155   8.193   4.291  12.541
50702W        W12156  17.594   2.931  14.382
50703W        W12157  25.167  15.305   1.930
50704W        W12158  44.856  21.199  10.899
50705W        W12159  12.705  19.141  13.524
50706W        W12160  43.493  35.910   4.214
50707W        W12161   3.248  24.063  13.987
50708W        W12162  10.359  43.294  13.902
50709W        W12163  31.066  39.854   3.716
50710W        W12164  44.855  33.125   1.344
50711W        W12165  16.802  32.569   2.726
50712W        W12166   1.384  44.868  11.374
50713W        W12167   8.816  19.637   5.167
50714W        W12168   7.903  31.049  10.968
50715W        W12169  22.544   7.253   2.673
50716W        W12170  15.639  11.195  13.002
50717W        W12171   0.777   8.242   3.658
50718W        W12172  39.439  27.502  11.027
50719W        W12173  10.170  25.099   1.779
50720W        W12174  25.969  41.798   1.303
50721W        W12175  20.576  21.052  10.417
50722W        W12176   1.429  18.205  13.370
50723W        W12177   0.900  32.909  14.450
50724W        W12178   6.716  44.824  14.944
50725W        W12179  28.022   2.854  14.458
50726W        W12180  20.071  14.094   3.321
50727W        W12181  18.277  22.725  12.580
50728W        W12182  28.157  29.495   1.427
50729W        W12183   0.398  44.883   4.245
50730W        W12184  30.531  31.511  13.403
50731W        W12185   5.406  37.881   1.384
50732W        W12186  33.131  22.709  10.633
50733W        W12187  19.759  33.934  11.085
50734W        W12188   5.753  43.352  13.888
50735W        W12189  40.034  31.522  10.507
50736W        W12190   6.835  30.468   1.370
50737W        W12191  44.501  23.045  12.421
50738W        W12192   7.665  12.231   4.140
50739W        W12193   6.262   2.383  13.952
50740W        W12194   5.329  19.730  13.845
50741W        W12195   2.750  42.927   1.228
50742W        W12196  13.206  30.911   1.215
50743W        W12197  15.599  13.747   1.388
50744W        W12198  39.483   5.408  13.355
50745W        W12199  16.138  44.962   4.288
50746W        W12200  29.614  35.894  11.609
50747W        W12201  39.998   4.815  13.956
50748W        W12202   9.381  36.972   0.934
50749W        W12203  25.016  21.618   2.318
50750W        W12204  43.918  30.032   1.365
50751W        W12205   9.319  19.071  13.493
50752W        W12206  32.069   5.411   0.468
50753W        W12207  33.387  29.169  11.575
50754W        W12208  41.494  10.672  14.016
50755W        W12209  42.826  32.991   0.824
50756W        W12210  44.863   6.782  14.006
50757W        W12211   1.940  22.686  11.430
50758W        W12212  21.166   6.270  12.515
50759W        W12213  12.733  27.945   5.230
50760W        W12214  10.666  39.398   4.327
50761W        W12215  24.101  15.218  13.813
50762W        W12216  41.035  37.003   0.360
50763W        W12217   2.415   6.188  13.998
50764W        W12218  12.309  33.561   3.721
50765W        W12219  31.925  10.217  12.420
50766W        W12220  29.034  33.937  11.481
50767W        W12221   4.376  16.106   1.928
50768W        W12222  17.743  39.814  14.281
50769W        W12223  37.997   6.814  12.911
50770W        W12224   9.247  25.573  12.089
50771W        W12225   4.799  23.506  10.565
50772W        W12226  33.976   8.658  14.408
50773W        W12227  19.074  20.115  11.061
50774W        W12228  35.053  36.901  13.357
50775W        W12229   5.807  25.006   0.411
50776W        W12230  15.619  34.899   4.291
50777W        W12231  32.554  42.955   1.850
50778W        W12232  24.217  12.353   0.839
50779W        W12233   6.739  23.493   2.276
50780W        W12234   0.898   0.291  12.563
50781W        W12235  21.261  28.484   2.811
50782W        W12236  18.629  16.149   0.840
50783W        W12237   0.403  16.636  14.443
50784W        W12238  36.936  39.398   9.603
50785W        W12239  22.746   6.285  12.358
50786W        W12240  26.121  32.586  10.461
50787W        W12241   8.770  25.700   4.711
50788W        W12242  39.037   0.915   1.837
50789W        W12243  14.122  44.001   3.369
50790W        W12244  13.784  10.328   1.244
50791W        W12245   9.833  33.008  14.010
50792W        W12246   9.720  18.778   0.370
50793W        W12247  10.367  38.890   0.746
50794W        W12248  41.992  22.061   4.750
50795W        W12249  24.170  41.948   4.823
50796W        W12250  21.226  44.878  14.808
50797W        W12251   4.422  34.881  11.547
50798W        W12252  36.844  33.520  12.988
50799W        W12253  44.889  17.648   2.288
50800W        W12254  18.277   8.360  14.487
50801W        W12255  21.200  43.908  10.627
50802W        W12256  43.427  37.461  12.404
50803W        W12257  37.491  14.772   1.864
50804W        W12258  31.625  35.073  11.889
50805W        W12259  11.766  35.907  10.890
50806W        W12260   7.678   0.798  13.914
50807W        W12261  44.897  15.712   4.771
50808W        W12262  15.637  37.061   4.280
50809W        W12263  42.906   1.254   4.145
50810W        W12264  29.968  31.478  14.384
50811W        W12265  41.808  18.227   1.862
50812W        W12266  28.660  15.133  12.868
50813W        W12267  37.356  13.155  14.331
50814W        W12268  21.144  34.035  14.801
50815W        W12269  14.225  42.358   4.754
50816W        W12270  27.941   8.769   4.802
50817W        W12271  23.582  41.397   1.794
50818W        W12272  20.258  25.072   4.274
50819W        W12273  39.011  37.083  14.914
50820W        W12274   3.760  30.000  14.279
50821W        W12275  31.086  32.904   3.263
50822W        W12276   6.821  42.012   3.866
50823W        W12277   7.748   2.442   5.222
50824W        W12278  38.429  36.385   1.825
50825W        W12279  26.541  37.024  14.381
50826W        W12280  26.666  33.589  12.999
50827W        W12281   2.882  18.144   0.286
50828W        W12282  27.071   7.708  10.948
50829W        W12283   0.958  25.696  11.450
50830W        W12284  36.388  39.385  14.430
50831W        W12285  41.377   4.342   1.890
50832W        W12286  32.618  43.793  13.877
50833W        W12287  26.586  24.724  10.493
50834W        W12288  40.316  37.971   4.825
50835W        W12289  16.190   3.725  11.084
50836W        W12290  31.998  32.969  11.473
50837W        W12291  22.223   1.366  14.991
50838W        W12292  37.526  31.043   4.354
50839W        W12293  20.534  13.653   2.851
50840W        W12294  36.398   6.330   4.118
50841W        W12295  12.217  21.088  11.589
50842W        W12296  11.313  34.390   1.879
50843W        W12297  14.589   8.812  14.912
50844W        W12298  12.655  23.173   2.208
50845W        W12299   5.878  16.132  13.980
50846W        W12300  18.285  38.437  13.320
50847W        W12301  42.507  26.144   2.852
50848W        W12302  13.735  33.062  13.893
50849W        W12303  30.007  27.150   2.767
50850W        W12304   9.689  38.968   4.673
50851W        W12305  30.475  19.577   0.269
50852W        W12306  16.644  32.024  14.436
50853W        W12307  12.816  14.149   0.256
50854W        W12308   1.401  23.014   1.218
50855W        W12309   2.777  13.615  11.544
50856W        W12310  43.426   3.950  12.449
50857W        W12311   3.733   7.694  11.522
50858W        W12312  33.923  38.553  14.918
50859W        W12313  14.103  43.839   2.705
50860W        W12314  36.892  36.946  14.387
50861W        W12315  23.724  34.895   3.683
50862W        W12316  31.114  29.108   4.745
50863W        W12317  22.105  27.012  14.808
50864W        W12318  35.976  25.100   3.788
50865W        W12319  40.480  24.507  13.415
50866W        W12320  21.154  31.631   0.443
50867W        W12321  17.088   1.953   0.392
50868W        W12322  30.565  15.087  13.053
50869W        W12323   2.265  15.616  12.979
50870W        W12324  28.479  43.365   4.793
50871W        W12325   9.720  29.477   2.830
50872W        W12326  28.959  36.554  11.518
50873W        W12327  13.672   6.420   4.613
50874W        W12328  16.275  23.663  11.467
50875W        W12329  37.858  33.978   1.765
50876W        W12330  35.990   3.884   5.162
50877W        W12331  33.456  35.446  13.062
50878W        W12332  39.493   8.678  11.446
50879W        W12333  16.695   7.185   1.390
50880W        W12334  41.854  12.193  14.783
50881W        W12335  41.414  18.202  14.842
50882W        W12336  19.624  23.656   2.808
50883W        W12337  33.941  43.434  13.046
50884W        W12338  24.115  15.794   4.809
50885W        W12339  28.612  41.373   2.348
50886W        W12340  11.699  40.392  10.087
50887W        W12341   4.732  14.338  13.875
50888W        W12342  28.652  28.028   1.902
50889W        W12343  37.833   3.234  14.386
50890W        W12344   5.401  14.773   3.786
50891W        W12345  41.411  23.201  10.513
50892W        W12346  22.079   0.843   1.307
50893W        W12347   8.843  39.422  11.047
50894W        W12348  10.197  24.561   4.785
50895W        W12349  20.618  31.525  13.434
50896W        W12350   4.312  35.399   2.302
50897W        W12351  24.479  38.518   0.943
50898W        W12352   8.726  19.613   4.234
50899W        W12353  22.210  40.022  11.611
50900W        W12354   1.873  32.100   3.249
50901W        W12355   9.852  37.347  10.541
50902W        W12356  31.050   3.458   0.391
50903W        W12357  41.811  28.125  14.776
50904W        W12358  35.515  33.048  12.018
50905W        W12359  32.053   9.853  11.568
50906W        W12360   1.312  44.833   2.357
50907W        W12361  44.259   7.347  11.990
50908W        W12362  21.750  17.273  12.439
50909W        W12363  14.147   8.214   3.161
50910W        W12364  43.917  42.419  13.810
50911W        W12365  40.875  11.157   0.891
50912W        W12366   9.751   8.253  11.047
50913W        W12367  25.701  13.844   3.322
50914W        W12368   7.750   9.748  12.040
50915W        W12369   0.978  25.689   2.286
50916W        W12370   8.300  24.529   4.630
50917W        W12371  30.945  27.468   2.778
50918W        W12372  27.185  22.031   1.400
50919W        W12373  20.118  31.039  10.594
50920W        W12374  38.037  31.547   4.238
50921W        W12375  36.039  14.173  12.889
50922W        W12376  11.670   4.267  11.121
50923W        W12377  23.237  43.966   4.242
50924W        W12378  25.033  39.840  11.021
50925W        W12379  25.090   8.820  10.565
50926W        W12380  25.167  31.647  13.015
50927W        W12381  11.658  17.117   0.754
50928W        W12382  17.099  27.531  13.828
50929W        W12383  32.999  15.795   2.701
50930W        W12384  28.075   9.355  11.099
50931W        W12385  22.207  17.724   4.344
50932W        W12386  44.948  20.267  13.427
50933W        W12387  20.541  39.366  12.563
50934W        W12388   8.264  34.099  14.511
50935W        W12389   3.871  38.517  13.447
50936W        W12390  20.249  24.656  10.930
50937W        W12391  35.407  38.497  11.002
50938W        W12392  21.067  36.573   2.865
50939W        W12393  40.393  16.590  13.005
50940W        W12394  20.768  38.894   4.311
50941W        W12395  31.492  39.967   4.629
50942W        W12396  40.889  18.717   3.727
50943W        W12397  26.014  24.159   1.412
50944W        W12398   1.347  38.351  12.576
50945W        W12399  40.381  22.584   4.683
50946W        W12400  19.244  42.888   4.300
50947W        W12401  15.804  31.638  14.283
50948W        W12402  26.116  38.371   3.754
50949W        W12403  18.207  16.643  12.511
50950W        W12404  25.599  32.929   0.364
50951W        W12405  18.712  25.044  10.567
50952W        W12406  37.880  32.545   4.816
50953W        W12407  34.398   5.819   3.189
50954W        W12408  43.987  12.720   0.437
50955W        W12409  25.095  15.179  11.895
50956W        W12410   1.791  22.008   1.916
50957W        W12411   8.347  20.036  14.872
50958W        W12412  32.912   9.824   0.388
50959W        W12413  15.795  44.444   0.430
50960W        W12414  15.712  29.432   2.405
50961W        W12415   1.851   3.417  14.288
50962W        W12416   4.882  20.255  11.097
50963W        W12417  19.044  33.561  14.333
50964W        W12418  40.042   1.942  11.561
50965W        W12419  41.346  19.113  14.882
50966W        W12420  10.212  31.475   0.885
50967W        W12421  39.360  20.260  11.393
50968W        W12422  26.992   2.312  10.935
50969W        W12423  26.572  31.045  13.336
50970W        W12424  13.120  14.192   0.914
50971W        W12425  34.492  26.459  10.902
50972W        W12426  19.651  43.858  14.448
50973W        W12427  39.521  12.173   0.473
50974W        W12428  27.095   2.429   2.409
50975W        W12429  21.104  18.126  13.535
50976W        W12430  32.618  21.106   1.929
50977W        W12431  41.947  12.219   1.322
50978W        W12432   8.656   6.307  11.935
50979W        W12433  41.012  28.023  11.525
50980W        W12434  19.215  31.534   1.920
50981W        W12435  14.811  43.862  14.889
50982W        W12436  17.671   5.231  12.855
50983W        W12437   0.462  15.125   0.407
50984W        W12438  23.672  33.395   0.425
50985W        W12439  36.548  18.260  10.472
50986W        W12440  39.061  42.970   0.942
50987W        W12441  30.079   0.384  10.450
50988W        W12442  23.714  21.585   1.272
50989W        W12443   1.296   9.767   0.819
50990W        W12444  13.128  27.010  14.014
50991W        W12445  24.630  19.214   4.263
50992W        W12446  17.599  27.519   1.343
50993W        W12447  25.107  28.133  14.297
50994W        W12448  34.921  26.125   3.833
50995W        W12449  13.699  15.127  14.502
50996W        W12450  23.170  18.140  11.385
50997W        W12451   0.402  20.243  11.554
50998W        W12452  18.198  26.610  11.914
50999W        W12453  19.731  29.992   3.862
51000W        W12454   4.218  16.636   4.253
51001W        W12455  25.038  33.413  10.974
51002W        W12456   0.984  12.709   3.855
51003W        W12457   2.784  33.499   0.933
51004W        W12458  20.560  19.556  14.346
51005W        W12459   7.805  14.252   3.641
51006W        W12460  10.383  36.896  12.510
51007W        W12461  30.991   1.812  13.491
51008W        W12462  42.467   3.750   0.810
51009W        W12463  12.193  34.501  14.374
51010W        W12464  13.639  41.401  13.462
51011W        W12465  29.031   8.869   3.306
51012W        W12466   9.232  13.615   2.245
51013W        W12467  29.480   3.323   3.721
51014W        W12468  37.067  14.157  11.952
51015W        W12469  34.964  16.647  11.611
51016W        W12470  12.691  35.096  13.535
51017W        W12471  27.086  19.095   4.760
51018W        W12472  32.635  33.972   3.294
51019W        W12473  24.991   6.428  14.945
51020W        W12474  18.072   3.822   4.335
51021W        W12475  41.888  42.454  10.613
51022W        W12476  18.111  20.130  13.962
51023W        W12477  26.971  43.959  10.909
51024W        W12478  13.282  10.311  14.460
51025W        W12479  44.473   2.268  14.293
51026W        W12480  12.722   6.301   2.793
51027W        W12481  10.813  44.419  13.867
51028W        W12482  27.135  17.730   2.194
51029W        W12483  42.393  34.440  10.986
51030W        W12484  17.179  43.802  14.936
51031W        W12485  13.789   9.333   4.833
51032W        W12486  38.830   1.297  13.409
51033W        W12487  15.186  20.243   5.776
51034W        W12488  35.084  29.618   0.853
51035W        W12489  24.148  25.619  10.991
51036W        W12490  37.577   0.416   1.759
51037W        W12491  15.301  38.523  14.364
51038W        W12492  43.022  25.519  12.518
51039W        W12493  41.805  21.215   3.203
51040W        W12494  22.042  39.361  12.946
51041W        W12495   7.674  44.375   0.465
51042W        W12496  28.611  12.335  14.306
51043W        W12497  23.127  26.007   3.293
51044W        W12498  16.637  24.977  14.406
51045W        W12499  19.712  42.792  10.544
51046W        W12500  20.252  12.787  12.501
51047W        W12501  36.396  28.997  14.992
51048W        W12502  20.077  20.627  11.595
51049W        W12503   3.400  20.555  10.130
51050W        W12504  15.116  36.573   4.704
51051W        W12505  36.886  22.687   3.838
51052W        W12506  30.910   2.809   3.157
51053W        W12507  15.606  23.513   1.740
51054W        W12508  11.810  24.113  14.360
51055W        W12509  27.035  19.710  11.889
51056W        W12510  30.506  14.334  14.459
51057W        W12511  16.140  13.817  13.483
51058W        W12512   3.852  23.235  10.919
51059W        W12513   3.408   3.793   4.159
51060W        W12514  27.584  31.429  13.849
51061W        W12515   0.833   3.287  10.426
51062W        W12516  10.703  35.460   1.730
51063W        W12517  11.309  22.741  12.972
51064W        W12518  39.917   1.444   0.753
51065W        W12519  32.421  19.104   2.765
51066W        W12520  18.264  22.526  11.023
51067W        W12521   1.819   6.795  12.495
51068W        W12522  30.058  35.932   1.332
51069W        W12523  18.655  40.854  13.799
51070W        W12524   2.347  12.719  12.840
51071W        W12525  36.085   7.727  10.612
51072W        W12526  12.332   5.895   4.768
51073W        W12527  22.597   5.892  10.969
51074W        W12528  29.999  28.519   3.369
51075W        W12529   7.696  25.625  10.542
51076W        W12530  12.783  25.680   4.165
51077W        W12531   1.381  34.553   1.780
51078W        W12532  18.235  37.921  13.042
51079W        W12533  41.855  41.519  10.543
51080W        W12534  26.526  25.592  10.975
51081W        W12535  22.133   9.389   2.733
51082W        W12536  25.158  12.335  14.802
51083W        W12537  13.139   5.240   3.630
51084W        W12538   7.406  12.795  14.301
51085W        W12539  23.541  25.176  12.951
51086W        W12540  23.612  29.541  13.374
51087W        W12541   1.951   4.713   2.249
51088W        W12542  19.701  13.653  12.558
51089W        W12543   5.249  22.137  13.407
51090W        W12544  21.061  21.104  14.360
51091W        W12545   6.831  40.510  10.487
51092W        W12546  27.191  20.539  12.417
51093W        W12547   3.282  14.156  14.313
51094W        W12548  16.080  27.971  12.087
51095W        W12549  23.712  32.598   3.272
51096W        W12550  42.945  11.627   4.176
51097W        W12551  20.613   9.871   0.313
51098W        W12552   7.768  27.992  11.048
51099W        W12553   4.838  15.230   3.675
51100W        W12554  16.114  14.825  10.504
51101W        W12555  36.355  38.875  13.519
51102W        W12556  16.717  36.046  13.011
51103W        W12557   6.204  23.529  13.431
51104W        W12558  24.226  29.980   0.461
51105W        W12559  15.744  42.302  12.530
51106W        W12560   8.705  12.813  13.475
51107W        W12561  29.944  26.497   2.297
51108W        W12562  38.453  39.860   0.901
51109W        W12563   1.463  17.135  10.896
51110W        W12564  17.775  13.209   3.270
51111W        W12565  41.319  43.909  12.477
51112W        W12566  16.145   2.802  12.357
51113W        W12567  11.778  32.500   4.353
51114W        W12568  25.162  17.672  14.859
51115W        W12569  36.844  26.662   3.304
51116W        W12570  12.775   6.859   3.755
51117W        W12571  19.638  11.132  10.925
51118W        W12572  15.251  39.034  14.842
51119W        W12573   9.292   0.276   3.832
51120W        W12574  22.514  33.394  10.579
51121W        W12575  10.232  18.096  12.530
51122W        W12576  32.502  16.711  10.593
51123W        W12577  14.834  19.186   4.286
51124W        W12578  39.972  20.053  14.852
51125W        W12579  40.523  26.542   2.739
51126W        W12580  10.349  29.940  10.968
51127W        W12581  29.932  30.154  14.818
51128W        W12582  22.104  28.964   0.286
51129W        W12583   1.482  14.634  11.562
51130W        W12584   9.829  41.885  14.461
51131W        W12585  41.308  11.251   3.839
51132W        W12586  41.812  15.188  14.279
51133W        W12587   1.811   1.379  14.417
51134W        W12588  34.905   0.950  13.910
51135W        W12589  14.603  25.170   4.181
51136W        W12590  26.523  35.444  10.979
51137W        W12591  33.383  34.489  12.865
51138W        W12592   2.370  43.788  10.951
51139W        W12593   9.344  31.140   1.423
51140W        W12594   5.220  35.050  12.438
51141W        W12595  14.817  33.127   1.819
51142W        W12596  28.536  25.704   9.440
51143W        W12597   1.846   7.705   4.160
51144W        W12598   8.304  37.883  13.960
51145W        W12599  29.040  41.989   0.967
51146W        W12600  38.525   3.938  14.330
51147W        W12601  20.249  10.808  10.452
51148W        W12602  13.311  14.238  13.326
51149W        W12603   0.255  16.178  11.004
51150W        W12604  15.708  27.487   1.394
51151W        W12605  35.446  29.079  10.472
51152W        W12606  21.528   8.865  14.372
51153W        W12607  43.964  27.182  11.488
51154W        W12608   8.809  22.721   3.246
51155W        W12609  39.380  27.157  11.895
51156W        W12610   8.260   5.297   4.803
51157W        W12611  25.684   6.909  14.026
51158W        W12612   1.865  44.374  12.054
51159W        W12613  10.841  16.159  12.394
51160W        W12614  25.090  29.132   1.310
51161W        W12615   6.861   5.281  13.373
51162W        W12616  20.662  24.664   2.206
51163W        W12617  24.716  15.712   0.281
51164W        W12618   0.985   6.184   4.273
51165W        W12619  40.002  44.843   4.812
51166W        W12620   4.826  41.811   0.892
51167W        W12621   2.901   2.430   2.856
51168W        W12622  11.190  31.097  14.864
51169W        W12623  26.489  32.899  14.339
51170W        W12624  25.985   3.236  14.020
51171W        W12625   2.241  14.681  11.607
51172W        W12626  18.055  10.668  11.518
51173W        W12627  28.979  39.053   3.209
51174W        W12628  19.763  36.549   3.725
51175W        W12629  30.955   7.823  13.496
51176W        W12630  38.983   3.883   1.886
51177W        W12631  35.881   2.432  13.362
51178W        W12632  19.706  31.040  13.978
51179W        W12633  36.062  15.162   1.728
51180W        W12634  14.177  38.862  12.903
51181W        W12635  18.106  29.442   1.303
51182W        W12636  11.348  27.027  11.870
51183W        W12637   4.719  18.057  12.028
51184W        W12638  37.433  12.801   3.274
51185W        W12639   5.897  43.981  11.893
51186W        W12640   2.404   2.897   0.375
51187W        W12641  31.018   9.786  12.507
51188W        W12642  15.223  44.973   0.966
51189W        W12643  14.097  31.992  11.495
51190W        W12644  24.505  26.206   0.249
51191W        W12645  11.341  26.090  12.021
51192W        W12646  30.003  33.611  12.910
51193W        W12647  20.608  19.260  14.763
51194W        W12648  41.424  38.360   1.744
51195W        W12649   6.292  37.873  10.487
51196W        W12650  33.605  18.075  14.906
51197W        W12651  12.672  15.691   4.201
51198W        W12652  24.175  36.093   2.796
51199W        W12653  39.993   7.785   3.187
51200W        W12654  42.882  38.038   3.277
51201W        W12655   7.805   8.655   3.754
51202W        W12656   5.289  38.492   2.264
51203W        W12657  36.945   5.381  14.966
51204W        W12658  27.630  36.941   9.481
51205W        W12659  32.586  19.182   3.366
51206W        W12660  32.507  38.021   3.208
51207W        W12661  25.710  43.878  13.528
51208W        W12662  14.246  25.034  10.968
51209W        W12663   9.323  10.784   0.470
51210W        W12664  15.150  38.331   1.893
51211W        W12665  14.146  37.564  11.920
51212W        W12666  27.106  39.343  14.336
51213W        W12667   8.310  27.135   0.929
51214W        W12668  21.242  26.693  10.427
51215W        W12669   0.911  18.610  13.794
51216W        W12670  28.961  25.681  11.398
51217W        W12671  26.661  23.156  12.855
51218W        W12672  30.491  22.734   1.716
51219W        W12673  33.616  24.623   0.437
51220W        W12674   0.968  21.648  11.461
51221W        W12675  35.587   2.255   4.164
51222W        W12676  35.469  33.457  14.008
51223W        W12677  28.112  41.023   3.828
51224W        W12678  15.803  24.115   0.949
51225W        W12679  24.552  21.104   1.352
51226W        W12680  31.114  27.956  13.837
51227W        W12681  15.274  17.707   4.218
51228W        W12682  19.709  43.939  10.512
51229W        W12683   9.295  33.051  14.447
51230W        W12684   7.741  31.497   2.384
51231W        W12685  23.996  40.993   1.349
51232W        W12686   4.318   7.724   2.415
51233W        W12687  36.932  22.148  11.981
51234W        W12688   4.913  16.316   1.911
51235W        W12689  21.515  32.925   3.738
51236W        W12690   8.703   9.829  12.436
51237W        W12691  41.882   0.977  12.454
51238W        W12692  44.505  11.347   2.375
51239W        W12693  18.135  33.402   0.914
51240W        W12694  29.426  27.116  14.784
51241W        W12695  40.495  33.432  12.379
51242W        W12696  40.960  39.039   2.306
51243W        W12697  44.499  29.976  12.954
51244W        W12698  38.420  23.209  11.470
51245W        W12699  28.933   4.723   0.795
51246W        W12700  35.095  23.213  13.307
51247W        W12701  37.412  23.995   0.365
51248W        W12702   7.349  38.512  13.347
51249W        W12703   5.347   5.849  10.439
51250W        W12704  27.464  33.953  14.981
51251W        W12705  34.521  30.090  14.811
51252W        W12706  33.875  10.707  10.948
51253W        W12707  13.105  38.054  13.307
51254W        W12708  26.021  31.416   2.324
51255W        W12709  24.152  36.500   4.252
51256W        W12710  44.782  24.029  13.955
51257W        W12711  20.536  23.727   0.787
51258W        W12712  32.610  10.758   4.795
51259W        W12713  24.057  22.542   1.898
51260W        W12714  17.709   7.778  14.814
51261W        W12715  39.816  14.588   3.829
51262W        W12716  38.048  40.857  12.506
51263W        W12717  41.906  20.689  14.868
51264W        W12718   1.339  41.035  11.022
51265W        W12719  36.064  14.119   2.225
51266W        W12720  19.157  14.624  12.064
51267W        W12721  15.093  25.993   1.444
51268W        W12722  25.519  32.025   0.937
51269W        W12723  17.145  42.779   4.169
51270W        W12724  37.953  30.158  13.395
51271W        W12725  32.610   0.813  14.760
51272W        W12726  20.548  20.139  13.902
51273W        W12727  42.382  41.474  10.594
51274W        W12728  36.588  30.501  12.514
51275W        W12729  42.363  34.904  14.445
51276W        W12730  42.022  36.876   2.188
51277W        W12731  10.822  15.824   4.635
51278W        W12732  34.070  22.516  13.967
51279W        W12733  33.065  36.092  12.455
51280W        W12734  24.209  18.779  13.802
51281W        W12735   5.851  35.373  14.982
51282W        W12736  10.749   6.856  14.018
51283W        W12737  11.661   3.370  13.357
51284W        W12738  25.688  33.882   3.785
51285W        W12739   4.274   6.781   4.610
51286W        W12740  32.479  26.111   1.899
51287W        W12741  14.678  26.099  12.465
51288W        W12742  27.685  24.601  13.906
51289W        W12743  35.573   4.860   3.228
51290W        W12744  34.008  43.821  11.024
51291W        W12745  35.052  15.579   3.378
51292W        W12746  22.680  14.281  14.944
51293W        W12747   0.922  32.996   2.207
51294W        W12748  11.132  18.749   2.883
51295W        W12749  26.559  21.690  11.923
51296W        W12750   8.350  19.712   0.458
51297W        W12751   5.212  32.477  11.598
51298W        W12752  30.550  29.057  12.548
51299W        W12753  13.308  12.792   4.635
51300W        W12754   8.381  32.503  12.944
51301W        W12755  42.458  35.468  13.500
51302W        W12756  21.592   9.318  11.126
51303W        W12757  35.051  18.696  12.511
51304W        W12758  12.702   1.891   4.808
51305W        W12759  30.959  37.895  13.834
51306W        W12760   8.253  34.518  10.919
51307W        W12761  38.980  38.365  12.391
51308W        W12762  11.283  29.127   0.249
51309W        W12763  43.016  38.941   5.308
51310W        W12764  22.120  28.476  12.355
51311W        W12765   0.479  42.901   3.841
51312W        W12766  42.828   1.380   0.330
51313W        W12767  37.503  32.905   3.719
51314W        W12768  19.681  39.842  12.078
51315W        W12769  20.700   7.865  12.529
51316W        W12770   1.240   4.828  10.614
51317W        W12771   9.194  24.063   1.857
51318W        W12772  18.595  38.446  11.597
51319W        W12773   7.873   9.835  10.458
51320W        W12774  14.661  29.603   0.853
51321W        W12775  25.992  23.037   5.724
51322W        W12776  30.470  34.613  13.395
51323W        W12777  29.085   3.834  14.400
51324W        W12778  15.670  22.507   4.202
51325W        W12779  36.397   2.368  14.279
51326W        W12780  28.042  16.595   4.793
51327W        W12781  32.038  10.154   0.425
51328W        W12782  37.380   7.235   4.794
51329W        W12783   6.785   1.465  14.313
51330W        W12784  15.669  39.927  11.012
51331W        W12785  22.245  10.859   0.374
51332W        W12786  43.362  27.123  14.816
51333W        W12787   5.218  25.054  14.369
51334W        W12788  35.424  44.825  11.541
51335W        W12789   7.195  33.420   2.417
51336W        W12790  37.405  42.821   0.921
51337W        W12791  44.971  10.742  12.494
51338W        W12792   8.878   8.869   5.182
51339W        W12793   2.891  26.159   1.763
51340W        W12794  17.596  33.925   2.229
51341W        W12795  32.563  21.757   3.688
51342W        W12796  20.121  10.713   3.700
51343W        W12797  18.759  29.959   0.906
51344W        W12798  13.199  12.317   2.709
51345W        W12799   2.853  27.050   3.367
51346W        W12800   1.816  17.088   1.290
51347W        W12801  23.696  22.176  11.409
51348W        W12802  36.583  24.214  10.587
51349W        W12803  43.422  28.455  12.838
51350W        W12804   8.236   2.361   0.757
51351W        W12805  44.952   7.313   2.404
51352W        W12806  37.995  39.365  12.445
51353W        W12807  30.496   5.812   2.725
51354W        W12808  20.274  21.592  14.026
51355W        W12809  36.962  13.696   3.827
51356W        W12810  32.603  30.940  10.405
51357W        W12811  24.649  14.153   3.790
51358W        W12812  38.856  22.658  12.063
51359W        W12813  13.646   2.941  12.933
51360W        W12814  17.292  31.021  14.924
51361W        W12815   7.209  39.364  10.583
51362W        W12816   5.369  21.048  12.384
51363W        W12817   8.290  26.696   3.163
51364W        W12818  30.046  41.812  10.488
51365W        W12819  37.978  26.681   1.882
51366W        W12820  21.717  12.683   3.671
51367W        W12821  14.155  24.011   4.694
51368W        W12822   6.902  21.712  13.812
51369W        W12823  32.056  19.172  10.945
51370W        W12824   9.872  27.956  12.578
51371W        W12825  40.415   4.423  13.321
51372W        W12826  21.522   3.445   4.726
51373W        W12827  28.069  42.282  13.357
51374W        W12828  18.135  40.509   4.691
51375W        W12829  29.468  27.970   2.783
51376W        W12830  30.014  20.188  13.064
51377W        W12831   0.446  25.564  11.943
51378W        W12832  43.428  29.105   3.205
51379W        W12833  17.566  42.823  13.818
51380W        W12834  36.493  19.096   0.753
51381W        W12835  44.828  38.473   3.358
51382W        W12836  39.865  31.961   1.228
51383W        W12837   6.684   0.786   3.313
51384W        W12838   9.814  19.181   5.794
51385W        W12839  29.590   9.308   3.784
51386W        W12840   3.458   8.275   3.329
51387W        W12841  22.579  39.360  14.364
51388W        W12842  10.853   4.332   0.245
51389W        W12843  15.612  18.587   4.770
51390W        W12844  19.647  23.727  11.599
51391W        W12845  26.196  42.917   4.601
51392W        W12846  23.200  36.385  10.940
51393W        W12847   9.382  16.268  11.415
51394W        W12848  29.043  39.492   2.282
51395W        W12849  32.898  11.727   1.918
51396W        W12850  11.300  17.654   1.251
51397W        W12851  41.293   7.842   3.329
51398W        W12852   9.679  31.430  11.515
51399W        W12853   7.857  40.481   3.738
51400W        W12854   2.798   0.795   2.196
51401W        W12855  17.135  25.998   3.279
51402W        W12856  23.133  44.287  11.515
51403W        W12857   5.739  32.627  13.476
51404W        W12858  16.096  37.529  11.036
51405W        W12859  24.023  36.043  14.903
51406W        W12860  17.124   6.235   4.354
51407W        W12861  41.477  17.288   0.910
51408W        W12862  10.147  32.078   0.334
51409W        W12863  40.805  43.426   2.336
51410W        W12864  20.678   8.377  13.038
51411W        W12865  34.388  39.890  11.014
51412W        W12866  44.310  33.417  13.060
51413W        W12867  40.331  38.337   3.148
51414W        W12868  36.947  30.998   3.241
51415W        W12869  41.794   2.362  11.893
51416W        W12870   2.380  37.872   4.312
51417W        W12871  31.118  23.682  10.413
51418W        W12872  42.315   0.847   2.828
51419W        W12873  17.159  22.143   3.233
51420W        W12874  15.661   1.241   1.254
51421W        W12875  30.642  35.997  12.578
51422W        W12876   6.889  38.940  12.402
51423W        W12877  26.123  22.065   1.306
51424W        W12878   8.377  42.468  14.439
51425W        W12879  22.731  43.440   4.804
51426W        W12880   5.693   3.260   3.257
51427W        W12881  11.175  18.103   2.183
51428W        W12882  39.040   7.405   3.341
51429W        W12883  10.254  37.896  13.934
51430W        W12884  33.443  16.572  14.957
51431W        W12885  27.645  21.247  13.513
51432W        W12886   7.672  19.562  12.507
51433W        W12887  38.514  31.426  12.463
51434W        W12888  16.084  19.103   2.895
51435W        W12889  29.544   2.458  11.602
51436W        W12890  29.565  22.696   5.270
51437W        W12891   7.413  23.230   3.746
51438W        W12892  37.920  10.188   4.162
51439W        W12893  28.508  30.539  13.820
51440W        W12894  14.312  16.724   2.847
51441W        W12895  20.734  31.433  11.079
51442W        W12896  15.328  15.640   4.710
51443W        W12897  14.803  23.028  10.583
51444W        W12898  31.421  38.839   4.237
51445W        W12899   5.783  38.389   2.257
51446W        W12900  38.480  43.352  10.428
51447W        W12901  27.516  15.260  12.561
51448W        W12902  15.142   9.263   3.761
51449W        W12903  43.354  12.254  12.834
51450W        W12904  25.992   7.830   4.152
51451W        W12905  12.781  10.185   1.229
51452W        W12906  23.694  25.993   2.390
51453W        W12907   9.822   3.387  11.538
51454W        W12908  16.172  40.444   0.929
51455W        W12909  20.689  21.229  14.348
51456W        W12910  21.753  22.088  13.977
51457W        W12911   3.404  42.444   0.376
51458W        W12912  16.235  15.256  13.341
51459W        W12913  36.525  40.864   2.238
51460W        W12914  34.897  33.916   4.746
51461W        W12915  27.972  35.920  13.432
51462W        W12916  34.419  26.029  13.962
51463W        W12917  15.174  35.394   4.275
51464W        W12918  26.176  23.696  14.321
51465W        W12919  27.083  35.101  10.606
51466W        W12920   5.930  20.081   3.302
51467W        W12921  41.496   2.836  12.580
51468W        W12922  20.751   6.261  14.927
51469W        W12923  37.390  38.513   0.344
51470W        W12924  44.306  21.583   2.728
51471W        W12925  11.772   2.920  11.436
51472W        W12926  27.506  25.099   4.648
51473W        W12927   0.312  10.202  14.442
51474W        W12928  26.580  15.236  13.051
51475W        W12929  36.950   9.293   2.403
51476W        W12930  38.872  22.580   4.657
51477W        W12931  36.542  26.666   1.315
51478W        W12932  22.698  20.055   0.389
51479W        W12933   7.872   5.920  10.915
51480W        W12934  33.558  19.545  14.410
51481W        W12935  22.740  32.106  12.886
51482W        W12936   2.726  20.549   4.163
51483W        W12937  13.684  23.678   2.281
51484W        W12938  31.587  10.220   2.679
51485W        W12939  37.853   5.300  12.956
51486W        W12940  26.195  25.508   1.705
51487W        W12941  38.862  43.513  11.603
51488W        W12942  21.051  41.387  10.990
51489W        W12943   5.436  32.902   0.403
51490W        W12944  39.943  34.983   0.811
51491W        W12945  38.889  24.087  10.431
51492W        W12946  44.760  24.554  10.572
51493W        W12947  40.802  31.937  11.991
51494W        W12948  33.997  25.521   3.813
51495W        W12949   6.318  29.952   1.243
51496W        W12950   6.798  35.085  13.842
51497W        W12951  13.144   2.380   3.692
51498W        W12952  33.394  19.611   4.654
51499W        W12953   8.770  29.038   2.363
51500W        W12954  35.008   9.320   2.712
51501W        W12955  21.076  20.090   0.838
51502W        W12956   4.374  31.908   2.806
51503W        W12957   9.385  44.317   0.787
51504W        W12958   0.424   5.395  14.513
51505W        W12959  44.845   7.227  14.017
51506W        W12960  17.161  36.065   1.344
51507W        W12961  36.062  17.778  14.928
51508W        W12962  36.062  22.093   2.250
51509W        W12963  21.166   7.270   2.879
51510W        W12964  37.036  27.585  11.900
51511W        W12965  38.951  44.772   4.798
51512W        W12966  21.523  23.510   4.263
51513W        W12967   5.384  23.098   3.325
51514W        W12968   8.760  44.875   3.756
51515W        W12969  19.171  13.264   3.233
51516W        W12970  32.120  37.551  12.865
51517W        W12971  25.190  31.079  13.820
51518W        W12972  17.650   2.402   3.318
51519W        W12973  26.038  29.545   3.368
51520W        W12974  21.566  42.008   4.808
51521W        W12975  27.670  14.266  11.929
51522W        W12976  26.518  40.521   2.214
51523W        W12977  26.530   2.854   1.884
51524W        W12978  40.520  40.329  11.583
51525W        W12979  24.539   2.786   0.260
51526W        W12980  29.657  15.244   3.223
51527W        W12981   1.371  33.045  14.778
51528W        W12982  12.853   5.204   1.714
51529W        W12983  41.525   0.908   4.164
51530W        W12984   9.296  26.995  14.423
51531W        W12985  33.620  23.702   4.786
51532W        W12986  40.542  13.793  13.366
51533W        W12987  30.933  44.753   3.317
51534W        W12988  24.543   0.324   1.340
51535W        W12989   6.698   2.953  11.920
51536W        W12990  11.766  26.974  12.540
51537W        W12991  27.517  17.789   3.220
51538W        W12992  34.968  33.550   3.219
51539W        W12993  12.143  36.024   0.905
51540W        W12994  18.590  20.148   3.180
51541W        W12995  21.576  31.471   3.836
51542W        W12996  31.527  15.283   1.851
51543W        W12997  13.683  20.046   1.391
51544W        W12998  12.721  11.229   0.936
51545W        W12999  22.073   1.755   0.332
51546W        W13000  33.986  12.619  12.028
51547W        W13001  43.831  26.118   4.322
51548W        W13002  39.878  38.447   0.890
51549W        W13003  12.613  40.814  10.012
51550W        W13004  41.801  36.928  13.436
51551W        W13005  31.530   8.687  12.507
51552W        W13006  17.655  25.508  14.882
51553W        W13007   1.798  21.513   1.328
51554W        W13008  36.525  29.037  13.854
51555W        W13009  36.370  27.599   0.261
51556W        W13010  14.192  17.285   2.417
51557W        W13011   3.895  21.145   4.265
51558W        W13012  12.648   9.741   1.765
51559W        W13013  29.058  25.670   3.766
51560W        W13014  44.920  10.315  12.490
51561W        W13015  44.879  26.070  12.341
51562W        W13016  29.166  29.094  10.492
51563W        W13017  30.547  22.178  12.920
51564W        W13018  39.413   0.743   2.811
51565W        W13019  21.655   2.351  14.507
51566W        W13020  40.321  22.551  14.942
51567W        W13021  20.245  29.579   1.280
51568W        W13022   6.410  32.486  11.103
51569W        W13023  34.873  21.630   1.286
51570W        W13024   0.266   9.269  12.522
51571W        W13025   4.801   5.863  10.926
51572W        W13026  16.078  41.035   3.739
51573W        W13027  26.059  37.836  14.821
51574W        W13028   2.861   8.213  11.071
51575W        W13029   1.453  36.415   1.756
51576W        W13030  34.598   4.292   4.604
51577W        W13031  13.819  28.548  10.492
51578W        W13032   3.763   4.306  14.994
51579W        W13033  22.117  17.664   0.884
51580W        W13034  43.840  34.956   4.690
51581W        W13035  25.033  37.444   1.378
51582W        W13036  11.306  28.455   3.823
51583W        W13037   1.423  26.573  13.004
51584W        W13038  17.771  22.221   4.289
51585W        W13039  26.116  34.984   0.324
51586W        W13040  44.450  42.847  13.411
51587W        W13041  20.074  33.515   3.210
51588W        W13042  14.829   4.849   3.795
51589W        W13043  10.348   1.978   1.900
51590W        W13044  27.180  33.582   2.215
51591W        W13045  25.076  19.542  10.453
51592W        W13046  14.786  43.854   1.325
51593W        W13047  36.872  38.372   0.380
51594W        W13048  41.979   7.385  12.385
51595W        W13049  24.152  37.436  11.923
51596W        W13050  20.266  39.939  12.932
51597W        W13051  28.054   0.474   0.416
51598W        W13052  21.569  26.694   1.926
51599W        W13053  22.623  22.624  10.449
51600W        W13054  36.033  22.194  12.530
51601W        W13055  16.634  25.073  11.039
51602W        W13056  42.985   9.660  14.007
51603W        W13057  15.105  20.242  12.040
51604W        W13058  35.464  30.154  12.398
51605W        W13059  22.998  30.540  13.918
51606W        W13060  15.703   2.743  11.404
51607W        W13061  12.294  14.195  12.494
51608W        W13062  15.205  20.694  12.419
51609W        W13063  24.511  40.947   1.231
51610W        W13064  22.552  15.166  13.011
51611W        W13065  31.590  13.311   5.686
51612W        W13066  31.512  20.055  13.795
51613W        W13067  15.606  17.670   1.248
51614W        W13068  28.522  21.521   5.148
51615W        W13069  34.589  11.629   2.418
51616W        W13070   4.818   1.438  14.324
51617W        W13071  18.115  39.838   0.321
51618W        W13072   4.836  43.931   0.305
51619W        W13073  30.617  29.043  13.397
51620W        W13074  34.512  43.830  13.848
51621W        W13075  18.192  14.776   3.807
51622W        W13076  40.309   4.265   4.756
51623W        W13077  37.849   5.207  11.088
51624W        W13078  25.644  39.413  14.316
51625W        W13079  22.213   8.348   3.731
51626W        W13080  32.528  21.559  12.017
51627W        W13081   0.341  26.994  10.441
51628W        W13082  41.351  27.060   4.749
51629W        W13083  17.634  23.609   3.810
51630W        W13084   3.840  12.266  11.611
51631W        W13085  25.205   9.296  10.123
51632W        W13086   9.818  42.482  13.331
51633W        W13087  31.059   8.179  13.530
51634W        W13088  31.582   4.843  11.403
51635W        W13089  36.401  39.826  11.512
51636W        W13090  31.023  25.659   4.791
51637W        W13091   4.936   4.926   0.368
51638W        W13092  34.898  28.511   0.450
51639W        W13093  15.597  29.986   3.294
51640W        W13094  17.648  38.939   2.767
51641W        W13095  33.613   8.383  12.046
51642W        W13096  25.102   9.347  14.372
51643W        W13097  18.064  15.219  12.870
51644W        W13098  24.692  34.495   3.200
51645W        W13099  10.221  35.546   2.232
51646W        W13100  39.862   2.818  13.806
51647W        W13101  14.177  13.272  13.856
51648W        W13102   1.383  43.820  11.129
51649W        W13103   0.264  16.688  12.499
51650W        W13104   5.730  11.699  13.547
51651W        W13105  13.202  28.475   0.465
51652W        W13106  11.307   3.803   0.863
51653W        W13107  39.861   5.819   2.798
51654W        W13108  11.692  22.234  14.297
51655W        W13109  34.069   8.667   2.857
51656W        W13110  30.590  18.095   3.313
51657W        W13111   0.891  12.741   1.403
51658W        W13112  23.153  38.857  11.869
51659W        W13113  23.237  32.941  12.497
51660W        W13114   4.712  38.031  13.992
51661W        W13115   7.301  19.177  10.908
51662W        W13116  42.780  34.540  10.988
51663W        W13117  22.022  14.646   2.406
51664W        W13118  31.018  35.096  13.496
51665W        W13119  38.441  16.083   1.712
51666W        W13120  14.122  25.478  12.020
51667W        W13121  25.116  26.619  10.428
51668W        W13122  27.574  20.225   0.956
51669W        W13123   2.787   0.904   0.412
51670W        W13124  23.226  11.650  10.997
51671W        W13125  24.600  23.037  14.966
51672W        W13126  24.975  39.045  12.089
51673W        W13127  21.704   0.485  13.533
51674W        W13128  37.040  30.560   0.264
51675W        W13129  39.995  30.536  12.508
51676W        W13130  14.160  33.105   3.651
51677W        W13131  23.704  22.160  12.566
51678W        W13132  41.965  14.298   1.229
51679W        W13133  38.827  18.244   0.312
51680W        W13134   7.668   9.761  12.860
51681W        W13135  39.846  39.362   0.375
51682W        W13136   9.342  31.531   0.330
51683W        W13137  36.532   1.392   4.760
51684W        W13138   9.303   5.358   3.658
51685W        W13139   1.873   5.200  11.918
51686W        W13140   1.481  33.085   0.846
51687W        W13141   4.343  40.013   3.743
51688W        W13142  22.243   3.280  13.463
51689W        W13143  12.846  28.007   3.639
51690W        W13144  10.790  26.129  10.518
51691W        W13145  26.510  12.217   0.728
51692W        W13146  44.501  39.824  14.783
51693W        W13147  35.033  25.983   4.699
51694W        W13148  24.147   9.859  14.425
51695W        W13149  32.954  19.281   4.308
51696W        W13150   7.894   9.860   4.609
51697W        W13151  21.253  43.767   0.293
51698W        W13152  21.525  24.626  14.935
51699W        W13153  32.067  32.486  10.591
51700W        W13154   8.190  24.484   1.726
51701W        W13155  11.261  17.192   1.904
51702W        W13156  17.300   7.874  11.084
51703W        W13157  11.691  15.131  14.871
51704W        W13158  14.339  27.502   2.264
51705W        W13159  33.035  30.616  12.542
51706W        W13160  38.819  25.048   3.672
51707W        W13161   3.796  27.505   2.411
51708W        W13162  31.937   1.897  14.998
51709W        W13163  22.096  37.336  10.996
51710W        W13164  38.546  41.017  13.539
51711W        W13165  15.747   4.425  10.590
51712W        W13166   8.321   7.323  11.124
51713W        W13167  44.926  24.061  11.120
51714W        W13168   6.198  40.464   0.866
51715W        W13169  37.454  14.100  14.278
51716W        W13170  38.031  21.672   2.238
51717W        W13171   6.786   8.280   3.368
51718W        W13172  38.355  44.985  12.375
51719W        W13173  15.649  22.180   5.296
51720W        W13174  43.938  16.613   1.380
51721W        W13175  26.619  31.107   1.342
51722W        W13176  22.638   2.846   0.370
51723W        W13177  39.322  31.105   3.759
51724W        W13178  24.625  20.547  13.961
51725W        W13179   4.256  27.142  14.964
51726W        W13180  35.925  22.579  11.507
51727W        W13181  44.491  41.516   2.778
51728W        W13182  12.682  27.472  11.480
51729W        W13183  23.663   6.348  14.318
51730W        W13184  16.733  37.407  10.917
51731W        W13185  21.089   1.741  14.890
51732W        W13186  19.580  44.340   0.889
51733W        W13187  16.802   4.232  13.902
51734W        W13188   2.938  34.591  11.530
51735W        W13189  30.442  40.379  13.400
51736W        W13190  39.016  42.394  12.934
51737W        W13191   8.175  38.498   0.427
51738W        W13192  34.889  22.156  13.969
51739W        W13193  20.715  40.897   2.717
51740W        W13194  23.171   1.414   0.441
51741W        W13195  22.728  14.746   1.408
51742W        W13196  19.703  11.800   0.410
51743W        W13197  29.118  33.039  12.881
51744W        W13198   1.951  25.682   0.935
51745W        W13199  16.218  38.349   2.801
51746W        W13200   9.688  18.748  10.986
51747W        W13201  14.332  35.942  13.973
51748W        W13202  37.833  26.951  12.863
51749W        W13203  42.446  28.517   0.802
51750W        W13204   5.241   3.297   0.833
51751W        W13205   1.913  32.407  11.965
51752W        W13206  39.028  30.529  12.551
51753W        W13207  32.415  10.259   2.186
51754W        W13208  28.679   6.407  10.135
51755W        W13209  35.582  35.878   3.808
51756W        W13210   1.305   3.942  10.415
51757W        W13211  40.352  36.453  12.083
51758W        W13212  38.939  21.755   2.264
51759W        W13213  36.569  22.047  13.357
51760W        W13214  33.554  26.106   1.248
51761W        W13215   4.400  40.891   0.266
51762W        W13216  11.320  39.009  10.025
51763W        W13217   0.828   2.739  10.911
51764W        W13218  36.013   1.785  10.908
51765W        W13219   6.370  22.689  10.573
51766W        W13220   8.328  37.406   1.703
51767W        W13221  37.367   0.363   2.797
51768W        W13222  38.336  41.430   4.290
51769W        W13223  22.168  37.445  13.959
51770W        W13224   0.826   2.725   1.871
51771W        W13225  23.178  27.598   3.378
51772W        W13226  27.669  31.450   5.686
51773W        W13227  11.800  32.397  13.380
51774W        W13228  16.649  17.565  11.594
51775W        W13229   1.319  25.969  13.966
51776W        W13230  23.069   3.713  13.871
51777W        W13231  44.853   7.868  11.077
51778W        W13232  41.507  35.106  12.897
51779W        W13233  15.600   5.364   0.286
51780W        W13234  30.021  34.427  10.415
51781W        W13235  36.035  13.177  10.473
51782W        W13236   7.911  14.773   2.803
51783W        W13237  25.132  23.215  12.922
51784W        W13238   6.305   8.858  12.366
51785W        W13239  20.632   6.307  11.575
51786W        W13240  25.557   0.492  11.961
51787W        W13241  13.136  20.244  11.392
51788W        W13242   6.891  25.487  14.957
51789W        W13243  30.922  17.220   5.086
51790W        W13244   1.885  30.621  11.895
51791W        W13245   3.390   4.426   3.269
51792W        W13246  32.536  27.008   2.836
51793W        W13247  20.664  12.783  10.635
51794W        W13248   3.776  24.627   4.250
51795W        W13249  31.152  22.150   5.246
51796W        W13250  19.590  25.706  10.638
51797W        W13251  41.956   2.913   0.937
51798W        W13252   1.280   5.821  12.910
51799W        W13253   1.445  29.950  11.601
51800W        W13254  26.986  26.021   1.354
51801W        W13255  10.801  42.855   5.135
51802W        W13256   3.411  24.005  12.926
51803W        W13257  40.472  13.199  11.006
51804W        W13258   6.913  31.641  12.344
51805W        W13259  44.784  15.316   2.891
51806W        W13260  36.491  40.038  14.327
51807W        W13261  38.934  14.184  13.479
51808W        W13262   8.312  13.655   1.237
51809W        W13263  42.330  20.602  14.771
51810W        W13264  19.093  26.513   0.875
51811W        W13265   1.970  28.572  10.889
51812W        W13266  40.009  17.648  14.905
51813W        W13267  33.596  42.031   0.242
51814W        W13268  14.154  21.691   2.872
51815W        W13269  24.979  35.948  13.948
51816W        W13270  23.178   5.723   1.434
51817W        W13271  34.864  36.971   0.308
51818W        W13272  43.400  11.191   2.247
51819W        W13273  37.088  35.993   0.361
51820W        W13274   5.315  27.448  11.561
51821W        W13275  39.005   0.828  14.982
51822W        W13276   5.409  33.987  11.397
51823W        W13277  23.997  38.348  13.792
51824W        W13278  22.027   2.857   1.273
51825W        W13279   2.398  37.486   1.229
51826W        W13280  40.450  15.239   3.749
51827W        W13281  24.520  39.048   4.613
51828W        W13282  25.051  11.669  11.539
51829W        W13283   5.283  26.088   1.390
51830W        W13284  23.035  38.964   1.385
51831W        W13285  32.008  11.187  11.475
51832W        W13286  22.245   5.814   1.823
51833W        W13287  28.978  30.950  11.953
51834W        W13288  13.627  14.157  13.958
51835W        W13289  40.527  18.244   5.115
51836W        W13290  27.151  17.261  14.971
51837W        W13291  31.544  31.493  11.430
51838W        W13292  44.316  33.070   1.276
51839W        W13293   0.777  17.775   3.299
51840W        W13294  20.608  39.552   2.251
51841W        W13295  27.033  32.060  13.032
51842W        W13296  44.806  15.728  12.008
51843W        W13297  36.011  32.997  11.897
51844W        W13298  27.455  14.680  12.918
51845W        W13299   5.266  22.092   2.694
51846W        W13300  13.302  10.384   0.850
51847W        W13301  26.666   6.328   3.712
51848W        W13302  44.854  25.109  11.047
51849W        W13303   7.286  42.448  12.413
51850W        W13304  17.120   4.927   5.084
51851W        W13305  21.679  12.704  12.392
51852W        W13306  25.162  41.933  14.006
51853W        W13307  43.321  24.117   1.410
51854W        W13308  34.920  16.621   4.203
51855W        W13309  33.054   7.691  10.930
51856W        W13310  15.622  44.351   4.644
51857W        W13311  28.060  11.676   2.270
51858W        W13312   0.471  19.595  13.349
51859W        W13313  20.741  37.370  13.921
51860W        W13314  23.515  13.230  13.964
51861W        W13315  20.646  30.068  13.432
51862W        W13316  13.316   4.827  11.890
51863W        W13317  18.165  36.085   2.248
51864W        W13318  20.600  31.926   1.713
51865W        W13319  42.374  23.224   0.865
51866W        W13320  16.313   5.216   0.732
51867W        W13321  17.134  25.594  11.889
51868W        W13322  25.644  14.327  11.482
51869W        W13323  22.249  39.847  14.002
51870W        W13324   1.240  36.022   4.771
51871W        W13325  31.483  40.411  10.506
51872W        W13326  32.964  30.966   4.294
51873W        W13327   3.377  31.964   1.885
51874W        W13328  10.689  43.315  10.950
51875W        W13329   0.482  29.465   1.369
51876W        W13330   2.419  36.451  13.013
51877W        W13331  10.866  36.026   3.637
51878W        W13332  11.797   0.472  10.127
51879W        W13333   8.888  42.981  11.553
51880W        W13334  25.515  18.755  14.957
51881W        W13335   3.944  35.947   4.231
51882W        W13336  15.664   4.706   1.300
51883W        W13337  36.076  19.691   0.289
51884W        W13338  44.367  40.931  11.053
51885W        W13339  24.994  35.091   4.279
51886W        W13340   4.771  41.911  10.594
51887W        W13341   5.887  43.788  12.460
51888W        W13342   4.351  15.183   2.671
51889W        W13343  33.533  34.586   0.349
51890W        W13344  30.916  33.599   0.475
51891W        W13345  32.454  30.448   5.223
51892W        W13346   2.725  37.398  13.906
51893W        W13347  33.088   2.406   4.650
51894W        W13348  27.522   1.285   4.743
51895W        W13349  44.967  25.563   0.304
51896W        W13350  39.824   3.794  14.372
51897W        W13351  35.504  15.823  13.039
51898W        W13352   7.859  35.363  14.964
51899W        W13353   2.371   0.445   1.824
51900W        W13354  11.671  35.545   4.617
51901W        W13355  40.949  38.453  10.914
51902W        W13356  10.341   3.810   0.294
51903W        W13357  20.728  28.632  11.125
51904W        W13358  42.518   7.816  13.024
51905W        W13359  43.921  29.651   0.942
51906W        W13360  39.900  23.609   0.295
51907W        W13361  26.103   8.223   1.251
51908W        W13362  26.041   1.276  13.531
51909W        W13363   3.283  42.983   1.273
51910W        W13364   1.891  43.995  11.970
51911W        W13365  35.388  28.970  14.882
51912W        W13366  28.027  24.987   1.403
51913W        W13367  34.969  10.701  13.333
51914W        W13368   1.946  16.706  10.568
51915W        W13369  11.224  34.563  12.053
51916W        W13370  10.777  40.812   9.945
51917W        W13371  29.021  41.013  13.399
51918W        W13372  18.144  23.675  12.345
51919W        W13373  29.165  38.524   0.481
51920W        W13374  34.905  44.814   3.779
51921W        W13375  12.338  18.084   3.348
51922W        W13376  37.854  26.612   4.342
51923W        W13377  31.523  44.905   3.843
51924W        W13378  36.585  20.522   4.752
51925W        W13379  37.041  10.772   0.314
51926W        W13380  43.772  11.757   4.133
51927W        W13381  12.300  10.724  11.030
51928W        W13382  12.783  35.476  14.764
51929W        W13383  44.370  20.110  10.529
51930W        W13384  42.353  21.530   4.257
51931W        W13385  17.651  15.578  12.043
51932W        W13386  24.724  28.985  11.998
51933W        W13387  43.410  40.047  12.833
51934W        W13388   0.867  37.030  13.315
51935W        W13389  17.289  43.508  11.567
51936W        W13390   9.712  23.627  13.821
51937W        W13391  30.121  39.861  14.318
51938W        W13392  11.764   6.732   0.927
51939W        W13393   0.904  20.581   2.832
51940W        W13394  37.480  43.825   3.692
51941W        W13395  37.449  23.620  11.960
51942W        W13396  13.199   5.797  10.973
51943W        W13397   1.288  31.515   4.821
51944W        W13398  33.889  10.341   4.789
51945W        W13399  33.097  11.792  12.060
51946W        W13400  13.829   4.415  10.440
51947W        W13401  23.076  10.821  13.794
51948W        W13402   1.282   8.372   0.945
51949W        W13403  36.544  41.480   2.693
51950W        W13404   7.783   1.769  10.431
51951W        W13405  37.381  39.346  13.053
51952W        W13406  18.162  38.327   4.310
51953W        W13407   1.811  42.939  14.399
51954W        W13408  28.146  27.979   1.259
51955W        W13409  25.204  26.580   0.906
51956W        W13410  11.738  30.097  11.015
51957W        W13411   0.279  17.074   0.307
51958W        W13412  33.896  32.994  13.831
51959W        W13413  22.716  26.658  12.966
51960W        W13414  13.248  25.030   2.887
51961W        W13415   3.867  23.522  10.903
51962W        W13416  39.558   6.270  10.469
51963W        W13417  33.918  33.010  12.048
51964W        W13418   7.285  26.570  11.044
51965W        W13419  30.579  24.068   0.831
51966W        W13420  37.470  13.167   4.667
51967W        W13421   0.919  26.193   4.221
51968W        W13422  37.954  41.932   3.159
51969W        W13423  26.512   0.806  12.904
51970W        W13424   6.700   3.854   1.885
51971W        W13425  23.492  14.652   3.174
51972W        W13426  37.475  28.019  13.062
51973W        W13427   9.233  19.770   4.691
51974W        W13428  35.890  22.559   0.778
51975W        W13429   9.169  18.273  12.454
51976W        W13430   8.301  28.623  13.416
51977W        W13431  27.475  14.610  13.946
51978W        W13432  19.543   6.768   0.806
51979W        W13433  31.636   8.328   9.956
51980W        W13434  12.143  35.409   2.228
51981W        W13435  44.776  28.473   4.195
51982W        W13436  20.132  36.533   3.650
51983W        W13437  13.661   8.767  12.425
51984W        W13438  13.301  36.507  11.426
51985W        W13439  40.512   3.325   2.682
51986W        W13440  34.873  21.725   1.703
51987W        W13441   8.769  40.908  10.640
51988W        W13442   1.253  32.599   1.822
51989W        W13443  28.454  18.730   0.368
51990W        W13444  40.532  28.017  13.010
51991W        W13445  20.744  18.691  10.437
51992W        W13446  33.950  20.262  11.474
51993W        W13447  15.109  22.997  11.050
51994W        W13448   5.701   3.722   2.356
51995W        W13449  14.609  21.163  14.328
51996W        W13450  44.439  15.282   1.432
51997W        W13451  24.105  29.961  12.339
51998W        W13452   4.899   5.793   3.273
51999W        W13453  12.147  21.231   3.325
52000W        W13454   3.932  41.964  12.838
52001W        W13455   5.360  15.698   0.901
52002W        W13456  43.795  32.036  11.926
52003W        W13457  13.105   8.868   5.102
52004W        W13458   3.439  23.574  14.472
52005W        W13459  35.517   6.794   4.181
52006W        W13460  19.110  10.280  11.467
52007W        W13461  29.545  32.889  14.801
52008W        W13462   8.184   8.690   5.247
52009W        W13463  22.103   9.255  12.969
52010W        W13464   4.888  15.277   0.348
52011W        W13465   8.219  42.826  14.483
52012W        W13466  42.922  29.954   2.887
52013W        W13467  37.348  34.418  13.842
52014W        W13468  40.393  44.403  13.361
52015W        W13469  20.199  29.661   3.714
52016W        W13470  17.153  16.128  10.432
52017W        W13471  29.646  17.720   1.819
52018W        W13472  41.011  44.304  12.993
52019W        W13473  14.173  42.880   9.620
52020W        W13474  43.428   8.826  11.564
52021W        W13475  19.208  35.929   2.276
52022W        W13476  15.702   6.838  11.125
52023W        W13477  35.518  19.147  11.958
52024W        W13478  30.617  11.234  13.969
52025W        W13479  21.605  17.234  13.409
52026W        W13480  25.691  39.897   0.390
52027W        W13481  22.141  31.631  14.484
52028W        W13482   1.928   6.346   3.634
52029W        W13483   0.808  25.060   2.762
52030W        W13484   2.823  33.933  11.459
52031W        W13485  23.596  23.072   4.212
52032W        W13486  18.646   8.275  14.904
52033W        W13487  16.214  42.447  12.975
52034W        W13488  36.043  31.030   3.308
52035W        W13489  34.013  25.625   3.169
52036W        W13490  25.635  43.845   2.188
52037W        W13491  40.909  31.008  13.868
52038W        W13492  11.632  19.190  14.787
52039W        W13493  15.105  18.707   0.482
52040W        W13494  11.262  23.077   0.766
52041W        W13495  23.658  32.590  12.982
52042W        W13496  24.578  10.798   3.737
52043W        W13497  20.139  39.042  13.375
52044W        W13498  24.132  28.968   4.230
52045W        W13499  14.210  20.607  12.539
52046W        W13500   5.239   3.936   3.253
52047W        W13501  22.180  17.199   4.789
52048W        W13502  29.108  14.318   0.343
52049W        W13503   1.843  31.949   0.263
52050W        W13504  26.025  36.359   3.855
52051W        W13505  31.068  12.831  12.075
52052W        W13506  43.357  22.644  12.043
52053W        W13507  20.717  26.969   2.671
52054W        W13508  16.634  43.875   2.254
52055W        W13509  12.291  29.049  11.556
52056W        W13510  39.910  11.666   4.790
52057W        W13511  26.108  28.056  14.399
52058W        W13512  10.870   6.197  10.946
52059W        W13513  39.941  44.927   0.468
52060W        W13514   5.760  26.485  14.000
52061W        W13515  33.962  13.217  10.449
52062W        W13516  41.959   6.755   2.389
52063W        W13517  12.340  20.078   1.287
52064W        W13518  26.091  31.574   3.356
52065W        W13519   0.276  16.630   3.818
52066W        W13520  18.132  27.562   3.294
52067W        W13521  24.704  23.557   4.245
52068W        W13522   4.341  27.662   2.252
52069W        W13523   4.329  30.145   4.718
52070W        W13524  25.497  16.755   2.778
52071W        W13525  35.453  38.982  10.615
52072W        W13526  21.709  17.623  14.769
52073W        W13527  24.170  41.921   0.252
52074W        W13528  44.953   9.209   3.763
52075W        W13529  27.528  43.873  11.573
52076W        W13530  12.763  13.666   1.737
52077W        W13531  22.203  33.505  10.411
52078W        W13532  16.222   7.812  11.435
52079W        W13533  35.866  38.960   0.961
52080W        W13534  44.389   9.870  12.355
52081W        W13535  25.052  34.081  12.991
52082W        W13536  40.396  24.658  11.572
52083W        W13537  44.431  13.245  14.830
52084W        W13538  18.232  17.658  12.949
52085W        W13539  11.649   1.800  12.868
52086W        W13540  21.184  30.009   4.725
52087W        W13541   4.901  21.256  13.011
52088W        W13542  20.176  38.504  14.910
52089W        W13543  42.812  19.700  12.345
52090W        W13544   5.319   0.956  12.898
52091W        W13545  20.750  25.697   2.891
52092W        W13546   9.314   6.777   2.745
52093W        W13547  36.487  35.035   3.226
52094W        W13548  12.209  20.662  11.084
52095W        W13549  44.360  19.117   1.929
52096W        W13550  29.086  11.754  13.026
52097W        W13551  23.564  39.351  12.343
52098W        W13552  10.316  31.510   5.181
52099W        W13553  30.038  44.341   4.600
52100W        W13554  40.486  24.000   1.738
52101W        W13555  37.894  36.069   2.697
52102W        W13556   7.289  43.380  14.449
52103W        W13557  35.870  21.023  12.484
52104W        W13558  43.952  17.161  13.410
52105W        W13559  34.034  18.161  10.448
52106W        W13560   0.834  39.878   4.712
52107W        W13561   6.266  22.587   1.387
52108W        W13562  27.106   7.714   3.692
52109W        W13563  19.744  22.629  13.545
52110W        W13564   1.403  16.175   3.219
52111W        W13565  41.500  30.542   1.913
52112W        W13566  18.124   9.180   0.246
52113W        W13567   2.368  21.648  13.489
52114W        W13568   2.422  22.015   2.178
52115W        W13569  24.094   8.382  14.279
52116W        W13570  20.079  29.450   0.845
52117W        W13571  11.795  36.025  14.812
52118W        W13572  42.342   0.408  13.379
52119W        W13573  10.330  28.040  12.965
52120W        W13574  41.904  11.242  11.858
52121W        W13575  11.153  28.524   1.279
52122W        W13576  34.024   6.391  10.604
52123W        W13577  13.695  44.949   1.788
52124W        W13578  39.853   0.988  11.967
52125W        W13579  31.046  23.185  10.449
52126W        W13580  23.122  33.087   2.754
52127W        W13581  24.642   2.330   2.387
52128W        W13582  40.904  41.460   4.666
52129W        W13583  19.222  41.367   1.905
52130W        W13584  41.493  35.466  11.958
52131W        W13585  33.387  18.078   1.881
52132W        W13586  31.622  20.263   4.221
52133W        W13587   6.920  24.113  12.975
52134W        W13588   6.812  18.062  14.921
52135W        W13589  38.047  30.104  10.474
52136W        W13590  38.332  42.851  12.480
52137W        W13591  23.664  40.936   1.796
52138W        W13592  32.489  24.202   1.894
52139W        W13593  22.720  36.083   5.187
52140W        W13594  41.789  15.683  11.496
52141W        W13595  29.152  36.059   3.375
52142W        W13596  19.536  41.324  14.788
52143W        W13597  33.491  15.188  14.278
52144W        W13598  29.144  38.495  14.913
52145W        W13599  36.880  25.575   4.819
52146W        W13600  44.943   8.733   2.739
52147W        W13601  13.195  44.308  13.973
52148W        W13602  31.993   9.772  14.969
52149W        W13603  21.084   8.190   1.444
52150W        W13604  16.114  35.004  10.949
52151W        W13605  22.660  34.526   2.858
52152W        W13606  22.616  36.420  11.907
52153W        W13607  44.435  17.599   2.838
52154W        W13608   1.795  28.100   1.420
52155W        W13609  33.582   9.751  11.940
52156W        W13610  44.770  37.391   0.281
52157W        W13611  26.693  10.741   4.721
52158W        W13612  33.474  32.904  13.956
52159W        W13613  29.939  44.431   0.262
52160W        W13614   5.196  35.417   2.760
52161W        W13615  31.026  30.526   3.334
52162W        W13616  29.651  39.923   5.156
52163W        W13617  17.146  41.891  14.323
52164W        W13618  30.007  33.445   1.849
52165W        W13619  16.111  14.833   0.307
52166W        W13620  38.854  31.570  12.399
52167W        W13621  40.527  41.836  11.922
52168W        W13622  33.505   6.738  10.980
52169W        W13623  33.002  38.918  14.366
52170W        W13624  24.013   0.287   4.158
52171W        W13625  27.080   5.390   4.126
52172W        W13626   2.913  39.409   4.723
52173W        W13627   3.224  19.774  11.099
52174W        W13628  22.091  16.570   1.707
52175W        W13629  14.712  43.328   4.815
52176W        W13630   7.393  13.305  13.835
52177W        W13631  31.511  31.123   1.806
52178W        W13632  30.586  31.641  11.432
52179W        W13633  43.459  22.198   4.354
52180W        W13634  13.208  31.500  11.509
52181W        W13635  19.147  42.287   2.274
52182W        W13636  33.061  32.071   2.849
52183W        W13637  37.884  10.744  13.047
52184W        W13638  27.593   2.842   1.746
52185W        W13639  43.490  35.420  10.423
52186W        W13640   8.203  24.615   2.736
52187W        W13641  38.452  10.376   4.751
52188W        W13642  31.532  22.233   3.339
52189W        W13643   7.768   7.830  12.062
52190W        W13644  11.361  42.289  14.995
52191W        W13645  31.640   4.438   2.224
52192W        W13646  38.936  20.552   5.130
52193W        W13647  24.708  13.351   1.433
52194W        W13648  33.105  40.528  10.614
52195W        W13649   2.282  42.412   1.276
52196W        W13650  17.558   6.756  12.017
52197W        W13651  44.406   4.739   1.726
52198W        W13652  10.183  37.394  10.012
52199W        W13653  40.363   3.425  10.461
52200W        W13654  42.506  27.161   0.919
52201W        W13655   2.328  40.549   0.846
52202W        W13656  15.251   5.854   4.790
52203W        W13657  19.079  36.445  10.549
52204W        W13658   6.269  11.259  13.969
52205W        W13659  10.857  40.987   4.180
52206W        W13660  11.807   4.870   4.608
52207W        W13661  28.030  27.197  12.969
52208W        W13662  25.479  29.507  14.974
52209W        W13663  14.682  26.193  13.348
52210W        W13664  40.458   8.725   4.147
52211W        W13665  10.307  10.228  13.310
52212W        W13666  31.997  19.779  13.499
52213W        W13667  31.478   8.703   2.343
52214W        W13668  11.245  24.060  14.431
52215W        W13669  41.534  11.810   2.857
52216W        W13670  33.035   8.759  13.808
52217W        W13671  23.593  37.368  13.319
52218W        W13672  44.950  40.031   4.747
52219W        W13673  23.708  39.964   4.213
52220W        W13674  34.898  15.260  11.470
52221W        W13675  44.948  11.847  12.848
52222W        W13676  17.561   3.250   0.795
52223W        W13677  41.880  27.681   1.927
52224W        W13678  32.128  29.513   1.256
52225W        W13679   0.887   2.343  14.894
52226W        W13680  22.194  16.699   2.236
52227W        W13681  36.055  20.583  11.451
52228W        W13682  29.570   0.932   2.861
52229W        W13683  42.377  21.713  13.867
52230W        W13684   4.314  37.846   1.915
52231W        W13685  31.021  19.651   4.699
52232W        W13686  32.453  35.475   0.456
52233W        W13687   4.352  26.552   2.755
52234W        W13688  38.977   3.849  14.004
52235W        W13689  14.694  32.555  10.486
52236W        W13690  11.639   9.173  12.376
52237W        W13691  11.222  37.485   5.298
52238W        W13692   4.295  36.864   4.615
52239W        W13693  18.628   0.854   5.169
52240W        W13694  22.685  40.307   1.261
52241W        W13695  10.822  18.731   0.392
52242W        W13696  32.133  39.942   1.865
52243W        W13697  41.912  22.593  10.405
52244W        W13698  33.026  21.727  11.893
52245W        W13699  25.581  37.573   1.869
52246W        W13700  10.745  42.481   1.710
52247W        W13701  28.185  22.037  12.867
52248W        W13702  11.818  27.515  12.474
52249W        W13703  35.029  26.482  13.838
52250W        W13704  20.107   9.672   2.784
52251W        W13705   9.247  34.540   2.319
52252W        W13706  22.715   9.272  12.424
52253W        W13707  32.133  22.113  10.142
52254W        W13708  39.941  17.765   2.787
52255W        W13709  41.383  15.612  11.856
52256W        W13710  13.696  19.558   9.972
52257W        W13711  29.139   0.458  10.451
52258W        W13712  34.924  25.039  13.548
52259W        W13713  35.950   7.379   4.810
52260W        W13714  22.995  17.061   3.218
52261W        W13715  13.610  19.577   5.743
52262W        W13716   1.416  16.124   4.144
52263W        W13717  19.266   0.928   1.437
52264W        W13718  14.229  24.543  14.425
52265W        W13719  13.131  41.455   0.469
52266W        W13720  11.356  26.131   2.265
52267W        W13721  34.394  10.752  14.946
52268W        W13722  16.573   3.351   2.778
52269W        W13723  13.630  33.058  12.515
52270W        W13724   6.423  35.542   0.883
52271W        W13725  28.589  30.441   4.264
52272W        W13726  32.577  14.825   4.244
52273W        W13727  40.437   0.372   1.389
52274W        W13728  12.667  24.199  11.395
52275W        W13729   4.425  12.658  11.564
52276W        W13730  39.881  35.582   4.739
52277W        W13731  15.623   5.834  14.347
52278W        W13732  34.583  19.666   3.312
52279W        W13733  31.931  39.523   2.764
52280W        W13734   1.388   9.208  11.963
52281W        W13735  29.023  40.883  10.917
52282W        W13736  20.039  39.860  14.972
52283W        W13737  18.070  14.770  10.020
52284W        W13738  23.122  25.102  13.438
52285W        W13739   0.255  42.336   1.884
52286W        W13740  34.949  11.149   1.378
52287W        W13741  20.075  42.319  14.836
52288W        W13742  43.948  13.245   2.865
52289W        W13743   6.233   4.797  10.529
52290W        W13744  12.249   0.320   4.338
52291W        W13745  34.971  36.480  14.458
52292W        W13746  10.167   7.362  10.638
52293W        W13747  25.027   5.255  12.858
52294W        W13748  19.600  28.961  11.010
52295W        W13749   2.860  41.876   2.222
52296W        W13750   7.266  44.345   1.316
52297W        W13751  39.410  21.089  10.902
52298W        W13752   9.236   5.761  12.889
52299W        W13753  44.332  33.514   5.155
52300W        W13754  31.015  20.170   1.831
52301W        W13755  43.853  32.602  11.967
52302W        W13756  34.531  34.997  12.997
52303W        W13757  39.011  11.299   3.261
52304W        W13758  23.561   7.732  14.797
52305W        W13759  32.063   0.746   2.342
52306W        W13760  22.101  42.343  12.859
52307W        W13761  24.040   4.386   4.796
52308W        W13762  22.066   7.902   2.292
52309W        W13763   2.861  39.502  13.032
52310W        W13764  37.433  40.381  12.842
52311W        W13765  29.107  12.843   3.764
52312W        W13766  18.100   6.363   4.824
52313W        W13767  12.213   9.687  13.487
52314W        W13768  16.077   9.669  14.277
52315W        W13769  23.010  41.312  13.319
52316W        W13770  23.714  27.554   3.758
52317W        W13771  44.319  40.541  14.873
52318W        W13772  41.869  10.753  12.544
52319W        W13773   7.335   2.254  12.088
52320W        W13774  35.603  41.799  11.944
52321W        W13775  36.430  42.981  11.078
52322W        W13776  38.069  27.666   4.672
52323W        W13777  20.561  41.483  10.604
52324W        W13778  10.829  31.597   5.712
52325W        W13779  18.253  41.501   4.735
52326W        W13780   2.236  27.600  12.522
52327W        W13781  33.526  26.461   2.399
52328W        W13782  27.648  35.473   4.324
52329W        W13783  17.770  26.563  12.430
52330W        W13784  28.465  21.203  11.010
52331W        W13785   7.774  10.659   1.293
52332W        W13786   5.418  12.763  11.564
52333W        W13787  43.345  20.151   3.790
52334W        W13788   3.745  25.044   4.708
52335W        W13789   1.402  16.802   4.222
52336W        W13790  14.818   9.233   4.327
52337W        W13791   1.467  19.591  14.957
52338W        W13792  21.194  16.154  10.530
52339W        W13793  21.534   7.304   2.268
52340W        W13794  30.614  41.864   4.149
52341W        W13795  24.084  37.922  14.006
52342W        W13796   7.336  34.942   1.878
52343W        W13797  34.911  32.456  14.455
52344W        W13798   2.869  19.695  11.109
52345W        W13799  14.732   7.708   4.317
52346W        W13800   4.830   4.311   0.760
52347W        W13801  18.556  26.980  12.446
52348W        W13802  29.439  42.343   3.222
52349W        W13803  14.223  27.020  13.484
52350W        W13804  16.773  11.645   1.364
52351W        W13805  26.532   1.943  11.030
52352W        W13806  17.639  35.054  14.876
52353W        W13807  14.766  26.532   0.272
52354W        W13808  38.828   0.861  10.955
52355W        W13809   3.450  20.082   0.278
52356W        W13810  29.055  36.444   4.352
52357W        W13811   8.356  12.359   4.351
52358W        W13812  26.197   1.750   4.323
52359W        W13813   3.881  34.383  12.000
52360W        W13814  28.646  22.181   4.751
52361W        W13815  34.467  43.913   0.764
52362W        W13816  17.712   4.725  10.966
52363W        W13817  30.097  22.183   4.119
52364W        W13818  34.986   3.878   3.720
52365W        W13819  29.005   9.338  14.391
52366W        W13820   8.874  18.685   0.424
52367W        W13821  44.302  34.882  13.986
52368W        W13822  35.385  37.936  14.508
52369W        W13823   8.227   8.674  12.962
52370W        W13824  44.382  37.989  11.983
52371W        W13825  12.764  23.103   3.232
52372W        W13826  17.100  12.188   3.386
52373W        W13827   2.949  12.837   3.209
52374W        W13828   5.326  35.467   1.922
52375W        W13829  41.424  15.210   4.835
52376W        W13830  38.508   5.209  14.407
52377W        W13831  27.133  27.544   2.811
52378W        W13832  17.587  40.815  12.870
52379W        W13833  19.573  24.662   4.183
52380W        W13834  17.200  35.513  11.547
52381W        W13835  13.670  41.378   0.932
52382W        W13836  12.681  25.066  13.996
52383W        W13837   9.272  35.365   4.618
52384W        W13838  22.515  39.536  12.066
52385W        W13839  21.672  33.042   4.174
52386W        W13840  39.515  39.022  12.537
52387W        W13841  30.417  40.986   0.911
52388W        W13842  22.689  12.144  14.804
52389W        W13843  10.676  11.793   1.256
52390W        W13844  11.673  20.582  12.462
52391W        W13845  39.983  15.195   3.224
52392W        W13846  20.694   9.651   3.726
52393W        W13847  34.071  28.675  13.879
52394W        W13848  20.115  11.789   3.224
52395W        W13849  22.634  27.979  11.009
52396W        W13850  35.406  38.043   3.356
52397W        W13851  41.804  13.619  11.884
52398W        W13852  18.689  31.056  12.993
52399W        W13853   5.371  14.720   3.154
52400W        W13854  23.235   5.772   2.195
52401W        W13855   0.248  21.076  10.439
52402W        W13856  19.222  22.085   4.326
52403W        W13857  25.620  41.820  13.383
52404W        W13858  27.151  13.200   0.271
52405W        W13859   2.320  33.382   3.147
52406W        W13860  20.125  30.634  10.065
52407W        W13861  22.211   0.815   0.459
52408W        W13862   7.891  40.816   4.761
52409W        W13863  21.262  39.862   1.354
52410W        W13864  34.502  16.190   2.818
52411W        W13865   0.377   7.777   4.139
52412W        W13866  39.542  27.508   1.411
52413W        W13867  25.564  36.909  13.052
52414W        W13868  40.907  19.060   3.198
52415W        W13869  35.554   4.711  14.792
52416W        W13870  41.974  36.031  12.444
52417W        W13871  41.932  43.789   1.348
52418W        W13872  15.796  42.001  12.905
52419W        W13873  15.622  42.969  11.016
52420W        W13874  38.836  19.654  10.150
52421W        W13875  13.838  33.527  14.025
52422W        W13876  19.267  32.103  13.440
52423W        W13877   9.650  11.742   0.926
52424W        W13878  25.141   9.333   4.163
52425W        W13879  43.283   5.782   0.791
52426W        W13880  16.238  41.352  14.848
52427W        W13881  24.624  31.451   3.280
52428W        W13882  39.515  20.202  13.917
52429W        W13883  15.622  41.470  12.005
52430W        W13884  25.025  24.004  12.478
52431W        W13885  43.980   0.953   0.804
52432W        W13886  24.048   2.728  14.344
52433W        W13887  34.610  42.908   1.220
52434W        W13888  15.250  32.501  11.982
52435W        W13889  17.620  21.131   0.765
52436W        W13890   5.352  24.707   3.190
52437W        W13891  42.978   2.873  14.828
52438W        W13892  15.660  26.681  11.042
52439W        W13893  18.093  34.559   4.258
52440W        W13894  11.332  12.338  12.416
52441W        W13895  27.629  25.157  11.961
52442W        W13896  41.388  30.947  12.427
52443W        W13897  39.510  44.973  13.458
52444W        W13898  18.758  38.522  12.095
52445W        W13899  37.066  38.498  12.028
52446W        W13900  23.629   0.796   4.212
52447W        W13901  11.202  27.185   1.303
52448W        W13902   5.428  18.257   4.613
52449W        W13903   2.240  38.979   1.742
52450W        W13904  35.880  32.983   3.700
52451W        W13905  42.908  29.945  11.101
52452W        W13906  39.917  41.526  10.554
52453W        W13907  15.191  34.866  11.089
52454W        W13908  23.986  38.920   4.344
52455W        W13909  25.577   1.750   1.413
52456W        W13910  27.563   5.866  14.907
52457W        W13911   1.963   2.917   0.326
52458W        W13912  39.511  24.015  12.044
52459W        W13913  29.430  10.821  10.073
52460W        W13914   0.986  14.134  10.552
52461W        W13915  37.081  35.584   3.241
52462W        W13916   2.400  21.200  12.531
52463W        W13917   0.415   0.344   3.371
52464W        W13918   8.251  37.442   3.243
52465W        W13919  19.182  35.998  12.389
52466W        W13920  17.791  18.211  13.993
52467W        W13921  18.181   2.308  13.044
52468W        W13922  23.525  40.346   0.482
52469W        W13923  26.564  37.019   2.179
52470W        W13924  32.959  25.173  13.481
52471W        W13925  19.273  12.273   4.284
52472W        W13926   1.460  31.624   3.708
52473W        W13927  38.558  36.558  10.443
52474W        W13928  35.077   4.940   3.775
52475W        W13929   0.795   5.256  10.624
52476W        W13930  21.549  43.454  11.404
52477W        W13931  20.035   3.893   4.810
52478W        W13932  20.207  22.124  13.861
52479W        W13933  28.468  36.402  11.932
52480W        W13934  36.035  19.577  14.773
52481W        W13935  34.418   7.276   4.612
52482W        W13936  40.986  16.197  13.809
52483W        W13937  14.598  23.167  14.340
52484W        W13938   8.229  13.255  14.945
52485W        W13939  23.729  20.707   4.118
52486W        W13940   7.265  41.803  11.966
52487W        W13941   7.327  18.674   2.387
52488W        W13942  21.704  12.730   1.892
52489W        W13943   6.916  15.589  12.484
52490W        W13944  13.668  29.430   0.403
52491W        W13945  10.786  33.055   0.341
52492W        W13946  11.690  37.338   3.288
52493W        W13947  16.786  20.622   0.361
52494W        W13948  34.890  22.670  11.124
52495W        W13949  22.206  39.849   3.741
52496W        W13950   8.807   9.210  12.085
52497W        W13951  37.898  12.354   1.242
52498W        W13952  16.075  32.615   2.854
52499W        W13953  35.432  31.059   3.377
52500W        W13954  18.069   2.814  11.576
52501W        W13955  20.631  43.342   1.932
52502W        W13956   8.705  10.342  14.956
52503W        W13957   4.935  16.110  11.976
52504W        W13958   7.743   3.319   5.189
52505W        W13959  19.097  44.002   2.667
52506W        W13960  43.886   6.889  12.376
52507W        W13961  10.684  30.119  11.050
52508W        W13962  29.049  38.897  11.021
52509W        W13963   7.239   8.358  13.412
52510W        W13964   5.883  34.390  14.996
52511W        W13965  17.159  36.022  12.942
52512W        W13966   5.731   1.954  12.946
52513W        W13967  41.043  18.140   1.227
52514W        W13968   0.378  39.957  10.624
52515W        W13969   0.911  35.490   4.288
52516W        W13970   1.376  44.925  13.058
52517W        W13971   3.230  37.369   4.258
52518W        W13972  22.637  19.749  14.469
52519W        W13973   6.209  10.834   4.698
52520W        W13974  37.993  38.851  14.765
52521W        W13975  12.651  10.704   2.322
52522W        W13976   8.812  14.799   1.849
52523W        W13977  31.144  19.178   4.800
52524W        W13978  29.956  43.977   3.832
52525W        W13979  31.116  12.800  14.325
52526W        W13980   4.446  14.227   4.196
52527W        W13981  18.203  40.482  14.836
52528W        W13982  35.901  31.566   4.749
52529W        W13983  14.741  31.974   2.706
52530W        W13984  28.943  26.599  11.594
52531W        W13985   6.297   0.910  13.968
52532W        W13986  34.408  20.723  10.565
52533W        W13987  36.039  12.626   2.412
52534W        W13988  11.270  34.072   1.379
52535W        W13989  14.184  38.063  13.940
52536W        W13990  38.415  30.615  12.876
52537W        W13991  41.510  27.618   0.303
52538W        W13992  25.021  16.281   0.385
52539W        W13993  32.886  36.011   2.234
52540W        W13994   5.266  35.396   2.194
52541W        W13995  13.122  16.076  11.389
52542W        W13996   0.816  36.055   2.325
52543W        W13997  10.638  30.915  14.284
52544W        W13998  13.218  23.167   5.298
52545W        W13999  23.600  31.441  12.504
52546W        W14000  20.236  29.082  11.937
52547W        W14001  32.934  19.693   3.798
52548W        W14002  24.716  34.412   2.671
52549W        W14003  11.749  11.680  12.478
52550W        W14004  41.848  16.296  13.318
52551W        W14005  39.482  16.250  14.811
52552W        W14006  39.358  19.043   2.729
52553W        W14007  41.379  37.858   0.451
52554W        W14008  39.862  20.119  14.516
52555W        W14009  12.756  37.438  11.398
52556W        W14010  36.523  31.417   3.869
52557W        W14011  19.586  43.921  12.867
52558W        W14012  42.007  12.178   0.428
52559W        W14013  36.015   4.234  12.004
52560W        W14014  23.241   6.209   2.280
52561W        W14015  31.590   9.688   1.342
52562W        W14016  37.832   1.437   4.130
52563W        W14017  21.574  38.910   4.155
52564W        W14018  30.129  41.452  11.552
52565W        W14019  34.443  36.496  12.541
52566W        W14020  39.445  29.611  10.545
52567W        W14021  33.487   0.344   3.709
52568W        W14022  40.425  35.403   3.821
52569W        W14023   0.744  19.573  11.948
52570W        W14024  14.734  17.115   2.862
52571W        W14025  31.901  33.906  14.767
52572W        W14026   0.891  19.106   3.313
52573W        W14027  23.506  43.497  10.463
52574W        W14028  11.786   4.790  10.048
52575W        W14029  14.787  36.089  13.839
52576W        W14030  28.440  41.412  14.946
52577W        W14031  31.121  26.148   1.435
52578W        W14032  31.540  32.101   4.280
52579W        W14033  22.625   1.403  12.946
52580W        W14034  12.229  20.226  14.387
52581W        W14035  27.964  10.672  14.993
52582W        W14036  13.224  25.216   1.433
52583W        W14037  30.165  27.575  13.831
52584W        W14038  35.561   0.472   3.724
52585W        W14039  11.704  38.957  13.355
52586W        W14040  20.674  31.083  11.506
52587W        W14041  40.514  40.988   4.271
52588W        W14042   5.902  13.769   1.387
52589W        W14043  40.841  32.542  14.512
52590W        W14044   1.834  31.991  11.443
52591W        W14045  35.896  23.062  12.846
52592W        W14046  33.441   0.972  12.086
52593W        W14047  15.596  43.861  12.839
52594W        W14048  26.685   7.401   3.191
52595W        W14049   0.964   4.802  10.024
52596W        W14050  39.363   2.750  12.010
52597W        W14051  39.473  44.403  11.904
52598W        W14052   1.838  34.409   3.838
52599W        W14053   2.898  41.904   1.289
52600W        W14054   2.308   6.226  11.086
52601W        W14055  41.466  39.522  11.922
52602W        W14056  39.515  41.492  12.951
52603W        W14057   8.691  21.572   1.850
52604W        W14058   1.807  32.439   4.683
52605W        W14059  18.767  37.910  14.412
52606W        W14060  31.145  34.497   3.828
52607W        W14061  23.019  11.743   3.692
52608W        W14062  16.201  24.616   3.705
52609W        W14063  12.182  12.752   0.366
52610W        W14064  20.049  21.208   0.934
52611W        W14065  36.582  33.586  12.536
52612W        W14066  32.074  44.798  12.868
52613W        W14067  25.122  39.929   2.686
52614W        W14068  26.646  36.878   4.713
52615W        W14069  42.490  29.574  14.807
52616W        W14070  20.072   6.855  12.443
52617W        W14071   4.779  38.823  13.911
52618W        W14072   9.356  13.204   2.677
52619W        W14073  39.852   9.660  13.996
52620W        W14074  44.870  39.505   0.812
52621W        W14075   2.330   9.185  14.013
52622W        W14076   7.216   2.815  12.049
52623W        W14077  42.885  35.962   1.754
52624W        W14078  14.777  37.840   4.598
52625W        W14079  13.663   4.351  13.946
52626W        W14080  44.463   0.472   3.841
52627W        W14081  17.131  26.097   4.310
52628W        W14082  28.099  17.216  12.935
52629W        W14083  14.306  31.461  12.357
52630W        W14084  42.293  44.925   4.125
52631W        W14085  24.633   7.171   4.147
52632W        W14086   4.272  31.556  13.006
52633W        W14087   8.333  32.078  14.891
52634W        W14088  29.534  24.077  12.843
52635W        W14089  29.108   3.391   2.419
52636W        W14090  17.297  20.670   3.711
52637W        W14091  12.285   7.385  11.976
52638W        W14092  34.383  14.753  12.478
52639W        W14093   0.928  43.431   2.854
52640W        W14094  13.304  41.536  13.035
52641W        W14095  28.110   0.924   2.342
52642W        W14096  15.694  30.920   2.678
52643W        W14097  29.111   2.453   4.206
52644W        W14098   8.898  28.483  11.073
52645W        W14099  34.033   7.771  14.416
52646W        W14100  44.925  41.343   3.711
52647W        W14101  14.799  12.152   3.222
52648W        W14102  12.307  40.356  11.967
52649W        W14103  10.809  24.189  11.958
52650W        W14104  21.224  17.625   1.282
52651W        W14105   7.807  28.014   3.764
52652W        W14106  15.578  37.057  13.406
52653W        W14107  10.166  34.930  10.130
52654W        W14108  38.413  17.226  13.319
52655W        W14109  26.093  16.111   0.277
52656W        W14110  36.904  37.963   4.186
52657W        W14111   5.245  13.283   3.871
52658W        W14112  34.031  18.092  14.016
52659W        W14113  22.746  38.507   0.794
52660W        W14114  11.774  29.928  11.554
52661W        W14115  41.803  24.210  10.505
52662W        W14116   3.838  13.175   3.204
52663W        W14117   7.767  14.658  12.832
52664W        W14118   5.269  10.680   3.684
52665W        W14119   9.255  24.224  11.533
52666W        W14120   6.258  26.092  11.980
52667W        W14121  10.689  24.479  13.853
52668W        W14122   7.317  26.132  11.411
52669W        W14123  27.654  23.006  11.864
52670W        W14124   5.787  14.150  11.009
52671W        W14125  19.281  35.883  11.959
52672W        W14126  26.972  40.546   4.322
52673W        W14127  42.878  32.096  11.491
52674W        W14128  13.616  38.557   0.788
52675W        W14129  42.870   8.672   9.984
52676W        W14130  41.007  28.526   1.361
52677W        W14131   2.797  18.106   1.759
52678W        W14132  42.875  19.767   1.278
52679W        W14133   4.831  24.990  12.471
52680W        W14134  26.671  36.939   3.318
52681W        W14135  35.367  18.289   2.336
52682W        W14136  10.706  31.447  11.395
52683W        W14137  40.389  34.455   1.298
52684W        W14138  26.583  18.255  10.631
52685W        W14139  30.943   4.908  12.863
52686W        W14140   7.881  25.140  14.804
52687W        W14141   9.725  24.552   1.352
52688W        W14142  36.546   3.785  14.346
52689W        W14143  18.263  26.648   0.844
52690W        W14144  13.719   4.298  12.886
52691W        W14145  25.616  35.082   2.849
52692W        W14146  34.426  43.503  14.952
52693W        W14147  41.536  21.108   2.342
52694W        W14148  30.441  18.776  14.850
52695W        W14149  43.967   7.838   1.413
52696W        W14150   4.323  35.558  14.505
52697W        W14151   8.739  25.185   3.307
52698W        W14152   7.682  23.680   4.760
52699W        W14153  15.658   3.251   2.413
52700W        W14154  34.947  25.699  11.005
52701W        W14155  34.461  26.510   2.278
52702W        W14156   0.333   7.809  13.053
52703W        W14157  38.391  35.106  12.404
52704W        W14158  33.876  26.022  14.964
52705W        W14159  42.322  25.688  12.993
52706W        W14160  10.249  20.748   4.625
52707W        W14161  44.353   9.718   2.372
52708W        W14162  28.085  29.443  11.497
52709W        W14163  20.164  26.061  13.841
52710W        W14164  14.123  24.149   3.227
52711W        W14165  29.663  24.164  13.508
52712W        W14166   0.929  17.095   4.670
52713W        W14167  10.217   6.250  14.372
52714W        W14168  38.423   0.340   0.275
52715W        W14169  14.104  12.310  14.898
52716W        W14170   4.926  33.939  14.926
52717W        W14171  42.911   3.369  12.364
52718W        W14172  20.144  23.726  13.402
52719W        W14173  21.527   9.231   3.830
52720W        W14174  23.705   2.923   1.738
52721W        W14175  34.058  40.310   4.626
52722W        W14176   8.672   2.826   1.731
52723W        W14177  36.546  23.681   0.271
52724W        W14178  11.268  42.498   3.745
52725W        W14179   4.806  12.166  13.941
52726W        W14180  40.420  44.263   0.912
52727W        W14181  12.133   5.308   1.816
52728W        W14182  24.498  39.865   1.727
52729W        W14183  11.311  28.640   0.390
52730W        W14184   9.270   9.325  11.959
52731W        W14185  28.083   3.289   3.636
52732W        W14186  25.165  30.449  14.887
52733W        W14187  16.681  35.570  13.815
52734W        W14188  12.203   6.695   0.839
52735W        W14189  22.139  28.966  11.566
52736W        W14190   4.409  19.198  13.493
52737W        W14191   9.363  10.678   2.683
52738W        W14192  22.128   0.267   2.802
52739W        W14193   4.939   9.856  13.929
52740W        W14194  34.393   3.822  13.020
52741W        W14195  18.570  25.157   3.725
52742W        W14196  36.422  14.100   3.262
52743W        W14197  18.634  25.030   2.857
52744W        W14198  21.218  23.118   0.350
52745W        W14199  17.668  44.467  14.501
52746W        W14200   2.458  24.125   3.213
52747W        W14201  22.036  32.962   4.185
52748W        W14202  31.059  16.771  11.117
52749W        W14203  27.508   4.846  14.992
52750W        W14204  20.166  40.436  14.761
52751W        W14205   1.965  42.874   0.733
52752W        W14206  39.025  20.672   2.771
52753W        W14207  27.609  34.055  13.979
52754W        W14208  28.668  37.877  13.810
52755W        W14209   4.900  32.441   0.360
52756W        W14210  22.133  23.189  11.109
52757W        W14211  15.208  12.138   2.896
52758W        W14212  39.440   8.377  10.537
52759W        W14213  39.435  11.312   0.453
52760W        W14214   1.898  30.450  14.862
52761W        W14215  20.119  36.908   3.146
52762W        W14216   3.733  39.416   2.874
52763W        W14217  44.759  27.615   2.893
52764W        W14218   6.403  37.579   5.176
52765W        W14219  22.692  13.815   3.789
52766W        W14220  32.967   5.203  14.424
52767W        W14221  44.004  37.842  11.966
52768W        W14222  44.919  42.907   0.320
52769W        W14223  11.630  25.651   0.340
52770W        W14224   1.843  29.016  14.861
52771W        W14225  22.605  19.095   2.191
52772W        W14226  25.993  21.755  14.332
52773W        W14227  18.690  19.220   0.444
52774W        W14228   1.475   2.380   0.297
52775W        W14229  25.182   6.215   2.222
52776W        W14230   1.881  22.685   1.333
52777W        W14231   3.781   3.325   5.220
52778W        W14232  17.244  14.310  14.292
52779W        W14233  38.376  38.516  12.042
52780W        W14234   2.840   9.706  12.864
52781W        W14235   3.812  32.538  14.306
52782W        W14236  38.413  42.476  14.783
52783W        W14237   2.257   5.813  13.353
52784W        W14238  28.952  18.638  11.592
52785W        W14239  38.961  41.935  13.986
52786W        W14240  34.047   8.835  13.804
52787W        W14241  33.013  21.542   0.728
52788W        W14242  14.688  12.273  12.413
52789W        W14243   2.962  30.087   1.715
52790W        W14244  35.504  44.469  10.951
52791W        W14245  24.586  32.068  12.919
52792W        W14246  44.804  35.081  14.803
52793W        W14247   1.335   8.735  13.999
52794W        W14248  31.432   8.799  14.409
52795W        W14249  12.126  21.659  14.772
52796W        W14250  23.591  39.547  14.777
52797W        W14251  19.080  36.913  11.070
52798W        W14252  18.282  21.595   4.713
52799W        W14253  33.050  21.253   2.403
52800W        W14254  29.000   6.800   0.294
52801W        W14255  35.468  18.072  11.088
52802W        W14256  36.532  19.107  13.327
52803W        W14257  34.994   2.790   1.743
52804W        W14258  36.081  23.198  10.550
52805W        W14259  19.683  10.180  11.441
52806W        W14260  18.269  28.563   3.285
52807W        W14261  13.749  19.258   3.770
52808W        W14262   4.276  33.398  12.828
52809W        W14263  37.531  30.913  13.945
52810W        W14264  34.908  25.566  13.928
52811W        W14265  34.074   3.802   3.653
52812W        W14266  28.934   7.699  10.993
52813W        W14267  20.137   8.809  13.913
52814W        W14268   6.399  32.520   2.837
52815W        W14269  31.511  34.454  12.882
52816W        W14270  24.620   8.389   4.129
52817W        W14271  32.032  22.130   0.786
52818W        W14272  36.088  25.538   0.888
52819W        W14273  12.172  41.841   3.181
52820W        W14274   8.226  41.908  13.394
52821W        W14275   6.758  42.282   3.314
52822W        W14276  27.525  39.865  13.888
52823W        W14277  16.688  24.048   1.433
52824W        W14278  42.025  18.657  14.476
52825W        W14279  25.140   3.745   5.131
52826W        W14280  18.114   5.916   3.777
52827W        W14281  38.494  43.811   4.737
52828W        W14282  32.400   8.804   4.796
52829W        W14283   3.305   7.863  11.495
52830W        W14284   2.890  32.424   4.291
52831W        W14285  20.094   0.907   1.390
52832W        W14286   0.438   1.248   1.295
52833W        W14287  32.542   7.292   5.200
52834W        W14288  22.154   9.189   5.292
52835W        W14289   1.409  19.244   1.869
52836W        W14290  41.480  17.658   1.441
52837W        W14291  43.820  27.553   3.386
52838W        W14292  14.785   4.885  10.891
52839W        W14293  44.908  28.625   1.288
52840W        W14294  38.560   0.819  13.048
52841W        W14295  26.668  10.747   3.645
52842W        W14296  21.741   1.831   3.167
52843W        W14297  39.902  36.978  13.001
52844W        W14298  20.250   4.712  13.513
52845W        W14299  39.441   2.786  10.643
52846W        W14300  28.102  42.903   2.745
52847W        W14301  21.555   3.723  12.561
52848W        W14302  20.231  33.511   4.600
52849W        W14303  11.324  14.267   4.660
52850W        W14304  24.482   9.787  11.489
52851W        W14305   8.345   4.780  14.829
52852W        W14306  41.833  16.242   0.381
52853W        W14307   0.456  17.254  12.530
52854W        W14308  26.114  35.397   3.847
52855W        W14309  43.796   5.769  11.549
52856W        W14310  40.547  30.472   4.599
52857W        W14311  16.133  36.498  13.984
52858W        W14312  25.562  32.053  13.462
52859W        W14313  40.013  26.994   0.304
52860W        W14314  29.453  24.139  14.335
52861W        W14315  42.945   3.922   2.306
52862W        W14316  10.296  20.641  10.429
52863W        W14317  29.102  28.455   1.896
52864W        W14318  12.200  35.473   2.679
52865W        W14319  36.921  29.978  13.945
52866W        W14320  22.737  44.889   4.817
52867W        W14321   5.796  26.170  13.343
52868W        W14322  22.637  18.745   2.714
52869W        W14323  41.861  23.104   1.790
52870W        W14324  12.810   4.286  11.586
52871W        W14325  12.357  41.379  13.952
52872W        W14326   0.276  33.499   2.682
52873W        W14327  36.922  41.909  13.359
52874W        W14328   8.784  31.988  14.022
52875W        W14329  41.786  36.980   3.207
52876W        W14330  42.913  23.209   4.331
52877W        W14331   8.817  21.026   4.216
52878W        W14332   0.417  16.258  13.049
52879W        W14333   0.396  41.472   1.890
52880W        W14334  30.049  33.097   2.400
52881W        W14335  15.786  26.067   1.390
52882W        W14336  22.148   7.171   5.169
52883W        W14337  23.220   7.875  11.888
52884W        W14338   2.446  40.918   2.388
52885W        W14339  27.118  41.520   2.363
52886W        W14340  27.013  28.929   4.657
52887W        W14341   7.254  31.546   3.828
52888W        W14342  31.900   7.290   0.251
52889W        W14343  32.533  31.057  11.448
52890W        W14344  24.149  17.780  11.485
52891W        W14345  28.069  37.413   4.208
52892W        W14346   4.270  18.138  14.873
52893W        W14347  30.928   4.372  11.545
52894W        W14348  11.772  23.188  10.003
52895W        W14349  14.243  40.840   5.310
52896W        W14350  40.859   1.409  10.958
52897W        W14351  17.712  43.275  12.827
52898W        W14352   2.240  19.699  14.910
52899W        W14353  38.523  14.119   4.144
52900W        W14354   4.750  20.137   4.792
52901W        W14355   9.664  26.703  14.497
52902W        W14356  18.742  35.370  10.892
52903W        W14357  24.547  40.800  14.487
52904W        W14358  16.751  30.476  14.429
52905W        W14359  32.520  23.083   1.788
52906W        W14360  33.006  32.111  13.058
52907W        W14361  18.616  34.530  10.603
52908W        W14362  35.879  41.481   2.190
52909W        W14363  13.194   7.207   4.292
52910W        W14364  24.538  16.193  14.873
52911W        W14365   0.384  38.360  11.973
52912W        W14366  39.383   1.314  12.484
52913W        W14367  28.560   9.324  13.851
52914W        W14368   5.709  13.683  11.100
52915W        W14369  41.896  44.395  12.073
52916W        W14370  35.397   3.913   3.259
52917W        W14371  21.757  32.983  14.378
52918W        W14372  27.518  40.984  12.523
52919W        W14373  28.532  33.555   3.768
52920W        W14374   8.723   9.660   0.389
52921W        W14375  21.118  12.136   1.728
52922W        W14376  43.777   9.307   0.383
52923W        W14377   1.369  24.548   4.639
52924W        W14378   3.859  28.441  13.976
52925W        W14379  10.653   9.355  10.922
52926W        W14380  36.937  10.222   0.382
52927W        W14381  32.397  31.582   4.260
52928W        W14382  28.527   9.232  14.408
52929W        W14383  36.038  38.437   3.636
52930W        W14384  38.033   6.366  14.326
52931W        W14385  21.717   2.859  13.014
52932W        W14386  17.698  28.095   2.842
52933W        W14387  20.626  38.921  13.387
52934W        W14388  29.126   6.831  11.004
52935W        W14389  11.771  38.056   1.371
52936W        W14390  33.015  28.030  12.088
52937W        W14391  39.996  19.590  10.944
52938W        W14392  12.167  37.026  14.427
52939W        W14393  20.585  30.499  12.993
52940W        W14394  26.600   3.763  12.870
52941W        W14395  38.470   3.297  10.144
52942W        W14396  42.451  39.981   3.653
52943W        W14397  16.723   5.888  13.391
52944W        W14398  36.563  22.180   4.718
52945W        W14399  26.479  36.003   3.253
52946W        W14400  31.013  16.132  12.360
52947W        W14401   5.842  36.526  12.532
52948W        W14402  27.031  39.058   4.315
52949W        W14403   2.414  23.700   0.911
52950W        W14404  16.610  25.594   3.235
52951W        W14405  24.550  23.229  10.472
52952W        W14406  21.757   9.818   3.803
52953W        W14407  17.094   2.847   4.115
52954W        W14408  11.787  20.636   1.262
52955W        W14409  16.657  41.292   4.122
52956W        W14410  41.303  24.538   4.682
52957W        W14411   8.163  42.392  11.444
52958W        W14412  19.701  32.509   0.299
52959W        W14413   3.885   4.410   0.878
52960W        W14414   6.703  38.511   2.668
52961W        W14415   9.362  43.895  14.945
52962W        W14416  42.305  36.403  11.886
52963W        W14417  31.522   8.832  13.018
52964W        W14418  40.838  13.612  14.333
52965W        W14419   5.319  38.059  12.402
52966W        W14420  29.086  42.799   0.272
52967W        W14421  22.083   8.177  12.939
52968W        W14422   7.223  19.685  11.934
52969W        W14423  41.921   4.865   1.917
52970W        W14424   2.966  26.994   0.367
52971W        W14425  19.734   6.796   2.760
52972W        W14426  16.242  20.113  12.405
52973W        W14427  27.993  26.609  11.087
52974W        W14428  40.505  15.111  11.565
52975W        W14429  19.049  39.041  11.488
52976W        W14430  10.662   7.843   1.905
52977W        W14431  10.192  28.469   1.854
52978W        W14432  37.506   1.385   0.448
52979W        W14433  29.437  40.319  12.883
52980W        W14434  21.551  34.462  14.293
52981W        W14435  29.148  24.554   0.441
52982W        W14436  33.989  16.667   1.827
52983W        W14437  13.204  16.693   1.328
52984W        W14438  23.650  15.266  13.029
52985W        W14439  27.006  17.564  14.394
52986W        W14440  41.530   6.836  10.510
52987W        W14441   6.407   3.294   4.118
52988W        W14442  44.792  17.644  14.482
52989W        W14443  10.328  30.625  12.340
52990W        W14444  21.715  40.497   1.815
52991W        W14445  40.838  23.145  10.941
52992W        W14446  43.337  38.865  11.888
52993W        W14447   7.189   3.361   1.772
52994W        W14448  22.596  16.593  10.573
52995W        W14449  43.982  16.626   0.436
52996W        W14450  15.585  23.654  10.535
52997W        W14451  25.083  11.235   0.843
52998W        W14452  39.406   5.226  11.985
52999W        W14453   6.695  23.691   0.747
53000W        W14454  34.902   4.797  11.445
53001W        W14455   9.151  20.627   1.339
53002W        W14456   5.194  15.113   4.739
53003W        W14457  35.461  13.280  11.101
53004W        W14458  27.089  41.498  13.004
53005W        W14459  13.300  13.783  12.847
53006W        W14460  30.425  10.712   1.873
53007W        W14461  43.840  34.409  14.481
53008W        W14462   3.350  11.358  11.475
53009W        W14463   0.317  44.785  13.345
53010W        W14464  10.713  25.648   3.194
53011W        W14465  29.025  19.752  10.903
53012W        W14466  34.386  22.556   1.789
53013W        W14467  40.815  27.473   1.407
53014W        W14468  23.233  36.916  12.950
53015W        W14469  37.033  44.372   1.215
53016W        W14470  36.033  23.147   1.881
53017W        W14471  41.461  22.208  10.952
53018W        W14472  17.219  14.774   2.364
53019W        W14473  33.076   3.950   1.778
53020W        W14474  39.054  29.500  11.099
53021W        W14475  36.570  19.770  12.077
53022W        W14476  44.436  28.509  13.455
53023W        W14477   1.917  15.713  11.386
53024W        W14478   7.668  10.316   3.280
53025W        W14479  16.134   1.837  11.096
53026W        W14480   0.382  39.843  13.819
53027W        W14481  29.022  36.867   4.165
53028W        W14482   2.881   4.339   2.880
53029W        W14483  29.598  26.578   4.139
53030W        W14484  34.875  17.604  12.545
53031W        W14485  33.097  40.919  14.286
53032W        W14486  41.847  17.167  12.386
53033W        W14487  16.176  23.021  14.347
53034W        W14488   6.720  14.770   2.799
53035W        W14489  22.021  18.203  12.073
53036W        W14490  22.122   6.188   2.831
53037W        W14491   1.830   9.331  13.838
53038W        W14492  30.618  19.075  13.545
53039W        W14493  25.519  29.429  12.873
53040W        W14494  10.713   8.202  10.490
53041W        W14495  14.689   6.867   2.742
53042W        W14496  25.976   0.889  12.848
53043W        W14497  44.800  21.074  10.573
53044W        W14498  44.941  12.199  10.633
53045W        W14499  38.971  34.389   4.192
53046W        W14500  26.124  23.176  13.379
53047W        W14501   5.433  44.795  12.090
53048W        W14502  34.544  17.110  11.868
53049W        W14503  16.628  43.860   3.782
53050W        W14504  15.793  33.500  10.442
53051W        W14505  39.405  32.560   4.795
53052W        W14506  22.108  19.771  13.950
53053W        W14507  10.864   0.798   4.120
53054W        W14508  42.319   4.294   3.229
53055W        W14509   4.306  32.465  14.793
53056W        W14510  43.782  24.171  14.995
53057W        W14511  27.462   0.859  12.345
53058W        W14512  24.198  19.130   1.840
53059W        W14513  14.274   0.296  11.606
53060W        W14514  44.328  43.297   0.757
53061W        W14515  40.802  18.237  11.922
53062W        W14516  32.593  33.983  13.034
53063W        W14517  43.772   9.290   1.353
53064W        W14518  43.766  20.628  10.994
53065W        W14519  21.025  38.444   3.225
53066W        W14520  37.963  29.525   1.296
53067W        W14521  11.629  23.190  10.988
53068W        W14522  20.743  33.423  13.516
53069W        W14523   7.318  15.105  10.514
53070W        W14524  11.320  10.655   1.322
53071W        W14525   7.318  24.683  13.475
53072W        W14526  40.445   6.326   3.167
53073W        W14527  42.441  24.100   3.269
53074W        W14528  39.991  25.660   1.262
53075W        W14529  28.078  12.641   4.245
53076W        W14530  40.389  10.240   4.626
53077W        W14531  36.062  41.037   3.686
53078W        W14532  43.014  11.255  13.384
53079W        W14533  44.392   8.395   2.788
53080W        W14534   3.427  10.763  11.483
53081W        W14535  42.961   0.392   0.923
53082W        W14536  31.993  27.540  12.947
53083W        W14537  21.701  32.402   1.418
53084W        W14538   6.695   9.369   1.798
53085W        W14539   2.230  22.231  11.038
53086W        W14540  18.164  26.150   1.289
53087W        W14541  23.005   3.281   1.705
53088W        W14542  32.918  17.751  13.939
53089W        W14543  42.417  25.096   0.379
53090W        W14544  41.336  17.266   3.820
53091W        W14545   5.874  36.457  10.585
53092W        W14546  29.951  17.714   0.424
53093W        W14547  10.257  39.418   4.776
53094W        W14548  34.372  34.487   3.179
53095W        W14549  26.686  11.299  11.462
53096W        W14550  20.706  17.285  14.471
53097W        W14551  35.095  27.514  12.908
53098W        W14552  10.184   5.726  11.874
53099W        W14553   6.426  33.436  12.522
53100W        W14554  41.805  43.889   2.217
53101W        W14555   5.710   0.482  10.551
53102W        W14556  42.350   0.932  14.859
53103W        W14557  17.744  15.620   0.790
53104W        W14558  24.636   0.854  14.389
53105W        W14559  31.561  30.000   2.784
53106W        W14560  17.639  43.401   3.382
53107W        W14561  13.691  13.266   2.735
53108W        W14562  19.071  10.730  12.571
53109W        W14563   2.777   1.976   0.338
53110W        W14564  24.033  35.085   2.859
53111W        W14565  31.645   5.719   1.890
53112W        W14566  26.145  17.622  11.537
53113W        W14567  36.901  25.207   0.864
53114W        W14568   4.720  42.302  14.292
53115W        W14569  10.733  38.460   4.612
53116W        W14570  33.493  44.348   0.757
53117W        W14571  25.080  36.377   3.664
53118W        W14572  38.869   2.426  10.522
53119W        W14573  23.586  12.207  13.418
53120W        W14574  18.763  29.023  14.802
53121W        W14575   6.331   9.303  10.479
53122W        W14576  16.264  38.560   3.337
53123W        W14577  40.820   3.885   1.224
53124W        W14578  40.447   0.834  13.857
53125W        W14579  22.617  32.135  14.477
53126W        W14580  37.449  33.029  10.441
53127W        W14581   1.836  38.389  14.424
53128W        W14582  29.642   4.835   3.648
53129W        W14583  12.801  27.638   2.692
53130W        W14584  24.074  14.813  12.885
53131W        W14585  44.431   9.709   0.348
53132W        W14586  40.049  43.809   4.683
53133W        W14587  32.068  27.045   2.392
53134W        W14588  42.462   1.862   4.282
53135W        W14589   4.746  12.814  10.591
53136W        W14590  38.374  28.637  14.919
53137W        W14591  14.733  12.276  12.091
53138W        W14592  40.459  12.671  11.548
53139W        W14593   6.345  18.182   0.460
53140W        W14594  37.923  43.997  11.035
53141W        W14595  40.992   5.718   2.220
53142W        W14596  11.697  20.040   0.256
53143W        W14597  36.439  26.054   3.237
53144W        W14598  24.515  24.682  12.518
53145W        W14599  33.089  33.924   2.703
53146W        W14600  14.616  37.913   0.754
53147W        W14601  38.846  23.221   1.746
53148W        W14602  39.532  25.629  11.609
53149W        W14603  44.789  16.759  13.450
53150W        W14604  27.522  29.590   3.300
53151W        W14605   2.442   5.804   4.838
53152W        W14606   3.368  31.450  12.875
53153W        W14607   1.314  17.771   4.760
53154W        W14608   1.353  32.634  13.042
53155W        W14609  23.014  43.429   3.644
53156W        W14610  36.068   0.836  12.846
53157W        W14611   3.737  39.958   4.600
53158W        W14612  24.213   1.785  11.863
53159W        W14613  30.439  15.276  11.022
53160W        W14614  32.514  20.738  13.393
53161W        W14615  33.007  27.477  12.870
53162W        W14616  17.629  37.911  12.921
53163W        W14617  35.502  18.113  10.521
53164W        W14618  37.454  29.159   0.303
53165W        W14619  31.951  20.523  11.901
53166W        W14620  44.852  37.359  12.831
53167W        W14621   7.302  39.933  12.869
53168W        W14622   2.348  29.469  11.585
53169W        W14623   6.428  37.357   3.232
53170W        W14624  25.095   8.836  12.347
53171W        W14625  38.508  22.171  14.378
53172W        W14626   8.348  38.908   4.184
53173W        W14627  24.701  25.179  13.522
53174W        W14628   9.167  23.543   3.374
53175W        W14629   3.719  10.848   3.655
53176W        W14630  30.602   1.395  12.975
53177W        W14631  22.136  13.641  10.936
53178W        W14632  39.027  34.050  11.906
53179W        W14633  17.723  35.876   2.891
53180W        W14634   1.247  26.962   0.478
53181W        W14635   5.908  15.618  13.467
53182W        W14636  15.608  36.474   0.914
53183W        W14637  16.592  10.345   1.834
53184W        W14638  24.051  36.569   1.902
53185W        W14639  31.597  23.117  12.990
53186W        W14640   4.767  21.633   2.180
53187W        W14641  31.485  20.038   0.961
53188W        W14642  28.047  16.781  13.874
53189W        W14643  34.517  34.937   4.261
53190W        W14644  11.321  25.704  10.538
53191W        W14645   7.312  23.234  11.036
53192W        W14646  23.517  28.608  10.516
53193W        W14647  22.522   4.286  10.466
53194W        W14648  21.533  44.493  14.421
53195W        W14649   2.243  16.248   0.342
53196W        W14650  43.392  12.671   3.218
53197W        W14651  23.578   0.263  14.779
53198W        W14652   4.337   1.924  12.565
53199W        W14653  22.714  40.441  14.762
53200W        W14654   6.314  18.653  13.318
53201W        W14655  20.614  10.285   0.741
53202W        W14656  43.472  29.453  12.041
53203W        W14657  32.585  16.750  12.876
53204W        W14658  15.616  43.989   2.300
53205W        W14659  41.359  20.039  10.909
53206W        W14660  24.552  37.433   4.692
53207W        W14661  24.583  27.572  14.953
53208W        W14662  27.553  17.267   4.728
53209W        W14663   0.950  10.288   1.894
53210W        W14664  43.998  28.107   2.880
53211W        W14665  27.961  44.473  10.603
53212W        W14666  40.817  36.042  10.429
53213W        W14667  42.367  23.149  14.857
53214W        W14668  41.853   1.887   4.349
53215W        W14669  23.229  32.537  12.509
53216W        W14670  41.354  25.540   1.295
53217W        W14671  35.412  36.416  13.393
53218W        W14672  11.722  13.818  14.976
53219W        W14673  28.593  10.343   1.431
53220W        W14674  40.883  27.032  10.526
53221W        W14675   7.300  26.067  14.362
53222W        W14676  18.777  17.100   3.334
53223W        W14677  10.272   2.858  12.062
53224W        W14678   8.337  13.710  14.502
53225W        W14679  38.065  39.014   1.723
53226W        W14680  24.530   5.784   3.276
53227W        W14681  26.145   2.322  10.429
53228W        W14682  25.514   1.315   2.877
53229W        W14683  29.173  19.741   1.807
53230W        W14684  16.706  37.453  14.856
53231W        W14685  31.907  38.983  13.494
53232W        W14686  42.908  32.565  10.490
53233W        W14687  13.825  33.549  14.321
53234W        W14688  44.779  17.172   0.852
53235W        W14689   8.742  34.485  10.514
53236W        W14690  10.274   3.922  11.514
53237W        W14691  42.832  32.104   2.679
53238W        W14692  19.208  11.145   5.300
53239W        W14693  16.217  31.540  12.036
53240W        W14694  34.937  34.398   0.264
53241W        W14695   7.668  12.735   2.719
53242W        W14696  22.692  43.502  12.943
53243W        W14697  24.078   0.752  13.316
53244W        W14698  30.926   1.338   1.324
53245W        W14699  35.924  28.037  10.951
53246W        W14700  20.589  36.518  14.939
53247W        W14701  37.412   3.401   0.337
53248W        W14702  19.222  20.180  10.596
53249W        W14703   6.781  20.562  11.466
53250W        W14704  43.286  30.060   4.340
53251W        W14705  17.086  32.026   4.636
53252W        W14706   6.693  16.619  13.830
53253W        W14707  42.882  35.950   0.759
53254W        W14708  44.943  25.610   4.134
53255W        W14709  10.145  39.422   1.781
53256W        W14710  41.850   8.352  11.024
53257W        W14711   7.367   1.395  11.857
53258W        W14712   8.279  41.951   4.240
53259W        W14713  39.835   0.379   0.386
53260W        W14714  29.479  20.661  13.893
53261W        W14715  10.310   0.386   4.709
53262W        W14716  28.609  16.766  12.978
53263W        W14717  41.841   7.331  13.044
53264W        W14718  42.361  27.979  13.875
53265W        W14719  27.983  26.666   0.407
53266W        W14720   3.940  34.474   4.187
53267W        W14721  41.292  30.534  11.601
53268W        W14722  10.349  43.997  12.983
53269W        W14723   9.776  16.218  12.823
53270W        W14724  42.505  14.804   0.426
53271W        W14725   4.209  27.634  13.466
53272W        W14726  29.468  10.749   3.689
53273W        W14727  23.603  13.180   2.722
53274W        W14728   0.757  15.758  12.483
53275W        W14729  36.093  17.129  12.421
53276W        W14730   9.791  29.568   1.438
53277W        W14731  10.763  29.566   4.354
53278W        W14732  35.876  12.293   0.243
53279W        W14733  28.073  12.267   0.894
53280W        W14734  38.532  28.001  13.018
53281W        W14735  22.998   8.322  11.471
53282W        W14736  21.235  35.567   1.918
53283W        W14737  13.674   7.363  14.807
53284W        W14738  24.663  28.166  10.979
53285W        W14739  10.752   3.412   2.294
53286W        W14740  19.587  43.979   2.680
53287W        W14741  19.160  24.648   2.725
53288W        W14742  26.106  17.241   2.212
53289W        W14743  21.706  26.209   2.397
53290W        W14744   1.765  25.109   0.851
53291W        W14745  23.053  16.621  13.492
53292W        W14746   4.881  15.310  13.470
53293W        W14747  20.648  19.139  10.644
53294W        W14748  25.525   9.661   3.868
53295W        W14749   0.839  42.327   1.806
53296W        W14750  16.714  10.746   2.724
53297W        W14751  30.927  12.695   0.418
53298W        W14752   5.263  31.433  10.947
53299W        W14753  16.732  37.905  11.993
53300W        W14754  33.561   0.439  12.882
53301W        W14755   8.843  20.190  14.480
53302W        W14756  36.906  18.662   2.323
53303W        W14757  18.745  30.120  11.479
53304W        W14758  14.181  31.998   1.442
53305W        W14759  25.031  37.896   2.899
53306W        W14760   0.901  23.663  13.859
53307W        W14761   3.312  31.019  14.796
53308W        W14762  22.194  43.974   2.730
53309W        W14763  29.479  36.012   2.348
53310W        W14764   2.247  15.121  13.000
53311W        W14765  24.095  43.414   0.736
53312W        W14766  40.929  38.364  13.019
53313W        W14767  18.060  18.720   0.264
53314W        W14768  36.409  28.447  12.057
53315W        W14769  26.116  18.749   0.782
53316W        W14770  39.471  38.426   3.339
53317W        W14771  38.516  10.209   3.764
53318W        W14772   9.313  27.554   0.758
53319W        W14773  15.822   0.890   0.404
53320W        W14774  23.159  12.794   2.383
53321W        W14775  30.526  29.460   0.739
53322W        W14776   2.961  42.778   0.326
53323W        W14777   2.324  21.040   5.306
53324W        W14778   9.778  34.394   2.865
53325W        W14779  22.104  35.466   2.738
53326W        W14780  21.586  42.398   4.230
53327W        W14781   3.854  44.366   0.423
53328W        W14782  16.632   9.835  12.495
53329W        W14783  27.962  17.079  10.626
53330W        W14784  34.590  19.655  12.435
53331W        W14785  13.638  11.133   3.806
53332W        W14786   9.231  22.997   2.201
53333W        W14787  10.715  20.664  14.428
53334W        W14788  28.108  36.960  10.629
53335W        W14789  27.555  22.746   2.883
53336W        W14790  36.360  22.560  11.443
53337W        W14791  41.444   9.165  13.807
53338W        W14792  16.637   7.174   2.787
53339W        W14793   0.273  21.239  12.452
53340W        W14794  15.129   5.890  12.479
53341W        W14795  37.401  16.798  13.485
53342W        W14796  29.609  27.641  14.382
53343W        W14797  10.165  44.307   1.434
53344W        W14798  15.758  39.382  10.948
53345W        W14799  10.139  39.823   3.271
53346W        W14800  41.528  15.778   1.879
53347W        W14801   8.817  23.215  13.029
53348W        W14802  28.523  38.023   1.931
53349W        W14803  36.475   9.763   3.835
53350W        W14804   4.248  22.079  14.010
53351W        W14805  19.053  41.016   3.373
53352W        W14806  20.068  42.498  11.904
53353W        W14807   7.177  41.811  14.412
53354W        W14808  31.139  35.478   4.304
53355W        W14809  27.598   8.775  13.323
53356W        W14810  18.585  39.064   1.875
53357W        W14811  29.136   5.888   3.245
53358W        W14812  14.640  22.206   4.617
53359W        W14813  32.586   6.750  11.127
53360W        W14814  37.997  24.700   3.244
53361W        W14815  28.450  29.663   2.387
53362W        W14816  22.191  30.612  14.774
53363W        W14817  43.868  44.430  10.516
53364W        W14818   7.796  31.106   4.800
53365W        W14819   7.374  44.827  12.505
53366W        W14820  27.529  21.143   0.463
53367W        W14821  21.688  14.150  11.414
53368W        W14822   2.830  42.020  10.549
53369W        W14823  18.683  41.797   4.811
53370W        W14824  31.641  10.208   3.681
53371W        W14825  23.548  24.154   1.375
53372W        W14826  10.779  20.215  12.053
53373W        W14827   1.372  24.051   1.800
53374W        W14828   5.840  44.932  14.979
53375W        W14829  29.650  30.450  11.968
53376W        W14830  33.399  40.539  14.377
53377W        W14831   5.828  26.988  14.812
53378W        W14832  38.869  25.163  11.570
53379W        W14833  44.001   3.821   3.841
53380W        W14834  16.706  19.238   4.131
53381W        W14835  33.470  14.288   0.281
53382W        W14836  34.035  21.204   2.183
53383W        W14837  14.749   0.450  11.858
53384W        W14838  40.916  19.539  12.445
53385W        W14839  19.208  41.320   3.301
53386W        W14840  39.980   8.329  11.883
53387W        W14841  43.942  23.555  12.979
53388W        W14842   3.747   2.789  12.950
53389W        W14843  19.077  27.085  11.573
53390W        W14844  27.584  43.336  11.048
53391W        W14845  36.914  32.444  10.617
53392W        W14846   8.237  25.621   2.338
53393W        W14847  13.696  14.253  11.602
53394W        W14848  12.650  43.335   4.150
53395W        W14849  32.621  20.188  12.879
53396W        W14850  32.035  29.474   4.767
53397W        W14851  31.539  36.482   2.339
53398W        W14852  14.658  10.847  13.467
53399W        W14853  13.267  31.524   1.817
53400W        W14854   0.891  23.089   1.326
53401W        W14855  29.174  29.145   3.710
53402W        W14856   0.784  33.918  13.359
53403W        W14857   2.790   9.284  14.426
53404W        W14858  13.290  23.613  13.402
53405W        W14859  26.178  41.960  14.329
53406W        W14860  19.585  20.604  11.477
53407W        W14861  36.932  40.850   3.243
53408W        W14862  31.450  38.487  10.961
53409W        W14863  16.201   5.432   2.770
53410W        W14864  18.598  22.996   0.835
53411W        W14865  44.452   2.805   1.450
53412W        W14866   0.252   5.886   1.847
53413W        W14867  38.477  26.672  11.595
53414W        W14868  23.582  36.043   2.308
53415W        W14869  36.903   7.817   0.785
53416W        W14870   7.843  33.523  14.885
53417W        W14871  12.612  21.240   2.281
53418W        W14872  43.440  27.596   4.306
53419W        W14873   8.843  18.619  14.820
53420W        W14874  15.622  39.402  12.891
53421W        W14875  23.220   3.221   2.888
53422W        W14876   5.393   7.350   3.700
53423W        W14877  13.165  17.109   3.288
53424W        W14878  22.512  18.103   0.272
53425W        W14879  17.729  32.498   0.417
53426W        W14880  30.038  15.670  11.981
53427W        W14881  22.066  39.951  13.318
53428W        W14882  22.522   3.422   0.815
53429W        W14883   2.347  38.399   1.293
53430W        W14884  26.982   1.738   5.628
53431W        W14885   0.914  15.648   3.777
53432W        W14886  30.512  39.818  11.426
53433W        W14887  41.383  30.530  14.819
53434W        W14888  43.418  21.150  11.975
53435W        W14889  38.982  29.172   0.891
53436W        W14890   4.238  18.788   2.323
53437W        W14891   6.338  20.684   1.795
53438W        W14892  21.079  25.638  10.575
53439W        W14893  29.957  39.036  13.976
53440W        W14894   3.746   6.248   4.167
53441W        W14895   6.384  37.863  13.862
53442W        W14896  25.500  37.858   0.765
53443W        W14897   6.741  44.405   4.216
53444W        W14898  44.944  41.798  13.940
53445W        W14899  11.239  10.648   2.274
53446W        W14900  38.947  17.608  14.992
53447W        W14901  22.610   4.260   2.296
53448W        W14902  37.908  24.521   1.313
53449W        W14903   1.410  15.327   0.830
53450W        W14904  14.673   2.277  12.868
53451W        W14905  16.683  25.552  11.573
53452W        W14906  35.456  32.034   0.286
53453W        W14907  12.126  41.804   1.733
53454W        W14908  32.902   2.815   4.286
53455W        W14909  24.705  10.768   1.332
53456W        W14910   0.403  28.051   0.846
53457W        W14911  37.069   4.215  10.991
53458W        W14912  34.113  15.148  12.549
53459W        W14913  33.607   9.877   0.431
53460W        W14914  37.454   8.829  14.918
53461W        W14915   7.774  17.066   2.410
53462W        W14916  27.685  22.217   2.814
53463W        W14917  20.265  21.523  11.542
53464W        W14918  39.001   9.357  10.105
53465W        W14919  39.534  41.460   2.683
53466W        W14920  32.498  26.180   4.224
53467W        W14921  28.467  29.627   3.329
53468W        W14922  37.474  10.641  14.302
53469W        W14923  20.531  41.412  11.913
53470W        W14924   4.254  29.589  11.081
53471W        W14925  19.742   5.211  12.344
53472W        W14926  34.980  29.566  12.499
53473W        W14927  11.348  10.844  10.634
53474W        W14928  19.282  10.325   1.758
53475W        W14929   0.811  40.447  11.053
53476W        W14930   1.919  36.047  14.868
53477W        W14931  18.266  35.035  12.890
53478W        W14932  38.328  34.030   0.428
53479W        W14933   6.365  32.116  13.346
53480W        W14934  44.267  22.021   4.235
53481W        W14935  16.116  41.980   1.406
53482W        W14936  24.177  17.115   5.094
53483W        W14937  21.730  44.426  13.944
53484W        W14938  39.844  32.007   0.287
53485W        W14939  42.376  41.527  11.068
53486W        W14940  17.719  26.532   0.821
53487W        W14941   4.445  35.978  12.864
53488W        W14942   5.818  39.438  10.578
53489W        W14943  19.543  21.613   0.299
53490W        W14944  28.067  41.481   2.341
53491W        W14945   8.398  16.098  10.591
53492W        W14946  24.096  43.401  11.996
53493W        W14947  30.965  38.864   3.782
53494W        W14948  27.130  21.758  12.968
53495W        W14949  31.515  22.074   0.770
53496W        W14950  31.643  21.200  13.944
53497W        W14951  37.045   9.854   3.710
53498W        W14952  41.949  27.058   1.310
53499W        W14953  16.573  33.523  11.423
53500W        W14954  16.725  26.703  12.009
53501W        W14955   3.238  31.601   0.390
53502W        W14956  32.486   0.308   3.753
53503W        W14957  28.666  21.187  14.862
53504W        W14958  19.718   7.232  14.870
53505W        W14959  19.542  24.036  14.911
53506W        W14960  44.873  19.721   4.778
53507W        W14961   7.205  43.360   4.825
53508W        W14962  11.247  33.400   4.265
53509W        W14963  42.297   8.257  14.952
53510W        W14964  44.369  15.145  10.620
53511W        W14965  28.565  25.160  13.040
53512W        W14966  31.575  26.018  10.156
53513W        W14967  29.548   2.752  13.469
53514W        W14968   3.735  11.766   0.246
53515W        W14969  13.146  30.437   0.940
53516W        W14970   1.256   9.190  13.845
53517W        W14971   2.446  22.526   5.283
53518W        W14972  11.162  15.678   0.939
53519W        W14973  42.951  21.188  13.513
53520W        W14974   8.758  19.127   2.342
53521W        W14975  14.625  26.570  13.395
53522W        W14976  10.736  35.946   3.232
53523W        W14977  37.464  36.363  12.002
53524W        W14978  36.096  13.801   2.382
53525W        W14979  14.757   4.424  14.806
53526W        W14980   9.301  18.187   4.119
53527W        W14981  19.602  18.202   1.745
53528W        W14982  19.663  37.087   3.277
53529W        W14983  22.501   2.863   1.324
53530W        W14984  17.623  28.551   3.713
53531W        W14985  37.522   3.417   5.244
53532W        W14986   6.699  16.632   3.831
53533W        W14987  25.662  10.350  14.467
53534W        W14988  30.594  35.528   4.625
53535W        W14989  20.678  25.616   1.728
53536W        W14990  34.018  44.288  10.544
53537W        W14991  14.813  25.097   1.925
53538W        W14992  41.408  29.454   4.353
53539W        W14993  21.209   3.916  11.423
53540W        W14994   4.413  35.049  12.363
53541W        W14995  30.655   3.459   4.772
53542W        W14996  26.531   6.372  11.893
53543W        W14997  15.595  26.466  14.441
53544W        W14998  12.274  44.809   1.718
53545W        W14999  38.425  39.391  14.348
53546W        W15000  27.959  31.962   3.780
53547W        W15001  41.934   1.899   1.295
53548W        W15002  22.064  41.513   2.302
53549W        W15003   0.328  20.089  12.493
53550W        W15004   3.931  23.075   4.335
53551W        W15005  25.684   5.760   4.793
53552W        W15006   8.668   6.805   0.801
53553W        W15007  27.556   5.909  10.092
53554W        W15008  33.054  12.266   4.142
53555W        W15009  33.927  10.204  14.500
53556W        W15010  23.214  19.082  14.435
53557W        W15011  24.179  30.440   4.341
53558W        W15012   5.423   9.882   4.635
53559W        W15013   3.331  16.664  12.345
53560W        W15014   5.209  16.624  14.820
53561W        W15015  10.821  31.006   5.291
53562W        W15016  36.528   2.948  14.512
53563W        W15017  43.331  39.864  13.466
53564W        W15018  14.321  19.641  13.338
53565W        W15019  35.016   8.851  14.795
53566W        W15020  30.597  17.778  14.982
53567W        W15021  33.914  32.634   4.158
53568W        W15022   8.295  19.246   0.362
53569W        W15023  21.256   4.819   4.629
53570W        W15024  27.125  14.119  10.625
53571W        W15025  39.911  42.900   4.324
53572W        W15026   6.244   3.240   0.336
53573W        W15027  12.352  12.290  11.899
53574W        W15028  16.240   6.777  10.482
53575W        W15029  22.092  31.992   1.355
53576W        W15030  11.651   8.242   2.287
53577W        W15031  13.129  28.151   3.348
53578W        W15032  27.610  13.282   5.205
53579W        W15033   8.766  27.640  14.016
53580W        W15034  18.658  44.981  13.949
53581W        W15035  42.802  24.638  11.861
53582W        W15036  11.685  13.796  12.891
53583W        W15037  16.572  28.550  12.836
53584W        W15038   4.920   3.737  12.422
53585W        W15039  29.597   3.888  12.419
53586W        W15040   3.779  23.130   1.718
53587W        W15041  15.136  23.666  14.867
53588W        W15042  25.031  13.308   1.444
53589W        W15043  36.990  29.623  14.887
53590W        W15044  39.449  26.642   5.260
53591W        W15045  42.301  32.911   3.248
53592W        W15046  34.414  12.250   0.274
53593W        W15047  13.646   0.413  13.464
53594W        W15048  41.988   9.217  12.961
53595W        W15049  14.675  28.477  12.493
53596W        W15050   0.869   2.784  14.309
53597W        W15051  31.518   0.262  10.566
53598W        W15052  18.768  11.777  11.967
53599W        W15053  20.768  38.566   1.834
53600W        W15054  18.683   1.399   3.169
53601W        W15055  28.979  11.831   3.378
53602W        W15056  41.798  38.061   4.630
53603W        W15057   8.702   4.869  11.433
53604W        W15058  26.113  32.925   1.445
53605W        W15059  24.498  13.762   3.173
53606W        W15060  23.506  10.634   3.167
53607W        W15061   8.787  21.674  12.377
53608W        W15062   6.752  15.637  14.401
53609W        W15063  41.963  19.079  10.960
53610W        W15064  25.195  35.082   0.430
53611W        W15065  31.474  20.607   2.833
53612W        W15066   0.836  30.592   1.710
53613W        W15067  18.767  19.615  10.593
53614W        W15068  17.086  23.667  14.363
53615W        W15069  16.756  26.525   3.297
53616W        W15070  36.484  38.849  10.939
53617W        W15071  40.044   8.342   0.399
53618W        W15072  10.235  26.659   3.791
53619W        W15073  25.193  13.211   2.761
53620W        W15074  37.533  14.214  13.378
53621W        W15075   7.904  30.146  12.569
53622W        W15076   1.814   3.234   5.294
53623W        W15077  10.314  23.693  10.605
53624W        W15078  12.144  18.070  10.520
53625W        W15079  36.591  40.508  13.973
53626W        W15080   0.364  16.276  11.459
53627W        W15081  13.180  20.695   1.875
53628W        W15082  28.503  39.385  11.071
53629W        W15083   6.319  22.547  14.489
53630W        W15084  29.569   2.249   1.278
53631W        W15085  18.594  20.591   4.729
53632W        W15086  17.736  27.667  14.305
53633W        W15087  27.027  10.819   2.866
53634W        W15088  10.212  11.293   1.699
53635W        W15089  42.381  22.684   1.781
53636W        W15090   9.160  16.573   3.794
53637W        W15091  37.565  29.974   1.762
53638W        W15092  19.725   2.292   1.291
53639W        W15093  34.921  10.179  12.395
53640W        W15094  16.658  36.531   4.772
53641W        W15095  34.899  30.139   4.151
53642W        W15096  11.301   5.885  10.978
53643W        W15097   1.795  38.448  12.562
53644W        W15098  27.088  24.654  11.393
53645W        W15099  42.862   5.320   3.337
53646W        W15100   2.882  37.846  11.073
53647W        W15101  21.116  22.171  10.588
53648W        W15102  16.653  41.967  11.879
53649W        W15103   0.445  35.853   1.431
53650W        W15104  29.505  38.550   3.194
53651W        W15105  13.317  23.148   1.429
53652W        W15106   4.364   2.232  14.938
53653W        W15107  30.547  42.457   4.696
53654W        W15108   2.807  25.621  10.530
53655W        W15109  32.541  17.106  14.337
53656W        W15110  31.498  39.862   1.842
53657W        W15111  35.508   3.895  10.511
53658W        W15112  27.020  30.939  14.499
53659W        W15113  10.811  23.553   2.377
53660W        W15114  33.971  41.976   0.277
53661W        W15115  35.484  38.559   2.311
53662W        W15116  37.480  34.978   4.214
53663W        W15117   2.303   9.752  13.804
53664W        W15118  11.765   7.874   4.662
53665W        W15119  30.445  23.051   5.108
53666W        W15120  37.830   0.286   0.283
53667W        W15121  39.002  11.649  14.808
53668W        W15122  39.829  42.489  13.392
53669W        W15123   8.724  24.101  12.037
53670W        W15124  44.289  22.641   3.371
53671W        W15125  11.761  41.938  13.015
53672W        W15126   7.701  40.524   0.964
53673W        W15127  32.030  28.096   2.391
53674W        W15128  44.915  24.632   2.245
53675W        W15129  15.663   9.298   3.235
53676W        W15130  25.674  17.597   2.830
53677W        W15131  20.261  39.450  11.992
53678W        W15132  21.747  19.214   4.765
53679W        W15133  11.736  16.312   2.800
53680W        W15134  19.214   6.259  14.374
53681W        W15135  30.417  14.184   3.777
53682W        W15136  36.879  23.234   3.203
53683W        W15137  40.382  37.517  11.887
53684W        W15138  26.618  33.552  14.795
53685W        W15139   7.802  32.005  11.465
53686W        W15140   8.891   8.733   1.258
53687W        W15141  15.737  33.016   2.339
53688W        W15142  36.387   3.347   1.783
53689W        W15143  11.157  14.252  13.042
53690W        W15144  29.442  19.147  10.645
53691W        W15145  43.465  14.234   4.758
53692W        W15146   7.828  27.550   1.830
53693W        W15147  22.513  11.210   0.302
53694W        W15148  41.036   1.831   1.895
53695W        W15149  20.064   3.253  11.432
53696W        W15150  40.503  32.967   0.736
53697W        W15151   4.296  19.691  11.938
53698W        W15152   3.381   4.841   4.173
53699W        W15153  33.490  16.130  13.883
53700W        W15154   3.785  10.357  11.048
53701W        W15155  32.973  22.536  13.882
53702W        W15156   5.376  16.318   0.450
53703W        W15157  31.933  15.687  11.007
53704W        W15158  36.994  15.737  12.006
53705W        W15159  38.961   8.688   2.832
53706W        W15160  23.726  17.663   2.291
53707W        W15161  23.112  32.898  13.315
53708W        W15162   7.793  19.112   0.772
53709W        W15163  32.545  23.024   3.216
53710W        W15164  38.456  12.650   4.608
53711W        W15165  21.586  20.241   0.441
53712W        W15166  35.972  35.492  13.035
53713W        W15167  19.682  32.000   0.431
53714W        W15168  33.512   4.755   4.319
53715W        W15169  17.665   9.351  13.031
53716W        W15170  28.622  24.149   2.677
53717W        W15171   7.306  39.905  12.460
53718W        W15172  11.732  17.146  14.811
53719W        W15173  23.230   4.715  10.486
53720W        W15174   8.174  20.738  10.629
53721W        W15175  43.401  32.929  13.455
53722W        W15176  36.374  17.761  14.975
53723W        W15177  14.100  18.643   3.746
53724W        W15178   4.356   0.748   1.422
53725W        W15179  39.937  37.422  12.403
53726W        W15180  37.423  13.105   0.841
53727W        W15181  40.474   6.221  12.574
53728W        W15182  18.638  27.591   2.879
53729W        W15183  18.639  22.526  12.538
53730W        W15184   1.353   9.203   2.413
53731W        W15185  40.417   1.340  14.346
53732W        W15186  22.095  30.599   0.308
53733W        W15187  33.560  43.803   2.316
53734W        W15188   4.741  39.372  13.803
53735W        W15189  21.178  18.269   0.318
53736W        W15190  33.953  33.475   3.279
53737W        W15191  42.031   1.400   4.144
53738W        W15192   7.291  16.725   1.245
53739W        W15193  30.474  41.022  12.054
53740W        W15194  41.981   3.248   2.876
53741W        W15195  36.587  16.257  13.949
53742W        W15196  27.682   5.763  14.443
53743W        W15197  13.290  30.962  14.931
53744W        W15198  11.155  16.671   3.824
53745W        W15199  39.913  21.146  12.513
53746W        W15200  23.991  26.456   3.335
53747W        W15201  32.625   0.272  13.844
53748W        W15202  44.888   3.352  12.455
53749W        W15203   8.766   0.829  13.965
53750W        W15204  23.215  40.950  12.943
53751W        W15205  39.925   2.721  12.471
53752W        W15206  23.099  14.198  10.639
53753W        W15207  43.931   9.292   3.336
53754W        W15208  39.517  40.512   1.706
53755W        W15209  38.820  31.916  14.766
53756W        W15210  24.038  41.315   4.237
53757W        W15211  37.944  36.427  13.408
53758W        W15212  42.989  37.877   0.944
53759W        W15213   2.886  24.628  14.497
53760W        W15214   4.396  32.545  10.616
53761W        W15215  22.584  24.062  13.402
53762W        W15216  44.413  25.545   2.763
53763W        W15217   7.850  25.485  11.570
53764W        W15218  21.256  11.648   2.838
53765W        W15219  32.120   0.359  13.334
53766W        W15220  40.037  28.674   0.939
53767W        W15221  10.690   8.217  12.087
53768W        W15222   0.277  23.012   0.921
53769W        W15223  10.743  10.760   1.423
53770W        W15224  32.118  40.495  13.314
53771W        W15225  44.003   6.828  13.964
53772W        W15226  40.393  37.358   0.290
53773W        W15227  12.618  22.617  11.943
53774W        W15228   2.268  30.623  12.066
53775W        W15229   1.477  26.105   1.221
53776W        W15230  10.311  15.766   3.636
53777W        W15231  25.213  28.567   4.825
53778W        W15232   4.760  40.011  10.015
53779W        W15233  36.465   0.862   1.391
53780W        W15234  40.904  34.475  14.831
53781W        W15235  27.619   4.790  12.946
53782W        W15236  31.470  13.773   0.901
53783W        W15237  43.390  17.740  12.369
53784W        W15238  41.464   4.853   0.401
53785W        W15239  10.185  16.280   4.833
53786W        W15240  41.909  15.603   2.341
53787W        W15241   0.479   3.813   1.363
53788W        W15242  12.175  17.177  14.911
53789W        W15243  27.597  17.217  11.895
53790W        W15244  13.797  32.432  11.525
53791W        W15245  20.720  32.113  13.332
53792W        W15246  39.340  17.223  13.340
53793W        W15247  30.657  30.004  12.485
53794W        W15248  33.441  31.456   1.327
53795W        W15249   7.307  23.531  13.504
53796W        W15250   7.785  10.330  12.095
53797W        W15251   3.754   5.841   2.185
53798W        W15252   5.415  25.099  12.896
53799W        W15253   1.453  43.343  14.427
53800W        W15254  10.871   0.786  11.971
53801W        W15255  43.389   7.794  11.063
53802W        W15256  22.100  27.162  12.498
53803W        W15257  39.334  31.496  11.978
53804W        W15258  21.224  37.578   9.987
53805W        W15259   7.171  23.520   0.746
53806W        W15260  27.486   9.156   0.470
53807W        W15261  37.889  29.117   1.394
53808W        W15262   1.909   8.323  11.415
53809W        W15263  20.748  25.631   0.361
53810W        W15264  33.894  13.237  12.372
53811W        W15265   6.314  14.757   4.685
53812W        W15266  35.933  20.676  13.060
53813W        W15267  34.531  13.775  11.576
53814W        W15268  14.105  26.147   2.866
53815W        W15269  15.729  31.584   4.750
53816W        W15270  41.317  26.981   3.260
53817W        W15271  37.337   3.251   0.767
53818W        W15272  44.493  23.060   3.793
53819W        W15273  14.337   3.234   0.740
53820W        W15274   0.767  10.754  14.325
53821W        W15275  13.730  17.065   1.366
53822W        W15276  18.676   1.309  10.421
53823W        W15277  25.638  35.024   3.706
53824W        W15278  32.944  28.002   2.796
53825W        W15279  35.568  27.510   1.770
53826W        W15280  35.020  37.435   4.673
53827W        W15281  26.472  39.026   4.140
53828W        W15282  40.418  12.330  13.436
53829W        W15283   0.777  37.897   3.630
53830W        W15284  28.461  36.404  10.026
53831W        W15285  14.713  39.035   1.420
53832W        W15286  23.645   4.320   0.847
53833W        W15287  26.696  41.325  13.893
53834W        W15288  38.356  26.660   0.830
53835W        W15289  30.941  21.708   2.716
53836W        W15290  39.883   8.390  13.003
53837W        W15291  30.428  26.060  12.088
53838W        W15292  25.216  36.843   1.294
53839W        W15293   2.932   4.374   0.890
53840W        W15294   2.936  25.594  14.331
53841W        W15295   0.969  17.205   4.259
53842W        W15296   1.949  42.005   1.908
53843W        W15297  11.625  43.333  13.870
53844W        W15298  18.137  22.027   1.753
53845W        W15299   4.444   2.775   1.704
53846W        W15300  11.635   7.224   2.412
53847W        W15301  29.440  27.091   0.401
53848W        W15302  10.726  25.066  10.500
53849W        W15303  33.882  15.155  11.425
53850W        W15304  30.631   7.187   3.373
53851W        W15305   3.814  24.588   1.853
53852W        W15306  19.659  23.141   4.184
53853W        W15307  22.156  13.839   4.808
53854W        W15308  11.804  20.074   1.718
53855W        W15309  31.974  21.245   4.807
53856W        W15310  19.103  41.482   0.957
53857W        W15311  23.142  35.866  14.028
53858W        W15312   8.340  37.376   4.243
53859W        W15313  32.506  10.376   0.323
53860W        W15314  19.172  39.053  13.500
53861W        W15315  25.682   7.745   1.451
53862W        W15316  36.449   7.814  13.514
53863W        W15317  13.673   6.721   2.885
53864W        W15318  41.463  28.610   2.734
53865W        W15319  16.311   2.899   2.812
53866W        W15320   3.365  27.008  12.858
53867W        W15321   6.235  13.766   4.660
53868W        W15322  28.596  26.562   0.918
53869W        W15323  43.410  44.339  10.621
53870W        W15324   1.315  27.060  14.395
53871W        W15325  17.192  14.250  11.610
53872W        W15326  13.686  17.107  13.815
53873W        W15327   4.855  30.108   3.226
53874W        W15328  29.111   2.797  13.322
53875W        W15329  27.974  10.265  10.905
53876W        W15330  42.496  32.933  11.986
53877W        W15331   2.321  13.737   0.254
53878W        W15332  26.702   7.323  11.876
53879W        W15333  35.038   9.697  14.496
53880W        W15334  29.580  25.139   5.312
53881W        W15335  35.587  20.098   4.642
53882W        W15336  17.108  39.938  13.504
53883W        W15337   1.822  15.141   1.768
53884W        W15338  30.469  35.040  14.412
53885W        W15339  37.850  18.756  13.499
53886W        W15340  14.235   6.274   2.307
53887W        W15341   1.751  36.960  14.849
53888W        W15342  24.162  35.372   0.950
53889W        W15343  35.506  31.419   1.446
53890W        W15344  22.664   8.817   1.912
53891W        W15345  15.723  21.556  12.012
53892W        W15346   9.334  35.394  12.950
53893W        W15347   5.824  12.262  11.463
53894W        W15348  35.575  38.903   3.180
53895W        W15349  25.557   5.745  12.558
53896W        W15350  11.203  41.466   1.441
53897W        W15351  29.492  34.929   2.796
53898W        W15352  10.313  12.638  14.413
53899W        W15353  21.236  14.208  13.951
53900W        W15354  23.230  13.689  13.061
53901W        W15355  12.269  27.057   0.288
53902W        W15356   2.381  25.114   9.987
53903W        W15357  25.060  34.493   4.172
53904W        W15358  14.335  30.984   0.464
53905W        W15359  14.750  21.710   4.141
53906W        W15360  13.600  35.025  11.397
53907W        W15361   1.820  25.526  10.979
53908W        W15362   4.408  39.483   4.767
53909W        W15363  42.914  11.864   1.377
53910W        W15364  16.102  15.619  10.513
53911W        W15365   3.943  32.631  10.633
53912W        W15366   7.861   7.733   1.722
53913W        W15367   1.405  36.967   1.801
53914W        W15368  28.967   3.316   1.803
53915W        W15369   1.327   3.797  14.825
53916W        W15370   2.269   8.727  11.013
53917W        W15371   3.714  26.190   2.716
53918W        W15372   8.361   7.254   3.801
53919W        W15373   0.343  43.829   2.208
53920W        W15374  41.819  24.188  14.851
53921W        W15375  40.044   3.955   0.965
53922W        W15376  26.116  15.136   1.753
53923W        W15377   7.795  27.032  10.422
53924W        W15378  33.986  23.547  12.454
53925W        W15379  24.541  32.129  12.091
53926W        W15380   3.238   5.702   2.763
53927W        W15381   7.391  28.113   2.342
53928W        W15382  21.750   5.270   2.414
53929W        W15383   6.402  30.017   0.326
53930W        W15384  29.948  18.724  13.961
53931W        W15385  28.593  42.380  11.409
53932W        W15386  14.708   6.756   3.368
53933W        W15387  43.807  22.603   1.897
53934W        W15388   9.277   0.947  11.887
53935W        W15389   7.745  29.113   9.990
53936W        W15390   1.478   6.765   0.280
53937W        W15391  39.953  38.403  13.308
53938W        W15392  26.203  11.652  11.886
53939W        W15393   1.892  18.703   0.730
53940W        W15394   3.937  27.607  11.389
53941W        W15395  39.868  14.652   1.291
53942W        W15396   7.850  36.026  13.326
53943W        W15397  33.130   5.848   3.278
53944W        W15398   7.228  43.304   2.665
53945W        W15399  26.006  23.000  10.936
53946W        W15400  12.156  30.609  13.013
53947W        W15401  42.322  37.451   3.680
53948W        W15402  18.230  34.433   1.850
53949W        W15403  17.721  44.005   2.383
53950W        W15404  43.281  35.437  14.475
53951W        W15405  11.635  38.394  12.072
53952W        W15406  25.550   1.900  12.839
53953W        W15407  19.557  34.532  14.869
53954W        W15408   2.423   9.805  13.052
53955W        W15409   2.754  27.983   1.803
53956W        W15410  30.513  18.164   2.898
53957W        W15411   5.707  26.517   3.814
53958W        W15412  23.591  26.553   2.665
53959W        W15413  12.734  25.712   3.660
53960W        W15414  43.788   1.928  14.372
53961W        W15415  11.201  30.090   2.843
53962W        W15416   2.872  33.042  14.275
53963W        W15417  32.900   1.744  12.079
53964W        W15418  30.553  35.858  10.503
53965W        W15419  31.115   7.360   1.809
53966W        W15420  24.134  11.157   3.696
53967W        W15421  32.534   6.362   1.805
53968W        W15422  42.855  28.538   3.203
53969W        W15423  13.709  23.633  11.523
53970W        W15424  13.602   2.252   3.239
53971W        W15425   2.881  31.115  13.370
53972W        W15426  38.525  34.407   2.784
53973W        W15427  31.034  20.069   0.949
53974W        W15428  21.739  33.488   3.660
53975W        W15429  36.590  33.467   4.708
53976W        W15430   8.389   5.754  11.023
53977W        W15431  26.550  10.161   3.181
53978W        W15432  25.194  41.939   2.280
53979W        W15433   1.259  40.012   3.275
53980W        W15434  22.073   5.874   2.343
53981W        W15435  31.642  21.515  11.004
53982W        W15436  12.805  17.589   0.320
53983W        W15437  10.751  27.098   4.312
53984W        W15438   5.908  15.593   3.664
53985W        W15439  20.088  32.913  11.380
53986W        W15440   6.258   5.738   0.301
53987W        W15441  19.198  37.860  13.962
53988W        W15442   5.741  21.138   3.333
53989W        W15443  16.588  41.524  10.506
53990W        W15444   9.236  28.053   4.617
53991W        W15445  32.428  36.980   0.952
53992W        W15446  23.019  17.801   4.665
53993W        W15447  30.922  29.052  14.935
53994W        W15448  13.351  29.119   1.348
53995W        W15449  11.846  15.287   4.828
53996W        W15450  10.138  26.631   1.794
53997W        W15451   6.364  37.024  13.385
53998W        W15452  21.750  32.113   3.667
53999W        W15453  29.628  27.049   4.655
54000W        W15454  26.694  31.604   4.633
54001W        W15455  28.067  38.950  10.911
54002W        W15456  42.489  31.099   1.900
54003W        W15457  32.126  42.908  14.965
54004W        W15458  21.142  40.381   2.784
54005W        W15459  44.911   3.276   1.842
54006W        W15460  32.557   3.392   0.251
54007W        W15461   1.307   3.227  12.914
54008W        W15462  30.125   7.171  11.039
54009W        W15463  38.941  28.994  14.461
54010W        W15464  12.846  39.991   0.438
54011W        W15465   0.926  17.139  13.888
54012W        W15466  32.074  32.890   3.355
54013W        W15467  10.337  23.599   1.916
54014W        W15468  38.914   3.816   3.822
54015W        W15469  11.686  42.322   0.769
54016W        W15470  33.569  34.592  13.505
54017W        W15471  18.568  41.517   3.310
54018W        W15472  34.071  18.756   1.737
54019W        W15473  41.898  36.354   1.414
54020W        W15474  22.060  31.575  11.081
54021W        W15475  12.649  11.675  14.396
54022W        W15476  25.501   7.402  14.825
54023W        W15477  15.283  42.915   1.819
54024W        W15478  28.597   5.877  10.101
54025W        W15479  20.555  43.915  12.898
54026W        W15480  39.976   9.369   0.359
54027W        W15481  32.454  35.027  11.055
54028W        W15482  33.033  14.758   1.412
54029W        W15483  32.965  14.298  14.515
54030W        W15484   2.930  11.753   0.438
54031W        W15485   5.396  39.364  12.089
54032W        W15486  26.123  26.148   3.840
54033W        W15487  22.521   6.354  13.051
54034W        W15488  16.075   0.893  11.982
54035W        W15489  38.859  16.204   1.867
54036W        W15490  27.583   1.801  12.495
54037W        W15491   3.379  12.189   1.251
54038W        W15492  27.041   7.294   1.859
54039W        W15493  37.025  16.800  12.961
54040W        W15494   4.330  26.952   0.401
54041W        W15495  33.933  21.637   2.903
54042W        W15496   8.755  41.412  10.518
54043W        W15497  22.054   9.225   1.438
54044W        W15498   0.817  10.296  11.027
54045W        W15499  36.525  21.642   0.315
54046W        W15500  15.797  20.664  10.092
54047W        W15501  38.904  20.164  14.431
54048W        W15502  19.105  28.966  10.961
54049W        W15503  30.654  12.249   1.325
54050W        W15504  26.652  38.935   1.922
54051W        W15505  30.000   9.164  10.514
54052W        W15506  43.869  32.106   4.121
54053W        W15507  11.858  29.036   3.851
54054W        W15508  29.501  26.058  13.440
54055W        W15509  31.558  20.201  13.322
54056W        W15510  37.529  16.598   4.831
54057W        W15511   3.854  36.360  11.495
54058W        W15512  20.259   9.206  13.056
54059W        W15513  37.933   7.379   5.141
54060W        W15514  43.785  18.594   0.750
54061W        W15515  21.030  24.068   0.835
54062W        W15516   3.903  31.911  12.348
54063W        W15517  20.200  26.964  14.795
54064W        W15518  34.049  16.101   4.685
54065W        W15519  12.628  20.654  13.538
54066W        W15520  41.961  33.997  13.316
54067W        W15521  41.849  14.184   2.186
54068W        W15522  15.254   0.457  14.760
54069W        W15523  16.755  41.346   1.287
54070W        W15524  32.980  38.996  10.037
54071W        W15525  33.485  19.534   1.706
54072W        W15526  20.675  29.635   3.286
54073W        W15527  40.892  22.103  10.922
54074W        W15528   7.897  33.569  13.058
54075W        W15529  26.659  40.871   2.814
54076W        W15530  17.204  16.567   0.317
54077W        W15531  42.402  40.805  14.902
54078W        W15532  25.547   3.368   0.737
54079W        W15533  34.972  36.053  14.898
54080W        W15534   6.855  36.841   3.225
54081W        W15535  33.018  33.996  14.474
54082W        W15536  36.553  31.959  10.962
54083W        W15537  40.852   1.280   0.450
54084W        W15538  26.173   2.448   3.239
54085W        W15539  36.477   5.842   0.363
54086W        W15540  30.914  24.022  10.636
54087W        W15541   2.441   6.426   3.759
54088W        W15542  35.457  24.084  11.423
54089W        W15543  17.275  21.699   1.215
54090W        W15544  26.202   5.763   3.207
54091W        W15545   8.900  36.466   5.251
54092W        W15546  44.760   2.965   0.252
54093W        W15547  16.756  25.986   3.695
54094W        W15548  12.854  30.953  13.838
54095W        W15549  25.700   8.266   1.352
54096W        W15550  22.629  10.313  13.907
54097W        W15551   8.276   7.729  13.886
54098W        W15552  22.580   4.701   9.965
54099W        W15553  42.954  35.912   2.732
54100W        W15554  21.587  12.328  13.347
54101W        W15555  33.600  22.158  10.988
54102W        W15556  32.141   2.740  13.527
54103W        W15557  10.711  25.074   4.711
54104W        W15558  44.408   4.739   3.654
54105W        W15559  29.585  23.717   1.359
54106W        W15560  34.038   0.908  13.323
54107W        W15561   2.899  35.518   0.360
54108W        W15562  32.092  26.491   0.821
54109W        W15563  12.174  38.031  13.336
54110W        W15564  38.963  25.194  10.498
54111W        W15565  23.204  34.892  12.042
54112W        W15566   1.412  37.936  12.836
54113W        W15567   0.402  13.302  10.485
54114W        W15568  12.351  11.167  12.564
54115W        W15569  27.081   6.746  13.921
54116W        W15570  41.041  23.169  13.033
54117W        W15571  17.697  21.035   3.153
54118W        W15572  33.992  36.454   4.159
54119W        W15573  32.119   4.894  11.003
54120W        W15574  30.127  22.560  11.553
54121W        W15575  23.625  29.941   3.335
54122W        W15576   5.292  41.801  11.501
54123W        W15577  17.583  25.663   4.829
54124W        W15578  35.511  36.445  11.583
54125W        W15579  11.128  33.063   2.716
54126W        W15580   8.818  42.346   2.331
54127W        W15581  12.232  38.501   1.773
54128W        W15582   7.315  33.065   3.199
54129W        W15583   6.803  28.568   1.722
54130W        W15584  11.810  34.441   4.252
54131W        W15585  42.031  14.295  12.510
54132W        W15586   9.173  37.474   5.227
54133W        W15587  27.596   0.279   0.431
54134W        W15588  39.451  27.499  11.535
54135W        W15589  30.520   2.784   0.411
54136W        W15590  32.412  41.893   2.253
54137W        W15591  10.872  27.981   3.146
54138W        W15592  41.009  36.005  12.044
54139W        W15593  11.711  34.480   0.747
54140W        W15594   4.373  18.548  11.572
54141W        W15595  27.031  17.580  12.966
54142W        W15596  28.495   2.421   0.363
54143W        W15597  14.261  14.259   9.603
54144W        W15598  37.443   4.821  14.801
54145W        W15599  39.402  11.699  12.467
54146W        W15600  30.959  42.302  11.938
54147W        W15601  31.941  19.688   1.322
54148W        W15602  27.691  31.490   2.739
54149W        W15603  10.780  42.477   9.484
54150W        W15604  22.024  25.143  13.320
54151W        W15605   7.817  38.508   0.824
54152W        W15606  34.963  30.946  13.922
54153W        W15607  10.271  44.472  13.376
54154W        W15608   3.785  15.591  11.035
54155W        W15609  27.140   5.409   4.781
54156W        W15610  16.716  24.657   4.826
54157W        W15611  41.475  34.095  12.907
54158W        W15612  20.212  36.542  13.862
54159W        W15613  43.969  30.916  13.034
54160W        W15614  39.942  43.350   3.863
54161W        W15615  27.065  10.786   3.301
54162W        W15616   6.211  20.153   3.713
54163W        W15617  14.806   0.479  13.842
54164W        W15618  25.113   6.234   3.156
54165W        W15619   2.813   1.295  10.911
54166W        W15620   4.857  38.873  10.891
54167W        W15621  16.717  30.059  13.816
54168W        W15622   7.769   8.845   2.856
54169W        W15623  42.428  23.651  11.575
54170W        W15624  19.206   3.926  10.465
54171W        W15625  40.978  38.329   0.400
54172W        W15626  10.347  21.560   1.747
54173W        W15627  26.201   3.290   1.358
54174W        W15628  40.326   3.347  13.534
54175W        W15629  38.426  22.658  12.499
54176W        W15630  21.253  22.571   2.753
54177W        W15631  40.306  22.041   0.476
54178W        W15632  15.802  14.774   2.809
54179W        W15633  11.363  18.284   9.559
54180W        W15634  30.058  35.401   0.888
54181W        W15635  35.026  19.629  11.593
54182W        W15636  14.149  20.169   3.284
54183W        W15637  36.427  44.968  12.056
54184W        W15638  42.835  24.217   1.299
54185W        W15639   6.266   7.257  12.394
54186W        W15640  26.535  29.621  11.449
54187W        W15641  42.952  23.158  11.457
54188W        W15642  36.483   5.297  13.796
54189W        W15643   1.280  24.017   3.149
54190W        W15644   8.179  35.891  14.825
54191W        W15645  29.934  43.343   4.764
54192W        W15646  44.379  26.028   2.814
54193W        W15647  39.471  44.300   4.786
54194W        W15648   1.826  14.704  14.897
54195W        W15649  10.265  39.558  10.004
54196W        W15650  33.588   8.315   1.325
54197W        W15651  37.462  33.386   2.196
54198W        W15652  18.610  24.047  14.010
54199W        W15653  29.037  39.537  12.472
54200W        W15654  44.417  33.917  13.838
54201W        W15655  39.845   3.834   1.430
54202W        W15656  20.239   8.761  14.385
54203W        W15657  10.326   8.388  11.427
54204W        W15658  22.613   4.927   4.215
54205W        W15659   6.288  20.726   3.380
54206W        W15660  34.100  23.529  10.643
54207W        W15661  39.926  41.980   4.728
54208W        W15662   9.310  32.130  11.954
54209W        W15663  13.334  40.992  13.420
54210W        W15664  26.190  31.148   3.856
54211W        W15665  17.733  26.958   1.396
54212W        W15666  44.344  39.842   3.705
54213W        W15667  37.988  16.622   4.787
54214W        W15668   7.230  30.477   0.367
54215W        W15669  26.125  40.370   4.232
54216W        W15670  15.610  21.150  10.442
54217W        W15671   8.796  31.901   1.235
54218W        W15672  30.114   7.767   4.822
54219W        W15673  13.779  20.573  13.920
54220W        W15674  16.147  22.218   4.614
54221W        W15675  19.182  12.732   2.227
54222W        W15676  35.950  15.599   1.303
54223W        W15677  19.178   1.750   2.773
54224W        W15678   4.270  14.598  11.896
54225W        W15679  15.634   8.704   2.249
54226W        W15680  26.547  41.465   4.762
54227W        W15681  34.917  28.564  13.956
54228W        W15682  16.154  16.188  13.948
54229W        W15683   7.886  13.230   0.846
54230W        W15684  15.695  10.376   3.651
54231W        W15685  42.305  21.232  12.992
54232W        W15686  39.349  42.482   0.373
54233W        W15687  40.318  19.071  14.843
54234W        W15688   3.328  39.985  13.813
54235W        W15689   2.439  20.562  11.904
54236W        W15690  11.264  33.476  14.920
54237W        W15691   7.679  43.778  11.391
54238W        W15692  38.429  36.587  12.932
54239W        W15693  28.617  17.747  12.978
54240W        W15694  36.528   4.857  13.369
54241W        W15695  38.835  33.881   5.242
54242W        W15696  20.669   3.711  13.861
54243W        W15697  16.188  30.455   2.290
54244W        W15698  42.002  29.663   1.405
54245W        W15699  22.714  10.835   1.381
54246W        W15700  29.455  12.612  11.478
54247W        W15701  13.279  44.856   1.354
54248W        W15702  37.881   1.256  14.861
54249W        W15703   8.256  35.931  11.452
54250W        W15704  14.134  10.374   4.154
54251W        W15705  40.441  25.981   3.824
54252W        W15706  37.377  27.668   2.262
54253W        W15707  44.406  20.266   0.925
54254W        W15708  13.167   0.284   5.238
54255W        W15709  19.767  37.009  14.414
54256W        W15710   1.755  15.774   4.813
54257W        W15711  44.867  26.194  13.312
54258W        W15712  26.599  15.127  13.411
54259W        W15713  19.283  34.061   3.272
54260W        W15714   3.350  38.355   2.708
54261W        W15715   7.286  23.617  13.901
54262W        W15716  15.168  24.645   4.831
54263W        W15717   7.271  32.105   2.711
54264W        W15718   4.839  15.313  11.504
54265W        W15719  30.558  13.116   4.623
54266W        W15720  41.414  41.818   3.254
54267W        W15721  26.097  39.554  14.023
54268W        W15722  43.997  13.341   3.162
54269W        W15723   8.326  19.773   1.212
54270W        W15724  16.706  10.209   3.320
54271W        W15725   1.891  27.507  13.501
54272W        W15726  42.859  23.103  14.907
54273W        W15727  39.886  35.009   3.342
54274W        W15728  15.733  39.457   4.180
54275W        W15729  24.715   5.357   1.447
54276W        W15730  40.340  20.682  11.875
54277W        W15731  37.943  26.512  12.018
54278W        W15732   0.941  41.038  11.099
54279W        W15733  36.463  24.022  11.895
54280W        W15734   2.232  36.056  10.893
54281W        W15735  26.535  43.889  12.425
54282W        W15736  31.052  15.787   3.870
54283W        W15737  14.132  16.730  14.881
54284W        W15738   5.343   8.849   1.248
54285W        W15739  42.348  17.227  11.487
54286W        W15740  19.717  31.444  13.893
54287W        W15741  27.464  25.990   1.698
54288W        W15742  26.667  40.858   3.240
54289W        W15743   5.859  12.756  11.126
54290W        W15744  28.472  42.365  10.408
54291W        W15745  44.980  13.661  10.975
54292W        W15746  28.450  28.006  10.000
54293W        W15747  19.780   5.932   0.352
54294W        W15748  18.276  11.780  10.019
54295W        W15749  17.578  10.752  10.922
54296W        W15750   5.877  31.932  10.427
54297W        W15751  24.533  15.763   2.764
54298W        W15752  23.110  38.527   3.158
54299W        W15753  35.883  15.313   3.264
54300W        W15754  13.760  14.611  13.394
54301W        W15755  35.371  26.550   0.802
54302W        W15756  35.586   5.378  13.999
54303W        W15757  18.204  27.454   4.633
54304W        W15758  30.491  26.951   1.843
54305W        W15759  43.946  18.169   1.421
54306W        W15760   7.695  20.222  12.462
54307W        W15761  16.604  25.521   4.668
54308W        W15762  24.495   2.322   3.803
54309W        W15763  40.469  27.552  13.869
54310W        W15764  43.464   8.711   3.166
54311W        W15765  34.964  43.294   3.364
54312W        W15766   9.732  19.284   3.759
54313W        W15767  33.056  19.556   1.818
54314W        W15768  13.212  14.610   4.622
54315W        W15769   4.898  40.457   2.846
54316W        W15770  20.576  27.576  14.360
54317W        W15771  30.101  30.560   4.745
54318W        W15772  31.602  38.894  12.946
54319W        W15773   4.401  14.630  13.997
54320W        W15774  21.054  43.304   2.180
54321W        W15775  23.545   2.844  14.824
54322W        W15776  16.115  18.103   0.371
54323W        W15777   4.781  42.999  14.871
54324W        W15778  15.754   9.661   0.737
54325W        W15779  34.583   6.300  12.987
54326W        W15780  40.424  11.370   0.840
54327W        W15781  41.467  13.127   1.312
54328W        W15782  37.921  10.667  13.973
54329W        W15783  22.030   2.827  14.505
54330W        W15784  13.634   5.378  13.419
54331W        W15785  24.994  12.650  13.318
54332W        W15786  36.556   0.875   4.809
54333W        W15787  31.936  44.367   3.654
54334W        W15788  21.588  37.046  12.935
54335W        W15789  23.604  32.447  13.426
54336W        W15790   9.315  15.228   0.727
54337W        W15791  33.097  40.496   0.731
54338W        W15792  29.575  22.585   3.757
54339W        W15793   7.192  26.512   0.348
54340W        W15794  13.259   4.722   4.129
54341W        W15795  25.969  30.647   0.756
54342W        W15796  21.591  18.099  13.899
54343W        W15797  18.068  28.469  14.483
54344W        W15798  33.080   4.709  10.897
54345W        W15799  10.866   9.355   0.453
54346W        W15800   9.223  13.232  10.977
54347W        W15801   7.824  11.274  11.121
54348W        W15802  17.724  21.064   2.320
54349W        W15803  44.845  19.191  13.903
54350W        W15804  33.585   9.645  10.617
54351W        W15805  34.385  31.475   0.302
54352W        W15806  34.026  40.533  11.377
54353W        W15807   9.831  32.063   2.894
54354W        W15808   7.181  21.681  14.282
54355W        W15809   1.834  40.460   2.830
54356W        W15810  11.163   1.391  14.762
54357W        W15811  23.065  10.704   0.853
54358W        W15812   8.215   0.988   3.764
54359W        W15813  28.053   1.398   1.370
54360W        W15814   8.792  11.228  12.408
54361W        W15815  21.721  22.145  12.399
54362W        W15816  28.165  23.069   3.730
54363W        W15817  30.083  19.714  12.515
54364W        W15818  35.039  38.413   1.808
54365W        W15819  11.647  19.078   3.305
54366W        W15820  19.763   8.377   9.962
54367W        W15821  35.949  11.809  10.442
54368W        W15822  16.101  39.037   0.884
54369W        W15823  25.060  44.850  14.284
54370W        W15824   7.337  38.017  11.439
54371W        W15825  31.009  10.827  11.070
54372W        W15826  12.718   2.428  11.005
54373W        W15827  34.005  13.666  12.867
54374W        W15828  20.650  14.671  14.316
54375W        W15829  38.557   7.899  10.471
54376W        W15830   4.214  27.066   2.780
54377W        W15831  44.307  27.546  12.359
54378W        W15832  12.335  10.229   2.670
54379W        W15833  37.035  32.133   2.290
54380W        W15834  43.966  19.163  13.481
54381W        W15835   9.857  20.589   4.256
54382W        W15836  28.469  22.546  14.846
54383W        W15837  29.966  39.425   2.225
54384W        W15838  39.893  14.127  13.839
54385W        W15839  27.081   9.879   3.806
54386W        W15840  25.035  15.229  10.976
54387W        W15841   3.266   5.384   0.391
54388W        W15842   7.265   7.893  12.500
54389W        W15843  13.818  31.602   1.446
54390W        W15844  27.519  43.906  12.438
54391W        W15845  17.654  16.098   3.313
54392W        W15846   5.858   7.812  11.914
54393W        W15847  27.473   2.726  13.991
54394W        W15848  24.175   2.903   1.310
54395W        W15849   9.173  37.338  11.109
54396W        W15850  33.454  44.877  13.061
54397W        W15851   5.722  13.318  14.854
54398W        W15852   9.751  15.280   3.850
54399W        W15853  37.990  13.330  11.453
54400W        W15854  27.183  20.206   4.713
54401W        W15855  29.500  33.081  12.827
54402W        W15856  11.686   7.382   1.869
54403W        W15857  33.046  16.306   0.917
54404W        W15858   5.434  10.200   1.709
54405W        W15859  22.545  29.635  11.991
54406W        W15860  32.462  27.613   2.783
54407W        W15861  12.683  21.115   1.862
54408W        W15862  17.571  25.095   2.859
54409W        W15863  17.777   0.429   4.613
54410W        W15864  24.137  36.427  13.971
54411W        W15865  33.099  35.091  14.343
54412W        W15866  18.134   7.735  12.965
54413W        W15867  28.163  16.793   1.233
54414W        W15868  22.013  27.649   2.709
54415W        W15869   1.832  44.804  10.569
54416W        W15870  15.725  16.166   0.344
54417W        W15871   4.218  34.867  11.110
54418W        W15872  28.932  36.508   0.828
54419W        W15873  15.122  32.520  10.973
54420W        W15874  13.743  41.414  12.354
54421W        W15875  13.158  33.910   3.867
54422W        W15876  20.146  20.108   0.267
54423W        W15877   1.975   8.810  11.864
54424W        W15878  42.492  29.518  11.409
54425W        W15879   9.755   4.762  11.976
54426W        W15880  22.698  35.954   1.817
54427W        W15881  44.489  37.451   1.709
54428W        W15882   9.827  24.642   3.707
54429W        W15883  11.168   4.790   3.187
54430W        W15884  43.966  28.513  10.997
54431W        W15885  14.322  38.000   3.251
54432W        W15886  22.109  13.307  10.613
54433W        W15887   5.195  43.020  12.562
54434W        W15888  34.083  31.977   1.761
54435W        W15889   9.798  39.363  10.098
54436W        W15890  31.070  31.605  10.129
54437W        W15891  14.762  33.567  10.596
54438W        W15892   5.824   8.823  12.344
54439W        W15893  34.457  42.377  12.057
54440W        W15894  30.050  14.633   4.678
54441W        W15895  44.287   5.756  10.532
54442W        W15896  35.088  29.171  14.514
54443W        W15897  16.170  29.108  13.820
54444W        W15898  36.973  30.543  10.950
54445W        W15899  22.661  38.567   3.728
54446W        W15900  21.194  19.247  12.889
54447W        W15901  44.315  19.073  12.024
54448W        W15902  17.106   0.983  12.937
54449W        W15903  21.720  37.052  11.928
54450W        W15904   9.283  23.041  14.488
54451W        W15905  10.746  37.026   4.286
54452W        W15906   8.870  22.582   1.706
54453W        W15907  28.457  16.235  14.392
54454W        W15908  40.942  30.939   3.251
54455W        W15909  13.320  23.523  10.642
54456W        W15910   8.767  10.154   1.411
54457W        W15911  37.385   0.819  13.498
54458W        W15912  29.554  30.022  10.441
54459W        W15913   1.825  14.613   1.213
54460W        W15914   0.793   8.333   4.313
54461W        W15915  15.225  24.542  11.894
54462W        W15916  14.647  42.392   1.756
54463W        W15917  24.634  39.906   3.301
54464W        W15918  10.376   2.803  11.459
54465W        W15919  20.553  16.194  14.930
54466W        W15920  24.128  27.995   3.857
54467W        W15921   4.940  44.908  13.865
54468W        W15922  27.563  21.178   9.561
54469W        W15923  20.131  16.798  12.434
54470W        W15924  36.578  37.575  13.815
54471W        W15925  22.520  15.305  10.571
54472W        W15926   6.310  44.356  13.403
54473W        W15927  10.861  10.874  11.446
54474W        W15928  27.564   5.285   2.712
54475W        W15929  42.349  44.772   0.415
54476W        W15930  24.104   9.153  12.348
54477W        W15931  38.059  27.529  14.764
54478W        W15932   7.396   8.728   0.414
54479W        W15933  25.163  13.610   4.164
54480W        W15934  38.906  34.056  14.437
54481W        W15935  22.551  13.743  13.373
54482W        W15936   2.753  30.498  12.092
54483W        W15937   4.752  28.110  10.021
54484W        W15938  32.983  22.163   2.758
54485W        W15939  19.054  38.029  10.597
54486W        W15940  24.581  18.095  13.482
54487W        W15941   9.725  30.042   2.689
54488W        W15942  18.253  18.624   2.684
54489W        W15943   4.296  18.183  14.362
54490W        W15944  16.255  35.432   4.342
54491W        W15945   2.864   3.919   2.342
54492W        W15946   1.433  33.380  11.031
54493W        W15947  12.834   0.895  12.401
54494W        W15948  36.043   9.260   4.280
54495W        W15949  31.488  40.426  14.302
54496W        W15950  24.204  26.703  13.457
54497W        W15951   5.895  21.529   2.745
54498W        W15952  35.412   2.938   4.771
54499W        W15953  14.145  23.520   0.776
54500W        W15954  21.167  18.138  11.944
54501W        W15955  15.587  37.855  11.069
54502W        W15956  10.293  23.170   1.732
54503W        W15957  15.656  20.617  14.815
54504W        W15958   7.670  20.643  12.567
54505W        W15959   7.212  20.085  13.046
54506W        W15960  32.990  43.878   4.648
54507W        W15961  37.459  32.067  13.456
54508W        W15962   1.977  22.604   3.155
54509W        W15963  44.322  32.490   0.472
54510W        W15964  24.642  29.005  14.466
54511W        W15965  35.473   8.788   3.245
54512W        W15966  21.076  13.236  10.980
54513W        W15967  42.944  10.291  14.317
54514W        W15968   9.289  33.958   3.264
54515W        W15969  34.892  11.372  14.009
54516W        W15970  30.649   6.369  12.939
54517W        W15971  17.572  27.619  14.003
54518W        W15972  10.745   6.769  14.786
54519W        W15973   0.419  44.263  13.490
54520W        W15974  15.695  11.149   3.205
54521W        W15975  42.851  13.226   2.224
54522W        W15976  13.652  34.044  14.396
54523W        W15977  25.147  43.872  13.800
54524W        W15978  38.331  30.525  12.029
54525W        W15979  34.603   4.915  13.037
54526W        W15980  19.621  42.401  11.371
54527W        W15981  27.974  29.048   1.234
54528W        W15982  10.793   0.432   2.396
54529W        W15983   2.910  28.044   0.786
54530W        W15984  10.639  39.399   2.371
54531W        W15985   0.344  28.543   3.822
54532W        W15986  25.633  38.475  12.886
54533W        W15987  16.154  36.981  14.328
54534W        W15988   4.777  22.543  10.463
54535W        W15989  16.145   6.282  10.105
54536W        W15990  21.636  31.126   4.709
54537W        W15991  34.496   4.759  12.480
54538W        W15992  16.261  41.990   4.295
54539W        W15993  29.041  20.246   2.196
54540W        W15994   1.743  21.228   0.944
54541W        W15995  40.366  28.040  14.806
54542W        W15996  29.096  41.029  13.801
54543W        W15997  32.404   6.257  10.407
54544W        W15998  21.578  11.144  12.396
54545W        W15999  29.979   1.429  14.515
54546W        W16000  10.838  26.991  14.945
54547W        W16001  15.134   0.777  12.893
54548W        W16002   2.788  19.180  13.391
54549W        W16003  38.491  39.864   4.255
54550W        W16004   3.879  39.052   1.898
54551W        W16005  29.996  11.272   1.358
54552W        W16006  28.598  13.294   0.749
54553W        W16007  27.130  25.123   0.406
54554W        W16008  36.561  37.028   0.397
54555W        W16009  39.558  11.183  14.441
54556W        W16010   1.801  12.129   3.172
54557W        W16011   6.744  19.578  12.352
54558W        W16012   0.274  16.769   2.748
54559W        W16013  42.512   9.170  10.468
54560W        W16014   7.830   5.865  12.858
54561W        W16015  19.720  11.186   1.857
54562W        W16016  16.687  12.640   3.817
54563W        W16017  31.427  33.518  12.906
54564W        W16018  19.633  11.763  10.645
54565W        W16019  44.378  21.559   1.855
54566W        W16020  19.208  15.734   0.426
54567W        W16021  20.154  30.512  10.519
54568W        W16022  33.122  36.927   4.258
54569W        W16023  32.052  15.169   1.791
54570W        W16024   5.411  34.546   3.756
54571W        W16025  13.107  29.003   3.257
54572W        W16026   9.191   9.680   0.868
54573W        W16027  12.277  14.287   5.205
54574W        W16028  10.304  28.046   4.621
54575W        W16029  14.690  22.108   1.371
54576W        W16030   2.767   4.284   1.389
54577W        W16031  35.467  39.964  12.957
54578W        W16032  44.938   0.924  10.503
54579W        W16033   5.798   9.212  11.509
54580W        W16034  23.607   7.228  10.434
54581W        W16035   4.815  38.457   4.325
54582W        W16036   1.305  40.485   1.347
54583W        W16037  40.970  21.154  14.798
54584W        W16038  17.677  16.138  10.635
54585W        W16039  39.446   0.458  10.888
54586W        W16040  26.074  19.624   2.835
54587W        W16041  25.476  44.446  11.451
54588W        W16042   1.397  21.132  12.471
54589W        W16043  15.140  28.086  13.457
54590W        W16044  20.681  41.348   1.701
54591W        W16045   7.414  22.728  10.993
54592W        W16046  22.685  13.167  14.896
54593W        W16047  14.644  19.218   2.310
54594W        W16048  22.060  13.642  11.916
54595W        W16049   1.895  41.905   0.903
54596W        W16050  29.144  43.869  12.045
54597W        W16051   8.229  11.313  13.339
54598W        W16052  16.682  34.876  14.810
54599W        W16053  13.683  42.430   5.086
54600W        W16054  33.619  18.204  11.512
54601W        W16055   7.233  29.147   4.185
54602W        W16056  36.871  22.239   0.327
54603W        W16057  20.537  40.402  14.493
54604W        W16058  10.646   3.274   0.796
54605W        W16059  35.017  19.277  12.541
54606W        W16060   3.407  12.714   3.241
54607W        W16061  34.978  40.051   3.306
54608W        W16062  12.758   2.369   1.267
54609W        W16063  13.714  38.462   3.169
54610W        W16064  11.686  26.555   3.220
54611W        W16065  27.951  40.970  12.578
54612W        W16066  37.901   6.327   0.755
54613W        W16067   5.892   6.856  12.360
54614W        W16068   2.807   8.246  11.858
54615W        W16069  38.953  36.973  11.045
54616W        W16070   2.317   5.704   1.843
54617W        W16071  37.485  23.137  10.422
54618W        W16072  38.330  42.976   1.877
54619W        W16073  16.651  11.663   0.958
54620W        W16074  19.243  23.601  13.374
54621W        W16075   0.917  28.941  11.101
54622W        W16076  28.649   8.244   3.842
54623W        W16077  22.997  36.873   2.860
54624W        W16078  43.506  18.571   4.659
54625W        W16079  26.608  22.130  12.426
54626W        W16080  22.163  25.571   1.869
54627W        W16081   2.802   9.233   1.414
54628W        W16082  28.940  22.116   0.757
54629W        W16083  14.730   1.437  11.120
54630W        W16084   3.332  32.568   2.869
54631W        W16085  34.926  20.544   1.412
54632W        W16086  29.155  26.551  10.992
54633W        W16087  42.340   8.694   4.838
54634W        W16088  27.981  35.023   1.370
54635W        W16089   0.283  30.651  12.530
54636W        W16090  16.194  39.964  10.575
54637W        W16091  15.190  36.875  14.777
54638W        W16092   8.242   8.780   3.665
54639W        W16093  21.572  15.256   4.803
54640W        W16094  35.576  10.800   3.338
54641W        W16095   2.247  38.983  12.997
54642W        W16096  17.621   9.380   4.726
54643W        W16097  24.207   3.786  13.311
54644W        W16098  33.494  39.381   1.430
54645W        W16099   6.869   6.374   0.258
54646W        W16100   9.684  24.004   2.210
54647W        W16101  13.817  16.269   4.339
54648W        W16102  40.382  14.609   2.868
54649W        W16103   6.427  27.672   0.732
54650W        W16104  20.223  30.963   3.309
54651W        W16105   9.733   2.460  13.401
54652W        W16106  21.185  27.015   4.161
54653W        W16107  43.922  42.379   2.219
54654W        W16108  29.022   4.737  14.888
54655W        W16109   0.248  40.890   4.691
54656W        W16110  34.076  23.523  12.836
54657W        W16111  20.055  36.377  14.351
54658W        W16112   7.859  19.231   3.833
54659W        W16113  19.708  44.781   4.132
54660W        W16114  23.528  34.519  11.068
54661W        W16115  30.441   5.857   1.412
54662W        W16116   9.373   8.756   0.892
54663W        W16117  11.763   5.773  14.275
54664W        W16118  15.126  29.524  13.336
54665W        W16119  11.655  29.479   3.820
54666W        W16120  27.484  20.678  12.908
54667W        W16121  29.152   9.356   3.764
54668W        W16122  14.691  44.761  14.989
54669W        W16123  12.809  15.284  11.007
54670W        W16124  43.015   2.801   2.278
54671W        W16125  21.604   1.795   3.826
54672W        W16126   8.374  30.164   4.778
54673W        W16127  33.900   9.826  12.027
54674W        W16128  19.091   7.701  13.018
54675W        W16129  30.509  23.055  14.877
54676W        W16130  44.447  27.067  14.898
54677W        W16131  29.603  34.415   3.349
54678W        W16132   5.711  12.808   3.781
54679W        W16133  18.686  28.561  12.467
54680W        W16134  20.186  18.742  10.422
54681W        W16135  37.556  38.443  13.541
54682W        W16136  23.200  33.436   4.815
54683W        W16137  35.953  23.062   4.310
54684W        W16138   4.392  29.130   2.402
54685W        W16139  16.731  36.482  14.010
54686W        W16140  40.332   9.706   4.784
54687W        W16141  22.995  24.098   3.243
54688W        W16142  14.252  26.538   0.293
54689W        W16143  13.246   6.884   4.178
54690W        W16144  29.153  36.916   4.675
54691W        W16145  39.959  17.623   4.325
54692W        W16146  12.796  11.637   4.817
54693W        W16147   1.282  19.553   0.800
54694W        W16148  12.200  26.692  11.460
54695W        W16149  28.608  17.149   4.253
54696W        W16150  24.090  44.359   9.956
54697W        W16151   1.975  44.971   2.854
54698W        W16152  33.026  43.511  12.563
54699W        W16153  24.192  21.646   4.621
54700W        W16154  34.004  40.966   0.871
54701W        W16155  33.621  14.690   1.777
54702W        W16156  37.979  14.337  11.084
54703W        W16157  13.156  37.928  14.362
54704W        W16158  20.656  18.109  12.472
54705W        W16159  15.584   7.364   4.171
54706W        W16160   9.267  25.105   4.667
54707W        W16161  35.430  43.428  12.499
54708W        W16162  44.416  15.160   3.297
54709W        W16163  39.446  23.674  11.890
54710W        W16164  38.974  25.653   1.281
54711W        W16165   3.851  41.984  13.930
54712W        W16166  30.028   8.836  13.934
54713W        W16167   5.914  43.364   1.831
54714W        W16168   4.812  26.643   1.733
54715W        W16169   1.450  18.211   0.255
54716W        W16170   4.278  29.445   0.891
54717W        W16171  14.186  33.049  11.479
54718W        W16172  13.825  33.936   4.268
54719W        W16173  10.155  13.300  13.512
54720W        W16174  20.648  38.511  12.406
54721W        W16175  36.074   9.791  13.541
54722W        W16176  29.102   1.383   2.863
54723W        W16177  31.600   8.824  10.146
54724W        W16178  26.203  11.728   4.819
54725W        W16179   3.285  15.688  11.102
54726W        W16180   4.713   0.892   2.727
54727W        W16181  38.010  10.153   2.758
54728W        W16182  22.200  25.570  13.869
54729W        W16183  26.679   6.699   1.399
54730W        W16184  44.815  11.643   0.463
54731W        W16185   9.181  35.056   4.715
54732W        W16186   6.716  31.088   4.191
54733W        W16187  12.191  13.747  14.956
54734W        W16188  10.147  28.655   0.476
54735W        W16189  12.675  15.326   2.722
54736W        W16190  39.993  30.146  11.037
54737W        W16191  20.199  30.087   0.470
54738W        W16192  33.005  16.207  11.078
54739W        W16193   2.882  41.017   0.841
54740W        W16194  43.351  19.638   3.382
54741W        W16195  32.630   8.895  13.326
54742W        W16196  40.365  28.064  13.834
54743W        W16197  32.118  40.995  11.953
54744W        W16198  12.692   1.877  14.374
54745W        W16199  23.515  26.988  13.351
54746W        W16200  24.047  24.126  11.436
54747W        W16201  27.966  35.884   2.675
54748W        W16202  43.792  23.139   3.151
54749W        W16203  40.805  11.194   3.249
54750W        W16204  39.839  40.877   9.465
54751W        W16205  43.313  37.917  10.448
54752W        W16206   0.346  39.507   2.413
54753W        W16207  12.633  11.667   4.134
54754W        W16208   1.843  30.990   2.380
54755W        W16209  30.541  11.183   0.433
54756W        W16210   1.242  34.966  13.846
54757W        W16211  40.891  39.907  12.008
54758W        W16212   3.928  16.203   1.318
54759W        W16213   7.762  40.872  10.998
54760W        W16214  13.613  34.019   1.697
54761W        W16215  14.800  19.239   1.867
54762W        W16216  37.398  15.199   1.725
54763W        W16217   1.919  40.407  11.033
54764W        W16218  34.495   2.235  12.402
54765W        W16219  39.482  27.548   0.459
54766W        W16220   2.778  10.777   2.793
54767W        W16221  32.565  36.526  14.820
54768W        W16222  28.153  22.071   5.159
54769W        W16223  20.763  16.801  11.416
54770W        W16224  17.295   0.375  14.483
54771W        W16225  24.587  31.456   3.660
54772W        W16226  25.081  35.411   2.666
54773W        W16227  19.709  19.165  14.364
54774W        W16228  18.671   4.906  11.597
54775W        W16229  25.521  19.265  10.518
54776W        W16230  27.469   0.487   2.329
54777W        W16231  14.599  12.731  13.861
54778W        W16232  30.119   2.227   3.674
54779W        W16233   1.913   1.333  14.895
54780W        W16234  10.350  13.128   1.768
54781W        W16235  35.852  34.506  11.888
54782W        W16236  14.259  11.346  11.059
54783W        W16237  41.484  31.566   2.240
54784W        W16238   0.462  33.421  11.558
54785W        W16239  42.929  17.641   3.259
54786W        W16240  28.943  41.335  10.546
54787W        W16241  29.550  33.601   2.869
54788W        W16242  40.002  18.735   2.186
54789W        W16243   0.326  33.409   3.789
54790W        W16244  24.527  30.045  11.376
54791W        W16245  35.907  23.103  14.483
54792W        W16246  25.557  37.896   3.277
54793W        W16247  11.660  15.745   2.218
54794W        W16248  31.450  15.641  14.762
54795W        W16249  43.510  40.450   0.244
54796W        W16250   5.832  33.070   1.382
54797W        W16251  29.606  37.079  12.549
54798W        W16252   4.254  37.354   3.793
54799W        W16253  15.200  41.849  13.342
54800W        W16254  32.026  32.609   2.842
54801W        W16255  19.647  10.863  11.569
54802W        W16256  26.083   5.279  11.990
54803W        W16257  17.078  25.144  14.372
54804W        W16258  11.847  12.146   0.259
54805W        W16259  41.977  27.600  14.425
54806W        W16260  40.526   2.353   3.739
54807W        W16261  19.630  21.069  11.511
54808W        W16262  42.793  29.933  10.499
54809W        W16263  36.039  11.650  13.814
54810W        W16264  10.316  24.001  12.824
54811W        W16265  34.000  17.288   4.155
54812W        W16266   7.851  22.115   2.285
54813W        W16267  15.217  16.649  13.406
54814W        W16268  14.275   5.857   2.385
54815W        W16269   7.222  10.155   3.811
54816W        W16270  13.755  10.163  14.503
54817W        W16271  29.153  27.181  12.851
54818W        W16272   9.310  42.340  11.125
54819W        W16273   4.319  22.704  11.101
54820W        W16274  17.261  26.549   1.886
54821W        W16275  28.655  34.040  10.500
54822W        W16276  26.551  12.738  13.319
54823W        W16277   2.947  25.976  14.409
54824W        W16278  32.117  16.575   2.266
54825W        W16279  39.893   1.453  13.936
54826W        W16280  14.115  38.405  11.534
54827W        W16281  20.737  21.747  10.935
54828W        W16282  44.786  30.998   3.749
54829W        W16283   9.651   2.781   4.765
54830W        W16284   2.398  25.074   0.836
54831W        W16285   5.291  41.335  13.419
54832W        W16286  10.768  35.402  13.019
54833W        W16287   3.434   3.807  12.465
54834W        W16288   5.710   3.955  12.550
54835W        W16289  20.696  19.734  10.537
54836W        W16290  38.338  18.232   3.737
54837W        W16291  12.675  38.447   4.351
54838W        W16292  15.234  38.067   2.342
54839W        W16293   9.171  25.592  14.843
54840W        W16294  33.497   2.892  12.902
54841W        W16295  34.033  30.940   1.320
54842W        W16296  12.640  26.094   0.289
54843W        W16297   4.929  12.136   4.335
54844W        W16298   4.805   7.241  11.892
54845W        W16299   5.427  22.099  14.021
54846W        W16300  20.038  39.907   2.380
54847W        W16301  30.961  41.919   2.892
54848W        W16302  29.461  27.619   0.777
54849W        W16303   1.331  16.811   0.931
54850W        W16304  18.075  27.167  12.927
54851W        W16305  17.302  22.111   0.878
54852W        W16306  23.067  40.305   3.790
54853W        W16307  29.102   0.401  14.781
54854W        W16308  15.084  35.439  11.373
54855W        W16309  39.406  41.803   2.690
54856W        W16310  16.174  22.546  13.520
54857W        W16311  37.340  28.529  13.879
54858W        W16312  42.894  25.007   2.199
54859W        W16313  17.698   2.865   3.844
54860W        W16314  21.616  27.998  14.953
54861W        W16315   2.884  11.357   2.901
54862W        W16316   6.322   8.276  14.301
54863W        W16317   7.254  39.528  14.830
54864W        W16318  18.191  10.794  14.393
54865W        W16319  16.160  22.034  11.994
54866W        W16320  18.167   9.283  14.011
54867W        W16321   4.248  40.306  11.999
54868W        W16322  21.093   5.417  14.872
54869W        W16323  24.540  14.772  12.981
54870W        W16324  26.064  16.808  14.330
54871W        W16325  30.598  13.652  12.537
54872W        W16326  35.446  18.668  14.311
54873W        W16327  24.496   5.321  13.484
54874W        W16328  14.748  34.568  10.631
54875W        W16329   3.254  38.551  10.636
54876W        W16330  12.211  19.218  14.900
54877W        W16331  21.250  35.358  14.439
54878W        W16332   6.753  17.709   4.171
54879W        W16333  10.716  34.469  14.761
54880W        W16334  36.586  18.249   2.824
54881W        W16335   1.422   6.401  13.530
54882W        W16336  10.771   1.783   4.602
54883W        W16337   5.725  32.990   4.324
54884W        W16338   8.849  32.961   1.339
54885W        W16339  21.728  11.315   4.146
54886W        W16340   1.271  38.842  11.383
54887W        W16341  23.189   9.728  14.307
54888W        W16342  41.008   3.942  13.887
54889W        W16343  11.276  39.357  14.905
54890W        W16344  12.330  41.900   2.670
54891W        W16345  42.901   2.424  11.461
54892W        W16346  36.443  41.427  14.483
54893W        W16347  27.195  15.670   4.622
54894W        W16348  29.075  41.326  12.088
54895W        W16349   4.718  13.842  13.870
54896W        W16350  42.469  27.103   2.301
54897W        W16351   2.245   5.412   4.659
54898W        W16352  39.511   1.418   3.291
54899W        W16353  23.234  25.098  11.603
54900W        W16354  21.078  31.947   3.646
54901W        W16355  33.510  42.998  10.447
54902W        W16356  18.715  20.070   4.825
54903W        W16357  17.251  16.621   1.373
54904W        W16358   8.658   5.694  14.341
54905W        W16359  30.078  35.389  14.278
54906W        W16360  37.429  43.470   4.269
54907W        W16361  23.612  10.875  14.407
54908W        W16362  21.609  35.587   0.325
54909W        W16363   4.856   4.843  11.609
54910W        W16364  33.106  22.729  14.983
54911W        W16365  20.619  16.204  13.498
54912W        W16366   4.432  17.260  13.835
54913W        W16367  27.552  35.029   1.354
54914W        W16368  39.812  17.123  12.831
54915W        W16369  14.234  30.038   4.785
54916W        W16370  25.216  43.353   1.694
54917W        W16371   8.771  29.662   1.779
54918W        W16372  14.161  17.128  12.478
54919W        W16373  16.152  40.854   4.342
54920W        W16374  29.120  15.745   4.746
54921W        W16375  43.329  25.204   0.873
54922W        W16376   1.345  38.339   3.805
54923W        W16377  34.609   7.795   1.747
54924W        W16378  39.548  25.613   3.792
54925W        W16379  40.054  43.381  14.946
54926W        W16380  31.573   9.179  10.071
54927W        W16381   4.738  11.329  11.602
54928W        W16382  32.099   1.904  12.090
54929W        W16383  32.488  24.647   4.761
54930W        W16384  37.554  36.528   1.410
54931W        W16385   2.398  36.493  11.400
54932W        W16386  25.551   2.257  12.535
54933W        W16387  35.602  25.650  14.314
54934W        W16388  19.098  40.837   2.680
54935W        W16389  19.706  27.048  12.830
54936W        W16390  23.712  12.264  14.298
54937W        W16391  19.600  23.131  11.088
54938W        W16392  44.465  43.332   4.632
54939W        W16393  32.058   4.788   5.112
54940W        W16394  21.102   5.400  14.396
54941W        W16395  40.417  34.044   4.617
54942W        W16396  37.358  20.606  10.995
54943W        W16397  24.565  30.427  14.841
54944W        W16398  20.755  14.113  13.324
54945W        W16399  24.067  25.126  14.508
54946W        W16400  30.950  34.387   4.252
54947W        W16401  18.652  36.019  11.997
54948W        W16402  21.233  22.721   0.353
54949W        W16403   2.751  18.219   1.274
54950W        W16404  44.884  36.570   2.703
54951W        W16405  31.619  32.086   1.237
54952W        W16406  23.611  11.794   3.748
54953W        W16407  11.217  43.397  14.438
54954W        W16408   8.263  38.338  11.923
54955W        W16409  28.168  25.553  14.439
54956W        W16410   7.837  30.602  11.431
54957W        W16411  38.549   9.214   1.847
54958W        W16412   2.418  36.383   4.337
54959W        W16413  27.962  19.172   3.698
54960W        W16414  10.754  24.498  11.967
54961W        W16415  28.443  42.913  12.576
54962W        W16416   6.364  12.129   0.400
54963W        W16417   9.787  26.205  13.420
54964W        W16418  16.284  38.336   4.226
54965W        W16419  42.892  42.435   1.842
54966W        W16420   0.775   6.273  14.448
54967W        W16421  33.080  27.095   4.191
54968W        W16422  31.147  27.607  12.516
54969W        W16423  13.792   5.317   1.827
54970W        W16424  39.920  32.108  10.098
54971W        W16425  44.473  21.683  13.987
54972W        W16426  15.141  16.315  11.522
54973W        W16427  31.969  10.765   2.739
54974W        W16428  16.253  35.518  11.557
54975W        W16429   7.350  16.651  14.815
54976W        W16430  14.828  34.508  12.870
54977W        W16431   0.439   3.408   2.203
54978W        W16432   4.298  25.645   4.624
54979W        W16433  11.647  43.284   4.173
54980W        W16434  42.452  26.619   0.455
54981W        W16435  41.367  36.351  14.503
54982W        W16436  44.977  31.617   2.731
54983W        W16437  21.115  44.765   1.712
54984W        W16438  32.123   9.780   1.914
54985W        W16439   0.802   3.403   1.332
54986W        W16440  18.620  20.100  14.483
54987W        W16441  26.574  39.474  13.825
54988W        W16442  43.814  29.455   4.606
54989W        W16443  29.060   3.931   3.373
54990W        W16444  19.717  32.434  13.821
54991W        W16445  32.086  38.464   3.267
54992W        W16446  33.979  38.547  10.992
54993W        W16447  12.296   2.438   0.891
54994W        W16448   1.246  35.939   2.808
54995W        W16449  36.893  21.596  12.963
54996W        W16450  27.540  19.587  11.931
54997W        W16451   1.318  33.522   0.451
54998W        W16452  23.578  33.393   3.844
54999W        W16453  32.965  12.299   3.669
55000W        W16454  44.421  43.376  14.914
55001W        W16455   4.333   4.360   3.279
55002W        W16456  19.681  15.661   2.773
55003W        W16457  22.017   7.788   4.610
55004W        W16458  26.021  23.085  12.057
55005W        W16459  10.317  43.477   2.767
55006W        W16460  11.131   9.343   2.275
55007W        W16461  29.026  44.305   0.957
55008W        W16462  37.537  26.110   4.237
55009W        W16463   4.893  31.508   4.177
55010W        W16464  34.602  23.588  14.453
55011W        W16465  22.219   0.825   3.758
55012W        W16466  33.554  14.648   2.353
55013W        W16467  11.294  38.945  10.493
55014W        W16468   5.883   8.311   2.713
55015W        W16469  34.047  35.018  13.317
55016W        W16470  19.568  30.624   0.732
55017W        W16471  10.870  27.002   2.275
55018W        W16472  13.336  21.744   9.936
55019W        W16473  26.651  34.369   2.354
55020W        W16474  38.391  12.260   3.670
55021W        W16475  18.665  24.542  12.924
55022W        W16476  35.361  19.277  14.767
55023W        W16477  28.172  28.018  12.500
55024W        W16478  29.951  33.448   3.830
55025W        W16479   5.281   3.309  10.092
55026W        W16480   0.887  33.467   2.252
55027W        W16481  22.145  21.078   4.183
55028W        W16482   0.769   9.289  14.434
55029W        W16483  28.462   0.987  14.810
55030W        W16484  34.949   9.817   3.190
55031W        W16485  17.133  36.858   0.321
55032W        W16486   7.673   9.646  10.922
55033W        W16487  35.006  39.350   0.760
55034W        W16488   2.788   1.879  10.975
55035W        W16489   3.915  23.208  13.876
55036W        W16490   9.740  15.115   4.614
55037W        W16491   6.795  24.698  10.640
55038W        W16492  22.501  27.614  13.976
55039W        W16493   4.778   1.278  12.830
55040W        W16494  34.976  22.146  10.538
55041W        W16495  32.546   1.393  11.609
55042W        W16496   5.289  38.439   4.354
55043W        W16497  13.723  30.515  11.558
55044W        W16498  13.222  36.851  11.887
55045W        W16499  39.406  11.312   2.718
55046W        W16500  44.322  28.966  14.999
55047W        W16501  43.884  24.525   1.722
55048W        W16502  18.088  23.603  11.586
55049W        W16503  42.833  12.232  13.875
55050W        W16504  44.286   8.215  14.449
55051W        W16505  39.964  37.525  13.948
55052W        W16506  33.940  21.579  11.035
55053W        W16507   4.211   9.680  13.859
55054W        W16508  32.013   5.356   4.252
55055W        W16509  19.633   0.248  14.787
55056W        W16510  37.908  34.960   4.698
55057W        W16511  20.556  24.501   3.656
55058W        W16512   1.284  22.017   2.359
55059W        W16513  40.337  39.913   0.779
55060W        W16514   7.732  35.055  14.391
55061W        W16515  35.084  37.393   1.851
55062W        W16516   2.874   2.912   0.825
55063W        W16517  42.491  27.550  14.290
55064W        W16518  10.383  41.390   4.791
55065W        W16519   4.230  15.818   2.192
55066W        W16520  38.980  34.889   1.245
55067W        W16521  38.069  13.802   4.242
55068W        W16522  44.368  20.273  14.016
55069W        W16523  22.611  26.609   5.220
55070W        W16524  22.011  15.596  12.467
55071W        W16525  33.619   8.341  10.561
55072W        W16526   8.385  27.685   2.178
55073W        W16527  10.313  43.285   4.304
55074W        W16528   0.966  28.523   1.215
55075W        W16529  29.158  31.901  11.432
55076W        W16530  40.503  13.621   2.387
55077W        W16531  39.052  16.805  13.944
55078W        W16532   4.835  20.076  12.009
55079W        W16533  28.110   4.276   4.136
55080W        W16534  35.401  22.129  10.480
55081W        W16535  28.169   1.330   0.343
55082W        W16536  34.083  33.590  14.963
55083W        W16537   0.357  42.446  14.954
55084W        W16538   0.767  36.079  11.024
55085W        W16539   3.340  16.185  14.901
55086W        W16540  27.115  21.193  10.928
55087W        W16541  40.302  41.407   4.202
55088W        W16542  35.039  41.801   2.733
55089W        W16543  42.868  21.520  12.488
55090W        W16544   0.865  32.091   4.318
55091W        W16545  30.066  35.445   1.930
55092W        W16546  23.097   1.849  13.856
55093W        W16547   8.242   8.842   2.758
55094W        W16548   4.302  14.277   2.352
55095W        W16549  25.611  41.358   4.244
55096W        W16550   1.801   2.906  10.932
55097W        W16551  38.431  23.184   0.871
55098W        W16552  21.542   8.793  11.874
55099W        W16553  17.267  41.322  11.001
55100W        W16554  19.660   6.702  10.953
55101W        W16555  35.456  22.542   2.797
55102W        W16556   1.321  21.228  13.319
55103W        W16557  33.094  16.576   0.341
55104W        W16558  27.646  27.007  10.603
55105W        W16559   4.926  34.481   3.830
55106W        W16560  13.827  37.480  10.569
55107W        W16561  12.687  23.656   0.265
55108W        W16562  40.995  40.922   2.379
55109W        W16563   2.307  33.918   4.757
55110W        W16564  36.030  38.442  13.368
55111W        W16565  25.610  27.134  11.380
55112W        W16566  33.416  22.541  12.346
55113W        W16567   1.916  15.095   0.362
55114W        W16568   5.746  33.470  10.452
55115W        W16569  25.181  24.724   2.845
55116W        W16570  10.143   0.948   0.397
55117W        W16571  36.364  11.670   5.224
55118W        W16572   9.675  19.168   1.273
55119W        W16573  13.634  16.567   9.610
55120W        W16574   4.799   3.819  14.471
55121W        W16575  18.708   3.788  12.439
55122W        W16576  24.717   4.332  13.521
55123W        W16577  24.612   1.778   3.229
55124W        W16578  41.833  24.526  10.983
55125W        W16579  20.055  36.956  14.486
55126W        W16580  14.121  16.688  14.285
55127W        W16581  37.534  37.936  14.963
55128W        W16582  44.976  30.636   3.688
55129W        W16583  32.611   1.413  10.643
55130W        W16584  12.275  35.447  12.513
55131W        W16585  37.087  42.450  13.386
55132W        W16586  38.443  25.533   4.296
55133W        W16587  16.079  30.153  14.799
55134W        W16588  19.776  38.824  12.079
55135W        W16589  33.114  43.773  10.493
55136W        W16590  23.199  13.333  12.391
55137W        W16591  13.748  39.842   0.832
55138W        W16592  21.219  39.002  11.864
55139W        W16593  18.658  39.378   0.909
55140W        W16594  37.978  44.936  14.506
55141W        W16595  10.222  39.868   1.919
55142W        W16596  11.149  40.953  13.913
55143W        W16597  20.596  26.555  12.087
55144W        W16598   3.868  42.920  11.103
55145W        W16599  29.647  24.570  11.977
55146W        W16600   3.720  11.302  13.922
55147W        W16601  40.815  19.561  13.803
55148W        W16602   5.826  27.084  12.425
55149W        W16603  30.970  19.688  13.892
55150W        W16604  36.396  34.025   3.145
55151W        W16605  10.302  29.992  14.897
55152W        W16606  23.182  14.822  14.758
55153W        W16607  13.260  32.988  12.871
55154W        W16608  31.605   1.363  11.914
55155W        W16609   6.703  14.684   0.946
55156W        W16610  39.950  30.502  11.091
55157W        W16611   3.880  15.099  11.555
55158W        W16612   1.934   8.216   2.688
55159W        W16613  12.191  19.170  11.992
55160W        W16614   8.302  39.020   0.872
55161W        W16615  27.516   9.717   3.751
55162W        W16616  24.166  33.045   4.220
55163W        W16617  23.666  26.527   4.314
55164W        W16618  32.411  24.137   0.483
55165W        W16619   5.239  15.631  11.420
55166W        W16620   0.873   2.941  13.851
55167W        W16621  14.198   8.355  12.823
55168W        W16622  39.916  33.026   1.328
55169W        W16623  20.129   9.866  10.639
55170W        W16624  14.628  29.654  14.426
55171W        W16625  35.445  37.019   0.741
55172W        W16626  33.103   3.858  10.518
55173W        W16627   3.824  39.461   2.306
55174W        W16628   3.397  19.609   1.709
55175W        W16629  42.426   5.744   2.782
55176W        W16630  33.542   7.892  10.045
55177W        W16631  25.962  37.533  13.006
55178W        W16632  27.172  27.178   2.769
55179W        W16633  14.738  11.229   0.415
55180W        W16634  28.578  14.237   2.221
55181W        W16635  27.491  25.634  14.944
55182W        W16636  24.497  21.692   4.602
55183W        W16637   4.858  36.591  11.525
55184W        W16638   7.268   5.882  13.053
55185W        W16639  14.644  24.663  11.862
55186W        W16640  44.778  18.072   3.164
55187W        W16641   9.328  26.208   3.867
55188W        W16642  21.651  10.704   3.276
55189W        W16643   7.876  25.608   3.251
55190W        W16644  28.616  28.042   0.394
55191W        W16645  39.830  19.663   2.896
55192W        W16646  14.753  44.933  13.854
55193W        W16647  25.516  37.578  12.528
55194W        W16648   0.791  20.606   3.258
55195W        W16649  38.560  27.591   2.385
55196W        W16650   8.357  36.964   2.748
55197W        W16651  43.449  32.070  11.923
55198W        W16652  13.197  30.932  13.307
55199W        W16653  25.698  10.779  12.457
55200W        W16654   5.848  18.057   1.276
55201W        W16655  23.521  11.833  13.956
55202W        W16656   2.433   3.947  11.500
55203W        W16657  37.374  17.146   3.208
55204W        W16658  38.501   7.807  10.951
55205W        W16659  11.692  39.493  11.016
55206W        W16660  15.253  10.650   3.742
55207W        W16661   9.831  35.102  11.040
55208W        W16662  15.299   7.681  12.951
55209W        W16663  27.129   1.245  13.911
55210W        W16664  22.237  29.465  11.858
55211W        W16665  26.597  42.486  12.544
55212W        W16666  44.480  36.941   3.842
55213W        W16667  31.458   6.216  12.068
55214W        W16668  30.916  17.107  11.464
55215W        W16669  28.001  16.256  11.398
55216W        W16670  13.168  39.536  11.445
55217W        W16671   7.384  38.939   3.160
55218W        W16672  10.765  18.101   4.230
55219W        W16673  16.811  16.786  13.532
55220W        W16674  12.650   2.910  11.411
55221W        W16675  17.135  32.564   3.736
55222W        W16676  37.389   6.756   3.275
55223W        W16677  33.052  27.167   2.760
55224W        W16678  42.289  11.301   1.930
55225W        W16679  40.870   1.884   2.743
55226W        W16680   8.221  32.460   3.375
55227W        W16681  44.908  39.833  14.342
55228W        W16682  38.066   1.361   0.450
55229W        W16683   5.871  44.870  12.992
55230W        W16684  34.387  43.503   2.816
55231W        W16685  19.201   5.194   2.856
55232W        W16686  18.770  16.629   2.831
55233W        W16687   6.919  36.065   2.232
55234W        W16688  33.022  20.245   3.734
55235W        W16689  17.737  31.051  13.032
55236W        W16690  22.009  19.121   4.712
55237W        W16691   0.955  44.304  14.791
55238W        W16692   6.745  39.363   1.385
55239W        W16693  35.873  19.197  12.996
55240W        W16694  10.774  11.805   3.855
55241W        W16695  13.147  15.177  12.061
55242W        W16696  30.146  17.603  10.571
55243W        W16697  26.189   2.796  10.088
55244W        W16698  33.958  23.213   2.211
55245W        W16699  31.963  34.874   1.767
55246W        W16700  44.315  40.963   4.814
55247W        W16701  42.339  29.484   4.822
55248W        W16702   3.813  26.680  13.323
55249W        W16703  34.908  18.732   1.441
55250W        W16704  40.324  25.619   3.207
55251W        W16705  17.762  12.326   0.393
55252W        W16706   2.438   4.707   2.335
55253W        W16707  15.707  31.125   3.302
55254W        W16708  28.155  41.440  14.935
55255W        W16709  43.001  13.756  11.568
55256W        W16710  22.041  23.030   3.859
55257W        W16711  21.655   6.906   1.900
55258W        W16712  15.112  15.132  14.812
55259W        W16713  44.284  17.221  12.910
55260W        W16714   7.729  26.459  13.024
55261W        W16715  15.136  37.450   0.932
55262W        W16716  14.698  35.948   1.929
55263W        W16717  37.369  35.407   3.279
55264W        W16718  32.088  35.527   0.820
55265W        W16719  31.529  35.914  10.949
55266W        W16720  26.601  25.025   4.277
55267W        W16721  17.254   7.327  13.499
55268W        W16722   9.294   8.692  11.417
55269W        W16723  26.621  30.103   2.695
55270W        W16724  14.130  19.594  13.945
55271W        W16725  38.527   6.364  11.989
55272W        W16726   9.650   0.289   4.663
55273W        W16727  34.394  23.024   0.483
55274W        W16728  28.575   4.944   0.949
55275W        W16729  24.192   2.463   3.640
55276W        W16730  32.504  17.744  10.898
55277W        W16731  10.847  26.697  14.903
55278W        W16732  22.571  38.915   9.931
55279W        W16733  14.611  41.333   3.180
55280W        W16734   4.889  30.534  14.473
55281W        W16735  29.494  10.781   9.564
55282W        W16736   0.308  11.667  14.424
55283W        W16737   5.723   8.872  13.437
55284W        W16738  25.546  24.046  10.040
55285W        W16739  39.845  39.377   9.591
55286W        W16740  34.420  19.248  12.064
55287W        W16741  15.776   8.741   4.280
55288W        W16742  29.049   8.399   3.229
55289W        W16743  14.788  14.128  12.072
55290W        W16744   7.875  41.009   1.840
55291W        W16745  41.870  27.449   2.764
55292W        W16746  34.510  10.783  11.109
55293W        W16747   4.757  16.278   2.192
55294W        W16748  40.042  14.785  12.400
55295W        W16749  34.933  22.213   4.795
55296W        W16750  35.546   5.253  12.080
55297W        W16751  21.233  23.996   2.335
55298W        W16752   3.816  16.806  12.085
55299W        W16753   0.486   6.763   3.667
55300W        W16754  27.094  16.191   1.218
55301W        W16755   5.709  44.946   3.145
55302W        W16756   1.415  40.487  10.897
55303W        W16757   6.758  15.758   2.207
55304W        W16758   2.243  28.627   0.371
55305W        W16759  11.298  37.869   2.290
55306W        W16760  26.685  29.026   4.161
55307W        W16761  43.291  11.322  10.959
55308W        W16762  24.597  13.128  13.400
55309W        W16763  29.093  34.574  11.523
55310W        W16764  38.015  38.545  14.904
55311W        W16765  22.067   2.414   0.885
55312W        W16766  33.557  43.970   1.721
55313W        W16767  40.506  22.716   0.941
55314W        W16768  37.863  26.574   1.417
55315W        W16769   9.281  35.595  10.621
55316W        W16770   0.484  31.003  14.381
55317W        W16771  32.043  19.217   0.405
55318W        W16772  24.088   6.373  10.917
55319W        W16773  30.922  19.164  12.883
55320W        W16774  44.988   6.404  11.465
55321W        W16775  23.669  29.486  11.053
55322W        W16776  20.627  33.518  14.851
55323W        W16777  32.016  29.971  12.890
55324W        W16778   4.336  27.510   2.744
55325W        W16779  11.851  40.940   3.149
55326W        W16780  10.695  44.339   3.679
55327W        W16781  20.144  41.501   1.750
55328W        W16782  14.625   8.277   2.272
55329W        W16783  27.634  14.270  11.084
55330W        W16784  16.180   2.384  14.780
55331W        W16785  41.980   1.811   0.967
55332W        W16786  43.790  38.927  13.904
55333W        W16787  42.418  44.845  13.870
55334W        W16788  13.812  26.005   1.910
55335W        W16789  20.074  32.101  13.927
55336W        W16790   9.661  35.977  10.488
55337W        W16791  24.522   5.694  14.017
55338W        W16792  21.114  20.102   3.200
55339W        W16793  22.006  27.611   1.348
55340W        W16794  39.399  34.546  14.489
55341W        W16795  40.377  13.667   2.851
55342W        W16796  11.816   6.259  10.519
55343W        W16797  37.430  15.658  14.891
55344W        W16798  15.276  39.436   5.742
55345W        W16799  42.784  26.069   0.359
55346W        W16800  11.255  19.165  14.010
55347W        W16801  29.087  29.139  11.439
55348W        W16802  21.513  11.635   1.879
55349W        W16803  26.621  13.107  14.302
55350W        W16804  12.299   8.386   1.862
55351W        W16805   9.872  44.820  13.523
55352W        W16806   3.248  28.938   3.280
55353W        W16807  44.314  40.415   1.761
55354W        W16808  31.095   7.696  12.855
55355W        W16809  27.149  36.844   2.314
55356W        W16810   1.305  10.181  12.398
55357W        W16811   8.195  26.191   4.768
55358W        W16812  23.565  41.976   4.810
55359W        W16813  43.438  40.038   2.692
55360W        W16814  17.559   3.836  11.049
55361W        W16815  11.706  30.435  12.825
55362W        W16816  32.458  25.049   4.229
55363W        W16817   6.763  20.264  10.596
55364W        W16818   5.388  21.694  14.310
55365W        W16819  39.522   0.345  12.481
55366W        W16820  37.027  13.275  12.948
55367W        W16821  32.024  42.878   5.232
55368W        W16822  13.313  39.548  14.302
55369W        W16823  34.950  39.376   3.768
55370W        W16824   0.742  38.510  11.424
55371W        W16825  12.838   6.217  12.044
55372W        W16826  27.447  31.138   2.283
55373W        W16827  35.409  24.073   3.319
55374W        W16828  22.629  22.236   4.780
55375W        W16829  40.000  39.904  13.045
55376W        W16830  34.032  21.068   3.652
55377W        W16831  14.145  30.942   2.201
55378W        W16832  30.960  25.642  12.026
55379W        W16833   0.411   5.258   3.671
55380W        W16834   9.704  34.999  10.588
55381W        W16835  19.278   9.175  14.030
55382W        W16836  14.215   7.695  14.349
55383W        W16837   9.877  35.479  14.940
55384W        W16838  27.194  21.722   1.421
55385W        W16839  42.778   1.277   1.905
55386W        W16840   0.858  27.463  12.858
55387W        W16841   6.829   4.835   3.262
55388W        W16842  32.928  24.539  14.912
55389W        W16843  35.530   5.295   0.388
55390W        W16844  33.079  30.535   1.273
55391W        W16845  39.329  44.467  10.117
55392W        W16846  31.932   7.888  14.827
55393W        W16847  44.972  34.116  10.947
55394W        W16848   1.820  19.042  14.971
55395W        W16849  39.487  21.215   4.649
55396W        W16850  20.553   9.824   0.739
55397W        W16851  19.565  24.143  12.906
55398W        W16852  32.891  15.820  14.470
55399W        W16853  25.107  42.499   0.272
55400W        W16854  11.177  42.979   5.270
55401W        W16855  27.452  18.666  10.960
55402W        W16856   7.821  23.617   1.889
55403W        W16857  21.565  34.957   0.369
55404W        W16858  35.971   3.713  13.545
55405W        W16859  28.590   7.240   9.518
55406W        W16860   0.756  21.072   4.648
55407W        W16861  17.091  24.697   0.754
55408W        W16862  24.484  35.407  14.329
55409W        W16863   1.273  32.926   3.266
55410W        W16864  41.879  44.488  11.442
55411W        W16865   2.950  28.483   1.930
55412W        W16866  17.251   9.206  13.507
55413W        W16867  17.092  40.942  10.979
55414W        W16868  15.197  19.232   4.187
55415W        W16869  10.248   1.962  11.390
55416W        W16870  20.695  38.492   0.882
55417W        W16871  27.984  23.115  13.547
55418W        W16872  39.366   8.288   3.234
55419W        W16873  25.084  16.745   2.781
55420W        W16874  11.228  15.788   2.803
55421W        W16875  37.348  38.844   4.262
55422W        W16876  41.469  14.723  11.035
55423W        W16877   0.761  14.727   0.867
55424W        W16878  25.497  39.846  10.567
55425W        W16879   8.759  43.396  13.459
55426W        W16880   6.353   9.345   4.634
55427W        W16881   5.253  16.571  13.791
55428W        W16882  23.064   9.755  14.914
55429W        W16883   4.837  33.000  14.818
55430W        W16884   1.426   2.340   2.226
55431W        W16885  23.604  43.474   0.912
55432W        W16886  42.859  31.979   2.337
55433W        W16887  29.077   4.363   9.500
55434W        W16888  22.179   8.349  12.575
55435W        W16889   9.226  23.143   0.346
55436W        W16890  24.114   6.314  14.787
55437W        W16891  26.100  39.404   0.829
55438W        W16892  17.761  12.674  13.904
55439W        W16893  31.121  17.283  13.985
55440W        W16894   7.391  31.511   2.385
55441W        W16895  29.951  32.892   2.794
55442W        W16896  13.686  42.789  10.979
55443W        W16897  17.202  39.559   1.917
55444W        W16898  12.631  24.695   3.228
55445W        W16899   5.922   9.280   0.933
55446W        W16900  35.492  42.493  14.022
55447W        W16901  33.972  26.689   0.832
55448W        W16902   4.249  32.529   0.277
55449W        W16903   1.967   1.278  11.904
55450W        W16904  37.868   6.366   3.153
55451W        W16905  12.257  20.607  14.885
55452W        W16906  31.959  11.301   3.823
55453W        W16907  36.093  32.135   3.827
55454W        W16908   3.224  10.311  14.830
55455W        W16909  37.042  13.267  11.922
55456W        W16910  39.006  24.567   2.220
55457W        W16911  17.718  14.173   4.288
55458W        W16912  39.513   6.757  14.409
55459W        W16913  14.765  30.161   0.264
55460W        W16914  16.077  20.048  13.361
55461W        W16915  31.924  42.970   2.255
55462W        W16916  11.173  22.520   0.440
55463W        W16917  27.581   7.718   3.374
55464W        W16918  37.494  31.059   0.886
55465W        W16919   7.403   8.665  13.538
55466W        W16920  30.496  27.124   4.123
55467W        W16921  24.217  42.523   2.334
55468W        W16922  17.159  26.992   4.352
55469W        W16923   8.868  12.623  11.070
55470W        W16924  21.642   9.694  12.554
55471W        W16925   6.820  36.396  10.628
55472W        W16926  37.466  10.181  11.601
55473W        W16927  25.173  22.149   0.242
55474W        W16928  11.730  39.396  12.917
55475W        W16929  23.073  11.777   2.275
55476W        W16930  37.889   4.737   1.925
55477W        W16931  35.488  15.654  11.884
55478W        W16932  12.659  28.437   4.786
55479W        W16933  13.606  23.595  10.535
55480W        W16934  22.072  39.888   1.451
55481W        W16935   0.781   5.367   0.912
55482W        W16936  17.691  11.656  12.927
55483W        W16937  13.811  42.900  10.495
55484W        W16938  38.877  14.119   4.772
55485W        W16939  39.919  29.031   2.344
55486W        W16940  39.358  37.436  14.019
55487W        W16941   4.322  26.051  11.871
55488W        W16942  24.692  17.669   4.662
55489W        W16943   4.815  26.049   0.358
55490W        W16944  29.995  18.131  11.940
55491W        W16945  30.462  28.634   2.864
55492W        W16946   0.810   7.411  13.816
55493W        W16947  26.023   8.862  12.423
55494W        W16948   4.795  11.357  10.454
55495W        W16949  12.724  14.175   3.753
55496W        W16950   8.259  20.270   4.822
55497W        W16951   6.682  17.773  11.926
55498W        W16952  32.886   3.319  10.946
55499W        W16953   7.673  32.497   9.927
55500W        W16954  18.265  20.703   4.354
55501W        W16955  20.594  15.205   0.373
55502W        W16956  12.266  26.143   2.735
55503W        W16957  26.043  19.091   1.317
55504W        W16958  43.803  17.682   1.756
55505W        W16959   1.314  15.166   1.431
55506W        W16960   6.260  39.885  10.483
55507W        W16961   1.783  35.858  10.518
55508W        W16962  23.675  40.802  13.498
55509W        W16963  12.633  16.601   0.960
55510W        W16964   0.432   2.329   2.805
55511W        W16965  14.264  24.663  14.970
55512W        W16966  43.280  31.420   0.745
55513W        W16967  11.730  20.675  14.759
55514W        W16968  30.604  24.090   0.262
55515W        W16969  26.463  34.113   3.321
55516W        W16970   9.801   2.281   3.750
55517W        W16971  26.158  21.523   1.435
55518W        W16972  13.614   5.807   0.425
55519W        W16973  28.679  43.380   0.925
55520W        W16974  29.499   2.369  10.550
55521W        W16975  31.071  36.879  14.798
55522W        W16976   7.295  13.615   2.316
55523W        W16977  14.833  18.775  12.002
55524W        W16978  41.448  13.845   4.199
55525W        W16979   2.769   1.334   1.907
55526W        W16980  30.947  29.999   3.728
55527W        W16981  34.921  21.070   4.315
55528W        W16982  32.141  10.672  11.597
55529W        W16983  41.343   7.252  10.971
55530W        W16984  12.714  38.507   3.377
55531W        W16985  13.805   9.729   5.577
55532W        W16986  32.424  39.857  11.407
55533W        W16987  26.059   7.349   1.356
55534W        W16988   4.847  31.580  11.469
55535W        W16989  36.875  36.944   4.670
55536W        W16990  19.261  30.118   4.125
55537W        W16991  12.692   0.805  12.911
55538W        W16992   4.853  32.971  12.357
55539W        W16993  40.934  42.839  10.602
55540W        W16994  16.184  30.111  11.938
55541W        W16995  42.982   3.823  13.896
55542W        W16996   5.783  24.532   2.395
55543W        W16997  30.583  40.398  11.117
55544W        W16998  18.715  44.764   2.324
55545W        W16999  30.041  15.780   4.702
55546W        W17000  32.631  15.312   0.914
55547W        W17001  33.951  30.029  14.806
55548W        W17002  33.015  33.001   0.269
55549W        W17003  18.215  31.052  12.520
55550W        W17004   9.294  41.461  12.525
55551W        W17005  34.450  27.034  13.340
55552W        W17006  34.117  42.450   4.689
55553W        W17007  37.347  19.707   2.801
55554W        W17008  16.245  30.499   0.939
55555W        W17009   8.740  10.374  10.590
55556W        W17010  33.489  23.994  11.534
55557W        W17011   4.813  25.543  12.506
55558W        W17012  37.067  41.009   0.455
55559W        W17013  20.206  11.810   0.923
55560W        W17014  21.576  32.422   3.782
55561W        W17015  17.148  38.459   0.741
55562W        W17016  34.117  10.220   1.775
55563W        W17017  40.944  36.061   0.393
55564W        W17018  41.873  29.655  13.946
55565W        W17019  10.753   4.255  10.409
55566W        W17020  25.101  17.228  12.849
55567W        W17021  22.106  16.576   1.290
55568W        W17022  41.359   1.483   1.857
55569W        W17023   0.938  14.694   4.123
55570W        W17024  31.413  29.047  12.483
55571W        W17025  37.878  20.719   3.755
55572W        W17026  33.456  38.854   1.434
55573W        W17027   9.872  36.013   2.276
55574W        W17028   1.849  43.370   0.801
55575W        W17029  28.170  38.008  14.356
55576W        W17030  22.552  13.819   9.951
55577W        W17031  26.177  29.061  12.925
55578W        W17032  20.639  13.769  11.117
55579W        W17033  36.018   6.362  10.590
55580W        W17034  19.083  12.839   4.232
55581W        W17035   8.864  34.988   4.198
55582W        W17036  24.654   1.396  12.898
55583W        W17037   2.733  24.646  11.063
55584W        W17038  28.546  21.683   3.684
55585W        W17039  27.022  41.436   4.722
55586W        W17040   5.782  15.715  12.411
55587W        W17041   7.815  37.943   3.225
55588W        W17042   2.344  41.876  14.445
55589W        W17043  34.526  26.114   1.748
55590W        W17044  30.996  11.316   4.614
55591W        W17045  21.211  22.734   1.302
55592W        W17046  13.152  39.819  10.508
55593W        W17047  16.258   9.791  13.867
55594W        W17048  33.612   7.779   4.600
55595W        W17049   3.298  12.755   0.928
55596W        W17050  17.193  42.445  12.424
55597W        W17051  30.973  42.844  12.846
55598W        W17052  38.486  31.425  10.911
55599W        W17053  12.652  41.449  11.075
55600W        W17054   4.839  21.114   4.178
55601W        W17055  18.153  28.497  13.407
55602W        W17056  26.980   9.162  14.971
55603W        W17057  21.619  13.177   4.766
55604W        W17058  41.835  13.330  12.008
55605W        W17059   8.375  38.458   4.622
55606W        W17060  26.006  14.650   0.869
55607W        W17061  42.999  11.294  14.919
55608W        W17062  39.408   8.887  14.861
55609W        W17063  42.913  27.052  10.588
55610W        W17064  38.424   5.391  14.869
55611W        W17065  25.614   4.316   0.325
55612W        W17066  43.381  37.438   3.726
55613W        W17067  39.865  39.389  14.006
55614W        W17068   3.429  34.935  12.919
55615W        W17069  29.028  17.176  12.067
55616W        W17070  35.065  25.187  10.408
55617W        W17071  13.844  20.657   0.836
55618W        W17072  30.977  11.333  10.567
55619W        W17073   1.424  14.684   4.126
55620W        W17074   4.412  31.405   2.399
55621W        W17075  25.481   2.363   2.337
55622W        W17076   8.719  44.857   4.297
55623W        W17077  25.593  44.442   3.216
55624W        W17078  27.008  44.371   2.356
55625W        W17079  38.874  26.481  11.502
55626W        W17080  26.011  19.060  13.827
55627W        W17081  28.456  30.917  14.486
55628W        W17082  15.750  16.115  11.579
55629W        W17083   4.340  42.444  10.958
55630W        W17084  25.507  32.888   3.823
55631W        W17085  18.550   1.349  14.855
55632W        W17086  35.094  36.085   5.151
55633W        W17087  27.942  23.241   0.809
55634W        W17088  24.506  23.651   3.765
55635W        W17089  14.241  18.716  14.340
55636W        W17090  15.226  22.032   0.764
55637W        W17091  20.576  35.583  10.949
55638W        W17092  22.532  18.771  14.026
55639W        W17093   4.377  34.969  14.285
55640W        W17094  15.726  41.338  12.941
55641W        W17095  30.554  13.318  11.575
55642W        W17096  27.187  25.534  13.016
55643W        W17097  13.171  18.660   0.356
55644W        W17098   5.917  40.359  10.994
55645W        W17099  18.253   5.298  12.940
55646W        W17100   4.748   0.905  14.974
55647W        W17101  22.019   9.307  11.495
55648W        W17102  25.010  19.753  14.997
55649W        W17103  34.864  34.428  13.500
55650W        W17104  40.824  18.280  13.308
55651W        W17105  25.036  25.672  11.538
55652W        W17106  43.311   2.929   1.371
55653W        W17107   1.441  20.129   4.118
55654W        W17108   1.839  42.811  13.534
55655W        W17109   4.425  20.561   0.361
55656W        W17110  10.313  35.489  12.452
55657W        W17111  44.882   3.832  14.279
55658W        W17112  35.456  15.709   2.221
55659W        W17113  41.906  37.916   2.706
55660W        W17114  18.225  12.173  13.807
55661W        W17115  35.506  15.736  10.564
55662W        W17116   9.776  21.250   0.932
55663W        W17117  24.047   8.311  14.958
55664W        W17118  10.717  15.681  12.387
55665W        W17119   1.964  26.468   3.187
55666W        W17120   7.278  10.736   2.697
55667W        W17121   6.347  43.380   3.184
55668W        W17122  35.460  21.624   2.263
55669W        W17123  21.090   6.834  10.454
55670W        W17124  16.290  29.028  14.937
55671W        W17125  26.483  20.029  11.939
55672W        W17126  31.632  25.538   1.344
55673W        W17127  17.173  34.397   4.785
55674W        W17128  27.508  14.316  13.963
55675W        W17129  11.222  15.809   4.715
55676W        W17130  12.660  26.161   4.285
55677W        W17131   4.746   2.805   4.720
55678W        W17132   6.273  21.223  14.456
55679W        W17133  15.295  39.474  14.817
55680W        W17134  15.599  35.004   0.420
55681W        W17135  41.990  14.165   1.882
55682W        W17136  42.850  19.711  13.333
55683W        W17137  27.601   6.280   3.163
55684W        W17138  28.130   4.857   5.661
55685W        W17139   9.365  28.542  13.793
55686W        W17140  17.248  25.193   1.355
55687W        W17141  27.079  27.543   2.264
55688W        W17142  17.238  43.394   2.848
55689W        W17143  36.933  41.498   4.792
55690W        W17144  29.063  23.701  11.882
55691W        W17145  24.508  40.970  12.460
55692W        W17146  10.334  30.972   0.810
55693W        W17147   0.351  25.185  14.468
55694W        W17148   5.250  21.152   0.870
55695W        W17149  32.064  26.690   5.097
55696W        W17150  18.767  42.385  14.327
55697W        W17151  15.135  42.385  14.815
55698W        W17152  44.492   9.351   1.301
55699W        W17153   3.879  15.097  12.923
55700W        W17154  25.599  37.410  13.895
55701W        W17155  44.780  28.992  12.977
55702W        W17156  28.959   5.297   0.922
55703W        W17157  28.078   7.182   3.385
55704W        W17158  15.645  14.235   3.808
55705W        W17159  15.773  34.450   2.238
55706W        W17160   6.318   2.825  12.069
55707W        W17161  26.951   0.468  11.089
55708W        W17162   5.779  23.646   1.782
55709W        W17163  10.235   9.661  11.057
55710W        W17164   8.655  15.668   2.817
55711W        W17165  44.306   7.688   0.342
55712W        W17166  35.906  33.126   3.266
55713W        W17167  43.018   6.328  13.935
55714W        W17168  30.152  34.970  14.468
55715W        W17169  23.197  29.565  13.014
55716W        W17170   3.772  13.210  13.353
55717W        W17171  24.553  23.700  13.990
55718W        W17172  28.576   8.697   0.735
55719W        W17173  26.064  24.634   4.715
55720W        W17174  33.409  39.042  13.346
55721W        W17175  44.861   7.243   4.226
55722W        W17176   9.243  23.617  14.908
55723W        W17177  23.591   6.902  12.835
55724W        W17178  20.068   7.818   5.692
55725W        W17179  16.201   4.881   0.883
55726W        W17180  23.989  31.129  10.997
55727W        W17181  27.506  14.710  12.369
55728W        W17182  39.379  16.770  10.480
55729W        W17183  13.688  43.924   4.612
55730W        W17184  43.412  19.136  14.287
55731W        W17185   7.203  36.024  11.870
55732W        W17186  41.977  42.359  11.004
55733W        W17187  13.260   9.823  12.452
55734W        W17188  28.657  13.696  14.922
55735W        W17189  12.349  15.692   2.275
55736W        W17190   4.388  30.466   1.752
55737W        W17191   8.891   4.404  11.379
55738W        W17192  31.642  18.579  14.844
55739W        W17193  32.396  11.247   4.340
55740W        W17194  27.485  38.900  11.961
55741W        W17195   1.976  43.020   1.346
55742W        W17196   9.704   2.318   3.353
55743W        W17197  15.625  31.997   4.738
55744W        W17198  21.515  31.522  11.949
55745W        W17199  41.469  38.055   3.801
55746W        W17200  34.098  27.140  14.846
55747W        W17201  41.926   3.298  12.903
55748W        W17202   8.749  26.553  12.566
55749W        W17203  15.720  14.154   4.660
55750W        W17204   7.403  12.160   2.190
55751W        W17205  14.303  41.862  11.107
55752W        W17206  13.722  32.538  14.458
55753W        W17207  20.539  29.165   0.249
55754W        W17208  43.924  36.447   3.340
55755W        W17209  12.260  16.704   3.700
55756W        W17210  30.925   8.200  11.061
55757W        W17211  43.342  19.765  13.524
55758W        W17212  42.914  32.452  11.424
55759W        W17213   2.771  35.502  10.641
55760W        W17214  28.993  17.773  13.891
55761W        W17215  41.318  21.072   0.901
55762W        W17216  43.507  25.492   4.303
55763W        W17217   1.271  29.166   0.459
55764W        W17218  42.905   0.271   0.471
55765W        W17219  14.256   5.868  12.535
55766W        W17220  20.062  41.467   4.253
55767W        W17221  26.961   5.718   2.385
55768W        W17222  23.656   5.380  14.886
55769W        W17223  30.555  29.560  14.876
55770W        W17224  20.274  18.107  11.463
55771W        W17225   9.283  11.167   3.743
55772W        W17226  14.614   7.265   9.972
55773W        W17227  44.775  44.282   0.800
55774W        W17228   5.761  32.619   1.361
55775W        W17229  22.145  42.509  13.468
55776W        W17230   6.408  35.103   1.694
55777W        W17231  18.066  44.793  12.943
55778W        W17232  39.391  31.403   4.682
55779W        W17233  41.834  25.603   1.927
55780W        W17234  25.590   3.383  14.364
55781W        W17235  35.044  25.668   2.267
55782W        W17236  40.997  18.144  14.833
55783W        W17237  29.648  42.905  10.518
55784W        W17238  18.221   4.251  12.417
55785W        W17239  34.609  35.949  13.454
55786W        W17240  42.292  12.745   4.597
55787W        W17241  14.269  28.633  13.539
55788W        W17242  13.300  40.989  10.063
55789W        W17243   3.739  29.539   4.337
55790W        W17244  19.718  27.182  11.512
55791W        W17245  32.137  13.645  14.504
55792W        W17246  23.072  22.224  12.462
55793W        W17247   5.873  37.010   3.331
55794W        W17248  43.786   8.291   3.736
55795W        W17249   9.211  12.740  13.991
55796W        W17250   6.196  41.307   4.812
55797W        W17251  36.389   1.818  14.423
55798W        W17252  35.387  25.054  12.524
55799W        W17253  10.298  30.083  14.422
55800W        W17254  23.720  23.205   3.350
55801W        W17255  10.226  27.538  12.440
55802W        W17256  16.175  16.120  12.579
55803W        W17257  34.394   6.395  14.937
55804W        W17258  22.541  27.627   4.783
55805W        W17259  30.525  37.353   0.429
55806W        W17260  37.421  15.811   4.135
55807W        W17261  13.751   3.239  10.054
55808W        W17262  26.204  39.842  13.900
55809W        W17263  40.832   9.668  12.463
55810W        W17264   2.230   0.771  14.382
55811W        W17265   3.310   9.757   2.767
55812W        W17266  21.697  17.613  12.370
55813W        W17267  24.190  36.482   4.659
55814W        W17268  28.609  43.471  11.382
55815W        W17269  32.055  24.642  14.912
55816W        W17270  12.262  32.467  12.894
55817W        W17271  36.373  23.688  10.919
55818W        W17272  32.487  41.362   1.718
55819W        W17273  23.216  32.977   0.855
55820W        W17274  33.619  28.072  10.990
55821W        W17275  36.558  27.191  12.836
55822W        W17276   5.432  23.653  14.999
55823W        W17277  43.279  10.753   3.360
55824W        W17278  18.254  28.668   0.774
55825W        W17279  32.084  10.293  12.861
55826W        W17280  33.510  29.611   0.309
55827W        W17281  32.500  18.617   1.297
55828W        W17282   2.770  17.162  14.385
55829W        W17283  24.170  20.595   3.259
55830W        W17284  41.467  28.450  13.312
55831W        W17285  42.031   5.913   0.354
55832W        W17286   5.932  19.679  11.611
55833W        W17287  27.113   0.987  13.393
55834W        W17288  10.153  34.959   3.673
55835W        W17289  14.629  20.683  14.823
55836W        W17290  31.475  23.616   3.286
55837W        W17291  31.084  40.881   4.328
55838W        W17292  23.545  10.270   1.730
55839W        W17293  30.091   5.260   0.856
55840W        W17294  43.473  38.547   2.792
55841W        W17295  35.367   4.377  12.916
55842W        W17296  38.444  29.464  12.362
55843W        W17297  41.318  10.675  12.535
55844W        W17298   4.883  31.009  10.435
55845W        W17299   4.317  23.149   2.863
55846W        W17300  19.546   8.710  14.499
55847W        W17301  31.445   1.924  11.079
55848W        W17302   3.764  43.277  11.441
55849W        W17303  41.021  34.459   0.919
55850W        W17304  22.718   9.154   4.256
55851W        W17305   1.345  30.617   0.940
55852W        W17306  42.882  29.089   1.924
55853W        W17307  37.356  29.945   4.709
55854W        W17308  32.097  40.355  10.442
55855W        W17309  15.199  10.723   1.399
55856W        W17310  24.669  11.771   0.945
55857W        W17311  11.807   2.351   4.206
55858W        W17312  32.542  38.433   4.765
55859W        W17313  23.235  14.761   3.637
55860W        W17314   9.348   7.735  14.291
55861W        W17315  11.782  29.498   1.771
55862W        W17316   8.734  33.416  12.398
55863W        W17317   0.313  43.939   1.238
55864W        W17318   5.263   9.241  12.862
55865W        W17319   7.305  23.623   2.335
55866W        W17320   3.318  21.204   1.438
55867W        W17321   2.932  26.527  12.350
55868W        W17322  32.533  31.951  11.870
55869W        W17323  37.988   6.788   3.822
55870W        W17324  35.548  31.611  13.537
55871W        W17325  11.725  33.623  14.425
55872W        W17326   1.330  20.042  13.906
55873W        W17327  44.400  34.017  12.395
55874W        W17328  42.872  42.384  11.599
55875W        W17329  33.067  26.671  14.006
55876W        W17330  42.867   3.317   4.607
55877W        W17331  17.075  41.845  11.439
55878W        W17332  32.414  17.790  10.580
55879W        W17333   7.246  39.882  13.399
55880W        W17334  11.680  18.062  12.564
55881W        W17335  26.490   9.735   1.308
55882W        W17336  31.515  20.538   0.272
55883W        W17337  42.405  44.286  12.911
55884W        W17338  39.936   5.852  14.760
55885W        W17339   8.229  24.009  14.292
55886W        W17340  39.872  18.649  11.000
55887W        W17341   3.292  14.678   2.308
55888W        W17342   5.334  44.854   1.443
55889W        W17343  22.538   3.261  11.522
55890W        W17344  23.238   5.843   4.223
55891W        W17345  32.073  24.007   0.946
55892W        W17346  24.067  13.244   1.394
55893W        W17347  25.487  20.745  14.789
55894W        W17348   7.895   0.763   0.952
55895W        W17349  15.299  13.300   2.747
55896W        W17350  16.290  29.052   4.120
55897W        W17351  14.122  21.116   3.205
55898W        W17352  30.972  44.883  12.081
55899W        W17353  23.011  32.899  11.968
55900W        W17354  23.164  31.973   5.232
55901W        W17355  43.005  18.669  10.426
55902W        W17356   5.706   9.788   3.231
55903W        W17357  31.910  26.020   0.924
55904W        W17358  18.265  12.718  11.067
55905W        W17359   5.701   5.848   0.385
55906W        W17360  40.395   5.924   1.264
55907W        W17361  27.071  26.527  12.398
55908W        W17362  33.382  21.192   5.109
55909W        W17363  44.889  10.236  13.526
55910W        W17364   3.328  39.556   0.397
55911W        W17365  44.493  15.241  13.353
55912W        W17366  12.788   5.770  14.423
55913W        W17367  33.927  18.247  13.395
55914W        W17368  11.347  21.624   3.195
55915W        W17369   5.433  35.392   4.137
55916W        W17370  26.579  15.725   3.287
55917W        W17371  29.071  44.280   4.239
55918W        W17372   8.396  21.091   3.307
55919W        W17373   9.808  19.555   2.698
55920W        W17374  40.878  27.183   4.270
55921W        W17375  31.646  29.480  11.977
55922W        W17376  12.704  38.035  12.974
55923W        W17377   8.317  11.327   3.290
55924W        W17378  43.799   8.790  11.907
55925W        W17379   3.935  43.289   0.250
55926W        W17380  27.629  41.390  14.279
55927W        W17381  41.320   3.754  11.027
55928W        W17382  10.247  44.392  12.475
55929W        W17383  19.752   1.398  12.544
55930W        W17384  10.843  40.316  14.331
55931W        W17385  36.387   5.215  13.381
55932W        W17386  37.916  32.423  12.510
55933W        W17387  34.099   8.312   3.821
55934W        W17388  18.161  23.706   2.330
55935W        W17389  10.236  29.936   2.856
55936W        W17390  27.609   6.258  12.541
55937W        W17391  37.043  12.699  11.426
55938W        W17392  21.192  17.712  14.994
55939W        W17393  18.249  18.056  14.488
55940W        W17394  27.559  10.723  11.457
55941W        W17395  22.019  38.462  12.571
55942W        W17396  10.761  28.646   2.231
55943W        W17397  27.662  30.936  10.516
55944W        W17398  41.015  10.372  11.569
55945W        W17399  12.631  30.634   0.256
55946W        W17400  43.876   3.791  14.302
55947W        W17401  39.448  26.084  14.414
55948W        W17402  31.498   7.851   4.730
55949W        W17403  10.679   6.762  13.391
55950W        W17404  15.758  41.310   1.388
55951W        W17405  17.653  10.291   1.290
55952W        W17406   2.954  22.118   3.202
55953W        W17407  10.871   1.245   0.934
55954W        W17408  43.020  14.279   2.235
55955W        W17409  36.992  33.067  11.522
55956W        W17410  10.808   6.868   3.234
55957W        W17411   4.348  15.214  10.991
55958W        W17412   8.771  16.647   3.829
55959W        W17413  22.643  39.912  11.890
55960W        W17414  44.951  35.873  14.301
55961W        W17415  27.021   8.247  13.388
55962W        W17416  39.351  20.151   3.160
55963W        W17417  10.251   0.751   1.878
55964W        W17418   3.937  26.675  14.384
55965W        W17419  27.961  40.362  14.982
55966W        W17420   5.916  42.841   3.694
55967W        W17421  40.035  11.282  14.013
55968W        W17422  36.879  32.028   1.332
55969W        W17423  26.058  37.856  13.319
55970W        W17424  25.510  13.608   1.396
55971W        W17425  12.199   0.769   1.297
55972W        W17426   4.265  12.295  14.893
55973W        W17427  16.242  26.543   4.642
55974W        W17428  35.036   4.244   0.761
55975W        W17429  39.371  33.093  11.956
55976W        W17430  16.081   5.233   1.338
55977W        W17431   7.327  28.034   1.818
55978W        W17432   6.754  40.426  12.910
55979W        W17433  21.620   7.879   1.437
55980W        W17434  41.905  35.888   1.439
55981W        W17435  36.527   2.729   1.852
55982W        W17436  26.478  20.053  14.769
55983W        W17437  21.570   9.338   1.837
55984W        W17438  14.799  43.955  14.341
55985W        W17439   5.708  36.866   4.702
55986W        W17440  10.639  37.083  13.437
55987W        W17441  41.502  42.408   4.776
55988W        W17442  40.507  21.115  14.454
55989W        W17443  24.707  39.911  10.559
55990W        W17444  36.993  33.529   4.714
55991W        W17445  25.067   5.835  14.316
55992W        W17446  13.120  16.713  12.011
55993W        W17447   3.834  42.908  11.446
55994W        W17448  26.470   8.805  13.817
55995W        W17449  27.125  14.625  11.008
55996W        W17450  21.115  34.922   4.261
55997W        W17451   5.212   3.345  13.482
55998W        W17452  12.806  25.579  14.487
55999W        W17453   1.264  16.229  12.346
56000W        W17454  43.434   6.410  14.982
56001W        W17455  17.697  31.452   2.275
56002W        W17456   9.890  37.003   1.219
56003W        W17457   1.409  38.866   0.441
56004W        W17458  24.565  12.337  11.521
56005W        W17459   3.723  40.927  10.410
56006W        W17460  12.268   3.852  14.977
56007W        W17461  21.190  26.692   3.246
56008W        W17462  26.584  44.905  10.464
56009W        W17463  23.684   3.797   4.717
56010W        W17464   6.276   4.341  13.038
56011W        W17465  36.020  18.253   1.884
56012W        W17466  31.904  13.763  11.508
56013W        W17467   3.336  36.506  14.479
56014W        W17468  11.658  22.057   1.854
56015W        W17469  25.490  37.922   1.878
56016W        W17470  31.131  19.245  12.455
56017W        W17471   5.396   4.213   0.940
56018W        W17472  17.070  11.358  11.438
56019W        W17473   0.424  42.933  12.423
56020W        W17474  23.492  26.013   4.284
56021W        W17475   4.383  32.927   2.227
56022W        W17476  37.517  10.767   3.191
56023W        W17477  29.136  17.639  14.818
56024W        W17478  14.223  15.741   4.710
56025W        W17479  22.217  25.684   0.476
56026W        W17480   2.261  23.121   1.731
56027W        W17481   3.353  33.951   1.398
56028W        W17482  10.196  17.061  11.427
56029W        W17483  21.072  36.561  14.489
56030W        W17484  41.874  41.535   9.590
56031W        W17485  30.424  44.485  11.039
56032W        W17486  26.959   5.706   0.251
56033W        W17487  11.249  34.469   5.287
56034W        W17488  10.168  10.652  10.450
56035W        W17489  12.831  38.828  13.806
56036W        W17490   4.271   8.862  10.619
56037W        W17491  29.463  38.526  14.515
56038W        W17492  38.532  44.927  11.404
56039W        W17493   9.293  10.715  11.437
56040W        W17494  16.682  40.038   1.698
56041W        W17495   1.279  18.212   3.657
56042W        W17496  36.072  31.627   1.214
56043W        W17497  43.773  10.195   4.800
56044W        W17498  18.562  12.155  10.630
56045W        W17499  23.169   6.918  12.034
56046W        W17500   9.726   6.678   1.774
56047W        W17501  27.537  39.354  11.923
56048W        W17502  20.597   2.311   4.745
56049W        W17503  33.973  12.287   5.730
56050W        W17504  19.626  35.549   3.810
56051W        W17505  24.145  34.407   0.262
56052W        W17506   3.798  12.776   3.867
56053W        W17507  19.714  43.377  14.349
56054W        W17508  15.768  34.045  11.941
56055W        W17509   0.363  15.184  10.965
56056W        W17510  33.038  29.991   4.628
56057W        W17511  15.267  40.391   3.356
56058W        W17512  43.923   5.281  13.996
56059W        W17513   8.770   0.301  13.455
56060W        W17514   0.969  10.337   2.866
56061W        W17515  23.131  19.712  14.852
56062W        W17516  29.058  26.165  12.498
56063W        W17517  43.277  40.438  13.999
56064W        W17518  19.218  23.238  12.973
56065W        W17519  27.196  26.659   4.605
56066W        W17520  17.295  42.817  13.370
56067W        W17521  19.675  13.331   3.749
56068W        W17522  19.206  12.816  12.880
56069W        W17523  37.362  19.554  12.857
56070W        W17524   1.741  33.110  10.539
56071W        W17525  13.142  26.043   4.640
56072W        W17526  32.396  28.034  11.901
56073W        W17527  13.252  35.998   2.299
56074W        W17528  30.540  36.903   4.614
56075W        W17529  28.965   6.280  14.939
56076W        W17530  32.026   6.225   1.236
56077W        W17531   7.293   8.797  14.344
56078W        W17532  37.839   5.793   1.701
56079W        W17533  20.522  12.732   3.828
56080W        W17534  29.564  11.834  13.324
56081W        W17535  16.639  26.693   1.323
56082W        W17536   3.454  32.438  11.447
56083W        W17537   3.902  37.835  13.316
56084W        W17538  12.772  22.092   4.807
56085W        W17539  17.189  27.048   0.315
56086W        W17540  43.467  32.549  13.349
56087W        W17541  22.502  24.077  10.550
56088W        W17542  12.834   1.816  14.852
56089W        W17543  32.934   5.762  13.419
56090W        W17544  11.847   1.456   3.805
56091W        W17545  28.594  15.231   4.656
56092W        W17546  16.582  16.161   5.199
56093W        W17547  26.201  37.055   0.873
56094W        W17548  10.158   5.391   0.378
56095W        W17549  27.086   8.806  13.978
56096W        W17550   5.386   5.405  14.509
56097W        W17551  20.137  22.192  11.561
56098W        W17552  23.551  20.229  12.894
56099W        W17553  30.626  38.057   5.196
56100W        W17554  40.480   6.865  10.460
56101W        W17555  12.208   4.302   4.677
56102W        W17556   3.239   6.418  14.354
56103W        W17557   9.809   5.833   4.598
56104W        W17558  29.967  16.657  12.946
56105W        W17559  16.076  22.164   0.822
56106W        W17560   1.285  43.886   3.788
56107W        W17561  32.902  34.502   2.233
56108W        W17562   2.735   1.782  11.969
56109W        W17563  19.718   8.172  14.436
56110W        W17564  10.824   7.311   1.286
56111W        W17565  42.527  31.962  10.412
56112W        W17566  26.594   5.932   4.141
56113W        W17567   1.947  33.439   2.297
56114W        W17568  30.164  30.093   3.811
56115W        W17569  30.417  36.851  13.024
56116W        W17570  12.241  23.550   4.726
56117W        W17571  44.290  38.891   3.203
56118W        W17572  42.933   0.798   4.310
56119W        W17573  30.567   6.683  13.542
56120W        W17574  38.021   7.852  11.530
56121W        W17575  15.769  42.346  14.801
56122W        W17576   5.825  12.322   0.465
56123W        W17577   4.218  29.662  14.440
56124W        W17578  19.696  43.942  13.997
56125W        W17579  43.463   7.718  12.518
56126W        W17580   0.279  19.262   4.656
56127W        W17581  16.198  20.031  10.505
56128W        W17582  36.033   8.891   2.848
56129W        W17583  32.452  27.496   3.200
56130W        W17584   9.346  32.564  11.374
56131W        W17585  33.914  17.082   1.388
56132W        W17586  28.676  15.190   0.966
56133W        W17587  20.152  28.008   4.165
56134W        W17588   4.374  10.373   0.420
56135W        W17589  32.452   0.871  13.517
56136W        W17590  27.978  33.040  11.577
56137W        W17591  35.515  16.681  14.376
56138W        W17592  13.325   3.896  10.584
56139W        W17593  35.461  43.302  11.889
56140W        W17594  24.644  12.280  14.768
56141W        W17595  37.464  43.377   1.245
56142W        W17596  30.032  26.208  13.539
56143W        W17597  34.008  13.325   2.758
56144W        W17598   3.377  43.005   3.783
56145W        W17599  26.179  13.112   1.708
56146W        W17600  30.131  14.769   0.892
56147W        W17601  43.928  42.970  12.497
56148W        W17602  44.860  25.009   3.261
56149W        W17603  23.220  40.453   0.328
56150W        W17604  37.473  42.790   2.407
56151W        W17605  40.521  11.801  12.071
56152W        W17606  22.637  29.165   4.709
56153W        W17607  27.025   7.320   3.316
56154W        W17608  41.345  11.163   1.861
56155W        W17609  11.630  11.729  10.487
56156W        W17610   7.762  31.632  12.993
56157W        W17611  32.430   1.873   0.804
56158W        W17612  44.378  35.922  12.890
56159W        W17613  37.519   1.344   0.844
56160W        W17614  19.579  43.859  12.521
56161W        W17615   3.736  34.106   4.190
56162W        W17616  20.643  14.706   0.742
56163W        W17617  13.800  35.891  12.844
56164W        W17618   6.394  25.004  13.394
56165W        W17619  31.423  32.038   3.222
56166W        W17620  32.071  19.545  11.587
56167W        W17621  20.612  27.956   0.855
56168W        W17622  42.526  38.542   0.875
56169W        W17623  36.899  23.554   3.193
56170W        W17624   9.169  34.459   1.725
56171W        W17625  38.012  14.658  13.462
56172W        W17626  31.600  16.696   0.279
56173W        W17627   6.228  20.683  10.978
56174W        W17628  15.587  21.596   1.245
56175W        W17629  42.432  16.737   0.760
56176W        W17630  21.043  26.980   0.459
56177W        W17631  31.109   5.224  14.810
56178W        W17632  19.093  15.280  14.347
56179W        W17633   6.250  20.092  10.911
56180W        W17634  30.142   7.409  14.999
56181W        W17635   7.692  13.330  14.003
56182W        W17636  32.424  22.631  10.056
56183W        W17637  31.524  27.014   1.839
56184W        W17638  33.882  33.492   2.785
56185W        W17639  10.650  12.645  14.426
56186W        W17640  20.053   7.178  14.834
56187W        W17641  14.747  27.615  11.470
56188W        W17642   4.289  42.519  12.956
56189W        W17643  26.998  27.984  13.860
56190W        W17644  31.464   8.835   5.580
56191W        W17645  20.229  36.923   4.629
56192W        W17646   4.773  16.665   0.421
56193W        W17647   1.855  10.218  12.052
56194W        W17648  31.062  19.613   2.320
56195W        W17649  27.630  12.735  12.853
56196W        W17650   3.323  15.273   4.821
56197W        W17651  44.947  27.164  14.985
56198W        W17652  38.900  40.459   2.190
56199W        W17653  38.895   8.722  13.381
56200W        W17654   1.323   1.773  14.286
56201W        W17655   2.404  19.716  13.812
56202W        W17656  30.985  41.400   5.313
56203W        W17657   4.338   7.363   2.178
56204W        W17658   0.389  20.266   2.753
56205W        W17659   1.368  39.018   3.347
56206W        W17660  37.063  18.710   1.259
56207W        W17661  37.040  39.050  10.456
56208W        W17662  22.093  37.881   0.275
56209W        W17663  33.965  11.188   2.858
56210W        W17664  35.857  10.368  12.542
56211W        W17665   0.437  23.021   2.226
56212W        W17666  14.338  27.129  14.793
56213W        W17667  41.910  26.599  12.056
56214W        W17668  36.432  28.169  11.053
56215W        W17669  15.651  22.541   3.328
56216W        W17670  14.262  18.726  11.057
56217W        W17671  24.642   8.787   9.989
56218W        W17672   5.847  36.970  14.412
56219W        W17673  22.120  21.130   0.369
56220W        W17674  22.136  25.579  11.046
56221W        W17675  40.852  29.562  11.467
56222W        W17676  44.899   4.334  12.545
56223W        W17677  39.824  39.426   2.213
56224W        W17678  29.435  34.076  13.448
56225W        W17679  20.111   9.790   3.712
56226W        W17680   4.215  32.392  14.025
56227W        W17681   3.774  23.520  11.483
56228W        W17682  13.150  17.604  14.895
56229W        W17683  29.475  21.018  11.012
56230W        W17684  21.019  11.659   1.874
56231W        W17685   3.363  44.931  13.436
56232W        W17686  21.684  11.285   1.798
56233W        W17687   5.331  15.712  13.386
56234W        W17688  23.735  42.301   3.740
56235W        W17689  36.384  16.712   4.797
56236W        W17690  19.132  16.650   4.732
56237W        W17691  20.701  39.519   0.771
56238W        W17692   5.795  14.831  11.536
56239W        W17693  42.990  15.131  11.466
56240W        W17694  41.863  35.497  11.556
56241W        W17695   4.786   5.818  12.365
56242W        W17696  25.595  21.077   4.273
56243W        W17697  25.989   5.916  12.417
56244W        W17698  15.580  38.992   3.200
56245W        W17699  16.707  44.330   4.738
56246W        W17700  17.132  18.559   3.738
56247W        W17701  25.161  39.412  14.833
56248W        W17702  16.193  20.696  11.585
56249W        W17703  44.916  38.905  13.934
56250W        W17704  15.602   1.759   0.354
56251W        W17705  25.125  23.198   5.095
56252W        W17706  10.708  36.409  14.342
56253W        W17707   1.325  25.683   4.228
56254W        W17708  37.084  34.119   2.230
56255W        W17709   1.456  41.460  13.978
56256W        W17710   4.262   4.311   0.463
56257W        W17711   6.881  16.097  13.462
56258W        W17712  35.987   0.461   0.810
56259W        W17713  34.055  43.343  14.955
56260W        W17714   5.206  14.811   2.414
56261W        W17715  33.912  42.364   3.182
56262W        W17716  15.253  19.658   2.380
56263W        W17717  10.859  44.422   2.825
56264W        W17718  36.378  16.234   2.307
56265W        W17719  37.549   3.384   1.362
56266W        W17720  34.062  44.816   4.241
56267W        W17721  30.540  32.443   2.850
56268W        W17722  14.683  37.018  10.645
56269W        W17723  41.431   6.310   1.346
56270W        W17724   7.877  34.383  11.610
56271W        W17725  43.850  21.168  12.828
56272W        W17726  35.871  25.080   5.314
56273W        W17727  20.150   0.976  10.971
56274W        W17728   6.764  34.932  11.373
56275W        W17729  22.218  27.557  11.954
56276W        W17730  40.859  21.601   1.772
56277W        W17731  32.895  18.707   3.242
56278W        W17732  40.939  30.017  14.810
56279W        W17733  29.088   9.701   1.855
56280W        W17734   4.917  31.619   2.860
56281W        W17735   1.915  10.637   2.366
56282W        W17736  25.658  38.857   0.797
56283W        W17737  30.045  26.639  14.927
56284W        W17738  41.426  44.919   3.634
56285W        W17739   5.916   9.815   3.769
56286W        W17740  38.392  35.503  10.517
56287W        W17741  22.634  10.869  14.492
56288W        W17742  37.035  40.003  13.805
56289W        W17743  27.186   1.916   1.386
56290W        W17744  11.288  24.658   1.824
56291W        W17745  33.532  43.354  12.830
56292W        W17746  40.863  13.134  13.033
56293W        W17747  18.194   1.482  14.372
56294W        W17748  22.012  38.496   4.787
56295W        W17749  37.571  25.596   3.754
56296W        W17750   0.256   8.844   4.754
56297W        W17751  31.936  13.204  13.967
56298W        W17752  32.572   9.172   0.244
56299W        W17753  35.995  21.713  14.974
56300W        W17754  36.537   1.378  11.606
56301W        W17755  22.085  18.247   1.363
56302W        W17756  39.337  42.429   0.954
56303W        W17757  24.588  15.109   4.732
56304W        W17758  44.385   2.250   1.223
56305W        W17759   3.909  44.483  11.467
56306W        W17760  21.739  12.839   0.387
56307W        W17761   0.296  20.625   1.233
56308W        W17762   4.392  31.530   0.726
56309W        W17763  18.234  25.573  11.103
56310W        W17764  33.616  28.060   1.312
56311W        W17765  26.026   3.265   0.338
56312W        W17766  11.734  17.593  10.978
56313W        W17767  21.043   3.838  14.910
56314W        W17768  19.225  22.119  12.400
56315W        W17769   0.792  18.091  13.912
56316W        W17770  35.946  26.961   1.252
56317W        W17771  13.674  44.836   3.687
56318W        W17772  17.791  34.034   2.710
56319W        W17773  31.910  23.147  12.828
56320W        W17774   6.420  22.096  11.386
56321W        W17775  24.055  20.255  12.909
56322W        W17776  41.392  13.631   0.421
56323W        W17777  28.588  28.952  12.438
56324W        W17778  36.459  38.541  11.923
56325W        W17779  33.593   2.310   3.365
56326W        W17780  16.694  21.131   3.742
56327W        W17781  11.631  19.681  13.935
56328W        W17782  11.789  39.898  12.036
56329W        W17783  16.567   8.775  13.042
56330W        W17784  12.748  14.204  14.899
56331W        W17785   9.655  14.635   3.177
56332W        W17786  27.505  16.092  11.565
56333W        W17787  32.089  30.148   3.742
56334W        W17788  13.806  42.400   1.393
56335W        W17789  15.165  28.079  11.106
56336W        W17790  11.840  22.057   4.190
56337W        W17791   7.229  44.881   3.856
56338W        W17792  21.207  41.980  11.461
56339W        W17793  21.117  15.700   5.175
56340W        W17794  34.084  36.931   0.773
56341W        W17795   5.924   8.703   3.732
56342W        W17796  37.911  14.810  14.986
56343W        W17797   0.822  36.592  12.977
56344W        W17798  33.408  24.973   2.345
56345W        W17799  16.812  22.641   0.728
56346W        W17800  42.486  22.712  14.404
56347W        W17801   7.710  42.378   3.233
56348W        W17802  30.121   1.740   0.365
56349W        W17803  23.489  10.240  12.942
56350W        W17804  14.805  33.054  10.469
56351W        W17805  44.413  25.581   2.282
56352W        W17806   4.420  39.876  13.476
56353W        W17807  22.015  42.028  12.095
56354W        W17808   1.820   9.168  11.389
56355W        W17809  20.171  29.033  14.814
56356W        W17810   4.741  14.262   4.615
56357W        W17811  13.743   2.960   4.614
56358W        W17812  33.031  42.830   3.809
56359W        W17813  39.354  42.964   1.751
56360W        W17814  31.086   1.893   1.749
56361W        W17815  28.184  33.899  14.823
56362W        W17816  40.535  16.664   3.791
56363W        W17817  11.854  11.234   1.292
56364W        W17818  42.830  12.318  13.319
56365W        W17819  37.866   6.268  12.981
56366W        W17820  15.710  39.957   9.506
56367W        W17821  34.898  38.999   0.406
56368W        W17822  19.626  30.472  10.420
56369W        W17823  18.153  38.045   1.863
56370W        W17824  15.821  12.680  14.027
56371W        W17825  13.605  35.899   3.814
56372W        W17826  38.522  40.303   0.411
56373W        W17827   1.380  14.650   1.392
56374W        W17828  19.239  22.713   3.195
56375W        W17829  15.267  36.586   2.339
56376W        W17830  38.340  39.547   1.341
56377W        W17831   6.907  26.203   2.693
56378W        W17832  17.120  25.010   3.637
56379W        W17833  33.519   0.829  13.917
56380W        W17834  17.280  18.611  11.387
56381W        W17835  30.650  21.684   1.866
56382W        W17836  37.429   3.349   2.829
56383W        W17837  43.979   7.835  13.433
56384W        W17838  33.603  10.638  11.387
56385W        W17839  32.404   1.464   3.686
56386W        W17840   6.919  41.819   3.186
56387W        W17841  44.503  25.536   0.775
56388W        W17842  22.507  25.191   2.401
56389W        W17843  14.198  14.174  14.782
56390W        W17844  33.433  35.064   5.274
56391W        W17845  12.305   2.753   2.702
56392W        W17846  16.675  43.927  13.976
56393W        W17847  21.144  30.964  13.996
56394W        W17848  17.779  36.550  11.988
56395W        W17849  33.046  40.889  11.488
56396W        W17850  10.202  34.615   2.294
56397W        W17851  37.965  41.985  11.569
56398W        W17852   7.682  30.128  11.381
56399W        W17853  16.189  14.760   4.640
56400W        W17854  23.603  25.588  13.520
56401W        W17855  21.625  35.977  10.460
56402W        W17856  39.537   7.207   4.146
56403W        W17857   2.385  27.949   4.323
56404W        W17858   4.711  31.942  14.786
56405W        W17859  39.462  17.661  11.511
56406W        W17860  13.815   2.419   0.748
56407W        W17861  20.265  34.984  10.559
56408W        W17862  19.570  20.667  14.437
56409W        W17863   3.351  35.454   0.377
56410W        W17864  39.503  27.002  12.526
56411W        W17865  42.495   7.288   0.742
56412W        W17866  19.733  37.908  10.932
56413W        W17867   3.950  40.390   0.398
56414W        W17868  16.718   6.776   1.411
56415W        W17869  29.491  39.878  11.398
56416W        W17870   5.898  24.221   2.296
56417W        W17871  27.139  26.523  10.888
56418W        W17872  25.107  29.167  10.455
56419W        W17873  41.001  38.505  11.551
56420W        W17874   8.363  19.607  11.530
56421W        W17875  41.520  39.468  12.834
56422W        W17876  36.549  33.484   0.363
56423W        W17877  15.667   6.765  12.969
56424W        W17878  18.147   0.386   0.929
56425W        W17879  22.719  17.071  11.520
56426W        W17880  37.029  42.972   3.712
56427W        W17881  10.747  37.488  12.900
56428W        W17882  12.288  28.485  11.856
56429W        W17883  27.482  11.834  12.050
56430W        W17884  29.432  22.513  14.503
56431W        W17885  29.060  16.704   4.775
56432W        W17886  29.924  17.706  14.815
56433W        W17887  39.947  15.709  13.331
56434W        W17888  22.677   1.302  12.549
56435W        W17889  32.573  26.047   0.446
56436W        W17890  31.530  12.775   4.770
56437W        W17891  33.079  34.414   2.864
56438W        W17892   7.881  26.152   2.370
56439W        W17893  24.674  22.568  14.350
56440W        W17894  37.036  33.908   0.325
56441W        W17895  38.333   2.884  13.342
56442W        W17896  32.939  23.630  11.502
56443W        W17897   0.812  13.307  11.531
56444W        W17898   1.907  33.129  11.374
56445W        W17899   6.197  24.523  14.992
56446W        W17900  24.494  17.707  10.614
56447W        W17901  29.473  16.130   2.373
56448W        W17902  17.606  18.552  12.921
56449W        W17903   4.915  17.086   4.235
56450W        W17904  40.906  41.459  10.546
56451W        W17905  18.068  31.431  10.577
56452W        W17906  15.751  39.317   1.905
56453W        W17907  35.504   2.812   3.332
56454W        W17908   0.747   2.876   3.378
56455W        W17909  25.683  18.578  12.563
56456W        W17910  20.714   6.320  14.384
56457W        W17911  34.595  42.337  14.909
56458W        W17912  34.608  37.421   1.920
56459W        W17913  39.401  23.079  14.889
56460W        W17914  24.126  37.927   3.292
56461W        W17915   8.377  24.498  13.015
56462W        W17916   6.714  22.568   1.700
56463W        W17917  36.480  26.128   0.761
56464W        W17918   7.797  13.807   0.458
56465W        W17919  10.153  19.154   2.866
56466W        W17920  22.633   3.454   3.325
56467W        W17921  13.154  35.029   1.714
56468W        W17922  32.037  17.067   3.202
56469W        W17923  10.268  13.307   4.788
56470W        W17924  22.011  26.178   1.892
56471W        W17925  35.377   4.264   2.243
56472W        W17926   7.346   9.327   4.835
56473W        W17927   5.779   5.918   3.652
56474W        W17928  25.181  10.197   0.908
56475W        W17929  29.050   0.779   2.743
56476W        W17930   4.414  28.546   4.777
56477W        W17931  41.532  15.639  11.415
56478W        W17932  38.964   0.457   0.851
56479W        W17933  31.610  31.031   4.284
56480W        W17934  17.197  28.072  11.077
56481W        W17935  23.637   4.710  10.957
56482W        W17936  43.858  15.679   1.272
56483W        W17937  35.475   6.805  13.363
56484W        W17938   5.195  43.885   2.381
56485W        W17939   3.283  13.151   4.707
56486W        W17940  25.168   0.832   1.231
56487W        W17941  42.988  28.471  13.519
56488W        W17942  42.325  37.024  10.943
56489W        W17943  43.834  41.388   3.836
56490W        W17944  30.470   0.409   3.314
56491W        W17945   4.745   5.258  12.903
56492W        W17946  13.603   8.184   1.845
56493W        W17947   7.260  25.490   2.700
56494W        W17948  12.660  11.287   2.403
56495W        W17949  14.752  30.502   1.318
56496W        W17950  11.731  18.591   0.848
56497W        W17951  24.555  21.675  12.394
56498W        W17952   5.417  22.088   0.302
56499W        W17953   1.418  12.257   1.226
56500W        W17954  42.301  19.192  13.498
56501W        W17955  30.611  31.898   4.651
56502W        W17956   2.890  37.560   2.414
56503W        W17957  34.061   1.287   4.228
56504W        W17958  40.836   7.798   4.603
56505W        W17959  41.536  31.447   3.330
56506W        W17960  27.679  36.848  14.403
56507W        W17961   2.424  41.806  11.877
56508W        W17962  28.469   3.817  13.963
56509W        W17963  15.675  31.503   2.849
56510W        W17964  43.944  14.754  10.972
56511W        W17965  34.916  35.490  14.855
56512W        W17966  11.283  13.829   3.253
56513W        W17967  25.519  20.070   3.387
56514W        W17968  33.105  37.481  11.583
56515W        W17969  35.966  19.256  12.058
56516W        W17970  44.322   3.876   4.603
56517W        W17971  13.187  21.254  10.999
56518W        W17972  44.763  22.558  13.422
56519W        W17973  16.205  20.769   2.871
56520W        W17974   6.284  10.317  11.000
56521W        W17975   1.346  41.938  13.380
56522W        W17976  44.813  11.209   3.311
56523W        W17977  18.104  26.149  11.441
56524W        W17978  36.039  31.578  10.918
56525W        W17979  26.003  42.863  12.483
56526W        W17980   6.384  39.455   2.337
56527W        W17981  21.660   7.829  14.331
56528W        W17982  36.430  25.135  10.034
56529W        W17983  34.482   3.328  11.509
56530W        W17984  31.632   9.221   0.367
56531W        W17985  26.072  22.062   3.186
56532W        W17986  12.682  16.705   0.276
56533W        W17987   0.308   1.429   3.718
56534W        W17988  38.361  28.980   4.819
56535W        W17989  44.787   5.236  13.466
56536W        W17990  39.403  30.594   5.268
56537W        W17991  41.895  25.487  11.895
56538W        W17992  21.034  32.462  13.849
56539W        W17993  40.814   3.352   4.215
56540W        W17994  29.627  39.520   4.289
56541W        W17995  23.574  34.450  14.972
56542W        W17996  14.784  40.394   9.602
56543W        W17997  26.494   2.416   3.699
56544W        W17998  28.578  17.120   4.735
56545W        W17999  31.603   1.772   0.393
56546W        W18000  22.146  23.994   1.743
56547W        W18001   7.882  40.406   2.367
56548W        W18002   9.823  44.842   0.813
56549W        W18003  39.464  11.282  11.033
56550W        W18004  33.079  13.631  14.400
56551W        W18005  42.971  10.366   3.342
56552W        W18006  42.424   8.211   3.345
56553W        W18007  16.639  43.013  12.563
56554W        W18008   4.343  22.627  13.486
56555W        W18009  17.122  29.169   0.844
56556W        W18010  21.194  16.717   0.249
56557W        W18011  41.507  30.146  10.483
56558W        W18012  21.700  10.639   1.285
56559W        W18013  31.500  36.380  13.988
56560W        W18014  17.148   5.270  12.360
56561W        W18015  27.504   8.872  12.413
56562W        W18016  37.958  44.301  11.562
56563W        W18017  21.653  28.679  11.080
56564W        W18018  23.656  35.511   4.682
56565W        W18019  27.123  24.201   1.252
56566W        W18020  34.458  38.822  12.982
56567W        W18021   4.766   0.447  11.571
56568W        W18022  39.966  26.495  14.906
56569W        W18023  30.953  10.244   0.757
56570W        W18024  12.341   7.746   2.755
56571W        W18025  31.495  34.469   3.672
56572W        W18026  15.641  21.147  11.917
56573W        W18027  44.971  42.916  14.929
56574W        W18028   6.918  23.212  14.460
56575W        W18029   0.461  29.670   1.804
56576W        W18030   7.338   5.839  12.089
56577W        W18031  31.929   3.832   3.361
56578W        W18032  32.914  43.511   3.843
56579W        W18033   8.805  41.009   4.698
56580W        W18034  25.114   3.254   0.881
56581W        W18035   8.744  39.382  10.596
56582W        W18036  25.559  15.794  11.114
56583W        W18037  19.201  21.231   0.461
56584W        W18038  16.311  17.603   0.249
56585W        W18039   8.227  10.161   4.613
56586W        W18040  11.845  28.125  14.999
56587W        W18041  20.274  34.115  11.084
56588W        W18042  20.712   4.742  14.319
56589W        W18043   5.906  24.195   4.248
56590W        W18044  40.850  42.512   4.151
56591W        W18045  25.604  22.098   0.856
56592W        W18046  17.091   6.855   1.246
56593W        W18047  41.335  22.652  10.924
56594W        W18048  13.345  25.610   2.810
56595W        W18049  25.131  19.549  11.974
56596W        W18050   7.806  19.221  14.829
56597W        W18051  37.388  31.898   3.820
56598W        W18052   2.744  12.244  13.892
56599W        W18053   8.826  26.190  10.902
56600W        W18054  39.029  44.388   0.388
56601W        W18055  20.739  13.772   0.791
56602W        W18056  27.538  12.764   1.919
56603W        W18057  17.098   5.728  14.514
56604W        W18058  25.646  42.393  13.944
56605W        W18059  10.665   9.312   2.262
56606W        W18060   7.886  12.630   0.401
56607W        W18061  12.210  17.795   3.236
56608W        W18062  25.067  21.568  12.912
56609W        W18063  24.637  17.109   3.869
56610W        W18064   2.321  24.005   3.721
56611W        W18065  28.146  10.658  13.381
56612W        W18066  33.965  34.513  11.111
56613W        W18067  19.537   4.701  13.823
56614W        W18068  15.087  26.623   3.771
56615W        W18069   9.335  43.971   4.761
56616W        W18070  38.005  15.218   4.706
56617W        W18071  38.355  39.956  11.532
56618W        W18072  44.384  26.593  11.129
56619W        W18073   9.339  40.366  11.504
56620W        W18074   5.377  17.590   0.370
56621W        W18075  13.603   1.885  13.433
56622W        W18076  32.007  36.928  12.514
56623W        W18077  27.184  27.967  10.533
56624W        W18078  38.003  26.681   0.818
56625W        W18079  34.454  35.450   1.229
56626W        W18080  33.972  42.287  13.009
56627W        W18081  37.950  41.999   1.232
56628W        W18082  34.040  10.681  14.004
56629W        W18083  13.256  16.213   5.107
56630W        W18084  17.629  24.540   1.909
56631W        W18085  27.565   3.770  10.434
56632W        W18086  26.142  35.949   4.717
56633W        W18087   0.821  35.548   1.764
56634W        W18088  24.212  37.885   2.765
56635W        W18089   8.266   7.362   0.390
56636W        W18090   6.713  19.579   2.339
56637W        W18091   3.303  10.804  14.013
56638W        W18092  11.190  12.167   2.786
56639W        W18093   4.432  33.036  14.973
56640W        W18094  34.590  37.990   2.295
56641W        W18095  17.271  18.294  13.432
56642W        W18096   4.322  25.099   4.331
56643W        W18097  15.736  28.983   4.696
56644W        W18098   9.718   4.940   4.597
56645W        W18099  37.927  11.157   2.316
56646W        W18100   8.860  32.489  11.124
56647W        W18101  30.558  31.604   1.435
56648W        W18102   5.218   1.406   2.672
56649W        W18103   0.810  21.640  13.331
56650W        W18104  29.631  42.785   1.866
56651W        W18105  29.669  41.011  14.381
56652W        W18106   9.772  42.958   1.779
56653W        W18107   9.784  16.605   0.482
56654W        W18108   8.313  35.931   1.801
56655W        W18109   1.877  24.215   1.742
56656W        W18110  36.434   0.975  12.915
56657W        W18111   6.269  42.521  10.036
56658W        W18112  38.483   6.255  12.857
56659W        W18113  42.313  19.125  14.977
56660W        W18114  39.916   3.883  11.045
56661W        W18115  39.827  18.607  14.506
56662W        W18116  27.124   2.845  13.936
56663W        W18117   4.310  28.017  11.869
56664W        W18118  43.448  16.602  11.084
56665W        W18119  27.048  19.622  14.465
56666W        W18120  27.118  32.513   2.266
56667W        W18121  13.307   9.343   0.310
56668W        W18122  32.443  27.607   1.783
56669W        W18123  37.935  19.571  14.430
56670W        W18124   1.918   3.317   3.737
56671W        W18125  28.613   2.265   4.305
56672W        W18126  16.766  35.081   3.691
56673W        W18127   3.260  38.449  12.084
56674W        W18128  21.211   5.268   0.321
56675W        W18129  44.502   8.771   9.963
56676W        W18130  26.192  42.421   0.863
56677W        W18131   1.809  17.614  10.443
56678W        W18132   1.749   5.812  10.583
56679W        W18133  41.392  29.522  14.990
56680W        W18134  29.975  26.597  14.021
56681W        W18135  44.464  19.738  11.435
56682W        W18136  19.081  14.252   3.378
56683W        W18137  15.116  14.776  12.450
56684W        W18138  22.140  24.195   4.327
56685W        W18139  42.927  40.849  14.834
56686W        W18140  33.485  33.390  13.458
56687W        W18141  13.303  37.341   0.388
56688W        W18142  24.650   7.734  11.046
56689W        W18143  41.293  10.778   1.396
56690W        W18144  38.832  29.983  13.500
56691W        W18145  12.725  19.169  12.858
56692W        W18146  32.961   6.711  12.532
56693W        W18147  33.080  20.209   2.313
56694W        W18148  30.653  42.920  12.531
56695W        W18149  31.442  30.560  13.958
56696W        W18150  18.177   9.323  11.912
56697W        W18151  16.698  44.876   4.155
56698W        W18152  21.539  10.228   1.791
56699W        W18153  43.773  21.757   1.263
56700W        W18154   4.396  43.957   0.258
56701W        W18155   8.768  20.028  12.914
56702W        W18156   8.186  31.906  13.496
56703W        W18157  22.127  34.080  11.474
56704W        W18158  39.852  38.480   0.387
56705W        W18159   5.832   9.681  14.835
56706W        W18160  18.637  17.560   4.683
56707W        W18161   9.382  30.947  14.794
56708W        W18162  30.006  28.053  12.391
56709W        W18163   4.809   8.866  11.008
56710W        W18164  28.127   0.790  14.402
56711W        W18165  26.166  36.859  14.822
56712W        W18166  13.804  42.384  10.893
56713W        W18167  24.580  33.124   3.676
56714W        W18168  26.042  36.885   2.412
56715W        W18169  24.563   1.380   2.344
56716W        W18170  42.445  24.628   1.859
56717W        W18171   0.346  38.827   3.363
56718W        W18172   4.427  13.274  14.016
56719W        W18173  30.513  40.832   1.855
56720W        W18174  37.998  19.599  12.839
56721W        W18175   9.810  31.907   3.691
56722W        W18176  40.831  26.019   2.667
56723W        W18177  16.797   5.822  11.986
56724W        W18178  14.779   1.467   0.951
56725W        W18179   7.758  37.421   4.605
56726W        W18180  26.962  40.854   2.878
56727W        W18181  35.460  44.457  13.469
56728W        W18182   3.406   9.667  11.915
56729W        W18183  18.088  25.556  14.405
56730W        W18184   7.302  29.593   0.285
56731W        W18185  38.570  29.076  10.417
56732W        W18186  39.979  30.907  13.349
56733W        W18187  11.323  21.746   5.741
56734W        W18188   5.738   5.285   2.186
56735W        W18189  36.491  44.466  11.886
56736W        W18190  26.687  35.442   1.806
56737W        W18191  24.649  19.228  13.910
56738W        W18192   3.422  30.614  14.895
56739W        W18193  16.226  17.783  13.478
56740W        W18194  42.524  14.658  14.830
56741W        W18195  26.605  33.006   3.702
56742W        W18196  36.904  17.692   3.727
56743W        W18197  40.524  30.570   3.373
56744W        W18198   4.228   5.727  12.434
56745W        W18199  10.818  20.067   2.700
56746W        W18200  26.041  18.764  13.892
56747W        W18201   3.716   8.228   1.725
56748W        W18202  38.340  20.664   3.698
56749W        W18203  32.608  40.333  12.886
56750W        W18204  24.679   1.831  13.991
56751W        W18205  26.991  41.375   1.781
56752W        W18206  37.513  44.374   4.646
56753W        W18207  10.298  15.623  10.084
56754W        W18208  40.799  23.624  11.422
56755W        W18209   3.849   9.280  10.612
56756W        W18210  22.071  10.310  11.975
56757W        W18211   1.286  30.545  13.391
56758W        W18212  24.067   8.256   5.745
56759W        W18213  23.088  33.448  12.513
56760W        W18214  29.576   0.960  10.621
56761W        W18215  22.624   9.697   9.607
56762W        W18216   4.721  20.145   4.277
56763W        W18217  33.419   7.387   4.175
56764W        W18218   1.780  16.763   4.153
56765W        W18219   9.739   1.342   1.839
56766W        W18220  30.068   8.695  13.476
56767W        W18221   2.299  17.748  11.124
56768W        W18222  17.609  33.035   4.340
56769W        W18223  39.542  20.676   3.826
56770W        W18224  32.567  13.324   1.292
56771W        W18225  37.056  26.057  12.439
56772W        W18226  25.010  22.594  12.404
56773W        W18227  36.001  28.945  11.529
56774W        W18228  31.439  24.153  14.849
56775W        W18229   0.485  36.076  12.834
56776W        W18230  10.227  23.619  14.801
56777W        W18231  39.961  39.979   0.832
56778W        W18232  35.519  43.788  13.377
56779W        W18233   4.290   4.799  10.594
56780W        W18234   1.421   8.887   3.678
56781W        W18235  10.648   5.227  14.945
56782W        W18236   5.291  34.901  10.963
56783W        W18237  17.307  27.153   0.945
56784W        W18238   8.312  17.617   4.774
56785W        W18239  43.425  29.997  11.105
56786W        W18240   9.768  10.807   2.872
56787W        W18241  40.873  35.103  12.432
56788W        W18242  13.670  20.181  13.988
56789W        W18243  28.117  19.644   1.934
56790W        W18244  33.518  29.135   4.769
56791W        W18245  10.730  34.009  13.948
56792W        W18246  21.189  19.698  10.444
56793W        W18247  25.197  44.392  11.453
56794W        W18248  24.229  44.776  14.912
56795W        W18249  33.436  15.592  13.040
56796W        W18250  35.438  18.228   4.731
56797W        W18251  28.112  29.571   0.877
56798W        W18252   9.660   2.745   1.877
56799W        W18253   6.734  40.442   3.153
56800W        W18254  26.097  14.212  14.888
56801W        W18255   1.305   2.922  10.615
56802W        W18256  14.813  36.548   3.310
56803W        W18257  17.702  33.058  10.493
56804W        W18258  32.544  36.096   3.351
56805W        W18259   0.400   3.933   2.666
56806W        W18260   7.713  37.559   3.741
56807W        W18261  34.072  36.423  12.419
56808W        W18262  27.144  41.869   0.307
56809W        W18263   1.733   6.749  14.834
56810W        W18264  16.252  18.741   0.421
56811W        W18265  44.303  12.755  14.010
56812W        W18266  12.256  10.234  10.022
56813W        W18267  39.435  33.541   2.868
56814W        W18268   4.333  36.410   0.356
56815W        W18269  15.638  31.016  14.473
56816W        W18270   8.809  34.118  12.825
56817W        W18271  10.840  42.313   0.340
56818W        W18272  34.384  32.613  13.340
56819W        W18273  32.000   9.350   4.234
56820W        W18274   7.746  28.563  10.590
56821W        W18275  44.426  25.190  14.020
56822W        W18276  37.863  18.056  11.907
56823W        W18277  36.918  27.979  14.837
56824W        W18278  41.857  26.611  14.485
56825W        W18279   9.355  26.511  11.516
56826W        W18280  42.412  33.122  11.520
56827W        W18281  40.447   1.323  13.909
56828W        W18282  31.903  10.307   2.208
56829W        W18283  40.890  36.512  11.890
56830W        W18284  16.229  38.378  14.335
56831W        W18285  12.645  14.794   4.794
56832W        W18286  38.329   1.248   0.444
56833W        W18287   4.865  16.658   3.715
56834W        W18288   6.418  33.005  10.462
56835W        W18289  32.409  40.431   4.811
56836W        W18290  27.082  15.660   0.730
56837W        W18291  11.850  43.309   2.389
56838W        W18292  24.504  34.608  13.834
56839W        W18293   1.738  36.995  13.507
56840W        W18294  36.055   7.669  11.953
56841W        W18295  41.829  18.292   0.248
56842W        W18296  11.298   4.737  11.101
56843W        W18297  19.753   7.212   1.367
56844W        W18298  13.225  10.783  11.968
56845W        W18299   5.896   4.856  10.522
56846W        W18300  14.744  29.620   2.880
56847W        W18301  29.115  31.148  14.032
56848W        W18302   1.285  10.765  12.497
56849W        W18303  11.320   6.768  10.544
56850W        W18304   4.812  37.529   9.922
56851W        W18305  11.828  25.974  14.367
56852W        W18306  12.279  27.116  11.583
56853W        W18307  29.151  21.251  13.985
56854W        W18308  22.526   5.839  14.286
56855W        W18309  40.430  23.110  13.340
56856W        W18310  37.491  10.659  10.938
56857W        W18311  10.278  10.828  12.953
56858W        W18312   7.681  34.887  10.142
56859W        W18313  21.666   2.943  12.401
56860W        W18314  23.704  38.878   1.312
56861W        W18315  33.889  35.403  13.003
56862W        W18316  21.139  23.676   4.666
56863W        W18317   8.361  12.151  14.019
56864W        W18318   4.317   2.878  14.308
56865W        W18319   5.718   6.277   4.152
56866W        W18320  28.149  27.671   4.354
56867W        W18321  34.040  36.936   1.699
56868W        W18322  39.362  44.796   1.226
56869W        W18323  18.166  38.559  14.793
56870W        W18324  36.992  30.570  11.486
56871W        W18325   0.756   7.177   5.141
56872W        W18326   3.726  19.191   3.729
56873W        W18327  25.177  19.131  10.607
56874W        W18328  40.955  42.434  11.121
56875W        W18329  44.413  40.045   3.353
56876W        W18330  31.515  15.621  13.314
56877W        W18331  44.924  13.235  10.622
56878W        W18332  26.486  30.963  14.803
56879W        W18333  36.972  20.190   0.749
56880W        W18334  29.014  29.566  14.787
56881W        W18335  22.049  34.383  13.468
56882W        W18336   6.307  21.094  10.459
56883W        W18337  12.273  11.702  13.883
56884W        W18338  13.762  39.321   0.479
56885W        W18339  16.585   0.266   0.789
56886W        W18340  36.092  25.983   1.718
56887W        W18341   3.425  12.120   3.305
56888W        W18342  14.591  44.837   2.880
56889W        W18343  20.060  31.102   2.732
56890W        W18344  11.694   8.726   1.899
56891W        W18345  39.064  23.125  11.062
56892W        W18346  23.710   0.283   2.243
56893W        W18347  32.962  35.873   1.408
56894W        W18348  33.569  21.176  11.875
56895W        W18349  34.422   1.270   0.388
56896W        W18350  10.747  35.078   1.904
56897W        W18351  22.058  37.338  14.295
56898W        W18352  30.617  12.685  12.978
56899W        W18353  36.390  43.909   0.317
56900W        W18354   5.725   1.399   3.188
56901W        W18355  40.988  12.226   2.265
56902W        W18356  12.709  31.991  14.846
56903W        W18357   1.898   5.414  14.961
56904W        W18358  30.643  14.210   4.303
56905W        W18359  23.165  41.461  11.483
56906W        W18360  25.528  13.291  14.334
56907W        W18361  35.043   5.429  11.470
56908W        W18362  39.908  22.722   2.284
56909W        W18363  43.488  43.398  10.541
56910W        W18364  39.497  12.645  13.374
56911W        W18365  11.654  20.754   4.824
56912W        W18366  28.036  10.368   9.960
56913W        W18367   6.339  39.512  11.879
56914W        W18368  13.205  29.604   4.821
56915W        W18369  35.091  10.359   1.211
56916W        W18370  39.881  33.573   0.880
56917W        W18371  11.342  34.443  11.467
56918W        W18372  19.607  24.486   2.181
56919W        W18373  26.084  36.369   4.765
56920W        W18374  42.313  13.318  13.872
56921W        W18375  43.419  29.926   0.796
56922W        W18376  30.563  41.807  12.907
56923W        W18377   3.847  27.688   0.435
56924W        W18378  38.942  40.315  10.442
56925W        W18379  31.442  24.598   5.759
56926W        W18380  10.180  31.900  13.927
56927W        W18381  38.883  20.580   0.908
56928W        W18382  12.137  28.174   3.680
56929W        W18383   5.820  39.964  12.572
56930W        W18384  36.423  38.062  14.934
56931W        W18385  20.632   2.342  12.076
56932W        W18386  29.048  15.290  10.408
56933W        W18387  17.711   9.223  14.468
56934W        W18388  24.989  42.799  13.990
56935W        W18389  26.991  24.034   3.211
56936W        W18390  39.511  22.250  12.826
56937W        W18391  16.796   1.281   3.266
56938W        W18392   1.770   4.825  11.600
56939W        W18393  24.223   5.912  13.323
56940W        W18394   6.371  43.850   4.740
56941W        W18395  24.549   4.353   1.424
56942W        W18396  40.893  43.285  11.092
56943W        W18397  10.825  23.731   0.346
56944W        W18398  42.957   4.243   4.350
56945W        W18399   6.317  23.497  11.421
56946W        W18400  13.793  16.221   3.355
56947W        W18401  14.680  27.586   1.838
56948W        W18402  33.995  39.506   0.861
56949W        W18403  28.173   1.263  14.313
56950W        W18404   0.360  10.660  12.477
56951W        W18405  37.425  19.540   0.318
56952W        W18406   4.720  11.865  10.489
56953W        W18407   0.868  21.158   0.914
56954W        W18408   2.773  16.648   0.874
56955W        W18409   7.320  34.967  11.432
56956W        W18410  23.528  35.577  11.410
56957W        W18411  43.494  43.782   2.203
56958W        W18412   0.871  16.098   0.429
56959W        W18413  10.383  18.685  11.529
56960W        W18414  31.572  34.926   4.287
56961W        W18415  36.429  17.647  11.522
56962W        W18416  41.498  13.235  13.421
56963W        W18417  14.130  21.087  12.345
56964W        W18418  44.918  12.324  13.340
56965W        W18419  18.648  18.640   4.784
56966W        W18420  40.825  33.526   0.834
56967W        W18421  36.401   9.661   2.418
56968W        W18422  38.870  18.565  14.449
56969W        W18423  35.596  18.135   1.408
56970W        W18424   8.693  19.241  11.391
56971W        W18425  23.646  16.123  12.832
56972W        W18426  21.200  31.595  10.471
56973W        W18427  35.854  16.249  10.972
56974W        W18428  32.922  37.563  14.979
56975W        W18429  26.463  11.247   1.905
56976W        W18430  26.593  18.697  12.910
56977W        W18431  33.537  25.023  14.763
56978W        W18432   8.343  27.197  11.595
56979W        W18433  20.198  12.698  14.320
56980W        W18434  36.068  29.111  14.439
56981W        W18435  44.876  17.575  14.881
56982W        W18436  30.412  25.488  11.564
56983W        W18437  13.668   3.738  12.877
56984W        W18438  18.190  29.583   2.217
56985W        W18439   3.733  40.001  11.478
56986W        W18440  18.650  33.907   4.346
56987W        W18441   4.215  37.580   5.321
56988W        W18442  33.404  23.069   2.235
56989W        W18443  38.959  19.194   0.362
56990W        W18444   7.688  32.427   1.258
56991W        W18445  15.610  40.317   0.843
56992W        W18446  42.854   8.865   2.218
56993W        W18447  30.100  26.548  12.073
56994W        W18448  30.560  39.536  11.433
56995W        W18449  39.058  15.101   2.741
56996W        W18450   8.372   6.891   2.364
56997W        W18451  13.617  44.366   3.754
56998W        W18452  35.540  30.466   0.474
56999W        W18453  14.261   4.743   2.262
57000W        W18454  13.710   8.258  11.597
57001W        W18455   1.441  12.264  13.463
57002W        W18456   3.389  42.302   2.243
57003W        W18457   9.875   6.856  12.071
57004W        W18458  43.907  19.735  11.408
57005W        W18459  32.071  28.649  14.834
57006W        W18460  26.676  14.265   0.467
57007W        W18461   8.403  39.952   3.255
57008W        W18462  40.951  36.367  14.298
57009W        W18463   1.438  10.149   0.837
57010W        W18464  13.695  31.632   4.183
57011W        W18465  41.379   8.715  10.011
57012W        W18466   2.959   4.431  11.896
57013W        W18467  42.435  41.871  13.037
57014W        W18468  11.312  40.470  12.355
57015W        W18469  18.200  24.636  12.573
57016W        W18470  12.730  25.506  11.564
57017W        W18471  14.810   9.861  11.075
57018W        W18472  21.163  18.242  14.912
57019W        W18473  34.977   8.846  10.150
57020W        W18474  37.930  37.426  10.990
57021W        W18475  10.708   8.663  12.566
57022W        W18476  36.423   9.671  11.399
57023W        W18477   5.774  39.048  12.344
57024W        W18478  16.740  28.014   2.679
57025W        W18479  29.494  43.801   2.281
57026W        W18480   9.189  22.533   0.331
57027W        W18481  28.106  29.571  11.915
57028W        W18482  23.158   4.699  13.479
57029W        W18483  14.601  18.787   5.189
57030W        W18484   9.827  18.767   4.822
57031W        W18485  40.469   1.400   1.283
57032W        W18486  39.348  17.293   0.436
57033W        W18487  31.136  20.056  10.929
57034W        W18488  35.888  16.717   3.776
57035W        W18489  25.579  24.016   0.264
57036W        W18490  42.311  41.349   2.886
57037W        W18491   3.383  27.145   2.852
57038W        W18492  12.772   8.307   2.668
57039W        W18493   5.922  43.511  14.301
57040W        W18494  43.369  14.253   4.147
57041W        W18495  23.627  20.259  13.372
57042W        W18496  40.384   7.836  11.059
57043W        W18497  17.580   1.908  10.568
57044W        W18498   8.300  27.966  11.959
57045W        W18499  35.083   8.315  12.958
57046W        W18500   0.371  30.156  13.311
57047W        W18501  44.005  16.172  11.413
57048W        W18502  43.325   2.926   3.772
57049W        W18503  21.024  20.160   1.318
57050W        W18504   9.801   0.874  11.933
57051W        W18505   5.754   3.231  14.937
57052W        W18506  35.074  25.171  12.499
57053W        W18507  25.675  37.519   3.229
57054W        W18508  16.148  42.826   1.712
57055W        W18509  36.059   6.236  12.375
57056W        W18510  43.317   1.787  13.470
57057W        W18511  39.524  32.901   1.712
57058W        W18512   8.269  23.662   2.348
57059W        W18513  23.555  31.058  10.523
57060W        W18514  16.205   6.722  11.475
57061W        W18515  37.352  28.034   1.766
57062W        W18516  17.692  30.111   0.330
57063W        W18517  11.204   5.208  10.951
57064W        W18518  38.919  44.797  13.327
57065W        W18519   2.773  21.656  11.593
57066W        W18520  37.535  29.437   2.339
57067W        W18521   4.262  27.096   1.752
57068W        W18522  40.802   5.369  13.379
57069W        W18523   4.875   6.201  12.380
57070W        W18524  37.904  32.512   1.820
57071W        W18525  18.237  40.808  11.453
57072W        W18526  31.954   7.236   4.685
57073W        W18527  26.069  23.234   0.812
57074W        W18528  36.418  26.599   4.712
57075W        W18529  21.075   0.904   1.849
57076W        W18530  14.805   0.952   0.785
57077W        W18531   7.259   4.384   4.219
57078W        W18532  28.072  27.533  10.145
57079W        W18533  16.143  43.907  12.906
57080W        W18534  36.474  24.039   4.714
57081W        W18535  33.105  17.268  14.894
57082W        W18536   5.823   3.370  12.987
57083W        W18537   5.403  11.796   3.655
57084W        W18538  10.250  19.557  14.953
57085W        W18539  14.336   1.907   2.897
57086W        W18540  28.092  22.028  13.998
57087W        W18541  38.471  43.469   0.939
57088W        W18542   2.387  25.513   3.689
57089W        W18543  20.252  10.834  10.900
57090W        W18544  12.827   6.791   0.245
57091W        W18545   0.298  18.183   4.163
57092W        W18546   7.350   2.890  10.944
57093W        W18547  11.829  16.276  11.597
57094W        W18548  35.025  36.097  11.481
57095W        W18549  11.160  12.707  12.000
57096W        W18550  19.706  25.994  11.506
57097W        W18551   6.307  25.581   3.635
57098W        W18552  34.424  35.531  12.532
57099W        W18553  25.169  29.956  11.400
57100W        W18554  18.138   2.329  11.479
57101W        W18555  43.398  23.593   4.833
57102W        W18556   4.296  25.991   0.859
57103W        W18557  43.476  14.830  13.516
57104W        W18558   4.942  37.033   4.281
57105W        W18559  34.553   7.803   0.297
57106W        W18560  15.648  14.738   4.708
57107W        W18561   9.821  43.829   0.872
57108W        W18562  35.394  30.414   4.181
57109W        W18563  22.085  30.536  11.068
57110W        W18564  34.060   4.343   4.143
57111W        W18565  20.195   8.287  12.580
57112W        W18566  11.698  44.809  14.849
57113W        W18567  14.724   7.246  12.573
57114W        W18568  17.594   7.200   3.344
57115W        W18569  38.015   9.338  12.018
57116W        W18570   1.788  40.542   1.841
57117W        W18571  18.093  20.107   3.633
57118W        W18572  43.922  25.606   1.327
57119W        W18573  36.871  13.286  13.896
57120W        W18574   6.817  18.783   3.159
57121W        W18575   4.236  42.841   1.742
57122W        W18576  21.034  29.536   5.234
57123W        W18577  12.169   5.269   3.275
57124W        W18578  34.878  43.332   0.905
57125W        W18579  27.568  22.675  11.856
57126W        W18580  28.955   6.689   2.682
57127W        W18581   8.728  38.531  12.419
57128W        W18582   3.815  42.779   1.848
57129W        W18583  39.892  39.384  12.042
57130W        W18584  20.721  39.510   3.360
57131W        W18585  43.819  21.590   4.342
57132W        W18586  11.843   1.825  11.567
57133W        W18587  27.611  34.479   2.836
57134W        W18588  38.919  13.605   1.700
57135W        W18589  18.270  42.343   1.332
57136W        W18590  29.088  30.482   0.324
57137W        W18591   3.265  27.155  11.040
57138W        W18592  35.974  14.177  11.893
57139W        W18593  40.360  14.643  13.931
57140W        W18594   7.195  33.009  11.388
57141W        W18595  23.499   9.236  14.432
57142W        W18596  24.673  13.651   4.307
57143W        W18597  18.686  28.508   2.287
57144W        W18598   6.403  44.878   1.895
57145W        W18599  25.024   8.856   4.244
57146W        W18600  12.751   7.813  14.002
57147W        W18601  25.175   7.865   5.088
57148W        W18602  14.655  24.002   4.163
57149W        W18603  12.262   2.418  12.863
57150W        W18604  24.721   3.359  11.012
57151W        W18605  40.809   1.246   1.346
57152W        W18606   9.168  37.874  11.081
57153W        W18607   8.822   4.421   0.427
57154W        W18608   2.792  26.544   4.160
57155W        W18609  12.775  25.489  12.047
57156W        W18610  33.930  16.272  10.409
57157W        W18611  20.054  26.997   2.199
57158W        W18612   9.168  19.711   1.301
57159W        W18613  24.510  39.001  14.483
57160W        W18614  41.456  16.278  11.046
57161W        W18615  10.153  33.553  13.432
57162W        W18616  38.832  11.861   4.806
57163W        W18617  26.974   7.724   1.449
57164W        W18618  35.553  42.521  13.353
57165W        W18619  18.665   7.340   1.331
57166W        W18620  35.382  41.500   2.687
57167W        W18621  22.253   2.397  12.017
57168W        W18622  36.583  14.624   2.752
57169W        W18623  14.340  17.124  10.132
57170W        W18624  44.902  29.090  11.498
57171W        W18625  35.379  32.518   1.702
57172W        W18626  16.623  38.562   1.350
57173W        W18627  36.380   2.881   3.782
57174W        W18628  40.405  27.092   0.328
57175W        W18629  17.683  22.662  14.461
57176W        W18630  10.141  33.896   1.838
57177W        W18631  31.062   9.768  13.482
57178W        W18632  23.543  37.068   0.749
57179W        W18633  20.146  15.245   3.304
57180W        W18634  44.753  26.177   2.801
57181W        W18635  26.488   6.209   2.723
57182W        W18636   1.250  14.253  11.927
57183W        W18637  20.695  10.230   0.385
57184W        W18638  11.320   1.370   3.256
57185W        W18639  41.980  23.175  13.932
57186W        W18640  43.835  24.023   3.847
57187W        W18641  28.527  26.583  11.532
57188W        W18642  22.692  16.287   3.153
57189W        W18643  36.993  26.518   4.267
57190W        W18644  29.489  42.372  12.478
57191W        W18645  32.450   8.387   3.725
57192W        W18646  13.639  29.124  13.049
57193W        W18647  13.785  14.779  10.149
57194W        W18648  40.858  27.161   1.720
57195W        W18649  28.451  26.694   1.385
57196W        W18650  20.733  32.939  12.969
57197W        W18651  27.654  26.055   2.727
57198W        W18652   9.191  18.289   1.843
57199W        W18653  13.777  44.906  12.342
57200W        W18654  16.662  20.061  12.993
57201W        W18655  32.461  15.151  10.562
57202W        W18656  38.905  17.145   2.798
57203W        W18657   9.649  21.054   4.194
57204W        W18658  19.182  12.851   3.364
57205W        W18659  39.861   2.918  10.509
57206W        W18660  16.145  42.439  11.530
57207W        W18661  17.209  19.594  11.431
57208W        W18662  13.223  29.020   0.798
57209W        W18663  20.734   1.923  12.051
57210W        W18664  41.400  20.054  13.489
57211W        W18665  37.556  22.096   3.187
57212W        W18666  19.238  41.014   0.281
57213W        W18667  39.498  16.247  12.479
57214W        W18668  15.816  22.048  14.287
57215W        W18669  23.988  24.721  11.016
57216W        W18670  14.656   8.351  11.411
57217W        W18671  24.558   4.338   2.821
57218W        W18672  17.150  39.922   3.674
57219W        W18673  15.186  14.223  10.970
57220W        W18674  37.977  15.251  13.528
57221W        W18675  29.027  36.547   1.405
57222W        W18676  14.219  40.359   1.780
57223W        W18677  23.057  11.243   9.963
57224W        W18678   2.773   8.171  13.362
57225W        W18679  18.170  41.306  11.506
57226W        W18680  22.684   8.407  12.042
57227W        W18681  10.358   3.857  12.869
57228W        W18682   4.873  37.431  12.568
57229W        W18683  29.499   8.741  12.855
57230W        W18684  32.084  30.952  11.959
57231W        W18685   1.452  32.476  11.586
57232W        W18686  42.478   9.851   2.728
57233W        W18687  19.632  44.796   2.689
57234W        W18688   9.856  32.063   0.910
57235W        W18689  18.224  42.780  13.037
57236W        W18690  11.831  29.160   3.268
57237W        W18691  10.383   5.246   1.363
57238W        W18692  22.613  31.569   0.901
57239W        W18693  30.580   7.736   2.417
57240W        W18694   9.880  36.577  14.286
57241W        W18695  38.434  10.668   1.319
57242W        W18696  39.358  12.197  14.938
57243W        W18697  27.532  44.982   3.793
57244W        W18698  40.541  29.073   2.714
57245W        W18699   7.267   7.233   4.219
57246W        W18700   5.752  10.364  10.436
57247W        W18701  31.582   7.828   4.141
57248W        W18702   5.778   6.258   4.771
57249W        W18703  37.502  41.028   0.735
57250W        W18704  13.740   9.651  14.463
57251W        W18705   0.291  38.847  13.988
57252W        W18706   5.905  19.100  10.616
57253W        W18707  17.153  26.653  11.947
57254W        W18708  17.200   0.775  12.455
57255W        W18709  40.817  35.944   2.359
57256W        W18710  22.587   2.877  11.586
57257W        W18711  15.144  12.126   2.311
57258W        W18712  32.497  42.313   4.177
57259W        W18713   3.434  33.473  12.581
57260W        W18714  23.021  12.619   1.226
57261W        W18715  25.067   1.765  12.881
57262W        W18716  16.140  38.512  13.860
57263W        W18717  11.171  20.090  13.937
57264W        W18718  18.572  15.700   5.097
57265W        W18719  11.247  32.975  10.985
57266W        W18720  42.793   3.790  10.597
57267W        W18721  33.115  15.772  11.407
57268W        W18722  22.184  32.934   3.862
57269W        W18723  26.673  21.078  12.010
57270W        W18724  27.627   9.181   1.778
57271W        W18725  38.008  32.954  14.410
57272W        W18726  31.133   8.403   3.747
57273W        W18727  24.677  23.220   0.280
57274W        W18728   9.669  29.052  14.997
57275W        W18729  11.202  12.705  12.957
57276W        W18730  17.653  20.133  13.437
57277W        W18731  36.372  17.578   1.757
57278W        W18732  11.301  15.692  11.869
57279W        W18733  12.144   5.845   1.213
57280W        W18734  27.532  14.303   0.741
57281W        W18735  12.845  29.980   0.444
57282W        W18736   2.848  36.406   4.695
57283W        W18737  16.735  40.851   9.963
57284W        W18738  24.524  42.951   0.360
57285W        W18739   7.749  36.905  12.009
57286W        W18740  22.630  31.063  10.583
57287W        W18741   7.380   8.219   2.817
57288W        W18742   2.332  30.550  11.079
57289W        W18743  27.949  42.520  11.572
57290W        W18744  36.440   9.787   2.708
57291W        W18745  30.614  19.058  10.983
57292W        W18746  38.378  37.884   3.260
57293W        W18747  27.017   1.277  14.358
57294W        W18748   5.841  13.174  11.070
57295W        W18749  11.676  12.619  13.026
57296W        W18750  40.963   6.268  12.447
57297W        W18751  27.110  40.033   3.665
57298W        W18752   0.905  30.994   4.174
57299W        W18753  41.938  18.555   4.601
57300W        W18754  16.185  10.686   0.765
57301W        W18755   5.228  37.555  14.375
57302W        W18756  21.521  24.079  12.079
57303W        W18757  31.116   3.756   1.229
57304W        W18758  43.916  18.151   1.839
57305W        W18759  44.794  18.097  13.963
57306W        W18760  14.791  28.986  11.523
57307W        W18761  37.875  38.503   4.140
57308W        W18762  35.531  39.848   2.311
57309W        W18763  38.042  44.259   4.330
57310W        W18764  14.805  26.568  13.960
57311W        W18765  15.587  22.582   0.966
57312W        W18766  37.557  20.579   4.245
57313W        W18767   3.395  28.518   2.836
57314W        W18768  21.069  24.193   5.136
57315W        W18769   8.173  34.965   2.798
57316W        W18770  28.640   1.442  10.960
57317W        W18771  33.478   1.369  10.525
57318W        W18772  12.801  33.066  10.439
57319W        W18773  29.939   7.758  14.426
57320W        W18774  42.315  24.579   0.382
57321W        W18775  15.773   5.835   1.933
57322W        W18776  22.168  28.577   2.681
57323W        W18777  28.129  40.042   9.924
57324W        W18778  41.466  27.453   1.320
57325W        W18779  22.600  39.906  10.575
57326W        W18780  19.697  19.060   2.680
57327W        W18781   5.831  14.800   0.761
57328W        W18782  12.709  42.867   2.418
57329W        W18783   6.360  19.713   4.322
57330W        W18784  34.444  30.079   1.921
57331W        W18785  11.341  30.548   2.292
57332W        W18786  27.504  28.005  10.134
57333W        W18787  18.703  38.381  12.503
57334W        W18788  30.102  38.886   4.639
57335W        W18789  44.413  35.883   4.780
57336W        W18790  17.191   3.261   1.853
57337W        W18791  10.179  39.936   0.388
57338W        W18792  36.454  23.661  12.013
57339W        W18793  38.354  15.802  13.018
57340W        W18794  16.751   9.318   1.850
57341W        W18795   2.438   6.678   2.784
57342W        W18796   4.822  24.145   0.834
57343W        W18797  11.810  23.645  14.016
57344W        W18798  38.871  27.599  14.275
57345W        W18799   3.838  17.234   0.744
57346W        W18800  15.241  37.957   2.868
57347W        W18801  39.479  18.193  11.501
57348W        W18802   5.892  38.335  12.435
57349W        W18803   3.326  31.921   1.286
57350W        W18804  34.029   1.814   5.116
57351W        W18805   3.301  35.067  13.892
57352W        W18806  39.481  38.569   4.183
57353W        W18807  11.372  20.259   5.203
57354W        W18808   7.749  27.097   2.400
57355W        W18809  19.197  11.298  10.106
57356W        W18810   3.915  37.453   0.870
57357W        W18811  21.128  24.015  11.527
57358W        W18812  33.045  17.278   2.243
57359W        W18813  36.381  21.206  12.095
57360W        W18814  31.497   2.240  12.986
57361W        W18815   1.813  36.350  10.408
57362W        W18816  21.648  34.964  14.446
57363W        W18817   5.251  16.727  12.580
57364W        W18818  23.004  19.629  11.857
57365W        W18819  36.053  37.004   3.356
57366W        W18820  34.406  12.307  13.049
57367W        W18821  26.165   3.889   2.766
57368W        W18822  44.867  24.072   2.861
57369W        W18823   0.463   3.953   0.840
57370W        W18824  36.842  14.620   1.789
57371W        W18825  10.308  20.727   4.265
57372W        W18826  36.920   2.312  11.390
57373W        W18827  37.454   2.913   0.405
57374W        W18828  13.600  13.806  10.473
57375W        W18829  16.677  11.163   2.332
57376W        W18830  24.616  34.412   5.088
57377W        W18831   0.948  20.565  11.897
57378W        W18832   1.239  35.552   0.350
57379W        W18833  12.622  40.020   1.814
57380W        W18834  42.429  34.076  14.851
57381W        W18835  38.452  14.638  11.395
57382W        W18836   9.338  22.539  10.952
57383W        W18837  25.517  13.700   2.830
57384W        W18838  21.687  42.029   3.810
57385W        W18839  21.227  17.277   4.171
57386W        W18840  10.219  42.825   3.804
57387W        W18841  24.129   6.889   2.270
57388W        W18842   3.828   2.443  11.375
57389W        W18843   4.729  12.830   0.944
57390W        W18844  19.653  28.160  14.933
57391W        W18845  20.174  32.498   4.296
57392W        W18846  13.320  23.613  13.935
57393W        W18847   5.701   1.794  11.060
57394W        W18848  38.951  34.094  12.398
57395W        W18849   0.852  23.656  11.933
57396W        W18850   0.964  15.581  10.003
57397W        W18851  34.402  12.640  12.457
57398W        W18852  24.017   9.196   3.282
57399W        W18853   3.399   1.773  13.544
57400W        W18854  32.486  30.924   1.833
57401W        W18855  38.919   0.749   4.254
57402W        W18856   5.253  19.250  12.014
57403W        W18857   5.335  10.776  13.541
57404W        W18858  21.664  21.121  12.484
57405W        W18859  34.549   3.884  11.528
57406W        W18860  42.882  14.631  13.481
57407W        W18861  15.588  19.061   4.198
57408W        W18862  43.462   2.274   2.734
57409W        W18863  22.072  31.556  11.495
57410W        W18864  12.709  24.057  13.342
57411W        W18865   1.299  17.698  12.546
57412W        W18866  16.668   6.913  10.420
57413W        W18867   6.414  15.230   4.127
57414W        W18868   1.241   6.306  13.823
57415W        W18869  44.287  20.150   3.292
57416W        W18870   9.272  25.174   2.204
57417W        W18871  12.762  12.856   4.598
57418W        W18872  33.501  23.724   2.393
57419W        W18873  10.234   2.917   3.681
57420W        W18874  34.477  18.740   3.377
57421W        W18875   6.216  25.967  11.508
57422W        W18876  31.934   0.287   3.866
57423W        W18877  42.898   5.280   2.211
57424W        W18878  29.429  17.280   1.755
57425W        W18879  25.625  30.486  14.777
57426W        W18880  13.256   3.377   5.266
57427W        W18881  42.965   2.418   3.249
57428W        W18882  21.709  32.129   0.857
57429W        W18883  20.212  19.728   9.941
57430W        W18884  18.779  24.534  12.516
57431W        W18885  32.113  44.436   3.249
57432W        W18886  40.320  24.098  11.546
57433W        W18887  25.508   4.418   3.376
57434W        W18888   2.415  10.207   0.404
57435W        W18889  24.007  37.082   0.965
57436W        W18890  18.549  25.009   2.279
57437W        W18891  11.749  14.745   3.749
57438W        W18892  11.144   3.246  12.950
57439W        W18893  24.567   0.788   3.731
57440W        W18894  38.512  16.086   4.617
57441W        W18895  31.645   6.843   3.735
57442W        W18896  38.340   9.302   4.290
57443W        W18897  32.889  43.418   4.710
57444W        W18898  15.291  40.532  12.375
57445W        W18899  44.778   3.223  12.930
57446W        W18900  30.585  41.430   3.352
57447W        W18901  37.435  20.259   1.340
57448W        W18902   4.772  12.343  14.930
57449W        W18903  11.687  32.077  13.519
57450W        W18904  41.400  26.163   3.201
57451W        W18905  37.492  36.918  11.064
57452W        W18906  14.802  25.998   0.268
57453W        W18907  30.458  11.277  14.764
57454W        W18908  40.964  30.004   4.346
57455W        W18909  30.469  21.152  11.095
57456W        W18910  13.226  19.686   1.212
57457W        W18911  16.625  22.110  12.339
57458W        W18912  21.585  30.049   3.230
57459W        W18913  32.087  19.647  12.898
57460W        W18914   3.825  22.535  10.034
57461W        W18915  10.316  32.506   3.752
57462W        W18916  26.694  41.367   9.961
57463W        W18917  36.850  15.800  13.928
57464W        W18918  14.784  44.280   4.254
57465W        W18919  42.398   1.970   2.346
57466W        W18920   9.836  44.325  11.028
57467W        W18921  35.574  33.075  14.845
57468W        W18922  20.208  41.806  12.031
57469W        W18923  18.068  19.199   4.146
57470W        W18924   3.950  39.047  10.991
57471W        W18925  39.350  13.222  14.324
57472W        W18926  24.510  20.075  12.844
57473W        W18927  13.839  29.571   2.729
57474W        W18928   3.835  11.224  10.451
57475W        W18929  37.489  26.620  11.066
57476W        W18930   4.374  42.380   3.769
57477W        W18931   2.834  25.075   0.247
57478W        W18932  12.779  26.998  12.405
57479W        W18933  10.202  30.618   2.857
57480W        W18934   4.204  42.933   9.947
57481W        W18935   9.240   5.713  13.476
57482W        W18936   7.898  25.050   9.994
57483W        W18937  18.215  25.684   2.329
57484W        W18938  38.875   5.827   3.213
57485W        W18939  23.987   7.270  12.015
57486W        W18940   7.411  29.101  10.604
57487W        W18941  42.413  28.524   3.724
57488W        W18942   2.882   0.763  10.991
57489W        W18943   4.303   7.357   3.808
57490W        W18944  14.759  30.424   2.283
57491W        W18945  26.690   6.298   4.242
57492W        W18946  32.542  32.120   0.465
57493W        W18947  24.990   5.432  11.977
57494W        W18948  31.544  23.991  13.469
57495W        W18949  10.355   1.353  10.423
57496W        W18950  32.905  37.086   0.291
57497W        W18951  14.238  33.602  13.793
57498W        W18952  20.636  32.632  14.402
57499W        W18953   0.986  27.665   0.268
57500W        W18954  25.109  12.618   2.765
57501W        W18955   2.364  15.187   1.379
57502W        W18956   1.799  39.959  14.906
57503W        W18957  10.636  15.799  14.948
57504W        W18958  27.486  25.617   4.804
57505W        W18959   2.966  14.281  13.046
57506W        W18960  38.416  33.602   2.280
57507W        W18961  29.501   4.367  12.394
57508W        W18962  38.960  33.600   2.278
57509W        W18963  10.645  17.095  12.911
57510W        W18964   7.899   0.753   0.444
57511W        W18965  23.198  22.043   4.718
57512W        W18966  44.780  36.905  10.415
57513W        W18967  37.050  34.552   1.844
57514W        W18968  19.208  37.830   1.804
57515W        W18969  36.429  31.013   4.727
57516W        W18970   9.817   1.860   2.242
57517W        W18971  23.065  42.927   2.206
57518W        W18972   9.858  26.538  14.764
57519W        W18973   6.685  41.311  13.318
57520W        W18974   1.459  22.692   3.299
57521W        W18975  13.155  35.964   1.833
57522W        W18976  31.573  44.473  12.483
57523W        W18977   4.441  16.672  14.002
57524W        W18978   7.877  44.844  14.329
57525W        W18979  14.174  36.467  11.906
57526W        W18980  28.161   9.738   4.193
57527W        W18981  42.984  33.460  13.333
57528W        W18982  32.630  29.476  11.504
57529W        W18983  36.891   3.286   2.227
57530W        W18984  11.772  11.833   1.326
57531W        W18985   3.796  12.360  13.000
57532W        W18986  36.045  11.287  12.969
57533W        W18987  43.350  43.481  11.540
57534W        W18988  38.567  11.778   1.748
57535W        W18989  33.986  20.600  11.893
57536W        W18990  32.474  30.495  12.867
57537W        W18991   5.863  37.836  14.465
57538W        W18992   0.492   1.920  12.850
57539W        W18993   7.318  34.468  11.124
57540W        W18994  36.553  27.165   1.235
57541W        W18995  24.590  28.638  10.559
57542W        W18996  12.153  19.754  11.877
57543W        W18997  39.848  32.911  11.099
57544W        W18998  42.431   4.808  13.803
57545W        W18999  11.651  25.538   4.234
57546W        W19000  22.676  38.962   2.728
57547W        W19001  32.428  42.351   1.787
57548W        W19002  10.687  41.912  14.878
57549W        W19003  19.250   2.723  14.766
57550W        W19004  20.738   6.919  14.793
57551W        W19005   7.778  39.356   3.846
57552W        W19006  20.177  38.875   4.284
57553W        W19007  34.982  39.944   1.921
57554W        W19008  10.157  21.578   2.775
57555W        W19009  39.530  39.016  10.565
57556W        W19010   5.314   9.198  14.796
57557W        W19011  10.681  32.438   1.753
57558W        W19012  33.097  31.634  12.988
57559W        W19013  26.178  29.033  12.072
57560W        W19014   4.297  42.022   2.697
57561W        W19015   9.347   8.791  14.845
57562W        W19016  20.709   3.344  14.915
57563W        W19017  41.004  37.885   1.862
57564W        W19018   9.680  11.649  11.101
57565W        W19019   8.688  24.013   4.204
57566W        W19020  31.951  32.557  12.414
57567W        W19021  14.829  25.061  12.480
57568W        W19022  24.622  27.182   2.403
57569W        W19023  30.513  30.034   4.159
57570W        W19024  14.302  10.837  11.527
57571W        W19025  36.872   4.866   2.781
57572W        W19026  38.449   9.810  12.090
57573W        W19027  43.834  19.164   1.723
57574W        W19028  41.424   5.870   4.784
57575W        W19029  19.534  41.435  13.544
57576W        W19030  15.209  31.469   4.694
57577W        W19031   0.908  40.326   1.435
57578W        W19032   3.740  13.676  10.586
57579W        W19033  42.398  19.613   3.375
57580W        W19034  19.601  44.306   1.830
57581W        W19035  44.994  29.626  12.357
57582W        W19036  22.154  37.851  14.903
57583W        W19037  32.484  11.267   2.197
57584W        W19038  23.681  31.942  14.463
57585W        W19039  34.370  21.621   2.257
57586W        W19040  29.572  15.764   0.813
57587W        W19041  26.691  16.116  14.776
57588W        W19042   6.707  19.681  13.901
57589W        W19043   2.408  27.461   4.200
57590W        W19044  12.825   5.860   2.664
57591W        W19045  17.559  10.240   0.431
57592W        W19046  17.573  36.567   1.264
57593W        W19047  19.762  15.265   0.366
57594W        W19048   5.700  18.272   3.198
57595W        W19049   4.421  15.816  13.360
57596W        W19050  12.132  32.041   5.203
57597W        W19051   9.318   1.854  12.437
57598W        W19052  23.134  28.186   1.323
57599W        W19053   1.252  14.158   0.420
57600W        W19054  15.099  21.562  12.578
57601W        W19055  37.888  14.787   4.762
57602W        W19056  21.634  34.576   1.375
57603W        W19057   3.390  10.238   3.650
57604W        W19058  19.271  30.023  14.514
57605W        W19059  35.554  37.353  14.013
57606W        W19060  43.911  27.584   4.280
57607W        W19061  28.991  17.687  11.031
57608W        W19062   1.743  33.476   1.384
57609W        W19063  41.919  43.798   3.350
57610W        W19064  43.863  35.474  12.069
57611W        W19065  41.408  36.902  12.568
57612W        W19066  36.041  23.598   3.674
57613W        W19067  34.933  18.713  14.497
57614W        W19068  30.630   8.331  14.354
57615W        W19069  19.735  29.167   3.763
57616W        W19070  15.285  15.083   1.878
57617W        W19071  39.955   1.877  13.918
57618W        W19072  24.222  40.482  13.007
57619W        W19073  40.397  41.422  10.060
57620W        W19074  33.958  13.671   2.228
57621W        W19075  44.355   6.198  11.989
57622W        W19076  17.619  40.312  14.002
57623W        W19077  11.704  13.602   1.928
57624W        W19078  35.574  30.444  14.353
57625W        W19079  11.770  11.185  13.319
57626W        W19080   2.940   1.899   4.724
57627W        W19081  11.277   3.889  10.430
57628W        W19082  35.601  30.102   2.189
57629W        W19083   9.853   5.732  11.453
57630W        W19084  16.658  38.063   4.213
57631W        W19085  38.993  40.970  11.067
57632W        W19086  34.878   9.858  14.032
57633W        W19087  12.747  32.028   4.649
57634W        W19088   8.771  10.858  12.936
57635W        W19089  20.580   6.691  10.598
57636W        W19090   0.745  38.932   0.296
57637W        W19091  23.093   5.314   2.259
57638W        W19092   9.323  21.741   2.820
57639W        W19093  18.094   7.735  13.957
57640W        W19094  29.992  22.503   5.100
57641W        W19095  43.956   3.814  10.460
57642W        W19096  37.539  30.948   2.322
57643W        W19097  20.536   2.813  11.502
57644W        W19098  17.269   6.212  11.402
57645W        W19099  33.410  15.266   0.433
57646W        W19100   5.778  20.188  14.511
57647W        W19101  34.413  34.492   2.843
57648W        W19102  37.403  24.078  14.926
57649W        W19103  27.478  18.784   4.300
57650W        W19104  42.376  26.565   1.318
57651W        W19105  11.194  10.761   2.706
57652W        W19106  42.901  39.808   1.840
57653W        W19107  30.004  38.839   0.331
57654W        W19108  31.566  17.767  11.406
57655W        W19109  30.970  18.087  14.297
57656W        W19110  15.600  26.701   3.775
57657W        W19111  11.748   2.455   1.263
57658W        W19112  41.821  18.744   3.757
57659W        W19113  13.170   1.360   0.440
57660W        W19114  16.235   2.877   3.383
57661W        W19115  22.132  39.445   1.817
57662W        W19116  28.973   6.717  13.330
57663W        W19117  42.846   7.358   4.160
57664W        W19118   9.668  25.021  10.915
57665W        W19119  28.548  10.745  10.077
57666W        W19120  39.809  24.720   3.277
57667W        W19121  43.911  34.000   1.413
57668W        W19122   8.338   5.760  13.970
57669W        W19123  29.951  10.213   3.237
57670W        W19124  22.708  43.286  10.640
57671W        W19125  23.069  31.924   0.483
57672W        W19126  34.598  39.829   3.262
57673W        W19127  24.005   6.299  13.985
57674W        W19128  23.061  35.889   0.310
57675W        W19129  28.085  25.039  12.457
57676W        W19130  41.028   2.764   0.892
57677W        W19131  30.014  25.107   3.760
57678W        W19132  13.290  29.926  13.517
57679W        W19133  14.138  41.386  14.337
57680W        W19134  18.654  40.991  13.508
57681W        W19135  33.066  29.070   2.894
57682W        W19136   6.378  19.072   3.274
57683W        W19137  29.997   9.883   0.398
57684W        W19138   4.823  10.265   2.364
57685W        W19139   7.867  39.837   0.353
57686W        W19140   5.877  10.762  14.872
57687W        W19141  25.105  24.519  14.290
57688W        W19142  12.696  33.580  10.946
57689W        W19143   6.365  44.267   0.467
57690W        W19144  27.177  43.828   1.844
57691W        W19145  14.170   8.690   0.805
57692W        W19146  29.027  13.801  11.481
57693W        W19147  42.418  37.080   3.195
57694W        W19148  44.767  39.375  11.978
57695W        W19149  28.531   5.693   3.340
57696W        W19150  36.472   8.717   2.379
57697W        W19151   0.290   4.717   1.227
57698W        W19152  10.347   9.239   4.614
57699W        W19153  17.699  30.433   1.764
57700W        W19154  42.313   8.222   3.795
57701W        W19155  16.198  29.963   4.643
57702W        W19156   2.733   9.386  11.499
57703W        W19157  16.769  36.357   2.328
57704W        W19158  14.257   6.202  13.455
57705W        W19159  37.477   2.449   4.283
57706W        W19160  26.521  16.609  11.105
57707W        W19161  12.145   3.347  14.501
57708W        W19162  34.951  10.346   1.737
57709W        W19163  28.515  24.118  12.941
57710W        W19164  38.418   2.966  11.915
57711W        W19165  22.572  44.803   0.340
57712W        W19166  38.352  34.503   4.760
57713W        W19167   2.723  20.101  12.363
57714W        W19168  27.474   9.214   3.772
57715W        W19169  24.062  26.133  14.924
57716W        W19170  24.022  35.968  12.094
57717W        W19171  15.670   4.351   2.243
57718W        W19172  40.482  12.223   3.865
57719W        W19173  22.119  21.096  13.040
57720W        W19174  25.597   5.933  14.387
57721W        W19175  26.056   9.675  12.854
57722W        W19176  21.656   3.412  12.088
57723W        W19177  23.185  22.738  10.517
57724W        W19178   7.842  41.841   2.352
57725W        W19179  43.928  33.988  14.490
57726W        W19180   5.270  25.101   3.366
57727W        W19181  16.730  31.605  14.932
57728W        W19182  17.752   6.260   2.823
57729W        W19183   7.912  17.126  13.468
57730W        W19184  44.864  21.617   4.819
57731W        W19185  31.643  29.167  12.934
57732W        W19186   3.252  22.674   2.246
57733W        W19187  25.643  15.133  11.867
57734W        W19188  18.207  10.183  10.465
57735W        W19189  42.892  16.694  11.927
57736W        W19190  18.112  30.972  13.805
57737W        W19191  25.713  23.166  14.441
57738W        W19192  17.073   9.644  12.983
57739W        W19193  36.975   0.886   2.662
57740W        W19194  44.912  26.477  10.420
57741W        W19195  38.960  35.595  12.440
57742W        W19196  10.358  40.832  11.610
57743W        W19197  35.404  11.790   3.186
57744W        W19198  16.190   4.419   1.861
57745W        W19199  15.759  16.691  11.997
57746W        W19200   6.402  14.698  13.008
57747W        W19201  39.962   1.906   3.638
57748W        W19202  22.611  37.446   2.222
57749W        W19203  20.748  23.679  13.827
57750W        W19204  28.658  14.265   3.653
57751W        W19205  43.942  43.911   0.853
57752W        W19206  10.811  37.343   3.230
57753W        W19207  18.767  42.288  12.893
57754W        W19208  26.058  16.130  14.388
57755W        W19209  35.888  24.079   2.858
57756W        W19210  23.219   6.793  10.052
57757W        W19211  30.976  41.846  14.320
57758W        W19212  37.015  31.422   1.403
57759W        W19213  14.225  25.202   1.737
57760W        W19214  27.038   0.369  14.032
57761W        W19215   9.183  42.005  13.012
57762W        W19216  39.360  10.721   3.304
57763W        W19217  29.611  30.089  12.898
57764W        W19218   5.293   3.338   3.233
57765W        W19219  16.598  30.032   2.786
57766W        W19220   4.719   6.348  14.941
57767W        W19221  24.973   3.305  14.904
57768W        W19222  40.427  12.219  12.508
57769W        W19223  40.470  29.110  14.969
57770W        W19224  28.531  19.748  11.469
57771W        W19225  35.870  33.590  14.354
57772W        W19226  38.843  17.189  11.542
57773W        W19227   0.800   7.674  13.425
57774W        W19228  33.514  27.479   3.863
57775W        W19229  20.700  21.592   2.316
57776W        W19230  27.955  24.124  11.546
57777W        W19231  21.643  39.480  13.881
57778W        W19232  35.029  28.078   1.213
57779W        W19233  20.556  14.678  14.833
57780W        W19234  31.568  34.963   2.192
57781W        W19235  12.119  35.070  12.064
57782W        W19236   9.805  18.691   0.735
57783W        W19237  13.639   9.284  11.470
57784W        W19238  25.085  27.094  13.979
57785W        W19239  44.859   9.737  11.879
57786W        W19240  24.069  16.595  12.899
57787W        W19241  28.671  29.454  13.016
57788W        W19242  34.011  34.561  13.928
57789W        W19243  23.656  40.366   4.195
57790W        W19244   8.727  22.067  14.378
57791W        W19245  42.918  38.417  14.401
57792W        W19246   3.889  14.120  11.934
57793W        W19247  17.636  42.902   9.933
57794W        W19248  25.474  24.057  11.537
57795W        W19249  26.599  11.651  10.967
57796W        W19250  21.688  22.736  10.937
57797W        W19251  27.986  21.568   1.232
57798W        W19252  10.704  31.504   4.793
57799W        W19253  24.063  15.316  11.910
57800W        W19254  16.122   1.454   0.392
57801W        W19255  22.101   6.374  12.949
57802W        W19256  39.989   3.450  11.918
57803W        W19257  44.979   9.381   1.440
57804W        W19258  26.584   8.248   4.641
57805W        W19259  26.550  14.707   2.274
57806W        W19260  15.104  14.156  13.881
57807W        W19261  16.075  44.970  13.493
57808W        W19262   3.767  35.407  14.380
57809W        W19263  16.753  20.089   1.441
57810W        W19264  41.008  31.090  13.324
57811W        W19265   1.759  31.479   0.788
57812W        W19266   9.761  38.474   2.667
57813W        W19267  22.658  39.930   1.711
57814W        W19268  37.857   8.865  12.442
57815W        W19269  32.981   9.284   4.257
57816W        W19270  29.467  32.037  12.451
57817W        W19271  11.252  18.207  14.464
57818W        W19272  39.528  31.123  12.999
57819W        W19273   1.764  40.509  10.454
57820W        W19274  41.000  17.248   3.292
57821W        W19275  41.443  15.731  13.848
57822W        W19276  20.659  28.046  12.346
57823W        W19277  15.727   1.443  11.909
57824W        W19278  14.707  24.511   1.401
57825W        W19279  17.074  39.541   2.759
57826W        W19280   3.823  16.624   1.723
57827W        W19281  17.284   3.227   0.251
57828W        W19282  29.531  26.624  14.800
57829W        W19283   7.897  15.163  12.439
57830W        W19284   5.211   8.266  10.408
57831W        W19285   6.771  16.232  11.458
57832W        W19286  19.674  38.934   2.327
57833W        W19287  25.647  43.965  12.528
57834W        W19288   0.370  17.589   2.830
57835W        W19289  30.491   6.780   3.287
57836W        W19290  42.343  37.340  10.959
57837W        W19291  42.878  12.774   4.639
57838W        W19292   3.930  16.075   1.726
57839W        W19293  26.604  38.046   1.865
57840W        W19294  20.045  12.800   4.750
57841W        W19295  20.233  22.151   2.357
57842W        W19296  22.196  20.574  10.494
57843W        W19297  29.441   5.386  14.405
57844W        W19298  43.766   9.236   4.684
57845W        W19299  40.041  11.783   2.391
57846W        W19300  15.192  19.135  11.997
57847W        W19301  44.322  13.717  12.417
57848W        W19302  19.147  35.425  11.462
57849W        W19303  11.292   3.416   3.652
57850W        W19304  41.000  19.777   3.357
57851W        W19305  40.806  15.821   4.602
57852W        W19306  13.661  11.755  10.124
57853W        W19307   2.240  17.101  12.842
57854W        W19308  44.489  33.067   3.171
57855W        W19309  26.516   2.288  10.051
57856W        W19310  39.046  23.599   4.316
57857W        W19311  38.495  16.727  14.884
57858W        W19312  33.515  29.960  14.817
57859W        W19313  24.036   3.812  10.553
57860W        W19314  25.049  20.616   4.770
57861W        W19315  23.605  11.665  13.446
57862W        W19316  41.300  24.552   1.259
57863W        W19317  43.310  11.866   4.838
57864W        W19318  33.597  10.798  14.326
57865W        W19319  36.458  29.127   1.381
57866W        W19320   7.381   0.476   2.691
57867W        W19321  11.195  30.923  11.589
57868W        W19322  12.695  34.536  11.504
57869W        W19323  18.557  41.972   0.457
57870W        W19324  37.865  24.604   4.229
57871W        W19325  12.641  22.620   2.775
57872W        W19326  11.746  27.131   0.344
57873W        W19327   5.383   3.844   1.886
57874W        W19328  32.563   7.375  11.399
57875W        W19329  19.537  37.457  11.126
57876W        W19330  43.322  32.127   9.945
57877W        W19331  31.423  12.207  11.939
57878W        W19332  32.569  42.461  13.043
57879W        W19333   3.300  34.012   3.646
57880W        W19334  27.522   7.791  11.078
57881W        W19335  25.183   8.359  11.915
57882W        W19336  32.484  20.695  14.284
57883W        W19337   4.391  23.100   2.228
57884W        W19338  39.992  26.567   0.733
57885W        W19339  14.595  23.990  10.496
57886W        W19340  14.267  44.483   4.604
57887W        W19341  29.579  28.574   3.357
57888W        W19342  39.939   2.805  10.904
57889W        W19343  40.345   6.820   0.790
57890W        W19344  12.276  16.632  12.947
57891W        W19345  23.099  32.031   3.347
57892W        W19346  23.676  19.151  14.849
57893W        W19347  42.350  18.089   0.760
57894W        W19348   8.695  12.828   4.223
57895W        W19349  28.991  19.774  13.026
57896W        W19350   8.174  10.737   2.213
57897W        W19351  28.954  25.637  13.318
57898W        W19352  14.807  41.985  13.792
57899W        W19353  26.586  14.634   1.789
57900W        W19354  25.090  26.093  10.981
57901W        W19355  23.984   3.770  12.904
57902W        W19356   2.894  39.558  14.510
57903W        W19357  21.694  31.469   0.328
57904W        W19358  18.121  32.392  14.400
57905W        W19359  37.064  12.678   1.753
57906W        W19360  20.142  23.088   1.212
57907W        W19361  11.185  32.568   9.503
57908W        W19362  33.407  37.952  11.546
57909W        W19363  22.619   5.217   0.438
57910W        W19364  34.954   7.686  10.575
57911W        W19365  13.793  41.943  13.995
57912W        W19366  23.197  12.279   3.752
57913W        W19367  12.346  25.614   3.716
57914W        W19368  39.363  32.444  12.986
57915W        W19369   2.309  23.556   3.187
57916W        W19370   6.826  12.805  11.984
57917W        W19371  25.582  41.512   2.391
57918W        W19372   3.858  20.260  12.504
57919W        W19373   9.694   1.735  12.928
57920W        W19374  11.799   5.427  12.042
57921W        W19375   1.282   1.355  10.430
57922W        W19376  12.318  31.086   1.754
57923W        W19377  37.550  36.471  10.522
57924W        W19378   6.815  24.004   4.223
57925W        W19379  24.485  38.438  13.990
57926W        W19380   7.357  29.171  14.829
57927W        W19381   0.904  13.653   0.873
57928W        W19382  35.413  33.500  10.605
57929W        W19383  30.005  18.188   4.273
57930W        W19384  41.480  44.888  13.411
57931W        W19385   7.779   5.779  13.432
57932W        W19386  33.518  36.429   3.243
57933W        W19387  21.047  11.784  10.581
57934W        W19388  39.466  11.157   3.259
57935W        W19389  44.262  30.040   0.892
57936W        W19390  24.553  41.990  12.032
57937W        W19391  24.178   4.320  13.063
57938W        W19392  33.892   7.754  12.855
57939W        W19393  29.158   5.242   2.773
57940W        W19394  25.711  13.134   1.256
57941W        W19395  35.416   9.669  11.904
57942W        W19396   0.435  30.553   3.781
57943W        W19397  28.993  34.575   0.739
57944W        W19398  24.625   5.287   5.096
57945W        W19399  21.517  35.564  13.357
57946W        W19400  42.308  26.473   3.763
57947W        W19401  32.559  12.764   0.916
57948W        W19402  32.075  21.041  10.528
57949W        W19403   1.759  31.609   3.312
57950W        W19404   5.810  38.346  11.872
57951W        W19405   7.855  33.042  12.924
57952W        W19406  34.951  36.997  10.949
57953W        W19407  28.527  28.655  12.471
57954W        W19408   8.378  23.011   2.689
57955W        W19409   7.337  44.449  11.063
57956W        W19410  15.265  12.729  11.421
57957W        W19411  36.487   3.370  10.097
57958W        W19412  20.532  31.419   4.216
57959W        W19413  25.550  16.810  10.911
57960W        W19414   9.694  24.149  13.426
57961W        W19415  41.424  32.002   2.317
57962W        W19416  11.776  43.797  14.300
57963W        W19417  35.916  10.200   0.419
57964W        W19418  31.042  28.023   4.771
57965W        W19419  12.330   3.279  10.954
57966W        W19420   3.938   1.969   4.616
57967W        W19421   2.241  33.496  13.834
57968W        W19422  42.792  14.807   4.146
57969W        W19423  17.208  26.092  11.896
57970W        W19424  40.930  25.647   4.331
57971W        W19425  23.560  11.186   4.622
57972W        W19426  19.086  28.032  12.067
57973W        W19427  10.172  10.730   1.696
57974W        W19428  25.142  30.588   3.287
57975W        W19429  17.096  39.903   1.427
57976W        W19430   0.445  13.832  13.875
57977W        W19431  10.286  29.463   2.400
57978W        W19432   3.809  36.971   2.763
57979W        W19433  34.015   1.481  14.428
57980W        W19434   3.433  29.072   1.255
57981W        W19435  13.186  41.821   2.844
57982W        W19436   4.249  13.750  11.571
57983W        W19437   4.789  16.623   4.795
57984W        W19438  19.591  28.034   2.377
57985W        W19439  41.506  10.748  12.009
57986W        W19440   2.890  42.388   0.913
57987W        W19441  17.791  34.609   4.611
57988W        W19442  29.146  16.664  13.371
57989W        W19443   2.779  35.554  12.850
57990W        W19444  31.448  35.556   4.176
57991W        W19445  13.783  28.622   3.852
57992W        W19446  28.136  21.143  10.643
57993W        W19447  13.692  40.484   3.773
57994W        W19448  25.479  18.676   2.360
57995W        W19449   2.822   7.868   3.738
57996W        W19450   1.813   0.941   3.643
57997W        W19451  15.255   7.792  10.634
57998W        W19452  24.133  36.093  13.531
57999W        W19453  18.270  30.973   4.315
58000W        W19454  44.308  43.011  14.509
58001W        W19455  11.289  26.091   3.714
58002W        W19456  42.337  18.755  12.948
58003W        W19457   9.259   3.339  13.409
58004W        W19458  17.799  39.408   0.471
58005W        W19459  23.014  39.993  13.317
58006W        W19460  32.911  21.544   3.668
58007W        W19461  16.685  15.191  14.851
58008W        W19462  10.655  41.020  10.593
58009W        W19463  14.809  40.450  13.830
58010W        W19464  33.592   6.877   2.862
58011W        W19465  30.541  32.467  14.993
58012W        W19466  43.324   3.774  13.320
58013W        W19467  29.157   0.906  13.415
58014W        W19468   3.792  11.275   0.764
58015W        W19469   8.860  23.701   2.278
58016W        W19470  12.287  19.697   9.961
58017W        W19471  13.740  17.651   2.224
58018W        W19472  21.241  17.628  11.487
58019W        W19473  31.023  31.599  10.565
58020W        W19474   2.422  40.883   4.347
58021W        W19475   9.837  20.040   1.928
58022W        W19476  44.807   0.893   1.764
58023W        W19477  41.863  12.322   3.157
58024W        W19478  42.866   7.349  10.434
58025W        W19479   7.781  10.785  14.501
58026W        W19480  21.076   4.834   1.917
58027W        W19481  32.599  12.636   1.309
58028W        W19482  44.819   4.909   1.340
58029W        W19483  24.563  16.181   1.746
58030W        W19484   5.915  36.558   0.757
58031W        W19485  14.658   3.320   0.838
58032W        W19486  21.589  18.090  10.474
58033W        W19487  26.092  25.081   1.436
58034W        W19488  29.495  30.116  11.025
58035W        W19489   5.325  28.677  14.987
58036W        W19490  19.742  36.024   0.786
58037W        W19491  44.931  22.106  10.572
58038W        W19492  15.719   5.764  10.478
58039W        W19493  18.598   9.286  13.025
58040W        W19494  26.036  12.812   1.247
58041W        W19495   3.741  38.413  12.032
58042W        W19496  36.356   0.353  13.796
58043W        W19497  42.496  28.074   4.169
58044W        W19498   5.383  14.102   2.279
58045W        W19499  13.654   1.247   1.917
58046W        W19500   9.665   3.901  11.496
58047W        W19501  20.255  31.495   2.293
58048W        W19502  12.308  40.503   9.550
58049W        W19503  18.764  16.750  14.405
58050W        W19504   4.934  29.928   0.358
58051W        W19505  20.163  25.022   2.802
58052W        W19506  20.701  33.531   2.840
58053W        W19507  33.064  39.816   1.778
58054W        W19508  34.478  11.780   3.718
58055W        W19509   9.700   9.247  13.501
58056W        W19510   1.276  15.160  12.351
58057W        W19511  35.961  18.244   1.231
58058W        W19512  13.618  15.185  10.077
58059W        W19513  15.262  36.569  13.865
58060W        W19514  43.777  37.551  11.475
58061W        W19515  13.663  35.939  11.937
58062W        W19516  39.899  29.484  10.913
58063W        W19517  24.621  10.724  13.974
58064W        W19518   9.673  38.828   3.684
58065W        W19519  32.021  16.787   3.849
58066W        W19520  34.411  24.184  10.620
58067W        W19521  14.283  16.294   2.350
58068W        W19522  32.988  32.044   3.820
58069W        W19523  41.004  32.603   0.960
58070W        W19524  22.023  26.026  10.472
58071W        W19525  24.097  29.556  14.833
58072W        W19526  35.918  40.468  14.866
58073W        W19527  43.963  43.429   1.312
58074W        W19528  43.460  25.520  13.536
58075W        W19529  42.487  15.698  11.931
58076W        W19530   9.845  19.185   2.330
58077W        W19531  25.158  35.883   4.282
58078W        W19532  40.331  10.816   0.921
58079W        W19533  17.116  40.368   4.306
58080W        W19534   6.878  31.625  14.457
58081W        W19535  44.444   7.225  11.535
58082W        W19536  43.858   9.276  13.368
58083W        W19537   3.351   1.353  12.502
58084W        W19538  42.880   7.405  12.484
58085W        W19539  19.542  14.655   1.285
58086W        W19540   2.764  29.636   0.797
58087W        W19541  40.515  22.078   2.665
58088W        W19542  43.460   5.803   0.437
58089W        W19543  44.977   4.236  11.444
58090W        W19544  44.500  35.432  11.447
58091W        W19545  33.088  41.356  12.979
58092W        W19546  44.354  18.208   3.811
58093W        W19547  32.406  14.193   0.839
58094W        W19548  16.764  27.554  12.549
58095W        W19549  32.941  11.219   3.224
58096W        W19550  27.122  39.979  14.973
58097W        W19551  14.676   4.314  14.017
58098W        W19552  43.837  36.951  13.343
58099W        W19553  21.657  25.210   1.235
58100W        W19554  36.536  24.680  12.427
58101W        W19555   4.782  20.108  13.423
58102W        W19556  43.783  23.500  14.428
58103W        W19557  20.041   2.917  11.961
58104W        W19558  13.126   0.860  13.991
58105W        W19559  27.666  26.157   0.840
58106W        W19560  20.174  20.634  13.369
58107W        W19561  23.569  41.887   3.194
58108W        W19562  43.871  40.367   1.771
58109W        W19563   3.950  10.779  13.877
58110W        W19564  18.599  41.978  11.603
58111W        W19565  22.585  18.219  11.388
58112W        W19566  29.089  33.524  13.339
58113W        W19567  21.082  41.364  11.895
58114W        W19568  12.785  12.835  12.485
58115W        W19569  24.171  40.433   5.290
58116W        W19570  32.454  14.621  12.348
58117W        W19571  21.751  32.613   2.301
58118W        W19572  42.933  11.144   4.826
58119W        W19573  33.992  18.241  14.276
58120W        W19574  25.610  16.195  14.457
58121W        W19575  30.561  30.599  11.115
58122W        W19576  23.198  28.171  10.413
58123W        W19577  35.482  26.153   2.872
58124W        W19578   6.258  11.287   2.245
58125W        W19579  10.228   9.830   4.248
58126W        W19580  19.153  26.161   0.819
58127W        W19581  38.025  19.072  14.312
58128W        W19582  41.984  38.503  12.911
58129W        W19583  41.509  23.026  11.096
58130W        W19584  28.519  41.400  11.052
58131W        W19585  24.070  18.149   1.448
58132W        W19586   6.709  20.573  12.500
58133W        W19587   9.659  12.123  10.984
58134W        W19588  11.320   9.819  13.904
58135W        W19589  30.129  24.221  13.055
58136W        W19590  34.603   1.841  10.600
58137W        W19591  43.813  24.507   3.348
58138W        W19592   5.850  29.142  11.410
58139W        W19593  40.806   4.700   2.756
58140W        W19594  20.249  17.223   0.461
58141W        W19595  14.655  26.658  13.062
58142W        W19596  26.192   6.709  13.386
58143W        W19597  11.737   8.671   2.831
58144W        W19598  44.911  40.979   4.169
58145W        W19599  34.118  44.319  14.889
58146W        W19600  33.456  41.995  11.034
58147W        W19601  35.863   2.320  14.866
58148W        W19602   1.326  38.966   1.225
58149W        W19603  38.512  29.603   1.770
58150W        W19604  27.675  17.126  10.612
58151W        W19605  40.480  33.452   0.397
58152W        W19606  43.873   2.394   0.257
58153W        W19607  34.419  31.027   4.836
58154W        W19608  31.050  27.533  11.558
58155W        W19609  32.551  27.192   3.680
58156W        W19610  13.345  21.528   2.763
58157W        W19611  43.766  33.956  13.479
58158W        W19612  10.847  12.819   1.358
58159W        W19613  24.582  20.142  10.593
58160W        W19614  32.492  31.109  14.473
58161W        W19615  26.028   1.340   3.642
58162W        W19616   5.197   6.318  10.020
58163W        W19617  27.487  26.094  10.495
58164W        W19618  14.101  19.056   2.395
58165W        W19619  18.107  35.405  14.795
58166W        W19620  29.926  16.264  12.857
58167W        W19621   8.225  16.127  14.834
58168W        W19622  26.607   8.668  14.908
58169W        W19623  32.471  13.283  11.404
58170W        W19624  40.313  37.999  12.950
58171W        W19625   9.395  26.053  11.536
58172W        W19626  43.870  39.420  11.090
58173W        W19627  21.648  20.656  11.104
58174W        W19628  19.050  30.022  12.983
58175W        W19629  43.425   9.271   0.804
58176W        W19630  24.015  17.234  13.803
58177W        W19631  28.468  24.067   3.303
58178W        W19632  41.414   4.834  14.922
58179W        W19633  12.771   9.358  13.977
58180W        W19634  35.110  37.879   1.367
58181W        W19635  21.023  41.862  10.593
58182W        W19636  36.854  16.150  12.076
58183W        W19637  26.154  39.832   4.307
58184W        W19638  29.576  23.006  13.467
58185W        W19639   8.277  28.547   1.925
58186W        W19640  32.086  15.270   2.690
58187W        W19641   1.925   6.778  12.946
58188W        W19642  39.553  24.136  12.396
58189W        W19643  26.584  17.597   4.302
58190W        W19644  25.708  33.912   0.871
58191W        W19645  24.660  25.601   3.306
58192W        W19646  29.097  21.056  11.489
58193W        W19647  36.520  33.130  13.923
58194W        W19648  14.637  22.106  10.481
58195W        W19649   3.421   9.379  13.001
58196W        W19650  44.916  14.774   1.336
58197W        W19651  40.537  43.815   2.185
58198W        W19652   5.418  44.872   0.858
58199W        W19653  40.008  44.889  13.395
58200W        W19654  24.678  21.622   1.832
58201W        W19655  42.426  19.263  11.525
58202W        W19656  15.601  41.436   3.382
58203W        W19657   9.267  15.589   4.143
58204W        W19658  38.528  21.557   0.944
58205W        W19659  15.779   5.217   4.810
58206W        W19660  34.114  29.919  10.919
58207W        W19661  28.173  23.657   4.310
58208W        W19662  30.134   8.275  12.066
58209W        W19663  32.623   2.234   4.659
58210W        W19664  15.653   7.765  14.807
58211W        W19665  21.574   8.317  14.367
58212W        W19666  41.871  28.171   0.894
58213W        W19667  19.540   2.733  10.643
58214W        W19668  30.564  12.704   5.102
58215W        W19669  11.715  33.610  10.424
58216W        W19670  32.547  24.222   3.640
58217W        W19671   5.876  32.602  11.060
58218W        W19672   0.367  20.538  10.569
58219W        W19673  17.719  34.472   4.317
58220W        W19674  25.982   6.862   5.252
58221W        W19675  24.039  20.119  13.974
58222W        W19676  21.102  20.634   2.294
58223W        W19677  15.111  34.583   0.941
58224W        W19678   9.247  20.766  12.482
58225W        W19679  30.587  32.131   1.767
58226W        W19680  20.756  24.601   1.218
58227W        W19681  26.031  10.155  12.563
58228W        W19682   7.759   3.358  10.084
58229W        W19683  33.951  25.468  12.087
58230W        W19684   3.268  13.196   0.254
58231W        W19685  13.758  18.170   2.692
58232W        W19686  31.142  26.064  10.113
58233W        W19687   7.248   8.701  12.902
58234W        W19688  13.226  38.827   4.331
58235W        W19689  33.452   9.645  11.544
58236W        W19690   6.311  35.498   0.302
58237W        W19691   7.255  30.547  12.080
58238W        W19692   5.404  24.561  13.392
58239W        W19693  14.304   0.865   2.253
58240W        W19694  27.620  15.248   0.892
58241W        W19695  35.063  36.942  13.980
58242W        W19696  12.142  43.936  12.886
58243W        W19697  32.559  14.769   2.362
58244W        W19698  24.514  11.746   1.804
58245W        W19699  32.400  32.466  12.486
58246W        W19700  36.361  16.094   0.377
58247W        W19701   0.924   9.331  13.504
58248W        W19702  13.190  41.910   5.311
58249W        W19703  38.910   7.761  12.956
58250W        W19704   4.314  32.996   3.353
58251W        W19705  30.517  15.788   2.887
58252W        W19706  41.304   5.429   4.352
58253W        W19707  12.277  26.518  13.850
58254W        W19708  12.294  32.024   4.187
58255W        W19709  10.254  10.147  12.066
58256W        W19710   1.269  31.522  13.474
58257W        W19711  14.693  16.590   5.296
58258W        W19712  23.605  20.089   4.604
58259W        W19713  36.383  31.087   2.882
58260W        W19714  38.021  15.087   0.836
58261W        W19715  21.639  12.775  11.445
58262W        W19716  33.925  44.435   0.858
58263W        W19717  34.939  33.090   2.321
58264W        W19718  31.428  39.871   1.353
58265W        W19719  25.574  38.349   1.914
58266W        W19720  29.084   4.247  10.456
58267W        W19721  21.196  21.195   1.223
58268W        W19722  31.045  12.848   1.932
58269W        W19723   0.371  43.452   4.318
58270W        W19724  11.273  30.516   4.725
58271W        W19725   4.208  15.326  10.568
58272W        W19726  30.158  43.854  13.317
58273W        W19727  11.352   5.851  11.910
58274W        W19728  26.655  29.935  11.932
58275W        W19729  37.464   7.835  10.638
58276W        W19730  43.923  37.376   4.228
58277W        W19731  17.072   7.708  14.341
58278W        W19732  27.571  18.603   3.773
58279W        W19733  44.990  25.063  12.549
58280W        W19734  20.111  34.545  12.430
58281W        W19735  36.428  30.964   0.271
58282W        W19736  36.970  27.958  10.644
58283W        W19737   3.882  20.261   0.454
58284W        W19738  29.483   6.806   3.647
58285W        W19739  20.028  31.583  12.870
58286W        W19740   0.814  24.143   3.792
58287W        W19741  40.828  12.843   3.183
58288W        W19742  26.998   8.178  10.404
58289W        W19743  15.821  21.232   2.330
58290W        W19744  31.413  35.432   3.355
58291W        W19745  38.381  30.983   1.308
58292W        W19746  43.895   4.374  10.537
58293W        W19747  15.778  34.901  14.450
58294W        W19748   0.446  44.483   3.323
58295W        W19749  40.470  40.466   3.217
58296W        W19750  19.051  24.183  11.465
58297W        W19751  39.900  15.303   0.287
58298W        W19752   3.377  35.399  14.879
58299W        W19753  19.570  20.180  12.560
58300W        W19754  17.741   5.880   0.743
58301W        W19755   6.293  20.734  12.971
58302W        W19756  24.974  18.668  12.826
58303W        W19757  20.545  37.852  12.460
58304W        W19758   1.353   2.350  10.449
58305W        W19759  33.620   0.396  14.954
58306W        W19760  37.986  44.313   0.924
58307W        W19761  22.621  35.549   1.935
58308W        W19762  41.989   3.875  13.938
58309W        W19763  15.318  33.492   2.397
58310W        W19764  18.633  22.144  14.784
58311W        W19765  42.314  44.978  13.510
58312W        W19766  18.263  17.097   4.270
58313W        W19767   8.702   2.443  10.639
58314W        W19768  37.838  15.623   1.704
58315W        W19769  22.107   9.852   0.475
58316W        W19770  29.010  40.532  12.437
58317W        W19771   6.701  10.813  14.503
58318W        W19772   1.845  13.797  10.431
58319W        W19773  36.979  23.993   1.885
58320W        W19774  14.161  39.932   2.838
58321W        W19775  27.974  14.303  13.922
58322W        W19776  29.507   7.858  14.950
58323W        W19777  14.102   8.161  10.535
58324W        W19778  33.101  30.034   3.175
58325W        W19779  18.154  22.633   1.212
58326W        W19780  13.350  16.704  11.045
58327W        W19781  38.864  38.384  12.833
58328W        W19782  21.025  16.211  12.055
58329W        W19783   6.750  38.044  11.416
58330W        W19784  23.114   6.299   1.397
58331W        W19785  19.228  29.603  14.302
58332W        W19786   9.266  17.067   0.349
58333W        W19787  16.668  37.355  10.595
58334W        W19788  21.683  27.458   0.830
58335W        W19789  22.019  37.947   2.323
58336W        W19790  20.209   4.849   1.238
58337W        W19791  39.971  37.497   2.379
58338W        W19792  28.046   1.337   3.148
58339W        W19793  10.383  13.823  10.544
58340W        W19794  26.021  16.806  11.116
58341W        W19795   0.774  43.462   4.253
58342W        W19796  27.567  30.929  14.933
58343W        W19797   3.235  23.118   4.275
58344W        W19798   8.823  15.605  12.949
58345W        W19799  31.116  10.274   1.251
58346W        W19800  38.389  42.005   0.754
58347W        W19801  28.112  10.212   0.771
58348W        W19802  42.004  23.096   3.856
58349W        W19803  19.227   2.801  12.384
58350W        W19804  39.438  10.377   9.965
58351W        W19805  24.560  44.824   2.868
58352W        W19806  28.946  11.787   2.282
58353W        W19807   8.282  14.795  10.428
58354W        W19808  19.570  26.006  14.881
58355W        W19809   4.780   4.728  12.517
58356W        W19810  31.098  24.532   1.375
58357W        W19811  30.623  32.937  14.476
58358W        W19812  28.015  23.182   4.154
58359W        W19813  14.094  11.241  10.641
58360W        W19814  20.047  10.326   2.677
58361W        W19815  29.127   5.799   0.742
58362W        W19816  14.592  43.324  11.560
58363W        W19817  25.975  10.299   4.656
58364W        W19818   0.402   9.653   4.711
58365W        W19819   3.454  18.652   4.288
58366W        W19820   0.893   4.334  11.014
58367W        W19821  23.025  19.178  12.556
58368W        W19822  23.649  19.216   4.829
58369W        W19823  36.897  39.523  13.344
58370W        W19824   1.293   7.814  12.380
58371W        W19825  18.071   9.207   0.869
58372W        W19826   5.317  38.838   4.777
58373W        W19827  15.242  30.601   2.207
58374W        W19828   8.276  10.831  14.331
58375W        W19829   6.380  38.461   3.298
58376W        W19830   8.875  35.916   3.340
58377W        W19831   7.334  28.065  10.911
58378W        W19832  27.065  39.914   0.399
58379W        W19833   8.271  19.181  13.821
58380W        W19834  40.450  40.929  14.305
58381W        W19835   6.871  40.821   0.905
58382W        W19836  18.622  27.952  10.013
58383W        W19837  26.107  31.520  11.443
58384W        W19838   5.438   7.700   2.800
58385W        W19839   2.776  12.617  11.962
58386W        W19840  17.598   6.216   2.326
58387W        W19841  40.011  36.394  11.947
58388W        W19842  43.391  32.128   5.163
58389W        W19843  34.936   8.691   2.205
58390W        W19844  33.086  37.930   1.267
58391W        W19845  31.909  18.170   3.754
58392W        W19846  34.958   3.743  14.322
58393W        W19847  33.953   0.891  12.532
58394W        W19848   4.213  38.351   2.184
58395W        W19849  35.920   5.392  12.554
58396W        W19850  11.129  42.849  11.091
58397W        W19851  29.424  26.206  14.839
58398W        W19852   1.476  29.073   3.819
58399W        W19853  38.969   6.394   5.205
58400W        W19854  15.097  41.451  14.983
58401W        W19855  11.800  30.039   0.329
58402W        W19856  38.404   1.366   4.286
58403W        W19857  30.920  24.711   3.719
58404W        W19858  38.931  42.430   4.758
58405W        W19859  25.707  25.610   0.454
58406W        W19860  36.585  31.110   3.675
58407W        W19861  25.507  14.167   4.782
58408W        W19862  35.106  39.857  14.966
58409W        W19863  33.485   6.854  12.941
58410W        W19864  43.302  13.671   1.917
58411W        W19865  15.615  43.398   3.366
58412W        W19866  28.053   9.653   0.311
58413W        W19867  23.490  40.457  14.821
58414W        W19868   0.252  43.331   1.377
58415W        W19869  28.489   1.463   3.166
58416W        W19870  36.569  24.032   5.277
58417W        W19871  13.175  36.871  11.417
58418W        W19872  21.558  43.894  13.526
58419W        W19873  25.003  25.147  12.838
58420W        W19874  37.835  44.766  12.883
58421W        W19875  29.931  17.580   3.305
58422W        W19876  34.984  44.001   2.338
58423W        W19877  20.747  18.212   1.872
58424W        W19878  19.779  24.153   5.088
58425W        W19879  22.117  24.529   3.739
58426W        W19880   7.185  22.516   2.702
58427W        W19881   5.428   3.303  14.371
58428W        W19882  15.775  30.448   1.423
58429W        W19883  36.376   3.946  11.025
58430W        W19884  29.065  40.531   4.157
58431W        W19885  30.528  23.171  14.377
58432W        W19886  29.005  44.859  13.486
58433W        W19887  22.655  20.572  12.932
58434W        W19888  18.651  19.215  12.050
58435W        W19889  16.182  19.076  14.472
58436W        W19890   2.965  17.142  12.559
58437W        W19891  41.794  10.220   0.418
58438W        W19892  16.788  39.425  10.585
58439W        W19893  23.995  28.956  12.458
58440W        W19894  21.237  18.603   1.906
58441W        W19895  24.625   3.410  11.454
58442W        W19896   0.253  24.670   1.717
58443W        W19897  37.912  42.893  11.993
58444W        W19898  30.087  31.625  13.934
58445W        W19899  16.597  14.340  14.305
58446W        W19900  37.073   7.371   3.236
58447W        W19901   4.854  26.489  12.534
58448W        W19902  10.847  17.070   2.235
58449W        W19903  32.993  11.769   5.658
58450W        W19904   4.432  26.116  13.356
58451W        W19905  39.517  36.065   2.849
58452W        W19906   4.805  11.642  13.997
58453W        W19907  40.934  11.347  12.060
58454W        W19908  19.554  35.479  13.494
58455W        W19909  19.252  25.044  12.452
58456W        W19910  31.636  22.038  11.049
58457W        W19911  29.604  20.070   2.318
58458W        W19912   8.293  27.029  10.978
58459W        W19913  11.333  23.526  12.033
58460W        W19914  21.689  21.044  12.050
58461W        W19915  42.301   8.241  11.119
58462W        W19916  32.468  32.528  13.377
58463W        W19917  36.567   9.840  14.383
58464W        W19918  44.291  35.529   4.174
58465W        W19919   3.725  13.634  12.863
58466W        W19920  18.261  10.214  14.986
58467W        W19921  38.956  36.977   0.412
58468W        W19922  27.591   1.936   3.334
58469W        W19923  22.526  11.365  11.028
58470W        W19924   7.789  29.143  10.528
58471W        W19925  10.700  21.531   0.830
58472W        W19926  22.742  22.116  13.949
58473W        W19927  11.663  14.835   1.318
58474W        W19928  20.733   9.793   2.390
58475W        W19929  29.644  22.024  10.970
58476W        W19930  33.535   3.794  10.439
58477W        W19931  21.113  19.626  14.434
58478W        W19932  20.067  15.124   1.774
58479W        W19933   3.430  27.483  11.921
58480W        W19934  40.490  39.010   3.673
58481W        W19935  20.666  40.413   2.713
58482W        W19936  32.605   1.277  14.940
58483W        W19937  22.070  43.444   0.791
58484W        W19938  42.020  13.205   4.172
58485W        W19939  41.012  26.024  13.430
58486W        W19940   2.810  33.956   1.292
58487W        W19941  41.430   8.190   3.251
58488W        W19942   9.388  31.430   2.221
58489W        W19943  23.110   6.834   2.383
58490W        W19944  10.198  35.941   1.235
58491W        W19945  40.549  27.119   4.286
58492W        W19946  37.426   6.205   2.846
58493W        W19947  28.446   4.787   1.372
58494W        W19948  14.248  10.827   0.440
58495W        W19949  30.969  13.615   3.304
58496W        W19950   1.902  38.488   0.904
58497W        W19951  40.486  19.659   3.793
58498W        W19952  42.405  24.986  12.994
58499W        W19953  15.727  31.929   5.102
58500W        W19954  33.007  27.535   3.304
58501W        W19955  28.478  22.631  11.461
58502W        W19956  28.509  22.561   2.352
58503W        W19957  11.328  12.228   1.779
58504W        W19958   8.660  17.213   2.879
58505W        W19959   5.232  13.142   4.699
58506W        W19960  32.098  17.146   3.635
58507W        W19961  18.213  37.352   4.130
58508W        W19962  36.872  29.601   2.683
58509W        W19963  19.534  30.009  13.951
58510W        W19964  31.064  16.117  14.361
58511W        W19965  42.412  26.703  13.933
58512W        W19966  31.009  15.819   1.795
58513W        W19967  17.295  25.968  14.391
58514W        W19968  44.784  34.049  12.357
58515W        W19969  11.339  20.552   0.456
58516W        W19970   3.807  23.736   0.754
58517W        W19971  23.594   8.663  11.922
58518W        W19972  39.484  42.934   0.770
58519W        W19973  17.591  23.662  11.121
58520W        W19974   7.307  40.417  14.982
58521W        W19975   4.877  29.128  14.775
58522W        W19976  31.986  29.520  11.374
58523W        W19977  27.120  35.506  14.859
58524W        W19978   2.419  18.610  10.554
58525W        W19979   6.754  36.007   0.336
58526W        W19980  14.794   2.894   4.282
58527W        W19981  33.435  29.107  13.886
58528W        W19982  39.555  12.800   0.751
58529W        W19983  18.067  37.901   0.368
58530W        W19984   9.648  28.047  13.320
58531W        W19985  15.726   5.336  11.539
58532W        W19986  30.566  23.499   3.299
58533W        W19987  34.948  42.420   2.825
58534W        W19988   3.858   7.254  14.937
58535W        W19989   5.793  24.090   3.214
58536W        W19990  28.072  27.063   4.665
58537W        W19991  13.754  31.594   2.878
58538W        W19992  41.490  26.561   5.193
58539W        W19993  40.308  20.229   2.395
58540W        W19994  23.542  16.122   1.785
58541W        W19995  17.234   8.211   4.776
58542W        W19996  40.541  15.700   3.755
58543W        W19997  37.528   7.211  11.581
58544W        W19998  17.100   3.414   4.716
58545W        W19999   6.333  15.197  11.585
58546W        W20000  34.082   8.824   4.694
58547W        W20001   7.372  41.941   4.733
58548W        W20002  38.878  16.091   2.778
58549W        W20003  37.336  43.466  12.065
58550W        W20004  30.642  12.171   1.751
58551W        W20005  39.937  38.017   3.661
58552W        W20006   2.949  23.080  13.882
58553W        W20007  39.827  18.110   2.346
58554W        W20008  43.855  13.696  13.815
58555W        W20009  10.305  29.614  11.513
58556W        W20010  25.584  37.077   2.877
58557W        W20011  18.146  23.118   1.383
58558W        W20012  17.153   5.273   4.691
58559W        W20013  18.237  25.511  10.533
58560W        W20014  25.991  16.677   3.154
58561W        W20015   1.788  44.893  11.102
58562W        W20016  29.114  13.610   1.705
58563W        W20017  23.029  17.198   4.124
58564W        W20018  40.871  18.175   0.788
58565W        W20019   7.884  13.790  11.402
58566W        W20020  30.601  25.707   0.463
58567W        W20021   9.310  26.689  12.575
58568W        W20022  12.349  36.395   0.394
58569W        W20023   7.691  28.454   2.728
58570W        W20024  25.164  30.425  13.486
58571W        W20025  31.060   3.765  12.525
58572W        W20026  38.970  26.532   1.393
58573W        W20027  15.143  25.575   2.339
58574W        W20028  18.075  44.492   1.403
58575W        W20029  41.021  21.635   4.838
58576W        W20030  36.020  27.470   1.883
58577W        W20031  17.641  18.249  10.972
58578W        W20032  43.353  41.987  10.949
58579W        W20033  41.498  15.200  12.082
58580W        W20034   6.223  32.130  12.014
58581W        W20035  38.871  37.390  13.528
58582W        W20036   3.751   2.304   3.179
58583W        W20037  38.863  21.153   3.246
58584W        W20038   2.728  33.117   3.793
58585W        W20039  29.128  44.402  10.455
58586W        W20040   5.437  19.195  13.315
58587W        W20041  26.577  39.877  10.932
58588W        W20042   6.703   4.798  11.402
58589W        W20043  41.492  29.600   1.737
58590W        W20044  15.583  18.695  13.308
58591W        W20045  43.439  15.123   1.334
58592W        W20046   2.350   7.689  10.485
58593W        W20047   2.436  28.621  11.030
58594W        W20048  21.519  31.998  12.864
58595W        W20049  25.122   9.796   3.364
58596W        W20050  30.071   1.799  12.994
58597W        W20051  15.580  42.375  12.905
58598W        W20052  27.482  38.935   4.231
58599W        W20053   7.864  42.875  13.313
58600W        W20054  44.325  24.649   3.856
58601W        W20055  26.180  30.614  12.050
58602W        W20056  13.805  18.634  13.870
58603W        W20057   2.910  33.463  12.838
58604W        W20058   1.892   5.904   4.116
58605W        W20059  36.981  28.551   1.823
58606W        W20060  34.604   6.264   1.434
58607W        W20061   4.848  10.744  14.360
58608W        W20062  12.189  32.115  14.474
58609W        W20063  16.075   9.708  12.028
58610W        W20064  41.428  24.206   1.762
58611W        W20065  42.524   7.222   1.304
58612W        W20066  34.446  40.008   2.361
58613W        W20067  12.299  18.216   5.253
58614W        W20068   6.186  31.619  10.113
58615W        W20069  41.896  32.465  11.033
58616W        W20070  40.002  24.690  12.554
58617W        W20071  24.116   9.757  12.502
58618W        W20072  13.305  20.075   3.310
58619W        W20073   1.745   5.728   3.814
58620W        W20074  19.659  34.954  12.836
58621W        W20075  37.393  17.098  14.011
58622W        W20076  13.273  29.615   1.700
58623W        W20077   8.720   8.844   3.265
58624W        W20078   7.806   4.427   3.683
58625W        W20079   0.405  11.226   2.341
58626W        W20080  17.161  32.070   9.961
58627W        W20081   1.331   1.261   3.725
58628W        W20082  30.049  31.468  12.553
58629W        W20083   1.420  14.773  13.342
58630W        W20084   1.967  15.619  13.929
58631W        W20085  31.022  33.874   2.782
58632W        W20086  35.456  21.684  11.102
58633W        W20087  29.107  18.618   4.609
58634W        W20088  35.491  10.697  11.953
58635W        W20089   1.750  39.977  13.355
58636W        W20090  39.331  38.498  11.494
58637W        W20091  21.146   3.217   0.445
58638W        W20092  39.462  43.288   5.746
58639W        W20093  14.268  42.484  10.555
58640W        W20094   3.326  40.832   2.315
58641W        W20095   7.292  35.458   0.336
58642W        W20096   8.243  14.188  14.277
58643W        W20097  27.512  42.513   4.218
58644W        W20098  14.318  44.435   1.818
58645W        W20099   3.759  32.403  14.815
58646W        W20100  24.225  11.145   4.678
58647W        W20101   6.700  39.464   1.751
58648W        W20102  12.240  24.519   4.713
58649W        W20103  27.597  25.207   0.812
58650W        W20104  27.659  35.601  10.466
58651W        W20105  13.149  40.404  14.276
58652W        W20106  20.605   2.796   4.283
58653W        W20107  12.322  21.557   5.174
58654W        W20108  26.634  39.499  12.470
58655W        W20109  40.933  30.973  11.066
58656W        W20110  28.469  18.630   3.638
58657W        W20111  23.551  32.533  11.075
58658W        W20112   3.838  17.116  14.939
58659W        W20113  28.670  33.101  11.606
58660W        W20114  34.563  17.308   3.768
58661W        W20115  24.206   9.172  13.027
58662W        W20116  24.646  26.972   2.692
58663W        W20117  44.842  32.587  13.877
58664W        W20118   5.886  39.849   0.359
58665W        W20119  33.508  10.703   0.771
58666W        W20120  30.935   9.844   3.855
58667W        W20121  27.185  41.040  13.538
58668W        W20122  39.347  17.664   1.261
58669W        W20123  30.465  37.434  13.540
58670W        W20124  14.693  43.509   9.626
58671W        W20125  13.776   4.360   4.767
58672W        W20126   3.289  12.763   3.837
58673W        W20127   3.911   1.353  11.520
58674W        W20128   1.828  20.745   0.826
58675W        W20129  26.133   0.889   4.170
58676W        W20130  10.820  20.712   3.814
58677W        W20131   3.424   3.305  14.976
58678W        W20132  28.581  26.014   4.262
58679W        W20133  41.858   9.880   4.132
58680W        W20134  16.140  44.885  11.544
58681W        W20135  18.604  38.569   2.248
58682W        W20136  26.539  18.126  13.003
58683W        W20137  29.554  18.226  11.926
58684W        W20138   1.348  11.794   4.199
58685W        W20139  33.970  25.170  13.485
58686W        W20140  44.472  27.157  13.027
58687W        W20141  34.602  25.638   4.287
58688W        W20142  30.585  10.209  10.621
58689W        W20143  35.033  14.095   1.271
58690W        W20144  11.249  17.578   0.426
58691W        W20145  32.063  13.649   2.394
58692W        W20146  26.656  16.256  11.891
58693W        W20147  23.212  12.213   2.329
58694W        W20148  32.637  40.986   0.300
58695W        W20149  36.568   5.775  13.326
58696W        W20150  27.530  10.141  10.456
58697W        W20151  21.187   3.371  10.515
58698W        W20152  10.188   5.405   2.280
58699W        W20153  31.483   3.228  11.538
58700W        W20154  13.338  44.894   4.229
58701W        W20155  36.061  34.910   3.345
58702W        W20156  26.463  26.181  11.527
58703W        W20157   7.415  42.336   3.386
58704W        W20158   6.219  41.026  14.334
58705W        W20159  43.359  40.926  11.404
58706W        W20160  32.965  19.776   0.364
58707W        W20161  16.659  20.118  14.431
58708W        W20162   4.779  42.986   0.946
58709W        W20163  33.550  38.417   3.196
58710W        W20164  42.417  33.554  11.904
58711W        W20165  40.034  13.653   2.731
58712W        W20166  17.074  38.372   9.937
58713W        W20167   0.877  14.606   1.867
58714W        W20168   9.694  11.710  14.913
58715W        W20169   2.907  23.671   2.345
58716W        W20170  39.547  34.920   3.756
58717W        W20171  24.092  22.669   0.941
58718W        W20172   3.797   6.733   2.696
58719W        W20173  23.235  34.082  12.036
58720W        W20174   8.833  22.513  11.083
58721W        W20175  23.580  19.763   3.859
58722W        W20176  22.675  21.607  10.996
58723W        W20177  15.202   5.866  12.828
58724W        W20178  24.217   1.278   3.176
58725W        W20179  41.436  22.654  14.957
58726W        W20180   5.410  21.669   1.910
58727W        W20181  43.912  36.979   1.273
58728W        W20182  10.770  25.507   2.355
58729W        W20183   5.436  27.066   0.918
58730W        W20184  29.933   3.402   4.237
58731W        W20185  28.990  38.411  11.040
58732W        W20186  25.029   1.763   2.689
58733W        W20187  32.097   8.372  10.525
58734W        W20188  33.126  44.349   2.758
58735W        W20189  20.691  14.145   0.794
58736W        W20190  24.612  21.670   3.753
58737W        W20191  15.787  43.279   1.215
58738W        W20192  40.521  40.482  14.851
58739W        W20193  14.212   0.899  12.400
58740W        W20194  27.623  14.596  10.599
58741W        W20195  18.734  16.772  12.095
58742W        W20196   1.754  42.341   1.228
58743W        W20197   1.340  13.350  12.573
58744W        W20198  25.050  28.018   5.234
58745W        W20199  19.710  11.722  11.882
58746W        W20200   3.866  19.054   3.285
58747W        W20201  39.365   2.899   1.408
58748W        W20202   7.810  10.351   4.838
58749W        W20203  36.464  32.476  11.057
58750W        W20204  42.285  30.074   1.867
58751W        W20205   1.264   7.226   0.730
58752W        W20206   9.814   7.866   2.750
58753W        W20207  33.069  21.544  14.819
58754W        W20208  32.629  11.696   0.772
58755W        W20209  27.677  36.424   4.195
58756W        W20210  37.049  23.155  12.413
58757W        W20211  32.116   0.853  11.501
58758W        W20212  16.643  13.211   0.440
58759W        W20213  34.605  23.221  12.964
58760W        W20214   6.823   0.335  12.984
58761W        W20215  11.854  38.538   1.316
58762W        W20216  39.347  23.043   2.841
58763W        W20217  44.005  39.337   4.147
58764W        W20218  14.795   1.794  13.316
58765W        W20219  22.118  43.943  10.472
58766W        W20220  30.644  43.869   4.607
58767W        W20221   8.797  44.334   3.231
58768W        W20222  34.868  22.698   1.909
58769W        W20223  41.400  40.821  11.956
58770W        W20224  30.950   6.833   1.435
58771W        W20225  11.651  18.079   0.875
58772W        W20226  22.246  24.582  11.438
58773W        W20227  36.939  23.681  13.385
58774W        W20228   4.285  38.476   0.431
58775W        W20229  30.502  38.378  14.837
58776W        W20230  42.438  11.798   3.267
58777W        W20231  11.254  11.830   3.303
58778W        W20232   9.740  25.545   3.240
58779W        W20233   9.647  19.048  13.902
58780W        W20234   3.306  27.122  12.565
58781W        W20235  34.077   2.738   2.393
58782W        W20236   7.784  40.371   1.907
58783W        W20237  31.055   9.289  11.611
58784W        W20238  44.934   0.313   2.233
58785W        W20239  32.980  13.735   4.705
58786W        W20240  23.676   2.379  14.488
58787W        W20241  12.674  26.190   3.694
58788W        W20242   5.825   5.829   4.308
58789W        W20243   9.202  26.562   0.247
58790W        W20244  15.612  37.066   2.739
58791W        W20245   2.313   5.288  12.464
58792W        W20246  17.568  27.625  12.058
58793W        W20247  21.565  42.959   3.289
58794W        W20248  36.087  32.467  11.471
58795W        W20249  43.409   8.833  12.397
58796W        W20250  38.853  44.924  12.911
58797W        W20251  25.682   1.393   3.735
58798W        W20252  10.275  17.065  10.568
58799W        W20253  33.622   5.389   1.918
58800W        W20254   9.700  15.245  13.858
58801W        W20255   4.913  35.409  13.957
58802W        W20256  29.656  15.148   1.924
58803W        W20257   3.784  19.615   0.763
58804W        W20258  25.042  36.849  11.467
58805W        W20259  10.338   4.867  10.523
58806W        W20260  23.998  33.594  11.116
58807W        W20261  23.080  32.415  14.768
58808W        W20262   5.332  14.270  13.052
58809W        W20263  33.914  13.327  11.467
58810W        W20264   7.835  25.633   4.285
58811W        W20265  28.607   5.903   5.200
58812W        W20266  11.373  19.240  12.576
58813W        W20267   5.817  37.836   4.717
58814W        W20268  33.072   4.708  13.850
58815W        W20269  36.353  39.471   3.199
58816W        W20270  27.638  41.427   3.715
58817W        W20271  13.662  30.450   0.939
58818W        W20272  25.011   1.938  11.963
58819W        W20273  29.587  33.099   2.701
58820W        W20274  16.089  36.566   3.794
58821W        W20275  10.268  41.825  12.945
58822W        W20276  38.516   0.436   2.733
58823W        W20277  12.767  38.431  13.318
58824W        W20278  31.417  37.924   1.928
58825W        W20279  27.963  15.726  10.073
58826W        W20280  37.397  26.483   5.289
58827W        W20281  23.561  25.675   4.266
58828W        W20282  34.461  22.014  10.989
58829W        W20283   5.885  43.880  11.389
58830W        W20284  35.488  32.396  14.496
58831W        W20285  29.485  21.197  11.947
58832W        W20286  32.121  33.082   2.237
58833W        W20287   3.422  39.359   3.260
58834W        W20288   8.660  42.333   0.458
58835W        W20289  41.504  21.609  10.992
58836W        W20290  27.689  11.775   3.345
58837W        W20291  22.171   6.919   0.365
58838W        W20292  32.066  36.864  14.858
58839W        W20293  23.593  43.945  12.079
58840W        W20294  43.954  10.712   4.349
58841W        W20295   8.168  40.436   2.335
58842W        W20296   8.814  10.738   4.275
58843W        W20297  29.541   2.938  12.445
58844W        W20298  15.319  32.993   2.812
58845W        W20299  12.808  42.398   0.887
58846W        W20300  19.742  41.343  10.414
58847W        W20301  24.508   0.774  12.413
58848W        W20302  12.786  32.586   0.408
58849W        W20303  16.280  21.149   1.235
58850W        W20304   4.334  13.787   0.307
58851W        W20305  27.505  32.497   3.867
58852W        W20306   6.771  31.101  11.516
58853W        W20307  32.565  41.523  10.610
58854W        W20308  44.378  18.120   1.271
58855W        W20309  14.811  44.412   2.757
58856W        W20310   5.837  33.941   2.807
58857W        W20311  23.649  41.002   4.158
58858W        W20312  33.400  44.784  13.526
58859W        W20313   2.864  17.704  14.430
58860W        W20314  44.381  33.989   2.791
58861W        W20315   0.840   6.221   2.297
58862W        W20316  39.980  17.215  11.129
58863W        W20317  11.327  42.363  10.557
58864W        W20318  23.179   3.256   4.784
58865W        W20319  40.325  43.017   1.699
58866W        W20320  15.186   6.678   2.289
58867W        W20321  30.032   9.867  13.898
58868W        W20322  16.580  43.484   1.796
58869W        W20323  39.964  22.689   1.403
58870W        W20324  29.987  38.959  12.578
58871W        W20325  15.159  10.286  10.537
58872W        W20326   7.807  38.931  12.989
58873W        W20327  26.566   5.887  12.916
58874W        W20328  12.318  17.256   2.209
58875W        W20329  40.448  14.207   2.713
58876W        W20330  32.544   4.770   2.823
58877W        W20331  16.117  17.740   2.752
58878W        W20332   1.454   5.718  13.845
58879W        W20333  18.126  37.045  11.050
58880W        W20334  33.506  25.632  13.024
58881W        W20335   7.716  37.426  10.540
58882W        W20336  32.939  39.830   2.187
58883W        W20337  37.011  44.900  10.602
58884W        W20338  40.495  17.573   2.817
58885W        W20339  28.481   2.371  13.528
58886W        W20340  26.593  11.816   1.841
58887W        W20341  13.277  18.605  11.523
58888W        W20342  10.224  44.945  10.478
58889W        W20343   3.745  18.297  14.353
58890W        W20344  30.651  30.481  12.564
58891W        W20345  13.277  24.204  10.538
58892W        W20346  44.293  10.299  12.343
58893W        W20347   5.201  33.450  13.536
58894W        W20348  16.299  36.882   4.283
58895W        W20349  36.422  21.231   1.779
58896W        W20350  24.671  36.374  14.417
58897W        W20351  15.086  28.182  12.941
58898W        W20352  32.941   1.739  12.578
58899W        W20353  11.630  42.890   3.653
58900W        W20354  24.626  21.203   3.174
58901W        W20355  25.548   7.737  11.545
58902W        W20356  33.130   6.260   1.802
58903W        W20357  34.994   0.837   2.870
58904W        W20358  42.005   6.731  11.919
58905W        W20359  38.002   1.802  11.022
58906W        W20360  13.803  34.077  12.526
58907W        W20361  42.817  35.028   2.797
58908W        W20362   0.845   1.385   3.779
58909W        W20363  19.653   6.246   4.751
58910W        W20364  38.351  31.920  10.431
58911W        W20365  22.068   2.895  13.503
58912W        W20366   3.259  34.421  10.909
58913W        W20367  42.815  39.430   2.305
58914W        W20368  25.689  20.146  14.347
58915W        W20369  37.455  17.662   4.646
58916W        W20370  22.708  21.655   4.623
58917W        W20371  22.203  28.085  13.947
58918W        W20372  28.604   8.304  13.356
58919W        W20373  25.620  32.478  13.800
58920W        W20374  32.429   6.825  13.860
58921W        W20375   5.846   1.878   3.834
58922W        W20376  24.562  19.128   3.197
58923W        W20377  38.924   6.733   3.263
58924W        W20378  39.047  32.413  14.825
58925W        W20379  23.017  16.775  11.122
58926W        W20380  40.433  16.678  12.495
58927W        W20381   2.373   8.791   1.909
58928W        W20382  43.323  38.834  11.523
58929W        W20383  22.538  38.072   3.251
58930W        W20384  22.613   0.443  14.378
58931W        W20385  39.443  34.044  12.449
58932W        W20386  18.250  33.617   4.209
58933W        W20387  40.977   1.311  14.316
58934W        W20388  40.999  18.295   4.735
58935W        W20389  37.864  40.354  12.964
58936W        W20390  29.934  21.716   2.711
58937W        W20391  26.494  30.474   0.305
58938W        W20392  23.216   8.249   1.251
58939W        W20393  22.085   5.284  12.961
58940W        W20394  29.951  38.881  11.596
58941W        W20395  30.073  28.510  14.972
58942W        W20396  21.035   4.387   0.374
58943W        W20397  21.105  32.449  13.458
58944W        W20398  18.165  31.474  13.348
58945W        W20399   6.415  27.111   2.403
58946W        W20400   1.826  31.596   4.735
58947W        W20401  12.699  22.591   5.149
58948W        W20402  23.690  33.598   2.715
58949W        W20403   2.748  13.271   2.897
58950W        W20404  41.926   9.298   1.269
58951W        W20405  10.690  43.963  14.493
58952W        W20406  38.832   2.842   4.244
58953W        W20407  30.118  41.525   0.292
58954W        W20408  28.488  42.928   4.635
58955W        W20409   0.786  29.518  10.039
58956W        W20410   7.710   6.372   5.088
58957W        W20411  14.657  36.409  14.304
58958W        W20412  38.457  31.441   2.230
58959W        W20413  12.825  35.907  14.425
58960W        W20414  18.597  23.163   2.677
58961W        W20415  10.660  17.748  11.905
58962W        W20416   3.412  17.598   2.844
58963W        W20417  39.005  22.075   2.417
58964W        W20418  22.666   5.888  12.478
58965W        W20419  12.850  14.123  12.453
58966W        W20420  42.859  24.996   4.716
58967W        W20421  42.805  18.593  14.424
58968W        W20422   4.437  43.992   4.610
58969W        W20423   5.796   7.238  11.024
58970W        W20424  26.614  36.000   4.343
58971W        W20425   5.292  31.116   2.898
58972W        W20426  38.465  13.685   2.736
58973W        W20427  13.608  35.432   0.356
58974W        W20428  28.627   2.353   3.790
58975W        W20429   1.775   0.338  10.971
58976W        W20430  41.509  28.449  14.845
58977W        W20431  14.203   2.745  11.575
58978W        W20432  16.072  29.939   3.190
58979W        W20433  12.233  12.295   0.460
58980W        W20434   0.958  10.285  13.879
58981W        W20435  15.767   2.453  12.375
58982W        W20436  21.636   1.260   4.723
58983W        W20437  21.699   1.796  11.418
58984W        W20438  37.561  20.037   4.708
58985W        W20439  35.081  26.165  12.540
58986W        W20440   1.768  19.224   2.320
58987W        W20441  11.627  36.449   1.310
58988W        W20442  12.227   0.771   3.170
58989W        W20443   4.266  19.705  10.626
58990W        W20444  25.666   2.766  12.491
58991W        W20445  29.088  43.513   4.144
58992W        W20446  28.456  31.131   3.268
58993W        W20447  38.855  36.542   1.756
58994W        W20448   7.862  19.606  11.430
58995W        W20449  21.649   8.770   3.721
58996W        W20450   1.782  17.660   0.385
58997W        W20451  43.424  22.023   1.822
58998W        W20452   0.761   8.183  11.599
58999W        W20453  12.789   7.374  13.948
59000W        W20454   5.830  27.152  13.991
59001W        W20455  34.459  31.151   1.871
59002W        W20456  36.403  16.186  13.476
59003W        W20457  30.623   5.770  10.580
59004W        W20458  19.246  17.567   2.300
59005W        W20459   4.377  27.666   3.354
59006W        W20460   1.476  32.098   2.760
59007W        W20461  41.923  36.352  11.510
59008W        W20462  36.937  21.207   2.896
59009W        W20463  29.073   0.468   0.875
59010W        W20464  44.798  25.086   1.437
59011W        W20465  18.133  23.223   2.696
59012W        W20466  39.551   4.401   2.206
59013W        W20467  28.967  25.094   3.792
59014W        W20468  40.454  24.109   2.674
59015W        W20469  31.494  15.664   3.361
59016W        W20470  29.174   1.780  11.428
59017W        W20471  44.355   4.231  13.479
59018W        W20472  24.691  18.272   3.274
59019W        W20473   9.806  12.794   2.248
59020W        W20474  18.639  23.992  11.434
59021W        W20475  39.998   9.831   4.297
59022W        W20476  18.094   1.847   4.718
59023W        W20477  29.623  15.158   4.692
59024W        W20478  33.086  18.270  11.538
59025W        W20479  17.570   2.857   1.816
59026W        W20480  23.674   3.417  12.366
59027W        W20481  18.279   2.792  12.477
59028W        W20482  27.560   9.704  11.069
59029W        W20483  28.137  39.837  13.455
59030W        W20484   7.300   5.762  10.919
59031W        W20485  11.850  18.590  13.316
59032W        W20486  18.700  38.994  13.002
59033W        W20487  28.640  22.060   2.308
59034W        W20488  17.294   2.376  14.431
59035W        W20489  11.293   4.374  13.428
59036W        W20490   0.465  37.917  12.358
59037W        W20491   2.238  20.727  12.891
59038W        W20492  28.498  31.918   3.720
59039W        W20493  34.942  13.118  12.046
59040W        W20494  43.332  28.579  13.814
59041W        W20495  38.467   9.345  14.833
59042W        W20496   2.830   1.310   3.235
59043W        W20497  35.874  29.947   4.166
59044W        W20498  35.593   3.317  13.850
59045W        W20499  43.859  18.106  10.984
59046W        W20500  20.065  36.399   1.327
59047W        W20501  20.242  34.079  14.495
59048W        W20502   6.769  44.996   3.307
59049W        W20503  39.465  11.856  14.840
59050W        W20504   9.871   5.411  11.061
59051W        W20505  28.662  21.734  14.008
59052W        W20506  31.470  23.231  10.963
59053W        W20507  15.285   1.744   0.393
59054W        W20508  39.454  30.551   0.825
59055W        W20509  35.487  10.758  14.457
59056W        W20510  32.009  21.663  11.600
59057W        W20511  28.085  10.270  11.881
59058W        W20512   5.717  12.314  11.048
59059W        W20513  22.221  22.097   1.817
59060W        W20514  18.195   4.800   4.261
59061W        W20515  15.803   5.813  11.957
59062W        W20516   4.334   2.728  12.882
59063W        W20517  36.986  18.616  10.568
59064W        W20518  43.282  24.145   3.737
59065W        W20519   6.405  23.155  14.780
59066W        W20520  23.699  17.113   3.714
59067W        W20521  11.256  29.956   2.387
59068W        W20522   0.819  33.624   0.360
59069W        W20523  13.266  33.889  13.958
59070W        W20524  26.102   4.231  11.953
59071W        W20525  13.609  15.083   0.727
59072W        W20526  18.588  31.595   3.280
59073W        W20527  22.707  42.481  11.123
59074W        W20528   3.842   3.833  14.765
59075W        W20529  41.917  19.194   1.894
59076W        W20530  26.578  32.569  13.392
59077W        W20531  19.095  21.708   1.895
59078W        W20532  35.399  10.819   2.811
59079W        W20533  16.697  23.693  14.911
59080W        W20534   7.404  18.660   1.402
59081W        W20535  11.771  22.184   2.723
59082W        W20536   8.764  37.376  14.306
59083W        W20537  23.106  24.552   4.225
59084W        W20538   0.933  15.217   3.339
59085W        W20539  29.980   3.264  13.862
59086W        W20540  18.623  30.111  13.308
59087W        W20541  35.094  29.158  13.843
59088W        W20542  32.031   2.920  11.995
59089W        W20543  17.744  35.027  14.399
59090W        W20544  30.478  26.527  14.313
59091W        W20545  37.886  37.016   0.431
59092W        W20546  29.028  26.119   9.653
59093W        W20547   8.705   7.862  11.975
59094W        W20548  35.049  13.256  11.076
59095W        W20549  13.157  17.674   3.170
59096W        W20550   0.852  29.029   0.750
59097W        W20551  11.323  23.610   1.356
59098W        W20552  27.133  39.893   4.700
59099W        W20553  34.006  27.454  10.562
59100W        W20554  19.108  24.120   4.815
59101W        W20555  18.566  15.272  12.500
59102W        W20556  32.084  16.791   2.761
59103W        W20557   0.386  39.863  14.493
59104W        W20558  24.084   1.260  12.525
59105W        W20559  31.551   7.780  12.448
59106W        W20560  36.350  11.841  14.991
59107W        W20561  38.914  33.920  11.585
59108W        W20562  25.700   6.387  12.988
59109W        W20563  11.651  30.638  11.050
59110W        W20564   3.339  33.046   1.247
59111W        W20565  27.456  37.985   1.844
59112W        W20566  26.651  32.541  10.044
59113W        W20567  33.432   9.309  12.373
59114W        W20568  29.088  17.741   1.909
59115W        W20569  36.978   2.249  14.854
59116W        W20570   8.767  30.557   9.656
59117W        W20571  16.310   9.876  10.607
59118W        W20572  32.458  37.949  12.989
59119W        W20573  26.191   9.258  10.943
59120W        W20574  31.588  28.945   0.770
59121W        W20575  36.552  22.532  13.521
59122W        W20576  30.931   7.412  14.898
59123W        W20577  27.601  35.583   2.890
59124W        W20578  21.579  13.170   1.754
59125W        W20579   0.762  40.394   2.808
59126W        W20580  23.203   5.403  11.548
59127W        W20581  39.557  12.307  10.597
59128W        W20582  14.160  37.368   4.158
59129W        W20583  16.298   9.253  13.458
59130W        W20584   4.217   4.903  12.577
59131W        W20585  22.596  29.159  12.930
59132W        W20586  15.306  10.751  12.994
59133W        W20587  28.487  35.426  10.486
59134W        W20588  28.954   7.324  11.111
59135W        W20589  42.808  12.618  12.915
59136W        W20590   0.260  40.399  14.843
59137W        W20591   3.728   6.373  14.795
59138W        W20592  19.147   6.372   0.922
59139W        W20593  21.716  26.497   2.333
59140W        W20594  37.373  23.189  12.845
59141W        W20595   6.425  18.790  11.049
59142W        W20596  40.526  33.956   1.712
59143W        W20597  23.595  29.107  13.395
59144W        W20598   1.406  33.485  13.063
59145W        W20599  23.645  31.136  13.381
59146W        W20600   8.671  11.212  14.360
59147W        W20601  23.672  37.518   0.817
59148W        W20602  43.991   9.814   2.369
59149W        W20603  40.011  14.242  11.566
59150W        W20604   7.793  11.173   2.758
59151W        W20605  12.649  37.082   3.710
59152W        W20606  28.021  39.477  11.089
59153W        W20607  19.731  28.626  11.992
59154W        W20608  28.124  28.435   0.267
59155W        W20609  24.556  18.670   4.718
59156W        W20610   6.683  13.757  12.861
59157W        W20611  41.386  13.133   2.357
59158W        W20612  10.822  14.320   2.202
59159W        W20613  22.145   3.943  13.873
59160W        W20614  17.715  41.805  13.969
59161W        W20615  22.712  37.087  12.403
59162W        W20616  10.767  18.607   3.195
59163W        W20617  29.604  18.604   1.279
59164W        W20618   3.253   4.926  10.417
59165W        W20619  43.428   0.356   0.952
59166W        W20620  34.373  37.961   4.714
59167W        W20621  30.529   1.861  11.066
59168W        W20622   3.225  24.670   4.835
59169W        W20623  31.926  32.629   1.927
59170W        W20624  28.538  11.305   4.236
59171W        W20625   2.847  10.147  14.478
59172W        W20626  17.272  40.832   3.768
59173W        W20627  30.009  12.174   2.861
59174W        W20628   9.232   4.364  11.083
59175W        W20629  32.520  14.600  14.914
59176W        W20630  42.960  19.594   1.935
59177W        W20631  10.311  36.967   0.268
59178W        W20632  42.510  14.719  11.865
59179W        W20633  11.672  16.163   2.205
59180W        W20634  15.660  44.393   1.287
59181W        W20635   2.454  27.528  11.114
59182W        W20636  21.624  17.722   4.678
59183W        W20637   6.694  18.675   1.449
59184W        W20638   5.259  39.555   1.242
59185W        W20639  33.037  38.853   3.180
59186W        W20640  17.703  15.181  14.008
59187W        W20641  20.739   8.805  12.843
59188W        W20642  38.393  20.766   4.653
59189W        W20643  38.374   4.801   2.363
59190W        W20644   4.349  32.495  11.072
59191W        W20645  13.331   9.875   3.790
59192W        W20646   4.315  37.933  13.523
59193W        W20647  26.554   3.879  14.951
59194W        W20648  39.044  10.158   2.255
59195W        W20649  44.769  42.451   1.385
59196W        W20650  40.433  41.473  11.111
59197W        W20651  18.185  18.190  13.435
59198W        W20652   8.887  16.657  12.872
59199W        W20653  27.634  20.059   1.695
59200W        W20654  29.948  12.812   2.885
59201W        W20655   1.482  38.449   0.776
59202W        W20656  36.499  18.189   4.747
59203W        W20657  30.140  21.545  11.607
59204W        W20658  17.259   6.425   3.760
59205W        W20659  31.605  19.624  13.011
59206W        W20660   2.240  33.062   3.271
59207W        W20661  41.459  13.251  12.005
59208W        W20662  24.062  27.593  13.408
59209W        W20663  16.672  30.084  13.342
59210W        W20664   9.796  28.987   4.804
59211W        W20665  26.678  12.347   3.773
59212W        W20666  21.132  29.623  10.906
59213W        W20667   7.227  25.997  11.006
59214W        W20668   0.445  14.282   0.929
59215W        W20669  25.060   1.363   1.404
59216W        W20670  37.508  38.478   4.698
59217W        W20671  18.132  17.571   1.798
59218W        W20672  11.266  20.094   1.926
59219W        W20673  32.573  26.671   0.255
59220W        W20674  29.928   9.291   0.763
59221W        W20675  15.136  29.981   3.335
59222W        W20676  16.598   6.694   0.737
59223W        W20677   5.357  20.152  13.502
59224W        W20678   2.230  16.636   3.307
59225W        W20679  19.707  13.751  14.866
59226W        W20680  28.661  25.536  14.364
59227W        W20681  38.021  33.933  11.586
59228W        W20682  44.273  16.698   4.776
59229W        W20683   7.219  11.210  10.474
59230W        W20684  34.867  16.613  10.130
59231W        W20685  38.902  44.850  12.387
59232W        W20686  25.015  43.778   2.710
59233W        W20687  43.978  29.528   3.353
59234W        W20688  44.793  37.442  13.401
59235W        W20689  12.838  43.910  13.912
59236W        W20690  40.831  44.982   2.333
59237W        W20691  41.401  21.553   2.269
59238W        W20692  28.068  16.212  12.375
59239W        W20693   1.876   0.746  12.548
59240W        W20694  16.807  14.760   5.208
59241W        W20695  14.763  10.733   4.117
59242W        W20696  40.838  20.642   3.862
59243W        W20697  13.648  25.196  10.515
59244W        W20698  43.434  34.943  14.488
59245W        W20699  25.101  40.432  13.370
59246W        W20700  44.849   3.799   0.955
59247W        W20701   8.258  25.115   4.723
59248W        W20702  35.011  23.714   2.322
59249W        W20703  26.169  35.456  14.327
59250W        W20704  35.039  42.485   3.777
59251W        W20705  42.920  12.307  14.309
59252W        W20706   3.410  11.692   4.810
59253W        W20707   8.684   4.255  12.955
59254W        W20708  41.943   4.209   3.834
59255W        W20709  18.661  37.907   1.305
59256W        W20710  42.814  24.517  12.839
59257W        W20711   4.932   7.826   3.329
59258W        W20712  28.657  10.160  12.503
59259W        W20713  39.492  40.341  11.860
59260W        W20714  25.135  18.247   3.812
59261W        W20715   8.689  30.435   3.253
59262W        W20716  23.597   8.717   2.259
59263W        W20717  34.522  13.309   5.294
59264W        W20718  12.170   9.203  12.405
59265W        W20719   8.802  37.442   0.297
59266W        W20720  43.983  35.426  10.977
59267W        W20721  30.995  13.157   9.596
59268W        W20722  34.096  14.235   0.343
59269W        W20723  27.943  27.000   0.409
59270W        W20724  36.097  36.020   2.226
59271W        W20725  24.106  44.991   0.275
59272W        W20726  26.153   1.428   0.844
59273W        W20727   5.738  14.146   4.670
59274W        W20728  34.907  37.894  14.329
59275W        W20729  25.174  41.034  10.637
59276W        W20730   6.818  40.375  12.370
59277W        W20731  26.642   5.896  11.905
59278W        W20732  40.479   2.305  12.443
59279W        W20733  14.591   3.953   4.771
59280W        W20734  16.586  39.947   0.277
59281W        W20735   9.346   4.207   2.313
59282W        W20736   8.832  22.532   4.153
59283W        W20737   4.355  43.435   2.402
59284W        W20738  39.389  17.200   1.935
59285W        W20739  11.767  17.578   5.255
59286W        W20740  30.636  24.535   2.805
59287W        W20741  30.616  38.527   3.767
59288W        W20742   4.887  33.922   4.209
59289W        W20743   2.746   2.864   3.727
59290W        W20744  12.346  14.727   1.227
59291W        W20745   9.864  25.994   2.858
59292W        W20746  36.436   8.705  10.942
59293W        W20747  35.853   6.388   5.113
59294W        W20748  14.261  13.140  10.598
59295W        W20749  20.229  40.998   0.476
59296W        W20750  25.654   6.386   0.915
59297W        W20751  44.769   3.773  13.398
59298W        W20752  41.964  44.384  13.474
59299W        W20753  28.993  12.757   0.242
59300W        W20754  31.153   1.300  10.973
59301W        W20755  34.046  31.062  14.982
59302W        W20756  43.870  40.979   0.253
59303W        W20757  29.444  12.734   4.303
59304W        W20758  10.686  30.977  12.853
59305W        W20759  43.980  11.347   2.895
59306W        W20760  18.757   1.424   0.259
59307W        W20761  33.514   5.715   0.356
59308W        W20762  44.903  43.436   0.935
59309W        W20763  24.143  43.794   0.256
59310W        W20764  39.395   4.901  11.510
59311W        W20765  31.900   3.840  14.482
59312W        W20766  22.187  15.112   1.747
59313W        W20767  15.258  17.802   4.762
59314W        W20768  25.580  33.021  14.379
59315W        W20769  29.152  19.058  12.342
59316W        W20770  43.886   8.401  14.874
59317W        W20771  19.749  38.564   3.371
59318W        W20772  22.623   3.904   4.676
59319W        W20773  34.519  25.065   2.374
59320W        W20774  32.998  18.093   4.137
59321W        W20775  21.152  24.129  13.359
59322W        W20776  24.006  39.989   4.136
59323W        W20777  20.603  12.638   1.422
59324W        W20778  25.589   4.730   1.305
59325W        W20779  16.608  16.248  10.450
59326W        W20780   3.423  32.473   2.182
59327W        W20781   2.373   7.316  12.513
59328W        W20782   3.234  18.057   1.795
59329W        W20783  40.406  10.825  14.006
59330W        W20784  28.037   9.178  13.528
59331W        W20785   3.442  42.351   4.244
59332W        W20786   1.917   3.307   2.677
59333W        W20787  31.051  23.517  12.960
59334W        W20788   8.268  28.494   4.742
59335W        W20789  33.024  21.063   3.181
59336W        W20790   6.686  27.056  11.388
59337W        W20791  11.677  35.568  14.443
59338W        W20792   5.375   6.287   2.272
59339W        W20793  29.124  40.415  13.497
59340W        W20794  21.108  15.188   0.779
59341W        W20795   3.867   7.248   4.616
59342W        W20796   2.746  43.869  14.991
59343W        W20797  41.483   5.279  14.906
59344W        W20798  16.293   2.283  12.070
59345W        W20799   1.483  21.625  12.424
59346W        W20800  26.985  40.049   1.237
59347W        W20801   0.335  15.218  11.419
59348W        W20802  28.099  13.236   0.366
59349W        W20803  43.438   8.197   2.409
59350W        W20804   9.253  32.525  11.005
59351W        W20805   4.789  41.822   3.764
59352W        W20806  44.755  33.482  11.548
59353W        W20807  18.106  16.593   0.360
59354W        W20808  12.162  15.660   1.242
59355W        W20809  19.711  40.478  11.909
59356W        W20810  25.136  27.446  11.886
59357W        W20811   7.176  30.509   4.180
59358W        W20812  15.319  27.548   2.253
59359W        W20813  10.146  17.799   4.258
59360W        W20814  40.034  43.877   1.415
59361W        W20815  15.126  21.533  13.049
59362W        W20816  13.242  17.758  10.902
59363W        W20817  44.375  17.210  14.984
59364W        W20818  16.083  41.450   1.434
59365W        W20819  25.488  20.539   1.302
59366W        W20820  15.104  26.466  12.369
59367W        W20821  34.059  13.241  11.910
59368W        W20822  36.531  30.478  14.978
59369W        W20823  31.045  40.532  11.437
59370W        W20824  28.480  30.931   5.103
59371W        W20825  38.382   7.807  12.359
59372W        W20826  43.351  41.937  14.841
59373W        W20827  18.276  22.543  11.998
59374W        W20828  15.600  42.920   0.839
59375W        W20829   9.343  26.072  13.834
59376W        W20830  17.300  39.060   3.197
59377W        W20831  33.973  31.997   2.898
59378W        W20832  44.848  16.578   4.346
59379W        W20833  29.108  20.125  13.400
59380W        W20834   2.436  28.435  13.865
59381W        W20835  23.612  36.499  14.293
59382W        W20836  41.393  10.851   4.292
59383W        W20837  18.233  12.845   4.349
59384W        W20838  26.636   0.360  14.843
59385W        W20839  13.715  43.847   0.430
59386W        W20840  36.415  28.164   1.775
59387W        W20841   5.854  27.565   4.273
59388W        W20842  40.015  16.094   2.883
59389W        W20843  21.568   3.423   1.262
59390W        W20844  38.497   0.830   1.403
59391W        W20845  43.823  43.990  11.890
59392W        W20846  15.239   6.754   4.792
59393W        W20847  38.509  43.450   2.345
59394W        W20848   3.270  32.449  13.910
59395W        W20849  18.057   4.711  14.902
59396W        W20850  34.980  39.457  14.854
59397W        W20851   6.789  37.573   1.709
59398W        W20852  36.090  34.036   1.885
59399W        W20853   1.394  16.150   0.852
59400W        W20854  38.929   3.264   4.737
59401W        W20855  38.950  33.402   1.735
59402W        W20856  22.043  32.029  14.423
59403W        W20857   4.404  33.402  11.931
59404W        W20858  35.005   0.979   4.697
59405W        W20859  37.948  30.515   0.397
59406W        W20860  20.553  44.383  10.599
59407W        W20861   7.171  31.009   2.223
59408W        W20862  32.951   6.802  10.949
59409W        W20863  37.930  44.856   2.304
59410W        W20864  16.705  42.017   0.860
59411W        W20865  43.956   7.379   3.270
59412W        W20866  30.030  36.850   4.670
59413W        W20867  36.854  18.562  11.488
59414W        W20868  18.755  41.808   1.380
59415W        W20869  21.726   8.333  11.590
59416W        W20870  41.429  29.440   0.281
59417W        W20871  22.716  15.154   3.248
59418W        W20872  36.550  32.587  13.829
59419W        W20873  25.620  26.597  14.324
59420W        W20874  39.854  38.417  12.034
59421W        W20875  42.781  18.059   3.757
59422W        W20876   6.211   2.345   1.445
59423W        W20877  30.076   6.724   4.781
59424W        W20878  19.761  26.995  10.415
59425W        W20879  37.452   4.298   4.715
59426W        W20880  35.400  25.180   4.711
59427W        W20881  36.565  44.859   4.834
59428W        W20882   0.942  20.260   2.368
59429W        W20883  22.648   1.385   3.383
59430W        W20884   7.309   2.887  12.430
59431W        W20885   7.718  43.894  13.387
59432W        W20886  39.813  27.648   4.202
59433W        W20887  21.248  31.443  12.965
59434W        W20888   4.296  37.070  10.962
59435W        W20889  27.568   6.233  11.088
59436W        W20890  24.568   2.914   2.869
59437W        W20891   9.879  27.471  10.965
59438W        W20892  14.245  44.769   2.274
59439W        W20893  44.304   7.336  13.389
59440W        W20894  38.876  15.219  13.319
59441W        W20895  35.885  18.555   0.341
59442W        W20896  33.885   9.348  12.855
59443W        W20897   9.312  23.676  14.438
59444W        W20898  33.560  31.530   2.390
59445W        W20899  21.225  28.619  13.035
59446W        W20900  41.011   1.888  11.437
59447W        W20901  31.944  42.822  11.073
59448W        W20902   9.810  37.993  10.891
59449W        W20903  22.527  20.574   1.403
59450W        W20904  39.822  36.486   3.231
59451W        W20905   0.288  32.566  11.531
59452W        W20906  13.637  20.134   4.225
59453W        W20907  40.955  25.144   3.197
59454W        W20908  26.966  30.570   0.270
59455W        W20909  36.928  14.810  13.503
59456W        W20910   7.325  25.483  11.099
59457W        W20911  12.814  36.522   0.436
59458W        W20912  42.913   9.227  14.899
59459W        W20913  23.043   4.884   3.692
59460W        W20914  11.143  13.795   1.216
59461W        W20915  20.586  16.708   1.747
59462W        W20916  36.397   7.872   2.237
59463W        W20917  33.052  13.131   2.869
59464W        W20918  39.926  17.071   1.810
59465W        W20919  17.724  22.587  10.955
59466W        W20920  30.049  11.781   1.702
59467W        W20921  30.430  27.083   3.824
59468W        W20922  34.458  42.952  10.566
59469W        W20923  16.267  30.062   0.761
59470W        W20924  33.614  28.630   4.825
59471W        W20925  14.110  32.019   2.220
59472W        W20926  39.914   1.426  14.430
59473W        W20927  12.229   1.324   3.309
59474W        W20928  20.692   2.787   4.774
59475W        W20929  38.869  21.103   0.418
59476W        W20930  36.583  14.153  10.523
59477W        W20931   6.741  34.562  11.050
59478W        W20932  44.382  30.008   1.811
59479W        W20933  11.819  12.795   3.739
59480W        W20934  35.418  20.201  11.005
59481W        W20935  42.456  26.059   0.772
59482W        W20936  35.018   2.360  11.887
59483W        W20937  43.394   0.780   2.287
59484W        W20938  23.731  30.021  12.468
59485W        W20939  31.595   3.440  14.347
59486W        W20940  11.864  44.845   1.792
59487W        W20941  16.620  15.201   9.536
59488W        W20942  36.879  17.160  14.817
59489W        W20943  14.609  19.598  12.878
59490W        W20944  24.136   9.836  13.407
59491W        W20945   6.377  29.946  14.410
59492W        W20946  17.261  40.324   0.293
59493W        W20947  35.516   0.387  11.441
59494W        W20948   8.242  41.433   1.441
59495W        W20949  11.306   9.293   4.127
59496W        W20950   4.361   5.910   3.148
59497W        W20951   8.793  20.145  10.570
59498W        W20952  15.820  39.911  12.496
59499W        W20953  24.513  38.510  11.417
59500W        W20954  19.578   1.766  12.021
59501W        W20955  18.738  15.670   2.328
59502W        W20956  32.548  43.496   2.401
59503W        W20957  14.253  14.804  12.865
59504W        W20958  31.062  11.143   1.448
59505W        W20959  25.052  44.336   0.391
59506W        W20960  24.561   0.472  11.930
59507W        W20961  40.043  12.217   0.267
59508W        W20962   0.896  15.197  10.459
59509W        W20963  40.907  20.563  14.333
59510W        W20964   1.430  40.467   2.306
59511W        W20965  25.526  42.786  13.795
59512W        W20966  18.192  29.029  13.486
59513W        W20967  13.807  22.675  13.863
59514W        W20968   5.330  23.588   2.686
59515W        W20969  36.846  13.253  11.393
59516W        W20970   5.842  34.916   9.979
59517W        W20971   9.257  36.550   3.661
59518W        W20972  17.752  40.902   3.278
59519W        W20973  41.876  25.087   1.339
59520W        W20974   4.236  29.008   1.783
59521W        W20975  30.972   5.291   4.164
59522W        W20976   5.298  23.695   1.308
59523W        W20977  32.092  37.042   1.217
59524W        W20978  39.326  44.951  10.598
59525W        W20979   9.376   3.951  11.104
59526W        W20980  39.466  20.693  14.311
59527W        W20981   4.800  22.580  10.909
59528W        W20982  17.132  35.562  14.290
59529W        W20983  20.145   5.305   3.849
59530W        W20984  28.073  13.251  11.012
59531W        W20985  12.750  21.209   2.874
59532W        W20986  11.650  28.108   2.826
59533W        W20987  17.737  29.467   3.173
59534W        W20988   0.403   5.785  12.954
59535W        W20989  36.978  16.602   2.330
59536W        W20990   9.185  28.930   3.291
59537W        W20991  11.300  17.084  12.402
59538W        W20992  36.880  16.588  10.467
59539W        W20993  19.042   6.251   0.268
59540W        W20994  35.940  13.173   2.261
59541W        W20995  33.116  27.683  14.800
59542W        W20996   1.331  42.025   1.279
59543W        W20997  13.233  39.028   2.872
59544W        W20998   0.742  18.102   1.356
59545W        W20999  20.273   0.864  10.630
59546W        W21000  43.948   7.735   0.269
59547W        W21001  17.230  37.505   4.762
59548W        W21002  29.084  41.535  12.983
59549W        W21003  23.037  29.004  14.003
59550W        W21004  37.977  19.223  11.858
59551W        W21005  41.496  42.855  13.989
59552W        W21006   4.845  22.107  14.023
59553W        W21007  10.280   1.765   4.625
59554W        W21008  19.088  19.675  14.991
59555W        W21009  28.440  25.555   9.953
59556W        W21010  12.283   9.867  12.030
59557W        W21011  40.441  26.102  12.524
59558W        W21012  32.990  36.538  10.487
59559W        W21013  13.160  25.147   4.668
59560W        W21014  31.111  42.962   4.704
59561W        W21015  41.919  12.732  10.946
59562W        W21016   3.710  36.440   0.404
59563W        W21017  19.190  27.531  11.387
59564W        W21018  39.382  24.653   1.418
59565W        W21019  21.678  44.790   2.270
59566W        W21020  22.648  12.249   2.774
59567W        W21021  31.444  26.176  14.810
59568W        W21022  26.109  30.490  10.599
59569W        W21023   8.779   7.700  12.559
59570W        W21024  10.211  22.102   3.681
59571W        W21025  28.511  18.628  14.337
59572W        W21026  30.628   1.405  12.483
59573W        W21027  16.707   1.374   1.346
59574W        W21028  38.470  17.193  12.540
59575W        W21029   4.851   1.806  14.907
59576W        W21030  31.502  32.438   4.763
59577W        W21031  31.418  29.447   1.226
59578W        W21032  22.046  37.862  11.528
59579W        W21033   1.849  17.224   2.369
59580W        W21034  23.089  38.978   3.712
59581W        W21035  22.167  25.988  14.909
59582W        W21036  35.075   9.884  12.035
59583W        W21037  43.828  13.710  13.535
59584W        W21038   3.727  25.098  11.974
59585W        W21039  35.090  42.307  10.529
59586W        W21040  19.278  39.316   1.773
59587W        W21041  37.924  29.041   4.629
59588W        W21042  29.620  28.977   4.249
59589W        W21043  40.539  31.502  13.344
59590W        W21044  36.442  37.422  12.038
59591W        W21045  35.394  10.864   4.294
59592W        W21046  29.983  39.946  12.996
59593W        W21047   9.228   6.389   1.892
59594W        W21048  23.606  30.473  10.554
59595W        W21049  12.797  30.430   2.814
59596W        W21050  40.391  35.084  12.911
59597W        W21051   1.739  32.566  13.366
59598W        W21052  43.935   9.885  12.888
59599W        W21053  34.089  35.427   1.283
59600W        W21054  34.960   5.205  13.856
59601W        W21055   3.717  24.562   2.413
59602W        W21056  38.071  20.274   0.277
59603W        W21057  30.995   9.382  10.042
59604W        W21058   9.791  42.326   1.696
59605W        W21059  40.402  32.507   0.767
59606W        W21060   9.670  27.111  14.764
59607W        W21061  22.204  31.054  11.108
59608W        W21062  26.471  14.594  14.469
59609W        W21063   8.868  20.211  14.984
59610W        W21064   1.398  33.074  12.402
59611W        W21065  34.468   9.863  12.910
59612W        W21066  36.953  41.965  12.078
59613W        W21067  23.595  23.658  13.892
59614W        W21068  25.488  38.918   9.987
59615W        W21069  42.295  23.721   3.298
59616W        W21070  25.981  20.670   3.753
59617W        W21071  25.700  25.965   0.243
59618W        W21072  12.300  17.689  11.877
59619W        W21073   7.374  37.906  14.905
59620W        W21074   0.287  13.315   2.875
59621W        W21075  39.024  12.201   3.273
59622W        W21076  42.937  11.727  12.870
59623W        W21077  13.784  34.580  13.865
59624W        W21078  44.767  32.892  12.381
59625W        W21079  13.740  32.018  14.286
59626W        W21080   2.805  41.378   1.843
59627W        W21081  29.961  24.104   9.625
59628W        W21082  23.177   2.728   0.930
59629W        W21083   6.397   5.887  14.794
59630W        W21084  28.659  36.935  10.968
59631W        W21085   9.175  15.767  10.005
59632W        W21086  27.990  28.056   0.374
59633W        W21087  42.799   3.302   4.211
59634W        W21088  13.328  16.227  14.839
59635W        W21089  32.608   6.751   4.647
59636W        W21090  40.910   8.691  11.592
59637W        W21091   9.741  38.479  11.425
59638W        W21092  17.797   1.406   4.796
59639W        W21093  44.375  32.996   4.283
59640W        W21094  32.894  15.685   4.150
59641W        W21095   0.413  34.935  11.010
59642W        W21096  41.343  32.634   4.732
59643W        W21097   3.754  24.147   1.865
59644W        W21098  12.218  20.684  10.609
59645W        W21099  23.985  17.613  11.018
59646W        W21100  40.883   8.851  13.412
59647W        W21101  26.467  42.445  14.939
59648W        W21102   5.437  33.046  11.111
59649W        W21103  37.346  39.045  11.438
59650W        W21104  36.443  44.315  10.482
59651W        W21105  39.835  22.572   0.924
59652W        W21106  16.773  29.059   2.288
59653W        W21107  18.585  15.267  14.413
59654W        W21108  23.540  32.005  10.643
59655W        W21109  31.583  18.122   4.678
59656W        W21110  33.959  24.182   1.298
59657W        W21111  30.571  32.048  12.932
59658W        W21112   0.884  19.596   1.769
59659W        W21113  23.048  19.627  14.278
59660W        W21114   7.272  17.068   5.096
59661W        W21115  16.093  26.084   2.409
59662W        W21116  18.107   3.837  14.280
59663W        W21117  39.920  37.471   4.689
59664W        W21118  20.129  41.484   3.836
59665W        W21119  23.223  17.616   3.309
59666W        W21120  24.178  40.028  12.078
59667W        W21121   8.288   3.953  10.921
59668W        W21122   3.819  42.993  12.953
59669W        W21123  29.969  35.106   2.295
59670W        W21124  12.702  42.822   4.712
59671W        W21125  13.239  27.455  12.349
59672W        W21126   8.866  12.138   2.831
59673W        W21127  24.014  32.931   2.789
59674W        W21128  28.591  42.969  14.489
59675W        W21129  24.555  35.951  13.980
59676W        W21130  20.717  24.569   3.238
59677W        W21131   9.327  19.553  12.050
59678W        W21132  38.824  10.311  10.641
59679W        W21133   4.283  40.333  12.948
59680W        W21134  40.823  44.262   2.396
59681W        W21135   1.925  11.632  13.986
59682W        W21136  11.745  41.351   2.316
59683W        W21137  14.141  38.439   0.862
59684W        W21138  37.043  30.452  12.065
59685W        W21139  43.901  24.535  12.043
59686W        W21140   0.280  11.732   1.317
59687W        W21141   2.835   6.902  13.505
59688W        W21142  41.348  13.658   1.263
59689W        W21143  14.270   3.240  14.803
59690W        W21144  25.094  31.644   1.242
59691W        W21145  25.510  33.446  10.439
59692W        W21146  35.581  13.274  12.980
59693W        W21147  36.511  22.501  14.838
59694W        W21148  28.456   0.825  13.975
59695W        W21149  12.643  15.629  11.383
59696W        W21150   0.855  18.287  11.371
59697W        W21151  42.397  25.002   2.816
59698W        W21152  33.084  26.134   2.391
59699W        W21153  28.516  22.227   3.148
59700W        W21154  19.691  22.193   3.729
59701W        W21155   7.695  19.696   0.869
59702W        W21156  44.930  28.527   3.278
59703W        W21157  18.049   6.748   1.259
59704W        W21158  33.551  23.504   1.446
59705W        W21159  27.678   5.749   2.818
59706W        W21160   1.836  20.570   3.366
59707W        W21161  27.580  14.611   1.807
59708W        W21162  37.414  42.495   0.927
59709W        W21163  24.526   8.758   2.309
59710W        W21164  31.926  39.009   2.786
59711W        W21165  43.353  32.047   4.214
59712W        W21166  26.110  13.665   4.289
59713W        W21167  21.245   7.391  12.383
59714W        W21168   4.304  31.954  14.835
59715W        W21169  42.859  12.664  13.949
59716W        W21170  43.313  39.348   2.223
59717W        W21171  19.164  15.766  10.967
59718W        W21172  13.839  13.736  14.005
59719W        W21173   9.354  38.509   0.777
59720W        W21174  18.155  44.290  11.548
59721W        W21175  11.245  24.714   4.649
59722W        W21176   2.942  30.536  14.480
59723W        W21177  13.625  11.185  11.515
59724W        W21178  44.794  42.415   4.816
59725W        W21179  42.809  37.576   3.288
59726W        W21180  41.888  34.992   0.865
59727W        W21181  38.413  12.227   4.191
59728W        W21182  10.210  40.378   0.952
59729W        W21183  41.982  10.206   3.809
59730W        W21184  24.538  32.094   2.390
59731W        W21185  15.647  37.923   3.278
59732W        W21186  31.933  41.482   4.621
59733W        W21187  38.016   4.303   3.675
59734W        W21188  26.092   7.824  12.919
59735W        W21189   7.251  15.219   1.778
59736W        W21190   2.448  19.772  10.492
59737W        W21191  32.128   1.755   1.230
59738W        W21192  40.845  25.972   3.787
59739W        W21193   6.831  21.735  12.404
59740W        W21194  14.614  17.770   2.387
59741W        W21195   7.680  43.817  14.861
59742W        W21196  36.981  22.218   0.757
59743W        W21197  12.158  40.889  10.037
59744W        W21198  32.099  25.994   0.345
59745W        W21199  11.650  19.145   1.232
59746W        W21200  38.070  25.472  13.927
59747W        W21201   0.288  29.118  13.988
59748W        W21202  34.010  28.107  13.523
59749W        W21203  13.684   2.417   2.372
59750W        W21204  33.901  27.054   0.360
59751W        W21205  22.676  16.205  12.517
59752W        W21206  42.808   8.832   0.822
59753W        W21207  26.484  36.095   3.668
59754W        W21208  35.944  37.993  12.920
59755W        W21209  31.464  33.079  14.515
59756W        W21210  14.221   3.946   1.812
59757W        W21211   8.726  18.078  12.966
59758W        W21212  32.413  23.527   3.766
59759W        W21213  39.527  13.178  10.636
59760W        W21214  11.790  40.456   3.234
59761W        W21215  19.212  24.525  14.972
59762W        W21216  39.418   1.946   3.211
59763W        W21217  26.659  42.803   0.753
59764W        W21218  10.836   4.902  12.879
59765W        W21219   0.757  25.139   5.085
59766W        W21220  22.723   2.471  13.794
59767W        W21221  31.108  15.115  14.854
59768W        W21222   4.306  33.548  11.383
59769W        W21223   2.291  11.673  13.428
59770W        W21224  25.646  11.196  14.838
59771W        W21225  18.164  41.909  12.898
59772W        W21226  44.290  29.438   3.745
59773W        W21227  34.585  18.271  12.524
59774W        W21228  13.659   5.847  14.013
59775W        W21229  27.943  10.320   1.220
59776W        W21230  18.074  23.086  10.913
59777W        W21231  13.300   3.873   1.330
59778W        W21232   6.282  42.435  12.349
59779W        W21233   4.703  14.282   2.787
59780W        W21234  29.935  36.541   0.913
59781W        W21235  17.735  14.111   1.310
59782W        W21236  31.924  18.567  11.472
59783W        W21237  12.629   0.436   3.215
59784W        W21238   4.781  24.617   4.824
59785W        W21239  36.978  28.121  13.437
59786W        W21240   7.342  42.503   1.777
59787W        W21241  10.698  11.738  14.924
59788W        W21242  15.617  23.116  11.499
59789W        W21243  19.636  30.619   2.899
59790W        W21244  33.523  22.740   0.322
59791W        W21245  13.669   8.199  14.465
59792W        W21246  41.353  12.811   1.727
59793W        W21247  36.444   8.698   4.654
59794W        W21248  40.447  38.975   9.948
59795W        W21249  10.819  20.250  13.498
59796W        W21250   6.331  40.393  10.597
59797W        W21251  39.948  16.072   4.202
59798W        W21252   7.213   0.968  11.072
59799W        W21253  27.522  34.542   2.268
59800W        W21254   1.881  30.596  12.534
59801W        W21255  24.684   5.705   1.349
59802W        W21256  14.278  41.345   1.268
59803W        W21257  25.521  16.732   3.300
59804W        W21258  32.956  42.006  13.858
59805W        W21259  35.051  13.292   3.282
59806W        W21260   7.328  27.447  11.980
59807W        W21261   2.723  34.369  10.568
59808W        W21262  22.623  24.545  10.480
59809W        W21263  33.918  24.518  10.462
59810W        W21264  15.705  13.781  14.469
59811W        W21265   1.960  18.596   4.658
59812W        W21266  10.302  17.140   1.723
59813W        W21267  30.017  36.934   4.228
59814W        W21268   6.813  27.069  11.108
59815W        W21269  41.537  30.569  12.064
59816W        W21270   9.150  17.107  12.830
59817W        W21271  23.699  11.273   3.313
59818W        W21272   5.733  34.064   2.311
59819W        W21273  31.129  13.161   5.090
59820W        W21274   3.716  39.324  13.918
59821W        W21275  20.124  11.654  13.344
59822W        W21276  17.292  21.709   2.190
59823W        W21277  23.634   4.722  14.470
59824W        W21278  27.580  18.717   0.878
59825W        W21279  20.754  20.660   4.156
59826W        W21280  36.077  11.774   1.303
59827W        W21281  32.606  38.566  12.341
59828W        W21282  40.913  31.515  10.977
59829W        W21283  10.713  10.771   1.866
59830W        W21284  23.987  12.656   4.205
59831W        W21285  38.851  34.106   3.304
59832W        W21286  40.939   8.772   4.138
59833W        W21287  33.442  34.091   3.182
59834W        W21288  33.383  21.097  10.514
59835W        W21289  18.076  42.381   3.322
59836W        W21290  12.662   6.260  13.956
59837W        W21291  29.952   7.834  11.549
59838W        W21292   1.309  26.567   3.707
59839W        W21293  19.108  29.927   0.452
59840W        W21294   9.790  34.437  11.589
59841W        W21295   4.418  16.219  13.380
59842W        W21296  10.788   6.828   4.244
59843W        W21297  39.887   6.771   2.784
59844W        W21298  25.582   0.884   2.697
59845W        W21299  26.695  18.099  14.389
59846W        W21300  27.530  28.950   0.781
59847W        W21301  17.115   1.470  14.462
59848W        W21302  19.187  18.142   3.758
59849W        W21303  15.760  29.150   1.335
59850W        W21304  19.780  41.305   3.833
59851W        W21305  21.539  21.636   2.814
59852W        W21306   6.829  41.989   0.741
59853W        W21307  36.387  41.018  12.502
59854W        W21308  22.654  31.941   4.219
59855W        W21309   3.829  30.162   0.448
59856W        W21310   9.771  22.166   4.270
59857W        W21311  30.504  10.259  13.836
59858W        W21312   3.809  12.805   1.862
59859W        W21313  15.780  42.512  10.025
59860W        W21314  15.726  35.905   0.774
59861W        W21315   2.861  25.472  13.428
59862W        W21316   2.854   6.887   4.823
59863W        W21317   0.451  29.071   2.196
59864W        W21318  37.489  12.644  11.509
59865W        W21319   9.315  13.780   1.420
59866W        W21320  25.177   7.815  11.082
59867W        W21321  32.025   8.209   1.722
59868W        W21322  30.030  31.497   0.821
59869W        W21323  24.698  43.825   1.698
59870W        W21324  14.760  42.924   0.947
59871W        W21325  43.460  12.655  11.411
59872W        W21326  10.853  23.228  12.925
59873W        W21327  35.450  40.992   2.187
59874W        W21328  15.769   5.300   0.841
59875W        W21329  28.163  32.028  13.806
59876W        W21330   8.328   9.364   1.760
59877W        W21331  44.411  29.457   1.789
59878W        W21332  12.791  13.828   2.249
59879W        W21333  21.576  10.782   0.938
59880W        W21334  44.882  43.914  12.466
59881W        W21335  13.337   2.321  11.494
59882W        W21336  39.822  36.069  14.349
59883W        W21337  16.727  20.763  12.056
59884W        W21338   5.699  20.251   4.825
59885W        W21339  16.264  44.815   3.349
59886W        W21340  13.117  39.900  10.966
59887W        W21341   1.350  27.537   1.361
59888W        W21342  33.123  15.154  12.448
59889W        W21343  20.101  33.088  10.974
59890W        W21344   8.894   2.362   3.837
59891W        W21345   2.844  37.559  10.031
59892W        W21346  19.779  38.907   3.215
59893W        W21347  34.534  31.958   4.261
59894W        W21348  39.437  34.552   1.896
59895W        W21349  20.571  30.031   2.321
59896W        W21350  18.131  14.157  12.855
59897W        W21351   5.811  10.772  11.942
59898W        W21352  12.709  26.104  14.359
59899W        W21353   4.720  38.560   3.757
59900W        W21354  26.040  17.133   2.703
59901W        W21355  23.057  11.315   4.837
59902W        W21356  19.561  40.487  14.985
59903W        W21357  35.406  20.557  11.101
59904W        W21358  27.141  41.495   0.772
59905W        W21359  10.840  28.943  11.524
59906W        W21360   3.784  13.222  11.101
59907W        W21361  16.681   0.283   2.242
59908W        W21362  29.063  19.606   4.601
59909W        W21363   1.353  24.183  11.510
59910W        W21364   6.195  30.632  14.957
59911W        W21365   3.282   8.894   4.211
59912W        W21366   2.727  19.745  10.597
59913W        W21367  38.021   8.811   0.389
59914W        W21368  41.974  28.168  12.038
59915W        W21369  14.605  18.289   5.212
59916W        W21370  27.533  13.602  13.059
59917W        W21371  11.762  28.181  10.974
59918W        W21372   2.228  42.956   1.358
59919W        W21373  11.663   6.822  14.023
59920W        W21374  38.430  40.958   3.677
59921W        W21375  22.587  29.097   0.877
59922W        W21376  15.795  24.505  12.492
59923W        W21377  21.716  21.617  10.987
59924W        W21378  32.936  21.253  11.458
59925W        W21379  23.042  34.504   3.793
59926W        W21380  37.883  31.583   1.819
59927W        W21381  38.941  44.970   5.182
59928W        W21382   9.186  31.532  13.330
59929W        W21383  22.217  34.099   0.453
59930W        W21384  30.107  22.610   3.735
59931W        W21385  24.204   6.378   5.302
59932W        W21386   3.802  40.857   2.679
59933W        W21387  12.826  17.261   3.763
59934W        W21388  27.102  21.218  10.598
59935W        W21389  21.223   6.726   0.273
59936W        W21390   8.664  25.087   1.304
59937W        W21391  20.745  17.613  14.793
59938W        W21392  15.092  27.523  10.620
59939W        W21393   7.307  14.668   3.159
59940W        W21394   1.264  36.020  13.317
59941W        W21395  15.205  26.110  12.044
59942W        W21396  42.028  40.384  12.075
59943W        W21397  17.710  37.933  14.353
59944W        W21398  42.874  17.288  14.479
59945W        W21399  28.042  35.969  12.420
59946W        W21400  38.939  19.743  10.978
59947W        W21401  27.477   5.334  11.512
59948W        W21402   8.360  23.125  14.928
59949W        W21403   2.800  11.310  12.047
59950W        W21404  35.521  40.875  13.530
59951W        W21405   4.205  14.625  12.469
59952W        W21406   0.254   0.355  11.912
59953W        W21407  11.774  44.431  10.953
59954W        W21408   9.807  37.525   1.700
59955W        W21409  40.910  40.381  14.352
59956W        W21410  20.252  25.527  10.892
59957W        W21411  32.446   5.915  13.798
59958W        W21412  38.489   7.717  13.340
59959W        W21413  34.574  44.762  14.307
59960W        W21414  43.835  17.300  12.076
59961W        W21415  39.449  20.244  12.011
59962W        W21416   3.419  41.012  14.795
59963W        W21417  27.104  28.470   1.698
59964W        W21418  18.772  24.709  14.409
59965W        W21419  21.738   9.190  13.984
59966W        W21420  29.145   1.780  14.307
59967W        W21421  13.234   4.253   2.694
59968W        W21422   3.839  13.640  14.303
59969W        W21423   6.390  18.217   2.308
59970W        W21424  19.126  24.479  11.929
59971W        W21425  22.170  33.475  13.985
59972W        W21426   9.210  13.168   3.836
59973W        W21427  20.108  21.237   1.245
59974W        W21428  25.112  44.955  13.311
59975W        W21429  12.742  14.220   4.696
59976W        W21430  23.204  20.749  13.918
59977W        W21431  29.532  36.026   0.392
59978W        W21432  25.583  12.735  10.442
59979W        W21433   9.867  35.524   1.794
59980W        W21434  37.916   5.725  14.497
59981W        W21435   1.279  44.921  12.080
59982W        W21436  23.706  14.254   2.278
59983W        W21437   3.224  39.903   1.925
59984W        W21438  11.234  33.918   0.732
59985W        W21439  18.108  11.199   3.788
59986W        W21440  34.568   5.795   0.855
59987W        W21441  34.088  41.805   2.253
59988W        W21442  24.151  25.996   0.313
59989W        W21443  31.479  32.394   2.283
59990W        W21444  44.372  40.900  14.761
59991W        W21445   0.949  10.331  10.488
59992W        W21446   1.837   4.353  11.602
59993W        W21447  24.588  33.008   3.197
59994W        W21448  15.178  35.451   0.879
59995W        W21449  30.969  32.544   5.210
59996W        W21450   6.272  26.047  12.395
59997W        W21451  28.076  34.527   3.226
59998W        W21452  14.726  24.991   5.132
59999W        W21453  29.579  27.504   1.214
60000W        W21454  39.043   1.286  14.822
60001W        W21455  39.455  11.133  13.486
60002W        W21456   5.376  16.255   3.227
60003W        W21457  28.101  30.054  11.388
60004W        W21458  30.968  16.197  11.985
60005W        W21459  21.602  37.870  13.920
60006W        W21460   7.912  38.449   1.734
60007W        W21461   4.365  10.285  13.413
60008W        W21462  14.654  29.142   3.385
60009W        W21463  12.670  25.135  14.894
60010W        W21464   9.784   4.745   4.157
60011W        W21465  26.573  28.452  11.539
60012W        W21466  42.343  11.699  12.017
60013W        W21467  11.640   8.261  11.010
60014W        W21468  25.044  11.176  13.042
60015W        W21469   0.355  42.301   0.830
60016W        W21470  17.794  17.097  10.042
60017W        W21471   1.893  18.661  13.916
60018W        W21472   9.267  34.467  14.484
60019W        W21473   0.426  25.089  12.827
60020W        W21474  26.119  39.465   3.309
60021W        W21475  39.462   7.692  14.863
60022W        W21476  43.486  44.961   3.655
60023W        W21477  25.081  43.791  13.493
60024W        W21478  30.034   0.397  13.956
60025W        W21479   0.388  16.781   2.376
60026W        W21480   4.810   8.398  14.408
60027W        W21481  21.085  24.542  12.376
60028W        W21482  36.909  25.480   1.274
60029W        W21483  30.505  26.689  13.450
60030W        W21484  39.811  15.709  11.519
60031W        W21485  40.392   2.928  11.910
60032W        W21486  43.798  26.565   3.204
60033W        W21487  24.497  26.199  12.438
60034W        W21488  39.546   1.756  10.949
60035W        W21489  11.263  30.608  13.943
60036W        W21490  27.011  22.182  11.032
60037W        W21491  21.102   2.907   1.266
60038W        W21492  24.486   0.896   4.722
60039W        W21493  40.500   1.789   4.311
60040W        W21494   6.770  21.600  14.863
60041W        W21495   4.219  39.459   3.182
60042W        W21496   9.380  37.901  10.480
60043W        W21497   9.792  39.434  12.511
60044W        W21498   1.327  17.223   1.322
60045W        W21499  12.658  28.503   4.116
60046W        W21500  35.102  10.172   5.088
60047W        W21501  18.766   2.311  10.622
60048W        W21502  31.941  44.406   5.115
60049W        W21503  12.775  15.607  10.572
60050W        W21504  44.351   5.268  13.534
60051W        W21505  27.654  41.807  11.868
60052W        W21506   2.881  35.590  13.973
60053W        W21507  26.956  35.953  11.926
60054W        W21508   4.893  16.110  12.943
60055W        W21509   0.440  11.805  14.761
60056W        W21510  39.817  13.739  14.275
60057W        W21511   8.869  31.042   0.937
60058W        W21512   1.295  34.921   4.264
60059W        W21513  32.047  37.056  13.310
60060W        W21514  27.022   5.692   2.733
60061W        W21515  19.608  41.473  13.992
60062W        W21516  35.965   6.690  12.009
60063W        W21517   0.857  28.481   3.757
60064W        W21518  23.517  30.997  14.400
60065W        W21519  44.421  15.190   4.183
60066W        W21520  42.418  40.312  11.455
60067W        W21521  15.288  11.129   2.237
60068W        W21522  41.343  11.701  12.499
60069W        W21523   6.906  44.435   1.811
60070W        W21524  41.353  17.652  10.599
60071W        W21525  26.553  23.535   3.729
60072W        W21526  15.755   5.860   1.313
60073W        W21527  44.400  14.300   4.728
60074W        W21528  31.046  44.347   0.741
60075W        W21529  27.121   8.662  14.293
60076W        W21530   7.674  39.944  12.523
60077W        W21531  42.385   5.270   4.161
60078W        W21532  20.717   7.338  13.447
60079W        W21533  27.690  37.464   0.812
60080W        W21534  27.571   1.305  13.349
60081W        W21535  20.264  43.477   3.167
60082W        W21536   6.349  27.198   4.321
60083W        W21537   9.174  34.001  12.391
60084W        W21538  14.235   9.826  13.015
60085W        W21539   1.824  17.254  13.521
60086W        W21540  36.875  38.055  14.421
60087W        W21541  12.761   4.444   1.415
60088W        W21542  31.424  30.161   4.742
60089W        W21543  18.654   7.404  14.849
60090W        W21544  38.442  26.644  12.027
60091W        W21545  21.243  40.931  14.502
60092W        W21546  17.222  11.272  11.996
60093W        W21547  38.393  28.593   4.602
60094W        W21548  14.246  29.428  14.791
60095W        W21549  32.891   4.350  11.945
60096W        W21550  21.142  39.005   2.711
60097W        W21551   0.321  29.155   4.125
60098W        W21552  39.315  10.853  11.937
60099W        W21553   0.286  28.560  11.090
60100W        W21554  20.546  20.592   1.309
60101W        W21555  14.826  34.407  12.042
60102W        W21556  28.090  42.420  12.498
60103W        W21557  24.572  17.633  12.572
60104W        W21558  30.994  11.241  11.922
60105W        W21559   8.321  39.998   3.820
60106W        W21560  27.658  27.484  14.482
60107W        W21561   3.416  26.048   4.209
60108W        W21562  11.718  33.947   0.785
60109W        W21563  40.830   9.268   3.206
60110W        W21564  34.453  36.579   0.412
60111W        W21565  18.657   1.801  11.603
60112W        W21566  15.151  35.480   3.854
60113W        W21567  37.507   8.699   0.304
60114W        W21568  23.643   9.842  14.848
60115W        W21569   7.754  16.142  12.086
60116W        W21570   5.898  31.080   3.149
60117W        W21571  44.847  21.210   1.721
60118W        W21572  19.689  10.224   0.893
60119W        W21573  15.673  21.169  12.488
60120W        W21574  43.350  36.469  13.316
60121W        W21575  16.150  21.700   0.243
60122W        W21576  41.469  34.865  11.594
60123W        W21577   6.309  22.008  13.323
60124W        W21578  30.419   4.234   3.273
60125W        W21579  19.630  21.722   1.733
60126W        W21580  24.028  43.852  12.341
60127W        W21581  41.362  17.079  11.952
60128W        W21582  11.364  41.849  10.911
60129W        W21583   0.748  23.657   0.899
60130W        W21584  21.686  43.803   2.267
60131W        W21585   8.701  38.380   3.207
60132W        W21586  23.069  19.592  13.524
60133W        W21587  44.326  29.502   4.313
60134W        W21588   1.359  34.930  11.440
60135W        W21589  27.555   1.932   9.646
60136W        W21590  38.989  32.075  13.515
60137W        W21591  10.787  25.174  13.837
60138W        W21592  42.854  23.562   1.285
60139W        W21593  18.266  40.497   3.306
60140W        W21594   1.459  18.199   4.635
60141W        W21595  30.497  24.038  12.886
60142W        W21596  40.371   5.852   3.219
60143W        W21597  35.867   2.444   3.808
60144W        W21598  15.716  40.436  11.003
60145W        W21599  38.363   4.857   3.282
60146W        W21600   2.845  30.530   2.399
60147W        W21601  36.461  29.513   3.149
60148W        W21602  43.800  21.194   1.789
60149W        W21603  41.791  33.468   0.357
60150W        W21604  23.212  24.189   1.434
60151W        W21605  43.820  11.233   4.227
60152W        W21606  21.534  18.784  12.974
60153W        W21607  44.947   2.886  11.553
60154W        W21608  37.349  17.578  13.829
60155W        W21609  32.026   6.733   3.804
60156W        W21610  31.500  12.159   2.727
60157W        W21611  10.317  21.527  14.515
60158W        W21612   6.424  11.240   1.886
60159W        W21613   9.786  34.404   4.790
60160W        W21614   2.332  17.573  11.534
60161W        W21615  24.015  44.310   2.297
60162W        W21616  41.024  10.384  14.479
60163W        W21617  23.180   2.757   4.724
60164W        W21618  37.360   9.775  11.014
60165W        W21619  10.239  23.081  10.497
60166W        W21620  28.667  13.176  14.983
60167W        W21621   5.848  29.634  14.776
60168W        W21622  14.726  17.081   1.893
60169W        W21623  19.598  44.856   0.282
60170W        W21624  25.609  18.238   0.859
60171W        W21625  21.698  16.113   0.860
60172W        W21626  34.038  16.723   2.884
60173W        W21627  24.707  28.056   0.459
60174W        W21628   1.740  24.090  13.026
60175W        W21629  20.675   9.848   4.215
60176W        W21630  20.055  31.081   4.199
60177W        W21631   2.936  43.852   3.296
60178W        W21632  24.709  19.234  11.504
60179W        W21633  41.388  28.605   3.153
60180W        W21634  44.006   5.249   2.893
60181W        W21635  38.940  22.169   4.298
60182W        W21636  41.398  20.662  14.002
60183W        W21637  29.037   0.367  12.975
60184W        W21638  11.239  10.277  13.877
60185W        W21639   0.843  19.252   1.354
60186W        W21640  37.364   0.809   5.083
60187W        W21641   0.860  12.130  10.962
60188W        W21642  28.186  14.751   3.744
60189W        W21643   9.290   5.269   4.689
60190W        W21644   1.350  12.672  14.411
60191W        W21645  23.062   4.363  12.556
60192W        W21646  34.482  33.469   3.148
60193W        W21647  38.848   0.247   3.169
60194W        W21648   1.436   4.858  10.960
60195W        W21649  12.137  11.626  10.896
60196W        W21650   4.335  24.146   4.798
60197W        W21651  22.643  23.493  12.997
60198W        W21652  18.133  20.585  13.508
60199W        W21653   7.770  24.709  10.479
60200W        W21654  15.219  40.351   3.869
60201W        W21655  23.136  11.864  10.420
60202W        W21656  36.397   8.161   3.147
60203W        W21657  38.977  33.412   1.338
60204W        W21658   2.357  40.336  10.491
60205W        W21659   7.854  14.596  13.345
60206W        W21660  12.679   0.915  13.945
60207W        W21661  31.120  27.965   2.301
60208W        W21662   9.659  43.821   0.329
60209W        W21663  25.541  10.170  12.483
60210W        W21664  23.162   2.452  11.404
60211W        W21665   9.769   8.756   1.800
60212W        W21666  32.089  28.174  10.547
60213W        W21667   9.670  28.013  12.974
60214W        W21668  11.646  33.493   2.273
60215W        W21669  36.889  12.799   2.850
60216W        W21670  38.364  38.564   0.293
60217W        W21671  44.881  31.404  10.529
60218W        W21672   6.862  44.474  14.816
60219W        W21673  32.004  44.931  14.351
60220W        W21674   9.356  32.074   2.361
60221W        W21675   9.239  25.527  10.637
60222W        W21676  30.484  13.799   5.750
60223W        W21677  42.443   7.303   2.358
60224W        W21678   9.695  25.605   3.757
60225W        W21679  25.535  29.459   4.147
60226W        W21680   6.350  13.320  11.493
60227W        W21681  13.735  28.006  13.324
60228W        W21682  43.323  29.663  11.561
60229W        W21683  31.565  30.058  12.862
60230W        W21684  31.004  44.945   4.116
60231W        W21685  44.844   3.822   4.823
60232W        W21686   0.484  35.909  14.317
60233W        W21687  23.584  24.559  10.588
60234W        W21688   2.393  14.221  11.904
60235W        W21689  37.385  43.825   3.173
60236W        W21690  11.750  22.088   3.787
60237W        W21691  22.665   1.897  13.411
60238W        W21692  14.745   5.881   0.439
60239W        W21693  35.941  36.915  12.387
60240W        W21694  32.479  15.281   1.221
60241W        W21695   2.943   0.268   4.252
60242W        W21696  39.919  40.962   3.301
60243W        W21697   8.388  27.561   0.777
60244W        W21698  20.710   7.264   9.627
60245W        W21699  20.535  37.838   3.703
60246W        W21700  25.064  25.983   1.886
60247W        W21701  10.805  25.599  13.409
60248W        W21702  20.654  44.338  11.121
60249W        W21703   6.685  33.522   3.812
60250W        W21704  25.592  12.731  14.961
60251W        W21705  34.574  33.447  14.338
60252W        W21706  34.529  16.175   4.152
60253W        W21707  11.196  42.980   1.307
60254W        W21708   6.775  26.169   4.676
60255W        W21709  14.769  25.219   3.703
60256W        W21710  35.460  43.484   0.285
60257W        W21711   8.658  18.238   1.211
60258W        W21712  25.698  26.003  13.793
60259W        W21713  43.333  11.864   3.843
60260W        W21714  11.632  19.253   1.862
60261W        W21715  12.117   4.928  14.882
60262W        W21716  38.326  12.611   3.757
60263W        W21717  36.006  15.314   1.357
60264W        W21718  25.987  36.406   2.348
60265W        W21719  36.853   3.222   4.312
60266W        W21720   6.897  29.663   1.844
60267W        W21721  13.139  33.919  11.408
60268W        W21722  42.423   1.743   4.672
60269W        W21723  20.585  18.624   3.801
60270W        W21724  28.021  32.544  13.817
60271W        W21725  37.387  21.615   3.274
60272W        W21726  43.910  44.308  14.864
60273W        W21727  23.229  32.400   1.757
60274W        W21728  29.669  18.054   4.261
60275W        W21729   0.906  15.241   1.247
60276W        W21730  28.544  18.154   2.691
60277W        W21731  15.158  17.166   2.851
60278W        W21732   9.155  30.600   9.441
60279W        W21733  13.675  21.618   3.262
60280W        W21734  44.378  38.055   1.290
60281W        W21735  24.504  17.241   4.159
60282W        W21736   6.240  10.238  11.403
60283W        W21737   0.288  33.487   1.235
60284W        W21738  11.298  22.537   4.244
60285W        W21739  38.983  32.072   1.753
60286W        W21740  27.501  13.107   0.777
60287W        W21741   9.782   4.355  13.825
60288W        W21742   9.768  11.705   4.202
60289W        W21743  37.948  29.451   2.821
60290W        W21744  24.614  42.854  11.417
60291W        W21745  13.773  29.591   4.138
60292W        W21746  14.269  20.558  13.893
60293W        W21747  31.424  29.953  10.516
60294W        W21748  24.123  22.704   4.650
60295W        W21749  29.525   7.199   3.356
60296W        W21750  44.783   3.760  10.942
60297W        W21751   6.259  24.536  11.992
60298W        W21752  44.459  15.701   2.879
60299W        W21753  27.553  14.330  11.448
60300W        W21754  34.869  36.541   2.897
60301W        W21755  15.102  18.083  11.060
60302W        W21756  25.111  21.653   0.292
60303W        W21757  23.611  21.023   1.395
60304W        W21758   8.675  43.290  14.471
60305W        W21759  43.842   2.761   4.206
60306W        W21760   8.365   0.426   0.922
60307W        W21761  40.408   7.389  14.973
60308W        W21762  19.073  39.499  12.950
60309W        W21763   5.220   4.832  13.446
60310W        W21764  27.551  31.125  11.034
60311W        W21765  27.123  12.224  13.827
60312W        W21766  10.793  21.699   3.749
60313W        W21767  15.593   9.689  12.849
60314W        W21768  28.105  35.105   9.638
60315W        W21769  19.170   3.444   1.721
60316W        W21770  36.876   9.838   0.953
60317W        W21771   2.265  44.280   2.407
60318W        W21772  19.765  41.036   0.872
60319W        W21773  13.717  16.631  13.994
60320W        W21774  20.041  34.876  10.934
60321W        W21775  22.034   1.921  12.970
60322W        W21776  32.119   2.890   0.910
60323W        W21777  25.480   9.246  11.001
60324W        W21778   3.834   2.275  10.518
60325W        W21779  31.019  35.473  13.457
60326W        W21780  38.953  27.104  11.406
60327W        W21781  14.736  38.464  10.581
60328W        W21782  12.720  37.919   4.775
60329W        W21783  44.296  22.639  13.850
60330W        W21784   2.298  10.693   1.902
60331W        W21785  11.743  36.536  12.957
60332W        W21786  16.601  13.138   3.293
60333W        W21787  11.230  34.464   0.931
60334W        W21788   4.370  26.603  14.309
60335W        W21789  41.416  14.603  13.801
60336W        W21790   0.313   2.906  10.888
60337W        W21791  11.727  16.667  10.643
60338W        W21792  35.870  25.493  14.826
60339W        W21793   7.836  30.427   4.719
60340W        W21794  44.329  35.394   4.712
60341W        W21795  29.624  28.031  10.937
60342W        W21796   4.808  21.108   5.090
60343W        W21797  25.992  16.668  13.366
60344W        W21798  21.628  15.727  12.481
60345W        W21799  31.549  28.584  13.968
60346W        W21800   0.791  44.281   2.178
60347W        W21801   0.293  28.537   4.637
60348W        W21802  27.590  32.011   2.722
60349W        W21803  44.442   4.288   0.381
60350W        W21804   1.837   3.395  12.475
60351W        W21805  31.954  26.611  12.074
60352W        W21806   1.892  42.934   3.839
60353W        W21807   5.700  31.633  14.021
60354W        W21808  38.432   5.869   4.773
60355W        W21809  23.076  10.267  14.911
60356W        W21810  13.643   5.912   1.913
60357W        W21811  28.483  35.897  14.851
60358W        W21812  25.141  10.276   3.256
60359W        W21813  19.592  38.520  12.956
60360W        W21814  24.640   1.364   2.700
60361W        W21815   0.802  35.465  14.880
60362W        W21816  15.318  42.429   3.324
60363W        W21817  30.571  33.529   3.275
60364W        W21818  26.068  18.101   4.331
60365W        W21819  41.327   6.753  14.885
60366W        W21820  28.139  19.653   3.385
60367W        W21821  35.970  27.057   3.685
60368W        W21822   8.832  30.593   2.775
60369W        W21823   4.348  26.951  12.886
60370W        W21824  38.995  24.113   0.448
60371W        W21825  10.840  41.923   0.338
60372W        W21826  11.359  32.124  13.493
60373W        W21827  12.631   3.385   2.327
60374W        W21828  31.515  39.467   4.678
60375W        W21829   1.889  41.979  14.489
60376W        W21830  26.656  15.626  12.353
60377W        W21831  39.828  16.317  12.544
60378W        W21832  16.230   1.765   4.200
60379W        W21833   8.673  43.512   1.263
60380W        W21834  22.570  26.642  14.404
60381W        W21835   0.471   1.268  14.963
60382W        W21836   0.856   9.273   2.885
60383W        W21837   8.866  31.015   4.350
60384W        W21838   0.978   1.831  10.931
60385W        W21839  19.195   1.746   4.315
60386W        W21840  10.839  15.154   2.373
60387W        W21841  40.973   2.298   4.292
60388W        W21842  21.617  33.447  14.510
60389W        W21843   6.220  25.170  14.979
60390W        W21844   2.925   7.256  13.791
60391W        W21845  36.589  42.962  11.466
60392W        W21846  33.528  25.082  14.449
60393W        W21847  16.157  14.157   1.225
60394W        W21848  32.946  33.614  10.979
60395W        W21849  30.655  19.231   2.692
60396W        W21850  40.361  44.970  11.469
60397W        W21851  18.248  44.331   3.243
60398W        W21852  38.331  26.958  13.331
60399W        W21853   6.326  42.931   3.694
60400W        W21854  41.868  23.134  11.487
60401W        W21855  34.422  25.207  13.533
60402W        W21856   1.259  20.560   0.444
60403W        W21857  25.015  20.612  14.791
60404W        W21858  40.369  27.188  10.942
60405W        W21859  24.063  17.262  11.111
60406W        W21860  38.537  40.476   1.766
60407W        W21861  27.961   3.758  11.957
60408W        W21862  17.717  21.189  13.442
60409W        W21863  18.135   7.234  13.517
60410W        W21864  44.798   5.398  14.326
60411W        W21865   7.684  10.265  10.919
60412W        W21866  24.666  35.463   0.798
60413W        W21867  17.711  13.234   2.698
60414W        W21868  19.113  34.972   1.861
60415W        W21869  11.157   2.315  13.999
60416W        W21870  42.014  11.219  14.286
60417W        W21871   0.295  29.020  13.344
60418W        W21872  24.090  42.402   1.753
60419W        W21873  21.091  41.037  10.498
60420W        W21874  42.852   0.875  12.567
60421W        W21875  27.179  24.041  12.988
60422W        W21876  30.598  22.112   4.682
60423W        W21877   3.747  38.996  10.556
60424W        W21878  44.371   1.417  14.762
60425W        W21879  44.967  41.400   0.304
60426W        W21880  18.266  10.754   1.293
60427W        W21881  31.536   4.842  14.344
60428W        W21882  15.766  36.013  14.503
60429W        W21883  31.584   8.288   4.186
60430W        W21884  20.153  38.399  12.073
60431W        W21885  15.119  25.624  10.473
60432W        W21886  37.479   9.759  14.793
60433W        W21887  38.477  35.917  14.341
60434W        W21888  44.001  40.437   0.824
60435W        W21889  19.112  14.284   0.480
60436W        W21890  20.606  41.428   4.139
60437W        W21891  19.568  27.591   0.875
60438W        W21892  17.061   5.692   3.693
60439W        W21893  42.335  35.978  10.437
60440W        W21894  10.851  20.253  13.967
60441W        W21895   5.888  21.240  10.958
60442W        W21896   1.365  36.024  12.970
60443W        W21897  17.751  39.941   4.167
60444W        W21898  27.620  22.040   1.287
60445W        W21899  33.989  40.495  12.565
60446W        W21900  10.230   2.288   0.326
60447W        W21901  21.052  10.270  10.624
60448W        W21902  35.007   0.272  13.941
60449W        W21903  33.899  23.721   4.131
60450W        W21904  23.694  20.189   1.222
60451W        W21905   4.375   9.786  12.090
60452W        W21906  39.001  12.741  12.833
60453W        W21907  41.412  41.828   2.801
60454W        W21908  18.722  21.653  11.549
60455W        W21909  36.959  27.647  10.987
60456W        W21910  25.601  40.003   4.758
60457W        W21911  43.936  11.721  14.780
60458W        W21912  40.345  28.965   3.719
60459W        W21913  41.409  27.490  12.880
60460W        W21914   9.361   6.777   1.429
60461W        W21915  41.298   2.262   4.321
60462W        W21916  35.434  25.082   3.633
60463W        W21917  12.192  11.273   1.794
60464W        W21918  14.111   7.721  13.966
60465W        W21919  44.303   7.358   3.785
60466W        W21920  16.303  13.769   4.603
60467W        W21921   6.832   3.390   2.664
60468W        W21922  31.430  27.962  13.418
60469W        W21923   9.395  33.045  11.399
60470W        W21924  44.338  43.953   4.689
60471W        W21925  36.562  19.759  13.438
60472W        W21926   6.319  23.102  12.543
60473W        W21927  10.267  35.405  13.545
60474W        W21928  28.946  26.957   3.185
60475W        W21929  28.943  35.962   4.346
60476W        W21930   3.292  25.484  14.396
60477W        W21931  27.953   2.265  10.037
60478W        W21932  14.834  14.650   0.331
60479W        W21933  28.088  28.179   1.902
60480W        W21934  16.291   3.939   2.806
60481W        W21935   1.326  37.934   3.284
60482W        W21936  32.885  28.559  11.015
60483W        W21937  39.907  44.387  11.387
60484W        W21938  37.873  26.984  12.339
60485W        W21939   1.932   9.365   2.303
60486W        W21940  26.100  33.119  10.531
60487W        W21941  15.134  35.945  13.023
60488W        W21942  36.449  32.081   2.773
60489W        W21943  41.517  22.137   2.749
60490W        W21944  33.474   5.355   3.171
60491W        W21945  10.774  15.228   0.746
60492W        W21946  30.069  41.342  13.993
60493W        W21947  39.544  17.676   3.295
60494W        W21948  41.431  15.120   1.210
60495W        W21949  32.036  22.711   1.760
60496W        W21950  17.224  37.453  12.037
60497W        W21951  37.998  29.607  11.531
60498W        W21952  10.333  23.566   3.223
60499W        W21953  28.675  18.708   1.755
60500W        W21954  29.022  35.409   0.337
60501W        W21955  11.349   9.652   1.296
60502W        W21956  30.127  18.661  12.025
60503W        W21957  14.812  21.094   1.302
60504W        W21958   4.936  31.485   4.817
60505W        W21959   8.325  21.674  14.023
60506W        W21960  37.891   1.435   3.710
60507W        W21961  31.500  19.585   0.953
60508W        W21962  40.044  42.366   2.701
60509W        W21963  43.871  22.241   2.900
60510W        W21964  15.692   1.395   0.427
60511W        W21965  35.996   6.300   3.292
60512W        W21966  40.005  41.819  13.537
60513W        W21967  19.197  43.422  11.005
60514W        W21968  37.910   0.972  12.461
60515W        W21969   8.822  30.577  14.310
60516W        W21970  27.968  41.804   0.785
60517W        W21971  42.970  44.336   2.684
60518W        W21972  38.034  23.127  12.350
60519W        W21973  20.161  20.764   3.367
60520W        W21974  30.531  40.355   3.161
60521W        W21975  13.648   7.697   1.839
60522W        W21976  13.821   5.396   0.476
60523W        W21977  34.481  23.154   3.354
60524W        W21978   3.818  40.933   0.740
60525W        W21979  27.471   4.848   2.204
60526W        W21980  13.846  35.585  13.477
60527W        W21981  20.623  41.428  12.488
60528W        W21982   7.294  28.139   1.336
60529W        W21983  37.039   3.887  11.995
60530W        W21984  37.063  17.691   4.223
60531W        W21985  22.731  24.226  11.011
60532W        W21986  17.278  26.080   3.772
60533W        W21987  31.572   1.866   2.747
60534W        W21988  10.873   9.264  11.566
60535W        W21989  37.833   0.869   1.886
60536W        W21990  28.455   0.347  13.346
60537W        W21991   5.402  28.045  13.335
60538W        W21992   9.806   4.809  10.937
60539W        W21993  39.035   6.309   1.229
60540W        W21994  27.135  38.345   1.775
60541W        W21995  15.091  23.236  13.547
60542W        W21996  41.828   0.452   2.327
60543W        W21997  35.006  29.576  10.103
60544W        W21998  41.407  30.460   0.477
60545W        W21999  34.582  38.847   1.777
60546W        W22000  32.572   2.386   3.194
60547W        W22001  22.742  26.575  14.881
60548W        W22002  44.834   9.355  11.419
60549W        W22003   5.288  12.664   3.823
60550W        W22004  39.552  13.675   3.235
60551W        W22005  31.420  10.671   2.392
60552W        W22006  34.915   0.475  13.311
60553W        W22007  40.994  42.524  14.447
60554W        W22008  15.195  16.264  10.076
60555W        W22009  44.882   1.978  13.992
60556W        W22010  29.128  12.236  14.909
60557W        W22011  20.603  11.136   4.191
60558W        W22012  26.702   0.431   4.284
60559W        W22013  19.259  35.053   2.214
60560W        W22014  29.157  37.577   4.779
60561W        W22015   0.796  31.049   0.823
60562W        W22016  30.597  20.625   3.793
60563W        W22017   7.314  13.699   4.824
60564W        W22018  23.051   0.929   0.749
60565W        W22019   1.975  44.437   3.147
60566W        W22020  37.944  29.128  12.095
60567W        W22021  18.069  40.934   0.473
60568W        W22022  39.542  41.392   0.426
60569W        W22023  22.648   9.829   1.345
60570W        W22024  42.455  27.606   4.709
60571W        W22025   9.224  13.747   4.136
60572W        W22026   7.277  17.773   2.848
60573W        W22027  25.122   7.747   4.342
60574W        W22028  15.300  16.592  12.520
60575W        W22029   5.225  15.764   1.285
60576W        W22030  17.063  11.670  13.812
60577W        W22031  27.611  10.640   9.532
60578W        W22032   3.339  29.496  12.086
60579W        W22033  31.027  12.149   1.357
60580W        W22034  28.461  24.040  11.036
60581W        W22035  25.195  38.838   0.458
60582W        W22036  40.864  43.484  14.407
60583W        W22037  25.073   1.902  10.494
60584W        W22038   4.934  32.129  11.995
60585W        W22039  40.399   2.915   2.365
60586W        W22040  26.684   8.263   2.829
60587W        W22041  27.080  21.161  11.938
60588W        W22042  41.532  28.950  11.500
60589W        W22043   1.966  17.651  13.857
60590W        W22044  15.679  41.412  10.595
60591W        W22045  35.055  22.680  12.391
60592W        W22046  34.569  13.169   9.633
60593W        W22047  21.734   9.716  14.279
60594W        W22048  24.991  29.148   3.343
60595W        W22049  41.363   8.327  12.872
60596W        W22050  28.539  15.102  12.517
60597W        W22051  37.041  25.062  11.080
60598W        W22052  37.035  32.037   0.362
60599W        W22053  42.282  43.306   4.220
60600W        W22054   3.282   6.780  11.978
60601W        W22055   0.845  20.109  14.869
60602W        W22056   2.248   8.176  10.924
60603W        W22057  34.530  42.808  13.404
60604W        W22058  36.489  44.859   3.718
60605W        W22059  10.200  19.056  14.479
60606W        W22060  15.172  36.448   4.197
60607W        W22061  10.243  33.448  11.382
60608W        W22062  28.940  34.049  10.545
60609W        W22063  10.160  40.909   4.680
60610W        W22064   7.778   4.211  10.888
60611W        W22065  15.784   3.717  14.374
60612W        W22066  40.478  29.575   4.146
60613W        W22067  31.108  28.585  14.861
60614W        W22068  20.261  29.133   3.794
60615W        W22069  17.580  25.583  10.903
60616W        W22070  39.470  13.829   4.604
60617W        W22071  22.537  37.080   4.323
60618W        W22072  25.023  18.677   3.734
60619W        W22073   3.764  36.558  11.007
60620W        W22074  25.002  42.414  12.922
60621W        W22075  24.138  38.896  13.330
60622W        W22076  23.993   2.405  12.507
60623W        W22077  37.440   9.153  13.977
60624W        W22078  38.355   5.235  12.090
60625W        W22079   9.170  17.752  12.416
60626W        W22080  15.757  14.800   3.685
60627W        W22081  43.898  28.021   1.794
60628W        W22082   7.381  31.991  11.499
60629W        W22083  14.619  19.569  11.483
60630W        W22084   4.384  11.299   0.463
60631W        W22085  34.441   5.336   4.742
60632W        W22086  31.143   4.283  10.562
60633W        W22087  39.853  11.800   4.215
60634W        W22088  16.307  38.857  12.990
60635W        W22089   1.975  39.981   0.282
60636W        W22090  37.380  44.495   0.842
60637W        W22091  41.316  28.527  10.590
60638W        W22092  36.863  19.627  10.564
60639W        W22093  37.420  44.398  11.444
60640W        W22094   3.387   8.268  13.529
60641W        W22095  44.488  35.994  10.493
60642W        W22096  18.135  38.957  12.360
60643W        W22097   1.785  21.066   2.318
60644W        W22098   3.901  22.600  10.563
60645W        W22099  44.945   2.780   4.776
60646W        W22100  11.227  37.031   3.712
60647W        W22101  19.114  36.351   4.233
60648W        W22102   2.963  21.219  12.577
60649W        W22103  38.364  32.574   3.755
60650W        W22104  10.295  20.723   1.339
60651W        W22105  44.306   6.214   1.876
60652W        W22106  44.006  35.946   0.303
60653W        W22107  28.186  28.953  14.906
60654W        W22108  23.563  18.159  12.036
60655W        W22109  26.489  43.510  14.488
60656W        W22110   6.742  31.567  14.992
60657W        W22111  34.058   0.974  14.473
60658W        W22112  14.797  36.042   4.193
60659W        W22113  13.223  23.121   2.348
60660W        W22114  28.598  43.801  12.478
60661W        W22115  25.622  27.481  12.526
60662W        W22116   5.363  10.234   3.851
60663W        W22117  17.112  41.813   3.854
60664W        W22118  29.979  41.480  13.385
60665W        W22119  37.876  28.089   2.217
60666W        W22120  22.217  24.050  11.523
60667W        W22121  12.641  43.270   2.295
60668W        W22122  19.246  27.678  12.406
60669W        W22123  17.802  17.218   4.781
60670W        W22124  30.063   9.241  11.903
60671W        W22125  41.532  33.016  10.579
60672W        W22126  33.123  23.223  14.866
60673W        W22127  32.903  22.698   3.240
60674W        W22128  18.054  21.256   3.728
60675W        W22129  15.639  43.359  10.959
60676W        W22130   6.364  13.818  10.452
60677W        W22131  44.288  40.927   1.777
60678W        W22132  42.812   5.922  10.050
60679W        W22133  43.965  26.480  12.075
60680W        W22134  16.110   8.369  13.997
60681W        W22135   7.251   0.873   3.749
60682W        W22136  17.695  34.471  11.515
60683W        W22137   0.935  25.166  14.319
60684W        W22138  25.666  30.601  11.566
60685W        W22139  19.589  40.334   4.812
60686W        W22140  22.128   4.290  13.017
60687W        W22141  44.483  15.651  14.927
60688W        W22142  22.098  30.611  11.980
60689W        W22143  37.851  36.907   4.783
60690W        W22144  16.245  27.592  11.978
60691W        W22145  39.441  27.579  10.452
60692W        W22146   6.763  29.559   3.690
60693W        W22147  16.219   9.291   1.420
60694W        W22148  12.807  19.103   2.220
60695W        W22149  39.420   5.904  14.879
60696W        W22150   5.901  19.185  10.893
60697W        W22151   2.284  17.614   2.290
60698W        W22152   4.226  39.844   0.948
60699W        W22153  13.818  36.438  14.384
60700W        W22154  21.215  33.546  12.899
60701W        W22155  35.380  17.174   2.391
60702W        W22156  31.055   8.404   0.387
60703W        W22157   0.931  32.455  12.945
60704W        W22158   4.788  19.561  11.889
60705W        W22159   7.710   9.311   4.785
60706W        W22160  42.374   4.395  14.808
60707W        W22161   7.711  37.838  14.374
60708W        W22162  32.077   1.462  14.873
60709W        W22163  10.856  14.684  14.786
60710W        W22164  10.220  30.973   2.731
60711W        W22165  38.054  14.130  14.483
60712W        W22166   5.861  39.829  13.314
60713W        W22167  43.484  30.639  11.091
60714W        W22168  42.999  23.074  10.543
60715W        W22169  37.428  26.172  13.525
60716W        W22170   5.289  14.622  10.447
60717W        W22171  44.779  27.612   4.133
60718W        W22172  29.137  41.443   3.694
60719W        W22173  42.500  44.486  11.091
60720W        W22174  21.049  15.760  11.505
60721W        W22175   2.436  32.557  13.011
60722W        W22176   2.851   2.227  11.929
60723W        W22177  30.456  44.999  10.618
60724W        W22178  41.526  11.801   4.829
60725W        W22179  18.679  23.604  11.610
60726W        W22180  39.417  25.171  14.444
60727W        W22181   3.265  20.142  12.579
60728W        W22182   7.206  12.639  14.031
60729W        W22183  29.657  21.192   1.218
60730W        W22184  31.028  29.551   2.818
60731W        W22185  19.743  23.042   3.215
60732W        W22186   7.825  25.130  11.944
60733W        W22187   5.406   8.187   4.301
60734W        W22188  19.213  43.907  13.359
60735W        W22189  26.623  27.495  14.814
60736W        W22190  17.118  17.251  11.916
60737W        W22191  42.886   3.731  11.025
60738W        W22192  24.156  19.134   4.197
60739W        W22193   9.778  19.583  14.439
60740W        W22194  26.629  26.464   4.158
60741W        W22195  30.160   8.274  10.531
60742W        W22196  16.183   6.851  14.928
60743W        W22197  35.562   7.889  14.491
60744W        W22198  28.100  23.179   4.744
60745W        W22199  39.426  16.658   3.177
60746W        W22200  35.967  40.311   5.696
60747W        W22201   0.484  32.470   4.672
60748W        W22202  30.135  17.188  14.471
60749W        W22203   7.726  25.712   0.432
60750W        W22204   1.332  31.080   3.266
60751W        W22205  38.538   3.368  14.894
60752W        W22206  35.377   2.941  12.495
60753W        W22207  10.353  42.784  14.444
60754W        W22208  31.037  25.138  11.467
60755W        W22209   9.204   3.444   3.224
60756W        W22210  29.454  41.510   4.662
60757W        W22211  13.771  32.527   0.752
60758W        W22212  44.900   6.286   1.853
60759W        W22213  17.267  17.568   0.408
60760W        W22214  38.826  33.100   4.708
60761W        W22215  33.569  22.677  11.559
60762W        W22216  30.653  38.967   4.647
60763W        W22217  17.748  30.444  12.374
60764W        W22218  37.375   0.976  14.884
60765W        W22219  39.533   0.875  14.905
60766W        W22220  37.554  37.950   4.329
60767W        W22221   1.742  15.688   0.437
60768W        W22222   7.867  41.874  14.274
60769W        W22223   3.864  44.384  11.110
60770W        W22224  30.086  31.982  13.311
60771W        W22225  15.610   0.943   1.764
60772W        W22226  14.826  12.730   0.341
60773W        W22227  16.108   9.177   4.340
60774W        W22228  25.218  31.408   0.735
60775W        W22229   6.826  26.008   0.820
60776W        W22230  37.541  34.423   9.991
60777W        W22231  30.570   3.292  10.095
60778W        W22232   9.227  10.657   4.201
60779W        W22233  40.861  37.885   3.215
60780W        W22234   4.251  13.805  14.324
60781W        W22235   5.763  29.136   1.865
60782W        W22236   6.770  19.235   0.324
60783W        W22237  11.807  37.074   3.667
60784W        W22238  35.076  28.478   4.740
60785W        W22239  25.032   0.885  12.867
60786W        W22240  27.186  19.176  12.509
60787W        W22241  29.976  12.623   2.396
60788W        W22242  15.140  44.814  12.941
60789W        W22243  26.673  13.831   0.311
60790W        W22244  33.543  40.899  11.057
60791W        W22245   6.340  21.256   1.234
60792W        W22246  38.363  14.108  12.023
60793W        W22247  41.790  24.600   3.316
60794W        W22248  26.680  12.616  12.047
60795W        W22249   6.691  17.744  12.891
60796W        W22250  25.982  38.442   4.316
60797W        W22251  33.451   4.944   1.851
60798W        W22252  44.994   4.916  12.074
60799W        W22253  29.119  39.044   0.961
60800W        W22254  22.221  13.814  10.523
60801W        W22255  41.037  37.514  10.063
60802W        W22256   5.749  34.483   4.162
60803W        W22257  26.694  10.638   2.215
60804W        W22258  30.131  15.772  10.442
60805W        W22259  25.580  35.515   2.830
60806W        W22260  18.678  19.141  10.911
60807W        W22261  32.915  43.915   3.751
60808W        W22262  41.903  22.515  14.484
60809W        W22263   9.728  25.117   1.861
60810W        W22264  44.831  14.254  10.989
60811W        W22265  25.966  27.139  13.842
60812W        W22266  17.234  36.466  11.496
60813W        W22267  31.076   7.318  13.511
60814W        W22268   7.193  25.023   1.905
60815W        W22269  20.091  12.621  10.508
60816W        W22270   6.825  36.054  13.501
60817W        W22271  25.677   0.827   4.785
60818W        W22272   4.375  15.194   4.347
60819W        W22273  22.679  23.694   2.259
60820W        W22274  39.052  20.166  10.463
60821W        W22275  38.044   2.426   4.321
60822W        W22276  44.878  23.729  14.848
60823W        W22277  41.294   9.222   0.785
60824W        W22278  17.579  29.004  12.823
60825W        W22279  21.239  12.342  10.994
60826W        W22280  21.633  30.158  14.492
60827W        W22281  42.906  29.109   9.939
60828W        W22282  18.247  32.012   1.302
60829W        W22283  25.218  23.182  11.949
60830W        W22284  36.959  30.514   1.711
60831W        W22285  10.682  16.609   1.855
60832W        W22286  15.202  11.766   3.341
60833W        W22287  31.590  17.266  14.837
60834W        W22288  19.548   4.264   3.664
60835W        W22289  22.611  42.959   5.159
60836W        W22290  20.567  28.103  11.933
60837W        W22291   9.706  26.673  11.100
60838W        W22292   2.741  30.627   1.308
60839W        W22293  27.971  17.793   0.785
60840W        W22294  24.592  35.989  11.413
60841W        W22295   0.487  18.721   3.650
60842W        W22296  24.583  33.895  14.805
60843W        W22297   2.242  14.736  13.532
60844W        W22298  20.731  39.435   2.847
60845W        W22299   4.919  10.147  11.399
60846W        W22300  16.234  35.967   3.204
60847W        W22301  13.698   9.149   3.272
60848W        W22302  38.327  32.092   3.716
60849W        W22303   2.433  43.274  11.430
60850W        W22304  37.394  26.036   2.316
60851W        W22305  19.615  30.106   1.407
60852W        W22306   2.939  39.031  13.015
60853W        W22307  24.583   7.198  13.483
60854W        W22308  23.024  29.096  11.912
60855W        W22309  43.019  31.592  11.387
60856W        W22310  16.808  19.576   1.299
60857W        W22311   3.406   2.814   3.709
60858W        W22312  28.567  44.791  11.918
60859W        W22313  30.028  40.464   2.374
60860W        W22314   7.692  20.586  10.918
60861W        W22315   5.855   7.908   3.870
60862W        W22316   9.345  24.115  13.801
60863W        W22317  23.023   2.829   2.787
60864W        W22318  19.606   8.713  13.045
60865W        W22319  10.206  24.043   1.350
60866W        W22320  28.040  12.795   0.742
60867W        W22321  22.151  34.485   0.412
60868W        W22322   7.835   8.690   3.351
60869W        W22323  21.098  37.521  11.472
60870W        W22324  36.869  44.969  12.044
60871W        W22325  21.678  26.550  10.437
60872W        W22326   6.349  10.286  11.909
60873W        W22327  31.976  43.889  12.005
60874W        W22328  11.808  39.375   1.754
60875W        W22329   3.351  13.283  10.946
60876W        W22330   9.757   2.733   0.345
60877W        W22331   9.347  38.530   2.286
60878W        W22332  28.957  34.871  14.895
60879W        W22333  11.631  24.725   2.887
60880W        W22334   6.381  27.474  14.479
60881W        W22335  32.472  22.216  14.423
60882W        W22336  22.114   7.263   2.674
60883W        W22337  15.604  16.093  12.998
60884W        W22338  23.170   2.821   2.275
60885W        W22339  33.604   1.881   2.237
60886W        W22340  33.004  14.292   1.826
60887W        W22341   8.673  27.599  12.058
60888W        W22342  44.926   5.374   4.305
60889W        W22343  12.143  16.752   4.213
60890W        W22344  10.280  40.911   2.762
60891W        W22345  32.422   8.713  10.959
60892W        W22346  21.202  27.167  13.945
60893W        W22347   9.207  39.027  10.547
60894W        W22348  38.481  18.618   2.871
60895W        W22349  42.992  12.239   0.372
60896W        W22350   2.962  35.059  12.052
60897W        W22351  24.545   6.271  13.967
60898W        W22352  38.036  42.962   4.766
60899W        W22353  13.836  10.353  12.926
60900W        W22354  19.629  34.102  14.336
60901W        W22355  22.595  43.967  13.808
60902W        W22356  18.291  14.339  14.299
60903W        W22357  34.439  31.121   1.348
60904W        W22358  25.080  30.932  11.002
60905W        W22359  18.148  27.117  14.460
60906W        W22360  40.021  18.734   3.651
60907W        W22361  11.359  33.029  11.896
60908W        W22362   9.777  15.102  12.000
60909W        W22363  44.909  15.290   1.706
60910W        W22364  33.595  35.094   3.674
60911W        W22365  40.891  13.644   3.705
60912W        W22366   6.395   2.302   0.737
60913W        W22367   0.320  17.712  11.884
60914W        W22368  30.990  26.202  11.375
60915W        W22369  17.151  18.232  11.410
60916W        W22370  37.434  40.529  14.027
60917W        W22371  13.642  11.356   4.646
60918W        W22372  43.001   1.960   0.829
60919W        W22373  32.588  17.255  11.467
60920W        W22374  35.463  28.512  13.049
60921W        W22375   4.297   2.777   2.725
60922W        W22376   9.716  34.397   3.741
60923W        W22377  27.551   4.207   2.359
60924W        W22378  18.621   3.737   1.705
60925W        W22379  35.512  12.140   4.224
60926W        W22380  10.699  18.188   9.592
60927W        W22381  42.441  31.057  14.492
60928W        W22382  38.358  24.539  13.483
60929W        W22383   0.439  19.668  11.095
60930W        W22384  24.485  43.476  11.394
60931W        W22385  27.049   4.765   0.356
60932W        W22386  26.484  44.498   2.755
60933W        W22387  32.123  16.290  12.933
60934W        W22388  14.697  11.132  13.864
60935W        W22389  29.634  21.238  13.011
60936W        W22390  44.865  14.717  13.050
60937W        W22391   1.771   4.894   0.963
60938W        W22392   2.416  37.448   4.747
60939W        W22393  17.623  28.447   2.802
60940W        W22394  31.453   4.406   3.666
60941W        W22395  23.180   8.783  12.026
60942W        W22396   6.224   6.333  14.491
60943W        W22397  34.096   5.925  10.892
60944W        W22398  32.079  21.240   1.891
60945W        W22399  41.992   8.784  12.843
60946W        W22400   9.237  18.120   3.264
60947W        W22401  16.298  30.138   2.267
60948W        W22402   0.966  21.102  12.036
60949W        W22403  14.241  23.625  11.412
60950W        W22404  12.237  16.170   1.442
60951W        W22405  14.146  20.649   0.853
60952W        W22406   0.812  20.550  11.065
60953W        W22407  38.060  21.031  13.929
60954W        W22408  26.202  24.600  11.392
60955W        W22409  18.683  24.208   2.217
60956W        W22410  44.498   3.258  12.379
60957W        W22411  36.451  42.330   0.327
60958W        W22412  20.559  15.298   4.609
60959W        W22413  13.684  34.921   0.371
60960W        W22414   1.815  21.262  13.947
60961W        W22415  42.303  21.712   0.771
60962W        W22416  31.958  15.706   3.833
60963W        W22417  42.460  36.503  10.417
60964W        W22418   1.256  16.763  13.482
60965W        W22419  13.763   9.792  12.535
60966W        W22420  43.407  43.446  14.342
60967W        W22421  34.921  28.137   4.761
60968W        W22422  21.046   6.816  14.344
60969W        W22423  17.602   4.343  13.314
60970W        W22424   7.784  21.747   2.186
60971W        W22425  22.044  17.210  12.843
60972W        W22426  18.587  35.408   3.291
60973W        W22427  28.662  36.863  10.629
60974W        W22428  43.863  28.150   3.269
60975W        W22429  30.935  39.458  11.874
60976W        W22430   8.395   2.242  10.571
60977W        W22431  26.075  21.263  10.896
60978W        W22432   6.297  30.447   5.132
60979W        W22433  12.852   3.900   2.362
60980W        W22434  16.140   0.255   4.823
60981W        W22435  37.393  28.437  11.025
60982W        W22436   4.366  39.917   2.222
60983W        W22437  10.255  33.883   3.221
60984W        W22438  23.000   4.244  13.475
60985W        W22439   3.794  42.437   2.849
60986W        W22440  13.742  13.280   4.642
60987W        W22441  17.720  43.362   1.390
60988W        W22442  21.639  23.578  14.406
60989W        W22443   9.169  40.525  11.080
60990W        W22444   5.324  41.536   4.638
60991W        W22445  29.922  31.985   1.283
60992W        W22446  40.524  18.550  11.886
60993W        W22447  42.005  19.575  13.342
60994W        W22448   4.449  25.523   0.292
60995W        W22449  30.083  43.821  12.911
60996W        W22450  27.048   7.286   4.661
60997W        W22451  41.908   5.257  10.608
60998W        W22452  15.194  39.544  14.402
60999W        W22453  28.595  27.069  10.523
61000W        W22454   0.884   2.250   4.347
61001W        W22455   2.428  29.147  12.407
61002W        W22456  10.379  36.086   2.185
61003W        W22457  40.529   3.908   1.301
61004W        W22458  42.892  18.693  11.497
61005W        W22459  37.833  40.913   1.370
61006W        W22460  23.984  24.113  14.296
61007W        W22461  34.099  14.337   3.193
61008W        W22462  21.682   7.379   0.815
61009W        W22463  25.181   0.958  14.909
61010W        W22464  39.446   1.444  12.058
61011W        W22465  27.471  26.139   2.355
61012W        W22466  36.911  24.089   3.146
61013W        W22467  41.043  39.511   5.312
61014W        W22468  36.052  18.623   4.835
61015W        W22469  37.070  43.358   0.339
61016W        W22470  13.823  40.935  12.440
61017W        W22471  44.793  14.292  13.973
61018W        W22472  32.532  18.146   3.190
61019W        W22473   8.850  27.496  14.370
61020W        W22474  26.524   3.770  13.398
61021W        W22475  23.175   5.926  14.864
61022W        W22476  26.002   8.282   2.397
61023W        W22477   1.257  33.571   4.343
61024W        W22478  18.134  43.396   3.735
61025W        W22479  35.495  35.870  14.482
61026W        W22480  37.504   3.316  10.428
61027W        W22481  25.601   9.392  13.799
61028W        W22482  43.415   0.899  12.433
61029W        W22483  31.932   2.836   2.288
61030W        W22484  36.846  38.862  10.967
61031W        W22485  27.169  39.990  13.518
61032W        W22486  36.081  11.308  12.072
61033W        W22487   4.244   4.312  14.299
61034W        W22488  34.590   8.176  13.344
61035W        W22489   3.350   4.260  10.623
61036W        W22490   9.216  31.628   3.663
61037W        W22491  10.825  38.505   2.215
61038W        W22492  12.806  44.009  14.320
61039W        W22493  42.846  29.076  11.105
61040W        W22494  37.036  43.466   1.250
61041W        W22495  41.939   5.427   4.217
61042W        W22496  36.369  22.590   0.359
61043W        W22497  10.672   4.869   1.269
61044W        W22498   3.456  37.948   3.816
61045W        W22499  17.700  39.887  11.608
61046W        W22500  14.658   7.787  14.023
61047W        W22501  29.025  14.232   1.884
61048W        W22502  37.835  43.813   0.790
61049W        W22503  42.449  34.615   4.195
61050W        W22504  36.091  44.902   2.362
61051W        W22505  21.218   5.933   5.103
61052W        W22506  40.919  16.127  12.399
61053W        W22507  35.507   9.198  14.503
61054W        W22508   5.727  20.201   2.279
61055W        W22509  14.190  37.028   3.179
61056W        W22510   1.445   2.735   2.184
61057W        W22511   0.785  37.970  13.885
61058W        W22512  34.924   0.337  12.376
61059W        W22513  19.039  28.678   1.768
61060W        W22514  26.550  44.435  13.990
61061W        W22515  32.988  41.376   4.338
61062W        W22516  13.181  35.452   3.240
61063W        W22517  37.874  25.671  10.534
61064W        W22518  11.675  41.332   1.349
61065W        W22519   1.274  23.531  10.585
61066W        W22520  10.195  14.140   0.280
61067W        W22521   8.785  27.176  13.535
61068W        W22522  19.191  17.760   3.866
61069W        W22523   5.306  27.513  14.810
61070W        W22524   6.189  16.230   1.769
61071W        W22525  36.873  44.347   3.737
61072W        W22526  37.450  31.485  13.912
61073W        W22527  31.998  13.670   1.893
61074W        W22528   8.678  15.782   0.385
61075W        W22529  39.042  15.130  10.499
61076W        W22530   8.868  25.552  13.477
61077W        W22531  33.118   4.749  12.533
61078W        W22532  19.238  20.195  11.468
61079W        W22533  37.542   2.953  13.038
61080W        W22534  29.459  19.183   3.655
61081W        W22535  40.921   9.343   4.760
61082W        W22536  33.920  22.562   0.881
61083W        W22537  13.133   5.783   3.263
61084W        W22538  14.682  34.905   2.290
61085W        W22539  22.573  17.721   0.368
61086W        W22540  43.474  38.433   4.195
61087W        W22541  24.027  44.971  11.876
61088W        W22542   3.819  25.040   0.253
61089W        W22543  41.991  18.723   0.367
61090W        W22544  43.850   2.789  13.013
61091W        W22545  23.231  25.116  12.499
61092W        W22546  21.668  23.076  14.870
61093W        W22547  29.090  43.388  13.047
61094W        W22548   4.340   1.341  13.861
61095W        W22549  17.579  29.105  10.592
61096W        W22550   5.358  30.145  11.558
61097W        W22551   0.981  18.784  10.626
61098W        W22552  30.110  29.631   2.283
61099W        W22553  39.038   2.793   4.748
61100W        W22554  24.722   5.234   1.930
61101W        W22555  17.786   8.841  14.772
61102W        W22556  35.549  27.969   0.940
61103W        W22557  41.485  27.152  10.541
61104W        W22558  19.236   5.337  11.095
61105W        W22559  29.655  33.521   0.317
61106W        W22560  17.765  41.971  14.892
61107W        W22561  29.932  32.962   0.253
61108W        W22562  14.257  44.844  12.397
61109W        W22563  35.002  19.549  12.418
61110W        W22564  44.944   5.697   0.868
61111W        W22565  17.731  36.371   1.761
61112W        W22566  23.620  23.679  11.563
61113W        W22567  26.146   5.271   3.385
61114W        W22568  29.548   6.247  12.857
61115W        W22569  20.219  19.096  10.533
61116W        W22570  16.103  27.570  13.998
61117W        W22571  28.974  43.011  12.482
61118W        W22572   9.787  25.002  13.833
61119W        W22573  27.619  39.519  14.368
61120W        W22574  29.994  12.291   0.436
61121W        W22575  28.140  30.566   1.876
61122W        W22576  18.089   0.492  14.288
61123W        W22577  18.605   4.216   0.922
61124W        W22578  22.669   4.407  14.449
61125W        W22579   2.946  31.110  12.022
61126W        W22580  32.455  14.812   1.288
61127W        W22581  12.670  34.957  10.969
61128W        W22582  18.641  41.296   0.780
61129W        W22583  40.813  26.469   1.430
61130W        W22584  27.001  27.622  10.643
61131W        W22585  26.649   6.184  13.380
61132W        W22586  32.055  36.051  13.959
61133W        W22587  19.687  21.689  13.455
61134W        W22588  26.573  19.542  12.925
61135W        W22589  19.123  44.420  12.055
61136W        W22590  34.972  17.597   0.312
61137W        W22591  31.621  32.119   3.852
61138W        W22592  11.324  10.311  12.093
61139W        W22593  14.653  16.596  10.037
61140W        W22594   2.335   2.425   2.860
61141W        W22595  31.109  20.735   0.371
61142W        W22596   9.788  17.257   5.625
61143W        W22597  11.204  16.242  12.038
61144W        W22598  17.668  23.724  10.534
61145W        W22599   7.255   0.413  12.090
61146W        W22600  28.569  10.335  10.455
61147W        W22601   2.744  32.587  12.836
61148W        W22602  28.626  38.997  14.838
61149W        W22603  15.085  23.126   2.265
61150W        W22604  20.234  19.122   1.798
61151W        W22605  34.528  37.022  13.039
61152W        W22606  10.708  35.907   2.711
61153W        W22607  31.608  27.041  11.573
61154W        W22608   9.260  11.851  12.021
61155W        W22609  41.907  17.245   2.230
61156W        W22610  16.699  13.234  12.058
61157W        W22611  12.837  21.625   5.249
61158W        W22612   5.289  32.130   1.911
61159W        W22613  33.953  35.404   4.170
61160W        W22614  30.640  31.152   4.706
61161W        W22615   4.849  35.555  12.862
61162W        W22616  17.110  38.555  14.918
61163W        W22617  13.326  40.925  13.928
61164W        W22618  25.620   5.911   3.659
61165W        W22619  14.732  23.698   0.949
61166W        W22620  14.229   5.310   4.622
61167W        W22621  20.589  21.662  11.980
61168W        W22622   7.244  33.081  14.821
61169W        W22623  39.553  24.196   4.208
61170W        W22624  21.522  39.961  12.421
61171W        W22625  36.061  14.596  10.557
61172W        W22626   8.770  42.482  10.410
61173W        W22627  12.814  38.830  11.860
61174W        W22628  40.850  31.551   0.881
61175W        W22629   8.329   1.876   2.759
61176W        W22630  27.062  37.536  14.481
61177W        W22631   8.888   2.370  14.927
61178W        W22632   9.870  20.056   2.236
61179W        W22633  36.954  38.859   4.213
61180W        W22634  30.536   3.259  13.392
61181W        W22635  40.895  14.606  12.501
61182W        W22636   2.470  14.201   4.717
61183W        W22637   8.341  44.000  12.557
61184W        W22638   7.764   3.846   3.816
61185W        W22639  16.191  40.423  10.948
61186W        W22640  36.465  29.563  13.847
61187W        W22641  39.453  13.777  11.477
61188W        W22642  19.162  14.119   0.888
61189W        W22643  18.666  14.246  14.280
61190W        W22644  36.431  24.012   1.864
61191W        W22645  13.819  30.531   0.284
61192W        W22646  39.440   4.211  12.829
61193W        W22647  11.797  38.383  14.016
61194W        W22648  24.718  39.846  14.419
61195W        W22649  37.361  43.991  12.348
61196W        W22650  20.257  27.121  13.494
61197W        W22651  44.854  30.534   0.264
61198W        W22652  33.612  13.323  14.839
61199W        W22653  20.523  15.800  13.521
61200W        W22654   7.316  33.421   3.194
61201W        W22655  44.460   1.262  13.309
61202W        W22656  16.253  15.183  11.991
61203W        W22657  39.013  32.503   2.750
61204W        W22658  15.651   0.982   2.319
61205W        W22659  21.033  16.686  10.605
61206W        W22660  36.528  33.986   3.728
61207W        W22661  16.302   5.887   2.881
61208W        W22662  18.104  37.339   3.222
61209W        W22663  16.251  28.594  11.415
61210W        W22664   1.958  41.468   2.781
61211W        W22665  36.544  28.175   3.662
61212W        W22666   7.842  37.335  10.902
61213W        W22667  37.083  36.910   0.883
61214W        W22668  30.586   3.896   3.169
61215W        W22669  38.820  32.424  12.442
61216W        W22670   6.860  35.580   0.384
61217W        W22671   3.216  39.958  12.546
61218W        W22672  34.545   2.730  14.936
61219W        W22673  44.999  31.148   2.868
61220W        W22674  15.125  19.586  13.329
61221W        W22675  12.353   3.777  12.045
61222W        W22676  18.107  21.610  10.894
61223W        W22677  37.043   4.834   4.119
61224W        W22678  37.380   6.766   1.352
61225W        W22679  23.078  31.000   4.176
61226W        W22680  31.538  42.375  11.041
61227W        W22681  28.063   4.920  13.363
61228W        W22682  43.324  38.883  12.433
61229W        W22683  33.473  19.750  14.017
61230W        W22684  38.500  23.555   1.257
61231W        W22685  19.747  40.424  10.454
61232W        W22686  37.021  37.459  10.444
61233W        W22687  18.768  28.526   3.719
61234W        W22688  28.152  32.636   0.457
61235W        W22689   8.769  37.024  13.542
61236W        W22690  28.586  44.416  11.546
61237W        W22691  43.361  27.105  13.354
61238W        W22692  28.026   1.353  13.001
61239W        W22693   9.184  18.633   3.690
61240W        W22694  32.399  17.647  12.383
61241W        W22695   5.878  29.427  14.361
61242W        W22696   5.300  16.654  14.449
61243W        W22697  43.978   1.751  10.462
61244W        W22698  15.219   7.381   1.823
61245W        W22699  21.523   5.817   5.297
61246W        W22700   1.296   5.765   0.809
61247W        W22701  27.482  23.614   3.771
61248W        W22702  19.600  36.590   4.182
61249W        W22703  37.051  28.164   4.186
61250W        W22704  10.694  35.853   4.198
61251W        W22705  28.027  15.305   4.786
61252W        W22706  44.754   0.482  13.017
61253W        W22707  24.094  22.121  13.947
61254W        W22708   5.403  31.042  12.891
61255W        W22709  16.255  19.657  11.518
61256W        W22710  31.475   0.866   2.772
61257W        W22711  26.557   7.898   1.712
61258W        W22712  31.898  41.382  11.394
61259W        W22713   9.262  10.378  13.365
61260W        W22714  21.639  14.332  14.498
61261W        W22715  15.772  41.800  13.846
61262W        W22716  21.751  13.745  10.474
61263W        W22717   0.781  25.049   1.851
61264W        W22718  15.208   0.754   1.783
61265W        W22719  42.296  15.143  14.833
61266W        W22720   1.432  17.560  13.519
61267W        W22721  27.066  13.701  11.120
61268W        W22722  24.593  26.650  12.372
61269W        W22723   0.875  39.857  10.939
61270W        W22724  19.169  34.018  10.895
61271W        W22725  40.483  37.910   1.303
61272W        W22726  40.851  34.887   0.898
61273W        W22727  37.983  15.623   3.259
61274W        W22728   0.964  31.079  11.054
61275W        W22729  40.806  28.002   1.726
61276W        W22730  38.070  35.381  14.897
61277W        W22731   7.246  38.435   2.330
61278W        W22732  42.399  10.798  13.356
61279W        W22733  21.590  30.609   1.908
61280W        W22734  32.140  17.191  14.974
61281W        W22735  20.037  25.601   0.413
61282W        W22736  16.173   8.287   3.774
61283W        W22737   7.676  44.492  13.983
61284W        W22738  10.377  20.255  13.884
61285W        W22739   3.947  32.923   3.294
61286W        W22740  41.317  11.137   2.387
61287W        W22741  10.356  29.579  14.018
61288W        W22742  39.942  18.736   0.834
61289W        W22743  28.066  22.737   4.217
61290W        W22744  25.090  19.250  12.561
61291W        W22745  26.023  16.150  14.005
61292W        W22746   5.812  42.336  13.906
61293W        W22747  12.121  35.370  14.967
61294W        W22748  25.115   7.345   4.146
61295W        W22749  44.394  29.443   0.265
61296W        W22750  42.878  33.565   4.745
61297W        W22751   5.881  31.062   1.902
61298W        W22752  36.499  15.212  10.619
61299W        W22753  43.291  27.451   0.948
61300W        W22754  38.074   1.768   1.230
61301W        W22755   4.438   8.812   3.237
61302W        W22756   4.733  10.819  14.810
61303W        W22757  14.103  18.146  13.831
61304W        W22758  32.993   6.830   1.434
61305W        W22759   0.294  41.955   0.881
61306W        W22760  23.705  11.319   0.464
61307W        W22761  29.000  22.157   3.661
61308W        W22762   8.713  29.144  11.918
61309W        W22763   4.738  43.297   5.261
61310W        W22764  32.421  27.542   4.276
61311W        W22765  20.076  23.060   2.739
61312W        W22766   1.765   7.230   0.310
61313W        W22767   5.386  10.836  11.899
61314W        W22768   9.667  24.532  10.911
61315W        W22769  19.699  42.848   0.248
61316W        W22770  25.541   2.401  12.866
61317W        W22771  12.700  33.070   0.441
61318W        W22772  37.449  40.349   0.795
61319W        W22773  36.891   8.772  11.607
61320W        W22774   3.920  27.086   2.255
61321W        W22775  34.451  39.439  14.864
61322W        W22776  39.989  21.538  12.913
61323W        W22777  36.504  12.633  10.451
61324W        W22778  41.431  13.197  10.421
61325W        W22779  35.600  36.363  12.458
61326W        W22780  30.614  39.945  14.425
61327W        W22781  37.878  10.265  12.424
61328W        W22782  11.624  44.328  14.442
61329W        W22783  42.333  42.445  10.567
61330W        W22784  37.580  19.097  12.900
61331W        W22785  13.816  22.695   0.912
61332W        W22786  21.112   0.357   1.735
61333W        W22787  26.115  22.100  10.887
61334W        W22788  31.572  14.752  10.932
61335W        W22789   2.316  28.942   1.309
61336W        W22790  41.355  41.420  10.571
61337W        W22791  36.453  19.644  12.914
61338W        W22792  36.974  37.562   1.711
61339W        W22793  26.623  14.300  14.392
61340W        W22794  17.574  42.396   3.192
61341W        W22795   7.412  11.281   2.189
61342W        W22796  30.980  23.005   5.231
61343W        W22797  22.248   7.186  14.799
61344W        W22798  12.187  13.129   1.406
61345W        W22799  28.487  33.396  13.404
61346W        W22800  16.619  21.724  11.029
61347W        W22801  40.873  22.627  11.899
61348W        W22802   2.314  24.627  13.944
61349W        W22803  21.177  32.442   1.898
61350W        W22804  42.451  41.892   4.211
61351W        W22805  29.978   2.311   2.397
61352W        W22806   6.200  13.179   2.663
61353W        W22807  35.015   0.864  10.107
61354W        W22808  42.423  17.162  11.001
61355W        W22809  13.622  43.478   5.160
61356W        W22810  25.083  35.912   3.776
61357W        W22811  20.534  25.098  12.871
61358W        W22812  34.452  10.236   3.278
61359W        W22813  31.976  41.508  10.595
61360W        W22814  24.196  19.541   3.695
61361W        W22815  41.445  24.994  13.899
61362W        W22816  31.504  34.481  10.614
61363W        W22817  15.816  38.865  14.914
61364W        W22818  30.102  11.850   0.842
61365W        W22819  25.070   3.830  10.154
61366W        W22820  44.962  26.079   1.796
61367W        W22821   6.227  18.067   4.699
61368W        W22822   3.770  18.165  13.537
61369W        W22823  19.653   0.846  10.630
61370W        W22824  11.813  12.690   1.843
61371W        W22825  33.101   3.286  13.971
61372W        W22826  26.106  31.610  11.864
61373W        W22827  28.010  44.313   3.714
61374W        W22828   8.367  35.490  11.976
61375W        W22829  26.574  27.109  14.993
61376W        W22830   7.823  28.446  12.826
61377W        W22831  28.533  39.513   0.372
61378W        W22832   3.735   2.248   1.931
61379W        W22833  19.169   8.655  10.499
61380W        W22834  16.230  10.268  14.858
61381W        W22835  35.360  38.963   3.760
61382W        W22836   2.966  22.570  13.401
61383W        W22837   4.446  42.939   0.377
61384W        W22838  12.616   7.848   4.242
61385W        W22839   3.247  23.988   3.753
61386W        W22840  34.100  20.036   3.156
61387W        W22841  35.435  37.061  13.394
61388W        W22842  44.330   3.808  12.028
61389W        W22843   4.763  17.669   0.248
61390W        W22844  16.736  20.740  13.998
61391W        W22845  37.997  41.327   3.738
61392W        W22846  20.136  37.550   3.733
61393W        W22847  15.189  13.325  14.769
61394W        W22848  24.631   5.896  10.461
61395W        W22849   7.313  36.534   2.879
61396W        W22850  24.009   6.772   0.855
61397W        W22851  22.249  24.491   2.278
61398W        W22852  31.107  21.578  10.475
61399W        W22853  42.807  28.515  12.507
61400W        W22854  15.621  27.115  13.045
61401W        W22855  22.015  18.643   2.742
61402W        W22856  29.532   5.439   1.304
61403W        W22857  19.285   6.787   1.802
61404W        W22858  11.332  32.066  14.880
61405W        W22859  26.156  32.081   1.829
61406W        W22860  27.104  36.996  14.878
61407W        W22861  12.254  39.814  12.543
61408W        W22862  17.789  24.004   1.882
61409W        W22863  33.569  24.026   2.185
61410W        W22864  13.237  32.492   4.234
61411W        W22865  32.452   0.868  12.905
61412W        W22866  33.546  32.493  13.912
61413W        W22867  23.608   9.708  13.528
61414W        W22868   8.659  16.625  13.976
61415W        W22869  41.949  30.154   4.238
61416W        W22870  37.462  16.310  12.555
61417W        W22871  35.921   1.758  14.812
61418W        W22872  29.429   3.308   4.228
61419W        W22873  25.665  36.404  13.049
61420W        W22874  32.486  13.348  14.293
61421W        W22875   5.748  36.851  14.906
61422W        W22876  44.472  43.968   1.811
61423W        W22877   5.816  39.434   1.743
61424W        W22878  30.977   5.731   2.781
61425W        W22879  22.080  34.983  11.437
61426W        W22880  12.312  21.047  12.526
61427W        W22881  21.535  21.018  11.494
61428W        W22882  20.062   2.936  10.586
61429W        W22883  33.090   5.693  12.917
61430W        W22884  16.768  24.018  11.028
61431W        W22885  40.986  39.503  13.995
61432W        W22886  37.455  36.007   3.264
61433W        W22887  43.480  36.441  12.478
61434W        W22888  30.621  35.890   4.226
61435W        W22889  40.351  35.069   4.185
61436W        W22890  14.215  22.086   4.796
61437W        W22891  34.521  41.042   0.854
61438W        W22892   6.761  16.796   2.323
61439W        W22893  18.709  20.243  10.615
61440W        W22894   5.750  19.666  11.093
61441W        W22895  25.651   3.441  13.437
61442W        W22896  39.536  27.599   4.614
61443W        W22897  23.126  20.768   3.687
61444W        W22898  14.688   8.796   3.159
61445W        W22899  28.135  43.960   3.363
61446W        W22900  38.965  33.038   0.849
61447W        W22901  24.977   6.405   4.649
61448W        W22902   9.734  17.657  13.440
61449W        W22903  18.067   6.822   2.808
61450W        W22904  28.644  31.935   2.343
61451W        W22905  20.527  35.456  12.403
61452W        W22906  11.147   9.808   0.778
61453W        W22907   4.212  11.632  14.832
61454W        W22908   1.268  23.106  14.927
61455W        W22909   9.339  16.255  10.591
61456W        W22910  26.172  30.036   3.694
61457W        W22911  40.835  24.539   2.670
61458W        W22912  20.272  23.169   4.175
61459W        W22913   7.377  25.000  11.038
61460W        W22914   4.777   1.301  11.912
61461W        W22915  41.509  37.051   4.257
61462W        W22916  40.374  25.016   4.299
61463W        W22917  10.207   1.295  11.110
61464W        W22918  28.115  27.614   1.244
61465W        W22919   0.866  42.359  12.944
61466W        W22920  30.106  10.677   1.897
61467W        W22921  16.120  41.352  13.001
61468W        W22922  19.178  41.847  14.002
61469W        W22923  29.995  33.888  13.403
61470W        W22924  41.449  21.640   1.832
61471W        W22925  31.510   9.367  14.018
61472W        W22926  42.033  32.060   3.194
61473W        W22927  18.702   9.687   0.312
61474W        W22928   1.765  43.882  13.041
61475W        W22929  38.905  20.633   0.343
61476W        W22930  21.086   5.876  12.458
61477W        W22931  25.985  36.962  13.308
61478W        W22932   8.885  33.462   4.137
61479W        W22933   8.711   4.429  14.814
61480W        W22934  26.513  19.220  10.897
61481W        W22935  18.586  22.625   3.797
61482W        W22936  32.395  17.191  13.308
61483W        W22937  26.618  29.453   0.738
61484W        W22938   7.174  20.252  11.871
61485W        W22939   1.808  29.439  13.495
61486W        W22940  30.579  32.941   1.328
61487W        W22941  44.276  37.516   3.319
61488W        W22942   8.707   9.857  11.411
61489W        W22943  21.083  10.644  14.513
61490W        W22944  29.093  32.428  11.010
61491W        W22945   8.693  11.697   3.267
61492W        W22946  34.867  24.605   1.400
61493W        W22947  39.990  41.033  12.345
61494W        W22948  24.001  24.654  13.057
61495W        W22949  31.102  25.214   4.617
61496W        W22950   1.280   5.397   3.754
61497W        W22951   8.246  13.314  12.097
61498W        W22952  30.993   8.360  12.531
61499W        W22953  23.491  33.924   4.757
61500W        W22954   0.871   8.767   1.250
61501W        W22955  19.110  16.200   4.782
61502W        W22956  30.635  14.094   5.266
61503W        W22957  43.008  21.158  11.000
61504W        W22958  44.320  11.144   0.884
61505W        W22959  35.547   4.841   0.256
61506W        W22960  28.094  24.993  14.014
61507W        W22961  38.429   5.770  14.933
61508W        W22962  26.033  34.100  12.533
61509W        W22963  37.356  16.574   4.294
61510W        W22964  43.013  10.238  13.835
61511W        W22965  39.052  24.042   5.302
61512W        W22966  28.571  17.734   1.923
61513W        W22967  26.605  37.928  12.995
61514W        W22968  21.569  42.946   1.234
61515W        W22969  32.096  43.978  10.589
61516W        W22970  39.466  10.248  10.612
61517W        W22971  27.003  23.097   3.725
61518W        W22972   4.318   9.692   3.372
61519W        W22973  17.641  24.549   0.920
61520W        W22974  33.543  22.076  13.044
61521W        W22975  14.692  24.121  13.053
61522W        W22976  31.646  35.466  14.797
61523W        W22977  29.097  41.869  10.464
61524W        W22978  13.756   3.937  11.415
61525W        W22979  31.952  34.477   9.996
61526W        W22980  27.091  10.799   3.782
61527W        W22981  39.501  35.431  14.906
61528W        W22982   0.751  26.194   1.720
61529W        W22983  13.189   6.786   2.269
61530W        W22984  22.121   4.853   4.695
61531W        W22985   7.900  10.685  14.829
61532W        W22986  16.779  22.557   2.199
61533W        W22987  11.742  21.212  14.419
61534W        W22988  23.087  35.920   2.284
61535W        W22989  34.894  28.618   2.325
61536W        W22990  15.270   0.385   4.789
61537W        W22991  44.891  21.701  11.102
61538W        W22992  36.495  19.048  10.494
61539W        W22993  25.474  42.413   0.455
61540W        W22994  27.097  37.483  14.839
61541W        W22995   3.418  43.312  12.495
61542W        W22996  27.129  36.880   0.731
61543W        W22997   7.376  14.218  12.526
61544W        W22998  26.475  23.724   0.861
61545W        W22999   9.742  33.087  13.520
61546W        W23000  29.072   6.262  12.096
61547W        W23001  21.677  17.629   3.352
61548W        W23002   2.768  30.484  11.510
61549W        W23003  10.283   2.941   4.672
61550W        W23004   3.259  30.124   3.179
61551W        W23005   3.392   5.213  14.323
61552W        W23006  10.203  41.452   3.800
61553W        W23007  23.159  32.492  10.951
61554W        W23008   5.373  42.938   3.159
61555W        W23009  11.250  16.235  14.800
61556W        W23010  38.376  41.495  13.457
61557W        W23011   0.272  31.974  12.953
61558W        W23012  16.317  34.465  14.930
61559W        W23013   1.800  25.597   2.358
61560W        W23014  22.541  14.648   3.379
61561W        W23015  11.761   8.265   3.188
61562W        W23016  40.367  24.534   4.227
61563W        W23017  24.495   4.918   0.901
61564W        W23018  38.464  17.597   0.273
61565W        W23019  41.008   2.454  14.003
61566W        W23020  35.459  29.114   2.735
61567W        W23021   6.802  30.082  11.582
61568W        W23022  33.049  28.063  12.517
61569W        W23023  20.546   5.923  14.896
61570W        W23024  18.568  43.411   2.353
61571W        W23025  40.826  30.422  14.015
61572W        W23026  42.509   1.969   1.879
61573W        W23027   2.318  10.723   2.372
61574W        W23028  32.106   3.259  10.476
61575W        W23029  22.250  36.442  14.785
61576W        W23030  13.230   1.881   2.785
61577W        W23031  17.556  33.509   1.723
61578W        W23032   6.344  34.603  11.032
61579W        W23033  43.433  40.831   1.833
61580W        W23034  22.566  25.115   3.706
61581W        W23035   1.736  14.187  12.484
61582W        W23036  35.062  29.029  13.037
61583W        W23037  23.218  11.274   2.290
61584W        W23038   3.246  38.346   3.666
61585W        W23039  34.021   0.345  10.918
61586W        W23040  25.996  23.986  12.548
61587W        W23041  25.565   5.733   2.807
61588W        W23042  11.353  22.092  13.027
61589W        W23043   6.867  37.965   1.439
61590W        W23044   1.442  12.651   3.174
61591W        W23045  32.083   2.406   0.941
61592W        W23046  42.798  34.098  11.903
61593W        W23047  40.379  19.130  12.004
61594W        W23048  15.193  36.082  13.513
61595W        W23049  22.716  22.634  12.909
61596W        W23050  27.463  35.358  11.536
61597W        W23051  16.654  39.508  14.473
61598W        W23052   1.337  11.727  14.314
61599W        W23053  36.502   0.399  14.979
61600W        W23054  26.573  18.586  14.428
61601W        W23055  19.713  21.535   2.785
61602W        W23056  11.865  26.123  11.483
61603W        W23057   4.731  28.444   1.260
61604W        W23058  30.591  41.003   4.226
61605W        W23059  25.054  24.987   2.212
61606W        W23060  36.551  39.513  11.089
61607W        W23061  36.857   2.890   1.339
61608W        W23062  12.767   7.869  14.903
61609W        W23063  14.616  10.754  14.403
61610W        W23064  22.722  37.383  14.813
61611W        W23065  37.082  35.459  13.931
61612W        W23066  29.923  27.016   4.763
61613W        W23067  18.103  40.051  12.569
61614W        W23068  36.391  10.767  11.529
61615W        W23069  42.395  12.701  14.003
61616W        W23070   1.257  39.944  11.591
61617W        W23071   9.704  17.184   1.859
61618W        W23072  19.708  16.272   3.766
61619W        W23073  27.448  27.535  10.014
61620W        W23074  28.558  39.364  12.569
61621W        W23075  19.552  37.348  10.435
61622W        W23076  30.519  28.130   3.162
61623W        W23077  15.602   2.944  14.982
61624W        W23078  31.459   4.318   0.846
61625W        W23079  31.528  33.598  10.449
61626W        W23080   2.262  30.474   4.314
61627W        W23081   4.410  31.136  13.027
61628W        W23082  40.798  16.154   1.856
61629W        W23083   2.908  37.349   0.887
61630W        W23084  44.438  33.436   2.692
61631W        W23085  20.758  44.499   2.730
61632W        W23086   7.366  39.908  14.882
61633W        W23087   6.393  26.992   1.743
61634W        W23088  37.426  40.954   2.754
61635W        W23089  36.086  39.496  11.484
61636W        W23090  25.637  35.929   0.884
61637W        W23091  15.696   4.865   3.175
61638W        W23092  26.146  40.387   0.469
61639W        W23093  24.059  24.711  14.425
61640W        W23094  12.138  29.056  14.837
61641W        W23095  42.359  21.252   3.370
61642W        W23096  44.401  35.604  13.441
61643W        W23097   1.974   9.646   0.247
61644W        W23098  21.035  33.885   1.310
61645W        W23099  13.271  44.314   2.789
61646W        W23100  24.034  23.716  11.876
61647W        W23101   7.172  27.967  13.791
61648W        W23102  16.712  24.187   3.168
61649W        W23103   2.761  13.337  11.082
61650W        W23104   0.889  18.116  10.542
61651W        W23105  44.337   9.802   0.728
61652W        W23106  24.102  15.689  14.435
61653W        W23107  14.251   9.841  12.363
61654W        W23108  42.031   1.843  14.308
61655W        W23109  38.541  30.556   2.285
61656W        W23110  33.925   9.753   1.401
61657W        W23111   3.940  40.888   3.339
61658W        W23112  13.710  11.750   1.797
61659W        W23113  15.177  23.596   0.245
61660W        W23114  18.239  43.467   1.697
61661W        W23115  34.878  15.258   3.360
61662W        W23116  25.999   1.968  12.083
61663W        W23117  34.539  43.788   3.151
61664W        W23118  35.893   8.799  14.029
61665W        W23119  31.084   4.428   2.419
61666W        W23120  11.154  35.387   4.613
61667W        W23121  40.481  11.324   2.817
61668W        W23122  40.923  21.598  12.400
61669W        W23123  33.479  29.661   3.145
61670W        W23124  26.689  32.079   0.472
61671W        W23125  32.898  34.874  12.913
61672W        W23126  17.100  27.124   1.738
61673W        W23127  19.155  23.140   0.292
61674W        W23128  33.551   2.963   0.306
61675W        W23129  41.934   7.386  13.939
61676W        W23130   2.808   0.748   4.325
61677W        W23131  24.221   5.835  10.110
61678W        W23132  40.852   9.820   4.186
61679W        W23133   4.224  11.640  11.026
61680W        W23134   9.726   3.828   3.166
61681W        W23135  10.290  15.217  14.809
61682W        W23136   4.321  26.159  14.499
61683W        W23137  33.912  29.636   3.683
61684W        W23138  21.186  41.840  14.026
61685W        W23139  22.162  30.460   2.804
61686W        W23140  35.015  34.069  14.425
61687W        W23141   8.402  18.790   1.849
61688W        W23142  22.512  35.407  14.019
61689W        W23143  28.041   6.426   3.226
61690W        W23144  14.340  27.552  11.070
61691W        W23145  39.423  18.209  11.078
61692W        W23146  25.095  10.835   1.225
61693W        W23147   7.211   1.906   0.300
61694W        W23148  31.917   7.860   0.274
61695W        W23149   9.228  35.096   5.201
61696W        W23150   7.679  34.870  11.456
61697W        W23151  23.659   3.870   2.738
61698W        W23152  15.691   8.842   0.827
61699W        W23153  42.904  23.561   3.302
61700W        W23154   5.301  26.977  14.994
61701W        W23155   7.316  33.428  13.407
61702W        W23156  22.074   6.754  10.421
61703W        W23157  37.338  32.445  12.379
61704W        W23158  29.025  18.776   0.771
61705W        W23159  12.838  29.430  11.973
61706W        W23160  26.585   2.303  12.555
61707W        W23161  41.310   7.776  11.885
61708W        W23162  15.170  27.093  13.359
61709W        W23163  40.317  36.592   0.857
61710W        W23164  19.580  13.296  14.895
61711W        W23165   6.813   2.322   3.354
61712W        W23166  13.200   1.373   3.868
61713W        W23167  34.425   7.238  14.887
61714W        W23168  10.189   7.843  12.837
61715W        W23169  27.025   1.820   9.604
61716W        W23170  27.556  17.301  13.356
61717W        W23171  36.879   0.326  11.997
61718W        W23172   5.316   5.849  13.323
61719W        W23173  41.307   8.714  13.055
61720W        W23174  15.095  43.816  12.857
61721W        W23175  25.714  34.500   2.227
61722W        W23176  24.541   8.655   4.635
61723W        W23177  37.001  22.089  13.896
61724W        W23178   5.807  24.551  10.929
61725W        W23179  14.309   7.199   4.828
61726W        W23180   4.922  38.562  10.903
61727W        W23181  40.980  31.508   3.824
61728W        W23182  33.003   1.482  10.981
61729W        W23183   4.368  25.484  10.606
61730W        W23184   0.403  29.935  13.048
61731W        W23185  34.892  13.747  12.436
61732W        W23186  42.818  32.895  14.920
61733W        W23187  31.009  19.055   3.717
61734W        W23188  29.631  42.385   2.278
61735W        W23189  11.196   5.426  11.956
61736W        W23190  34.431   3.929  10.504
61737W        W23191  25.030   4.894  10.537
61738W        W23192  25.573  29.171  10.579
61739W        W23193  17.635  41.913   0.302
61740W        W23194   7.850  41.302   2.324
61741W        W23195  39.837  28.521  13.475
61742W        W23196  32.610  18.213  13.877
61743W        W23197  29.091  21.734  13.510
61744W        W23198   9.149  18.648  11.505
61745W        W23199  18.643  31.410  13.547
61746W        W23200   6.302  37.505   1.269
61747W        W23201  20.726  13.222  11.526
61748W        W23202  26.036  22.151  10.604
61749W        W23203  18.055  18.122   3.303
61750W        W23204  16.103   1.253  13.943
61751W        W23205  44.864  44.770  11.123
61752W        W23206  26.695  40.894   0.439
61753W        W23207  23.094  39.972   0.422
61754W        W23208   6.747  31.445  13.468
61755W        W23209  36.548  17.777  12.986
61756W        W23210  41.976  26.196   4.300
61757W        W23211  17.187   0.264  11.035
61758W        W23212  24.557   3.941   3.715
61759W        W23213  14.624  31.479   4.735
61760W        W23214  15.764  27.045   2.343
61761W        W23215  29.985   8.730   4.274
61762W        W23216  22.646  32.129   3.754
61763W        W23217  25.672  21.730   2.846
61764W        W23218  33.481  17.283   4.803
61765W        W23219  30.626  29.919  10.611
61766W        W23220   5.200  29.119  14.904
61767W        W23221  14.208  30.141   1.220
61768W        W23222  17.590  16.759   4.611
61769W        W23223   9.200   0.314  12.984
61770W        W23224  27.679  10.774  13.062
61771W        W23225  22.018  28.506   2.222
61772W        W23226  30.608   1.947   9.577
61773W        W23227  38.893  17.087  11.000
61774W        W23228  39.555  33.447   0.276
61775W        W23229  28.590  34.870  13.451
61776W        W23230  23.023  39.053  11.102
61777W        W23231  34.116   1.786  13.810
61778W        W23232  18.212  34.490  13.819
61779W        W23233  37.027  37.887  11.071
61780W        W23234   9.870   7.666   4.667
61781W        W23235  40.400  35.013  14.797
61782W        W23236  37.503   3.924  14.016
61783W        W23237  44.892   8.810   3.745
61784W        W23238  43.020  40.964   3.236
61785W        W23239  31.420  42.329  13.850
61786W        W23240  29.170   3.913  12.008
61787W        W23241  41.871  15.821  10.044
61788W        W23242  34.896  39.013  12.094
61789W        W23243  38.059  15.142   3.722
61790W        W23244   4.869  32.982  11.951
61791W        W23245  23.660  35.872  12.903
61792W        W23246  35.895  35.883  14.465
61793W        W23247   9.754  32.602  14.935
61794W        W23248  29.464  25.142   2.354
61795W        W23249  12.200   4.847   3.227
61796W        W23250   7.297   1.765   0.876
61797W        W23251  31.982  25.517   5.203
61798W        W23252  13.825   9.879   1.751
61799W        W23253  11.312  28.644   3.228
61800W        W23254   7.745  39.060  10.981
61801W        W23255  20.539  25.994  10.970
61802W        W23256   2.287  32.607   1.238
61803W        W23257  25.143  31.527   2.871
61804W        W23258  33.126   2.373  13.413
61805W        W23259   9.183  17.696   4.620
61806W        W23260   1.770  16.305  10.962
61807W        W23261  12.282  25.028  12.355
61808W        W23262  11.255  11.129  14.771
61809W        W23263  15.233  32.999   0.964
61810W        W23264   9.653  42.857   4.780
61811W        W23265  43.347  40.979  13.991
61812W        W23266  21.556  14.271  12.494
61813W        W23267  14.156  14.605   1.289
61814W        W23268   0.984   7.223   3.172
61815W        W23269  36.970  11.866   4.333
61816W        W23270  30.450  21.052  14.470
61817W        W23271  17.204  23.604   0.912
61818W        W23272  18.060  40.436   0.869
61819W        W23273  38.010  35.482   4.285
61820W        W23274   1.807   8.340   4.762
61821W        W23275   9.702  18.107  13.891
61822W        W23276  32.537  21.149  11.411
61823W        W23277  31.053   3.926   2.775
61824W        W23278  31.567   9.770   2.199
61825W        W23279   2.408  26.468   4.118
61826W        W23280  41.885  15.116  13.966
61827W        W23281  27.454  39.009  14.883
61828W        W23282  14.755  16.278  14.986
61829W        W23283   5.285  11.145  12.343
61830W        W23284  23.161  23.652  14.395
61831W        W23285  40.495  27.659   3.770
61832W        W23286  35.857  29.594   3.192
61833W        W23287  29.143  34.570   1.838
61834W        W23288  29.141  42.937  12.048
61835W        W23289  28.644  36.423  13.362
61836W        W23290  27.658   3.772  13.020
61837W        W23291   0.771  29.532  13.058
61838W        W23292  40.960  10.380   3.210
61839W        W23293   2.333  18.597   2.416
61840W        W23294  29.451   1.861  13.011
61841W        W23295  43.845  13.801   4.240
61842W        W23296   7.802  25.616  11.959
61843W        W23297   1.299  30.061   1.788
61844W        W23298  44.758  15.777  14.017
61845W        W23299   7.402  12.673  12.082
61846W        W23300  25.126  32.619   3.802
61847W        W23301  13.779  22.514  12.545
61848W        W23302  36.364  18.549   1.221
61849W        W23303  30.611  16.617   4.215
61850W        W23304  44.786  17.689  13.534
61851W        W23305  23.122  14.103  12.377
61852W        W23306  44.821  12.632   4.247
61853W        W23307  13.186  17.217   1.262
61854W        W23308  13.701  13.640   1.335
61855W        W23309  34.120  33.530  13.962
61856W        W23310  21.179  19.213  12.457
61857W        W23311  16.113  15.795   4.655
61858W        W23312  11.725  37.565   2.852
61859W        W23313  42.939  39.847   1.352
61860W        W23314   5.358  35.029  13.900
61861W        W23315  14.187  28.175  14.421
61862W        W23316  24.223  41.309  10.619
61863W        W23317  42.803  37.927  11.943
61864W        W23318  20.060   1.289   0.952
61865W        W23319  40.396   9.167  10.482
61866W        W23320  33.475  38.405   0.879
61867W        W23321  25.125  43.513   3.333
61868W        W23322   4.339  30.970  11.438
61869W        W23323  11.728  31.621  10.525
61870W        W23324  40.936  22.050   1.306
61871W        W23325  41.954   1.971  11.576
61872W        W23326  43.909   8.733   4.735
61873W        W23327  34.887   8.374   4.333
61874W        W23328  15.137  25.197   4.224
61875W        W23329  33.412  37.469   0.381
61876W        W23330  14.227  15.204  10.580
61877W        W23331   3.781  36.580   3.765
61878W        W23332   2.274  26.489   5.238
61879W        W23333   8.358   4.361  10.586
61880W        W23334   1.430  23.622  11.101
61881W        W23335  15.232  42.844  14.475
61882W        W23336  24.007  34.479  12.376
61883W        W23337  22.114   5.389   5.082
61884W        W23338  44.900  44.408   2.774
61885W        W23339  41.022  17.559   3.167
61886W        W23340  30.012  16.704  14.446
61887W        W23341  23.548   6.266   0.312
61888W        W23342  32.948  28.951   1.324
61889W        W23343  10.849  17.640  10.925
61890W        W23344  43.315   4.324  12.087
61891W        W23345  25.154   8.348  13.861
61892W        W23346   7.797  36.937  12.553
61893W        W23347  28.077  15.639  11.990
61894W        W23348  18.222  35.076   3.259
61895W        W23349  33.525  33.385  12.953
61896W        W23350  38.475  35.487  12.434
61897W        W23351  14.270   6.222   5.164
61898W        W23352   2.256   7.399  13.904
61899W        W23353  29.031  18.576   0.435
61900W        W23354  32.544  30.936  13.546
61901W        W23355   8.369  43.840  14.337
61902W        W23356  21.608  34.024  14.800
61903W        W23357  32.061  12.856  14.316
61904W        W23358  31.090  10.757  10.094
61905W        W23359   8.744  34.418   1.842
61906W        W23360  37.503  27.646  11.864
61907W        W23361  10.782  39.853   3.236
61908W        W23362   8.350  41.390   1.886
61909W        W23363  14.627  36.554   3.639
61910W        W23364  34.049   5.424  12.341
61911W        W23365  41.313  16.297   0.255
61912W        W23366   9.235  34.066   0.755
61913W        W23367  14.726  28.100  10.561
61914W        W23368  14.792  32.133   3.700
61915W        W23369  19.672  20.253  10.496
61916W        W23370  11.632  29.110   4.300
61917W        W23371  25.645  33.600   1.706
61918W        W23372  25.511  28.550  13.388
61919W        W23373  35.473  40.029   0.469
61920W        W23374  31.114  22.573  13.402
61921W        W23375  43.978  18.594  14.485
61922W        W23376  20.753   6.772  11.936
61923W        W23377   4.336  21.199  11.427
61924W        W23378  10.682  14.229  13.006
61925W        W23379   2.343  20.147  11.535
61926W        W23380  33.054   3.773  14.515
61927W        W23381  17.123  40.536   0.901
61928W        W23382  38.381  22.113  12.398
61929W        W23383  16.721  19.754   3.168
61930W        W23384  28.504  33.913   9.941
61931W        W23385  22.611   5.882  11.556
61932W        W23386  13.241  40.942   4.236
61933W        W23387  18.626  16.118  12.453
61934W        W23388  19.168  23.995   3.358
61935W        W23389   2.472  38.024   2.888
61936W        W23390   7.240  42.320  13.960
61937W        W23391   3.339   9.337   0.360
61938W        W23392  35.100  24.120  13.394
61939W        W23393   3.299  34.062  14.459
61940W        W23394  42.518  42.801  14.285
61941W        W23395  12.770  43.404   0.361
61942W        W23396  18.114  31.497   4.135
61943W        W23397  13.187  26.642   1.917
61944W        W23398   8.367  21.179   4.274
61945W        W23399  10.848  43.294  13.954
61946W        W23400  39.486  10.780   0.820
61947W        W23401  23.035  23.556  12.994
61948W        W23402  24.617  38.843   2.765
61949W        W23403  38.384   5.305   3.769
61950W        W23404  37.445  39.893  14.019
61951W        W23405   9.721  17.713   1.279
61952W        W23406  43.822  35.555   3.817
61953W        W23407  38.459  20.245   1.853
61954W        W23408  34.870   4.247  14.497
61955W        W23409   3.348   0.306  11.520
61956W        W23410  41.877  21.749  13.995
61957W        W23411  39.428  18.570  11.953
61958W        W23412   1.744  38.353   0.251
61959W        W23413  24.088  41.929  11.507
61960W        W23414   0.864   4.384   2.304
61961W        W23415  28.586  39.559  10.438
61962W        W23416   7.701   3.347   2.807
61963W        W23417   5.264   5.242   3.309
61964W        W23418  11.664  40.813   0.733
61965W        W23419  15.152  36.076   0.441
61966W        W23420  32.467  30.637  13.848
61967W        W23421  35.052  24.568  12.547
61968W        W23422   8.253  10.721  14.877
61969W        W23423   0.258   8.316   3.674
61970W        W23424   0.845   6.860  13.917
61971W        W23425  20.689  11.289  14.926
61972W        W23426  17.802  13.721  11.421
61973W        W23427   6.713   5.289  14.968
61974W        W23428  32.039  27.105   4.638
61975W        W23429  21.058  22.015   2.245
61976W        W23430  36.443   1.827   5.111
61977W        W23431  19.748   2.849  13.050
61978W        W23432   3.439  11.217   1.346
61979W        W23433  39.498  41.534   4.776
61980W        W23434  10.377  41.369   2.810
61981W        W23435  11.250  44.897   4.251
61982W        W23436  27.136  43.777  13.976
61983W        W23437   2.933   0.357   3.157
61984W        W23438  24.669  20.743  14.387
61985W        W23439   7.305  34.428   0.734
61986W        W23440  30.014  28.674  12.370
61987W        W23441  11.213  22.607  10.558
61988W        W23442   3.791  39.880  10.077
61989W        W23443  43.990  12.846  14.804
61990W        W23444   1.800  42.459  11.554
61991W        W23445   8.721  16.726   3.292
61992W        W23446  34.535   9.833   0.940
61993W        W23447  37.405  14.230  12.934
61994W        W23448   9.388  43.902   1.902
61995W        W23449  27.624   3.806   1.210
61996W        W23450  21.583  34.432  12.928
61997W        W23451   2.729  32.947  12.899
61998W        W23452  22.068  20.531  14.510
61999W        W23453   5.370  38.936   1.732
62000W        W23454  43.510  10.686  14.511
62001W        W23455  25.475   9.748   2.723
62002W        W23456   1.344  24.076  14.471
62003W        W23457  37.001  43.333   3.331
62004W        W23458  27.631  36.874  10.928
62005W        W23459  39.839  34.515  12.556
62006W        W23460  12.333  25.975  12.425
62007W        W23461  21.566  15.188   1.424
62008W        W23462  10.664  36.532   2.417
62009W        W23463   9.645  37.028   4.620
62010W        W23464  36.516  23.597   4.134
62011W        W23465  38.541   7.676   1.298
62012W        W23466  10.758  34.466   3.342
62013W        W23467  15.709  24.609  13.321
62014W        W23468  26.674  28.553   2.356
62015W        W23469   9.735  11.810  13.424
62016W        W23470  25.659  42.001   2.695
62017W        W23471  41.524   1.446  14.801
62018W        W23472   0.886  17.142   1.787
62019W        W23473   2.760  32.517   0.285
62020W        W23474   2.294  13.212  11.538
62021W        W23475  18.586   6.221   2.307
62022W        W23476  20.688  34.041   1.761
62023W        W23477  19.062  27.563   3.651
62024W        W23478   0.867  38.015   2.318
62025W        W23479   9.232  13.707  11.868
62026W        W23480  10.322  33.510  13.825
62027W        W23481  10.835  39.812  13.846
62028W        W23482  41.960   6.210   5.322
62029W        W23483  38.846  20.719  11.035
62030W        W23484  31.628   5.341   2.270
62031W        W23485   7.337   6.781  12.419
62032W        W23486  35.457  39.847   0.732
62033W        W23487  36.881  44.854   0.794
62034W        W23488  17.185  32.891   2.705
62035W        W23489  19.217   4.823   3.319
62036W        W23490  32.071  36.563  12.508
62037W        W23491  11.865  38.074   3.687
62038W        W23492  16.690  22.194   4.693
62039W        W23493  15.713  44.923  13.843
62040W        W23494  44.431  23.693   0.383
62041W        W23495  39.528   7.287  12.466
62042W        W23496  30.982  18.271  11.577
62043W        W23497   2.849  31.933   4.277
62044W        W23498   3.223   6.769  14.426
62045W        W23499  40.494  12.738  11.950
62046W        W23500  26.013  40.310  13.846
62047W        W23501  20.767  22.675   4.272
62048W        W23502   3.223   3.813  11.414
62049W        W23503  16.776  11.245  14.906
62050W        W23504  28.175   8.361   2.804
62051W        W23505  43.994  44.882  14.302
62052W        W23506  18.748  43.291  14.515
62053W        W23507  42.829  29.560  14.353
62054W        W23508   9.181  40.829  14.510
62055W        W23509  34.947  26.533  12.388
62056W        W23510  35.100  11.645   2.402
62057W        W23511   0.867  12.755  12.963
62058W        W23512  44.825  27.507   1.885
62059W        W23513  41.018  29.531   3.859
62060W        W23514  33.540  41.320   2.810
62061W        W23515   5.386   3.936  11.480
62062W        W23516  29.659  39.820  13.846
62063W        W23517   8.230  37.959  14.343
62064W        W23518  20.763  30.595  10.645
62065W        W23519   9.742  39.316   9.555
62066W        W23520  31.547  29.121   3.812
62067W        W23521  21.684  31.448  10.947
62068W        W23522  39.871  15.144   0.941
62069W        W23523  43.428  40.327   2.267
62070W        W23524  34.953  20.658   2.767
62071W        W23525  25.030  12.163  11.123
62072W        W23526  39.393   3.922  11.398
62073W        W23527  33.961  19.080   4.685
62074W        W23528  39.846  21.661  13.828
62075W        W23529  44.505  40.404   0.906
62076W        W23530  23.176  37.508  13.855
62077W        W23531  31.638  15.176  14.824
62078W        W23532   7.230  18.205   3.378
62079W        W23533  31.015  38.909   4.308
62080W        W23534   4.430  44.312   4.342
62081W        W23535  17.255  19.573  12.567
62082W        W23536  33.528  12.693   3.281
62083W        W23537   7.673  15.724   5.189
62084W        W23538  12.768  38.847  13.337
62085W        W23539  19.612  42.390   1.787
62086W        W23540   0.333  23.541   2.308
62087W        W23541  30.623  42.377   4.163
62088W        W23542  25.978  10.707   2.189
62089W        W23543  32.967  11.337  11.878
62090W        W23544  33.933   2.860  10.949
62091W        W23545  27.504   3.800   3.318
62092W        W23546  30.525  38.829   5.299
62093W        W23547   0.909  11.748  13.388
62094W        W23548  32.480   8.713   4.233
62095W        W23549   6.221  30.142  13.878
62096W        W23550  18.555   6.806  11.010
62097W        W23551  15.262  28.173   0.772
62098W        W23552  39.318   6.302   2.727
62099W        W23553  21.734  28.671  12.877
62100W        W23554  24.538  44.343   0.337
62101W        W23555   0.455  32.502  13.828
62102W        W23556  21.546   9.265  13.014
62103W        W23557  36.422  37.984   1.813
62104W        W23558  26.205  15.329   3.839
62105W        W23559  36.006  33.388   2.788
62106W        W23560  32.924  24.539   2.313
62107W        W23561   7.360  12.219   4.812
62108W        W23562   9.785   6.744   3.664
62109W        W23563  24.025  23.148  13.998
62110W        W23564  36.000  35.983  12.058
62111W        W23565  35.418  26.536  13.831
62112W        W23566  13.254  34.927   3.833
62113W        W23567  22.035  11.661   0.956
62114W        W23568  18.093  15.678   0.414
62115W        W23569  13.663  28.142  11.442
62116W        W23570  30.977  12.720   4.697
62117W        W23571  19.197   4.399  13.050
62118W        W23572   7.343  16.139   3.630
62119W        W23573  29.959  31.640   3.295
62120W        W23574  10.721  30.534   0.963
62121W        W23575  22.652   8.828   0.330
62122W        W23576   4.917  20.122  12.440
62123W        W23577  17.232   1.829  13.870
62124W        W23578  12.209  17.613   1.414
62125W        W23579  22.602   7.204  13.387
62126W        W23580   7.751  34.087   3.719
62127W        W23581   7.302  25.714   4.679
62128W        W23582  16.595  11.279   3.683
62129W        W23583  37.461  25.202   1.877
62130W        W23584  24.002  30.457  13.421
62131W        W23585  30.523  42.784  13.501
62132W        W23586   1.939  15.213   3.641
62133W        W23587  34.104  34.466  14.968
62134W        W23588  19.664  14.214   0.768
62135W        W23589  26.499  11.314  10.004
62136W        W23590  37.078  37.856  11.498
62137W        W23591  10.153  26.569   3.301
62138W        W23592  32.396  22.217   0.860
62139W        W23593  38.840  11.275   1.443
62140W        W23594  34.063  13.171  14.385
62141W        W23595   9.234  29.482   0.296
62142W        W23596  36.028  33.387   0.944
62143W        W23597  22.059  33.483  14.795
62144W        W23598  27.045  34.579   2.299
62145W        W23599  14.795  20.524  14.354
62146W        W23600  11.732   2.812  13.495
62147W        W23601  30.530   0.907   5.102
62148W        W23602  21.166  23.555  13.348
62149W        W23603   6.318  24.678   3.290
62150W        W23604  31.013  36.502   3.234
62151W        W23605  33.459  42.310  10.900
62152W        W23606  14.805  43.497   1.913
62153W        W23607   8.282  38.959  13.501
62154W        W23608  39.023  35.485   1.310
62155W        W23609  44.821  15.688  11.385
62156W        W23610   1.433  26.136  11.065
62157W        W23611   7.825  13.614   4.817
62158W        W23612   0.432  29.524   0.769
62159W        W23613  16.167  33.508   1.221
62160W        W23614  38.431  39.347  10.435
62161W        W23615   2.897   4.703   1.906
62162W        W23616  25.155  32.573   4.237
62163W        W23617  35.538  28.966  13.973
62164W        W23618   8.861  44.470   2.296
62165W        W23619  35.545  33.946  12.052
62166W        W23620  29.950   6.864   2.393
62167W        W23621  27.534   7.754  13.882
62168W        W23622   5.917   0.300  13.372
62169W        W23623  14.292  44.355  11.047
62170W        W23624  42.370  16.145   3.790
62171W        W23625  26.687  39.825  13.864
62172W        W23626   9.188  36.419   3.221
62173W        W23627  15.637   0.821  10.468
62174W        W23628  24.203  26.140  12.439
62175W        W23629   4.742  31.584   1.883
62176W        W23630  44.340  30.011  11.470
62177W        W23631   5.696  13.255   0.871
62178W        W23632   3.416   8.342   1.815
62179W        W23633  37.976  26.087  11.489
62180W        W23634  35.497  37.844  11.403
62181W        W23635  25.061  34.912   5.796
62182W        W23636  18.050  19.239   3.762
62183W        W23637  11.203  18.059  12.424
62184W        W23638   4.923  41.466   3.242
62185W        W23639  32.637  16.130   2.228
62186W        W23640  40.027  37.991   1.277
62187W        W23641  18.135  32.114   1.769
62188W        W23642  40.804   5.821   2.836
62189W        W23643  36.878  23.029   4.641
62190W        W23644  33.885  21.541   2.252
62191W        W23645   8.220  22.588  11.554
62192W        W23646  10.272  37.849   3.710
62193W        W23647  11.725  27.060  12.915
62194W        W23648  36.361  30.564  10.117
62195W        W23649  42.983  21.657  11.472
62196W        W23650   4.392  13.311   4.720
62197W        W23651   5.224   4.739  10.597
62198W        W23652  12.144  17.637  11.072
62199W        W23653  19.131  26.108   3.326
62200W        W23654   6.388   9.389   3.371
62201W        W23655  34.556  37.353  13.351
62202W        W23656  39.839  25.992   3.358
62203W        W23657  37.910  20.205   1.380
62204W        W23658  15.274  37.022  13.876
62205W        W23659  19.133  35.037   0.919
62206W        W23660  33.074   6.239   4.204
62207W        W23661   3.238  20.714  12.378
62208W        W23662  43.280   3.334   3.701
62209W        W23663   1.780   7.315  14.305
62210W        W23664  35.569  29.511   3.684
62211W        W23665  26.562  22.018  12.911
62212W        W23666  16.576  35.947   2.415
62213W        W23667  11.140   6.426   4.270
62214W        W23668  21.551  24.006  12.408
62215W        W23669   1.884  10.284   1.812
62216W        W23670  15.209  36.347   3.372
62217W        W23671  37.395  44.492   1.855
62218W        W23672  24.673  29.648  11.896
62219W        W23673  36.356  39.044   3.647
62220W        W23674  11.287  39.465  13.498
62221W        W23675  25.654   4.383   2.290
62222W        W23676  24.520  29.552  10.446
62223W        W23677   6.390  32.424   1.410
62224W        W23678   3.845  42.504   0.473
62225W        W23679  13.166  19.141  14.865
62226W        W23680  18.562  28.016   3.672
62227W        W23681  40.393  33.466   4.787
62228W        W23682   3.313  14.719   3.174
62229W        W23683  33.485   2.282   3.753
62230W        W23684  31.607  29.141   3.344
62231W        W23685  30.477  24.479  13.335
62232W        W23686  22.545  28.664   3.181
62233W        W23687  40.508  27.994   0.289
62234W        W23688  40.902  14.206  12.855
62235W        W23689  37.493   1.772  10.431
62236W        W23690  33.093   2.427   2.353
62237W        W23691  34.501   4.761   0.309
62238W        W23692  44.273  24.556   0.886
62239W        W23693   0.457   8.195   4.281
62240W        W23694   6.906  26.177  14.909
62241W        W23695  35.105  18.710   3.211
62242W        W23696   0.328  18.181   0.390
62243W        W23697   3.378  34.078   3.214
62244W        W23698  26.638  22.542  12.472
62245W        W23699   2.272  40.001  14.802
62246W        W23700  38.505  26.651  14.313
62247W        W23701  34.523   3.285   2.317
62248W        W23702  14.622   9.733  12.048
62249W        W23703  31.471  31.461  11.107
62250W        W23704   8.321   9.194   3.764
62251W        W23705  10.264  44.321   3.837
62252W        W23706  35.504  37.521  13.500
62253W        W23707  38.071  40.472  13.451
62254W        W23708  15.582  41.452   3.675
62255W        W23709   0.271  31.599  13.038
62256W        W23710  15.717  27.666  10.116
62257W        W23711  42.434  44.369   0.426
62258W        W23712  26.108  25.105   4.186
62259W        W23713   5.398  25.657   0.474
62260W        W23714  26.640  38.521  13.375
62261W        W23715  12.740  23.514   2.311
62262W        W23716   2.879  41.851  13.978
62263W        W23717  21.746  35.475   4.597
62264W        W23718  37.020  17.137  11.963
62265W        W23719  27.540   5.736   0.732
62266W        W23720   7.905  20.083   4.660
62267W        W23721  27.539  41.346   2.712
62268W        W23722   2.927   1.458  11.949
62269W        W23723  43.014   7.307   3.817
62270W        W23724  23.681   2.933  13.444
62271W        W23725  39.460   4.941  10.535
62272W        W23726   0.849  33.435   5.104
62273W        W23727   2.943   4.824  11.442
62274W        W23728  14.099  43.302   1.446
62275W        W23729   7.809   6.873   3.206
62276W        W23730   3.902   3.893   4.336
62277W        W23731  16.661  37.537   1.366
62278W        W23732  21.095  38.027  14.477
62279W        W23733  21.744  41.812   3.355
62280W        W23734  44.890   4.924   3.147
62281W        W23735  15.801   0.760  11.057
62282W        W23736  35.585  11.804   1.772
62283W        W23737  42.458   7.357   3.684
62284W        W23738  20.051  16.714  11.384
62285W        W23739  23.557   8.888   4.609
62286W        W23740   4.229  37.833   2.695
62287W        W23741   0.370   0.440  12.925
62288W        W23742  30.446  43.336  11.612
62289W        W23743   7.895  19.142   4.712
62290W        W23744  37.057  40.521  14.506
62291W        W23745  17.268  32.051   2.708
62292W        W23746  43.474  40.971   0.343
62293W        W23747  32.947   1.852   1.888
62294W        W23748  26.206  38.425   1.249
62295W        W23749  27.460   6.424  14.896
62296W        W23750  42.955  11.653  12.491
62297W        W23751  23.674  35.494   4.338
62298W        W23752  25.062  24.662   3.675
62299W        W23753  44.975  18.216  11.548
62300W        W23754  44.300   3.921   0.343
62301W        W23755   7.290  14.206  14.930
62302W        W23756  10.677  38.335  13.926
62303W        W23757   4.750   1.871  10.066
62304W        W23758  44.439  36.414  11.577
62305W        W23759   8.723  33.019  14.948
62306W        W23760  31.016  27.129   1.882
62307W        W23761  41.304  21.730  12.354
62308W        W23762  25.098  42.921   3.675
62309W        W23763  34.094   5.804  14.934
62310W        W23764  30.156   7.702  13.026
62311W        W23765  21.579  24.168  13.925
62312W        W23766  32.536   1.284  11.099
62313W        W23767   0.420   0.931   2.722
62314W        W23768  26.968  38.880   3.776
62315W        W23769  33.919   7.385   3.279
62316W        W23770  16.605   9.259  12.061
62317W        W23771   9.306  18.203   2.748
62318W        W23772  24.663  43.960  11.534
62319W        W23773  28.568  16.284  10.929
62320W        W23774  17.127  18.666   3.385
62321W        W23775  21.729  12.199   0.360
62322W        W23776  21.209   9.268   5.096
62323W        W23777  29.069  20.233   2.869
62324W        W23778  28.165  13.696   0.305
62325W        W23779  21.717  26.114   1.434
62326W        W23780  23.217  27.958   1.750
62327W        W23781  40.434  19.636   1.920
62328W        W23782  20.188  12.796   5.254
62329W        W23783   6.424  15.179  13.477
62330W        W23784  10.743  21.672  13.945
62331W        W23785  29.425  36.882  14.378
62332W        W23786  23.207  15.133  10.998
62333W        W23787  16.152   3.333  14.869
62334W        W23788   4.406  22.044  13.036
62335W        W23789   3.264  27.519  11.531
62336W        W23790  12.182  35.946  12.013
62337W        W23791   3.312  26.037  13.951
62338W        W23792  41.348  18.659   1.240
62339W        W23793  44.768  36.892  12.520
62340W        W23794   1.794  36.031  12.515
62341W        W23795  20.117   0.809   0.363
62342W        W23796  24.053  26.173   3.865
62343W        W23797  16.759  38.385   4.151
62344W        W23798  11.846  17.081   4.677
62345W        W23799  39.946  13.137   1.883
62346W        W23800  30.608  41.403  10.632
62347W        W23801  44.341  23.070  13.494
62348W        W23802  41.801  16.679   3.230
62349W        W23803  21.589  14.696  12.511
62350W        W23804  22.142  42.830  14.028
62351W        W23805  42.880  40.803   0.314
62352W        W23806  10.200  14.608  11.078
62353W        W23807  27.974  34.002   0.310
62354W        W23808  19.175  41.029  10.563
62355W        W23809  30.554  42.504  12.457
62356W        W23810  26.498  22.590  12.864
62357W        W23811  39.465  35.914  13.378
62358W        W23812  36.501  32.944  12.464
62359W        W23813  41.363  17.718   3.280
62360W        W23814   1.843  38.500   4.206
62361W        W23815  39.462  25.567   0.328
62362W        W23816  14.731   5.216   0.292
62363W        W23817  13.668  25.029  14.970
62364W        W23818   7.734  14.324  14.418
62365W        W23819  21.175  44.766   2.191
62366W        W23820  15.631  33.408   1.259
62367W        W23821  25.014  26.464   4.162
62368W        W23822  44.797  18.149   4.820
62369W        W23823   4.331   8.361  14.481
62370W        W23824  28.655  38.960  13.996
62371W        W23825   9.711  11.151   3.269
62372W        W23826  32.064  27.150  10.920
62373W        W23827  38.926  37.940  11.894
62374W        W23828  20.209  11.819   3.775
62375W        W23829  43.927  36.093   3.840
62376W        W23830  16.092  17.235   3.151
62377W        W23831   7.204  29.620  11.953
62378W        W23832   5.836  25.493  11.946
62379W        W23833  18.221  19.706   1.784
62380W        W23834  12.351  35.965  12.549
62381W        W23835  34.024  38.860  12.532
62382W        W23836  37.877  15.274   3.328
62383W        W23837  26.145   4.313   1.916
62384W        W23838  32.946  33.914   1.816
62385W        W23839  38.983  39.051  10.051
62386W        W23840  25.983   5.386   1.773
62387W        W23841  41.870   8.317  14.384
62388W        W23842   0.300  33.402  12.362
62389W        W23843   4.328  21.701  14.992
62390W        W23844  33.394   1.799   4.623
62391W        W23845  29.968  32.560  10.912
62392W        W23846  38.563  10.150   1.384
62393W        W23847  32.088   4.382   2.699
62394W        W23848  44.892  15.622  10.459
62395W        W23849  20.664  24.218  13.857
62396W        W23850   7.174  32.022  14.893
62397W        W23851  21.672   6.880   4.305
62398W        W23852   1.875   2.926  11.527
62399W        W23853  25.600  29.924  14.291
62400W        W23854  22.686   2.853  13.864
62401W        W23855  19.283  43.274   2.339
62402W        W23856  13.809  36.853  14.775
62403W        W23857  36.408   1.354   0.294
62404W        W23858  38.359  15.186  10.566
62405W        W23859  29.941  25.020   1.291
62406W        W23860  25.648   7.336   1.904
62407W        W23861  34.982  39.013   3.709
62408W        W23862  34.509  19.704  13.858
62409W        W23863  43.312  30.461   4.285
62410W        W23864   2.274  17.065  13.426
62411W        W23865  16.146  18.627   4.239
62412W        W23866  14.702  21.185  10.516
62413W        W23867  42.469  41.402  13.357
62414W        W23868  11.801  27.691  11.889
62415W        W23869  42.512   8.753   4.275
62416W        W23870  28.129  10.169   3.783
62417W        W23871  20.169  44.867  12.039
62418W        W23872  19.067  35.889  10.600
62419W        W23873  42.969  11.687  14.470
62420W        W23874  11.356  18.693  14.407
62421W        W23875   0.384  25.685   4.812
62422W        W23876  13.632   3.809   4.331
62423W        W23877  28.510  12.656   0.944
62424W        W23878   2.960   9.727   1.786
62425W        W23879  36.844  12.157   2.897
62426W        W23880  12.795  17.160  13.820
62427W        W23881  41.998  39.865  12.866
62428W        W23882  18.751   7.374   0.415
62429W        W23883  11.767  13.607   3.705
62430W        W23884  31.004  19.592  12.511
62431W        W23885  23.674  29.118   1.829
62432W        W23886  34.512  26.470  14.417
62433W        W23887  30.021  10.362  11.866
62434W        W23888  30.965  39.484   2.334
62435W        W23889   9.786   2.253  11.922
62436W        W23890  13.329  37.495  13.793
62437W        W23891   9.333  40.916   4.156
62438W        W23892  18.630  36.427   1.870
62439W        W23893  30.527  32.575  13.480
62440W        W23894  36.534   6.240   2.396
62441W        W23895  22.641   0.969   2.325
62442W        W23896   6.342  28.638  10.925
62443W        W23897   4.805   7.899   2.273
62444W        W23898  26.639  24.571   5.172
62445W        W23899  19.719  11.219  14.387
62446W        W23900  37.857   5.318  13.415
62447W        W23901   5.787  39.399   0.382
62448W        W23902  16.077  40.448   4.617
62449W        W23903  44.351   7.267   0.873
62450W        W23904  20.718  18.129  12.894
62451W        W23905  31.037  27.039   0.302
62452W        W23906  38.378  11.793   0.421
62453W        W23907  30.578  21.758   4.339
62454W        W23908  25.510  30.616  12.910
62455W        W23909  23.206  15.632  12.468
62456W        W23910  33.393   0.810  12.557
62457W        W23911  10.861  36.897   3.229
62458W        W23912  10.383  39.509   0.352
62459W        W23913  25.652  15.595  12.961
62460W        W23914  43.433  29.024   4.269
62461W        W23915  40.853  22.595  11.403
62462W        W23916  40.803  36.945   1.417
62463W        W23917  44.856  19.650  12.968
62464W        W23918  44.794   5.259  13.843
62465W        W23919  40.454  28.064  14.361
62466W        W23920  21.580  40.818   3.814
62467W        W23921  28.087  21.170   1.315
62468W        W23922  36.394  37.057  14.405
62469W        W23923  19.609   8.896   1.440
62470W        W23924  10.348  22.741  13.345
62471W        W23925   1.400   7.417   1.259
62472W        W23926  12.136  11.867  10.490
62473W        W23927   0.279  16.242   4.244
62474W        W23928  27.667  27.629  11.554
62475W        W23929   7.691  33.392  12.544
62476W        W23930  28.065   5.896   0.366
62477W        W23931   9.249  19.140   3.746
62478W        W23932  28.024   4.441  13.919
62479W        W23933  30.052  13.701  12.385
62480W        W23934  21.156  26.048  14.883
62481W        W23935   7.175  28.587  12.857
62482W        W23936  41.810  34.567   4.255
62483W        W23937   5.759  12.731   0.321
62484W        W23938  29.996  13.742  14.891
62485W        W23939   9.718  32.536  10.507
62486W        W23940  13.709  30.466   1.427
62487W        W23941  38.365  37.530  13.060
62488W        W23942  35.949   5.745  12.393
62489W        W23943  42.322  44.438  12.506
62490W        W23944  15.123  14.792   3.365
62491W        W23945   8.178  29.934   5.131
62492W        W23946  33.534   8.880   4.785
62493W        W23947  41.983  33.536   1.763
62494W        W23948  29.627  29.489  14.860
62495W        W23949  43.414  20.269   3.380
62496W        W23950  14.283  24.105   0.364
62497W        W23951  36.462  42.447  12.881
62498W        W23952  22.596  24.704  12.488
62499W        W23953  26.582  24.721  14.882
62500W        W23954   5.812  22.581  14.885
62501W        W23955  25.707   8.727   0.393
62502W        W23956  34.950   2.769   0.475
62503W        W23957   9.361  13.144   0.756
62504W        W23958  42.883   4.431   1.742
62505W        W23959  15.239  24.093   2.812
62506W        W23960   9.652  35.371  13.064
62507W        W23961  34.117  39.508  12.838
62508W        W23962  15.158  20.141  13.847
62509W        W23963   7.220  12.277  10.511
62510W        W23964  29.461  21.665  13.957
62511W        W23965  35.404  22.714  11.464
62512W        W23966  28.531  43.281  14.333
62513W        W23967   8.797   1.808  13.966
62514W        W23968  15.597  13.765  10.613
62515W        W23969  37.918  18.054  13.528
62516W        W23970  42.997  24.229  13.940
62517W        W23971  32.466  34.926   4.258
62518W        W23972  20.659  26.053   0.340
62519W        W23973  36.421  31.064   0.943
62520W        W23974  18.090  16.157   2.214
62521W        W23975  22.522  26.156   1.334
62522W        W23976  10.876  22.145  13.320
62523W        W23977  17.759  21.046  13.825
62524W        W23978  43.987  14.126  11.508
62525W        W23979  11.834  26.195   3.689
62526W        W23980  27.592  36.088   3.784
62527W        W23981   6.704  37.500   4.162
62528W        W23982  42.496  15.623  10.083
62529W        W23983  38.023   3.304   3.250
62530W        W23984  16.752  19.154   2.727
62531W        W23985  22.529  38.459  14.868
62532W        W23986  38.398  19.204   3.353
62533W        W23987  19.187  31.900  11.115
62534W        W23988  42.292  43.768   1.815
62535W        W23989  28.952  21.093   2.276
62536W        W23990  27.660  30.474   4.171
62537W        W23991  34.974  12.250  12.077
62538W        W23992  27.579  17.737   1.434
62539W        W23993   2.298   9.645  13.433
62540W        W23994  28.046  13.608  11.969
62541W        W23995  35.094  39.866  10.108
62542W        W23996  13.335  37.912   2.867
62543W        W23997  16.575   4.698  14.961
62544W        W23998  32.901  11.355   0.472
62545W        W23999  24.079  29.127  10.517
62546W        W24000  35.906  13.242   4.756
62547W        W24001  41.458  12.156   3.309
62548W        W24002  21.679   8.834   0.454
62549W        W24003   5.274  16.256   1.718
62550W        W24004  21.124   6.691   2.763
62551W        W24005  18.646  18.777   2.729
62552W        W24006   9.661  39.486  13.428
62553W        W24007  21.019  23.571  11.494
62554W        W24008  22.707   3.248  12.376
62555W        W24009  27.498  29.028  10.605
62556W        W24010  35.001   2.283   2.719
62557W        W24011  41.870   2.258   4.693
62558W        W24012  34.975  13.741   2.756
62559W        W24013  16.301  10.255   2.215
62560W        W24014  11.689  15.805   0.390
62561W        W24015   1.859  33.004   3.715
62562W        W24016   1.763  39.983  12.368
62563W        W24017  38.878  35.434  13.951
62564W        W24018   6.254  25.699   1.265
62565W        W24019  17.142  15.165   0.785
62566W        W24020  37.960  20.143  12.983
62567W        W24021  31.051  13.738  12.897
62568W        W24022  33.015  18.159   1.755
62569W        W24023  41.985  37.991  14.381
62570W        W24024  11.826  24.085   0.298
62571W        W24025  24.014  43.332   4.823
62572W        W24026  26.609  12.727   0.959
62573W        W24027  18.708  14.289  10.893
62574W        W24028  32.442  10.247  14.974
62575W        W24029   9.716  19.745  10.952
62576W        W24030  40.507   4.864   0.318
62577W        W24031  42.345   6.313  14.762
62578W        W24032  16.654  25.178   1.825
62579W        W24033  12.807  21.587  10.450
62580W        W24034  14.339   9.249  14.853
62581W        W24035  38.951  30.118  14.486
62582W        W24036  30.655   0.290   4.253
62583W        W24037  21.645   4.833  10.543
62584W        W24038  34.519   8.406  11.942
62585W        W24039  38.905   1.483   4.692
62586W        W24040  12.754  13.306   1.390
62587W        W24041  42.798  43.946  11.993
62588W        W24042   4.877  12.828   0.473
62589W        W24043  29.637  33.076   1.222
62590W        W24044  13.320  23.115   2.863
62591W        W24045  23.086  21.135   5.204
62592W        W24046  20.216   1.847  14.844
62593W        W24047  29.074   7.392   3.657
62594W        W24048  42.507  34.437  12.567
62595W        W24049  43.013  39.522  12.932
62596W        W24050  32.415  17.068  12.009
62597W        W24051   6.415   3.785  10.131
62598W        W24052  41.041  27.556  14.944
62599W        W24053  36.354  11.648  12.892
62600W        W24054  42.288   6.284   0.961
62601W        W24055   7.808  13.260   1.308
62602W        W24056   4.366  43.383  12.440
62603W        W24057  32.484   0.397   4.220
62604W        W24058  38.405  10.812   4.164
62605W        W24059  22.122  11.359  10.620
62606W        W24060  41.850  44.273   4.670
62607W        W24061   4.840  22.555   2.759
62608W        W24062  21.093  14.724  11.592
62609W        W24063  29.554  27.520  12.920
62610W        W24064  36.565  14.186  12.581
62611W        W24065   1.378   7.415  11.078
62612W        W24066   5.361   8.856   2.364
62613W        W24067  36.516  44.424   1.806
62614W        W24068   3.379  36.865   3.362
62615W        W24069   4.248   0.436  11.515
62616W        W24070  12.804  32.425  13.538
62617W        W24071  36.460   5.744  12.415
62618W        W24072  43.280  28.591  10.540
62619W        W24073  39.527  19.091  12.527
62620W        W24074  35.558   0.276  13.020
62621W        W24075  16.717  28.646  14.887
62622W        W24076  25.167   3.349   4.663
62623W        W24077  21.234  41.384   0.442
62624W        W24078  20.646  12.249   2.394
62625W        W24079   3.853   5.915   0.253
62626W        W24080  21.254  35.466  11.452
62627W        W24081  33.083  36.957   2.888
62628W        W24082  43.343   9.205  14.023
62629W        W24083  21.709  31.083   1.760
62630W        W24084  22.189  10.837  11.397
62631W        W24085  12.138  21.184   0.943
62632W        W24086   3.259  42.419   3.813
62633W        W24087  19.601  32.464  11.085
62634W        W24088   1.313  37.085   3.644
62635W        W24089   6.397  20.247   0.885
62636W        W24090  40.467  31.436  10.627
62637W        W24091  26.618   2.394   3.301
62638W        W24092  13.816  15.784  10.493
62639W        W24093  41.020  30.413   3.768
62640W        W24094  26.619  44.457  12.527
62641W        W24095   3.856  41.792   1.434
62642W        W24096  24.699  12.142  12.968
62643W        W24097  39.955  31.918   4.743
62644W        W24098  18.091  29.563  13.406
62645W        W24099   9.753  11.253  14.435
62646W        W24100  33.459  28.562   3.693
62647W        W24101  17.612   3.331  12.351
62648W        W24102   5.906  20.682   3.379
62649W        W24103  22.704  39.985   2.234
62650W        W24104  36.940  44.839  14.358
62651W        W24105  32.629   7.865  10.564
62652W        W24106  31.044  39.557  14.366
62653W        W24107  40.515  33.982   2.755
62654W        W24108  26.517  13.719  13.011
62655W        W24109  19.272  42.838   3.265
62656W        W24110  31.052  20.600   2.762
62657W        W24111  17.731  38.453  14.491
62658W        W24112   6.808  20.235   2.734
62659W        W24113  44.757  17.202   4.781
62660W        W24114  43.515  10.777  12.347
62661W        W24115   0.419  10.295   3.235
62662W        W24116   4.754  26.100   0.760
62663W        W24117  22.015  44.972  13.017
62664W        W24118   1.848  41.970   2.235
62665W        W24119  44.433  24.606  13.481
62666W        W24120   3.888  43.435  14.950
62667W        W24121  11.178  17.557  11.989
62668W        W24122  37.493  27.949   3.205
62669W        W24123  34.043   2.378   4.642
62670W        W24124  24.543   9.715   1.880
62671W        W24125  20.658   9.150   1.424
62672W        W24126  15.584  25.497  12.515
62673W        W24127  39.465   5.858  14.329
62674W        W24128  31.025   1.949   0.299
62675W        W24129   4.890  11.134  12.073
62676W        W24130  23.531  11.807  12.887
62677W        W24131   5.259   0.751  13.958
62678W        W24132  31.632  34.548   0.808
62679W        W24133  17.664   6.908  13.884
62680W        W24134   3.832   7.860  12.477
62681W        W24135  19.619   9.743   3.335
62682W        W24136   1.914  28.487  10.507
62683W        W24137  37.536  19.642   3.725
62684W        W24138  23.041  42.508  11.574
62685W        W24139  40.460  41.020  14.957
62686W        W24140  12.129  34.956  13.367
62687W        W24141   4.278  31.098   0.915
62688W        W24142  11.271   3.927   1.926
62689W        W24143  16.623  18.234   1.848
62690W        W24144   4.730  41.481  10.115
62691W        W24145  42.831   4.745   0.299
62692W        W24146   8.236  14.293  12.521
62693W        W24147  29.532  17.620   4.329
62694W        W24148  27.645   1.353   2.730
62695W        W24149   1.970   3.845   3.732
62696W        W24150  34.106  25.977  10.969
62697W        W24151  15.309   5.201   4.610
62698W        W24152   3.257  11.749   0.961
62699W        W24153   2.257  16.724  11.411
62700W        W24154   9.880  41.346   2.313
62701W        W24155   6.900   2.331  13.394
62702W        W24156  13.156  20.114   2.337
62703W        W24157   7.865  13.246   0.465
62704W        W24158  30.147  36.518   3.701
62705W        W24159  23.163   3.874  11.971
62706W        W24160   9.773  32.569  13.411
62707W        W24161  14.310  42.815  14.000
62708W        W24162   5.193  41.925   0.793
62709W        W24163  25.484   1.878   3.199
62710W        W24164   5.355  39.955   1.373
62711W        W24165  36.849  37.407  14.483
62712W        W24166  19.678   5.865   2.726
62713W        W24167   4.788  44.311  11.099
62714W        W24168  39.374  14.127  14.771
62715W        W24169   6.741   4.920  13.029
62716W        W24170  11.788  12.146  13.347
62717W        W24171  41.900  30.583   4.178
62718W        W24172  10.329  37.565  10.406
62719W        W24173  29.148  25.475   3.293
62720W        W24174  34.546  30.951  11.466
62721W        W24175  10.661  40.466   1.342
62722W        W24176  26.989  34.977  11.585
62723W        W24177   7.851  28.620   3.273
62724W        W24178  18.179  35.489  12.546
62725W        W24179  31.446  12.170   1.224
62726W        W24180  24.552  36.027  10.604
62727W        W24181  37.890   4.252  11.419
62728W        W24182  17.619   0.809  13.064
62729W        W24183  10.633  11.766   4.189
62730W        W24184  16.111  34.934   1.843
62731W        W24185  25.094  34.420   5.100
62732W        W24186  41.291  20.696   0.346
62733W        W24187  37.010  10.370  13.933
62734W        W24188  16.310  43.415  12.561
62735W        W24189   7.677  44.965  12.016
62736W        W24190  11.645  25.114   4.174
62737W        W24191  28.098  13.737  14.775
62738W        W24192  42.318  14.683  13.512
62739W        W24193  38.026   3.269   0.867
62740W        W24194   3.384  39.019   4.828
62741W        W24195   3.434  30.499   1.700
62742W        W24196  42.412  22.251  12.378
62743W        W24197   3.748   7.696   0.285
62744W        W24198   7.711   9.211  11.516
62745W        W24199  28.512  17.707   0.326
62746W        W24200  19.772  25.610   3.260
62747W        W24201  23.506  10.328  11.409
62748W        W24202  39.522  43.508  11.865
62749W        W24203  41.013  31.096   1.380
62750W        W24204  43.782  41.386   2.751
62751W        W24205  14.741  13.330  14.910
62752W        W24206  41.970  43.842   0.956
62753W        W24207  36.064  34.467   2.201
62754W        W24208  11.850  42.457  11.963
62755W        W24209  36.002  11.205  11.083
62756W        W24210  17.097   9.167  10.505
62757W        W24211  26.541  43.993  10.982
62758W        W24212  35.070  30.626  11.982
62759W        W24213  24.054   3.453  14.386
62760W        W24214  18.095  33.101  14.845
62761W        W24215  19.261  40.489   2.720
62762W        W24216  13.116  15.147   1.750
62763W        W24217  41.391  27.607   4.347
62764W        W24218  29.065   0.867   0.901
62765W        W24219  33.602  18.279  11.109
62766W        W24220  14.804  33.038  11.427
62767W        W24221  34.014   2.344   0.476
62768W        W24222  20.575   9.364  11.102
62769W        W24223   1.354  42.950   1.738
62770W        W24224  43.979   1.793   0.305
62771W        W24225  16.262   3.336   4.739
62772W        W24226   4.333  22.122  11.570
62773W        W24227   7.293  26.973  14.299
62774W        W24228  25.100   5.251  11.374
62775W        W24229   5.724  22.177  10.949
62776W        W24230   9.353  15.280  11.446
62777W        W24231  36.861  16.761  14.276
62778W        W24232  28.664  23.584   3.705
62779W        W24233  37.562  40.337  13.514
62780W        W24234   3.804  43.279   3.238
62781W        W24235   1.789  41.338   1.927
62782W        W24236  13.763  17.628  13.816
62783W        W24237  43.463   8.393  13.021
62784W        W24238  44.421   3.718  14.882
62785W        W24239  13.648  36.511   4.130
62786W        W24240   5.821   0.764   1.416
62787W        W24241  42.996  37.423  14.795
62788W        W24242  15.292  19.573  13.939
62789W        W24243  37.038  42.354  11.560
62790W        W24244  23.010  26.023   2.413
62791W        W24245  10.720  28.144  13.362
62792W        W24246   8.863  38.497   4.258
62793W        W24247   5.370  17.172   0.465
62794W        W24248   5.281  24.219   2.294
62795W        W24249  15.666  35.472   5.246
62796W        W24250   7.289  39.854  11.998
62797W        W24251  28.464   0.428  10.969
62798W        W24252  10.863  13.256  12.976
62799W        W24253  12.743  10.339  10.641
62800W        W24254  22.501  12.338   0.312
62801W        W24255   8.865  21.757  10.589
62802W        W24256  33.064  15.276   2.189
62803W        W24257   4.834  17.191  10.594
62804W        W24258  11.194  30.946  10.511
62805W        W24259  14.595  24.519   2.665
62806W        W24260  36.842   0.799  11.013
62807W        W24261  16.632  24.497   1.345
62808W        W24262  11.260   3.215  14.291
62809W        W24263  20.052  24.206   3.233
62810W        W24264  31.407  22.044  11.890
62811W        W24265  20.535  41.861  13.455
62812W        W24266  38.325  37.543   2.269
62813W        W24267  22.128  28.933  13.428
62814W        W24268  43.930   3.406  12.360
62815W        W24269   0.797  23.490  11.449
62816W        W24270  21.676  34.120   3.807
62817W        W24271  42.319  28.465  14.284
62818W        W24272  24.065  21.629  13.048
62819W        W24273   7.403  17.715  12.429
62820W        W24274  17.073   0.934   1.361
62821W        W24275   0.873  35.046   4.611
62822W        W24276  39.974  42.303  11.394
62823W        W24277   8.694  41.874   0.846
62824W        W24278  39.396   4.755   4.806
62825W        W24279   8.211   9.815  14.280
62826W        W24280  17.607  27.174  12.465
62827W        W24281   5.829  36.048  14.502
62828W        W24282  12.323  42.875  12.909
62829W        W24283  36.433  16.297  11.891
62830W        W24284  43.316   7.857  11.413
62831W        W24285  10.810   9.273   3.773
62832W        W24286   1.250  40.814  13.840
62833W        W24287  21.526  11.238  13.376
62834W        W24288   6.704  40.464  11.866
62835W        W24289  20.077  12.225  11.003
62836W        W24290  20.211  11.291  12.421
62837W        W24291   1.403  27.576   3.387
62838W        W24292  30.447  40.895  14.909
62839W        W24293  34.884   9.708  11.087
62840W        W24294  18.702   6.257   2.754
62841W        W24295   1.326  36.505   0.867
62842W        W24296  29.136  39.927  12.833
62843W        W24297  16.690   8.667   3.658
62844W        W24298  43.996  34.931  14.898
62845W        W24299   6.336  38.473   1.836
62846W        W24300  34.450  28.098   0.934
62847W        W24301  31.600  20.057   2.688
62848W        W24302   9.353  24.634  12.997
62849W        W24303  23.094  37.851  12.555
62850W        W24304  39.325  22.059   0.867
62851W        W24305   8.807  18.272   0.743
62852W        W24306  13.112  20.563  13.961
62853W        W24307  33.409   2.884   3.709
62854W        W24308  44.312  43.009  11.055
62855W        W24309  33.447  10.274  12.548
62856W        W24310   7.778  28.969   2.869
62857W        W24311  36.933  35.886  12.912
62858W        W24312   3.949  43.408   2.233
62859W        W24313   5.741  17.166  11.599
62860W        W24314  36.529  31.147  11.970
62861W        W24315   6.873  26.580   2.814
62862W        W24316  22.102   1.748   4.833
62863W        W24317   4.279  37.556  11.447
62864W        W24318   2.842  40.942  12.913
62865W        W24319   0.290  29.918  11.986
62866W        W24320  22.677  17.251   4.667
62867W        W24321  31.139  10.779  14.969
62868W        W24322  22.085  18.615   3.288
62869W        W24323   1.872   4.413  13.922
62870W        W24324  34.597  12.169  11.612
62871W        W24325   4.772  36.906  11.576
62872W        W24326  13.272  42.906  14.419
62873W        W24327  40.822  24.979   4.606
62874W        W24328  10.853   2.891   1.779
62875W        W24329   9.175  37.342  12.929
62876W        W24330   5.386  36.951  13.029
62877W        W24331  12.286  37.365   4.703
62878W        W24332  22.666   2.306  12.933
62879W        W24333  32.479  41.869   4.256
62880W        W24334  20.060  20.083  11.112
62881W        W24335  21.684  42.002   1.406
62882W        W24336  23.571  41.534   4.252
62883W        W24337  32.902  27.194   2.413
62884W        W24338  35.891   0.989  11.875
62885W        W24339  12.771  40.991   2.328
62886W        W24340   8.697   1.791   4.282
62887W        W24341  27.982  28.064  14.484
62888W        W24342   5.324  25.973  12.412
62889W        W24343  16.586  14.677   4.765
62890W        W24344  37.939  43.932  12.085
62891W        W24345  11.230  40.905   3.342
62892W        W24346   8.351  34.121  13.941
62893W        W24347   0.314  43.809   4.803
62894W        W24348  32.633   9.267  13.912
62895W        W24349  42.317  29.174  14.813
62896W        W24350  36.420  20.532  13.855
62897W        W24351  41.983  40.007   1.418
62898W        W24352   5.751  27.121   0.480
62899W        W24353  16.104  43.379   2.338
62900W        W24354  29.498  29.969  13.941
62901W        W24355  18.745  30.603   1.894
62902W        W24356  39.988  26.504  10.450
62903W        W24357  43.969  44.355  11.593
62904W        W24358   6.803  24.553   3.870
62905W        W24359  44.491  14.602  12.061
62906W        W24360  28.147  32.907   1.924
62907W        W24361  13.811  32.531   0.275
62908W        W24362  21.527  23.582  11.940
62909W        W24363  40.899  30.486  14.370
62910W        W24364   5.286   0.295   2.807
62911W        W24365   6.231   0.284  11.905
62912W        W24366  16.747   2.313  11.437
62913W        W24367  13.729  10.830  12.859
62914W        W24368   4.797  34.972   4.300
62915W        W24369  39.363  16.705   1.699
62916W        W24370  20.768   7.303   9.927
62917W        W24371  18.648  11.737   5.205
62918W        W24372   7.234  31.940  13.536
62919W        W24373  44.418   0.366  10.408
62920W        W24374  41.439  33.032  10.972
62921W        W24375  19.059  44.998  10.508
62922W        W24376  17.251  27.595   2.855
62923W        W24377  19.285   3.922  12.096
62924W        W24378  41.947   6.265  13.003
62925W        W24379  22.624  25.704   3.870
62926W        W24380  27.608  35.545   3.783
62927W        W24381  30.542  15.194  13.379
62928W        W24382   3.844  34.468  14.874
62929W        W24383  33.964  25.023   2.364
62930W        W24384  12.153  40.438  10.141
62931W        W24385  32.395  26.515  14.000
62932W        W24386  31.922   0.909   3.678
62933W        W24387  33.388   4.813   3.644
62934W        W24388   8.824   8.900  14.301
62935W        W24389  18.726   4.878   1.755
62936W        W24390  39.895  30.982   0.285
62937W        W24391  35.543  42.886  11.478
62938W        W24392   5.869  25.157   2.395
62939W        W24393   9.848  44.992  10.503
62940W        W24394  20.758  30.101   0.386
62941W        W24395  33.019   1.905   4.165
62942W        W24396  19.181  16.569   1.439
62943W        W24397  33.625  43.013   0.288
62944W        W24398  42.953  18.291   2.261
62945W        W24399  13.325   0.744  14.832
62946W        W24400  14.262  21.244  13.042
62947W        W24401  44.001  28.963   3.247
62948W        W24402  21.569  28.991   1.412
62949W        W24403  40.917  32.006   1.770
62950W        W24404  23.102  13.171   4.160
62951W        W24405  27.591  21.533   0.360
62952W        W24406  20.078  30.616  14.948
62953W        W24407  17.219  13.631  10.509
62954W        W24408   9.313  39.498  14.470
62955W        W24409  13.250  12.630  13.345
62956W        W24410   1.952  36.929  12.395
62957W        W24411  26.998  10.298  10.433
62958W        W24412  20.685  27.604  14.964
62959W        W24413  10.347  38.953  11.866
62960W        W24414  23.611  23.530   0.855
62961W        W24415  30.137  38.877  14.416
62962W        W24416  13.621  36.351   2.838
62963W        W24417  18.245  18.640  12.469
62964W        W24418   3.729   8.180  14.403
62965W        W24419  10.173  18.780   9.477
62966W        W24420  34.574  15.749   2.287
62967W        W24421  12.793  26.078   0.845
62968W        W24422  24.509  37.552   2.792
62969W        W24423  37.943  30.072   1.426
62970W        W24424  21.068  43.515  13.428
62971W        W24425  24.663  15.303  13.840
62972W        W24426  29.551  35.602   2.716
62973W        W24427  31.461  29.525  14.315
62974W        W24428  27.184  27.595  13.961
62975W        W24429  25.113  19.554  13.420
62976W        W24430  40.421  30.626   1.816
62977W        W24431  44.845  39.486  13.343
62978W        W24432   0.869  36.386   2.266
62979W        W24433   4.368  44.767   1.301
62980W        W24434   4.787  23.044  10.485
62981W        W24435  31.433   6.333   1.932
62982W        W24436  28.934  19.210   3.147
62983W        W24437  41.485  20.611  11.018
62984W        W24438  38.058  16.578   3.330
62985W        W24439  31.602  20.550  14.367
62986W        W24440  36.032   2.768  13.046
62987W        W24441  36.994  32.397   3.717
62988W        W24442  17.199  39.392  14.351
62989W        W24443   1.450  23.553  14.769
62990W        W24444  38.535  21.165   0.429
62991W        W24445  10.661   1.938   3.814
62992W        W24446   2.395  44.314   3.837
62993W        W24447  19.081  40.800   0.872
62994W        W24448  35.910   4.784   2.827
62995W        W24449   9.218   0.360   2.391
62996W        W24450  20.233  20.749  13.807
62997W        W24451  25.540  16.582  12.092
62998W        W24452  25.567   8.273   0.950
62999W        W24453  32.402  10.160   4.255
63000W        W24454   6.418  31.956   4.745
63001W        W24455  36.026  16.186   4.757
63002W        W24456  20.697  34.879   4.173
63003W        W24457  31.953  27.960  10.993
63004W        W24458  36.852  22.108   3.385
63005W        W24459  25.027  14.238   4.796
63006W        W24460  12.170  33.560   1.439
63007W        W24461  41.927  28.050   2.774
63008W        W24462  12.848  20.704   3.763
63009W        W24463  28.462  42.032  12.931
63010W        W24464  13.246  34.038  12.999
63011W        W24465  14.161  44.923  13.817
63012W        W24466   9.383  44.480   1.913
63013W        W24467  13.269  31.054  14.372
63014W        W24468  40.431  19.697   9.959
63015W        W24469  33.587  20.695  12.496
63016W        W24470  20.043  19.703  13.440
63017W        W24471  43.425  26.576   1.419
63018W        W24472  28.121  15.110   0.762
63019W        W24473  33.522  14.796   5.315
63020W        W24474  36.391   2.287  11.399
63021W        W24475  24.572   5.289  12.435
63022W        W24476  25.589  15.613  10.078
63023W        W24477  18.584  12.651  12.882
63024W        W24478  18.228  28.487   3.838
63025W        W24479   5.210  12.726   2.831
63026W        W24480  13.841  14.793  13.793
63027W        W24481  27.570  18.746  14.905
63028W        W24482  17.201   4.877  13.924
63029W        W24483  31.038  26.194   3.269
63030W        W24484  26.702  44.460  14.773
63031W        W24485  25.154   7.785   3.331
63032W        W24486   3.452  31.442  10.514
63033W        W24487  10.655  32.930  13.941
63034W        W24488  18.626  30.582   2.887
63035W        W24489  34.577  11.327  11.481
63036W        W24490  30.634   5.792   0.267
63037W        W24491   3.854  43.391  10.959
63038W        W24492   3.236  29.176   2.244
63039W        W24493  35.873   3.743   0.273
63040W        W24494  35.491  23.564   3.169
63041W        W24495  26.086   2.741  10.953
63042W        W24496  43.356  22.719   4.689
63043W        W24497  16.303  15.583  12.450
63044W        W24498   7.219  33.538  13.891
63045W        W24499  40.439  31.098   3.174
63046W        W24500  38.041  16.769   1.784
63047W        W24501  10.840   5.393   0.405
63048W        W24502  40.313  24.176  14.411
63049W        W24503   4.738  26.104  10.459
63050W        W24504  14.734  31.104  14.898
63051W        W24505   7.682  18.571  14.416
63052W        W24506  32.616  41.867   0.745
63053W        W24507   7.401  24.128  14.463
63054W        W24508  20.575  15.621  10.119
63055W        W24509  14.145  40.963  11.455
63056W        W24510  16.313   7.352   2.289
63057W        W24511  42.952   7.359  12.849
63058W        W24512   7.207  11.158   3.670
63059W        W24513  33.913   8.290  12.012
63060W        W24514  19.216   2.877   3.849
63061W        W24515  38.917  22.716   4.300
63062W        W24516  35.879  31.064  12.444
63063W        W24517  17.149  37.374  11.109
63064W        W24518   0.382  38.037   0.737
63065W        W24519   2.836  43.462   1.433
63066W        W24520  39.877  18.676   2.720
63067W        W24521  32.437  43.880  14.912
63068W        W24522  24.654   5.236   9.579
63069W        W24523  34.586   1.841   0.875
63070W        W24524  38.564  38.988  14.980
63071W        W24525  42.804  21.173   2.689
63072W        W24526  33.403  21.714  14.792
63073W        W24527  38.383  39.021   1.299
63074W        W24528   5.323  32.506   2.280
63075W        W24529   5.437   1.447   2.242
63076W        W24530  12.719  22.087  12.472
63077W        W24531   7.754  13.165   5.285
63078W        W24532  12.312  29.468  13.047
63079W        W24533  19.264  42.433  12.478
63080W        W24534  21.139  22.647  13.475
63081W        W24535  24.637  35.027  14.355
63082W        W24536  38.406   4.366  14.359
63083W        W24537   9.885  38.861  14.320
63084W        W24538  13.261  42.814  11.473
63085W        W24539   3.410  15.693   2.686
63086W        W24540   3.786  20.051  13.052
63087W        W24541  20.592  28.499  10.480
63088W        W24542  23.516  24.537   0.403
63089W        W24543   2.391   3.252   3.317
63090W        W24544   3.445  31.643   4.134
63091W        W24545  36.505  18.629  12.448
63092W        W24546  12.852   5.738   3.206
63093W        W24547  19.166  42.961  11.042
63094W        W24548   9.835  12.340   4.156
63095W        W24549   4.289  26.510  11.477
63096W        W24550   8.372   5.280  12.926
63097W        W24551  38.472  10.347  11.969
63098W        W24552  13.627  31.132  12.521
63099W        W24553  23.163  14.731   4.658
63100W        W24554  27.508  14.137  14.853
63101W        W24555   8.726  34.576  14.300
63102W        W24556  26.984  22.628   4.334
63103W        W24557   4.249   9.211   4.262
63104W        W24558  22.230   4.379  13.977
63105W        W24559  40.526  38.386   3.641
63106W        W24560   5.309   0.819  14.864
63107W        W24561  42.776  38.468  10.103
63108W        W24562  40.380  22.686  14.503
63109W        W24563  21.562  34.601   4.192
63110W        W24564  20.759   6.320   0.249
63111W        W24565  11.819   2.333  14.419
63112W        W24566  33.492  27.950  12.477
63113W        W24567  19.050  32.018  12.342
63114W        W24568  38.072  25.590  12.887
63115W        W24569  22.151   7.405  13.331
63116W        W24570  17.686  19.228  13.962
63117W        W24571  19.683   3.417   1.866
63118W        W24572  19.723  20.642   0.418
63119W        W24573  29.167   0.304   2.683
63120W        W24574  21.103  11.626  12.426
63121W        W24575  34.893  10.712  14.938
63122W        W24576  33.959  24.045   2.866
63123W        W24577  32.516  23.628  11.571
63124W        W24578  11.222   1.950   2.285
63125W        W24579  21.646  38.371   4.136
63126W        W24580  35.469  16.268   4.202
63127W        W24581   9.229   7.201  13.346
63128W        W24582   4.739   8.849   9.949
63129W        W24583   8.200  43.316   3.269
63130W        W24584  27.550  19.061   4.818
63131W        W24585  26.142  37.372  14.845
63132W        W24586  29.459  21.121   0.302
63133W        W24587  24.691  38.382   2.383
63134W        W24588  35.399  25.967  14.316
63135W        W24589  32.014  23.691   1.265
63136W        W24590  37.949  21.187   2.295
63137W        W24591  39.889  17.688   3.365
63138W        W24592  21.030  10.699  14.830
63139W        W24593  44.810   6.839  12.525
63140W        W24594  20.206   9.371  14.001
63141W        W24595  43.421  14.810   4.118
63142W        W24596  38.461   4.348   0.870
63143W        W24597  31.917  42.868  11.898
63144W        W24598  33.986  17.165   2.690
63145W        W24599   1.434  17.255   4.687
63146W        W24600   4.853  13.191  13.833
63147W        W24601  37.964  10.197  13.531
63148W        W24602  30.485  26.486   1.841
63149W        W24603   3.331  28.632  10.589
63150W        W24604  13.642   8.332  12.432
63151W        W24605  21.605  41.493  12.909
63152W        W24606   0.871  41.353   2.229
63153W        W24607  35.518  24.023  13.525
63154W        W24608  28.455  17.798  10.632
63155W        W24609  40.969  32.046  13.843
63156W        W24610  21.565  23.046  14.018
63157W        W24611   7.848  41.320   1.906
63158W        W24612  33.496   4.299   3.808
63159W        W24613  42.900   3.753  11.554
63160W        W24614  13.752  13.152  13.453
63161W        W24615   8.865  35.589   1.348
63162W        W24616   1.764  35.977   3.215
63163W        W24617  33.612  39.881  12.013
63164W        W24618  21.081  12.713  14.000
63165W        W24619  20.527   8.891  10.477
63166W        W24620  41.417  12.304  14.306
63167W        W24621   7.813   9.286   0.954
63168W        W24622  21.255  35.433   4.673
63169W        W24623  39.370  11.775  11.507
63170W        W24624   9.731  15.162  14.964
63171W        W24625  30.050  25.116  11.858
63172W        W24626   0.456  12.794   2.282
63173W        W24627  25.641  35.368  12.047
63174W        W24628  44.980  38.070   0.907
63175W        W24629  31.019  31.045   3.274
63176W        W24630  36.418  37.022  11.492
63177W        W24631  16.582  34.393   2.270
63178W        W24632   9.217  22.696  10.601
63179W        W24633  35.492  31.468  11.888
63180W        W24634   8.327  35.537   1.321
63181W        W24635  35.391  40.439  12.933
63182W        W24636   4.209  37.512   4.611
63183W        W24637   5.198  35.054   4.180
63184W        W24638   1.325  34.452  14.501
63185W        W24639  30.462  42.898  11.536
63186W        W24640  25.622  33.063   2.251
63187W        W24641   4.374  16.134  12.919
63188W        W24642  15.125  20.261   2.687
63189W        W24643   8.740  31.124  14.314
63190W        W24644  40.017  43.473   4.195
63191W        W24645  15.134   7.691   1.826
63192W        W24646   9.158   4.421   1.932
63193W        W24647  28.531  35.058   4.624
63194W        W24648  27.678   3.880   4.713
63195W        W24649  11.671  21.559  14.836
63196W        W24650  23.537  31.492   3.631
63197W        W24651  23.613  39.851  13.995
63198W        W24652  12.775  25.675  13.904
63199W        W24653   5.272   3.888   2.678
63200W        W24654  23.611  24.121   0.455
63201W        W24655  39.850  25.156  12.561
63202W        W24656  12.613  23.173   4.152
63203W        W24657   6.182  29.163  13.806
63204W        W24658  39.839  34.927   2.356
63205W        W24659  43.336  22.548   2.252
63206W        W24660  11.698  19.763  11.880
63207W        W24661  12.658  24.047   1.902
63208W        W24662  19.646  26.629   2.705
63209W        W24663  29.142  16.289   4.651
63210W        W24664  30.927  31.093  14.422
63211W        W24665  14.197   5.396   4.344
63212W        W24666   7.907   2.352  11.914
63213W        W24667   2.952   6.361  13.937
63214W        W24668  28.639  11.324  11.103
63215W        W24669  17.641  27.461   4.176
63216W        W24670   1.469  35.568   4.625
63217W        W24671  34.446  33.577  11.054
63218W        W24672  44.927  28.483  11.475
63219W        W24673  24.499   5.381   4.198
63220W        W24674  14.772  39.957  12.823
63221W        W24675   8.225   3.943  12.508
63222W        W24676   4.338  20.220   3.165
63223W        W24677   0.964  43.000  14.763
63224W        W24678   3.940  26.011   4.647
63225W        W24679  28.080   1.914  11.610
63226W        W24680  36.530   9.799   1.724
63227W        W24681  37.401   4.898   3.836
63228W        W24682  12.255  43.963  11.481
63229W        W24683  17.182  44.860  10.557
63230W        W24684  24.509  15.186  10.470
63231W        W24685  17.101  33.493   0.781
63232W        W24686  31.497  33.585  11.392
63233W        W24687  29.443  12.753   3.191
63234W        W24688  33.416  20.045   1.866
63235W        W24689  17.150   2.340  13.948
63236W        W24690  27.992   4.753   4.677
63237W        W24691  15.302  31.098   2.842
63238W        W24692  29.576  32.060  13.436
63239W        W24693  41.452  16.084  13.019
63240W        W24694  41.490  26.594   3.186
63241W        W24695  20.602  25.482  14.422
63242W        W24696   0.278  14.318   3.816
63243W        W24697  26.500  14.315   1.432
63244W        W24698  31.927  43.002  10.580
63245W        W24699  12.754  29.573   1.850
63246W        W24700  39.821   1.949  12.967
63247W        W24701  28.168   3.251   2.690
63248W        W24702  21.636   6.736  14.833
63249W        W24703  11.724  33.050  13.930
63250W        W24704  23.007  29.158  11.099
63251W        W24705  29.546  14.752   3.256
63252W        W24706  26.496  26.562  13.906
63253W        W24707  30.653  27.450  14.027
63254W        W24708  27.603  15.726  14.917
63255W        W24709  30.070  14.182   2.683
63256W        W24710   9.844  15.704   2.264
63257W        W24711  29.062  44.332   1.859
63258W        W24712  24.722   6.877  10.483
63259W        W24713  39.421  27.110  11.524
63260W        W24714  40.480   1.258   0.403
63261W        W24715   6.839  21.219  10.539
63262W        W24716  15.297  27.530   3.765
63263W        W24717   0.770  28.445  13.013
63264W        W24718  22.188  41.470  13.394
63265W        W24719  14.117  32.490  14.361
63266W        W24720  11.743  12.700   1.222
63267W        W24721  20.243   6.847   1.876
63268W        W24722  19.131  38.398  14.011
63269W        W24723  24.629  20.685   3.305
63270W        W24724  18.270   6.821   0.315
63271W        W24725  20.607  39.319  12.999
63272W        W24726  37.482  13.167   3.779
63273W        W24727   6.334  40.033   1.386
63274W        W24728  18.056  30.455   4.745
63275W        W24729  40.431  40.377   0.436
63276W        W24730  25.670  42.914   3.693
63277W        W24731  30.964   8.221  10.442
63278W        W24732  28.533  24.502  11.392
63279W        W24733  17.679   6.839   0.395
63280W        W24734  34.555  31.587  13.420
63281W        W24735  18.272   1.917   0.361
63282W        W24736   6.768  30.483   4.743
63283W        W24737  13.804  41.818  11.021
63284W        W24738  13.137  28.445  13.403
63285W        W24739  21.547  30.498  12.348
63286W        W24740  39.418  29.105  13.329
63287W        W24741  31.124  24.549  13.476
63288W        W24742  44.785  35.505   2.390
63289W        W24743   5.899  22.101  10.602
63290W        W24744  11.337   3.741  14.021
63291W        W24745  19.248   4.854   1.304
63292W        W24746  40.424  15.607  11.904
63293W        W24747  27.184  18.070   0.404
63294W        W24748  35.980  44.261  12.460
63295W        W24749  38.004   0.832  13.938
63296W        W24750  32.049   0.322   2.721
63297W        W24751  39.360  42.482   5.278
63298W        W24752  26.082  17.192  14.869
63299W        W24753  33.558  42.290   2.736
63300W        W24754  19.601  25.075   0.295
63301W        W24755   9.326  42.881  11.044
63302W        W24756  34.504  12.676  14.373
63303W        W24757  38.902   2.431  14.355
63304W        W24758  29.144   0.818  11.471
63305W        W24759  41.795  41.356  11.552
63306W        W24760   3.277  22.028   0.412
63307W        W24761  34.924  28.451  14.900
63308W        W24762  38.907  26.133   0.730
63309W        W24763  11.204   3.370  12.366
63310W        W24764  37.338  38.516  12.961
63311W        W24765  36.048  41.018   2.292
63312W        W24766  21.042   0.849  14.364
63313W        W24767  42.900  44.883  12.093
63314W        W24768  38.988  33.604  11.485
63315W        W24769  22.086   9.200  12.517
63316W        W24770  10.162   8.274   0.264
63317W        W24771   6.802   6.778   0.751
63318W        W24772  18.199   0.262  10.897
63319W        W24773  37.560  31.992   4.826
63320W        W24774  30.973  20.650  11.018
63321W        W24775   0.753  37.045  12.944
63322W        W24776   3.931  33.928  14.787
63323W        W24777  26.136  24.992   2.375
63324W        W24778  30.127   4.795   0.436
63325W        W24779  44.945  16.217   3.290
63326W        W24780   4.783   2.959   0.298
63327W        W24781  42.808  22.164  11.904
63328W        W24782  23.688  17.673  10.996
63329W        W24783  18.739  30.962   2.419
63330W        W24784  25.120  27.131  10.488
63331W        W24785  10.139  27.100   2.758
63332W        W24786  39.903  20.704   2.196
63333W        W24787  21.740   7.780  14.792
63334W        W24788  10.331  32.551   3.385
63335W        W24789  19.535  39.021   0.786
63336W        W24790  11.265  16.088  11.118
63337W        W24791  31.647   5.911  13.544
63338W        W24792  36.842   8.655  14.439
63339W        W24793  18.149  24.550  14.502
63340W        W24794   5.871  25.626  12.562
63341W        W24795  23.062   4.750  12.054
63342W        W24796  41.833  41.954  12.955
63343W        W24797  42.914  37.874  10.967
63344W        W24798  30.455  11.789   3.361
63345W        W24799  35.417  25.012  11.610
63346W        W24800  21.087  30.043  10.475
63347W        W24801  27.154  41.394   3.264
63348W        W24802  23.573  34.499   4.658
63349W        W24803  31.150  35.989  11.519
63350W        W24804  31.640   5.224  13.449
63351W        W24805   6.767  37.071  14.810
63352W        W24806  39.411  32.045   4.161
63353W        W24807  34.472  16.610   0.964
63354W        W24808  13.200   8.370   3.828
63355W        W24809  20.186  40.464  10.057
63356W        W24810  31.027   6.322   4.672
63357W        W24811   2.405  42.855   5.161
63358W        W24812  19.598  36.562  13.055
63359W        W24813  39.012  15.761  10.581
63360W        W24814  19.190   3.263   9.983
63361W        W24815  43.492  20.272   0.811
63362W        W24816  32.021   7.745   5.319
63363W        W24817  10.749  36.024  11.002
63364W        W24818  11.180  18.678  13.873
63365W        W24819  24.714  12.235   1.821
63366W        W24820  25.100  13.772  14.464
63367W        W24821  16.694  35.587   2.847
63368W        W24822  22.693  16.598  14.807
63369W        W24823  14.765  37.845  11.521
63370W        W24824  22.572  40.885   3.249
63371W        W24825  17.759  31.455   3.296
63372W        W24826  16.784  35.863   0.278
63373W        W24827  26.953  31.481   9.453
63374W        W24828  40.509  23.540  14.841
63375W        W24829  34.589  27.046   3.730
63376W        W24830   3.804   2.433  11.007
63377W        W24831  23.005  20.039  14.489
63378W        W24832   4.808  35.603  11.068
63379W        W24833   4.333   2.258  12.450
63380W        W24834  32.476  32.436  13.995
63381W        W24835  35.375  10.877  12.841
63382W        W24836  20.120  39.929   4.342
63383W        W24837  36.005  16.710  14.902
63384W        W24838  25.546   5.306  11.540
63385W        W24839  21.062  23.227   4.598
63386W        W24840  20.557   9.363   4.811
63387W        W24841  20.738  30.542  11.090
63388W        W24842  25.526  18.089  10.419
63389W        W24843  36.449  26.614   5.210
63390W        W24844  25.683   6.345  11.571
63391W        W24845   8.365  36.028  11.896
63392W        W24846  40.525  16.268   2.291
63393W        W24847   6.775   0.758  14.867
63394W        W24848  34.930  31.972  14.448
63395W        W24849  16.755   0.804  13.979
63396W        W24850  23.119   6.255  14.859
63397W        W24851  17.582  25.506   3.322
63398W        W24852   5.888  19.112   1.911
63399W        W24853   7.844  30.103  11.014
63400W        W24854   2.239   3.393  10.149
63401W        W24855  37.582  24.499  10.522
63402W        W24856   6.782  38.858   1.819
63403W        W24857  40.005  27.479   2.326
63404W        W24858  35.437  29.590  13.879
63405W        W24859  43.770   1.934  12.923
63406W        W24860   6.333  31.020  12.094
63407W        W24861  11.698   6.412   3.639
63408W        W24862  38.493  35.522   1.404
63409W        W24863   4.411  22.188  10.962
63410W        W24864   8.323  14.220   3.228
63411W        W24865  18.231  24.081   3.662
63412W        W24866   1.789  31.459  13.818
63413W        W24867  30.071  29.433  13.033
63414W        W24868  37.059   9.820   2.869
63415W        W24869  12.218  10.364  14.507
63416W        W24870   7.740  43.890   4.824
63417W        W24871  13.239  32.396   3.186
63418W        W24872   3.273  10.768  12.037
63419W        W24873  17.201  42.873   5.130
63420W        W24874  21.237   0.904  12.022
63421W        W24875  35.926  24.710   2.819
63422W        W24876  44.918  33.591   2.820
63423W        W24877  16.738  18.090  14.515
63424W        W24878  31.069  21.048   5.292
63425W        W24879  25.181  24.063   3.275
63426W        W24880  41.967  16.259   4.195
63427W        W24881   2.225  41.998   4.732
63428W        W24882  13.183   4.907   2.277
63429W        W24883   4.855   0.769   4.182
63430W        W24884   6.711  10.242  11.404
63431W        W24885  35.096   1.885   0.849
63432W        W24886  35.488   9.833   0.937
63433W        W24887  35.420  35.466  13.525
63434W        W24888   5.787  44.936  13.877
63435W        W24889  13.802  18.629  14.326
63436W        W24890   4.250  31.096  13.852
63437W        W24891   1.841   7.804  12.535
63438W        W24892  42.399  19.115   4.353
63439W        W24893   7.203  42.986   3.633
63440W        W24894  28.014  33.413   1.277
63441W        W24895  13.625   0.463   3.699
63442W        W24896  13.743  23.647   4.334
63443W        W24897  26.024  25.653  14.430
63444W        W24898  42.815  43.452  14.020
63445W        W24899  31.544  33.448  11.913
63446W        W24900  35.370   3.369  12.036
63447W        W24901  12.233  38.468   3.308
63448W        W24902  15.588   8.768   3.841
63449W        W24903  37.547   1.784   0.470
63450W        W24904  28.115  25.546  11.080
63451W        W24905   7.868  32.033   0.760
63452W        W24906  20.094  34.008   1.726
63453W        W24907   6.257  34.045   0.334
63454W        W24908  16.639   9.756   2.355
63455W        W24909   5.282  19.226  14.389
63456W        W24910  14.811  21.106  12.427
63457W        W24911   8.257  23.206   1.335
63458W        W24912   4.868  31.452   2.361
63459W        W24913  22.622  34.505   1.794
63460W        W24914  27.116  15.656   0.421
63461W        W24915  38.921  35.885  10.122
63462W        W24916   6.721   9.889  12.882
63463W        W24917  29.091  10.288  14.890
63464W        W24918  41.512  10.313   2.725
63465W        W24919  18.721  25.624   1.908
63466W        W24920  38.033  38.443  10.599
63467W        W24921  14.637  37.528   3.780
63468W        W24922   6.216   7.198  11.511
63469W        W24923   0.973  23.644   2.897
63470W        W24924  44.303  35.865  13.910
63471W        W24925  36.425  41.009   4.645
63472W        W24926  31.622   8.313  12.894
63473W        W24927  22.635  29.541   2.278
63474W        W24928   5.820   2.767   1.862
63475W        W24929   9.313  31.133   1.886
63476W        W24930  20.188   8.215   1.227
63477W        W24931  26.604   7.828  11.935
63478W        W24932  14.209  44.504  12.973
63479W        W24933  23.088  27.514  12.565
63480W        W24934  23.199  40.830   0.869
63481W        W24935  44.833  28.962  13.395
63482W        W24936  35.091  31.574  13.461
63483W        W24937  31.460   0.289  13.809
63484W        W24938  10.218  14.257  14.838
63485W        W24939  42.940  39.351   1.353
63486W        W24940  36.431   7.766  10.590
63487W        W24941  37.372  41.976  13.842
63488W        W24942  24.525   0.867   4.345
63489W        W24943  42.799  22.101   2.833
63490W        W24944  23.062  30.006   4.669
63491W        W24945  41.852  16.189  14.840
63492W        W24946   8.346  41.999  14.785
63493W        W24947   2.889  10.364  14.849
63494W        W24948  41.413  21.174  13.413
63495W        W24949  13.754   5.285   0.916
63496W        W24950  33.468  25.058  11.429
63497W        W24951  30.157   0.912   2.240
63498W        W24952   2.442  21.043   9.985
63499W        W24953  20.229   8.240  13.358
63500W        W24954   2.943   4.279  14.926
63501W        W24955  30.606  39.957   3.226
63502W        W24956  36.084  10.338  13.507
63503W        W24957  37.365   3.881  11.035
63504W        W24958  41.025  22.712   1.807
63505W        W24959   1.433  20.753   4.273
63506W        W24960   7.356  10.808   1.854
63507W        W24961  26.081   3.451  10.927
63508W        W24962  17.791  32.617   2.785
63509W        W24963   6.776  31.049  11.940
63510W        W24964   8.716   6.392   1.803
63511W        W24965   8.222  25.034  13.834
63512W        W24966  23.712   9.852  12.922
63513W        W24967  25.575  13.288  10.459
63514W        W24968  36.926  18.168  12.013
63515W        W24969   5.374   9.863   2.662
63516W        W24970   9.885  19.276   0.289
63517W        W24971  41.806  42.439   3.185
63518W        W24972  25.639  33.431  14.433
63519W        W24973   9.360  14.735   1.913
63520W        W24974  31.538  22.203  13.026
63521W        W24975  34.601  37.440   0.276
63522W        W24976  25.562  27.158   4.771
63523W        W24977  30.128  28.082  14.306
63524W        W24978  32.419  15.675   4.172
63525W        W24979  34.942   3.934   4.199
63526W        W24980  24.053  31.068   0.942
63527W        W24981  19.729  10.175  10.510
63528W        W24982  27.646   5.914  12.381
63529W        W24983  25.650  23.689   9.495
63530W        W24984  28.966  42.848  13.992
63531W        W24985  16.684  15.726   5.578
63532W        W24986  33.025  16.753   2.842
63533W        W24987  17.288  15.753   5.186
63534W        W24988  27.536   1.478   1.357
63535W        W24989  36.520  11.742  12.026
63536W        W24990   7.822  36.959   3.645
63537W        W24991   7.383  40.992  13.430
63538W        W24992  40.543  41.425  14.437
63539W        W24993  11.252  10.837   3.789
63540W        W24994  31.953  13.287   2.764
63541W        W24995  43.500  22.034   0.772
63542W        W24996  29.457  25.582  11.099
63543W        W24997  23.618  21.535  14.803
63544W        W24998  38.900  38.337   1.762
63545W        W24999   5.382   6.293  12.451
63546W        W25000  27.564  42.802  11.010
63547W        W25001  31.131  37.925   4.305
63548W        W25002  21.610  41.976  13.353
63549W        W25003  27.956   9.873   0.797
63550W        W25004   7.876  12.341  11.375
63551W        W25005  41.975  32.957   4.156
63552W        W25006  12.171  32.016   1.853
63553W        W25007   9.873  41.486  14.461
63554W        W25008   2.283  25.037   4.751
63555W        W25009  26.569  15.707  11.472
63556W        W25010  11.280  39.463  10.628
63557W        W25011  27.591  31.139   1.317
63558W        W25012  28.978   3.831   4.266
63559W        W25013  28.099  26.162   0.370
63560W        W25014  22.209  41.010   1.775
63561W        W25015  16.198  36.066  13.886
63562W        W25016  29.506  41.915   4.612
63563W        W25017  15.158   9.240  13.855
63564W        W25018  37.857  23.711   4.626
63565W        W25019  38.410  32.886  10.920
63566W        W25020  38.442   6.277  13.530
63567W        W25021   4.873  16.618   4.218
63568W        W25022  44.452  44.340  10.457
63569W        W25023  35.528  35.531   0.381
63570W        W25024  31.987  34.957   2.182
63571W        W25025  14.120  22.622  14.472
63572W        W25026  21.610   5.827   0.356
63573W        W25027  39.327  16.729   2.752
63574W        W25028  30.965  18.089   3.200
63575W        W25029  38.897  38.958  10.550
63576W        W25030   9.705  21.696   0.356
63577W        W25031   1.808   4.269   2.318
63578W        W25032  35.934  23.729  11.480
63579W        W25033  37.010   7.285  11.992
63580W        W25034  12.827  32.627  12.455
63581W        W25035  29.615   2.892   5.237
63582W        W25036  35.481  23.007  11.011
63583W        W25037  36.388  22.694  10.490
63584W        W25038  43.867  37.464  12.939
63585W        W25039   1.868  43.306   4.313
63586W        W25040  19.575  12.295   4.653
63587W        W25041   5.342   2.770   4.619
63588W        W25042  27.530  28.187   1.238
63589W        W25043   5.352  27.971   2.662
63590W        W25044  30.154   2.816   4.264
63591W        W25045  27.120  17.280  10.420
63592W        W25046  42.496   8.272   4.286
63593W        W25047  40.952  43.462   1.425
63594W        W25048  19.135  23.029   2.712
63595W        W25049   2.924  42.958   0.791
63596W        W25050  20.648  40.470  12.339
63597W        W25051  39.359  42.822  11.465
63598W        W25052  10.299  43.799   0.300
63599W        W25053  16.597   2.932   2.755
63600W        W25054   3.342  16.651  11.563
63601W        W25055  14.243  42.868  12.500
63602W        W25056  29.061   1.963  12.444
63603W        W25057  28.532  39.031  14.495
63604W        W25058  41.026  27.951   3.728
63605W        W25059  43.338  42.514   2.357
63606W        W25060  37.016  26.074   2.684
63607W        W25061   8.241  23.516   3.331
63608W        W25062  36.425  16.131   2.821
63609W        W25063  24.491  11.350  13.859
63610W        W25064   7.764  21.232  13.059
63611W        W25065   7.737   2.455  12.371
63612W        W25066  40.370  11.821  12.473
63613W        W25067  34.095   2.936   4.676
63614W        W25068  10.860  19.588   1.772
63615W        W25069  30.082  19.114  12.342
63616W        W25070   6.696   2.751  13.508
63617W        W25071   5.195  21.107   2.852
63618W        W25072  21.712  18.133  11.016
63619W        W25073  18.123  22.502  11.498
63620W        W25074  39.371  14.679   1.271
63621W        W25075  22.200  13.336   3.737
63622W        W25076  29.512   0.745  12.061
63623W        W25077  21.182  31.042  13.520
63624W        W25078   7.794   1.267   0.949
63625W        W25079  36.096  12.332  12.003
63626W        W25080  26.185   7.703   4.755
63627W        W25081  21.251   0.952   3.170
63628W        W25082  16.574   8.664  12.509
63629W        W25083  12.620  37.565  12.506
63630W        W25084  20.717  11.851   2.865
63631W        W25085  27.686   4.818  11.591
63632W        W25086   7.267  23.594   1.717
63633W        W25087  22.206  26.687   2.369
63634W        W25088   2.397  32.628  10.430
63635W        W25089  30.045  15.286   3.854
63636W        W25090  31.088  18.087  13.482
63637W        W25091  16.705  25.651  13.966
63638W        W25092  13.249  26.996  12.989
63639W        W25093  30.490   7.324  13.820
63640W        W25094   2.934   0.459  14.940
63641W        W25095  19.752  10.341   3.171
63642W        W25096   2.942  17.264  13.363
63643W        W25097  24.609  24.022   3.841
63644W        W25098  39.372  39.508   2.389
63645W        W25099  35.029   6.741   2.702
63646W        W25100   2.825  20.054   3.196
63647W        W25101  34.435  13.631  13.309
63648W        W25102   2.865  33.382  13.904
63649W        W25103  12.119  43.835   3.348
63650W        W25104  34.487   8.714   4.157
63651W        W25105  36.353  42.438  13.892
63652W        W25106   9.265  14.204   2.826
63653W        W25107  27.009  30.459   1.281
63654W        W25108  39.864   8.356   1.717
63655W        W25109  42.462  30.041  14.967
63656W        W25110  43.430  25.154   5.145
63657W        W25111  24.705  43.306  14.768
63658W        W25112  41.958   1.462  11.888
63659W        W25113  32.036   6.418   3.318
63660W        W25114  29.925   6.796  14.466
63661W        W25115   7.855  35.498   4.835
63662W        W25116  35.396  29.500  11.513
63663W        W25117  18.762  17.176  12.969
63664W        W25118  25.564  23.106   2.178
63665W        W25119  27.119   7.788   4.198
63666W        W25120  16.700  21.606  14.919
63667W        W25121   1.765  36.511  12.848
63668W        W25122  20.690  11.862  11.860
63669W        W25123  14.295  18.621  12.530
63670W        W25124   9.181  33.587  14.376
63671W        W25125  14.807  43.902   3.333
63672W        W25126  25.683  24.134   3.153
63673W        W25127  10.253  34.899  11.918
63674W        W25128  38.466  39.892   4.832
63675W        W25129  15.773  22.666   5.244
63676W        W25130   1.326  37.354  10.589
63677W        W25131  22.204   4.754  12.083
63678W        W25132   8.282   0.836  13.859
63679W        W25133  25.494  23.564   3.255
63680W        W25134  41.934   4.363   1.809
63681W        W25135  20.243  42.992  10.430
63682W        W25136   7.751  44.870  10.435
63683W        W25137  20.657  31.625  10.637
63684W        W25138  20.213  36.404  13.388
63685W        W25139  16.277  28.508   1.232
63686W        W25140  18.682  32.480   4.172
63687W        W25141  38.929   0.823   4.646
63688W        W25142   0.416  36.076   4.353
63689W        W25143  10.151   5.431   3.665
63690W        W25144   1.783  43.798  13.824
63691W        W25145  40.479  14.708   0.824
63692W        W25146  14.806  20.138   1.846
63693W        W25147  41.026   4.239   0.918
63694W        W25148  37.012  36.066   1.910
63695W        W25149  44.798  18.183  10.404
63696W        W25150  37.415  31.452  14.965
63697W        W25151  27.494  39.893   3.330
63698W        W25152  40.530  31.920   0.411
63699W        W25153  29.127  13.318   0.967
63700W        W25154  21.549  21.261  13.051
63701W        W25155  18.099  27.452   1.729
63702W        W25156  44.464  38.043   3.254
63703W        W25157  26.525  42.363  14.355
63704W        W25158   8.778  23.076   1.763
63705W        W25159  29.653  38.927   4.656
63706W        W25160  38.000  38.845  10.071
63707W        W25161   5.356  25.194  11.384
63708W        W25162  37.447  35.886  12.444
63709W        W25163  20.210  31.125  12.569
63710W        W25164  39.047  32.595   4.703
63711W        W25165  41.475  33.395   1.270
63712W        W25166   7.403  30.486  11.540
63713W        W25167  39.414  28.523   0.749
63714W        W25168   9.241   2.294  14.943
63715W        W25169  33.000  22.109   2.340
63716W        W25170  12.661   7.282  14.948
63717W        W25171  35.928  41.007  14.014
63718W        W25172  25.971  36.463   1.343
63719W        W25173  37.363  15.600   3.714
63720W        W25174  39.992  30.578  14.837
63721W        W25175  14.644  43.767  12.569
63722W        W25176   4.887  44.339   0.822
63723W        W25177   0.333  42.502   3.823
63724W        W25178  38.435  29.053  14.783
63725W        W25179  24.539  15.770  11.921
63726W        W25180   5.741  40.054   2.767
63727W        W25181  17.724   7.388   4.352
63728W        W25182  43.902  41.040  13.880
63729W        W25183  38.006  35.005  13.488
63730W        W25184  10.781   5.406  11.902
63731W        W25185   2.352  15.085  14.935
63732W        W25186  26.092  33.877  13.855
63733W        W25187   0.763   2.454   4.732
63734W        W25188  11.326  32.002  12.891
63735W        W25189  35.056   2.379   1.716
63736W        W25190   5.219  42.782  14.284
63737W        W25191  34.405  31.537  12.887
63738W        W25192  38.892  38.529  10.158
63739W        W25193   6.695  10.154   3.778
63740W        W25194  17.625  19.766   2.339
63741W        W25195  27.051  30.986   1.226
63742W        W25196  25.553  10.352  11.492
63743W        W25197  19.639  21.563   0.954
63744W        W25198  11.863   2.888   1.780
63745W        W25199   9.386  20.037   2.240
63746W        W25200  13.696  16.682   1.872
63747W        W25201  42.521  18.675  14.789
63748W        W25202  44.966   9.836   2.809
63749W        W25203   1.285  25.166   2.759
63750W        W25204   5.750   5.773  12.889
63751W        W25205   0.432  12.333   1.220
63752W        W25206  11.353   5.286   0.938
63753W        W25207  43.443  38.391   3.161
63754W        W25208  41.875  43.333  12.910
63755W        W25209  21.041   8.335  13.802
63756W        W25210  23.547  27.961  12.014
63757W        W25211  15.189  23.057   3.321
63758W        W25212  22.249  42.006  13.824
63759W        W25213  39.007   1.805   2.780
63760W        W25214   9.157  40.506  12.982
63761W        W25215   0.852  32.044  11.009
63762W        W25216  18.758  30.044   4.734
63763W        W25217  37.402  21.264  12.985
63764W        W25218  33.593   4.926  14.304
63765W        W25219  35.894  20.078  13.919
63766W        W25220  15.309  25.577   2.850
63767W        W25221  41.435  26.143  14.837
63768W        W25222  27.594   9.835   3.280
63769W        W25223  38.955  30.116  10.513
63770W        W25224  20.574   2.378  14.419
63771W        W25225  42.814  37.024   2.836
63772W        W25226  11.222  36.866  11.082
63773W        W25227  13.642   4.796  12.345
63774W        W25228  40.854  34.539   3.851
63775W        W25229  30.645   1.325   1.322
63776W        W25230   4.720  35.915  11.455
63777W        W25231  44.301  22.237   0.479
63778W        W25232   0.459  33.929   0.430
63779W        W25233   7.818  29.164   4.755
63780W        W25234   9.263   5.319  14.779
63781W        W25235  23.518  21.650   2.884
63782W        W25236  20.637  22.102  14.782
63783W        W25237  29.520  36.853  11.943
63784W        W25238  12.296  18.754  11.561
63785W        W25239  35.578  20.247   3.234
63786W        W25240  13.831  28.655   0.315
63787W        W25241  30.414  19.575  11.882
63788W        W25242  36.451  34.398   0.959
63789W        W25243   4.428  17.297  12.841
63790W        W25244  39.408  24.092  12.966
63791W        W25245  10.238  31.625  14.324
63792W        W25246  37.017  29.063   4.179
63793W        W25247  10.847  28.518  13.843
63794W        W25248   0.859  41.825   3.370
63795W        W25249  32.001  22.066   2.419
63796W        W25250  12.309   6.328  11.886
63797W        W25251  30.057  30.028   1.912
63798W        W25252  27.594   1.386  14.951
63799W        W25253   8.236  18.712  11.475
63800W        W25254  31.032  16.220   0.755
63801W        W25255  23.072  39.517   0.353
63802W        W25256  11.723   2.264   2.357
63803W        W25257  17.685  20.052   2.366
63804W        W25258   8.739  16.182  10.529
63805W        W25259  42.801  17.700  10.527
63806W        W25260  22.023   4.213  14.413
63807W        W25261  41.006  37.472  10.895
63808W        W25262  21.026  32.061   1.793
63809W        W25263  15.812  10.815   2.247
63810W        W25264  27.102  28.143  13.533
63811W        W25265   2.397   3.712   1.718
63812W        W25266  32.886   3.808  11.090
63813W        W25267  17.081  14.151   3.188
63814W        W25268   7.827  12.283   1.312
63815W        W25269  34.055   0.927  10.455
63816W        W25270  21.238   7.413   0.482
63817W        W25271  44.283  16.593   3.771
63818W        W25272  13.633   0.909  14.486
63819W        W25273  29.954  10.186  10.980
63820W        W25274  44.991   6.196   0.850
63821W        W25275  32.962  25.179  14.827
63822W        W25276   6.316  35.488   1.833
63823W        W25277  32.955  17.299  14.461
63824W        W25278  12.698  28.082  14.411
63825W        W25279  20.088  12.661   0.801
63826W        W25280   9.864  29.429  12.460
63827W        W25281  36.950  30.105  14.941
63828W        W25282   3.313  21.732   1.238
63829W        W25283  28.532  37.967   0.310
63830W        W25284  17.557  41.499  12.345
63831W        W25285  34.083  25.710  10.977
63832W        W25286   7.351  13.703   2.791
63833W        W25287  36.898  24.089  13.407
63834W        W25288   4.921  36.386   4.700
63835W        W25289  25.188  36.396   4.612
63836W        W25290   1.444  18.776   4.286
63837W        W25291   1.896  13.757   0.254
63838W        W25292  42.318  34.968   0.278
63839W        W25293  24.616   9.252  12.371
63840W        W25294  32.097  42.392  11.108
63841W        W25295  41.461  14.152  14.488
63842W        W25296  10.658  28.437  11.387
63843W        W25297  37.008  14.175   1.706
63844W        W25298  41.494  33.118   0.803
63845W        W25299  16.749   1.863   4.616
63846W        W25300  27.103  13.707   2.397
63847W        W25301  31.506   5.821  13.042
63848W        W25302   2.961   6.812   0.848
63849W        W25303  22.654   9.841  11.485
63850W        W25304   2.837  19.727  12.476
63851W        W25305  41.985  14.126   0.855
63852W        W25306   0.946  39.331   0.758
63853W        W25307  15.584  16.620   0.472
63854W        W25308  32.500  44.344  13.534
63855W        W25309   2.271  19.076  10.972
63856W        W25310  27.453  23.004   0.381
63857W        W25311  33.103  38.033   4.305
63858W        W25312   5.874   1.924   0.362
63859W        W25313  23.627   0.472  10.486
63860W        W25314  23.556  16.706  10.454
63861W        W25315  20.614   1.859   4.619
63862W        W25316   8.875   4.308  13.319
63863W        W25317  20.033  28.027  14.764
63864W        W25318  35.103  18.640  11.603
63865W        W25319  26.190  22.596  13.984
63866W        W25320   7.172  42.432   1.336
63867W        W25321  31.639  39.041  11.076
63868W        W25322   9.832  30.929  13.941
63869W        W25323   7.325  33.526  14.335
63870W        W25324  43.990   9.263  14.386
63871W        W25325  20.646   4.818   1.811
63872W        W25326  13.251  13.111  10.943
63873W        W25327   2.310  44.491   1.326
63874W        W25328  33.127   0.298   2.307
63875W        W25329  38.402  25.600  10.619
63876W        W25330  26.515   9.702  11.371
63877W        W25331   7.192  14.681  11.437
63878W        W25332  27.946  32.632  10.637
63879W        W25333  16.257  23.113   0.853
63880W        W25334  20.145  40.432  14.000
63881W        W25335  23.604   2.273   3.331
63882W        W25336  30.050  30.942   2.395
63883W        W25337  40.970   8.242   0.348
63884W        W25338  40.505   6.242  13.461
63885W        W25339  40.367  39.446  12.354
63886W        W25340  24.693   0.779  14.942
63887W        W25341  26.128  33.418  13.462
63888W        W25342  30.588  15.303  12.030
63889W        W25343  30.003   0.407  13.537
63890W        W25344  25.970  21.033  12.085
63891W        W25345   5.768  12.132   3.316
63892W        W25346   9.163  28.513   4.668
63893W        W25347  24.188   1.374   1.331
63894W        W25348   6.907  10.204  14.507
63895W        W25349  36.416  12.176  12.931
63896W        W25350  29.622  25.984  11.052
63897W        W25351  43.484  16.690  12.879
63898W        W25352  30.095   8.689  12.961
63899W        W25353   4.390  40.849   2.240
63900W        W25354   0.956  35.041   2.742
63901W        W25355  36.480  34.547  10.912
63902W        W25356   8.837  19.138  13.807
63903W        W25357  25.675  34.396   0.345
63904W        W25358  25.576  41.393  13.049
63905W        W25359  18.190  25.050  13.992
63906W        W25360   7.348   7.193   4.766
63907W        W25361  43.945  19.603   5.140
63908W        W25362   2.279  31.528  10.982
63909W        W25363   5.748  25.635   1.846
63910W        W25364   6.259  14.795  11.944
63911W        W25365   5.215   9.699  13.040
63912W        W25366  18.640  38.918  12.569
63913W        W25367  25.547  37.076   1.838
63914W        W25368  10.300  22.021   4.642
63915W        W25369   5.285  28.664  13.309
63916W        W25370  15.206  13.643   2.883
63917W        W25371   0.384  39.391   4.716
63918W        W25372   9.879  23.115   1.769
63919W        W25373   0.805  10.690   0.954
63920W        W25374  34.487  35.878  12.034
63921W        W25375  14.722  32.040   0.871
63922W        W25376  10.710  11.698   3.320
63923W        W25377   6.798  39.009   0.951
63924W        W25378  27.982   1.324   4.634
63925W        W25379  25.165   9.688  11.581
63926W        W25380   0.782  38.828   1.411
63927W        W25381  20.700  40.350   3.271
63928W        W25382  39.894  10.199   0.966
63929W        W25383  17.113  24.624  12.565
63930W        W25384  33.498  43.860   3.370
63931W        W25385  38.890  11.695   2.187
63932W        W25386  41.970  29.162   3.187
63933W        W25387   3.832   3.366  10.003
63934W        W25388   3.761  37.047  10.941
63935W        W25389  40.801  43.961  11.096
63936W        W25390  43.007  10.804  10.891
63937W        W25391   1.950   5.842   3.314
63938W        W25392  15.709  35.944   1.727
63939W        W25393   9.394  28.612   1.821
63940W        W25394  37.480   7.341  14.382
63941W        W25395  22.678  18.756   2.322
63942W        W25396  30.075   8.253   1.444
63943W        W25397  13.797  42.314   0.251
63944W        W25398   6.895   2.286  12.017
63945W        W25399  42.812  33.498   2.707
63946W        W25400  36.427  13.656  12.427
63947W        W25401  40.850  41.425   2.307
63948W        W25402  43.824  26.699   1.352
63949W        W25403  20.096   3.409  12.068
63950W        W25404  10.324   3.744  14.822
63951W        W25405   2.863  17.229   0.826
63952W        W25406   6.388   9.656   3.767
63953W        W25407  33.422   9.331   0.758
63954W        W25408  31.968  21.646   0.300
63955W        W25409   9.803   6.765   3.246
63956W        W25410  29.083  44.326  12.533
63957W        W25411   4.902  28.946   4.751
63958W        W25412  32.106  14.591   0.328
63959W        W25413  14.250   9.885   0.355
63960W        W25414  13.656  12.143   9.986
63961W        W25415  17.232  11.274   2.700
63962W        W25416  13.299   2.961   3.680
63963W        W25417   3.448  27.051   1.230
63964W        W25418  17.122  26.060   1.777
63965W        W25419  12.257  16.743   0.958
63966W        W25420  12.300  19.268   0.966
63967W        W25421  25.014  16.661   1.864
63968W        W25422  26.683  37.416  14.463
63969W        W25423   3.719   3.438   0.257
63970W        W25424   7.772  15.631   0.279
63971W        W25425  14.722   1.754   1.883
63972W        W25426  16.285  23.677   2.294
63973W        W25427   6.274  35.029   4.755
63974W        W25428  37.053  23.130  13.509
63975W        W25429  22.174  35.601  13.349
63976W        W25430  37.480   0.355  12.933
63977W        W25431  44.393   7.838   1.425
63978W        W25432  26.547  31.645  13.512
63979W        W25433  41.002  40.905  14.780
63980W        W25434  33.095  35.078  12.534
63981W        W25435  43.339  15.765   3.680
63982W        W25436  40.864  31.499  11.501
63983W        W25437  31.974  33.595   5.231
63984W        W25438  30.096  16.210   3.233
63985W        W25439  22.198   0.788   2.676
63986W        W25440  13.262  23.559   1.854
63987W        W25441   0.954  21.677   0.966
63988W        W25442  13.658  21.716  13.854
63989W        W25443  20.041  13.116   0.316
63990W        W25444  35.382   4.775  10.560
63991W        W25445  24.105  25.157   5.184
63992W        W25446  19.068  15.617  14.488
63993W        W25447  31.075   8.872  12.028
63994W        W25448   6.293  31.531   0.332
63995W        W25449   8.730  22.250   0.736
63996W        W25450  37.522  19.080  10.950
63997W        W25451  19.212   3.814   4.225
63998W        W25452   9.297  18.608   2.194
63999W        W25453  29.057  14.667   2.215
64000W        W25454  23.626  41.535  11.383
64001W        W25455  14.335  37.362   2.249
64002W        W25456  33.052  23.732  13.959
64003W        W25457  13.237   7.818  11.407
64004W        W25458  31.134  38.513   0.900
64005W        W25459  38.045  16.255  11.942
64006W        W25460  31.927  19.539  14.852
64007W        W25461  10.832   9.776  14.808
64008W        W25462  38.011  30.140   4.811
64009W        W25463  35.999  11.317   2.733
64010W        W25464  36.525  42.882  13.889
64011W        W25465  30.010   9.680   2.220
64012W        W25466  30.998   8.773  11.498
64013W        W25467  43.777  11.823   0.911
64014W        W25468  16.758  17.206  10.475
64015W        W25469  23.091  12.735  10.438
64016W        W25470  16.721  41.379  12.849
64017W        W25471  35.589  22.133  11.015
64018W        W25472   5.775  24.054   0.894
64019W        W25473  41.366   4.207   0.847
64020W        W25474   7.410   0.275   1.753
64021W        W25475  33.568   9.230   2.763
64022W        W25476  28.652  23.077  14.432
64023W        W25477  21.675   1.737  12.067
64024W        W25478   7.186   3.264   1.436
64025W        W25479  23.720  41.492   4.774
64026W        W25480  35.004  36.052   3.221
64027W        W25481  41.861  32.975  10.626
64028W        W25482  43.413   1.430   4.153
64029W        W25483  18.064  26.468   2.896
64030W        W25484   4.920  44.891  14.321
64031W        W25485  37.898  44.996   0.400
64032W        W25486  42.397  18.222  11.454
64033W        W25487  39.836   0.820   3.332
64034W        W25488  32.555  27.005   3.155
64035W        W25489  20.545  44.483  14.301
64036W        W25490  27.160  12.332   3.243
64037W        W25491   8.856  43.286  13.922
64038W        W25492  32.625  13.757   1.824
64039W        W25493  35.420  10.809   4.785
64040W        W25494   4.233   3.762  14.861
64041W        W25495  26.677  40.538  10.962
64042W        W25496  25.078  19.061   3.830
64043W        W25497  44.869  28.470   0.358
64044W        W25498  33.012   8.192   3.794
64045W        W25499  31.503  16.164   0.456
64046W        W25500   1.937  37.428  13.316
64047W        W25501  41.445   0.287  14.767
64048W        W25502   0.426  32.961  13.390
64049W        W25503  26.133  32.431   3.318
64050W        W25504  38.548  22.655   3.745
64051W        W25505   3.397  13.135  10.597
64052W        W25506  44.837  43.272  13.424
64053W        W25507  33.393  32.916  14.403
64054W        W25508   6.275  12.631   0.387
64055W        W25509  39.435  27.954  10.537
64056W        W25510  33.121  32.513  12.512
64057W        W25511  36.435  31.107   1.729
64058W        W25512  20.184  28.938   0.434
64059W        W25513  13.198  24.494  13.976
64060W        W25514  34.472  15.288  13.438
64061W        W25515  16.807  29.426  13.495
64062W        W25516  38.923  28.004  11.473
64063W        W25517  14.227   3.795   5.153
64064W        W25518  44.844   6.423  10.992
64065W        W25519  36.933  15.726   3.738
64066W        W25520  44.914   7.277   3.764
64067W        W25521  20.152  16.239   1.287
64068W        W25522   8.328  22.619  10.562
64069W        W25523  13.647  30.450   3.700
64070W        W25524  36.498  42.963   2.676
64071W        W25525  44.497  18.176  12.397
64072W        W25526  30.515   3.772  11.472
64073W        W25527  18.241   6.374   4.119
64074W        W25528  31.462  15.708   0.929
64075W        W25529  11.324   8.827  13.374
64076W        W25530  14.831  13.686  13.879
64077W        W25531  14.289  29.000  14.300
64078W        W25532  10.649  12.642  12.910
64079W        W25533  14.702  29.553   1.451
64080W        W25534  26.988  32.885  14.313
64081W        W25535   0.389  37.012  12.364
64082W        W25536  13.248  18.292   1.703
64083W        W25537  27.080  41.368   3.788
64084W        W25538   4.872  42.506   1.271
64085W        W25539  19.694  35.392   0.461
64086W        W25540  28.050  40.843  14.852
64087W        W25541  18.220  40.532  11.002
64088W        W25542  33.488  21.613   2.702
64089W        W25543  33.121   2.322  14.328
64090W        W25544  26.531   6.852   4.624
64091W        W25545  39.417   7.875   4.666
64092W        W25546  40.543  19.210   1.759
64093W        W25547  42.413   1.423  13.018
64094W        W25548  41.935  32.410   1.872
64095W        W25549   5.748  20.028  13.503
64096W        W25550  34.977  29.670   2.879
64097W        W25551  15.752   9.253   1.712
64098W        W25552   7.247  35.440  10.462
64099W        W25553   6.842   7.784  13.869
64100W        W25554   9.874   8.770   2.321
64101W        W25555   1.458  37.869  12.087
64102W        W25556  28.517  16.237  12.435
64103W        W25557  16.227  24.143  11.113
64104W        W25558  21.688  21.582   3.803
64105W        W25559  15.130  32.008  13.058
64106W        W25560  35.565  40.477  11.492
64107W        W25561  41.411  11.624   1.359
64108W        W25562  10.656   9.863  11.459
64109W        W25563  37.027   5.833   0.941
64110W        W25564  33.067  40.330  12.973
64111W        W25565  15.317   3.824  13.955
64112W        W25566  17.710   1.476  11.439
64113W        W25567  31.131  39.409  13.809
64114W        W25568  12.125  10.869   2.792
64115W        W25569   6.816   6.343  11.571
64116W        W25570  26.547  44.946   1.763
64117W        W25571  34.973  41.022  13.395
64118W        W25572  37.415   5.858  14.892
64119W        W25573  18.262  30.936   2.284
64120W        W25574  36.467  27.173  12.409
64121W        W25575  10.780  13.608  10.587
64122W        W25576  37.490  15.325  13.046
64123W        W25577  22.206  34.045  13.936
64124W        W25578  28.608  23.223  12.371
64125W        W25579   3.944  30.542   3.826
64126W        W25580   2.230  42.818   2.730
64127W        W25581  18.097   6.722   3.317
64128W        W25582  43.786  42.825   2.241
64129W        W25583  19.614   7.898   1.274
64130W        W25584  36.924  39.976  11.874
64131W        W25585  14.689   3.393  12.559
64132W        W25586  10.725   7.371  14.339
64133W        W25587  32.055  41.314  12.972
64134W        W25588  32.551  27.056   2.298
64135W        W25589  19.591   2.382   4.307
64136W        W25590  28.078   7.374  10.967
64137W        W25591  20.193  42.895  11.103
64138W        W25592  41.905  14.312   5.130
64139W        W25593   6.385  42.956   2.349
64140W        W25594  39.391   5.292  14.928
64141W        W25595   6.799  33.615   0.319
64142W        W25596  14.192  42.781   9.995
64143W        W25597  30.535  24.537   0.405
64144W        W25598   9.808   6.428   0.283
64145W        W25599  28.630  16.169   0.390
64146W        W25600   0.318  26.208   3.360
64147W        W25601  20.577  10.260   3.170
64148W        W25602  28.649   8.838  11.447
64149W        W25603   6.286  29.532   3.751
64150W        W25604  16.761  20.206  11.967
64151W        W25605   2.361  33.947  10.421
64152W        W25606  43.962  29.510  11.387
64153W        W25607   1.441  25.565  13.413
64154W        W25608  32.494  33.037  13.916
64155W        W25609   1.412   9.875  12.094
64156W        W25610  33.905  28.591   4.238
64157W        W25611  31.004  15.586  13.509
64158W        W25612  21.182   9.755   2.825
64159W        W25613  23.029   3.726   2.370
64160W        W25614  40.888  24.173  11.372
64161W        W25615   5.195  33.940  13.450
64162W        W25616  14.641  30.482   4.768
64163W        W25617   1.920   8.392  14.009
64164W        W25618  13.212  34.910   2.730
64165W        W25619  14.675  40.307  14.959
64166W        W25620  38.872  43.378   4.822
64167W        W25621  42.494  16.596  14.411
64168W        W25622   0.417   0.466   4.128
64169W        W25623  10.305  42.298  13.374
64170W        W25624   4.921  41.034  10.987
64171W        W25625  42.397   9.287  11.403
64172W        W25626  44.503  25.217  13.455
64173W        W25627   4.241  41.422  12.370
64174W        W25628  28.184  17.220   3.656
64175W        W25629  35.028   9.772  14.811
64176W        W25630  15.231  43.417   2.296
64177W        W25631  14.195  12.640  14.795
64178W        W25632   1.470   6.866  12.039
64179W        W25633  25.518   5.753   0.397
64180W        W25634   6.727  30.595   9.982
64181W        W25635  25.661  14.650  14.451
64182W        W25636   9.716  23.183  13.892
64183W        W25637  33.399   9.704  12.460
64184W        W25638  34.495  35.881   2.196
64185W        W25639  23.148  26.674   3.819
64186W        W25640  29.106  30.003   0.383
64187W        W25641  23.088  19.548   1.759
64188W        W25642   7.868  28.159  14.778
64189W        W25643  38.370  15.132  14.960
64190W        W25644  21.122  21.645   2.722
64191W        W25645  22.073  35.969   3.253
64192W        W25646   8.265   3.955   0.475
64193W        W25647  18.736  18.164   1.345
64194W        W25648  28.078  19.136  11.469
64195W        W25649  21.139  18.761   0.341
64196W        W25650  21.660  19.073  13.956
64197W        W25651   9.704  31.088   0.744
64198W        W25652   8.746  20.095   0.474
64199W        W25653  10.378   1.417   2.887
64200W        W25654  12.284  13.218  12.066
64201W        W25655  11.849  17.255   0.325
64202W        W25656   6.199   7.301   4.323
64203W        W25657  27.517   4.839   2.851
64204W        W25658  37.539  10.182   3.279
64205W        W25659  35.059  10.849  14.307
64206W        W25660  18.165   9.273  13.015
64207W        W25661  33.596  13.246   3.238
64208W        W25662  39.869  31.938   3.790
64209W        W25663   4.300  26.626  10.554
64210W        W25664  25.093   6.222   0.866
64211W        W25665  12.178  19.727  14.784
64212W        W25666   2.367   9.755   1.335
64213W        W25667  40.961  32.412  10.905
64214W        W25668  20.194  16.081   1.816
64215W        W25669  18.276  17.199  13.358
64216W        W25670  14.135  20.757  11.429
64217W        W25671  44.863  13.667   3.206
64218W        W25672  39.971   4.897   1.849
64219W        W25673  41.944   4.765  11.447
64220W        W25674  12.214  23.174  14.441
64221W        W25675  10.844   9.717   2.291
64222W        W25676  15.784  36.060   3.364
64223W        W25677  19.164  41.363  13.897
64224W        W25678  26.985  40.015  12.967
64225W        W25679  17.655  43.976  14.972
64226W        W25680  42.963  43.910  11.099
64227W        W25681  35.514  23.598   0.845
64228W        W25682  42.376  18.698  11.571
64229W        W25683  17.656  14.220  10.979
64230W        W25684  29.496  36.579  12.954
64231W        W25685   8.248   1.835  12.373
64232W        W25686   3.818  17.784  13.009
64233W        W25687   3.942   5.347  13.431
64234W        W25688  27.490   9.888  13.518
64235W        W25689   4.813  23.117   3.167
64236W        W25690  32.996  38.362  13.482
64237W        W25691  22.014  31.438   4.604
64238W        W25692  22.738   9.650  12.477
64239W        W25693  38.905  13.612   0.729
64240W        W25694  17.277   5.256  11.869
64241W        W25695  29.061  34.048   3.148
64242W        W25696  36.989  37.483   0.841
64243W        W25697  23.142   1.298   3.665
64244W        W25698  26.463  22.667   0.355
64245W        W25699  21.599  30.959  13.819
64246W        W25700  15.189  40.863   0.448
64247W        W25701  36.347  13.278   3.321
64248W        W25702  10.174  19.220   3.788
64249W        W25703  31.045  34.603   0.862
64250W        W25704   4.370  36.013   2.360
64251W        W25705  18.759  24.562   0.399
64252W        W25706   3.857   0.971   0.862
64253W        W25707  37.443  30.630   2.860
64254W        W25708   6.778  41.020  10.511
64255W        W25709  22.210  41.313  10.476
64256W        W25710  13.704  44.442  11.524
64257W        W25711  15.749  29.624  12.074
64258W        W25712  13.604   2.798   1.213
64259W        W25713   6.233  38.868   1.260
64260W        W25714  28.459  15.625   2.811
64261W        W25715   7.721  26.955  13.380
64262W        W25716  36.571  15.718   0.748
64263W        W25717  13.300  21.195  13.341
64264W        W25718  17.124  22.576  14.939
64265W        W25719   2.897  44.473  12.874
64266W        W25720  33.381  41.471  14.979
64267W        W25721  40.905  38.409   1.805
64268W        W25722   9.370  40.330   4.764
64269W        W25723  21.680  24.122   3.293
64270W        W25724  14.265  32.979   2.686
64271W        W25725  30.419   4.793   2.779
64272W        W25726  38.376  16.083   0.290
64273W        W25727  17.648  23.625   1.887
64274W        W25728  42.776  11.813  14.993
64275W        W25729  40.426  28.467  14.869
64276W        W25730  32.432  42.934   0.955
64277W        W25731  14.229  13.743   2.714
64278W        W25732  25.031  36.027  10.645
64279W        W25733   4.402  20.214  13.896
64280W        W25734  13.610  18.135   3.854
64281W        W25735   6.310  22.065  14.335
64282W        W25736  42.890  29.543   4.616
64283W        W25737   7.173  13.253   3.844
64284W        W25738  17.296  15.187  12.492
64285W        W25739   7.261  17.762  14.982
64286W        W25740  20.745  43.379  11.470
64287W        W25741   0.366   3.400  13.824
64288W        W25742  25.564  42.966   3.279
64289W        W25743  27.086   3.732   2.782
64290W        W25744  22.647  23.540  12.450
64291W        W25745  27.194   5.384  10.441
64292W        W25746  31.080  16.671   2.310
64293W        W25747  13.176  13.110   3.237
64294W        W25748  33.439  22.585  13.045
64295W        W25749  17.707   1.394   2.700
64296W        W25750  15.313  15.120   0.303
64297W        W25751  28.611  19.128  10.464
64298W        W25752  24.669  36.544   0.432
64299W        W25753  12.170   2.763   3.253
64300W        W25754  36.927  41.888   2.226
64301W        W25755  25.206  18.081  11.417
64302W        W25756  29.073  31.118   0.431
64303W        W25757   8.352  12.834   1.800
64304W        W25758  36.461  27.018   1.719
64305W        W25759  32.428  34.576  14.933
64306W        W25760  13.156  19.621   0.318
64307W        W25761  29.998  32.530   0.470
64308W        W25762   9.693  35.985  12.953
64309W        W25763  35.386  30.145  13.324
64310W        W25764  23.625  24.218   0.829
64311W        W25765  34.442  23.222   2.692
64312W        W25766   1.757  32.441  13.911
64313W        W25767  40.054  43.854  13.439
64314W        W25768  12.158  25.693  11.573
64315W        W25769  39.499  32.525  10.521
64316W        W25770   3.253  21.058  13.932
64317W        W25771  43.848  14.809  12.995
64318W        W25772  12.266  18.221  12.918
64319W        W25773   7.340  32.049   0.477
64320W        W25774  31.124  22.689   0.878
64321W        W25775  13.784  40.806   3.306
64322W        W25776   0.841  12.247  13.059
64323W        W25777  17.210   7.335   4.645
64324W        W25778  36.956   6.415  10.952
64325W        W25779   4.232  21.579  13.483
64326W        W25780  11.190  16.609   4.277
64327W        W25781  34.462  36.440  14.418
64328W        W25782  31.956  30.627  14.879
64329W        W25783  16.574  27.480  11.612
64330W        W25784  23.680  33.615   2.304
64331W        W25785  43.911   8.884   3.268
64332W        W25786   2.329  28.959   1.798
64333W        W25787  20.656  43.817   0.285
64334W        W25788   5.223  19.272   0.871
64335W        W25789  13.707  36.876   0.761
64336W        W25790  16.126  19.543  11.890
64337W        W25791  41.417   7.903   3.658
64338W        W25792   2.778  43.021  13.448
64339W        W25793  34.377  44.810   4.135
64340W        W25794  39.982  15.246  11.092
64341W        W25795  25.585   3.448  11.566
64342W        W25796   9.343   1.938  13.449
64343W        W25797  36.094  44.483  12.051
64344W        W25798  44.426   0.312  13.995
64345W        W25799  36.455  35.578  13.332
64346W        W25800   9.748  16.678  14.371
64347W        W25801  34.370   4.395  13.034
64348W        W25802  39.381  32.582   2.192
64349W        W25803  29.537  29.571   2.291
64350W        W25804  44.868  16.191  12.049
64351W        W25805  44.308  14.679   3.369
64352W        W25806  41.003  11.171   2.217
64353W        W25807  19.748  31.141  14.958
64354W        W25808  24.561  22.504   2.767
64355W        W25809  12.805  13.255  10.506
64356W        W25810   8.870  13.717   3.770
64357W        W25811  19.776  10.796   4.661
64358W        W25812  14.112  29.041  11.944
64359W        W25813  38.509  23.630   0.729
64360W        W25814   3.339   3.415   2.255
64361W        W25815  35.997  25.101  10.568
64362W        W25816  18.754  11.783  11.047
64363W        W25817  30.142  32.507   2.305
64364W        W25818  36.045  23.587  10.618
64365W        W25819  20.121  10.147  10.068
64366W        W25820  36.858  29.008  14.764
64367W        W25821   1.742  28.593   3.782
64368W        W25822  21.573   7.776  13.048
64369W        W25823  24.644   0.403  13.805
64370W        W25824  38.542  19.205   4.292
64371W        W25825   2.732  25.147  14.452
64372W        W25826   5.853  18.166  14.890
64373W        W25827  15.688  25.999  10.128
64374W        W25828  43.399  43.880  12.389
64375W        W25829   8.313   3.851  13.022
64376W        W25830  30.453  32.053   3.838
64377W        W25831  19.716  43.912   0.945
64378W        W25832  12.738  37.463   0.257
64379W        W25833  41.533  14.128  13.854
64380W        W25834  26.182  24.641   5.081
64381W        W25835  43.932  43.454  14.940
64382W        W25836  43.404  17.727  13.548
64383W        W25837  25.152   3.933   9.483
64384W        W25838   0.782   5.892   2.363
64385W        W25839   2.842   7.745  13.991
64386W        W25840  24.022  30.989   0.286
64387W        W25841  39.413   3.875  14.933
64388W        W25842  18.186  26.958  11.861
64389W        W25843  13.262   2.459  12.567
64390W        W25844  20.708  20.766   2.759
64391W        W25845  11.242  22.147   3.652
64392W        W25846  13.303  35.465   2.236
64393W        W25847  30.021  27.600  10.435
64394W        W25848  24.488  17.759   1.822
64395W        W25849  15.672  30.954  11.510
64396W        W25850  12.175  25.967   1.318
64397W        W25851  16.649  38.402   2.697
64398W        W25852  35.066   1.316  12.415
64399W        W25853  22.045  38.828   2.900
64400W        W25854  35.579   1.785  13.867
64401W        W25855  43.428  12.212   0.272
64402W        W25856  34.615  34.378   1.785
64403W        W25857  34.509  15.215  14.864
64404W        W25858  39.518  40.498   1.314
64405W        W25859   6.399  10.375   9.976
64406W        W25860  36.886  35.073  14.414
64407W        W25861  27.523  12.722   0.310
64408W        W25862  38.498   0.799  11.865
64409W        W25863  40.817  12.675   4.327
64410W        W25864  40.359   9.837   1.791
64411W        W25865  39.870  41.493   2.327
64412W        W25866   7.734   7.318   0.735
64413W        W25867  39.496   4.820   1.896
64414W        W25868   1.461  44.340   1.287
64415W        W25869  36.850  19.733   0.909
64416W        W25870  18.693  12.616  11.104
64417W        W25871  27.584  36.387  12.869
64418W        W25872   3.270  14.250   1.439
64419W        W25873  14.131  14.309   0.836
64420W        W25874  17.064  42.289   1.888
64421W        W25875  13.237   5.273   3.267
64422W        W25876  44.375  16.705  14.434
64423W        W25877  32.433  15.608  10.143
64424W        W25878  44.262  11.280  13.310
64425W        W25879  23.639   2.777   3.340
64426W        W25880  13.197  41.020  14.293
64427W        W25881  44.783  36.974   3.233
64428W        W25882  36.047  37.920   5.255
64429W        W25883  10.309  40.508  14.802
64430W        W25884  21.065  23.090  13.959
64431W        W25885  33.520  41.011  12.060
64432W        W25886  31.935   9.820   2.400
64433W        W25887  18.215  40.548  12.356
64434W        W25888  13.263  12.796  14.486
64435W        W25889  29.629  23.124   1.695
64436W        W25890  11.682   1.778  14.802
64437W        W25891  35.405   7.770  14.784
64438W        W25892  31.923  36.456   1.422
64439W        W25893  39.858  35.466   3.160
64440W        W25894   2.953  43.382   2.707
64441W        W25895  16.671   0.841   0.313
64442W        W25896  11.667  10.701  14.011
64443W        W25897  27.066  26.046   3.739
64444W        W25898   0.399  12.748  12.981
64445W        W25899   2.878  40.997   4.819
64446W        W25900   1.244  11.299  10.429
64447W        W25901   9.304  35.584  13.928
64448W        W25902  36.445   5.313   1.342
64449W        W25903  11.821   8.194  13.308
64450W        W25904  34.473   5.925  11.036
64451W        W25905   3.921  37.429  12.518
64452W        W25906   1.391  16.754  13.877
64453W        W25907   0.897  38.041  12.569
64454W        W25908  24.563   2.333  14.796
64455W        W25909   4.376  17.800  14.868
64456W        W25910   8.180  20.657   1.325
64457W        W25911   1.865   6.393   3.254
64458W        W25912  37.870  23.046   1.260
64459W        W25913   0.971  39.065   1.739
64460W        W25914   7.738  11.203  14.366
64461W        W25915  31.973  27.674   4.789
64462W        W25916  10.268  35.512  10.527
64463W        W25917  31.098   6.899  10.621
64464W        W25918  11.659   9.232   1.733
64465W        W25919  40.974  18.702   2.791
64466W        W25920  38.943  40.322   9.453
64467W        W25921   5.333  29.565   4.619
64468W        W25922   0.976  32.943   3.173
64469W        W25923  35.089  43.479   2.839
64470W        W25924   8.369  34.392  12.385
64471W        W25925  32.625  19.192  10.500
64472W        W25926  34.413   4.753  10.468
64473W        W25927  25.622  40.332   9.962
64474W        W25928   7.786  38.867   4.280
64475W        W25929   2.958  21.695   3.667
64476W        W25930   1.463   2.831  14.461
64477W        W25931   4.924  10.179   4.641
64478W        W25932  19.059  15.817   4.658
64479W        W25933  31.523  32.622   2.885
64480W        W25934  42.496  33.619  11.435
64481W        W25935  41.354  14.156  14.815
64482W        W25936  23.562  41.028  12.412
64483W        W25937  12.226  29.980  11.598
64484W        W25938  39.515  22.194   2.348
64485W        W25939  40.834  10.785  11.560
64486W        W25940  13.787  38.510  12.864
64487W        W25941  44.944   7.188  13.464
64488W        W25942  26.134  30.926   1.212
64489W        W25943   5.207  36.461  14.793
64490W        W25944  23.056  39.996   1.223
64491W        W25945  30.614  27.649  13.429
64492W        W25946  34.401  28.979  12.562
64493W        W25947   3.285   0.861  14.895
64494W        W25948   3.297   8.844   2.195
64495W        W25949  29.642  19.075   1.369
64496W        W25950  43.841  28.945   0.862
64497W        W25951  16.767  22.556  13.545
64498W        W25952  21.657  15.087   1.842
64499W        W25953  25.015  30.497   3.735
64500W        W25954  44.416   3.445  10.453
64501W        W25955  44.756  31.993  14.455
64502W        W25956  25.615  19.776   3.345
64503W        W25957   9.202  17.079  11.073
64504W        W25958  39.064  39.909   3.766
64505W        W25959   4.339  26.668  13.529
64506W        W25960  28.628  42.396  14.774
64507W        W25961  20.116  22.248   3.359
64508W        W25962  42.452  44.946   4.782
64509W        W25963   7.404   6.329   2.319
64510W        W25964   9.870  24.219   0.858
64511W        W25965  18.061  20.598  11.992
64512W        W25966  17.294  12.704   2.760
64513W        W25967  24.035   5.298   0.754
64514W        W25968  43.011  29.993  15.000
64515W        W25969   7.316   4.716  13.940
64516W        W25970  41.490  15.257  13.006
64517W        W25971  41.500  14.240  10.515
64518W        W25972  15.815  35.442   4.692
64519W        W25973  21.529  23.131   0.743
64520W        W25974  26.100  14.793  12.871
64521W        W25975  40.927  24.047   3.652
64522W        W25976   0.436  36.937  11.875
64523W        W25977  41.442   2.331   1.851
64524W        W25978  22.678  19.599  14.959
64525W        W25979  43.445  28.093  14.891
64526W        W25980   0.392  15.225  12.996
64527W        W25981  41.025  34.577   2.826
64528W        W25982  39.034  24.688   3.726
64529W        W25983  34.020  33.107  13.501
64530W        W25984  16.140  37.483  13.971
64531W        W25985  11.648  31.580  11.025
64532W        W25986   6.369  17.556   2.869
64533W        W25987  28.945  20.644   4.814
64534W        W25988  23.200  19.617   0.816
64535W        W25989   0.412  18.567  13.392
64536W        W25990  16.743  14.147   2.208
64537W        W25991  31.605   7.906   1.927
64538W        W25992  28.982  34.499  12.376
64539W        W25993  36.541  35.922  14.320
64540W        W25994   2.435   8.844  11.881
64541W        W25995  41.949   9.218   3.706
64542W        W25996  25.113   4.765   2.185
64543W        W25997  15.648  10.730   4.650
64544W        W25998  23.617   4.373  14.763
64545W        W25999   8.854  21.182  13.487
64546W        W26000  15.104  13.758  12.894
64547W        W26001  28.067   7.667   1.232
64548W        W26002  29.931  42.474   0.763
64549W        W26003  32.888  22.598   0.936
64550W        W26004   8.806  37.990   3.643
64551W        W26005   9.861  12.274   2.405
64552W        W26006  44.459  39.327   3.233
64553W        W26007  34.899  34.918   3.851
64554W        W26008  41.488  37.058   2.821
64555W        W26009  29.068  28.943  13.834
64556W        W26010  26.962  30.580  13.408
64557W        W26011  17.188  26.160   4.807
64558W        W26012  28.513  29.596  13.974
64559W        W26013   5.323   0.377   0.760
64560W        W26014   3.874   8.721  13.996
64561W        W26015  26.132  29.506   0.389
64562W        W26016  40.820  11.704   0.407
64563W        W26017  38.008   9.298  12.484
64564W        W26018   4.389  23.497  13.356
64565W        W26019   1.975   0.307  14.496
64566W        W26020   8.859  35.538   3.210
64567W        W26021   2.720  43.403   0.469
64568W        W26022  23.057  23.156   3.313
64569W        W26023  20.616  11.750  10.557
64570W        W26024   6.293  25.651  12.901
64571W        W26025  24.122  25.654  14.831
64572W        W26026   6.265   8.222   3.215
64573W        W26027  25.501  43.985   4.195
64574W        W26028  17.744   8.286   4.237
64575W        W26029  16.812   7.875  10.993
64576W        W26030  37.072  44.270  11.042
64577W        W26031  20.042  11.194   1.281
64578W        W26032   5.314   1.408  12.387
64579W        W26033  29.952  10.354   0.324
64580W        W26034  15.719  38.038   0.928
64581W        W26035  14.754   7.776   1.243
64582W        W26036   2.736  14.727  13.026
64583W        W26037   8.275  10.243   3.829
64584W        W26038  34.563   0.255  14.488
64585W        W26039   5.431  18.617  12.930
64586W        W26040  15.779  14.261   2.682
64587W        W26041  43.509  26.043   3.656
64588W        W26042  42.947  24.141   0.759
64589W        W26043  13.761  15.208   5.288
64590W        W26044   6.221   3.785  12.025
64591W        W26045  22.024  37.353   1.331
64592W        W26046  39.392  31.001   0.301
64593W        W26047  33.557  33.966   0.366
64594W        W26048  26.102   6.738  14.001
64595W        W26049  17.737  18.686  10.418
64596W        W26050  44.265  18.180   4.787
64597W        W26051  26.127   4.739  11.532
64598W        W26052  22.083  10.162   9.983
64599W        W26053  27.053  18.271  14.990
64600W        W26054  25.168  42.949   0.857
64601W        W26055   7.359  36.557  10.924
64602W        W26056   0.780  31.927   0.389
64603W        W26057  10.201  14.198   3.274
64604W        W26058  23.653  42.825   3.630
64605W        W26059  17.679  13.341   5.194
64606W        W26060  42.404  27.456   1.406
64607W        W26061   8.389  18.180  11.023
64608W        W26062  21.259   5.401  10.901
64609W        W26063  43.500  29.144   0.364
64610W        W26064  32.125   7.277   0.879
64611W        W26065  28.949  21.047   5.154
64612W        W26066  21.020  20.146  11.577
64613W        W26067  16.663  34.882   0.917
64614W        W26068   4.431   2.819   1.279
64615W        W26069  29.521  14.677  11.378
64616W        W26070  25.998  25.175   3.301
64617W        W26071  32.574  11.154   3.727
64618W        W26072  11.372  17.700   2.234
64619W        W26073  40.308  21.717  10.946
64620W        W26074  27.981   2.774   0.768
64621W        W26075  40.922  22.227   1.777
64622W        W26076  16.227   4.762   2.303
64623W        W26077   8.308  27.073  14.940
64624W        W26078   9.713  13.252   0.787
64625W        W26079   3.436  31.581  12.511
64626W        W26080   0.328  23.560  12.900
64627W        W26081  34.408   7.757  14.300
64628W        W26082  33.915  33.984  14.975
64629W        W26083  12.689  31.059  13.494
64630W        W26084  43.883  33.103  12.996
64631W        W26085  24.098  39.869  12.483
64632W        W26086  33.954  36.581   1.890
64633W        W26087  36.987   6.347  13.009
64634W        W26088  35.051  15.722   1.798
64635W        W26089  39.530  13.170   2.285
64636W        W26090  24.138  13.792   0.790
64637W        W26091  20.114  37.862   4.647
64638W        W26092  37.974  16.724  14.457
64639W        W26093  10.671  12.664   2.753
64640W        W26094  10.762  11.134   0.943
64641W        W26095   3.272  35.914   2.372
64642W        W26096  16.626  29.930   4.609
64643W        W26097  40.307  38.541   0.878
64644W        W26098  37.917  34.057  14.496
64645W        W26099   6.306   8.685  12.091
64646W        W26100  17.795  12.716  14.873
64647W        W26101  32.043  27.620  12.508
64648W        W26102   2.409  17.722  11.956
64649W        W26103  21.648  28.103   3.736
64650W        W26104   1.414  10.666  12.887
64651W        W26105  29.518  29.951  14.324
64652W        W26106  31.911  26.024   4.117
64653W        W26107  24.983   8.198  14.437
64654W        W26108   3.415  27.524  12.493
64655W        W26109  30.980  19.663   1.752
64656W        W26110  29.111  38.373   2.231
64657W        W26111  26.622  14.320  13.428
64658W        W26112  29.442  40.956  11.051
64659W        W26113  19.264  44.842  11.414
64660W        W26114  15.669   0.812  13.523
64661W        W26115  16.076  31.631  13.058
64662W        W26116  26.086  17.227  11.960
64663W        W26117  13.698  22.517   2.341
64664W        W26118  13.783  42.879  12.394
64665W        W26119   1.961   0.815  13.390
64666W        W26120  34.541   7.390  14.028
64667W        W26121  17.225  23.541  14.872
64668W        W26122   2.813  13.651   4.217
64669W        W26123  40.418  21.628   1.355
64670W        W26124  41.942   3.337   0.771
64671W        W26125  32.965   9.184  12.969
64672W        W26126  24.073  27.095   1.340
64673W        W26127  26.071   9.888  12.560
64674W        W26128  34.000  10.201  11.098
64675W        W26129   3.437  43.418  11.381
64676W        W26130   1.311  32.009  12.001
64677W        W26131  25.022  13.623   3.242
64678W        W26132  29.940  28.521   3.634
64679W        W26133  42.935  10.865  11.906
64680W        W26134   1.790  31.586  13.481
64681W        W26135  34.867  30.577   3.261
64682W        W26136  17.098   2.749  14.282
64683W        W26137  38.000   9.833   2.741
64684W        W26138  38.329  14.764  11.939
64685W        W26139  40.870  42.902   2.726
64686W        W26140  22.095  43.407  14.974
64687W        W26141  15.184   9.852   4.600
64688W        W26142  17.637  31.558   4.799
64689W        W26143  16.225  13.284   1.297
64690W        W26144   3.807  19.556  10.562
64691W        W26145  39.024  33.614  11.955
64692W        W26146   7.341   4.365  13.933
64693W        W26147  17.166  10.837  12.908
64694W        W26148  43.275  36.511   3.229
64695W        W26149   2.896   0.249   3.840
64696W        W26150  32.420  21.200   2.376
64697W        W26151  17.757  44.753  12.904
64698W        W26152  23.726  14.195   3.812
64699W        W26153   4.868   3.327  11.607
64700W        W26154  17.285  15.187   0.307
64701W        W26155  31.031  16.126  12.826
64702W        W26156  43.272  11.205   3.380
64703W        W26157  13.121  43.791   4.168
64704W        W26158   4.435  11.337  13.972
64705W        W26159  40.437  23.093   3.288
64706W        W26160  15.133  26.097   2.419
64707W        W26161   7.322  17.779  11.500
64708W        W26162  23.607   0.791  13.962
64709W        W26163  24.502  42.024   3.683
64710W        W26164  24.010  16.651  13.408
64711W        W26165  11.288  40.832   2.806
64712W        W26166   0.395  18.262  11.893
64713W        W26167  34.069  44.939  11.610
64714W        W26168  42.978  14.308  10.124
64715W        W26169  19.668  10.782   3.363
64716W        W26170  34.053   3.951  14.787
64717W        W26171  22.082  29.974   4.305
64718W        W26172   5.414  12.787  14.928
64719W        W26173  19.756  13.231  12.459
64720W        W26174  15.277  35.929   2.399
64721W        W26175   3.870  34.385   2.347
64722W        W26176  16.793  24.146  13.963
64723W        W26177   1.951   1.969   4.263
64724W        W26178  35.379   0.854   3.172
64725W        W26179  16.666  44.784  12.011
64726W        W26180  40.954  43.791   2.232
64727W        W26181  23.558  27.190   0.298
64728W        W26182   4.795  28.627  14.362
64729W        W26183  14.272  43.354  14.926
64730W        W26184  11.786  13.114   3.160
64731W        W26185  23.511   5.874  11.429
64732W        W26186  32.591  11.256   2.750
64733W        W26187  36.988  19.739   4.248
64734W        W26188  24.577  37.538   1.427
64735W        W26189   3.332  36.556   4.223
64736W        W26190  40.453  34.027   1.431
64737W        W26191  28.108  41.513   5.243
64738W        W26192  31.625  19.190  13.993
64739W        W26193  18.788   5.287  14.904
64740W        W26194  30.619  33.949   4.834
64741W        W26195  38.347  11.794   4.766
64742W        W26196  10.759  42.857  14.892
64743W        W26197   6.865  33.902   4.739
64744W        W26198  40.852  29.986   1.331
64745W        W26199   7.325  26.564   3.153
64746W        W26200  21.694  43.403   1.359
64747W        W26201  43.339  32.585   2.396
64748W        W26202  41.444  44.364   3.347
64749W        W26203   7.386   9.649   0.942
64750W        W26204  12.737  27.642  12.016
64751W        W26205  28.042  12.794  12.034
64752W        W26206  25.551   6.420  13.448
64753W        W26207  40.985  34.502   4.118
64754W        W26208  17.640  15.141   0.334
64755W        W26209  19.040  24.973  11.536
64756W        W26210  27.098  40.870   2.415
64757W        W26211  36.017  43.810  13.526
64758W        W26212  24.527  22.111  14.456
64759W        W26213  41.537   2.242  12.410
64760W        W26214  38.946   4.270   0.779
64761W        W26215   2.809  36.409   4.140
64762W        W26216  33.456  17.134   5.301
64763W        W26217   1.873  27.077  12.954
64764W        W26218   2.752  20.560  10.565
64765W        W26219   9.272  43.478  11.931
64766W        W26220  44.912   7.714  11.875
64767W        W26221  20.105  18.262  13.499
64768W        W26222  16.238  34.530  13.436
64769W        W26223   2.255  37.869  11.087
64770W        W26224  41.946  11.835  11.039
64771W        W26225  24.497   8.259   2.892
64772W        W26226  19.229   2.413  11.527
64773W        W26227  34.969  28.079  14.995
64774W        W26228  21.602  39.508  12.579
64775W        W26229   0.390  32.931  14.360
64776W        W26230  10.861   1.751   1.741
64777W        W26231  28.032  29.481  10.423
64778W        W26232  12.775  26.199  13.489
64779W        W26233   5.283  17.723  13.941
64780W        W26234  37.836   1.865   2.775
64781W        W26235  24.049  43.502  10.614
64782W        W26236  21.654  33.437  11.900
64783W        W26237  44.364  20.548  11.530
64784W        W26238  20.147   0.349  14.456
64785W        W26239   8.742  23.050   0.915
64786W        W26240  14.210  15.180  14.978
64787W        W26241  30.584  10.694  11.899
64788W        W26242  24.633  40.911  10.904
64789W        W26243   9.884  11.675   1.327
64790W        W26244  26.603  19.588  14.430
64791W        W26245  37.474  38.385  14.027
64792W        W26246  10.194  16.637   2.345
64793W        W26247  35.029  27.612   4.668
64794W        W26248  22.683   3.871  14.383
64795W        W26249  25.135  21.585  14.378
64796W        W26250  38.973   3.370  13.864
64797W        W26251  23.569   0.423  13.915
64798W        W26252  28.061  17.680  13.998
64799W        W26253  37.991   6.226  14.885
64800W        W26254  24.654  17.593  11.425
64801W        W26255   8.358  21.168  14.343
64802W        W26256  13.812  19.636  14.788
64803W        W26257  29.449  28.628  11.919
64804W        W26258  21.094  36.864  13.930
64805W        W26259  29.448   6.740  13.512
64806W        W26260  36.021  12.258   2.206
64807W        W26261  24.049  26.061  14.499
64808W        W26262   9.390  17.583   0.376
64809W        W26263  33.884  36.059   0.845
64810W        W26264  34.964  35.531   4.657
64811W        W26265   6.901  12.758  10.590
64812W        W26266   2.306  12.670  13.795
64813W        W26267  36.942  26.965  11.610
64814W        W26268  15.131  17.101   0.289
64815W        W26269  33.404  28.523  14.509
64816W        W26270  31.525  19.557  11.377
64817W        W26271   8.258  22.646  12.929
64818W        W26272  22.576  24.616  11.118
64819W        W26273  18.687  10.375  12.964
64820W        W26274  13.176  29.426  11.383
64821W        W26275  37.953   6.370   4.764
64822W        W26276  43.316  11.828  10.446
64823W        W26277  14.735  27.077  10.643
64824W        W26278  39.322  43.513  14.400
64825W        W26279  38.554  14.301  14.461
64826W        W26280  11.288  20.065  12.350
64827W        W26281  13.170  38.900   1.234
64828W        W26282  31.148  13.718   1.368
64829W        W26283  19.265  28.677  14.844
64830W        W26284   3.433  33.999   4.648
64831W        W26285   7.366  12.835   2.350
64832W        W26286  30.110  16.201  10.587
64833W        W26287   6.867   2.920   1.933
64834W        W26288  34.865  17.712   4.150
64835W        W26289  44.398  29.000  13.359
64836W        W26290  15.800   3.250   2.821
64837W        W26291  42.844  32.482   2.903
64838W        W26292  20.052  12.215  14.342
64839W        W26293  14.661  11.325  14.827
64840W        W26294  29.508  42.307  10.577
64841W        W26295  41.813  26.129   1.375
64842W        W26296   4.895  32.467  14.297
64843W        W26297  44.808  22.637  14.858
64844W        W26298  37.492  25.065   4.716
64845W        W26299  21.536  27.015   2.270
64846W        W26300  30.426  38.939   0.265
64847W        W26301  13.284  42.294   4.282
64848W        W26302  11.240   5.806   4.349
64849W        W26303  17.716   9.868   0.456
64850W        W26304  41.294  31.078  13.000
64851W        W26305  29.460  29.082   2.227
64852W        W26306   1.973  10.138   3.642
64853W        W26307  33.981  27.022  12.925
64854W        W26308  32.114  25.506  12.966
64855W        W26309  11.851  21.609   4.298
64856W        W26310  20.177  14.665   4.175
64857W        W26311  41.982  33.007  12.032
64858W        W26312   9.259  33.089   5.701
64859W        W26313  30.513  43.938  14.894
64860W        W26314  15.207  22.573   4.146
64861W        W26315  36.995  23.510   0.756
64862W        W26316  33.448  38.523   1.423
64863W        W26317  35.865  11.287  10.509
64864W        W26318  26.570  12.625  10.906
64865W        W26319  12.140  38.947  11.385
64866W        W26320   6.814  20.061   1.733
64867W        W26321  28.144  24.223   1.448
64868W        W26322   0.925   6.187   0.867
64869W        W26323  23.596  30.616   1.407
64870W        W26324  13.842  18.221  10.482
64871W        W26325   4.769  36.451  14.021
64872W        W26326   3.717  24.054   3.147
64873W        W26327  36.069  31.023  11.559
64874W        W26328  13.733  36.473   1.358
64875W        W26329  10.311  20.262   4.598
64876W        W26330  35.085  18.551   0.913
64877W        W26331  27.521   8.803   2.319
64878W        W26332  43.940  32.415   3.834
64879W        W26333  37.461  17.284   3.721
64880W        W26334  28.659   0.982  11.483
64881W        W26335  28.504  24.520   4.666
64882W        W26336  17.652  21.088   2.753
64883W        W26337  36.093  38.397   5.287
64884W        W26338  23.584  24.987   5.288
64885W        W26339  21.595  20.729   4.776
64886W        W26340  20.194   2.802   4.153
64887W        W26341  44.976  44.317   1.368
64888W        W26342  25.151  23.548   4.810
64889W        W26343  10.705  25.001   2.825
64890W        W26344  30.438  27.534   4.199
64891W        W26345   8.879  26.994  12.834
64892W        W26346  27.482   2.938   9.641
64893W        W26347  43.801  31.511   0.383
64894W        W26348  19.085   2.403  14.348
64895W        W26349   0.960  16.672  10.512
64896W        W26350  30.543  20.741  11.417
64897W        W26351   7.198  41.505  12.482
64898W        W26352  14.112  36.431  11.115
64899W        W26353  31.122  10.651   0.335
64900W        W26354  39.018  10.753  14.463
64901W        W26355   7.763   0.303   1.703
64902W        W26356  35.513  32.136  11.485
64903W        W26357  23.696  43.508  14.464
64904W        W26358  38.908  19.154  14.903
64905W        W26359  43.297  43.300  12.407
64906W        W26360  15.103  40.404   1.232
64907W        W26361  42.827   7.783  13.388
64908W        W26362  19.651  16.773  13.965
64909W        W26363  19.090  36.989  11.389
64910W        W26364  41.437   3.733  13.813
64911W        W26365  34.399  30.117  13.345
64912W        W26366  10.800  22.663  14.868
64913W        W26367  19.680  28.968  14.456
64914W        W26368  30.126  29.557  10.984
64915W        W26369   9.844  40.469   2.733
64916W        W26370  30.587  33.014  13.481
64917W        W26371   7.416   5.909  14.331
64918W        W26372  44.784  10.706   4.627
64919W        W26373  30.606  29.049  11.863
64920W        W26374  12.193  17.203   5.153
64921W        W26375  11.640  22.533   3.681
64922W        W26376  35.894  26.480   0.761
64923W        W26377  11.310  22.544   0.854
64924W        W26378  15.690   4.285   3.225
64925W        W26379  18.740   4.316  12.017
64926W        W26380   5.884  40.346  12.373
64927W        W26381  21.141  27.989  12.430
64928W        W26382   0.289  16.177   0.912
64929W        W26383  35.971  43.015   2.234
64930W        W26384  32.566  27.994  11.098
64931W        W26385  20.702  25.104   3.681
64932W        W26386  33.543  22.210  13.450
64933W        W26387  33.550  40.353   1.803
64934W        W26388  17.628  22.512  10.468
64935W        W26389  31.089  19.152  11.877
64936W        W26390  36.393  19.593  11.518
64937W        W26391   2.323  39.917  10.975
64938W        W26392  24.701   7.192   1.248
64939W        W26393  10.191  35.014   0.456
64940W        W26394  21.041  29.997   0.337
64941W        W26395  20.066  28.110   0.792
64942W        W26396  29.100  34.985   0.275
64943W        W26397  22.124  32.540  13.459
64944W        W26398  24.018  31.610  11.601
64945W        W26399   3.245  34.994  10.508
64946W        W26400  15.818  10.342  13.874
64947W        W26401  12.348  22.562  13.886
64948W        W26402  14.821   2.933  14.865
64949W        W26403  21.110  29.465   0.363
64950W        W26404  30.553   1.363  13.902
64951W        W26405  31.518  43.291  10.427
64952W        W26406  29.461  21.743   3.338
64953W        W26407  14.787  32.057  10.958
64954W        W26408  37.387  16.634   2.855
64955W        W26409  24.210   5.194   0.405
64956W        W26410  19.272  27.959   3.218
64957W        W26411  41.800   5.886  11.927
64958W        W26412  14.340   0.793  14.332
64959W        W26413  31.518  40.866  13.962
64960W        W26414  37.536   9.757  13.844
64961W        W26415  19.777  32.030   4.127
64962W        W26416   9.213  18.652  12.879
64963W        W26417  18.279  38.878  14.030
64964W        W26418  25.493  28.048   2.728
64965W        W26419  30.111  18.641   3.732
64966W        W26420  32.396  32.908  13.506
64967W        W26421  31.573  20.098   1.350
64968W        W26422   1.299  39.915  14.010
64969W        W26423  10.816  29.625  10.491
64970W        W26424  27.536  19.772   4.159
64971W        W26425  20.644   1.480  10.932
64972W        W26426   6.399   6.321  10.574
64973W        W26427  14.816  41.035  14.892
64974W        W26428  36.980  43.923  13.524
64975W        W26429  26.606  38.377  11.855
64976W        W26430  15.123  28.972   0.459
64977W        W26431  34.507  13.141  12.450
64978W        W26432  20.274   2.269  11.915
64979W        W26433  31.002  30.011   4.813
64980W        W26434  22.666  19.272   4.262
64981W        W26435  22.230  39.329  10.987
64982W        W26436   7.842  26.589  13.895
64983W        W26437  28.945  36.083   2.785
64984W        W26438  42.953  34.103  11.011
64985W        W26439  35.368  31.135   0.399
64986W        W26440   4.917  17.760  10.453
64987W        W26441  38.392   9.714   0.387
64988W        W26442  32.923   7.360  11.940
64989W        W26443  33.467  43.384   1.867
64990W        W26444  23.111  43.983  12.964
64991W        W26445  13.331  34.879   0.372
64992W        W26446  13.645  43.016   1.309
64993W        W26447  19.063  41.840   2.307
64994W        W26448  14.826  35.060  14.930
64995W        W26449  29.654  15.597   3.740
64996W        W26450  42.974  41.787   2.720
64997W        W26451  22.532  35.449   0.779
64998W        W26452  17.138  43.785   2.830
64999W        W26453  23.620  36.372  12.532
65000W        W26454  26.144  12.334   2.746
65001W        W26455   2.255  23.067  14.393
65002W        W26456  34.980   2.891  14.357
65003W        W26457  23.536   6.824  13.797
65004W        W26458  38.891  41.433   5.766
65005W        W26459  39.915   3.354  12.497
65006W        W26460  24.050  13.713   3.330
65007W        W26461   7.825   8.810  13.057
65008W        W26462  16.687   3.301   0.814
65009W        W26463  13.286  37.536   1.434
65010W        W26464  13.131   8.328  11.445
65011W        W26465  35.524  33.966   4.232
65012W        W26466  34.473   1.800  11.965
65013W        W26467  44.753  15.167  13.950
65014W        W26468  35.101  12.843   3.672
65015W        W26469  29.044   5.266   1.317
65016W        W26470   7.379  39.060  14.446
65017W        W26471   1.765  12.215   0.282
65018W        W26472  15.610  23.214   4.339
65019W        W26473  13.653  34.074  14.947
65020W        W26474   8.771   3.738  12.927
65021W        W26475  19.725   4.862   5.164
65022W        W26476  14.599  11.679   0.816
65023W        W26477  32.413   6.343   1.292
65024W        W26478  38.377   0.362   1.812
65025W        W26479   3.425  28.520   4.212
65026W        W26480  31.012  38.061  10.555
65027W        W26481   2.875   7.892  14.369
65028W        W26482  29.146  36.006  11.484
65029W        W26483  12.169  40.485  12.488
65030W        W26484  13.696  29.988   0.878
65031W        W26485  11.655   7.182  13.053
65032W        W26486  11.689  18.201  14.301
65033W        W26487   0.368  44.872  13.925
65034W        W26488   7.824  41.970   1.716
65035W        W26489  40.540   1.320  10.406
65036W        W26490   0.250  40.984   1.276
65037W        W26491  35.460  41.374   4.225
65038W        W26492  39.382  20.676   4.265
65039W        W26493  34.584   4.784   0.956
65040W        W26494  25.567  31.921  11.909
65041W        W26495  44.765  30.573  13.821
65042W        W26496  10.738  17.134   1.350
65043W        W26497  32.417  22.737  12.476
65044W        W26498  24.594  12.817   0.764
65045W        W26499  23.013  13.225  12.070
65046W        W26500  30.155  30.583  13.363
65047W        W26501  13.329  39.960  12.575
65048W        W26502  39.553  41.990   4.222
65049W        W26503  28.083  30.084  11.891
65050W        W26504  17.303  12.775  13.003
65051W        W26505  19.636  41.417   0.844
65052W        W26506  31.450  22.683  11.557
65053W        W26507   1.974   4.907  12.417
65054W        W26508  37.079  28.966  10.479
65055W        W26509  36.446   6.347   0.738
65056W        W26510  30.529  36.854  14.793
65057W        W26511  24.538  10.871  10.047
65058W        W26512  42.393  30.490  14.469
65059W        W26513  19.282  11.776  13.058
65060W        W26514  37.975  27.959  13.486
65061W        W26515  38.916   3.881   1.257
65062W        W26516  37.948  34.533   1.804
65063W        W26517  37.549  39.522   2.214
65064W        W26518   5.277  39.539  12.384
65065W        W26519   9.300  35.481   1.813
65066W        W26520   8.671   8.867   1.915
65067W        W26521  12.799   5.438  12.069
65068W        W26522  41.392  19.211  10.531
65069W        W26523  40.965  37.895   0.827
65070W        W26524  37.548   3.447  12.029
65071W        W26525  20.555  22.066   4.226
65072W        W26526  15.769  20.603  12.996
65073W        W26527  39.919  34.096   4.810
65074W        W26528   2.394  40.503  10.923
65075W        W26529  41.841   3.409   4.783
65076W        W26530  21.661  44.303   1.746
65077W        W26531   6.921  24.652   1.888
65078W        W26532  17.560   1.805   1.880
65079W        W26533  10.339  35.568  11.565
65080W        W26534  26.584  19.108   0.799
65081W        W26535  37.351  19.543  10.530
65082W        W26536  24.060  17.732  13.408
65083W        W26537  40.041  26.459   4.751
65084W        W26538  22.150  33.967  13.064
65085W        W26539  14.236  25.190  14.017
65086W        W26540  27.080   3.286   3.762
65087W        W26541   2.407  10.186  13.830
65088W        W26542  27.633  15.246   1.212
65089W        W26543   5.225  35.526   0.294
65090W        W26544  32.477  36.526  12.354
65091W        W26545   5.821  36.402  14.307
65092W        W26546   8.164  24.618   0.917
65093W        W26547  15.261   2.904   0.410
65094W        W26548  14.144  12.646   3.721
65095W        W26549   7.194  27.657  13.047
65096W        W26550  16.774  44.897   1.738
65097W        W26551  32.489  34.561   2.753
65098W        W26552   8.251  14.726  14.990
65099W        W26553  24.083  10.691  14.971
65100W        W26554  44.920  10.802  14.768
65101W        W26555  32.473  40.484  13.541
65102W        W26556  16.627  27.544  14.800
65103W        W26557  25.633  31.131  10.623
65104W        W26558  20.549  37.078  12.580
65105W        W26559  24.613  18.134  14.369
65106W        W26560   0.254  18.639   3.190
65107W        W26561  11.758   3.787   4.614
65108W        W26562  39.541  43.806   5.585
65109W        W26563  25.176   6.728   2.768
65110W        W26564  24.016   0.248  10.014
65111W        W26565  44.362  15.679   1.924
65112W        W26566  10.362  26.103  11.088
65113W        W26567  42.013  25.109   0.364
65114W        W26568  43.877  40.928   1.714
65115W        W26569   4.787  39.923   4.686
65116W        W26570  36.903  24.228   2.276
65117W        W26571   2.262   9.838  14.906
65118W        W26572  33.429  32.482  13.354
65119W        W26573  26.079  17.592  11.950
65120W        W26574  19.545   6.782   3.793
65121W        W26575  44.312  42.862  10.130
65122W        W26576  25.141   5.718   1.924
65123W        W26577  26.476  25.124  10.922
65124W        W26578  16.729  36.350   1.924
65125W        W26579  31.042  24.108  13.876
65126W        W26580  39.054  38.836   0.426
65127W        W26581   2.932  41.316  11.126
65128W        W26582  31.543  21.017  11.912
65129W        W26583  40.914   0.303   0.424
65130W        W26584  19.735  33.885  13.432
65131W        W26585  27.185  35.479  13.875
65132W        W26586   6.242  29.166   3.309
65133W        W26587  36.883  27.188  11.108
65134W        W26588  22.609  20.707   3.646
65135W        W26589  10.223  35.476  13.865
65136W        W26590  30.941  14.252  10.506
65137W        W26591  35.480   3.365   2.763
65138W        W26592  12.347  29.972   0.346
65139W        W26593  12.161   8.884  14.375
65140W        W26594  19.073  40.493   4.663
65141W        W26595  39.326  42.924  14.990
65142W        W26596   3.437  40.461  11.871
65143W        W26597  35.917  19.107   1.298
65144W        W26598  31.091  31.042   1.829
65145W        W26599  21.604   5.289   4.321
65146W        W26600   2.392  31.011   1.766
65147W        W26601   2.253  12.781  12.512
65148W        W26602  19.645   4.940   1.335
65149W        W26603  39.831   6.243  14.798
65150W        W26604   1.483  31.033   3.682
65151W        W26605   6.892  13.753  10.547
65152W        W26606  13.133  24.116  13.498
65153W        W26607  27.993  20.753   1.305
65154W        W26608  12.260   3.294  10.550
65155W        W26609   5.416  12.768   2.300
65156W        W26610   9.814  31.039  13.429
65157W        W26611  26.593   4.846   1.443
65158W        W26612  42.988  25.562   0.734
65159W        W26613  30.961  35.431   4.713
65160W        W26614  43.376  12.257  11.471
65161W        W26615  13.786   7.801   1.442
65162W        W26616  27.474  13.319   1.746
65163W        W26617  35.944  34.023  13.889
65164W        W26618   8.209   3.436  10.890
65165W        W26619   2.395  29.545  11.118
65166W        W26620  21.600  44.406   4.308
65167W        W26621  42.866  37.912   4.337
65168W        W26622  19.275  31.567  12.040
65169W        W26623   0.378  12.339  14.792
65170W        W26624  31.513  41.905   1.374
65171W        W26625  21.019  27.622   0.406
65172W        W26626  28.142   6.261   0.457
65173W        W26627  43.954  21.614  14.928
65174W        W26628  44.834  42.421   3.818
65175W        W26629   2.282   9.315   2.377
65176W        W26630  39.487  29.026   1.231
65177W        W26631  42.342  21.725   1.744
65178W        W26632  29.108  29.519   2.870
65179W        W26633  17.130  15.671  13.053
65180W        W26634  39.867  31.493  12.559
65181W        W26635   9.812  11.745   4.748
65182W        W26636  17.072  40.938   4.140
65183W        W26637  25.693   9.258   5.232
65184W        W26638   8.328  19.202  12.463
65185W        W26639  35.432   0.746  12.991
65186W        W26640  24.685  42.909   2.724
65187W        W26641   6.337  43.460  11.085
65188W        W26642  23.529  14.771  13.027
65189W        W26643  35.537  11.663  11.068
65190W        W26644  32.024  33.426   0.727
65191W        W26645  41.373  40.840   2.399
65192W        W26646   2.902   2.310   4.775
65193W        W26647  39.942  29.951   4.750
65194W        W26648  16.630  16.307   1.231
65195W        W26649  44.964  20.567  11.947
65196W        W26650  22.233   8.782  10.563
65197W        W26651  10.368  32.067   1.710
65198W        W26652  37.423  37.918  12.893
65199W        W26653  27.075   7.803  10.411
65200W        W26654  43.508  31.046   4.233
65201W        W26655  30.036  44.430  12.871
65202W        W26656  42.285  34.577  13.316
65203W        W26657  31.563  15.604   1.246
65204W        W26658   8.305  35.410   4.801
65205W        W26659   4.413  33.553   0.476
65206W        W26660  12.324  31.610  14.880
65207W        W26661   4.363  10.832   1.253
65208W        W26662  24.698  35.513   2.733
65209W        W26663  20.544  39.331  11.067
65210W        W26664  41.356   3.879  14.958
65211W        W26665  15.213   8.856   4.762
65212W        W26666  15.658   5.244  14.311
65213W        W26667   2.381   0.405   1.411
65214W        W26668  19.571  23.596   1.291
65215W        W26669   2.863  17.255  11.937
65216W        W26670   9.379  16.193   3.705
65217W        W26671  34.045  29.614  12.505
65218W        W26672  33.581   0.249  14.471
65219W        W26673  27.671  27.510   4.828
65220W        W26674   9.832   2.318   4.176
65221W        W26675  44.954   0.303  14.902
65222W        W26676  36.489  13.343  14.029
65223W        W26677  20.217  21.150   2.703
65224W        W26678   8.783   7.798  14.024
65225W        W26679  24.491  22.509  12.054
65226W        W26680  14.776   8.355  10.618
65227W        W26681  16.133   4.430  14.961
65228W        W26682  31.920  36.543   3.374
65229W        W26683   9.239   1.808   0.954
65230W        W26684  12.145  33.384   2.874
65231W        W26685  20.080  12.786  12.995
65232W        W26686  37.540  22.739   5.123
65233W        W26687  43.830  33.073  11.964
65234W        W26688  33.089   7.243  10.976
65235W        W26689  38.493  30.419   0.355
65236W        W26690  39.831   1.735  13.406
65237W        W26691   5.894  13.317  12.083
65238W        W26692  25.688  25.672  11.039
65239W        W26693  22.716   6.413  14.839
65240W        W26694  38.337  39.003  11.415
65241W        W26695   9.266  15.819  11.960
65242W        W26696  27.986  22.719   5.313
65243W        W26697  25.545  16.203   0.814
65244W        W26698  26.014   4.264   0.261
65245W        W26699  29.527   7.253   1.714
65246W        W26700  17.757  18.556   1.706
65247W        W26701  12.227  15.698   4.722
65248W        W26702  43.345  11.845  14.323
65249W        W26703  13.143  21.242   4.270
65250W        W26704  25.013  32.964  13.543
65251W        W26705  12.170  16.676  14.023
65252W        W26706  22.036  23.656  14.975
65253W        W26707  11.209  23.567   0.745
65254W        W26708  13.762  12.351   3.834
65255W        W26709   3.282  34.504   0.321
65256W        W26710  42.372   9.268   0.885
65257W        W26711  25.969  22.046  14.466
65258W        W26712  38.381  34.045  12.489
65259W        W26713  13.606  25.649   1.701
65260W        W26714   2.731  41.869   4.257
65261W        W26715  28.651  14.743   4.656
65262W        W26716  40.826  20.031  13.535
65263W        W26717  29.567  33.471  12.366
65264W        W26718  44.802  34.375   4.305
65265W        W26719  20.186  18.595  12.050
65266W        W26720   8.799  21.533   0.846
65267W        W26721  12.809  40.394  13.358
65268W        W26722   7.344  38.327   0.252
65269W        W26723  38.974   3.266   5.158
65270W        W26724  27.462  24.050  13.861
65271W        W26725  25.031   8.855  10.967
65272W        W26726  41.411   7.399   3.146
65273W        W26727  31.090   9.845   2.222
65274W        W26728  43.298  10.262  12.385
65275W        W26729  35.047   4.703   1.806
65276W        W26730  27.475   7.796   2.264
65277W        W26731  14.820  38.368  14.970
65278W        W26732   6.343  35.068  12.009
65279W        W26733  19.677  23.627  12.527
65280W        W26734  32.071  13.801  10.456
65281W        W26735  27.519   6.724  14.426
65282W        W26736  10.353  15.314   2.818
65283W        W26737  31.421   4.311  12.959
65284W        W26738   4.827  41.872   2.373
65285W        W26739   0.426   6.678  10.452
65286W        W26740  33.967  18.770   3.716
65287W        W26741  11.222  16.083   4.300
65288W        W26742  17.175  11.154   4.189
65289W        W26743  36.865  15.600  10.984
65290W        W26744   2.860  39.928  14.278
65291W        W26745  27.649   6.365   4.278
65292W        W26746  43.276  28.588  11.516
65293W        W26747  17.701  22.582   2.394
65294W        W26748  19.667  30.154  13.450
65295W        W26749   7.198   8.278   1.256
65296W        W26750  31.426  10.760   2.799
65297W        W26751  22.505  14.181   1.843
65298W        W26752  15.196  27.188   2.883
65299W        W26753   1.944  33.501  10.490
65300W        W26754  30.135  41.293  13.044
65301W        W26755  36.367  25.199   1.339
65302W        W26756  43.308  29.077  10.987
65303W        W26757  37.032   1.239   2.761
65304W        W26758  17.281   9.247  11.418
65305W        W26759  18.281  25.987  11.881
65306W        W26760  36.537   7.179   3.180
65307W        W26761  40.949   0.765  10.611
65308W        W26762   0.913  18.254   0.323
65309W        W26763  19.583  13.227  13.063
65310W        W26764  41.427  20.626   0.805
65311W        W26765  35.415  10.667   0.473
65312W        W26766  22.558  20.222  13.471
65313W        W26767   0.881   0.368   2.354
65314W        W26768  36.425   0.334   1.747
65315W        W26769  17.222  21.171  14.836
65316W        W26770  18.558  22.584  10.582
65317W        W26771  40.979  18.719  14.807
65318W        W26772   8.896  30.414  13.328
65319W        W26773  20.546  26.154  13.062
65320W        W26774  34.551   9.151  11.873
65321W        W26775   8.208  33.386   3.358
65322W        W26776   5.812   7.406  13.024
65323W        W26777   9.223   5.288   0.941
65324W        W26778  20.580  12.348   2.695
65325W        W26779  15.789  23.215   4.622
65326W        W26780  15.286  41.919   2.711
65327W        W26781  29.165  26.169  14.772
65328W        W26782  11.850  14.665  13.503
65329W        W26783  14.195  26.597  11.998
65330W        W26784   2.919  36.031  13.901
65331W        W26785  24.050  31.936  13.035
65332W        W26786  42.780  41.295   2.256
65333W        W26787   1.892   6.839  11.990
65334W        W26788  27.027   6.837  13.520
65335W        W26789  20.677   8.683   4.687
65336W        W26790  18.748   5.439   1.864
65337W        W26791   9.824  34.565   5.281
65338W        W26792  21.031  41.479  13.887
65339W        W26793  38.535  38.531   1.815
65340W        W26794  34.501  20.707  14.844
65341W        W26795  30.547  20.546  11.924
65342W        W26796  28.648  20.633  14.481
65343W        W26797  25.554   9.644  13.813
65344W        W26798  35.520  42.017   1.288
65345W        W26799   7.358  41.830  13.063
65346W        W26800  15.312  33.017  12.014
65347W        W26801  35.010  17.778   0.771
65348W        W26802  17.599  20.268   2.756
65349W        W26803  10.692  24.617   2.759
65350W        W26804  17.072   5.898   2.866
65351W        W26805  19.605  27.041   0.358
65352W        W26806  15.224  17.588  13.794
65353W        W26807  25.648   3.360  12.894
65354W        W26808  35.942  41.853  13.425
65355W        W26809  19.206  15.105   3.249
65356W        W26810  43.475  25.664  12.017
65357W        W26811  29.036  40.313   3.851
65358W        W26812  32.900   7.848   2.417
65359W        W26813   7.356  11.692   4.159
65360W        W26814  23.670  22.671  13.842
65361W        W26815  14.672  42.354  12.478
65362W        W26816  39.416  17.269  14.825
65363W        W26817  25.219  24.526   4.164
65364W        W26818  25.493  41.518  10.636
65365W        W26819   8.299  17.282   0.248
65366W        W26820  33.919  40.512   2.407
65367W        W26821  43.849  12.186  12.556
65368W        W26822  32.059  22.517  13.477
65369W        W26823   0.861  21.039  14.899
65370W        W26824  22.710  13.274   4.799
65371W        W26825  41.868  26.636  13.395
65372W        W26826  32.975   3.722   2.877
65373W        W26827  43.320   4.366  14.767
65374W        W26828   3.863  30.004   3.203
65375W        W26829  36.358   6.366   1.253
65376W        W26830  11.751  24.008  11.393
65377W        W26831   5.203  19.619   1.451
65378W        W26832   1.426  14.678   3.702
65379W        W26833  10.383  16.571  11.072
65380W        W26834  23.214  41.853  13.329
65381W        W26835  43.783  17.750  10.992
65382W        W26836  39.495  13.762  10.944
65383W        W26837  19.593  35.992  12.398
65384W        W26838   2.382  10.675   3.316
65385W        W26839  39.558   0.946  14.394
65386W        W26840   4.872  27.982  11.606
65387W        W26841  22.115  40.305   1.259
65388W        W26842  25.158  18.643   3.300
65389W        W26843  14.211  42.945   5.293
65390W        W26844  25.125   4.830  12.879
65391W        W26845  35.371  35.486   1.312
65392W        W26846  15.714  31.472  14.864
65393W        W26847  33.007  10.717  12.538
65394W        W26848  36.492  38.970   4.326
65395W        W26849  12.685  35.434  12.398
65396W        W26850  15.799   5.296  14.928
65397W        W26851   9.326  27.973  13.923
65398W        W26852  33.056  28.957  13.367
65399W        W26853   3.896  26.596   2.239
65400W        W26854  39.892  25.550  13.915
65401W        W26855  26.975  38.904  12.357
65402W        W26856  34.534  39.893   0.461
65403W        W26857  39.924  35.581  14.417
65404W        W26858  36.436  20.730  12.340
65405W        W26859  22.223  14.599   1.773
65406W        W26860  10.861  19.542   0.927
65407W        W26861   2.315  18.213  14.024
65408W        W26862  44.010  44.970  13.916
65409W        W26863  28.022  13.146   1.700
65410W        W26864  23.196  30.121  10.968
65411W        W26865  17.233  38.886   2.187
65412W        W26866  20.662  34.383   4.261
65413W        W26867  15.764   7.784   3.722
65414W        W26868  19.710  11.825  11.078
65415W        W26869  37.020  29.113  13.430
65416W        W26870  33.493  20.262  12.928
65417W        W26871   6.923  18.756   1.714
65418W        W26872  26.150  18.749   1.809
65419W        W26873  11.353  37.387  14.001
65420W        W26874  17.172  32.484  13.363
65421W        W26875  11.806  13.334   1.931
65422W        W26876  12.338  32.902   3.368
65423W        W26877  41.881  24.490   0.874
65424W        W26878   4.878  12.263   0.728
65425W        W26879   8.696   7.694   3.364
65426W        W26880  27.058  38.394  10.450
65427W        W26881  35.079  37.998   3.748
65428W        W26882  18.548  38.975   4.691
65429W        W26883  44.280   4.416   2.182
65430W        W26884   9.785  30.111  12.356
65431W        W26885  25.699  26.034  14.966
65432W        W26886   0.893  17.251   3.320
65433W        W26887  34.008   4.422   4.824
65434W        W26888   2.395  37.361   2.388
65435W        W26889  37.948  12.757   0.858
65436W        W26890  38.469   6.727   0.767
65437W        W26891  26.089  40.428  13.533
65438W        W26892  24.012  27.190   1.904
65439W        W26893  25.203  33.088   2.321
65440W        W26894   9.211  28.141   9.939
65441W        W26895  24.606  42.797  13.019
65442W        W26896  18.186  12.704   2.816
65443W        W26897  31.574  19.646   4.268
65444W        W26898   0.883  16.267   1.756
65445W        W26899  20.139  19.205  14.013
65446W        W26900  41.409  42.957  14.867
65447W        W26901  23.490   9.781  12.531
65448W        W26902  17.284   2.801   0.459
65449W        W26903  40.805  20.528   2.800
65450W        W26904   2.290  33.577  14.798
65451W        W26905  12.321  14.172  10.587
65452W        W26906  20.149  10.312  12.032
65453W        W26907  32.107  11.631  12.968
65454W        W26908  18.173  13.721   2.675
65455W        W26909  37.019  23.149   1.385
65456W        W26910  10.826  35.451   2.411
65457W        W26911   9.303   0.791  10.554
65458W        W26912  40.529  43.941   2.883
65459W        W26913  14.320   3.850  13.515
65460W        W26914  33.019  19.109   2.382
65461W        W26915   2.361  38.557  14.830
65462W        W26916  41.864  11.735  11.981
65463W        W26917  18.142  14.242   4.768
65464W        W26918   7.188  36.529  11.430
65465W        W26919  38.336  40.312   0.805
65466W        W26920  27.545  20.114   4.329
65467W        W26921  33.464  43.960  14.375
65468W        W26922  10.822  10.376   3.259
65469W        W26923   3.379  41.947   4.759
65470W        W26924  10.678  10.179   1.448
65471W        W26925  14.658  18.114   3.652
65472W        W26926   9.197  28.457   1.386
65473W        W26927  16.123  30.557   3.176
65474W        W26928  41.447   9.252   3.235
65475W        W26929  33.102  13.287   4.610
65476W        W26930  43.964  40.932  10.483
65477W        W26931  41.790  10.788   0.959
65478W        W26932  25.192  38.070   1.785
65479W        W26933   7.289  38.349   3.664
65480W        W26934  44.326  16.581  13.981
65481W        W26935  39.944  34.540  13.436
65482W        W26936   2.459  36.858  13.355
65483W        W26937  27.175  30.466  12.997
65484W        W26938   2.433   4.419  11.042
65485W        W26939  21.059  37.992   4.646
65486W        W26940   4.391  20.768  11.047
65487W        W26941  37.540  38.060  14.020
65488W        W26942  22.202  40.990  14.965
65489W        W26943  35.555  44.947   1.748
65490W        W26944  41.901   2.431   2.191
65491W        W26945  44.320   6.747  12.536
65492W        W26946   4.742  36.855   2.812
65493W        W26947  20.637  44.962   3.796
65494W        W26948  17.744  41.872   3.704
65495W        W26949  14.720  12.233   2.341
65496W        W26950  43.309  11.202  11.396
65497W        W26951  13.662  44.499   0.915
65498W        W26952   4.407  12.171   2.708
65499W        W26953  19.097  13.132  14.791
65500W        W26954  34.486  26.678   0.393
65501W        W26955  18.161   8.848  11.995
65502W        W26956  33.524   5.370  12.887
65503W        W26957  44.994  39.454  10.505
65504W        W26958  19.277  13.831   1.410
65505W        W26959  39.353  32.143  11.075
65506W        W26960   9.780  27.084  12.404
65507W        W26961  19.597  30.427  14.492
65508W        W26962  12.119   3.322   3.738
65509W        W26963  14.756  17.739   1.213
65510W        W26964  24.669  31.446   2.819
65511W        W26965  38.836  25.669  11.608
65512W        W26966   6.309   3.282   5.209
65513W        W26967  17.719  10.808   3.712
65514W        W26968  25.678  24.587  11.995
65515W        W26969  25.630  28.041  11.014
65516W        W26970   0.904  38.524   0.924
65517W        W26971   5.761   8.872  14.987
65518W        W26972  40.968  11.343  14.304
65519W        W26973  25.021  33.417  13.420
65520W        W26974   9.666  30.564  14.916
65521W        W26975  34.397  38.999  14.888
65522W        W26976  26.466  24.205  14.762
65523W        W26977  28.618  25.204   5.084
65524W        W26978  20.056   2.450   1.397
65525W        W26979   3.320  13.845   0.400
65526W        W26980   1.825  43.324   1.867
65527W        W26981  14.702  37.440  14.895
65528W        W26982  16.754  35.092   1.339
65529W        W26983  41.411   0.323   0.266
65530W        W26984  42.787  38.898  10.918
65531W        W26985  24.042  23.521  13.925
65532W        W26986  28.122  13.287  13.414
65533W        W26987  29.569  25.214   0.849
65534W        W26988  23.517  28.584  14.284
65535W        W26989  44.950   1.807  13.423
65536W        W26990  15.614  44.869   4.319
65537W        W26991  24.056   8.690  14.450
65538W        W26992   9.759  33.121   3.305
65539W        W26993  35.901  13.838  12.919
65540W        W26994  32.042   2.229  12.459
65541W        W26995  34.899  27.635  14.380
65542W        W26996   0.455   3.862  10.966
65543W        W26997  30.001  27.504  11.452
65544W        W26998  34.879  33.024  11.945
65545W        W26999   7.364  19.269   4.676
65546W        W27000  23.578   3.837   3.667
65547W        W27001  26.179   4.335  14.923
65548W        W27002  10.845  29.018   3.696
65549W        W27003  37.403  41.848   0.458
65550W        W27004  13.629   5.738   4.312
65551W        W27005   9.318   3.298  14.474
65552W        W27006  29.102  21.235   4.203
65553W        W27007  32.922  27.540  14.278
65554W        W27008   0.805  23.181  11.091
65555W        W27009  16.286  20.610  13.447
65556W        W27010  43.771  33.106  11.110
65557W        W27011  32.395   9.796  14.969
65558W        W27012   5.361  22.621  13.878
65559W        W27013  20.131  10.739   2.250
65560W        W27014  34.501  14.216   0.751
65561W        W27015   4.902  18.790   2.332
65562W        W27016   7.377  44.799  13.815
65563W        W27017  13.814  39.533  13.953
65564W        W27018  26.074  15.607   0.294
65565W        W27019  35.513  32.600  10.509
65566W        W27020  28.077  19.624   4.173
65567W        W27021   9.205   5.784   1.701
65568W        W27022  18.196  34.456   4.750
65569W        W27023  13.326  20.632  12.828
65570W        W27024  16.795  43.490   0.888
65571W        W27025   0.760  39.391   2.300
65572W        W27026  39.347  23.544   1.714
65573W        W27027  18.272  11.369  14.848
65574W        W27028   9.884  16.296   4.347
65575W        W27029   9.675  14.744   1.714
65576W        W27030  31.614  41.306   2.205
65577W        W27031  20.227  27.565  14.781
65578W        W27032   9.241   3.956   2.311
65579W        W27033  12.772   8.896   3.315
65580W        W27034  30.912   1.774   2.738
65581W        W27035  17.234  15.161  11.567
65582W        W27036   6.274  20.252  11.522
65583W        W27037  15.181  38.368  13.983
65584W        W27038   9.288  13.251   3.337
65585W        W27039  14.244  21.113  10.972
65586W        W27040  31.577  32.433   4.339
65587W        W27041  15.676  22.726  13.859
65588W        W27042  14.663  36.056  11.112
65589W        W27043  15.256   1.845  12.421
65590W        W27044  40.902  12.837   1.321
65591W        W27045   9.304  44.888  11.393
65592W        W27046   8.725   7.232   1.373
65593W        W27047  36.963  33.111   4.315
65594W        W27048  19.201  36.958  14.440
65595W        W27049  12.636  23.494  12.049
65596W        W27050  44.481  28.459  10.580
65597W        W27051  13.155  33.429   4.345
65598W        W27052  42.861  26.117  12.992
65599W        W27053  30.916  13.109  10.631
65600W        W27054  11.824  37.410   1.369
65601W        W27055  31.015   2.893  14.365
65602W        W27056  27.457  18.232  12.377
65603W        W27057  36.495   2.310   2.678
65604W        W27058  36.392   7.214   2.272
65605W        W27059   7.881   0.311  11.597
65606W        W27060  33.131  35.477  14.313
65607W        W27061  19.636  30.100  10.947
65608W        W27062  27.619   0.757  12.823
65609W        W27063  26.995  43.008   4.671
65610W        W27064   0.306  26.466  11.877
65611W        W27065   9.711  43.950  10.962
65612W        W27066  22.190   3.801  14.947
65613W        W27067  33.932  19.700   3.356
65614W        W27068  24.194   3.758  14.368
65615W        W27069  26.055   9.674  13.931
65616W        W27070  29.933  31.438  13.052
65617W        W27071  23.516   9.191   1.886
65618W        W27072  13.227   4.736  10.624
65619W        W27073   7.852  28.182   1.819
65620W        W27074  13.742   2.292   1.364
65621W        W27075  33.958  30.986   2.697
65622W        W27076  12.338  41.862  14.404
65623W        W27077   1.738  17.762  11.532
65624W        W27078  10.702   8.725   4.286
65625W        W27079  43.906  19.055  13.813
65626W        W27080  35.598  44.759   4.229
65627W        W27081   1.777  21.154   3.186
65628W        W27082  44.832  34.419   4.785
65629W        W27083  31.578  12.362   1.698
65630W        W27084  34.030  17.718  11.563
65631W        W27085   3.396  25.046   0.480
65632W        W27086   1.322  31.008   1.792
65633W        W27087   5.328  22.241   0.826
65634W        W27088   6.877  12.314   0.325
65635W        W27089   5.687   1.450   1.240
65636W        W27090  13.238  15.623   1.438
65637W        W27091   5.895   8.768   4.215
65638W        W27092  40.878   8.329  12.887
65639W        W27093  39.065  38.357   3.208
65640W        W27094  44.271  42.944   2.755
65641W        W27095  11.130  41.430  11.530
65642W        W27096  31.437  25.138  11.032
65643W        W27097  31.429  42.323  12.961
65644W        W27098  34.492  24.111  13.520
65645W        W27099  35.970  30.614  13.465
65646W        W27100  13.345  28.939   0.384
65647W        W27101  12.807  41.530  14.374
65648W        W27102   8.735  40.536  12.374
65649W        W27103  10.318  14.199  11.437
65650W        W27104  36.990  20.567   3.223
65651W        W27105   8.405   7.790  11.603
65652W        W27106  28.589   9.274   1.304
65653W        W27107   6.816  32.446  12.974
65654W        W27108   6.686  35.564  10.936
65655W        W27109  10.830   2.414  14.313
65656W        W27110  13.131  12.176   4.724
65657W        W27111  41.908   7.408   1.705
65658W        W27112   1.314  38.411   4.291
65659W        W27113  11.795  39.995   0.437
65660W        W27114  23.629   9.800  11.584
65661W        W27115   1.904   2.337   4.716
65662W        W27116  38.325  27.461   0.892
65663W        W27117  35.524   8.719  12.420
65664W        W27118  16.252  32.573  12.972
65665W        W27119  29.648  29.949   1.765
65666W        W27120  27.163  34.880   0.340
65667W        W27121  33.588  36.525  12.352
65668W        W27122  37.076   1.818   4.206
65669W        W27123   6.772  28.131   2.354
65670W        W27124  10.339  35.019  10.611
65671W        W27125  21.690  41.495  11.562
65672W        W27126  17.799  28.944   3.861
65673W        W27127  28.013  15.240  12.044
65674W        W27128  13.813  34.500   2.771
65675W        W27129  22.056  16.801   0.894
65676W        W27130  37.940  28.007  14.014
65677W        W27131   8.720  37.497   1.709
65678W        W27132  13.296  28.165   2.385
65679W        W27133  10.736  12.148  10.634
65680W        W27134  24.712  31.980  12.460
65681W        W27135   6.240  29.957   2.772
65682W        W27136   4.768  42.993  14.283
65683W        W27137  21.751  22.526  14.913
65684W        W27138  40.489  44.818   4.750
65685W        W27139  22.023  29.533  10.623
65686W        W27140  10.222  24.011   5.220
65687W        W27141   9.732  20.232  12.423
65688W        W27142   4.267  26.208   1.256
65689W        W27143   1.838   8.656  14.827
65690W        W27144  10.236  36.006  11.078
65691W        W27145  35.110  36.407   2.193
65692W        W27146   7.720  20.215   0.795
65693W        W27147  23.093  12.296   0.416
65694W        W27148  34.077  17.117   2.209
65695W        W27149  30.917   9.269   5.268
65696W        W27150  42.389   8.828   1.932
65697W        W27151  40.840  24.572   0.734
65698W        W27152  17.281  37.936   1.393
65699W        W27153  15.207   3.217  14.805
65700W        W27154   8.708  29.456   4.142
65701W        W27155   0.350  15.167   1.890
65702W        W27156  18.292  27.954  12.974
65703W        W27157  30.524   6.283   3.329
65704W        W27158   1.390  20.130   4.784
65705W        W27159  27.508  29.124  12.070
65706W        W27160  39.991  10.350   3.361
65707W        W27161  37.980  33.567   9.997
65708W        W27162  10.870  25.172   2.364
65709W        W27163  17.623  19.534  11.550
65710W        W27164  39.314  36.055  12.932
65711W        W27165   9.335  33.400   2.765
65712W        W27166   3.790  12.255  10.902
65713W        W27167   1.836  20.075  10.548
65714W        W27168  35.056   6.384   4.255
65715W        W27169  40.379   1.751  10.020
65716W        W27170  23.552  26.656   3.245
65717W        W27171  25.477  27.945  13.062
65718W        W27172  35.388  36.098   1.784
65719W        W27173  12.684  37.580  10.631
65720W        W27174  12.817  44.292   1.245
65721W        W27175   5.796  15.712  14.452
65722W        W27176  39.395  31.142  14.793
65723W        W27177  10.146  27.016  14.834
65724W        W27178  32.982  17.152  12.050
65725W        W27179  14.593  17.673  11.048
65726W        W27180   1.797  20.768   3.689
65727W        W27181  21.554  39.976  10.547
65728W        W27182   1.362  33.116  12.898
65729W        W27183  17.745  11.287   3.351
65730W        W27184  38.976  18.072  12.488
65731W        W27185  38.432  21.262   2.382
65732W        W27186   4.205  22.170   2.215
65733W        W27187  42.302  37.538   4.835
65734W        W27188   2.817  38.898   1.384
65735W        W27189  28.082  23.209   1.851
65736W        W27190  11.351  19.123  11.592
65737W        W27191  12.233   8.803   1.358
65738W        W27192  12.619  33.029  13.900
65739W        W27193  30.122  40.887   2.753
65740W        W27194  15.808  15.169   1.861
65741W        W27195   2.960  11.178   4.748
65742W        W27196  13.165  30.995   0.730
65743W        W27197  44.351  35.585   2.721
65744W        W27198  40.034  16.625  13.400
65745W        W27199  37.509  33.981  13.058
65746W        W27200   2.364  16.301   4.798
65747W        W27201  25.217  27.633   2.213
65748W        W27202  36.994   0.290  13.918
65749W        W27203  36.970  20.122   3.736
65750W        W27204  34.988  34.600  10.526
65751W        W27205  38.338  37.560   5.146
65752W        W27206  44.334  38.015   3.769
65753W        W27207  33.901  32.629   2.230
65754W        W27208  42.372   3.386  12.952
65755W        W27209   0.311  21.523  11.947
65756W        W27210  44.466  35.024   1.758
65757W        W27211  19.760  10.835  13.027
65758W        W27212  35.494  38.074   1.780
65759W        W27213  16.186  24.615   4.292
65760W        W27214  28.569   9.854  11.124
65761W        W27215  36.904  11.146   4.199
65762W        W27216   7.696  36.841   2.393
65763W        W27217  33.385  39.401  11.485
65764W        W27218  21.242  37.024  10.422
65765W        W27219   1.335  14.143  12.353
65766W        W27220  25.544  21.699   4.197
65767W        W27221  38.976  18.154   4.197
65768W        W27222  38.455  43.838   1.859
65769W        W27223   8.725  39.378   3.278
65770W        W27224   6.326  12.267  14.998
65771W        W27225   3.774  29.455   3.653
65772W        W27226  35.521  20.523   1.703
65773W        W27227  23.579   2.231  12.516
65774W        W27228  22.659   7.857  12.388
65775W        W27229   9.186  40.329   0.315
65776W        W27230   3.308  29.095  11.416
65777W        W27231  27.566  24.120   2.720
65778W        W27232  27.050   8.308  14.898
65779W        W27233  40.500  35.498   2.820
65780W        W27234  34.612   8.333  14.443
65781W        W27235   6.427   8.302   4.328
65782W        W27236   0.783   9.245  13.984
65783W        W27237   1.926   9.305   0.965
65784W        W27238  27.538  17.800   3.784
65785W        W27239   6.255  35.999  14.474
65786W        W27240  29.983  31.048  11.918
65787W        W27241  27.173  31.620  11.942
65788W        W27242  12.786  44.272   0.757
65789W        W27243   9.780   3.798   2.765
65790W        W27244  38.499   9.853  12.996
65791W        W27245  20.691  33.911   4.654
65792W        W27246   9.812  15.150   1.741
65793W        W27247  16.737   5.218   0.805
65794W        W27248  40.513  36.059   1.360
65795W        W27249   6.825   8.805   3.315
65796W        W27250   4.832  24.540  12.054
65797W        W27251  37.404  22.077   1.344
65798W        W27252  42.025  41.903  11.960
65799W        W27253  18.769  39.384  14.348
65800W        W27254  12.683  31.150   0.479
65801W        W27255  16.138   4.434  14.425
65802W        W27256  23.132   5.274  13.964
65803W        W27257  31.914  16.730  12.368
65804W        W27258  38.009  43.861   2.210
65805W        W27259  12.617  29.157  12.850
65806W        W27260  19.252   0.308  10.590
65807W        W27261  14.321   8.370  13.548
65808W        W27262  36.543  34.882  13.449
65809W        W27263  23.062  23.724  12.475
65810W        W27264   6.870  10.185   0.746
65811W        W27265  24.188  15.207   0.243
65812W        W27266  40.994  16.283  14.503
65813W        W27267  18.127  27.573  11.403
65814W        W27268  31.107  23.669   0.387
65815W        W27269  35.359  30.934   4.118
65816W        W27270  28.977  16.101   3.223
65817W        W27271  30.513  17.707   4.786
65818W        W27272  13.762  14.290   3.215
65819W        W27273   5.192  44.503  13.035
65820W        W27274  20.069  18.155   2.330
65821W        W27275  26.495  35.534  12.978
65822W        W27276  20.602  22.616   3.371
65823W        W27277  34.381  36.473   2.879
65824W        W27278  29.486   8.825  14.018
65825W        W27279  41.995  28.129  10.131
65826W        W27280  22.687  19.218  11.439
65827W        W27281  25.092  44.767  12.085
65828W        W27282  11.162  17.237   9.502
65829W        W27283  29.923  30.559  12.502
65830W        W27284  11.756  17.121   3.311
65831W        W27285   5.798  39.919  10.583
65832W        W27286  38.509  41.852   9.478
65833W        W27287  19.093  40.396  11.446
65834W        W27288   9.235  20.200  12.459
65835W        W27289  44.997  19.191   1.402
65836W        W27290  42.943  10.738  14.396
65837W        W27291   5.806   4.279  13.936
65838W        W27292  44.340  44.820  14.024
65839W        W27293  19.280  37.436  12.962
65840W        W27294  21.072  33.581   0.946
65841W        W27295  13.257  14.680   1.804
65842W        W27296   1.263  11.671   2.402
65843W        W27297  37.975  26.076   3.855
65844W        W27298  37.078  24.162   0.926
65845W        W27299  37.401  37.974  11.399
65846W        W27300  11.804   7.744   3.331
65847W        W27301  31.647  13.642  13.488
65848W        W27302  30.970  17.191  14.335
65849W        W27303  20.146   9.382  10.535
65850W        W27304  22.731   8.291  10.897
65851W        W27305   3.839   7.723   4.643
65852W        W27306  11.847  34.991  12.973
65853W        W27307  18.212  24.507  14.977
65854W        W27308  13.668  36.383  14.820
65855W        W27309  13.788  15.757  13.374
65856W        W27310  35.532  40.474  10.525
65857W        W27311   5.292  21.186  14.326
65858W        W27312  17.581  41.901   4.602
65859W        W27313  23.734  33.983  13.520
65860W        W27314  25.180  12.317   3.742
65861W        W27315  32.123  17.143   5.237
65862W        W27316  32.541  18.653  10.512
65863W        W27317  34.472  29.474   4.151
65864W        W27318  44.816  10.838  13.021
65865W        W27319  10.840  26.011  14.874
65866W        W27320  27.503  11.763  14.346
65867W        W27321   4.256  15.147   0.913
65868W        W27322  16.302  38.863  12.342
65869W        W27323  34.065   3.386  13.017
65870W        W27324   3.885  18.596  14.345
65871W        W27325  14.194  30.528  11.442
65872W        W27326  14.237  33.594   3.349
65873W        W27327  35.103  26.152   3.209
65874W        W27328  13.186  15.740   5.263
65875W        W27329  27.948  20.031  10.102
65876W        W27330   6.682  21.705  14.276
65877W        W27331  34.070  25.048   0.370
65878W        W27332  33.451  25.021  10.034
65879W        W27333  34.961   6.423   5.176
65880W        W27334  38.950   0.290  12.083
65881W        W27335  37.425  11.138  14.507
65882W        W27336  25.192  40.995  10.955
65883W        W27337  28.677  31.588   1.730
65884W        W27338  36.061  34.589   0.806
65885W        W27339  44.798   2.361  11.402
65886W        W27340  41.840  18.158   2.377
65887W        W27341  41.346  25.092  12.859
65888W        W27342  18.555  23.052  10.888
65889W        W27343   7.325  27.992   3.378
65890W        W27344  27.084  13.224   2.296
65891W        W27345  17.214  28.627  14.506
65892W        W27346  18.110  30.091   3.226
65893W        W27347  34.991  19.716   5.191
65894W        W27348  26.516  20.567   0.372
65895W        W27349   6.329  26.110   3.272
65896W        W27350  16.750  44.879  14.503
65897W        W27351   3.732  17.582   4.740
65898W        W27352  28.476  32.587   1.888
65899W        W27353  33.091  11.368  14.360
65900W        W27354  15.144  35.593  10.536
65901W        W27355  22.202  27.484  14.302
65902W        W27356  27.194  22.605   0.315
65903W        W27357  39.020  21.699  11.534
65904W        W27358  29.471  21.182  12.391
65905W        W27359  44.778  30.956   1.272
65906W        W27360  12.324   4.349  12.518
65907W        W27361   4.721  20.228   0.465
65908W        W27362  14.783  15.267   1.243
65909W        W27363  14.807   0.289   3.804
65910W        W27364  31.409  42.503  13.527
65911W        W27365  27.146  15.216   1.286
65912W        W27366  13.812   7.830   4.769
65913W        W27367  19.708   2.265   2.870
65914W        W27368  40.981   5.752  11.380
65915W        W27369  23.658  34.864  13.840
65916W        W27370   5.251  30.981   4.621
65917W        W27371  23.669  39.956  11.512
65918W        W27372   4.442  44.318   4.757
65919W        W27373  25.150  34.911  10.057
65920W        W27374   8.312   1.822  13.504
65921W        W27375   2.388  11.161   0.945
65922W        W27376   1.287   9.878   2.856
65923W        W27377  38.978  40.514  11.067
65924W        W27378  40.410  38.521  14.850
65925W        W27379  17.065  44.326  14.280
65926W        W27380   7.727   7.362   4.278
65927W        W27381  29.615  12.778  12.088
65928W        W27382  31.519  32.600  12.903
65929W        W27383   9.802  36.919  14.021
65930W        W27384   1.832  20.623  13.036
65931W        W27385  17.122  31.456   1.876
65932W        W27386  19.619   2.911  11.077
65933W        W27387  11.364  33.022  14.412
65934W        W27388  28.457   8.379   2.183
65935W        W27389  21.673  11.684  12.862
65936W        W27390  44.324  17.195  14.433
65937W        W27391  32.073  18.779  12.954
65938W        W27392  25.608  13.184   0.847
65939W        W27393  33.549  17.594  14.509
65940W        W27394   5.267  22.211   1.211
65941W        W27395  25.535  10.737   4.290
65942W        W27396   8.747   9.229  14.903
65943W        W27397   9.802   8.665   0.339
65944W        W27398  15.212   1.368   2.862
65945W        W27399  22.129   2.886   2.671
65946W        W27400  29.554  38.889   3.250
65947W        W27401   2.833  29.944  11.065
65948W        W27402   0.807  14.118   3.708
65949W        W27403  13.676  17.644  11.516
65950W        W27404   1.920  43.941   4.801
65951W        W27405   4.215  14.774   0.351
65952W        W27406  29.046   3.450  12.480
65953W        W27407  44.920  27.537  12.846
65954W        W27408  39.323  43.809   0.732
65955W        W27409  30.145  36.503  10.124
65956W        W27410  25.491   2.432  13.406
65957W        W27411  10.746   0.356   3.158
65958W        W27412  18.119   0.868  13.331
65959W        W27413   7.287  33.929  14.394
65960W        W27414  31.499   0.792   0.771
65961W        W27415  29.549  23.160  11.550
65962W        W27416  35.482  23.180  11.376
65963W        W27417   1.936   2.858  10.491
65964W        W27418  17.779  43.943  11.451
65965W        W27419  28.464  11.827  12.459
65966W        W27420  26.681  27.963  13.995
65967W        W27421  26.492  43.981  12.910
65968W        W27422  10.773   6.913   2.671
65969W        W27423  17.100  36.965   1.374
65970W        W27424   2.927  32.569   2.813
65971W        W27425   3.294  34.385   3.737
65972W        W27426   2.402  21.729   4.650
65973W        W27427  35.098  35.932  10.541
65974W        W27428  42.979  22.669  13.828
65975W        W27429   2.466  43.927  10.543
65976W        W27430  32.393  20.669   3.679
65977W        W27431  30.910  12.852  13.879
65978W        W27432  25.486   8.680   2.308
65979W        W27433  17.218  13.612  12.041
65980W        W27434  24.578  25.470   1.335
65981W        W27435   1.380  23.675  12.515
65982W        W27436   3.392  11.169   4.615
65983W        W27437  11.702   3.459   2.827
65984W        W27438  11.336  27.125   0.891
65985W        W27439  23.107  37.080   1.744
65986W        W27440  39.899   0.493  11.586
65987W        W27441  14.154  21.223  13.320
65988W        W27442  41.028  17.578  13.510
65989W        W27443  30.105  35.503   2.318
65990W        W27444  15.326   5.201  13.460
65991W        W27445   4.444  33.590  13.969
65992W        W27446  41.934  37.929  14.869
65993W        W27447  20.738   3.754   4.808
65994W        W27448   6.296  16.585   1.334
65995W        W27449  34.042  19.257  10.923
65996W        W27450  11.348  41.529   3.308
65997W        W27451   7.905   1.324  14.809
65998W        W27452   1.770  23.188   0.795
65999W        W27453  22.995  40.023  14.788
66000W        W27454  38.400  22.691   2.679
66001W        W27455  11.182  17.654  13.847
66002W        W27456  26.691   4.282  13.316
66003W        W27457   3.870  26.695  10.941
66004W        W27458  30.055  16.645   3.283
66005W        W27459  43.356  30.963   1.360
66006W        W27460   7.260  41.537   2.293
66007W        W27461  21.143   4.747   0.462
66008W        W27462  12.268  34.603  10.573
66009W        W27463  22.569  20.724  11.029
66010W        W27464  22.716  21.548   1.754
66011W        W27465  31.952  40.374   3.296
66012W        W27466  23.141  33.968  11.373
66013W        W27467  14.701  44.366   1.855
66014W        W27468   1.341   1.239   4.275
66015W        W27469  40.374   9.733  13.995
66016W        W27470  42.801  11.133  10.624
66017W        W27471  29.976   2.340  10.523
66018W        W27472  32.501  22.242   3.667
66019W        W27473  18.585  44.439  13.006
66020W        W27474  15.794  37.839   1.806
66021W        W27475  27.560   2.742   3.343
66022W        W27476   7.874  24.152   5.148
66023W        W27477  42.911  24.483   3.261
66024W        W27478  11.142  39.003   3.340
66025W        W27479   0.466  19.771   5.182
66026W        W27480  33.964  23.053  12.514
66027W        W27481   4.230  40.974  10.910
66028W        W27482  13.287  19.580  14.007
66029W        W27483  28.489  37.030   4.293
66030W        W27484  19.715  25.152  11.440
66031W        W27485   7.865  42.970  10.495
66032W        W27486  27.469  11.280  14.898
66033W        W27487   8.717   3.398  13.841
66034W        W27488  30.478   9.393  10.027
66035W        W27489   4.884   4.317   1.788
66036W        W27490  29.024   7.878   3.378
66037W        W27491  24.180   6.211  14.443
66038W        W27492  13.681  35.523  12.467
66039W        W27493  14.159  10.365   4.824
66040W        W27494   6.730   8.869  11.029
66041W        W27495  44.806   6.721   1.819
66042W        W27496  12.293  19.670  12.899
66043W        W27497  12.802  22.682  13.934
66044W        W27498  35.447   7.700  11.466
66045W        W27499   2.433  24.029   4.674
66046W        W27500  32.633  26.527  12.047
66047W        W27501  14.143  15.654   0.454
66048W        W27502  31.937  35.948  11.604
66049W        W27503   5.830  11.833   1.880
66050W        W27504  43.346  40.848   3.863
66051W        W27505  13.200  41.436   3.868
66052W        W27506   0.859  34.407   5.138
66053W        W27507  38.476  24.008   3.202
66054W        W27508  14.811  40.495  12.827
66055W        W27509   4.726  22.610  14.427
66056W        W27510  39.029  31.962   4.193
66057W        W27511  14.315  41.803  13.915
66058W        W27512   6.833  20.679  13.445
66059W        W27513   7.874   3.216  13.845
66060W        W27514   8.391  26.105   2.246
66061W        W27515  14.644   8.270  11.045
66062W        W27516  32.096  22.663   2.328
66063W        W27517  13.697   7.349   1.879
66064W        W27518   6.823  13.747   2.714
66065W        W27519  39.821   6.797  12.557
66066W        W27520  33.086  25.668  14.758
66067W        W27521  18.738  14.157  13.330
66068W        W27522  17.141  11.735   2.731
66069W        W27523  42.338  30.910  10.599
66070W        W27524   2.358  31.900   2.411
66071W        W27525  13.599  24.099  10.555
66072W        W27526  32.479  33.552   4.287
66073W        W27527   0.897  10.282   0.853
66074W        W27528  11.276  44.009   1.437
66075W        W27529  17.596  41.905  13.374
66076W        W27530  11.367  16.726  13.878
66077W        W27531  11.282  34.016   4.661
66078W        W27532   1.448  14.599   0.261
66079W        W27533  20.582  34.903  13.976
66080W        W27534  38.958  11.717   0.462
66081W        W27535   1.822  37.037  14.335
66082W        W27536  43.778  13.807   2.726
66083W        W27537  34.964  41.336  14.422
66084W        W27538   3.715  21.061  12.063
66085W        W27539   1.823  24.649  14.759
66086W        W27540  26.954  37.343   4.322
66087W        W27541  27.677  16.117  13.385
66088W        W27542  25.489  25.075   3.289
66089W        W27543  13.698  24.087  14.897
66090W        W27544  21.245  10.244   1.235
66091W        W27545  30.113  38.448   2.882
66092W        W27546  30.150  26.502   0.812
66093W        W27547  34.383  24.981  11.988
66094W        W27548   2.472  36.028  13.437
66095W        W27549  23.535  26.687   0.261
66096W        W27550  26.164  10.699  12.427
66097W        W27551  13.261  28.498   3.284
66098W        W27552  42.399  22.195   0.266
66099W        W27553  41.813  44.783  10.516
66100W        W27554  14.205  16.595  13.312
66101W        W27555  17.648  41.316  14.968
66102W        W27556  25.972  12.284  13.012
66103W        W27557   9.889  22.686  12.902
66104W        W27558  12.277  18.559  12.989
66105W        W27559  27.684  19.600   3.764
66106W        W27560  30.517   8.225   0.949
66107W        W27561   3.393  44.757  12.998
66108W        W27562  35.500  20.029  10.573
66109W        W27563  10.867  39.502   5.279
66110W        W27564  22.696  38.422  11.059
66111W        W27565   4.296  22.171   0.884
66112W        W27566  27.166  20.760  11.395
66113W        W27567  20.038  33.591   3.771
66114W        W27568  11.837  43.833  11.423
66115W        W27569  31.123  41.293   2.231
66116W        W27570  42.460  37.908   1.823
66117W        W27571  28.039  24.690  12.479
66118W        W27572  22.242  23.026   3.175
66119W        W27573   7.415  27.603   3.639
66120W        W27574  12.831  38.368   2.311
66121W        W27575  14.130   7.353  12.480
66122W        W27576  31.058  17.758  12.443
66123W        W27577   6.396  37.863   2.219
66124W        W27578   2.302  15.224   4.219
66125W        W27579  38.889  10.337   4.836
66126W        W27580   9.381  41.830  14.369
66127W        W27581  44.413  26.169   3.194
66128W        W27582  10.347  35.485   5.255
66129W        W27583  22.535  11.333  13.420
66130W        W27584  23.002  38.426  10.569
66131W        W27585   1.838  34.558  13.838
66132W        W27586  15.322  30.528   0.774
66133W        W27587  39.432  30.130   1.383
66134W        W27588  29.535   7.707  11.391
66135W        W27589  20.216  34.531   1.266
66136W        W27590  17.571  28.047  10.406
66137W        W27591  18.788  44.264  12.089
66138W        W27592  29.512   3.786  11.506
66139W        W27593  19.672  21.210   0.442
66140W        W27594  34.013   3.931  11.373
66141W        W27595   9.704  19.101   5.314
66142W        W27596  12.195  42.516   3.275
66143W        W27597  19.771   1.961   1.924
66144W        W27598   0.975   2.830  12.528
66145W        W27599  26.464  28.967  12.091
66146W        W27600   4.883  31.942   4.692
66147W        W27601   7.239  19.679   0.401
66148W        W27602  22.703   9.160   5.635
66149W        W27603  32.887  33.590  11.430
66150W        W27604  27.555   5.844   2.277
66151W        W27605  24.199  28.570  13.813
66152W        W27606  25.573   9.366   2.263
66153W        W27607  21.116   4.259  14.858
66154W        W27608  40.971  16.670   3.825
66155W        W27609  29.435  21.552  14.291
66156W        W27610  38.410  25.088   4.285
66157W        W27611  28.951  11.321   3.808
66158W        W27612  11.198  38.467  14.336
66159W        W27613  31.899  31.998  11.908
66160W        W27614  14.295  35.888   4.243
66161W        W27615  21.667  35.041  13.937
66162W        W27616  30.540   2.423   2.286
66163W        W27617  28.031   3.410   0.916
66164W        W27618   2.938  16.201  12.578
66165W        W27619  22.711  12.150  13.336
66166W        W27620   3.821  19.248   0.442
66167W        W27621   5.725  34.457  12.016
66168W        W27622   8.164   5.239   2.413
66169W        W27623  42.973   8.854   3.216
66170W        W27624  31.989  39.442  13.395
66171W        W27625  28.564   7.726   2.241
66172W        W27626  29.974  15.669   4.206
66173W        W27627  13.211  12.226   0.882
66174W        W27628  35.064   2.316   0.752
66175W        W27629  21.654   1.401  14.847
66176W        W27630  29.589  42.873  13.461
66177W        W27631  15.213   1.417  12.987
66178W        W27632   5.381   5.226  12.047
66179W        W27633   1.854  29.507   2.364
66180W        W27634  32.454   0.801   4.163
66181W        W27635   7.910  22.537  12.062
66182W        W27636  23.109   6.688   5.221
66183W        W27637  40.411   9.859   2.182
66184W        W27638   3.311   3.866  12.023
66185W        W27639  41.342   0.899  12.367
66186W        W27640   0.374  22.705  12.945
66187W        W27641  16.639   9.693   1.295
66188W        W27642  29.629  40.384   1.821
66189W        W27643  15.117  38.060  12.409
66190W        W27644  20.259  28.668   2.313
66191W        W27645  31.907  21.033  10.939
66192W        W27646  38.965   0.375   3.725
66193W        W27647  36.012  39.972   1.294
66194W        W27648  34.923  15.735   4.292
66195W        W27649  12.258  44.271   2.866
66196W        W27650   0.262  26.008   4.180
66197W        W27651  28.990  37.420   0.767
66198W        W27652  38.869  28.946  11.531
66199W        W27653  29.654  13.620  13.009
66200W        W27654  39.039   0.371  13.891
66201W        W27655  42.845  10.761  12.531
66202W        W27656   5.918  40.431  14.990
66203W        W27657  24.004  36.890   4.204
66204W        W27658  25.638  26.537  10.553
66205W        W27659  28.609  11.362   0.861
66206W        W27660  44.878  32.634   0.818
66207W        W27661   4.360   1.399  11.551
66208W        W27662  28.473  18.225   2.270
66209W        W27663  34.397  22.049  13.428
66210W        W27664  13.665  24.132  14.466
66211W        W27665  11.752  28.625   3.334
66212W        W27666  16.203  34.888   4.798
66213W        W27667  15.578  14.729  14.472
66214W        W27668  27.102  43.301   2.283
66215W        W27669  13.284   0.803   0.779
66216W        W27670   1.436  34.588   0.858
66217W        W27671  36.981  17.115  13.468
66218W        W27672   4.425  37.377   3.371
66219W        W27673  40.917  42.957   5.188
66220W        W27674  17.675  29.537   0.296
66221W        W27675  43.491  38.859   1.917
66222W        W27676   5.917  35.920  14.996
66223W        W27677   9.381  17.144   2.385
66224W        W27678  40.830  24.064  12.007
66225W        W27679  13.232   4.244   0.283
66226W        W27680  14.715  15.586   1.836
66227W        W27681  20.752  36.956  11.100
66228W        W27682  44.825  44.815  13.348
66229W        W27683   3.436  10.222   4.259
66230W        W27684  37.088  21.518   1.355
66231W        W27685   1.867   2.282  10.631
66232W        W27686   5.274   8.269   1.920
66233W        W27687  30.116  21.626   4.680
66234W        W27688  37.015  15.121   2.254
66235W        W27689  16.226  23.715  13.996
66236W        W27690  40.490  25.490  11.909
66237W        W27691  37.393  38.417  11.079
66238W        W27692  43.933  44.995   1.800
66239W        W27693  22.062  20.094  13.530
66240W        W27694   4.249  44.885   4.624
66241W        W27695  12.811   8.279  14.479
66242W        W27696  43.352  32.620  11.534
66243W        W27697  11.798   0.950   3.738
66244W        W27698  22.651  33.592   0.736
66245W        W27699   1.950  21.085   4.212
66246W        W27700   4.768  34.418  13.863
66247W        W27701  21.597  23.013   1.784
66248W        W27702  44.483  12.271   3.160
66249W        W27703  25.603  15.649   2.680
66250W        W27704   1.317  43.845  13.484
66251W        W27705  11.188  44.001  14.304
66252W        W27706  40.870  41.414  14.852
66253W        W27707   3.852  35.044  14.339
66254W        W27708  25.984  20.104   0.394
66255W        W27709  14.096   0.886   4.256
66256W        W27710  26.527   7.217  13.870
66257W        W27711  30.548  13.806   1.933
66258W        W27712   5.841   8.302   3.314
66259W        W27713  11.669  43.282   2.900
66260W        W27714  41.350   3.714   2.700
66261W        W27715  30.111   9.791   4.816
66262W        W27716  13.611  29.174   4.201
66263W        W27717  13.318  21.708   1.863
66264W        W27718  33.972   6.356   4.237
66265W        W27719   2.273  29.936   4.644
66266W        W27720  12.276  34.004   4.230
66267W        W27721  21.055  40.026  14.836
66268W        W27722  25.508   8.846   2.855
66269W        W27723  29.633  20.665  14.503
66270W        W27724   7.777  10.669   4.715
66271W        W27725  43.368  17.196  14.289
66272W        W27726  30.042  26.108   2.706
66273W        W27727  38.822  14.145   9.938
66274W        W27728  39.907  11.757   0.461
66275W        W27729   0.332   0.881   1.724
66276W        W27730   4.213   7.236   0.936
66277W        W27731   1.769  18.580   0.440
66278W        W27732  37.518  18.561  13.547
66279W        W27733  36.869  33.442  11.516
66280W        W27734  34.085  15.750   3.731
66281W        W27735  39.815  27.038   1.805
66282W        W27736  20.243   6.865   9.961
66283W        W27737  14.321  33.894   3.227
66284W        W27738  16.591  36.086  13.810
66285W        W27739  41.938   0.840   5.102
66286W        W27740   5.372  29.626  10.459
66287W        W27741   9.659  43.891  13.493
66288W        W27742  26.204  13.169   2.259
66289W        W27743  32.402  22.693  13.843
66290W        W27744  25.036   1.861   0.391
66291W        W27745   9.647  11.173  10.516
66292W        W27746  14.639  29.964   4.822
66293W        W27747  21.661  34.611   4.647
66294W        W27748  32.924   2.463  11.513
66295W        W27749  32.588  17.786   2.799
66296W        W27750  17.776  34.446  14.408
66297W        W27751  10.804   1.284  12.051
66298W        W27752  31.604  25.617  11.453
66299W        W27753  13.112  18.242  14.332
66300W        W27754  21.092  14.254   4.158
66301W        W27755  42.458  17.643  10.991
66302W        W27756   1.938  23.564  14.374
66303W        W27757   3.847  30.063  10.525
66304W        W27758  41.974   9.378  11.916
66305W        W27759   4.208   0.758  14.853
66306W        W27760  10.840   8.676   1.359
66307W        W27761  27.020  14.285   2.784
66308W        W27762  19.213  38.570   1.375
66309W        W27763   3.856  20.539  14.330
66310W        W27764   8.202  12.294   1.753
66311W        W27765   9.201  23.228  12.517
66312W        W27766  11.321  11.657  11.075
66313W        W27767  28.120  39.326  11.909
66314W        W27768  29.163  18.285  12.499
66315W        W27769  35.872  29.991   0.820
66316W        W27770  20.112  33.037  14.489
66317W        W27771  39.894  15.618   3.246
66318W        W27772   3.718  27.472  10.933
66319W        W27773  14.812  32.908  13.415
66320W        W27774  10.142  27.516  12.962
66321W        W27775  10.372   4.784  13.841
66322W        W27776  19.647   7.190   0.346
66323W        W27777  37.086  13.348   3.680
66324W        W27778  31.065   7.372   3.707
66325W        W27779  19.561  36.091   2.863
66326W        W27780  30.421  19.747  13.319
66327W        W27781  32.594  22.587   1.297
66328W        W27782  26.098  23.026   1.853
66329W        W27783  21.193   7.878   0.244
66330W        W27784   0.831  34.552  11.613
66331W        W27785  26.664   0.825   4.699
66332W        W27786   1.919  28.942  14.379
66333W        W27787  24.153  18.602   3.849
66334W        W27788  36.421  25.078  14.387
66335W        W27789  37.418   6.314  14.973
66336W        W27790   8.679  15.311  11.107
66337W        W27791  36.059  40.404   9.941
66338W        W27792  10.724   1.954   2.340
66339W        W27793  26.528   6.911  12.423
66340W        W27794  15.095  28.672   1.799
66341W        W27795  14.605   3.727   4.246
66342W        W27796  36.931  14.730  10.952
66343W        W27797  11.777  37.384  14.932
66344W        W27798  18.216  37.991   3.299
66345W        W27799  16.704  39.928   2.331
66346W        W27800   6.385  30.475   0.445
66347W        W27801  41.416  30.106   1.226
66348W        W27802  32.134  13.122   5.318
66349W        W27803   3.802  35.861   2.759
66350W        W27804  15.282   1.922   0.953
66351W        W27805  22.708  39.318   1.341
66352W        W27806  13.110  13.131   4.809
66353W        W27807   9.838  43.818  12.898
66354W        W27808  13.633   5.743  12.503
66355W        W27809  16.095  23.203  10.476
66356W        W27810  16.206  28.659   4.287
66357W        W27811   9.362  38.869  14.906
66358W        W27812   8.275  27.636  12.394
66359W        W27813  18.124  19.560  14.957
66360W        W27814   5.705   2.933   2.767
66361W        W27815  22.035   0.776   3.313
66362W        W27816   6.272  27.185  14.965
66363W        W27817   9.812  14.806  12.516
66364W        W27818  19.606  30.467  14.815
66365W        W27819  34.412   4.920   2.822
66366W        W27820  39.031  42.339   2.774
66367W        W27821  24.058  11.822   0.911
66368W        W27822  42.386  16.282   4.692
66369W        W27823  34.472  36.082   3.843
66370W        W27824  26.634  38.828  10.628
66371W        W27825   5.769  28.502  13.387
66372W        W27826  16.149  22.589  10.465
66373W        W27827  44.928  12.757   3.212
66374W        W27828   7.719  42.449  13.040
66375W        W27829  21.193   5.277  13.855
66376W        W27830  38.955  10.736  13.820
66377W        W27831  39.034   8.853   3.208
66378W        W27832  32.022  36.987  14.471
66379W        W27833  31.017  14.313   2.237
66380W        W27834  29.070  10.154  13.518
66381W        W27835  16.223  22.238   3.344
66382W        W27836   0.320  21.168   4.819
66383W        W27837  43.839   4.743   3.259
66384W        W27838  22.125  44.936  13.947
66385W        W27839   3.934  41.535  11.057
66386W        W27840  18.072  44.393  10.463
66387W        W27841  33.889   4.420   2.829
66388W        W27842  28.023  16.667  12.415
66389W        W27843  11.785   5.397   3.653
66390W        W27844   9.337  34.930   1.303
66391W        W27845  21.166  12.766  11.876
66392W        W27846  35.885  24.084   3.225
66393W        W27847  35.091  32.922   4.286
66394W        W27848  23.619   7.416  13.483
66395W        W27849   4.866   0.973   2.242
66396W        W27850  14.255   1.458   4.654
66397W        W27851  41.947  43.788   1.826
66398W        W27852   9.392  21.514  14.816
66399W        W27853   0.345  41.373   0.465
66400W        W27854  12.826  42.833   0.419
66401W        W27855  23.148  41.846   2.186
66402W        W27856   1.829  17.588   4.250
66403W        W27857  24.128  16.772   2.282
66404W        W27858  27.193  17.169   3.231
66405W        W27859   5.690   4.239  10.543
66406W        W27860  21.139   2.401   0.920
66407W        W27861   5.336  15.085  13.540
66408W        W27862  32.911  38.473  12.891
66409W        W27863  23.228  26.046  12.402
66410W        W27864  27.502  11.161  13.485
66411W        W27865  35.358  37.954   0.956
66412W        W27866  24.653   5.249  10.446
66413W        W27867  15.260  18.560   3.811
66414W        W27868  11.762  25.037  13.861
66415W        W27869   5.401  27.984  11.884
66416W        W27870   1.851  27.535  11.521
66417W        W27871  41.930  12.856  10.088
66418W        W27872  11.703  15.777  12.560
66419W        W27873  16.310  39.815   1.922
66420W        W27874  43.515  10.788   0.379
66421W        W27875   5.397  33.982   3.687
66422W        W27876  44.834  39.343  11.538
66423W        W27877   8.862  23.237  12.085
66424W        W27878   3.395  28.160  12.541
66425W        W27879  42.878  31.595   0.765
66426W        W27880  14.738  31.995  13.449
66427W        W27881  13.145   9.312  13.882
66428W        W27882   5.881  36.925  11.431
66429W        W27883  23.713   6.844  11.537
66430W        W27884  33.563  13.219   0.936
66431W        W27885  40.821   7.866  10.425
66432W        W27886   6.750  26.646   1.782
66433W        W27887  27.471  39.471  12.900
66434W        W27888  37.973  18.249   3.273
66435W        W27889  41.817  31.422  10.500
66436W        W27890  42.463   0.269  12.077
66437W        W27891   2.400   6.713   3.785
66438W        W27892  41.470  22.135   1.333
66439W        W27893  13.681  31.594  14.345
66440W        W27894  13.646  28.062   0.290
66441W        W27895  20.117  32.435  12.367
66442W        W27896  24.523  36.567   4.673
66443W        W27897   2.323  42.415   0.782
66444W        W27898  31.433   5.280  12.446
66445W        W27899   3.355  41.021   3.757
66446W        W27900  35.002   9.834   0.897
66447W        W27901  44.980   2.725  12.495
66448W        W27902  31.543  40.384  12.494
66449W        W27903  44.291  33.438   9.962
66450W        W27904  32.628  30.633   0.841
66451W        W27905   4.708  30.612  11.122
66452W        W27906  26.111  13.686  13.466
66453W        W27907   4.334  25.480  13.990
66454W        W27908  38.340  13.663   0.754
66455W        W27909  10.858  35.549  13.351
66456W        W27910  23.046   3.338  10.578
66457W        W27911  27.945  13.684   1.421
66458W        W27912  24.643   6.892  13.991
66459W        W27913   8.229  11.812  12.540
66460W        W27914  11.711  30.927   3.790
66461W        W27915  28.638  42.788  14.008
66462W        W27916  36.532  26.574   0.802
66463W        W27917   2.303   4.900  13.522
66464W        W27918  32.400  39.527  11.924
66465W        W27919  24.017  18.733  13.446
66466W        W27920  44.396   0.954   5.180
66467W        W27921  24.721  29.992   1.749
66468W        W27922  30.141  31.433   4.792
66469W        W27923  38.338  23.534   0.474
66470W        W27924  43.495   7.783   0.734
66471W        W27925  41.445  11.302   2.722
66472W        W27926  27.116  16.796  12.890
66473W        W27927  10.780  36.854   3.648
66474W        W27928  24.089  32.541  13.347
66475W        W27929  33.947  13.653  11.957
66476W        W27930  19.155  26.523   3.843
66477W        W27931  10.351  33.392   4.282
66478W        W27932  19.570  28.959   3.183
66479W        W27933  39.382  14.640  13.882
66480W        W27934  23.082  27.463   0.734
66481W        W27935  14.732  38.551   2.248
66482W        W27936  39.815  36.561  10.510
66483W        W27937  14.230  43.398  14.411
66484W        W27938   4.806  40.427  11.893
66485W        W27939  13.113  10.753   2.816
66486W        W27940  18.143  44.478   2.198
66487W        W27941   6.768  10.193   3.307
66488W        W27942  20.229  29.068   5.319
66489W        W27943   4.816  30.438   4.137
66490W        W27944  15.609  21.540   3.330
66491W        W27945  33.878   7.841  12.053
66492W        W27946  39.826  29.919  11.449
66493W        W27947  13.655   5.861  12.959
66494W        W27948  12.329  29.969   3.240
66495W        W27949  15.164  31.431  13.390
66496W        W27950   1.365   0.948   3.300
66497W        W27951  41.870  32.469  11.449
66498W        W27952  20.576  15.280   4.218
66499W        W27953  12.172   3.327  13.316
66500W        W27954  19.561  17.663  14.444
66501W        W27955  41.793   8.783  10.087
66502W        W27956  34.977  37.944  13.388
66503W        W27957  13.672  14.285  11.075
66504W        W27958  43.925  39.356   1.716
66505W        W27959  43.002  21.158  14.768
66506W        W27960  29.087  41.862  13.810
66507W        W27961  29.927  34.513   0.785
66508W        W27962  41.916   7.773  12.432
66509W        W27963  42.400   2.723  13.005
66510W        W27964  24.667  18.199   3.798
66511W        W27965  41.461  12.648   1.230
66512W        W27966  23.516  11.200   4.183
66513W        W27967   6.754  21.039  14.328
66514W        W27968   1.351  33.552   1.381
66515W        W27969  27.037   5.278   3.839
66516W        W27970   7.685  25.590  13.813
66517W        W27971  37.014  31.590  11.882
66518W        W27972  36.567  26.524   0.360
66519W        W27973  11.171  24.578  12.968
66520W        W27974  18.235  15.302  14.896
66521W        W27975  39.900  39.354   5.209
66522W        W27976  30.144  26.600   5.163
66523W        W27977   0.274  42.405   1.364
66524W        W27978  44.403   8.787   3.222
66525W        W27979   6.784  17.075  14.515
66526W        W27980   7.670   7.835  10.906
66527W        W27981   8.722  36.991   1.312
66528W        W27982  17.677  33.408  11.592
66529W        W27983   7.244  41.003  14.780
66530W        W27984  18.178  33.395   3.354
66531W        W27985   0.915   4.249  11.508
66532W        W27986  14.129  34.036   0.412
66533W        W27987  20.096   6.777  12.961
66534W        W27988  35.581  34.019  13.890
66535W        W27989  18.259   9.271   1.365
66536W        W27990  38.405  24.677   3.813
66537W        W27991  44.297  22.017  12.451
66538W        W27992  14.742  32.391   0.812
66539W        W27993  41.925  30.163   4.742
66540W        W27994  26.138  44.769  14.479
66541W        W27995  22.107  27.131  10.991
66542W        W27996  44.954   5.759   3.694
66543W        W27997  10.270  15.121  11.112
66544W        W27998  14.271  25.141   4.246
66545W        W27999  37.362  42.922  13.912
66546W        W28000  22.079   3.740  12.407
66547W        W28001  32.965  24.558  12.909
66548W        W28002  25.151  37.567  12.914
66549W        W28003  26.185   7.355  13.899
66550W        W28004  11.208  36.933   1.383
66551W        W28005  42.979  15.806  10.991
66552W        W28006  16.209  43.498  14.399
66553W        W28007  28.949  27.981  11.540
66554W        W28008  40.802   1.482  12.416
66555W        W28009   1.892  33.411  12.837
66556W        W28010  21.220  26.009   4.796
66557W        W28011  36.513  39.477   9.670
66558W        W28012  28.058  21.627  11.610
66559W        W28013   2.918  32.439  13.910
66560W        W28014  23.100  26.515   1.261
66561W        W28015  25.190   7.668   3.731
66562W        W28016  29.074  26.961   1.360
66563W        W28017   5.286  11.247  11.913
66564W        W28018  26.116   8.835  12.963
66565W        W28019  32.445  19.585  10.404
66566W        W28020  10.277  39.922  11.049
66567W        W28021   1.453  21.597  14.478
66568W        W28022  12.224  12.243   4.626
66569W        W28023   4.430  30.103   2.803
66570W        W28024  37.483  18.577   4.822
66571W        W28025  42.426  39.462   2.896
66572W        W28026  27.081  23.109  11.597
66573W        W28027  17.119  21.092  10.038
66574W        W28028   4.764  39.944   1.818
66575W        W28029  21.079   0.809   1.296
66576W        W28030   0.475  11.240   1.357
66577W        W28031   9.354  34.881  12.965
66578W        W28032  38.931  23.551  11.120
66579W        W28033   5.869  41.009   3.294
66580W        W28034  12.190  22.519   2.375
66581W        W28035  30.462   7.695   4.769
66582W        W28036   2.291  12.248   1.440
66583W        W28037   6.898  26.596   4.783
66584W        W28038  13.812  12.739   1.785
66585W        W28039  15.136   2.740  13.971
66586W        W28040   8.658  27.683   3.863
66587W        W28041   1.857  40.379   0.845
66588W        W28042  39.486   1.364   3.736
66589W        W28043   4.270  17.093   1.822
66590W        W28044  18.683  40.996  11.580
66591W        W28045  37.516  11.708   1.213
66592W        W28046  28.627  21.021   4.331
66593W        W28047   2.409  35.565  14.807
66594W        W28048  44.264   4.302   1.899
66595W        W28049  41.310  29.166   2.732
66596W        W28050   9.360  13.812  10.573
66597W        W28051  18.572   4.851  11.047
66598W        W28052  32.595   5.367   2.708
66599W        W28053  32.558  33.407  11.418
66600W        W28054  21.096  29.040   2.299
66601W        W28055  18.775   7.170   3.220
66602W        W28056  37.498   8.852  11.032
66603W        W28057  37.959  27.115   3.659
66604W        W28058  35.927  26.049  13.998
66605W        W28059  36.991   3.327   9.981
66606W        W28060  18.602  43.864  14.296
66607W        W28061   0.889  16.120  10.999
66608W        W28062  38.463  22.122   4.329
66609W        W28063  17.724  31.062   4.322
66610W        W28064  26.683  30.569   3.814
66611W        W28065  16.151   3.255  10.930
66612W        W28066  12.284  30.011  10.949
66613W        W28067  38.872  26.562  14.029
66614W        W28068  11.362  27.639  14.410
66615W        W28069  39.818   0.857  14.404
66616W        W28070  38.358  41.952   4.666
66617W        W28071  24.545   9.270   3.379
66618W        W28072  18.576   6.848  13.371
66619W        W28073  42.003  17.161  14.357
66620W        W28074  17.092  17.568  11.456
66621W        W28075  22.626  27.081  11.498
66622W        W28076   0.430  20.763   2.293
66623W        W28077  14.112   8.901   1.380
66624W        W28078  20.707  23.062   1.313
66625W        W28079  34.064  30.004   2.233
66626W        W28080  29.632  42.982   0.265
66627W        W28081  18.074  39.861  10.603
66628W        W28082  26.593  30.924  12.082
66629W        W28083   0.355  43.858  13.912
66630W        W28084   6.690   8.362  12.855
66631W        W28085  35.543  20.536  14.811
66632W        W28086  28.055  14.241   0.953
66633W        W28087  41.369  18.292  10.501
66634W        W28088  19.682  12.121   0.429
66635W        W28089  23.995  21.093  12.404
66636W        W28090  28.621  14.766   2.408
66637W        W28091  24.547  12.125   3.257
66638W        W28092   7.737  40.383  14.963
66639W        W28093   7.696  11.761  11.990
66640W        W28094   1.778  29.022   4.725
66641W        W28095   9.788  25.067  14.328
66642W        W28096  25.653   6.793   1.331
66643W        W28097  25.048  38.007  12.973
66644W        W28098  42.452   3.748   3.325
66645W        W28099  18.705  11.137   4.760
66646W        W28100  21.703  17.236   3.183
66647W        W28101   3.363  24.688  11.858
66648W        W28102  17.651  23.130  11.596
66649W        W28103   2.910   5.913  13.826
66650W        W28104  31.076  40.887  11.604
66651W        W28105  42.022  27.169  12.560
66652W        W28106  38.571   2.882   1.872
66653W        W28107   3.799  11.631   3.168
66654W        W28108  21.141  19.660  10.990
66655W        W28109  37.932  41.458   2.740
66656W        W28110  22.503  14.197   0.735
66657W        W28111  42.942   1.949   4.122
66658W        W28112   0.894  19.599   5.173
66659W        W28113  33.508  24.698   0.913
66660W        W28114  16.783  39.355  13.844
66661W        W28115  17.081  22.068   1.246
66662W        W28116  42.333  19.594   4.284
66663W        W28117  32.570  39.988   1.757
66664W        W28118  35.858  30.006   4.777
66665W        W28119  10.236  21.060   0.284
66666W        W28120  30.657   2.810  14.316
66667W        W28121  32.981  23.526  14.966
66668W        W28122  24.577  28.168  12.876
66669W        W28123  13.268  24.496  10.551
66670W        W28124  27.565  40.468  13.818
66671W        W28125  41.371  16.094  11.999
66672W        W28126   6.313  34.047  12.410
66673W        W28127  10.799  11.230   1.867
66674W        W28128  28.568  36.573  11.069
66675W        W28129  20.761  17.795  13.355
66676W        W28130  21.089  44.919  10.427
66677W        W28131  38.503   3.279  14.336
66678W        W28132  41.309  19.743   1.806
66679W        W28133  19.683  18.207   3.822
66680W        W28134  18.705  30.571  14.987
66681W        W28135   7.196  32.986  10.139
66682W        W28136  35.469  24.035   3.726
66683W        W28137  13.602  38.044  10.124
66684W        W28138  14.630  19.079   3.836
66685W        W28139  20.094  19.138   2.369
66686W        W28140  20.087  23.527   4.122
66687W        W28141   0.785  13.642  14.422
66688W        W28142  16.726  27.171   0.453
66689W        W28143   4.916  15.089   2.240
66690W        W28144   0.899  31.609  11.542
66691W        W28145  16.163  36.043  10.564
66692W        W28146  40.506  16.727  13.509
66693W        W28147  29.008  37.045  11.024
66694W        W28148  28.048  11.373  10.148
66695W        W28149   7.213  18.167   2.810
66696W        W28150   7.217  42.354   3.847
66697W        W28151  31.961   4.874  12.096
66698W        W28152  25.967  18.293   1.255
66699W        W28153  25.633   1.751   1.782
66700W        W28154   4.829  23.120  11.973
66701W        W28155  38.916   9.861  11.072
66702W        W28156  18.671  19.666   1.215
66703W        W28157  17.233  21.718  10.434
66704W        W28158   1.777  19.694   0.927
66705W        W28159  20.605  18.294  11.079
66706W        W28160  22.154   6.226   3.756
66707W        W28161  22.630  25.563  14.382
66708W        W28162  33.994  11.733   3.161
66709W        W28163  43.923  32.907  13.309
66710W        W28164   1.266  15.324  11.532
66711W        W28165  36.566  32.397   0.404
66712W        W28166  44.777  19.135   4.259
66713W        W28167   0.363  28.442  14.446
66714W        W28168  20.204  31.516   3.858
66715W        W28169  32.106  12.166  11.973
66716W        W28170  27.145  31.038  10.944
66717W        W28171  26.653  27.158  11.464
66718W        W28172  44.856  15.129  12.073
66719W        W28173   7.729  28.103  11.408
66720W        W28174  44.357  40.457  12.519
66721W        W28175  23.555  37.087  12.029
66722W        W28176  40.916  18.248  12.360
66723W        W28177   3.367  35.597   1.805
66724W        W28178  14.227   8.280  12.536
66725W        W28179   7.818  36.590   1.747
66726W        W28180   1.860  35.077  13.833
66727W        W28181  30.556   7.821   0.285
66728W        W28182   2.425  28.073   4.739
66729W        W28183   6.305  39.825   3.869
66730W        W28184  17.082   5.816   0.932
66731W        W28185  44.866  24.561   3.698
66732W        W28186  21.263  13.707   1.247
66733W        W28187  18.619  36.455  13.362
66734W        W28188   7.823  11.246  12.429
66735W        W28189   8.877  35.966  12.442
66736W        W28190  38.451   9.669  11.441
66737W        W28191  36.085  24.624   3.632
66738W        W28192   2.894  44.371   0.370
66739W        W28193  40.842  28.968   1.852
66740W        W28194  25.052   3.916   0.809
66741W        W28195  29.569  26.472  13.453
66742W        W28196  20.546  32.534   3.813
66743W        W28197   6.825   7.189  12.036
66744W        W28198  26.177   4.854  12.857
66745W        W28199  13.749  17.076   1.717
66746W        W28200  12.853  44.847  13.459
66747W        W28201   1.408  24.226   2.283
66748W        W28202  27.037   3.456   0.736
66749W        W28203  18.277  44.469  12.088
66750W        W28204   1.808  27.034  10.414
66751W        W28205  19.133  32.117   4.814
66752W        W28206  34.921  35.010  12.449
66753W        W28207  29.497  36.482   4.832
66754W        W28208  32.908   1.970  14.302
66755W        W28209   9.169  25.489   1.739
66756W        W28210  22.579  12.843  14.845
66757W        W28211  26.529  19.631  10.574
66758W        W28212   9.734  29.475  14.958
66759W        W28213  32.924  41.449  10.631
66760W        W28214  10.369  35.455   1.438
66761W        W28215  44.370  40.031   1.325
66762W        W28216   9.877   7.242   0.860
66763W        W28217   2.262   1.910   0.748
66764W        W28218   0.300  15.643  12.403
66765W        W28219  43.516  21.679  13.818
66766W        W28220  43.299  12.767   3.681
66767W        W28221  29.136  21.617   1.407
66768W        W28222  38.862  23.696   3.711
66769W        W28223  35.548  22.248   1.902
66770W        W28224  26.686  42.434   0.404
66771W        W28225  28.444  20.092   4.144
66772W        W28226  35.862  19.187   0.752
66773W        W28227  13.826  23.138   1.814
66774W        W28228  21.534  41.796  12.439
66775W        W28229  44.289  21.066   0.371
66776W        W28230  18.633   2.451  12.030
66777W        W28231  13.690  10.848  13.888
66778W        W28232  21.172   1.400   3.215
66779W        W28233  11.191   8.766  12.973
66780W        W28234   0.874  43.362  14.761
66781W        W28235   9.220  40.312   1.232
66782W        W28236  27.037  44.501   2.801
66783W        W28237   1.477   5.355   0.765
66784W        W28238  18.650  15.725   0.384
66785W        W28239  19.039  33.080  13.454
66786W        W28240  26.511  21.162  11.576
66787W        W28241  15.769  13.183   0.835
66788W        W28242  37.404  25.203   1.227
66789W        W28243  13.224  26.521   2.798
66790W        W28244  19.590   9.676  12.414
66791W        W28245  27.690   6.709   0.728
66792W        W28246  13.725  43.393  13.474
66793W        W28247   0.883  20.749   2.392
66794W        W28248  20.075   4.266   4.747
66795W        W28249   3.948   4.712   1.713
66796W        W28250  30.583  36.063  11.039
66797W        W28251  11.677  20.060   3.683
66798W        W28252  23.512   6.392  11.118
66799W        W28253  32.637  14.296   1.429
66800W        W28254  31.593   2.910   1.330
66801W        W28255  18.575  14.621  13.422
66802W        W28256  15.742   1.849   3.870
66803W        W28257   4.935  30.509  12.543
66804W        W28258   7.794  17.784   1.417
66805W        W28259  28.045  33.964  14.291
66806W        W28260  36.435  22.705   4.801
66807W        W28261  15.766  29.963  13.910
66808W        W28262  42.971  12.839   3.739
66809W        W28263  10.357  26.159  13.418
66810W        W28264  42.866  13.139  13.897
66811W        W28265   5.866  27.499  12.883
66812W        W28266  32.126   9.679   3.741
66813W        W28267  15.116  38.038   4.289
66814W        W28268  35.452   4.744   4.160
66815W        W28269  26.067   3.323  14.335
66816W        W28270  18.164  43.448  12.521
66817W        W28271   8.193  26.153  11.990
66818W        W28272  22.668   1.887  10.137
66819W        W28273  24.055  41.333   3.751
66820W        W28274  40.411  40.841   4.598
66821W        W28275   3.898  27.175   4.158
66822W        W28276  20.541  18.074   2.866
66823W        W28277  44.963  41.873  13.390
66824W        W28278   3.911  36.999  13.339
66825W        W28279  24.714   6.352   4.741
66826W        W28280   0.286   4.344  14.500
66827W        W28281  33.492  25.135  12.066
66828W        W28282   4.385  16.104  13.922
66829W        W28283   1.785  18.264   1.818
66830W        W28284   4.699  23.593  13.332
66831W        W28285  37.411  15.219  11.870
66832W        W28286   8.220   4.866   2.677
66833W        W28287  24.150  30.572   0.769
66834W        W28288   3.298  22.230   1.882
66835W        W28289  32.928  29.639  11.489
66836W        W28290   9.201   5.284   4.152
66837W        W28291  32.126   4.254  13.952
66838W        W28292   8.684  32.490  11.383
66839W        W28293  32.111  28.149   2.777
66840W        W28294   0.978  16.203  11.957
66841W        W28295  29.659  44.268  14.328
66842W        W28296   6.681  17.198   2.800
66843W        W28297  21.693  36.582  11.596
66844W        W28298  17.127  28.529   3.749
66845W        W28299  42.778   4.423   0.821
66846W        W28300  23.012  44.907  13.532
66847W        W28301  23.120  37.064  11.542
66848W        W28302  18.710  40.836   2.334
66849W        W28303  32.978  35.421   0.798
66850W        W28304  43.389  31.000  14.505
66851W        W28305  37.966  41.299   5.280
66852W        W28306  14.140  38.969  12.072
66853W        W28307  36.859  35.509   4.346
66854W        W28308  25.490  33.044   1.712
66855W        W28309  13.274  10.735   1.380
66856W        W28310  35.974  40.307   3.166
66857W        W28311  26.998  43.831   4.306
66858W        W28312  23.647   9.787   1.859
66859W        W28313  16.620   9.378  14.000
66860W        W28314  36.592  28.485   2.870
66861W        W28315   5.354   1.341   1.411
66862W        W28316  43.312  17.097   2.193
66863W        W28317   2.436  36.004   3.798
66864W        W28318  22.055  37.950   4.244
66865W        W28319   9.176   7.383   0.348
66866W        W28320  27.045  39.977   3.212
66867W        W28321  21.116  44.326  14.294
66868W        W28322  28.018  11.751   1.327
66869W        W28323   1.436  41.412  11.561
66870W        W28324  10.773  27.132  10.527
66871W        W28325  31.543  36.092  11.391
66872W        W28326   2.232  13.640  13.511
66873W        W28327  21.214  20.613  14.354
66874W        W28328  26.657   1.822  11.535
66875W        W28329  11.759   2.772   4.177
66876W        W28330  32.979  22.575  12.870
66877W        W28331  19.146  42.975  11.532
66878W        W28332  22.077  33.414  12.002
66879W        W28333  21.127  42.909   5.199
66880W        W28334  36.078  42.499  12.906
66881W        W28335  39.877  25.669  11.519
66882W        W28336   3.253  37.067   1.779
66883W        W28337  25.609  15.772  10.534
66884W        W28338  40.397  32.951   1.388
66885W        W28339   6.366   3.293   3.215
66886W        W28340  21.157  25.534  14.444
66887W        W28341   9.205  37.943   3.308
66888W        W28342  43.794   0.265   0.960
66889W        W28343   9.760  42.015   0.956
66890W        W28344  24.706  36.414   2.381
66891W        W28345  25.634  26.182   2.364
66892W        W28346  21.531  27.457  13.891
66893W        W28347   8.683   8.871  10.006
66894W        W28348  29.954   7.333   0.788
66895W        W28349  18.788  19.168  10.565
66896W        W28350  21.545   1.271   3.819
66897W        W28351  10.346  28.052  13.959
66898W        W28352   1.902   4.244   0.928
66899W        W28353  39.063  11.302   1.837
66900W        W28354  20.649  36.484  10.976
66901W        W28355   0.963  37.361  13.827
66902W        W28356  44.853  17.662   4.812
66903W        W28357  41.453  44.893  11.443
66904W        W28358   7.258  35.592   3.756
66905W        W28359  14.679  27.099  12.486
66906W        W28360  23.499   7.809  12.897
66907W        W28361  38.998  26.459  13.002
66908W        W28362   1.788  19.231  11.397
66909W        W28363  22.525   3.368  13.956
66910W        W28364   2.899  16.713   4.621
66911W        W28365  17.619   4.256  14.448
66912W        W28366  18.070  18.120  12.067
66913W        W28367  39.373   4.422   3.870
66914W        W28368  31.017  19.248   3.356
66915W        W28369   3.954  13.240   0.447
66916W        W28370  11.852   3.378  10.020
66917W        W28371   4.438  40.452   0.797
66918W        W28372   6.266   6.851  11.110
66919W        W28373  18.574  32.408  13.462
66920W        W28374  39.499   9.303  13.021
66921W        W28375   1.931  35.489  10.592
66922W        W28376  33.600  35.856  11.026
66923W        W28377  34.084  44.909   2.293
66924W        W28378  42.003  28.509   2.684
66925W        W28379   5.407   3.859   0.254
66926W        W28380  30.430  34.547  14.772
66927W        W28381  29.449   9.869  10.930
66928W        W28382  28.534  38.072  11.580
66929W        W28383  14.763  22.540   1.324
66930W        W28384  22.547  35.416  13.027
66931W        W28385  28.971   2.795  13.916
66932W        W28386  18.556  23.211  14.336
66933W        W28387   0.476  30.569   0.252
66934W        W28388  37.462  26.058  14.303
66935W        W28389  30.043   7.851   0.905
66936W        W28390  21.156   8.344  13.516
66937W        W28391   8.335  13.600  12.448
66938W        W28392  30.991  35.968   0.795
66939W        W28393  44.798   3.838  11.995
66940W        W28394  30.434  42.952   1.427
66941W        W28395  32.103   6.783   3.165
66942W        W28396  23.210  32.086  13.025
66943W        W28397  11.227  21.519   4.297
66944W        W28398  30.565  22.543  12.366
66945W        W28399  37.438  19.135  13.445
66946W        W28400  12.362  28.565   4.286
66947W        W28401  13.143  40.348  13.996
66948W        W28402  41.807  13.770   0.804
66949W        W28403  31.430  17.695   2.300
66950W        W28404  17.127  31.045  11.955
66951W        W28405  44.425  26.496  13.021
66952W        W28406   6.399  23.015   4.340
66953W        W28407  28.548  43.281  12.380
66954W        W28408  31.112  31.946   2.224
66955W        W28409  39.381  43.803   4.803
66956W        W28410   0.486  35.972   3.265
66957W        W28411  27.999   2.765  12.543
66958W        W28412  17.252  28.441  10.486
66959W        W28413  39.053  30.471  12.938
66960W        W28414   3.312   2.228   2.327
66961W        W28415   0.836  17.287  12.523
66962W        W28416  35.972  15.580   0.866
66963W        W28417  23.097   1.815   4.180
66964W        W28418  28.657  18.714   4.182
66965W        W28419  14.593  37.981   2.878
66966W        W28420  12.848  34.494   4.727
66967W        W28421  28.467  25.539   2.346
66968W        W28422   6.318  34.111   3.708
66969W        W28423  17.733  37.406  14.288
66970W        W28424  37.447  32.097   5.132
66971W        W28425  24.649  23.563  11.029
66972W        W28426   8.317  27.684   2.784
66973W        W28427  11.754  44.958  10.417
66974W        W28428  11.260  35.982  11.070
66975W        W28429  16.151  20.176   4.122
66976W        W28430  23.076  26.055  13.800
66977W        W28431  33.945  27.460  11.118
66978W        W28432  32.093  23.030  12.369
66979W        W28433  19.089  28.121   0.833
66980W        W28434  29.523   9.737  12.523
66981W        W28435  24.097  12.780  13.063
66982W        W28436  38.024  43.991   1.396
66983W        W28437  12.762  35.914  10.586
66984W        W28438  22.138   2.848   2.192
66985W        W28439  32.589  15.263  14.930
66986W        W28440  42.848  34.614   4.199
66987W        W28441  21.072  44.290   4.183
66988W        W28442  37.852   4.388   0.954
66989W        W28443   3.759  32.906  13.832
66990W        W28444  44.876  39.557   4.726
66991W        W28445  11.267  36.969   4.331
66992W        W28446  34.042  26.567   0.460
66993W        W28447  21.747  38.391   1.716
66994W        W28448  10.243   8.700  12.484
66995W        W28449  27.022  38.013  11.977
66996W        W28450  38.497  23.113  13.971
66997W        W28451  35.402   1.901   0.895
66998W        W28452  30.452  22.024  13.309
66999W        W28453  39.429  42.885  12.913
67000W        W28454  22.996   9.829   1.409
67001W        W28455  41.014   4.866  13.028
67002W        W28456  38.843  10.695   0.922
67003W        W28457   0.434   5.347   0.859
67004W        W28458  10.694  25.678  12.386
67005W        W28459  28.035  25.012   0.865
67006W        W28460  20.062  39.023   4.694
67007W        W28461  18.134  15.177   0.899
67008W        W28462  36.405  41.464   4.807
67009W        W28463  39.913  16.723  12.535
67010W        W28464  31.017  23.552   0.748
67011W        W28465  18.251  33.106   0.357
67012W        W28466  16.211  34.384  13.995
67013W        W28467  31.116  24.530  10.543
67014W        W28468  44.341   9.217   2.351
67015W        W28469  14.247   5.240   0.850
67016W        W28470  31.120   2.344   4.349
67017W        W28471  19.121  24.198  13.803
67018W        W28472   7.684  43.482   0.792
67019W        W28473   8.878  28.951   0.301
67020W        W28474  44.369  23.996   3.166
67021W        W28475  31.038  21.181   2.719
67022W        W28476  42.510  31.634  13.829
67023W        W28477  27.633  36.843   4.786
67024W        W28478  26.170   9.883  11.029
67025W        W28479   1.910   2.945   4.599
67026W        W28480  31.572  36.964  11.082
67027W        W28481  25.533   2.346  14.482
67028W        W28482  25.486  37.532  10.577
67029W        W28483  43.785  13.149   1.813
67030W        W28484  21.711  25.625   1.333
67031W        W28485   2.281  26.987  11.457
67032W        W28486  37.449  16.156   2.727
67033W        W28487  23.715  23.596   4.723
67034W        W28488  37.393  32.960  11.503
67035W        W28489  11.135  28.182  12.440
67036W        W28490  37.897  42.283  13.491
67037W        W28491  31.943  42.331   0.743
67038W        W28492  15.314   9.242   1.794
67039W        W28493  36.062  37.468   0.482
67040W        W28494  13.348  34.016  11.883
67041W        W28495  35.941  13.123  13.395
67042W        W28496  39.001  28.122   1.742
67043W        W28497  36.378  35.885  12.536
67044W        W28498  18.104  23.040   0.264
67045W        W28499  19.533  21.200   5.245
67046W        W28500  21.183  12.725   4.195
67047W        W28501  28.443   9.857   3.278
67048W        W28502  32.446  33.041   4.283
67049W        W28503  30.980  20.645   0.880
67050W        W28504   3.449  15.307  11.526
67051W        W28505  43.907  21.224  10.427
67052W        W28506  42.353  32.581   3.736
67053W        W28507  17.747   7.889  10.445
67054W        W28508   2.267  33.889  12.039
67055W        W28509  39.369  20.601   1.217
67056W        W28510  43.766  16.202  12.093
67057W        W28511  18.225  25.686   4.207
67058W        W28512  21.537  25.033  13.900
67059W        W28513  41.932  30.520   5.238
67060W        W28514  34.396  11.221   1.379
67061W        W28515  31.578  41.343  12.562
67062W        W28516  27.990   2.789   3.363
67063W        W28517   2.464  42.300  13.029
67064W        W28518  11.674  22.637   0.342
67065W        W28519  29.534   7.315  12.875
67066W        W28520  41.838  10.201  12.893
67067W        W28521  21.170  10.697  11.938
67068W        W28522  23.014  17.601   1.419
67069W        W28523  24.501  14.283   5.100
67070W        W28524  32.599  11.821  12.465
67071W        W28525  16.615  20.582   3.157
67072W        W28526  26.952  39.494  12.052
67073W        W28527  22.579  44.996  12.012
67074W        W28528   2.804  20.033   0.774
67075W        W28529  44.447  30.527   0.450
67076W        W28530   4.229  28.042  12.473
67077W        W28531  16.211   0.431   2.870
67078W        W28532   6.321  13.323   4.737
67079W        W28533  39.516  35.405   3.696
67080W        W28534   2.416   1.252   2.334
67081W        W28535   1.350  22.029  14.442
67082W        W28536  21.039   9.276  12.460
67083W        W28537  40.812  34.453  11.109
67084W        W28538  14.751  13.263   5.162
67085W        W28539  36.994  44.877   2.781
67086W        W28540  34.414   4.772  13.448
67087W        W28541   6.296   9.780  11.491
67088W        W28542  38.879  15.729   5.181
67089W        W28543  43.980  16.730   4.265
67090W        W28544  34.403  21.682  14.330
67091W        W28545  34.940   0.846   1.402
67092W        W28546  32.994  32.581  12.870
67093W        W28547  21.157  31.402   2.891
67094W        W28548  29.426   7.355  14.337
67095W        W28549   6.922  24.991  10.478
67096W        W28550  38.059   0.872  11.476
67097W        W28551  27.111  35.571   4.157
67098W        W28552  15.629  10.782   5.161
67099W        W28553  19.614  20.703  12.550
67100W        W28554  40.424  22.563   0.479
67101W        W28555   2.352   9.351   3.270
67102W        W28556   2.762  13.602  14.787
67103W        W28557  41.506  16.750   0.251
67104W        W28558   7.322   7.784  11.948
67105W        W28559  31.535  24.144   4.621
67106W        W28560   5.863   9.207  12.468
67107W        W28561  41.857   8.702  12.044
67108W        W28562  32.135   6.717   4.702
67109W        W28563   7.805  25.079   0.957
67110W        W28564   2.906  32.910  11.402
67111W        W28565   4.342  40.425  12.374
67112W        W28566  20.647  11.714   2.227
67113W        W28567  26.200  44.495   4.664
67114W        W28568  40.843  11.313  13.884
67115W        W28569  12.158   7.850  12.864
67116W        W28570  41.424  42.971  12.888
67117W        W28571  34.919  37.407   3.788
67118W        W28572  18.082   8.366  14.863
67119W        W28573  17.638  32.634  13.531
67120W        W28574  16.678   5.914   2.671
67121W        W28575  21.533  17.198  10.947
67122W        W28576   5.880   0.867   4.820
67123W        W28577  28.457  12.306   0.870
67124W        W28578   4.928   3.924  11.600
67125W        W28579  11.373   3.444  14.812
67126W        W28580  44.925  31.405   0.304
67127W        W28581  25.671   3.890  11.493
67128W        W28582  27.470  28.519   1.232
67129W        W28583   7.402  17.640   2.248
67130W        W28584  38.451   3.826   2.866
67131W        W28585  32.897   9.184  13.808
67132W        W28586  39.025   9.217  11.874
67133W        W28587   5.843   9.175  10.928
67134W        W28588  31.962   5.395  13.905
67135W        W28589  12.269   6.277   4.677
67136W        W28590  13.178   9.665   4.612
67137W        W28591  44.817  35.913   0.424
67138W        W28592   2.908  17.555  12.569
67139W        W28593  43.974  23.096   2.248
67140W        W28594   6.254   6.186   3.691
67141W        W28595  17.758  16.121   2.269
67142W        W28596   0.976  25.634  11.084
67143W        W28597   1.940  36.921   0.429
67144W        W28598  36.938  44.305  12.512
67145W        W28599  12.338  32.993   0.908
67146W        W28600  17.653  12.741   2.675
67147W        W28601  20.638  12.717  10.924
67148W        W28602  27.591   2.888  13.064
67149W        W28603  13.641  27.143  10.479
67150W        W28604  24.031  31.479   0.730
67151W        W28605  31.478  25.539   2.278
67152W        W28606  12.632  31.490  10.465
67153W        W28607  32.077   7.200  13.464
67154W        W28608  12.129  23.627   4.307
67155W        W28609  35.854  39.329   4.638
67156W        W28610  20.116  35.514  14.025
67157W        W28611  37.361   5.437   2.295
67158W        W28612  43.982  35.361   1.737
67159W        W28613  11.852  33.498  14.759
67160W        W28614  43.875  27.625  10.964
67161W        W28615  14.120  25.518  14.995
67162W        W28616  30.030  33.914   5.088
67163W        W28617  20.523   1.878  11.401
67164W        W28618  22.094  40.852   2.358
67165W        W28619   5.232  15.296   2.310
67166W        W28620  16.230  18.779  12.509
67167W        W28621  11.804  22.740   4.160
67168W        W28622  28.681  16.570   3.672
67169W        W28623  19.757  20.178   3.865
67170W        W28624  39.015  24.689  10.907
67171W        W28625   1.407   4.411   2.319
67172W        W28626  19.630  11.651   2.372
67173W        W28627  16.266  32.061  10.586
67174W        W28628   7.705  43.343  11.044
67175W        W28629  37.487  20.542   2.843
67176W        W28630  34.959  29.097   0.803
67177W        W28631   2.308  20.265  12.048
67178W        W28632  17.072  33.916  13.961
67179W        W28633   3.424  27.943  10.930
67180W        W28634  20.620   0.402   3.371
67181W        W28635   4.251  41.367  14.761
67182W        W28636  31.519  42.925   4.808
67183W        W28637  28.578  39.949   2.266
67184W        W28638  31.628  39.044   1.737
67185W        W28639  19.739  27.080  13.811
67186W        W28640   2.448  36.995  12.552
67187W        W28641  36.414   8.165  14.464
67188W        W28642   1.820   1.762  14.907
67189W        W28643   8.801   3.337  11.382
67190W        W28644  10.381   3.334   1.404
67191W        W28645  29.539  11.856  11.894
67192W        W28646  38.440  30.124  13.340
67193W        W28647  21.706   0.257   1.387
67194W        W28648  12.120  35.924  11.453
67195W        W28649   2.307  35.024  10.530
67196W        W28650   3.397  30.483  14.321
67197W        W28651  16.643   5.378   2.868
67198W        W28652  23.662  36.372  13.926
67199W        W28653  24.095  29.029  13.951
67200W        W28654  13.285  15.197  12.506
67201W        W28655   9.719  18.782  11.955
67202W        W28656  20.653  44.270  12.011
67203W        W28657  33.121  14.588   9.928
67204W        W28658  39.905  12.125  11.036
67205W        W28659  34.929  42.032  12.869
67206W        W28660  30.949  33.938  10.419
67207W        W28661  43.871   9.748   1.858
67208W        W28662  16.645  28.587  11.402
67209W        W28663  34.060  29.019  14.885
67210W        W28664  26.664   6.340   1.833
67211W        W28665  20.590  38.551   2.345
67212W        W28666  19.253  28.082   2.280
67213W        W28667   3.753  18.635   1.378
67214W        W28668  44.457  36.050  12.469
67215W        W28669   4.763  38.407  14.907
67216W        W28670  18.235   4.296  11.901
67217W        W28671  38.530  35.589  13.459
67218W        W28672  25.645  35.373  11.002
67219W        W28673   3.797  32.112  12.023
67220W        W28674   8.876  33.495   1.909
67221W        W28675  33.617  15.226  13.518
67222W        W28676   2.457  20.037  14.985
67223W        W28677  42.456  12.680  14.818
67224W        W28678  44.494   9.669  11.440
67225W        W28679  27.037  29.458  13.001
67226W        W28680   7.714   3.927  14.793
67227W        W28681  19.747  27.492   1.375
67228W        W28682  10.859  22.083  12.420
67229W        W28683  15.201   8.677   3.165
67230W        W28684  33.116  41.433  13.909
67231W        W28685  20.067  34.609   4.610
67232W        W28686   4.786  29.607  10.520
67233W        W28687  12.206   4.809   3.789
67234W        W28688   0.870  30.635   4.147
67235W        W28689  26.966  29.670   4.335
67236W        W28690   1.337  42.289   1.748
67237W        W28691  25.632   6.777   2.749
67238W        W28692  23.984  37.076  11.084
67239W        W28693  13.277  39.843  13.391
67240W        W28694  16.184  32.887   0.352
67241W        W28695  34.389  34.511  11.494
67242W        W28696  25.000  19.128  12.862
67243W        W28697  16.128  42.373   0.849
67244W        W28698  20.216   7.733  12.019
67245W        W28699  30.145  42.490   0.420
67246W        W28700  22.082  41.899  12.391
67247W        W28701   9.861  21.578  13.867
67248W        W28702  13.706  38.388   2.888
67249W        W28703  20.685  30.616   4.654
67250W        W28704  39.529  39.531  12.068
67251W        W28705  28.944  23.580   3.293
67252W        W28706  12.212  33.912   0.862
67253W        W28707   2.903  35.424  11.406
67254W        W28708  26.048  40.051   3.352
67255W        W28709  32.117  12.854  11.403
67256W        W28710  35.040  37.003   2.801
67257W        W28711  38.824  22.091  13.512
67258W        W28712   8.216  43.449  11.067
67259W        W28713   6.825   1.391   2.870
67260W        W28714  15.304  19.561   2.787
67261W        W28715  33.967  11.628  12.005
67262W        W28716  30.632  40.009  10.588
67263W        W28717  37.973  11.810  11.479
67264W        W28718  25.469  19.647  11.881
67265W        W28719  30.028  18.200  12.348
67266W        W28720  12.852  37.021  12.431
67267W        W28721   4.258  16.742   1.449
67268W        W28722  12.705   4.707  14.855
67269W        W28723  25.197  22.086   2.414
67270W        W28724  16.653  25.994   0.285
67271W        W28725  15.675  11.749  12.931
67272W        W28726  22.154  38.014  13.829
67273W        W28727  24.630  43.003   4.301
67274W        W28728  34.439   6.915  10.931
67275W        W28729  20.099  14.172  11.968
67276W        W28730  13.802  11.224  11.968
67277W        W28731   8.824  27.448  10.405
67278W        W28732  31.920   2.806   2.731
67279W        W28733  42.845   4.362  12.457
67280W        W28734  13.249  13.651   4.671
67281W        W28735  44.817   5.719  14.902
67282W        W28736  10.338  36.096  10.157
67283W        W28737  18.183  36.372   0.841
67284W        W28738  19.124  42.381  10.630
67285W        W28739  17.241  21.232  10.480
67286W        W28740  19.059  23.129  14.277
67287W        W28741  44.328  29.619  10.523
67288W        W28742  20.030  14.674  11.875
67289W        W28743  14.259  18.116  12.022
67290W        W28744  16.093  43.483   4.617
67291W        W28745  20.626  44.466   3.373
67292W        W28746  29.043  39.560   2.727
67293W        W28747  14.164  19.249  14.443
67294W        W28748  14.166  16.634  10.024
67295W        W28749  24.519   2.471   4.257
67296W        W28750  27.181  27.039  12.015
67297W        W28751  24.186  13.322  10.586
67298W        W28752  26.178  18.084  14.795
67299W        W28753  43.857  23.644  13.864
67300W        W28754   7.196  20.198  10.988
67301W        W28755  13.147  33.557   0.355
67302W        W28756  14.603  30.925   2.862
67303W        W28757  44.359  38.565   2.760
67304W        W28758  12.128  27.038   2.180
67305W        W28759  43.983  33.057  13.937
67306W        W28760  39.334  25.126   1.427
67307W        W28761  40.418  30.129   2.837
67308W        W28762  26.592  22.526   2.343
67309W        W28763  34.890  19.209  11.001
67310W        W28764   4.704  17.280  13.355
67311W        W28765  11.782   6.906  14.764
67312W        W28766  19.765  40.030   1.246
67313W        W28767  36.978  30.992   4.209
67314W        W28768  13.758  15.607   2.764
67315W        W28769   8.266   4.744  13.414
67316W        W28770  31.630  24.644  10.890
67317W        W28771  33.563  33.549  11.455
67318W        W28772  15.185  25.987   2.880
67319W        W28773   6.866   3.233  13.402
67320W        W28774   6.306  16.084  10.919
67321W        W28775   1.368  42.818  14.280
67322W        W28776  21.088  30.467  11.115
67323W        W28777  37.443  17.135   1.378
67324W        W28778   8.253  27.528   3.723
67325W        W28779  16.637   0.896   2.698
67326W        W28780   7.847  23.652  12.528
67327W        W28781  22.023  21.619   0.280
67328W        W28782  35.046  31.923   5.255
67329W        W28783  38.342  12.751   3.226
67330W        W28784   6.193   7.702   2.741
67331W        W28785  41.377  24.042  14.358
67332W        W28786  44.970   2.822  12.998
67333W        W28787  38.434  37.573  13.476
67334W        W28788  34.036   9.876  14.984
67335W        W28789  19.248  35.436   2.304
67336W        W28790   1.274  31.627   2.874
67337W        W28791  16.658  16.181  13.824
67338W        W28792  18.180   9.357  13.401
67339W        W28793   2.414  12.728   1.435
67340W        W28794   3.267  38.042   2.879
67341W        W28795  39.391  29.538   1.378
67342W        W28796   3.742  19.651   3.299
67343W        W28797  11.214  34.090  12.926
67344W        W28798  12.835  13.724  12.909
67345W        W28799  42.356  28.506  13.884
67346W        W28800   1.780  43.902  10.595
67347W        W28801  16.207  38.522  11.885
67348W        W28802  34.048  34.537  13.428
67349W        W28803  18.095  29.136   2.706
67350W        W28804  11.272  21.170  10.557
67351W        W28805  26.544  12.719  10.568
67352W        W28806  38.882  12.178  13.855
67353W        W28807  17.107  37.839   2.267
67354W        W28808  43.770  32.035   1.427
67355W        W28809  22.642  20.141   1.732
67356W        W28810  36.541  31.903   3.173
67357W        W28811  43.274   0.946  11.954
67358W        W28812   5.272  37.883   4.157
67359W        W28813  39.371   6.232  12.958
67360W        W28814  32.059  30.473  10.044
67361W        W28815  35.048  39.480  11.582
67362W        W28816  41.818  24.539  12.072
67363W        W28817  23.692  20.251  11.384
67364W        W28818  39.902   7.750   1.324
67365W        W28819  39.424  28.058   3.316
67366W        W28820  33.426  41.988   1.880
67367W        W28821  43.376   6.842   3.673
67368W        W28822  17.697  33.113   0.881
67369W        W28823   4.303  36.993  14.980
67370W        W28824  23.710  40.304   2.727
67371W        W28825  13.106  10.182  10.155
67372W        W28826  12.687   0.765   0.767
67373W        W28827  14.260   6.266   4.349
67374W        W28828  15.669  18.578  10.930
67375W        W28829  13.161  23.231  10.556
67376W        W28830  19.663   1.359  13.462
67377W        W28831  43.816  22.620   3.630
67378W        W28832  41.806  29.062   0.353
67379W        W28833  13.169   3.867  11.515
67380W        W28834  43.924  11.232   0.799
67381W        W28835   3.400   6.408  11.097
67382W        W28836  38.881  25.046  14.842
67383W        W28837  22.097  17.660  13.006
67384W        W28838  35.901   3.452  14.031
67385W        W28839  34.915   4.214   4.602
67386W        W28840   9.674   3.358   0.360
67387W        W28841  36.081  42.013  14.959
67388W        W28842  17.086   8.215   4.297
67389W        W28843  29.170  13.766  12.865
67390W        W28844  28.569  29.658   4.241
67391W        W28845  33.010  13.247   0.309
67392W        W28846  13.704  14.748  13.025
67393W        W28847  34.438   8.205   3.361
67394W        W28848   0.285  17.642  13.508
67395W        W28849  41.818   0.398  12.902
67396W        W28850  20.734  29.055  11.537
67397W        W28851  24.607  11.807   4.815
67398W        W28852  29.020  26.612  11.900
67399W        W28853  12.270  29.638   1.371
67400W        W28854  24.699   2.747  12.344
67401W        W28855  22.532  18.145   1.878
67402W        W28856  19.184  34.083   0.284
67403W        W28857  18.706  36.065  11.097
67404W        W28858   6.212   8.756   2.876
67405W        W28859   4.339  25.158  13.476
67406W        W28860  33.484  18.718  11.901
67407W        W28861  20.235  27.558   2.679
67408W        W28862  35.598  29.071   0.319
67409W        W28863   5.397  25.053   1.797
67410W        W28864   3.901  34.426  14.343
67411W        W28865  28.960  10.346   4.162
67412W        W28866  19.603  37.918   0.848
67413W        W28867  44.295   2.837   0.959
67414W        W28868   4.715  15.228   0.932
67415W        W28869   2.433  31.021  14.875
67416W        W28870  31.426  14.241   4.659
67417W        W28871   3.312  43.880   1.706
67418W        W28872   1.322   2.288   2.766
67419W        W28873  36.054  34.033  10.443
67420W        W28874  14.264  14.233   3.317
67421W        W28875   0.924  18.146  14.980
67422W        W28876  22.624   9.694  10.525
67423W        W28877  39.929  31.958   2.206
67424W        W28878  35.050  11.263  14.969
67425W        W28879   4.770  29.511   4.823
67426W        W28880  35.993   3.878  13.002
67427W        W28881  15.799  30.585  13.875
67428W        W28882  16.175  41.894   3.753
67429W        W28883  29.431  25.562  12.036
67430W        W28884  20.239   1.315   4.635
67431W        W28885   0.874   6.427  13.440
67432W        W28886  24.619  11.233  13.489
67433W        W28887  44.779  43.926   2.745
67434W        W28888   0.887  36.950  10.972
67435W        W28889  36.406  26.464  12.999
67436W        W28890  18.743  41.498   4.208
67437W        W28891  29.560   2.337   2.187
67438W        W28892  42.988  17.102  11.873
67439W        W28893  16.124  40.474  12.060
67440W        W28894  25.143  17.264   3.383
67441W        W28895  22.995  15.266  14.355
67442W        W28896  24.535  37.396   0.726
67443W        W28897  11.284  14.198   1.905
67444W        W28898  44.901   0.372   1.931
67445W        W28899  35.488   8.832   4.131
67446W        W28900  41.816  32.459   0.340
67447W        W28901  19.688  40.807   3.803
67448W        W28902  26.178  29.475   1.325
67449W        W28903  11.865  23.575  12.978
67450W        W28904  31.629  23.058   2.826
67451W        W28905   5.878  18.140   1.875
67452W        W28906  39.491  44.926   1.923
67453W        W28907   3.223  12.284  14.892
67454W        W28908  38.897  17.642   2.257
67455W        W28909  18.616  44.998   1.775
67456W        W28910   2.445  16.242  11.873
67457W        W28911  32.006  32.064   4.716
67458W        W28912  40.468  42.932  11.041
67459W        W28913  34.372  12.191  11.049
67460W        W28914  24.976  31.134   3.796
67461W        W28915  23.131  24.496  11.485
67462W        W28916  34.473  30.519  11.903
67463W        W28917  18.634  32.076  11.539
67464W        W28918  33.004  31.051  14.811
67465W        W28919  23.128  17.162  14.961
67466W        W28920  23.101  11.239  13.848
67467W        W28921  17.121   9.750  13.406
67468W        W28922  27.451  21.035  14.288
67469W        W28923  29.555   3.939  13.430
67470W        W28924  17.094  44.437  14.918
67471W        W28925  42.390  13.326  14.311
67472W        W28926  36.541  21.599  11.492
67473W        W28927  41.904  16.697   4.193
67474W        W28928   7.180   7.253  13.004
67475W        W28929  11.371  40.401   0.870
67476W        W28930  26.492  25.495  12.907
67477W        W28931   8.390  11.269   4.615
67478W        W28932  14.712  27.094  14.391
67479W        W28933  23.049   2.313  13.875
67480W        W28934   1.942  13.787  11.416
67481W        W28935  41.898  37.341   2.810
67482W        W28936   2.930  33.064   4.650
67483W        W28937   1.787  13.105   1.304
67484W        W28938  43.798   0.836   2.359
67485W        W28939  18.126   1.754  11.945
67486W        W28940   9.283  34.932   1.891
67487W        W28941  10.209  13.601   2.867
67488W        W28942  32.593   4.303   4.817
67489W        W28943  22.173  43.945  11.528
67490W        W28944  39.891  35.576  10.543
67491W        W28945  41.988  25.572  13.968
67492W        W28946  40.838  13.716  11.996
67493W        W28947  10.742  22.720   1.331
67494W        W28948  19.557  39.060   1.336
67495W        W28949  20.200  15.648  14.516
67496W        W28950  14.621  18.601   9.647
67497W        W28951  43.898  10.274   3.796
67498W        W28952  14.687  33.082  12.497
67499W        W28953  38.381  29.445   3.222
67500W        W28954  22.683  44.271   2.887
67501W        W28955  17.682   8.745  10.989
67502W        W28956  30.151  24.156   3.152
67503W        W28957  37.043  12.610  12.914
67504W        W28958  10.261  25.148  14.791
67505W        W28959   6.762  28.116  12.938
67506W        W28960  10.799  32.614   3.354
67507W        W28961  32.450  37.916   0.804
67508W        W28962  31.128  22.610   4.795
67509W        W28963   4.268  34.947   0.910
67510W        W28964  31.484  27.186  10.964
67511W        W28965  36.942  24.538   1.734
67512W        W28966  36.861  23.533  11.970
67513W        W28967  38.494  12.733  12.557
67514W        W28968   1.360  20.242  13.051
67515W        W28969  31.930   0.271   4.330
67516W        W28970  38.546  41.037   4.613
67517W        W28971  16.741  39.511   4.616
67518W        W28972  35.871   3.298  11.948
67519W        W28973  20.584  32.481   4.288
67520W        W28974   9.185  40.534  12.550
67521W        W28975   6.799  14.147  14.990
67522W        W28976   8.277  29.978   0.803
67523W        W28977  32.605  30.969  10.894
67524W        W28978  35.395   1.907  11.405
67525W        W28979  27.056  30.924  14.830
67526W        W28980  12.218  34.418   1.216
67527W        W28981   6.793  21.046  12.047
67528W        W28982  42.346  16.171  14.467
67529W        W28983   4.785  17.289   1.211
67530W        W28984  20.571  16.614   4.754
67531W        W28985   0.397  36.352   1.443
67532W        W28986  22.516  29.652   1.267
67533W        W28987  34.975  17.127  14.967
67534W        W28988  43.423  35.398   3.672
67535W        W28989  37.382  23.235   2.264
67536W        W28990   8.694  11.691  12.996
67537W        W28991  23.008  33.576  11.095
67538W        W28992  20.764  25.652   3.792
67539W        W28993  18.223  32.897   2.671
67540W        W28994  38.919   6.318  14.828
67541W        W28995   5.259  26.654   1.279
67542W        W28996  25.025   5.819   9.462
67543W        W28997  26.976  21.721   2.712
67544W        W28998  16.622  26.056   3.205
67545W        W28999  29.450  36.569   2.302
67546W        W29000  22.189  40.333  14.438
67547W        W29001  12.725  17.062   0.412
67548W        W29002  34.525  39.046   2.336
67549W        W29003  11.662  21.140   5.311
67550W        W29004  23.097  44.434   1.698
67551W        W29005  34.551  19.158   2.675
67552W        W29006  25.698  11.733  10.888
67553W        W29007   6.875   9.180   0.326
67554W        W29008  39.408  26.568   3.818
67555W        W29009  28.439  42.011   3.285
67556W        W29010  29.501  27.582   3.371
67557W        W29011  27.565  23.619  14.370
67558W        W29012  25.043  31.563  10.521
67559W        W29013  12.275  29.136  11.060
67560W        W29014  21.594  19.080   2.897
67561W        W29015   2.358  25.203  13.512
67562W        W29016  44.860  32.103  12.568
67563W        W29017  42.457  43.841  12.831
67564W        W29018  32.026  35.071   0.364
67565W        W29019  30.429  44.408  12.947
67566W        W29020  20.706  20.756   3.705
67567W        W29021  36.094  19.719  13.049
67568W        W29022   5.408  33.115  11.486
67569W        W29023   3.773  25.074  13.835
67570W        W29024  10.375  30.536  14.768
67571W        W29025   7.343  11.132   1.834
67572W        W29026   4.434  42.923   4.688
67573W        W29027   1.762   6.793   1.393
67574W        W29028  12.235  24.715   3.353
67575W        W29029   6.309  36.088   4.800
67576W        W29030   7.909  44.828   1.267
67577W        W29031  39.946  11.701   3.187
67578W        W29032   8.695  17.557  12.991
67579W        W29033   9.330   5.797   2.834
67580W        W29034  24.977  41.955   4.119
67581W        W29035   1.270  26.952  10.578
67582W        W29036   7.351   7.792   1.382
67583W        W29037   9.774  37.902  11.549
67584W        W29038  42.299  29.531  11.031
67585W        W29039  36.415   2.807   0.325
67586W        W29040  35.393  17.156   0.459
67587W        W29041  28.665  44.394   2.723
67588W        W29042   5.414   0.928   3.245
67589W        W29043  22.522   1.273   3.666
67590W        W29044   1.731  36.077   0.475
67591W        W29045  34.572  36.078   4.156
67592W        W29046  17.687   3.362  11.491
67593W        W29047  24.147  33.430   2.786
67594W        W29048  31.645  27.622   4.218
67595W        W29049  29.540  28.629  11.595
67596W        W29050  33.084   8.855  10.909
67597W        W29051  13.649  44.490   3.340
67598W        W29052  25.572  12.728  11.869
67599W        W29053  33.074  43.009  10.537
67600W        W29054  31.026  29.965  13.453
67601W        W29055  14.252  38.956   2.676
67602W        W29056  39.887   6.692  14.795
67603W        W29057  27.131  20.249  12.368
67604W        W29058  30.565   5.397  14.402
67605W        W29059  43.363  36.499  13.867
67606W        W29060  26.613  44.003   3.741
67607W        W29061  23.566  44.967  14.884
67608W        W29062  32.004   6.860   0.253
67609W        W29063  20.717  43.994  11.925
67610W        W29064   5.322  17.687  13.445
67611W        W29065  44.875  24.086   0.348
67612W        W29066  12.728  41.815   4.629
67613W        W29067  17.068  21.691  12.367
67614W        W29068  20.541   9.825  11.062
67615W        W29069  40.008   3.285   4.240
67616W        W29070  20.149   3.286  10.629
67617W        W29071  32.963  19.182  13.476
67618W        W29072  31.036  36.994  10.485
67619W        W29073  42.493  33.897  10.559
67620W        W29074  37.037   5.409   0.864
67621W        W29075  27.455  42.324  12.524
67622W        W29076  21.226  40.505  13.965
67623W        W29077  30.583  15.172  11.520
67624W        W29078  15.259   9.178   0.457
67625W        W29079   4.249  30.591  14.977
67626W        W29080  38.910   9.864   2.690
67627W        W29081  17.147  42.319   4.662
67628W        W29082  43.825   6.853  12.871
67629W        W29083  34.905  32.988  14.383
67630W        W29084  13.668  43.336   4.314
67631W        W29085   3.955  22.598   1.393
67632W        W29086  22.108  39.059  11.056
67633W        W29087  44.431  24.072   2.667
67634W        W29088  19.241   2.908   3.188
67635W        W29089   1.474  39.842   0.389
67636W        W29090  10.179  18.188   0.888
67637W        W29091  44.272  34.114  11.064
67638W        W29092  18.681  28.634  13.831
67639W        W29093  36.973  13.711   4.618
67640W        W29094  32.897   4.762   2.365
67641W        W29095  26.515  21.192  10.546
67642W        W29096  16.213  39.831   2.253
67643W        W29097  22.150  39.515  11.552
67644W        W29098   2.793   3.307  13.362
67645W        W29099  42.007  17.266  11.610
67646W        W29100  25.576  17.200  14.861
67647W        W29101  11.642  16.694  14.489
67648W        W29102   5.855  26.163   1.217
67649W        W29103  19.156  39.854  14.760
67650W        W29104  20.197   4.889  10.126
67651W        W29105   6.237  16.198   4.194
67652W        W29106  43.823   5.358  13.348
67653W        W29107  35.542  16.209   3.198
67654W        W29108  27.662  42.450  11.119
67655W        W29109  14.311  30.060   4.141
67656W        W29110  28.055   0.750   3.289
67657W        W29111  44.317   6.768  14.902
67658W        W29112  10.266   3.894   4.236
67659W        W29113   5.742  21.077   3.829
67660W        W29114  25.000  43.906   3.804
67661W        W29115  12.200  36.918   4.261
67662W        W29116   0.324  13.804   2.680
67663W        W29117  34.881  19.129   3.377
67664W        W29118  12.757  29.985  13.464
67665W        W29119  32.990  35.032  12.057
67666W        W29120   6.277  28.459  14.003
67667W        W29121  11.253  32.479   9.976
67668W        W29122  21.083  32.503   1.411
67669W        W29123  24.613  37.062   1.210
67670W        W29124  25.578  34.976  13.886
67671W        W29125  35.881  15.227  11.607
67672W        W29126  41.455  15.240  14.942
67673W        W29127  11.715  13.264  14.814
67674W        W29128  29.057  30.445   1.400
67675W        W29129  35.109  13.608   0.280
67676W        W29130  33.043  12.726  13.794
67677W        W29131  20.053  41.383  10.454
67678W        W29132   9.688  27.102  11.578
67679W        W29133  43.299  28.094   2.189
67680W        W29134   2.319  44.815   4.282
67681W        W29135  20.052   0.918  11.911
67682W        W29136  36.023  25.208  14.914
67683W        W29137  43.384   3.347   1.218
67684W        W29138  21.604   3.922   0.843
67685W        W29139  32.519  36.571   1.741
67686W        W29140  30.071  37.426   1.845
67687W        W29141  31.910   7.366  11.982
67688W        W29142  24.594  13.241  12.508
67689W        W29143  30.512  39.548  13.439
67690W        W29144  40.428  25.115  14.457
67691W        W29145   4.386  42.936  12.428
67692W        W29146  16.100  24.983  11.914
67693W        W29147  14.723  38.825  14.021
67694W        W29148  20.676   1.468   2.774
67695W        W29149   1.916  30.520   1.828
67696W        W29150  11.296  17.177  13.031
67697W        W29151   1.865  26.125  12.067
67698W        W29152  16.226   5.711   3.666
67699W        W29153  40.339  14.622  13.465
67700W        W29154  16.178  31.002  10.911
67701W        W29155  14.320  16.621   0.352
67702W        W29156  33.516   3.954  10.987
67703W        W29157  37.984  36.875  12.881
67704W        W29158  43.953  33.553  10.631
67705W        W29159   3.284  16.588  13.876
67706W        W29160  13.608   6.276  11.958
67707W        W29161  27.481  19.152   3.676
67708W        W29162   9.646  42.927   2.740
67709W        W29163  12.312  44.987   4.812
67710W        W29164  10.674  19.777   4.198
67711W        W29165  17.093  38.036   3.251
67712W        W29166  32.502  30.448   1.789
67713W        W29167   6.786  34.589   0.387
67714W        W29168  35.457  18.290   0.458
67715W        W29169   1.410  11.633   0.863
67716W        W29170  27.544   5.236   3.211
67717W        W29171  22.048  30.539  13.021
67718W        W29172  23.995  42.802   2.413
67719W        W29173   6.191  37.061   1.722
67720W        W29174  27.535  39.334   0.834
67721W        W29175  10.262  39.857  14.510
67722W        W29176  33.417   4.923  10.990
67723W        W29177  29.519   2.370  11.928
67724W        W29178  40.536  35.384  13.527
67725W        W29179  14.261  28.667  11.576
67726W        W29180  41.345  17.654  11.538
67727W        W29181  38.943  38.567  10.545
67728W        W29182  35.045   8.267   0.253
67729W        W29183  25.623  27.126   3.644
67730W        W29184   2.419  41.895  12.424
67731W        W29185  16.150   6.834   2.814
67732W        W29186  12.330  44.820   3.155
67733W        W29187  20.666   3.926  12.903
67734W        W29188  15.134  25.686  12.839
67735W        W29189   5.785  31.934  11.428
67736W        W29190  16.756  20.607  13.402
67737W        W29191  43.017  18.270  13.813
67738W        W29192   3.931  25.708   1.323
67739W        W29193   3.275  25.699   1.329
67740W        W29194  31.435  36.950  14.779
67741W        W29195  24.699  20.673   4.121
67742W        W29196   9.813  12.162   0.739
67743W        W29197   0.817   7.767  12.835
67744W        W29198  25.077  11.328   2.383
67745W        W29199  34.432   1.375   1.254
67746W        W29200  18.114  12.344   3.381
67747W        W29201  31.138  16.312  11.021
67748W        W29202  29.564   1.968   4.803
67749W        W29203   4.245  16.599  11.570
67750W        W29204  11.348  38.020  11.085
67751W        W29205   8.657   2.814  13.829
67752W        W29206  28.075  22.148  10.017
67753W        W29207  36.970  25.646  13.452
67754W        W29208  19.212  28.497   3.841
67755W        W29209  27.984  33.402  11.395
67756W        W29210  20.210  37.985  14.442
67757W        W29211  18.290  28.184  14.412
67758W        W29212  10.144  18.248   1.853
67759W        W29213  34.035   3.951  10.968
67760W        W29214  19.685  19.737   0.274
67761W        W29215   3.894  19.243  14.412
67762W        W29216  40.972  37.535  14.504
67763W        W29217  20.560  30.126  11.580
67764W        W29218  27.554  38.890   0.947
67765W        W29219  19.718   7.382   0.879
67766W        W29220   0.474  41.442  13.336
67767W        W29221  17.202  21.135   5.143
67768W        W29222  39.504  35.604  10.948
67769W        W29223  43.483  40.850  10.559
67770W        W29224  10.334  10.804  11.462
67771W        W29225   1.736  21.075   2.717
67772W        W29226  36.399   8.248   2.751
67773W        W29227  18.721   9.176   1.786
67774W        W29228  17.131  19.232  11.494
67775W        W29229  11.839   4.766   3.819
67776W        W29230  30.416  18.631   1.330
67777W        W29231  43.466  21.228   3.764
67778W        W29232  14.267  10.874   1.431
67779W        W29233  21.750  37.579   3.690
67780W        W29234   9.861   7.379   1.230
67781W        W29235  32.029   3.736  11.991
67782W        W29236  37.962  20.646   0.805
67783W        W29237  18.210  44.330   4.746
67784W        W29238  24.098   3.289   5.087
67785W        W29239  24.700  31.061   4.319
67786W        W29240  26.012   1.357   1.259
67787W        W29241   1.741  36.880   4.241
67788W        W29242  31.456   5.349   1.749
67789W        W29243  13.171  16.751   3.185
67790W        W29244  15.116  14.314  13.483
67791W        W29245  16.162  30.148   1.299
67792W        W29246  41.361   2.942   2.742
67793W        W29247  21.065  19.049   3.330
67794W        W29248   9.746  10.801  10.626
67795W        W29249  14.192  33.921   2.863
67796W        W29250  13.616   1.298  11.859
67797W        W29251  31.579   9.841  13.423
67798W        W29252  17.664  42.956   4.148
67799W        W29253  41.916   0.286  14.507
67800W        W29254  42.817  38.043  12.345
67801W        W29255  28.157  32.055   5.270
67802W        W29256  42.918  20.695  12.925
67803W        W29257  19.630  25.572   2.670
67804W        W29258   5.705   3.766   2.749
67805W        W29259  17.602  44.001   4.833
67806W        W29260  37.529  37.572  10.480
67807W        W29261  32.958  38.566   1.396
67808W        W29262  10.717  19.614  13.918
67809W        W29263  16.116  11.799   0.891
67810W        W29264  44.800  12.658  12.918
67811W        W29265  40.842  43.407  12.961
67812W        W29266   5.279  36.943   3.239
67813W        W29267  20.126  34.547  14.419
67814W        W29268   5.777   7.779  11.459
67815W        W29269  16.309   4.900   2.833
67816W        W29270  25.996  27.941   0.873
67817W        W29271  13.292  11.695  14.283
67818W        W29272  34.472   4.361  11.001
67819W        W29273  28.509   0.360   2.680
67820W        W29274  14.100  21.217   4.718
67821W        W29275  23.537  32.949  12.495
67822W        W29276  41.800  38.976   1.432
67823W        W29277  24.079  21.687  13.431
67824W        W29278  22.127   2.884  12.455
67825W        W29279  34.589  21.640   1.345
67826W        W29280  14.102  35.879  12.091
67827W        W29281   9.880   1.448  11.075
67828W        W29282   3.419   6.771   2.665
67829W        W29283  36.353  35.032   4.194
67830W        W29284   3.260  11.857  11.380
67831W        W29285  36.464  44.814   2.269
67832W        W29286  15.716  30.528  10.956
67833W        W29287  15.122   5.237  14.344
67834W        W29288   9.771  13.627  12.934
67835W        W29289   4.443   0.933   2.762
67836W        W29290   1.930  41.974   3.771
67837W        W29291   0.915  25.151  13.519
67838W        W29292  11.349  40.051  13.334
67839W        W29293   2.887  27.478   1.795
67840W        W29294  37.363   5.692   3.179
67841W        W29295   2.367  43.379   0.439
67842W        W29296  19.689  17.566   1.418
67843W        W29297  41.391  37.344  11.062
67844W        W29298  40.413  11.812   0.905
67845W        W29299  10.634   2.724  12.456
67846W        W29300   8.744  23.056  10.624
67847W        W29301  13.327   7.680   0.305
67848W        W29302  23.111  13.769  14.345
67849W        W29303  12.718  41.856   4.119
67850W        W29304  44.990  15.715  14.433
67851W        W29305  19.544  21.093   2.899
67852W        W29306  23.722  35.090  13.391
67853W        W29307   3.932  18.180  11.607
67854W        W29308   8.755  43.294  12.848
67855W        W29309  43.302  30.540   2.773
67856W        W29310  43.466  22.620   0.806
67857W        W29311  23.733  20.541  14.802
67858W        W29312   4.380  10.178  13.864
67859W        W29313  25.014  40.831  12.467
67860W        W29314   0.972  30.911   3.242
67861W        W29315   1.892  13.123  13.983
67862W        W29316   1.240   5.219   4.675
67863W        W29317  36.420  22.199   1.230
67864W        W29318   4.436  44.312  10.435
67865W        W29319  21.021  40.954  13.044
67866W        W29320  17.075  42.510  14.488
67867W        W29321  31.423   7.747  14.942
67868W        W29322   9.696  22.237   1.774
67869W        W29323  38.877  36.917  10.447
67870W        W29324  15.683  10.190  12.435
67871W        W29325   6.710   3.364   4.652
67872W        W29326  31.023   2.373  13.038
67873W        W29327  40.910  20.581  12.471
67874W        W29328  10.654  42.920   3.148
67875W        W29329  41.350  40.398   3.169
67876W        W29330  11.169   4.260   2.796
67877W        W29331  27.619  32.058   3.281
67878W        W29332  35.959   1.451  13.022
67879W        W29333   9.763  26.607   0.798
67880W        W29334  22.103  22.230   1.324
67881W        W29335  35.856   0.485  14.475
67882W        W29336  44.275  32.039  12.973
67883W        W29337   4.833   3.410   1.363
67884W        W29338  43.891  34.918  10.920
67885W        W29339  41.797  44.792   2.851
67886W        W29340  37.579   3.338   3.731
67887W        W29341  28.113  27.981   3.832
67888W        W29342   0.352  12.785   4.667
67889W        W29343  22.047  23.114  12.892
67890W        W29344   7.911  15.774   4.316
67891W        W29345   4.326  15.594   4.670
67892W        W29346  32.938  36.501   4.277
67893W        W29347  21.754  35.519  11.562
67894W        W29348  14.153  10.692  13.431
67895W        W29349  31.644  20.733  10.572
67896W        W29350  12.682  33.091   2.186
67897W        W29351   3.455  32.100  14.279
67898W        W29352  25.674  26.551   0.778
67899W        W29353   1.746  32.483   2.748
67900W        W29354  14.756  43.274  10.406
67901W        W29355  31.028  22.053   0.409
67902W        W29356  13.213  38.055  10.051
67903W        W29357  30.452  23.027  11.901
67904W        W29358  38.524   7.876   0.887
67905W        W29359  38.400  33.466  11.421
67906W        W29360   7.779   7.359  11.611
67907W        W29361  33.051  42.926  12.874
67908W        W29362  12.209  16.254   1.869
67909W        W29363  20.178  36.467  12.072
67910W        W29364  32.443  14.170  14.498
67911W        W29365  10.649  43.284   4.245
67912W        W29366   3.956   2.750   1.260
67913W        W29367  44.399  13.639  14.909
67914W        W29368  27.491  13.739   2.867
67915W        W29369  28.012  20.151   4.822
67916W        W29370   0.469  23.115  13.998
67917W        W29371  23.531  28.500  12.932
67918W        W29372  20.542   7.295   5.193
67919W        W29373   5.435  40.534  10.468
67920W        W29374  19.638   9.262  13.498
67921W        W29375   8.168  40.936   0.811
67922W        W29376   3.823  15.319   2.706
67923W        W29377  25.643   0.783  12.497
67924W        W29378  40.957  24.725   4.160
67925W        W29379  36.090  30.950  13.521
67926W        W29380  44.489  33.422  14.867
67927W        W29381  37.081  15.323   4.756
67928W        W29382   4.226  20.237   0.431
67929W        W29383  32.058  14.670   2.320
67930W        W29384   7.193  23.657   4.247
67931W        W29385  16.293   4.259  14.011
67932W        W29386  19.659  12.833  14.421
67933W        W29387  33.495  30.535  10.907
67934W        W29388  33.436  27.619   4.153
67935W        W29389  24.221   1.475  12.869
67936W        W29390  21.672  11.735  13.328
67937W        W29391  17.797   3.262  11.023
67938W        W29392  39.063   9.849   1.212
67939W        W29393  24.560  16.608  10.450
67940W        W29394   4.359  34.974   2.806
67941W        W29395  30.095  13.325   3.701
67942W        W29396  36.587  35.464  12.436
67943W        W29397  10.224  19.605   9.514
67944W        W29398  20.628  32.454  11.886
67945W        W29399  24.647  22.692  11.027
67946W        W29400  41.324  33.625  11.925
67947W        W29401   9.771  19.242  14.306
67948W        W29402  30.911   2.428   3.322
67949W        W29403   3.352  13.710   4.705
67950W        W29404  21.600  15.280   0.340
67951W        W29405  36.995   2.343   0.392
67952W        W29406  40.411  12.831  13.316
67953W        W29407  33.084  16.153   4.725
67954W        W29408  31.987  34.938  13.504
67955W        W29409  37.439   5.701  11.121
67956W        W29410  36.071  21.213  11.013
67957W        W29411  13.748  40.305  11.999
67958W        W29412  10.730  42.365  10.100
67959W        W29413   7.838  18.632  13.881
67960W        W29414  26.654   6.342  13.910
67961W        W29415  13.640   5.212  12.094
67962W        W29416   5.365  22.709   4.666
67963W        W29417   8.211  35.109  14.000
67964W        W29418   2.303  39.554  12.993
67965W        W29419   9.875   0.277  11.565
67966W        W29420  40.470  11.734   4.637
67967W        W29421  15.170  24.497   3.811
67968W        W29422  16.587  28.956  10.894
67969W        W29423   1.741  31.460   0.445
67970W        W29424  27.451  23.119  13.402
67971W        W29425   2.228  13.660  14.821
67972W        W29426  26.467  30.104  12.374
67973W        W29427  17.260  18.163  14.497
67974W        W29428  11.291  10.300  12.875
67975W        W29429  32.460   6.335   4.790
67976W        W29430   7.851  32.425  13.983
67977W        W29431  30.617   8.320  10.471
67978W        W29432  44.869  34.004  12.859
67979W        W29433  39.420  12.263   3.693
67980W        W29434  20.544  19.075   1.376
67981W        W29435   4.895   2.778   4.260
67982W        W29436  38.019  34.869  10.929
67983W        W29437  35.922  10.382   4.835
67984W        W29438  20.626  22.076  13.428
67985W        W29439  40.525  22.165  14.423
67986W        W29440   2.816  40.942  11.602
67987W        W29441  40.008  39.980   1.443
67988W        W29442  36.459   5.785  11.878
67989W        W29443   3.798   1.959  12.987
67990W        W29444   3.895  38.027  11.503
67991W        W29445   7.240   4.351  14.799
67992W        W29446   9.715  24.721  11.490
67993W        W29447   4.450  23.069  14.978
67994W        W29448   6.731   3.238   2.248
67995W        W29449   8.345  22.014   1.896
67996W        W29450  33.425  30.449  14.311
67997W        W29451  26.612   0.317   1.318
67998W        W29452   1.798  42.305   4.786
67999W        W29453   8.675  33.964   5.697
68000W        W29454  13.758  40.953  13.802
68001W        W29455  31.102  25.504   0.757
68002W        W29456   5.410   2.358   0.878
68003W        W29457  17.628  32.129   2.698
68004W        W29458  39.335  25.049   1.717
68005W        W29459  12.614  36.387   2.796
68006W        W29460   7.192  23.181  12.048
68007W        W29461   3.884  25.208   2.257
68008W        W29462  43.950  24.696  10.562
68009W        W29463  32.455  21.735  13.439
68010W        W29464  38.398  18.264  13.874
68011W        W29465  15.149  33.092  14.428
68012W        W29466  14.757   8.655  11.122
68013W        W29467   2.460  13.131  11.067
68014W        W29468  11.366   4.895  13.880
68015W        W29469  40.937  21.718   0.896
68016W        W29470  13.634  26.599   4.774
68017W        W29471  10.863  32.535  11.884
68018W        W29472  12.151  41.485   0.773
68019W        W29473  36.453  31.141  12.413
68020W        W29474  37.531   9.244   4.763
68021W        W29475  34.565  13.156   1.751
68022W        W29476  17.270  43.459   0.797
68023W        W29477  23.576   8.849   1.784
68024W        W29478  41.419  16.694  10.609
68025W        W29479  23.721  37.938  12.452
68026W        W29480  38.421  26.606  11.008
68027W        W29481  12.355  16.704   5.268
68028W        W29482  23.141  30.068   1.769
68029W        W29483   2.908   5.420   4.353
68030W        W29484   7.676  38.040   0.830
68031W        W29485  38.442   4.724  12.040
68032W        W29486   2.435  24.011   1.380
68033W        W29487  28.030  42.778   3.145
68034W        W29488  10.230  14.232  12.097
68035W        W29489  37.046   3.351   3.753
68036W        W29490  22.729  16.595  13.949
68037W        W29491   6.334  40.505   1.451
68038W        W29492   1.884  18.083  11.475
68039W        W29493  22.721   8.279   0.937
68040W        W29494  15.693  36.975  10.507
68041W        W29495   2.783  21.200  13.437
68042W        W29496  28.934  44.769  11.991
68043W        W29497  38.449  40.996   2.854
68044W        W29498   5.273  41.792  14.933
68045W        W29499  35.928  18.121  12.535
68046W        W29500  30.518  16.809  13.870
68047W        W29501   0.287  35.865   2.809
68048W        W29502  20.714  10.744   1.222
68049W        W29503  40.459  37.987  12.527
68050W        W29504  41.529  36.499   1.326
68051W        W29505  12.714   6.696  12.530
68052W        W29506  36.543  28.005  11.410
68053W        W29507  37.041   1.440  13.329
68054W        W29508   5.251  28.127   4.114
68055W        W29509  14.263   1.744  13.035
68056W        W29510  26.660  25.028   4.761
68057W        W29511  14.270  35.600   3.831
68058W        W29512  20.685  16.127  12.839
68059W        W29513  31.989   4.829   3.682
68060W        W29514  11.711   0.770  10.563
68061W        W29515  25.583   5.422  10.515
68062W        W29516  36.450  22.010   2.378
68063W        W29517  27.554  21.732   3.706
68064W        W29518  25.579  22.618   3.714
68065W        W29519  40.808  14.611   2.255
68066W        W29520   0.900  22.726   1.348
68067W        W29521  23.995   1.753   3.321
68068W        W29522  14.153  41.453   3.793
68069W        W29523  26.010  30.977  11.868
68070W        W29524  26.693  42.300   1.736
68071W        W29525  32.451   6.354   2.268
68072W        W29526  31.942  19.745  11.075
68073W        W29527   9.298  36.358  13.449
68074W        W29528  21.548  18.129  12.020
68075W        W29529  10.826   5.351  10.956
68076W        W29530  18.151   2.464   3.678
68077W        W29531  22.060  27.955  12.026
68078W        W29532   5.334   4.877   4.271
68079W        W29533  17.639   9.387   3.294
68080W        W29534  26.184  16.736   2.353
68081W        W29535   7.822  28.086  10.567
68082W        W29536   3.846  10.274   1.412
68083W        W29537  39.956  23.115  14.956
68084W        W29538  24.668  20.522   4.690
68085W        W29539  34.435  29.479   1.447
68086W        W29540  17.624   1.778  13.351
68087W        W29541  42.514  14.828   3.200
68088W        W29542  22.701  15.720   1.798
68089W        W29543  11.339  44.429   1.819
68090W        W29544  44.398  43.313  13.428
68091W        W29545  34.035  35.577   3.820
68092W        W29546  43.302  19.720  14.351
68093W        W29547  33.925  30.459   4.742
68094W        W29548  44.456  29.972   1.423
68095W        W29549  41.876  37.451  11.405
68096W        W29550  17.637  21.555   1.421
68097W        W29551  39.985  42.863   2.863
68098W        W29552  33.483  23.615   4.226
68099W        W29553  40.434  19.262   4.271
68100W        W29554  23.031   5.839  12.041
68101W        W29555  18.781  24.650   4.221
68102W        W29556  40.843  16.139   4.769
68103W        W29557  44.885  39.944   0.848
68104W        W29558  29.990  10.698  11.906
68105W        W29559  19.772   1.302   3.848
68106W        W29560  20.171   0.469  10.605
68107W        W29561  29.558  39.337  13.315
68108W        W29562  33.530  44.339   9.975
68109W        W29563  12.135  27.949  11.550
68110W        W29564  19.236  24.975  10.618
68111W        W29565  39.474   6.393   4.286
68112W        W29566  38.488  31.533   4.776
68113W        W29567  39.971   9.377  11.865
68114W        W29568  35.567  37.505  11.469
68115W        W29569  37.973   1.934  12.935
68116W        W29570  14.147   7.277   0.261
68117W        W29571  17.677  38.355   4.181
68118W        W29572  33.123  12.849   4.647
68119W        W29573  40.492  38.846   4.740
68120W        W29574  39.829  14.642   0.429
68121W        W29575  18.647  11.145  11.121
68122W        W29576  41.937  23.156  14.376
68123W        W29577  11.307  10.642  12.899
68124W        W29578  20.649   3.903  11.038
68125W        W29579  42.975   0.370  11.999
68126W        W29580   1.248   3.937  13.487
68127W        W29581  32.511   4.236  12.067
68128W        W29582  36.877  34.985  13.384
68129W        W29583   2.265  28.139  11.887
68130W        W29584   1.827  12.805   2.343
68131W        W29585  32.627  29.526   3.840
68132W        W29586  11.811  27.105   3.176
68133W        W29587  14.751   9.226  12.408
68134W        W29588  30.133  21.060   3.265
68135W        W29589  10.254  39.002   2.724
68136W        W29590   3.267   5.367   3.637
68137W        W29591  43.474  25.039   3.285
68138W        W29592  20.070   9.156   4.234
68139W        W29593  23.557  15.583  11.988
68140W        W29594  44.442  11.172  12.451
68141W        W29595  18.127  16.812   4.194
68142W        W29596   0.367  17.213  10.920
68143W        W29597  32.582  33.943  11.117
68144W        W29598   8.289  43.291   4.628
68145W        W29599  32.515   7.385  14.990
68146W        W29600  41.931  37.465   1.862
68147W        W29601  22.152  22.627  10.954
68148W        W29602  31.993  13.624  12.578
68149W        W29603  26.685  26.588  10.002
68150W        W29604  33.434  23.208  12.419
68151W        W29605  19.758  37.085   0.941
68152W        W29606  29.107  27.517  10.521
68153W        W29607  19.082   7.729  11.590
68154W        W29608  33.443  16.782  13.045
68155W        W29609  43.800  42.307  10.992
68156W        W29610  40.950  24.641   3.776
68157W        W29611  20.261  21.033  13.030
68158W        W29612   3.847   4.794   2.836
68159W        W29613  13.145  39.504   5.228
68160W        W29614  27.645  10.198   3.698
68161W        W29615   0.906  28.137   3.789
68162W        W29616   3.816   8.696   2.746
68163W        W29617  10.787  26.530   0.385
68164W        W29618   0.931   6.690   0.480
68165W        W29619  19.184  17.194  13.499
68166W        W29620  22.642  18.158   3.357
68167W        W29621  28.467  10.758  10.607
68168W        W29622  15.146   9.648  12.923
68169W        W29623  17.659   5.701   2.396
68170W        W29624  31.640  17.691   0.461
68171W        W29625  10.799   5.805  12.993
68172W        W29626  44.349  23.661   9.960
68173W        W29627  27.122   5.203   3.214
68174W        W29628  25.595   6.274  13.861
68175W        W29629  36.376  41.294  14.892
68176W        W29630  22.157  25.080  11.431
68177W        W29631  30.946  43.934  14.957
68178W        W29632  40.047  28.574   3.652
68179W        W29633  26.138  12.265  11.030
68180W        W29634   4.874   4.367  11.974
68181W        W29635  32.139  24.540   3.753
68182W        W29636  12.245  33.086   5.146
68183W        W29637  25.501  16.167   2.213
68184W        W29638  12.708   6.918   1.825
68185W        W29639  22.564  25.217  13.900
68186W        W29640  14.815  10.168  10.636
68187W        W29641  22.566   8.685  12.879
68188W        W29642  38.417  39.319  14.890
68189W        W29643  25.487  35.507   1.874
68190W        W29644  16.288   2.396   2.213
68191W        W29645  33.397   8.311   3.774
68192W        W29646  43.968   5.705   2.755
68193W        W29647  16.134  14.172   0.884
68194W        W29648  27.109  40.485   0.366
68195W        W29649   2.350  28.950   4.174
68196W        W29650  11.711  39.366   1.400
68197W        W29651  32.912  38.352   4.348
68198W        W29652  22.735  44.981  12.947
68199W        W29653  35.075  24.556   2.386
68200W        W29654   3.256  25.178   4.773
68201W        W29655  31.475  35.925  12.573
68202W        W29656  44.794  34.410   2.785
68203W        W29657  39.367  11.786   3.652
68204W        W29658  28.163  43.331  14.836
68205W        W29659  33.462  33.579  13.836
68206W        W29660   1.332  37.449   4.303
68207W        W29661   5.749  38.030  12.357
68208W        W29662  23.242  15.817   0.818
68209W        W29663  17.751  14.298   1.698
68210W        W29664  36.882  42.361   0.251
68211W        W29665   2.745  21.075   2.734
68212W        W29666  21.631  26.517   3.721
68213W        W29667  33.109  44.838  13.405
68214W        W29668   2.879  16.733   0.458
68215W        W29669   4.833  13.217   2.885
68216W        W29670  12.633  12.345  12.363
68217W        W29671  11.626  39.058  10.961
68218W        W29672  34.452  40.326  13.018
68219W        W29673  42.920  37.427   2.315
68220W        W29674  29.498  36.503   1.259
68221W        W29675  27.466  28.093  13.433
68222W        W29676  22.655  19.185   3.681
68223W        W29677  20.251  35.393   0.299
68224W        W29678  33.472  12.664   5.101
68225W        W29679  21.566  34.975   2.313
68226W        W29680  34.873  10.198  14.818
68227W        W29681   6.798  18.274   0.482
68228W        W29682  20.565  37.395   0.871
68229W        W29683   1.876  25.061   3.242
68230W        W29684   8.759  36.974   4.118
68231W        W29685   4.787  29.059   0.472
68232W        W29686  37.937  27.110   0.413
68233W        W29687  35.535   3.305   5.216
68234W        W29688  43.917  31.430  11.583
68235W        W29689  17.229  14.292  12.838
68236W        W29690  11.859  37.336   0.839
68237W        W29691   9.218  43.829  10.533
68238W        W29692  27.962  32.970  12.376
68239W        W29693  38.875  41.452  14.276
68240W        W29694   7.315   0.898   3.182
68241W        W29695  19.537  41.914  14.508
68242W        W29696  40.534  12.728   2.390
68243W        W29697   2.931  35.565   0.838
68244W        W29698   2.723  23.065   3.847
68245W        W29699  23.990   9.216   3.646
68246W        W29700  37.537   3.871   3.776
68247W        W29701  35.960  31.980   2.852
68248W        W29702  18.611  12.771  13.812
68249W        W29703  23.175  11.835  14.841
68250W        W29704  22.135  42.011  11.004
68251W        W29705  19.645  12.350  14.975
68252W        W29706   7.338  34.038   2.899
68253W        W29707   0.773  19.733   2.368
68254W        W29708   8.296   4.442   3.298
68255W        W29709  27.192  28.540  11.591
68256W        W29710  27.533   2.298  13.030
68257W        W29711  27.039  32.067  14.325
68258W        W29712   6.261   5.925  10.405
68259W        W29713  22.197  44.274   4.821
68260W        W29714  16.277  11.319  14.997
68261W        W29715  19.536  19.778   3.715
68262W        W29716   3.915  18.052   2.315
68263W        W29717  26.161   2.425   3.865
68264W        W29718  22.511  34.567  12.869
68265W        W29719  18.661   5.412   2.888
68266W        W29720  40.847  41.858  14.293
68267W        W29721  35.908  19.247  12.539
68268W        W29722  18.632  40.845   1.750
68269W        W29723  21.220   6.223   4.660
68270W        W29724   3.296  10.351  11.556
68271W        W29725  23.665  21.239  10.449
68272W        W29726  19.616   3.801   5.171
68273W        W29727  34.572   0.292   2.848
68274W        W29728  12.773  43.317  14.274
68275W        W29729   9.370   0.865  13.393
68276W        W29730  43.950  30.479   0.763
68277W        W29731  24.573  31.027  14.394
68278W        W29732  11.298  31.554   0.315
68279W        W29733   8.760  39.334   2.382
68280W        W29734   1.946  12.771  10.621
68281W        W29735   2.936  28.656   2.382
68282W        W29736  12.782  26.495   2.273
68283W        W29737  35.902   7.245   1.839
68284W        W29738  39.906   0.288   4.756
68285W        W29739  39.857   4.841   0.409
68286W        W29740  17.061  16.189   2.333
68287W        W29741  13.756  35.062  11.973
68288W        W29742   5.849  17.567  14.282
68289W        W29743  33.928  30.927   3.259
68290W        W29744  27.635   7.858  10.457
68291W        W29745  29.538   5.314  13.315
68292W        W29746   4.365  40.926   1.347
68293W        W29747  19.239  10.742   3.740
68294W        W29748  35.979   9.373  13.037
68295W        W29749  40.045   7.360  13.975
68296W        W29750  20.602  27.975  11.124
68297W        W29751  28.046  34.946   2.297
68298W        W29752   7.400  43.964   2.733
68299W        W29753  31.069  40.931  12.948
68300W        W29754  30.479  43.913  14.443
68301W        W29755  28.006  32.430   5.709
68302W        W29756  36.521  20.655   1.262
68303W        W29757  41.306   2.912  11.041
68304W        W29758  36.964   4.826  10.519
68305W        W29759  26.115  16.594   3.767
68306W        W29760  44.803  41.430   2.251
68307W        W29761   8.840  24.033   0.911
68308W        W29762  11.264  11.669   0.383
68309W        W29763  13.836  21.166   2.810
68310W        W29764  33.417   7.310  14.998
68311W        W29765  12.849  21.078  11.029
68312W        W29766  11.624  16.134  13.392
68313W        W29767  17.729  28.145  13.842
68314W        W29768   3.258  42.957  11.087
68315W        W29769  18.106  29.612  12.412
68316W        W29770  13.116  29.940   2.210
68317W        W29771  22.207  44.870  11.503
68318W        W29772  19.150  30.444   1.716
68319W        W29773   6.898  42.940  11.908
68320W        W29774  38.454  35.460  11.567
68321W        W29775  35.390  37.872  13.497
68322W        W29776   8.661  40.369   0.795
68323W        W29777  23.661  44.930  13.043
68324W        W29778  20.756  36.915  14.507
68325W        W29779   4.423  26.673  14.948
68326W        W29780  27.675   1.329   1.769
68327W        W29781  12.639  16.807  13.882
68328W        W29782   1.456  13.267   4.749
68329W        W29783  38.434  10.801  14.851
68330W        W29784  26.988  25.682  13.507
68331W        W29785  19.040  39.948   3.739
68332W        W29786  28.160  25.129  11.383
68333W        W29787  40.339  29.059   4.818
68334W        W29788   4.363  44.995   2.782
68335W        W29789  14.620   5.388   4.251
68336W        W29790  14.774  20.696   1.732
68337W        W29791  41.527  36.356   2.698
68338W        W29792  42.988  33.432  11.409
68339W        W29793  12.613  10.825  12.023
68340W        W29794  39.837  44.282  14.026
68341W        W29795   6.769  15.589   3.376
68342W        W29796   0.294  30.505   2.835
68343W        W29797  29.933  39.895   3.782
68344W        W29798  17.246  39.464   3.192
68345W        W29799   7.289  14.831   1.710
68346W        W29800  28.503   9.769   1.721
68347W        W29801  40.925  17.147  14.875
68348W        W29802  20.135  43.407  12.979
68349W        W29803  43.437  25.676  14.769
68350W        W29804   0.986  22.536  13.826
68351W        W29805  33.598  39.541   4.719
68352W        W29806  43.510  12.213   1.744
68353W        W29807  17.261  31.554   3.715
68354W        W29808  44.998  16.626   1.744
68355W        W29809  11.747  11.137   1.895
68356W        W29810  23.646  35.968   4.647
68357W        W29811   4.812   1.270  14.000
68358W        W29812  31.521  17.649  14.935
68359W        W29813  37.495  24.629  13.361
68360W        W29814  43.990  42.999   4.690
68361W        W29815  20.757  10.700  13.314
68362W        W29816  19.583  22.016  11.946
68363W        W29817  38.910  12.286   2.752
68364W        W29818  43.295  43.423   2.244
68365W        W29819   2.400  32.562  11.390
68366W        W29820   2.333  30.647  10.618
68367W        W29821   4.322  24.486   4.192
68368W        W29822  19.534  29.468   3.830
68369W        W29823  43.288  32.029  12.876
68370W        W29824   1.963  21.242   0.359
68371W        W29825  39.032  42.448  11.025
68372W        W29826  26.512  20.700  14.498
68373W        W29827  36.940  26.033   3.264
68374W        W29828  27.484  26.056   1.425
68375W        W29829  16.158   6.367  10.555
68376W        W29830  32.903   5.868   2.280
68377W        W29831   8.190  43.897   0.807
68378W        W29832   1.413  11.168   2.850
68379W        W29833  32.585  13.117   0.302
68380W        W29834  29.573  29.542  10.412
68381W        W29835   8.372   9.206  14.329
68382W        W29836  18.132  32.969  11.974
68383W        W29837  43.898  30.114  14.381
68384W        W29838  40.866  43.955  13.889
68385W        W29839  25.697  37.501  14.774
68386W        W29840  21.696   2.747  13.311
68387W        W29841  17.650  40.541  12.950
68388W        W29842  25.688  30.965   2.864
68389W        W29843   2.934  21.171  14.928
68390W        W29844  19.582  20.713  10.460
68391W        W29845   7.679   6.710   1.914
68392W        W29846   7.380  39.393   3.679
68393W        W29847  21.085  44.316   0.899
68394W        W29848  37.923  17.294   4.184
68395W        W29849  12.315   6.692   1.430
68396W        W29850  13.300   4.822  13.000
68397W        W29851  18.077  38.392  11.917
68398W        W29852  25.707   6.242  14.973
68399W        W29853   3.812   1.288  12.400
68400W        W29854  30.517   5.395   4.178
68401W        W29855  27.167   9.156   4.125
68402W        W29856   8.186  29.115  10.916
68403W        W29857  27.170   6.760   2.693
68404W        W29858  25.561  30.035  12.496
68405W        W29859  26.538  12.815  14.863
68406W        W29860   3.386  44.492  10.502
68407W        W29861   4.342  41.305  10.568
68408W        W29862  25.611  11.369  11.497
68409W        W29863  11.321  40.381   2.254
68410W        W29864  36.946  36.080  10.948
68411W        W29865  29.439  10.829  12.088
68412W        W29866  31.937   9.245   3.341
68413W        W29867   2.248  10.681  11.105
68414W        W29868  29.151   7.180  13.897
68415W        W29869  18.176  12.629   3.751
68416W        W29870  35.474  31.456  12.505
68417W        W29871  19.083   6.185   1.793
68418W        W29872  25.139   6.218  12.420
68419W        W29873  32.443  35.063  12.079
68420W        W29874  44.361   8.177   1.726
68421W        W29875  22.116  28.086   0.754
68422W        W29876  26.647  22.505  12.058
68423W        W29877  23.495  16.262   3.660
68424W        W29878  36.377   9.199   2.233
68425W        W29879  26.957   1.349   0.932
68426W        W29880  38.352  22.109  11.067
68427W        W29881  44.878   2.774   2.269
68428W        W29882  16.743  44.441  12.839
68429W        W29883   2.745  27.463  12.355
68430W        W29884  30.583   3.246   3.183
68431W        W29885  38.931  40.357   3.645
68432W        W29886  26.511  23.132   4.748
68433W        W29887  20.198   3.849  10.437
68434W        W29888   7.306  32.633   0.923
68435W        W29889  21.027  35.946   2.371
68436W        W29890  29.489  29.575  11.979
68437W        W29891   5.841  21.609  13.925
68438W        W29892  24.106  21.183   1.812
68439W        W29893   4.747  36.556  10.547
68440W        W29894   2.753  35.883   2.767
68441W        W29895   3.230  24.634  10.544
68442W        W29896   4.271   6.240   0.950
68443W        W29897  34.889   5.296   2.866
68444W        W29898  42.806  36.950  13.991
68445W        W29899  11.264  29.090  13.894
68446W        W29900   5.830   7.686   4.210
68447W        W29901   4.235   7.707  13.005
68448W        W29902   0.298  37.411   2.747
68449W        W29903   1.304  30.000  13.993
68450W        W29904  39.513  15.790   4.763
68451W        W29905  33.601  37.048  13.816
68452W        W29906  44.285  16.586  11.040
68453W        W29907   7.909  31.120   0.299
68454W        W29908  14.752  29.073   5.092
68455W        W29909   5.843  38.007   0.778
68456W        W29910  41.496  18.257   1.806
68457W        W29911  13.658  37.548   2.899
68458W        W29912   7.713  21.017   3.772
68459W        W29913  17.090   4.237   0.413
68460W        W29914  32.944  30.522   4.132
68461W        W29915  35.962  11.295   3.343
68462W        W29916   5.199   5.888   1.283
68463W        W29917   5.334  40.358  12.373
68464W        W29918   1.360   7.178   2.668
68465W        W29919  38.443  31.070   0.727
68466W        W29920  15.721   0.853   5.322
68467W        W29921  16.239   3.359   0.886
68468W        W29922  11.708  14.711  14.007
68469W        W29923  40.900   0.964  11.933
68470W        W29924  32.549  10.227  13.860
68471W        W29925  28.095  26.144   3.801
68472W        W29926  26.013  40.852   3.346
68473W        W29927  11.798  11.336   3.645
68474W        W29928  32.037  39.962  11.055
68475W        W29929  27.967  24.995  11.031
68476W        W29930  42.411  15.775  11.428
68477W        W29931   1.375   8.751   1.235
68478W        W29932  43.296  20.675  10.617
68479W        W29933  11.218   1.878   4.327
68480W        W29934  34.606  44.475  14.293
68481W        W29935   3.849  15.635   3.183
68482W        W29936  37.566   8.890   2.242
68483W        W29937  26.054  27.528  14.909
68484W        W29938  14.810  28.001  11.924
68485W        W29939   8.314  37.396  11.097
68486W        W29940  15.299  23.984  13.449
68487W        W29941  16.313  34.033  13.039
68488W        W29942   9.785  14.589   3.630
68489W        W29943  17.072  28.056   4.708
68490W        W29944  37.084  22.537   2.394
68491W        W29945  40.308  11.172  14.870
68492W        W29946  43.957  23.168   4.191
68493W        W29947  23.544  41.856   0.817
68494W        W29948  36.053  19.732   1.277
68495W        W29949  27.076  36.947   0.475
68496W        W29950  27.165  16.733   4.766
68497W        W29951  12.198  31.089  10.476
68498W        W29952  36.007  28.644  14.378
68499W        W29953  35.550  44.334  12.931
68500W        W29954   7.793   7.207  10.154
68501W        W29955   9.718   0.256   2.701
68502W        W29956   6.818   8.322  12.489
68503W        W29957  23.207  31.112  14.898
68504W        W29958   7.202  35.561  14.791
68505W        W29959   1.465   5.913  12.555
68506W        W29960  14.253  31.605   0.463
68507W        W29961  38.900  44.787  14.018
68508W        W29962  17.108   8.303   0.888
68509W        W29963  20.564  15.091  12.004
68510W        W29964   5.908   9.817   1.758
68511W        W29965  41.825   6.408  14.303
68512W        W29966  35.407  34.050  14.455
68513W        W29967  43.011   5.899   3.750
68514W        W29968  17.264  40.817  14.481
68515W        W29969   9.231   0.492  12.003
68516W        W29970   8.178   0.807  10.892
68517W        W29971  16.154  33.086   2.331
68518W        W29972  12.775   0.809   2.347
68519W        W29973  29.582  42.525   1.785
68520W        W29974   4.873  13.195  11.016
68521W        W29975  43.020  19.237   4.149
68522W        W29976  11.288  15.778   4.132
68523W        W29977  11.357  35.393   1.717
68524W        W29978  25.517  32.007  11.453
68525W        W29979  26.530   1.734   2.708
68526W        W29980   5.338  42.400  14.442
68527W        W29981  40.412  23.082   1.380
68528W        W29982  43.874  29.997   2.820
68529W        W29983  14.212   5.876   2.891
68530W        W29984  38.965  36.028   0.279
68531W        W29985  23.208  17.745   0.826
68532W        W29986  38.328   7.755   4.750
68533W        W29987  28.590  44.831  13.908
68534W        W29988  42.866  28.186  14.015
68535W        W29989  36.420  34.399  12.861
68536W        W29990  12.742  12.149  10.586
68537W        W29991  31.923  18.174   0.350
68538W        W29992   8.785   3.315   2.794
68539W        W29993  29.149  37.374  14.379
68540W        W29994  12.168  11.364   1.271
68541W        W29995   0.295  26.067   2.192
68542W        W29996  30.596  40.884  12.883
68543W        W29997   8.358   2.806  13.856
68544W        W29998   2.268  31.953   5.274
68545W        W29999  34.909  41.029   3.346
68546W        W30000  44.495   3.325  12.996
68547W        W30001  29.988  38.921   4.291
68548W        W30002  11.649  40.368  12.869
68549W        W30003  44.004  40.328   1.368
68550W        W30004   6.805   2.326   0.306
68551W        W30005  30.559   9.232  11.603
68552W        W30006  40.918  30.546   2.244
68553W        W30007  32.965  10.241  10.515
68554W        W30008  23.725  23.562  10.929
68555W        W30009  42.357  35.577   0.296
68556W        W30010  13.255  38.489   9.654
68557W        W30011  24.208   2.854   1.925
68558W        W30012  42.867  21.248  13.903
68559W        W30013  40.438  36.384   4.760
68560W        W30014  17.734  35.052   1.779
68561W        W30015   3.924  27.035  10.892
68562W        W30016  44.299  38.397  14.429
68563W        W30017  28.971  19.601   3.300
68564W        W30018   7.679   3.385  13.406
68565W        W30019  22.197   4.269   1.271
68566W        W30020  41.865  19.721   9.925
68567W        W30021  44.811  15.121  11.418
68568W        W30022   1.824  30.612   4.167
68569W        W30023  22.203  32.129  12.036
68570W        W30024   6.280  43.946   3.641
68571W        W30025  28.938  20.178   4.647
68572W        W30026  11.161  11.127  13.975
68573W        W30027  19.724   1.874  14.499
68574W        W30028   7.669   3.222   4.226
68575W        W30029  34.421  23.182  10.417
68576W        W30030  41.402  39.854   4.125
68577W        W30031  33.587  40.948  13.329
68578W        W30032  11.750   2.302   4.687
68579W        W30033  30.058  35.533   1.303
68580W        W30034   2.920  14.765  11.076
68581W        W30035  31.472  28.124  11.001
68582W        W30036  12.251  13.757  14.286
68583W        W30037   8.764  43.421  12.537
68584W        W30038  36.990  29.487  11.932
68585W        W30039   5.903  31.602   1.792
68586W        W30040   6.259  28.498   4.706
68587W        W30041  42.837  34.553   0.484
68588W        W30042  30.139  10.362   3.813
68589W        W30043  31.614  34.433   1.315
68590W        W30044  25.969  34.432   2.217
68591W        W30045  28.608  44.950  11.500
68592W        W30046   4.300  24.672  11.509
68593W        W30047  17.611  16.758  10.549
68594W        W30048  21.156  43.351   1.786
68595W        W30049  40.335  29.523   0.274
68596W        W30050  17.124  43.472   3.659
68597W        W30051  34.910  34.414   3.160
68598W        W30052  16.791  36.446   3.176
68599W        W30053  44.496  31.600  14.290
68600W        W30054  19.652  40.306   4.297
68601W        W30055  24.119  10.333  13.919
68602W        W30056  23.201   3.872   0.301
68603W        W30057  13.604  25.686  12.012
68604W        W30058  16.593  33.444  12.096
68605W        W30059  34.120  43.777  13.403
68606W        W30060  22.028  34.956   1.935
68607W        W30061   8.304   0.746  12.370
68608W        W30062  30.578  10.764   3.299
68609W        W30063  23.233  25.579  14.987
68610W        W30064  14.595  13.138   0.946
68611W        W30065  10.339  10.753  14.470
68612W        W30066  22.191  37.359   4.679
68613W        W30067  37.460  20.244   5.082
68614W        W30068  19.707  34.986  12.056
68615W        W30069  44.928  38.539   4.288
68616W        W30070   5.859  25.505   4.178
68617W        W30071   9.229   8.289   0.781
68618W        W30072  30.622  13.130  13.466
68619W        W30073  25.533   2.898  14.436
68620W        W30074  14.340  12.663  12.533
68621W        W30075  17.614   4.934  13.370
68622W        W30076  29.008  36.026  14.802
68623W        W30077  31.436  34.898   0.941
68624W        W30078  34.609  14.238   0.302
68625W        W30079   2.803  22.638   1.711
68626W        W30080  38.908  39.893  12.937
68627W        W30081  36.553  13.750   4.194
68628W        W30082   1.862   4.269   2.877
68629W        W30083  28.127  14.320   3.838
68630W        W30084  23.588  38.401  14.881
68631W        W30085  22.146   2.231   2.701
68632W        W30086  32.139  18.228   3.351
68633W        W30087  25.474   1.261  10.147
68634W        W30088  15.774  41.526  11.548
68635W        W30089  17.567  21.559   3.673
68636W        W30090   5.312   7.894   3.644
68637W        W30091  41.969   0.871  11.856
68638W        W30092  40.345  11.696  11.016
68639W        W30093  26.198   8.233   3.799
68640W        W30094  38.334  21.652   1.813
68641W        W30095  39.027   5.224   0.810
68642W        W30096   4.370   9.755   4.821
68643W        W30097  40.993  40.895   5.204
68644W        W30098  41.905  19.180  12.828
68645W        W30099  29.024   4.213  13.821
68646W        W30100  13.656  35.882   2.417
68647W        W30101  17.802   4.780   2.388
68648W        W30102  12.129   8.400   1.287
68649W        W30103  28.454  24.702  12.487
68650W        W30104  25.181  16.687   4.218
68651W        W30105  42.830   4.749  12.989
68652W        W30106  18.284  14.096  13.322
68653W        W30107  18.592  43.438   3.780
68654W        W30108  25.118  34.018  14.928
68655W        W30109   2.760  44.836  12.531
68656W        W30110  10.670  17.218   2.672
68657W        W30111  27.566  20.610  13.862
68658W        W30112  44.917  11.180   2.837
68659W        W30113  28.102  16.143   0.862
68660W        W30114  16.266  15.184  10.899
68661W        W30115  27.589   6.688  11.880
68662W        W30116   1.430   9.379   4.825
68663W        W30117  32.133  40.989   2.804
68664W        W30118  38.990  27.973   5.124
68665W        W30119   3.885  13.765  13.934
68666W        W30120   7.701  14.278   4.218
68667W        W30121  15.740  29.114  10.488
68668W        W30122  15.218  39.992  14.373
68669W        W30123   0.958  41.996   4.282
68670W        W30124  19.779  43.785  11.430
68671W        W30125   1.962  35.495  12.495
68672W        W30126  44.465  24.545   1.395
68673W        W30127  14.233  34.519  13.307
68674W        W30128  29.471  10.767  12.396
68675W        W30129  37.849  29.935   0.423
68676W        W30130   9.198  29.151  12.871
68677W        W30131  21.738  19.668   4.729
68678W        W30132  35.859   6.755   1.433
68679W        W30133  23.224  37.422  11.559
68680W        W30134   6.873  21.666   2.698
68681W        W30135  10.812  32.900  12.061
68682W        W30136  11.362  17.772  14.516
68683W        W30137  30.637  37.556   4.659
68684W        W30138  16.705  15.691   2.839
68685W        W30139  43.387  16.073   2.752
68686W        W30140   4.298  12.154   1.416
68687W        W30141  20.627  41.859   0.339
68688W        W30142  16.634  40.337   2.250
68689W        W30143  15.761  29.002   3.311
68690W        W30144  35.869  39.821   4.302
68691W        W30145  15.658   3.919   0.375
68692W        W30146  29.469  27.521   2.664
68693W        W30147  44.791  33.447   3.379
68694W        W30148  19.663  10.779   2.320
68695W        W30149   5.353  29.643  11.526
68696W        W30150   8.322   3.308  11.500
68697W        W30151  37.017  34.107   0.887
68698W        W30152  23.563  39.474  10.528
68699W        W30153   5.743  43.501  11.924
68700W        W30154  22.172  15.707   1.305
68701W        W30155  17.661  37.523   0.951
68702W        W30156  25.192  32.537  14.338
68703W        W30157   8.885  11.288  13.958
68704W        W30158  21.535  35.932  13.528
68705W        W30159  29.580   7.717  13.851
68706W        W30160  44.317  14.132  10.631
68707W        W30161  16.635  30.157  12.828
68708W        W30162  34.373  33.937  12.446
68709W        W30163  22.100  25.490  12.862
68710W        W30164  19.039  25.498  12.914
68711W        W30165  12.711  25.672   0.886
68712W        W30166  23.017  40.491  13.810
68713W        W30167  13.167  40.508   3.267
68714W        W30168   1.787  29.940  11.375
68715W        W30169  23.615  40.835   2.377
68716W        W30170   4.397  22.251   3.726
68717W        W30171  34.986  36.475   1.763
68718W        W30172  34.583  29.090   2.340
68719W        W30173  11.670  25.542  11.067
68720W        W30174  28.527  11.796   3.751
68721W        W30175  34.949  41.527   2.216
68722W        W30176  12.151  40.977  12.020
68723W        W30177  44.780  24.560  13.889
68724W        W30178   1.732  30.633   4.624
68725W        W30179  32.483   7.884   2.312
68726W        W30180  16.235  26.656   3.829
68727W        W30181  20.719  38.526   4.335
68728W        W30182  14.707  26.690  10.469
68729W        W30183   8.167  31.989  12.378
68730W        W30184  10.138   8.764   0.927
68731W        W30185  42.298  42.901   3.215
68732W        W30186  14.742  30.978  11.385
68733W        W30187  34.060  35.089  10.548
68734W        W30188   7.404  28.619  10.470
68735W        W30189  42.316  38.882   1.757
68736W        W30190  31.494  44.276  11.400
68737W        W30191  12.179  42.972   1.876
68738W        W30192  38.440  22.173  13.545
68739W        W30193  13.836  37.888   0.832
68740W        W30194   9.863  39.008   0.457
68741W        W30195  16.220   3.411  12.846
68742W        W30196  28.060  42.915  12.349
68743W        W30197  30.447  26.990  12.530
68744W        W30198  24.060  38.416  14.409
68745W        W30199  33.488  33.402  10.021
68746W        W30200  40.528   6.710  10.969
68747W        W30201  33.423   2.898  13.365
68748W        W30202  42.492  24.614  14.385
68749W        W30203   3.270   6.272  10.494
68750W        W30204  32.504  16.195   0.333
68751W        W30205  20.118  41.937  12.530
68752W        W30206  10.871  19.761   2.341
68753W        W30207  15.672  22.045   4.296
68754W        W30208   3.875  24.698   3.818
68755W        W30209  13.347  12.305   3.722
68756W        W30210  34.085  40.359   1.722
68757W        W30211  19.777  30.091  10.638
68758W        W30212  21.545  14.736  12.842
68759W        W30213  40.396  12.624  12.949
68760W        W30214   2.900  34.017   0.291
68761W        W30215   0.344  17.790   3.677
68762W        W30216  21.689  18.121  12.485
68763W        W30217  14.681  30.605  10.579
68764W        W30218  27.585   3.432  10.986
68765W        W30219  21.597  32.631  12.081
68766W        W30220  12.836   5.423   1.389
68767W        W30221   9.762  27.543   3.246
68768W        W30222   4.831  33.883   0.777
68769W        W30223   7.773   8.215   1.309
68770W        W30224   5.752   8.896   4.731
68771W        W30225   8.667  18.128   5.106
68772W        W30226  44.353  44.455  14.907
68773W        W30227  37.463  29.601   5.260
68774W        W30228  44.984   2.238   2.875
68775W        W30229  24.663  23.984  14.502
68776W        W30230  29.501  24.643   2.724
68777W        W30231   5.299  18.103  12.350
68778W        W30232  28.680  23.603  12.448
68779W        W30233  19.176  12.136   1.844
68780W        W30234  35.454  13.230   3.838
68781W        W30235  37.544   3.367   2.362
68782W        W30236  43.308  20.769  11.518
68783W        W30237   6.855  21.198   2.701
68784W        W30238  14.609  35.985   3.712
68785W        W30239  44.845   8.735  11.470
68786W        W30240   4.371  22.686  11.433
68787W        W30241  13.692  23.726  12.982
68788W        W30242  24.601  30.121  10.525
68789W        W30243  24.081  15.151  12.959
68790W        W30244  14.711  18.250  10.908
68791W        W30245  42.351  15.203  12.452
68792W        W30246  30.095  29.076  14.446
68793W        W30247  23.501  19.099   2.884
68794W        W30248   5.843   1.399   2.779
68795W        W30249  29.175   8.264   4.204
68796W        W30250  29.987  32.108  14.496
68797W        W30251  17.122   9.241  11.028
68798W        W30252  24.717  31.921   3.708
68799W        W30253  23.024  12.139  12.958
68800W        W30254  26.572  31.931  14.489
68801W        W30255  25.172   6.921   4.822
68802W        W30256  21.136  10.675  12.997
68803W        W30257  38.894   2.471  12.878
68804W        W30258  31.003  14.276   5.099
68805W        W30259  42.336   1.758   3.176
68806W        W30260  21.670  35.874   1.714
68807W        W30261  39.534  26.545  13.874
68808W        W30262  24.723  12.292   2.299
68809W        W30263  27.513  25.996   4.730
68810W        W30264  43.781   3.311  13.009
68811W        W30265  42.836  43.875   3.668
68812W        W30266  24.699  24.210   2.850
68813W        W30267  40.035   0.378   2.758
68814W        W30268  38.559   1.811   2.814
68815W        W30269   0.953  13.250  12.513
68816W        W30270   9.224  34.926  11.583
68817W        W30271  28.089  26.654   3.209
68818W        W30272  20.101   8.248   5.585
68819W        W30273  16.132  34.952  13.537
68820W        W30274   5.897  19.092   4.123
68821W        W30275  41.030  41.503  14.443
68822W        W30276   6.812  10.307   4.787
68823W        W30277  24.079  10.302  14.512
68824W        W30278  35.360  42.907  10.978
68825W        W30279  36.467  13.318   4.146
68826W        W30280  15.719  15.578  10.632
68827W        W30281  27.990  11.183  11.099
68828W        W30282  36.471  32.015  12.051
68829W        W30283  18.690  22.160  11.926
68830W        W30284  35.546   6.203   1.336
68831W        W30285  35.072  36.096   2.212
68832W        W30286  44.859  24.205  13.450
68833W        W30287   8.310   3.762  11.862
68834W        W30288   5.887   9.756   2.285
68835W        W30289  29.541  10.738  10.490
68836W        W30290  11.149  43.914  12.387
68837W        W30291  44.791  36.464  13.026
68838W        W30292  37.992  34.099  12.872
68839W        W30293  32.046  29.079   1.801
68840W        W30294  37.835   2.854  11.860
68841W        W30295  17.078  44.755   1.291
68842W        W30296  19.157  32.586  12.925
68843W        W30297  12.323  16.272  14.814
68844W        W30298  25.110   2.264   0.473
68845W        W30299  22.190  28.095  11.112
68846W        W30300  31.442  15.294   0.349
68847W        W30301  30.603   2.291  12.845
68848W        W30302  10.639  44.936  10.424
68849W        W30303  11.130   4.448   3.827
68850W        W30304  11.215  19.626   2.770
68851W        W30305  42.469  39.057   1.318
68852W        W30306  12.718  31.917  14.440
68853W        W30307   0.423  39.405  10.576
68854W        W30308  28.130  26.091   0.804
68855W        W30309  20.158  16.583   1.366
68856W        W30310  38.901  39.950  13.331
68857W        W30311   1.800  21.659  12.358
68858W        W30312  40.864  42.508   2.852
68859W        W30313  40.006  44.904  10.576
68860W        W30314  29.988  24.525   5.147
68861W        W30315  19.729  41.911  13.412
68862W        W30316  33.448   9.244   2.241
68863W        W30317  23.136  29.578  14.304
68864W        W30318  23.650  16.741   1.431
68865W        W30319  23.148   0.365   2.730
68866W        W30320  37.419  17.194   4.339
68867W        W30321  40.308  24.626   3.851
68868W        W30322   3.729   8.759   4.736
68869W        W30323  31.055  11.200  13.383
68870W        W30324  30.080  13.698  12.864
68871W        W30325  19.269   9.826  11.090
68872W        W30326  32.926   1.778   2.215
68873W        W30327  12.821  31.902   2.700
68874W        W30328   8.257   7.401  14.010
68875W        W30329  36.959  31.062  13.516
68876W        W30330  12.727  24.067   4.809
68877W        W30331  41.335  23.609   0.393
68878W        W30332  15.254  27.640  11.407
68879W        W30333  33.893  13.122   4.244
68880W        W30334  29.648  24.724   2.315
68881W        W30335  32.444  41.884   0.431
68882W        W30336  31.463  34.056  12.990
68883W        W30337  25.128  21.645  13.855
68884W        W30338  20.602  32.934  10.545
68885W        W30339  17.299  20.040  11.534
68886W        W30340  44.270   8.740   5.123
68887W        W30341  12.119  37.352   4.181
68888W        W30342   8.364  35.451  10.459
68889W        W30343  36.392  34.524   4.753
68890W        W30344  14.688  14.312  14.847
68891W        W30345  23.044  37.501   2.382
68892W        W30346  12.302  43.383   3.348
68893W        W30347  14.636  14.294   0.370
68894W        W30348  42.492  41.481  13.023
68895W        W30349  15.646   1.252  13.837
68896W        W30350  27.569  33.043  13.851
68897W        W30351  43.269  29.117  13.008
68898W        W30352  42.359  33.959  13.524
68899W        W30353  23.070  34.459   1.861
68900W        W30354  23.647   2.911  14.290
68901W        W30355  14.768   4.208  10.501
68902W        W30356  33.418  15.732   2.403
68903W        W30357  42.411  35.463   3.674
68904W        W30358   2.227  31.553   4.225
68905W        W30359  27.497   5.699  11.023
68906W        W30360  44.470  24.076   1.880
68907W        W30361   0.300  40.026   2.896
68908W        W30362   3.359  32.553   1.319
68909W        W30363  15.296  22.137  14.473
68910W        W30364   7.404  14.753   2.871
68911W        W30365   9.158  23.095  13.912
68912W        W30366   9.793  39.525   2.888
68913W        W30367  24.090   0.797   4.768
68914W        W30368  41.356   5.932  13.347
68915W        W30369  13.214   9.250  10.893
68916W        W30370  18.716   6.265  12.509
68917W        W30371  43.957   6.207   4.161
68918W        W30372  27.559  28.170  11.052
68919W        W30373  29.924  35.932   0.337
68920W        W30374  27.473  17.295   0.925
68921W        W30375  13.841  36.857   2.695
68922W        W30376  16.139  27.447  14.331
68923W        W30377   4.277  29.075  13.514
68924W        W30378  22.249   7.213   0.483
68925W        W30379   0.425  29.103   4.681
68926W        W30380   4.252  25.125   3.176
68927W        W30381  35.052  43.802  13.871
68928W        W30382   3.362  12.181   2.873
68929W        W30383  38.959  16.791  11.101
68930W        W30384  38.383  28.564   3.334
68931W        W30385  32.959   7.280  10.416
68932W        W30386  44.372  30.604   4.225
68933W        W30387  42.958   7.806   4.794
68934W        W30388  29.537  39.521  11.862
68935W        W30389  40.465  37.564   4.765
68936W        W30390  18.093  25.093  14.975
68937W        W30391  44.980  32.635  12.950
68938W        W30392  29.067  36.876   1.816
68939W        W30393  15.606  31.442   1.306
68940W        W30394   5.736  40.922  10.414
68941W        W30395  37.877  15.242  11.110
68942W        W30396  36.494  35.068  14.516
68943W        W30397   3.277  12.722  10.098
68944W        W30398  35.504  28.671   1.800
68945W        W30399   2.880  10.715  11.105
68946W        W30400   1.294   7.686   2.313
68947W        W30401  18.568  28.986   3.237
68948W        W30402  43.347  11.726  13.896
68949W        W30403  44.439  38.011  13.310
68950W        W30404  11.219   1.902   1.310
68951W        W30405  44.009  20.566   3.203
68952W        W30406  23.112  40.404   4.788
68953W        W30407  16.273  12.354   4.349
68954W        W30408  16.178  16.269   0.812
68955W        W30409  33.937  24.514   0.269
68956W        W30410  32.628  33.450  14.880
68957W        W30411   1.346  20.132  11.517
68958W        W30412  15.779  40.478   0.286
68959W        W30413  28.439  25.056   4.224
68960W        W30414  12.197  37.572  14.321
68961W        W30415  34.548  34.011  11.406
68962W        W30416  27.151  32.969  12.941
68963W        W30417  44.400  33.429   4.224
68964W        W30418   0.828  21.650  12.839
68965W        W30419  25.582  39.859   2.302
68966W        W30420  27.181  37.054   2.778
68967W        W30421  26.986  18.694   3.842
68968W        W30422  23.151   3.457   5.122
68969W        W30423  12.720  36.574  13.346
68970W        W30424  23.169  12.731   4.318
68971W        W30425  22.246   8.823   3.246
68972W        W30426   3.801  12.702   2.689
68973W        W30427  33.059  25.078  10.542
68974W        W30428  20.230  23.074  13.310
68975W        W30429  28.616   6.858   2.819
68976W        W30430   1.391  22.518  12.941
68977W        W30431  17.600  36.885   4.707
68978W        W30432  31.988  13.332  14.766
68979W        W30433  11.250  15.311   3.695
68980W        W30434  39.001  26.634   2.799
68981W        W30435  22.550  11.308  10.411
68982W        W30436   4.447  16.278  11.858
68983W        W30437   6.891  13.776   1.258
68984W        W30438  39.851  11.842   1.708
68985W        W30439   7.322  21.253  11.550
68986W        W30440  26.069  14.789  14.801
68987W        W30441  16.277  39.345   5.586
68988W        W30442  32.024  35.082  14.509
68989W        W30443  26.166  39.033  13.422
68990W        W30444  28.031   0.366  13.858
68991W        W30445  35.062   9.741  11.373
68992W        W30446   7.776  31.999  13.815
68993W        W30447  43.813  24.202  13.535
68994W        W30448   5.421  28.568  11.502
68995W        W30449  15.754  29.528   4.780
68996W        W30450  32.424  20.768  14.987
68997W        W30451  28.460  22.683   4.799
68998W        W30452   8.270  30.482  10.061
68999W        W30453   3.276  22.156  13.007
69000W        W30454  38.419  37.083  14.471
69001W        W30455   1.385  10.274  14.901
69002W        W30456  13.739   9.267   2.198
69003W        W30457  24.724   1.968   0.823
69004W        W30458  30.497  21.618  14.850
69005W        W30459  42.812  39.413  10.981
69006W        W30460  21.680   5.306  12.920
69007W        W30461  11.220   9.783  12.852
69008W        W30462  31.499  17.713   1.793
69009W        W30463   2.445  20.257   1.234
69010W        W30464   5.874  42.843  12.882
69011W        W30465   0.261  30.488  10.434
69012W        W30466  16.715  38.934   1.790
69013W        W30467  27.116   9.245  10.472
69014W        W30468  26.556  13.768   4.726
69015W        W30469  34.055  40.471  10.095
69016W        W30470   1.938  10.864  13.010
69017W        W30471  17.172  41.916  12.445
69018W        W30472  29.558   0.887   0.360
69019W        W30473  20.649  30.927  13.975
69020W        W30474  24.681  23.170  13.942
69021W        W30475  39.448  33.064  14.510
69022W        W30476  19.098  44.921   3.283
69023W        W30477   2.769  31.011   3.662
69024W        W30478   9.782  20.168   4.249
69025W        W30479  36.352  41.943   1.934
69026W        W30480   1.941  18.598   4.328
69027W        W30481  14.309  37.343   3.277
69028W        W30482  16.738  23.162  12.480
69029W        W30483  13.233  36.484   4.311
69030W        W30484  14.598  16.291  11.071
69031W        W30485  18.737  27.520  14.314
69032W        W30486  34.064  29.990   1.831
69033W        W30487  28.166  15.807   0.814
69034W        W30488  21.668  27.654  12.496
69035W        W30489   2.880  36.378   1.347
69036W        W30490  39.364  38.342   3.810
69037W        W30491  28.669  28.552  14.961
69038W        W30492  23.585  13.754   3.308
69039W        W30493  12.135  22.552  14.373
69040W        W30494  28.961   4.706   4.801
69041W        W30495  28.049  37.894   2.283
69042W        W30496  29.649   9.262  14.444
69043W        W30497  21.602  31.925   4.202
69044W        W30498  10.819  24.030   0.900
69045W        W30499   3.280   7.216  13.499
69046W        W30500  34.893   0.333  11.438
69047W        W30501  21.139  40.882   1.280
69048W        W30502   3.284  38.975   0.341
69049W        W30503  36.473  37.479  13.394
69050W        W30504  32.521  32.435   2.211
69051W        W30505  35.918  22.522  14.985
69052W        W30506  40.981  17.225  11.990
69053W        W30507  28.063  28.554  10.965
69054W        W30508  33.385  16.193  12.539
69055W        W30509  21.226  28.516  14.765
69056W        W30510  23.101  26.636  13.430
69057W        W30511  19.621  15.309   4.812
69058W        W30512  21.089  11.315   4.230
69059W        W30513  29.930  18.615  14.808
69060W        W30514  13.733  11.666  12.824
69061W        W30515   9.771  29.090  13.362
69062W        W30516  25.981  18.203   1.886
69063W        W30517  11.728  34.470  12.427
69064W        W30518  43.915  15.657  10.594
69065W        W30519  27.467  32.462  14.420
69066W        W30520  34.050  20.190   1.708
69067W        W30521  34.398   0.852  11.587
69068W        W30522  39.348  25.148  13.513
69069W        W30523  35.876  39.553   4.123
69070W        W30524  14.161  40.321   2.873
69071W        W30525  18.060  13.813  14.904
69072W        W30526  22.072  30.030  13.048
69073W        W30527  44.793  27.034  11.446
69074W        W30528  26.516  39.342   4.129
69075W        W30529  25.993  21.675   3.772
69076W        W30530  20.073  41.380  12.054
69077W        W30531  19.058  43.388  14.856
69078W        W30532  10.241  37.898  13.423
69079W        W30533   9.720   0.349  12.842
69080W        W30534  11.744   5.874   4.663
69081W        W30535  29.529  34.049  11.374
69082W        W30536   4.286  23.083   1.438
69083W        W30537  14.239  31.060  14.912
69084W        W30538  29.070   7.301   2.722
69085W        W30539  13.134  11.138   4.293
69086W        W30540  13.612  33.992  10.902
69087W        W30541  21.056  43.822   1.231
69088W        W30542  30.011  38.005  14.831
69089W        W30543  21.602  17.621   1.420
69090W        W30544  37.412  34.385   4.787
69091W        W30545  12.711  43.778  10.442
69092W        W30546   0.441  40.406   1.321
69093W        W30547  31.084  27.021   1.365
69094W        W30548   8.368  29.033   1.313
69095W        W30549   6.849  41.809   2.291
69096W        W30550   7.744   8.745   1.388
69097W        W30551  15.301  34.962   1.802
69098W        W30552   5.372  29.932   2.849
69099W        W30553  20.213  43.885   3.772
69100W        W30554  21.178  29.666   2.828
69101W        W30555   3.346  35.564   3.709
69102W        W30556  14.760  12.307  14.284
69103W        W30557   1.413  34.941   1.212
69104W        W30558   4.307  41.889   4.353
69105W        W30559  18.619  13.771  12.517
69106W        W30560  40.343  20.658   0.775
69107W        W30561  18.260  20.159   1.411
69108W        W30562   2.878  17.677  10.509
69109W        W30563  27.671  32.522  11.437
69110W        W30564  27.617   9.838   2.221
69111W        W30565  40.316   6.796   1.794
69112W        W30566  17.251  13.687   1.860
69113W        W30567   3.388  20.087   4.128
69114W        W30568  18.118  10.184  12.556
69115W        W30569  30.462  14.692  11.035
69116W        W30570   8.184  24.680  14.407
69117W        W30571  34.411  29.946  12.020
69118W        W30572  26.163  34.910   1.245
69119W        W30573  13.730  25.670   4.800
69120W        W30574  30.612  37.923  10.603
69121W        W30575   3.274  34.568   0.894
69122W        W30576   8.217  28.569   0.304
69123W        W30577  29.607   7.402   5.277
69124W        W30578   0.931  19.734  10.950
69125W        W30579  37.367  26.972   2.878
69126W        W30580  43.799  14.178  14.358
69127W        W30581  13.685   2.431  13.967
69128W        W30582  19.041   5.690  11.989
69129W        W30583  25.675  28.117  10.489
69130W        W30584  21.079   6.385   4.339
69131W        W30585  10.179   8.696  14.355
69132W        W30586  14.116  25.509  13.527
69133W        W30587   3.756   8.275  11.026
69134W        W30588  38.469   1.758  13.308
69135W        W30589   6.833  18.626   4.615
69136W        W30590  22.622   5.421   1.738
69137W        W30591   4.394  18.667  13.422
69138W        W30592  12.843  29.539  13.365
69139W        W30593  34.471  21.572   0.850
69140W        W30594  44.985  24.114  10.423
69141W        W30595  22.104   3.341   3.275
69142W        W30596  43.453  39.538   0.450
69143W        W30597   8.696  17.578  14.891
69144W        W30598  27.956  17.726  13.382
69145W        W30599  30.156  42.488   2.416
69146W        W30600  23.604  40.328   3.817
69147W        W30601  23.139  18.645   0.948
69148W        W30602  10.788  23.227  10.955
69149W        W30603   7.894   1.878  12.396
69150W        W30604  40.807  22.531   1.438
69151W        W30605  38.907  31.985  12.550
69152W        W30606  40.336  24.059   5.275
69153W        W30607   3.796  37.844   3.163
69154W        W30608  33.437  30.119  13.436
69155W        W30609  10.762  22.634   0.867
69156W        W30610  22.083   7.696   5.170
69157W        W30611  23.646  43.429  13.014
69158W        W30612   6.799  33.399   4.730
69159W        W30613  30.596  14.696  12.994
69160W        W30614   5.718   1.451   4.189
69161W        W30615  10.767  23.095   1.708
69162W        W30616  23.118  39.061   0.396
69163W        W30617  35.875  14.637  12.831
69164W        W30618  10.153  28.642   3.706
69165W        W30619  11.792  32.425   5.217
69166W        W30620   6.879  37.427   1.357
69167W        W30621   2.800  15.625   0.739
69168W        W30622  30.437  25.132  14.941
69169W        W30623   9.364  14.640   2.361
69170W        W30624  15.765  17.120  10.916
69171W        W30625  36.067  37.873  11.862
69172W        W30626  26.032  24.641  14.779
69173W        W30627   2.897  10.301  10.019
69174W        W30628  19.042  16.313  11.868
69175W        W30629  31.999   4.897   2.299
69176W        W30630  34.478   8.291  11.012
69177W        W30631  31.605   6.765  13.846
69178W        W30632   9.289  32.428  13.396
69179W        W30633  17.627  40.917   0.388
69180W        W30634  24.085  21.626  12.557
69181W        W30635   1.252  44.831  13.367
69182W        W30636  34.483  11.185   2.890
69183W        W30637  27.662  25.577   1.925
69184W        W30638  23.559  10.676   0.383
69185W        W30639  14.189  38.934   9.479
69186W        W30640   1.765  33.990   3.719
69187W        W30641  11.310  40.388   3.166
69188W        W30642  26.121   0.853  14.323
69189W        W30643  33.022  43.934  12.510
69190W        W30644  12.657  27.633   0.345
69191W        W30645  22.080  30.085   4.716
69192W        W30646  15.633   5.426  12.859
69193W        W30647   8.210  13.301  12.570
69194W        W30648  34.058  21.242  11.110
69195W        W30649  32.965  35.537  14.897
69196W        W30650  25.073  40.045   4.794
69197W        W30651  25.979  13.126   1.312
69198W        W30652  17.705   7.381   0.763
69199W        W30653   7.295  40.311   0.296
69200W        W30654  11.750   3.283   4.660
69201W        W30655  16.295  11.823   1.317
69202W        W30656   7.352  19.549   4.799
69203W        W30657  44.377  28.029   3.794
69204W        W30658  15.187  24.052   1.912
69205W        W30659  23.158   9.763  11.969
69206W        W30660  30.074  21.205  10.963
69207W        W30661  38.953   4.402   4.208
69208W        W30662  19.616  40.470   0.804
69209W        W30663  30.988   7.866   5.199
69210W        W30664   0.258  13.773   3.325
69211W        W30665   7.909  35.483  13.950
69212W        W30666  39.964  17.738   1.771
69213W        W30667  17.595   7.201  10.618
69214W        W30668  16.594  29.155  12.039
69215W        W30669  27.472  14.283   2.818
69216W        W30670   7.412  27.622  10.435
69217W        W30671  37.066  39.379  11.948
69218W        W30672  39.516  20.556   3.384
69219W        W30673  40.413  43.974   3.288
69220W        W30674   5.858   1.877   2.409
69221W        W30675   8.351  44.961   0.253
69222W        W30676   6.676  32.099  11.021
69223W        W30677  40.812   3.242  12.382
69224W        W30678  42.813  30.462   3.307
69225W        W30679  35.898  18.278   3.820
69226W        W30680   2.881  20.587  11.492
69227W        W30681  43.288  16.225  11.609
69228W        W30682  28.049  42.448  10.534
69229W        W30683  18.733  39.879   1.839
69230W        W30684  26.601  15.151   1.322
69231W        W30685  21.165  22.636   4.309
69232W        W30686  12.271   7.290   1.858
69233W        W30687  10.761  34.907  13.852
69234W        W30688  20.180  17.610  14.984
69235W        W30689  11.732   0.261  14.784
69236W        W30690  17.655   8.394   3.331
69237W        W30691  27.463  19.583  10.454
69238W        W30692   7.678   2.263  14.500
69239W        W30693  32.009  42.971  12.428
69240W        W30694  44.434   2.279  11.043
69241W        W30695   1.824   5.858   0.744
69242W        W30696  39.434  27.190   4.791
69243W        W30697  22.198  22.507  11.964
69244W        W30698  11.798  41.935   1.236
69245W        W30699  11.723  25.183  11.442
69246W        W30700  32.922  23.113  11.452
69247W        W30701  25.611  16.647  14.846
69248W        W30702  33.994   3.297  11.034
69249W        W30703  29.921  17.644  14.025
69250W        W30704  35.083  36.472  11.861
69251W        W30705  28.185  34.418  14.360
69252W        W30706  33.027  12.616  11.993
69253W        W30707  33.448  14.829   4.702
69254W        W30708  23.574  25.668  14.431
69255W        W30709  30.437   6.305  14.370
69256W        W30710  11.243  44.314  12.520
69257W        W30711  37.897   7.240  13.462
69258W        W30712  24.694  33.883  11.436
69259W        W30713   3.763  10.800   1.306
69260W        W30714   3.833  42.984  14.295
69261W        W30715  35.932  30.621   2.877
69262W        W30716  42.902  33.985  11.460
69263W        W30717  33.506  33.494  10.404
69264W        W30718   8.696  30.444  11.530
69265W        W30719  10.241   5.722   4.670
69266W        W30720   5.242   7.251   2.385
69267W        W30721   6.724  17.583  11.595
69268W        W30722  13.840  26.081   4.263
69269W        W30723  25.585   1.279   4.779
69270W        W30724  34.908  35.497  12.957
69271W        W30725  41.966  12.248   1.844
69272W        W30726   8.877  28.463  11.887
69273W        W30727  27.495  29.008  12.867
69274W        W30728  21.030   2.902   2.335
69275W        W30729  41.816   7.784  13.400
69276W        W30730  39.895  23.030   1.879
69277W        W30731  23.709  21.082   5.216
69278W        W30732  29.933  34.874  14.900
69279W        W30733  23.516  33.890   0.909
69280W        W30734  15.088  33.878   2.396
69281W        W30735   3.388  41.332   2.759
69282W        W30736  31.007   2.423  11.459
69283W        W30737   9.344  36.023   2.786
69284W        W30738  38.416  31.486   4.264
69285W        W30739  40.936  25.537  12.051
69286W        W30740   7.829   0.283   0.298
69287W        W30741  17.191  20.140   0.856
69288W        W30742   5.849  42.805   2.803
69289W        W30743   8.860  44.349   0.858
69290W        W30744  19.583  42.281   3.145
69291W        W30745  25.121   0.744   0.846
69292W        W30746  30.997  39.853   2.363
69293W        W30747  28.977  13.821  10.569
69294W        W30748  39.986   0.951   1.785
69295W        W30749   5.899  20.524  13.812
69296W        W30750  25.605  28.619   2.858
69297W        W30751  13.659  37.858   4.135
69298W        W30752  38.439   5.766  13.307
69299W        W30753  36.501  13.674   2.837
69300W        W30754  34.084  37.535  13.382
69301W        W30755  44.007  37.055  13.908
69302W        W30756  22.019  32.927   2.743
69303W        W30757  33.493   2.954   3.282
69304W        W30758   7.171   3.351  12.868
69305W        W30759   9.309   3.734  12.083
69306W        W30760  13.600  16.596   4.119
69307W        W30761  40.899   0.425   1.325
69308W        W30762   1.455  21.551   2.726
69309W        W30763  29.528  43.902   1.881
69310W        W30764  12.191  10.789  11.971
69311W        W30765  22.146  39.486   3.332
69312W        W30766  16.657  12.196  13.968
69313W        W30767  38.051  30.613   4.304
69314W        W30768   1.314  26.566  10.435
69315W        W30769  20.529  13.738   4.771
69316W        W30770   6.265  43.913   4.202
69317W        W30771  28.164  31.544   1.344
69318W        W30772   2.923  20.166   3.667
69319W        W30773  44.323  18.196  13.473
69320W        W30774   9.255   6.399  11.581
69321W        W30775  24.126  17.724   0.263
69322W        W30776  43.928  10.223  11.475
69323W        W30777   4.752  36.388  11.011
69324W        W30778  24.514  44.352   1.918
69325W        W30779  20.044  15.657  12.894
69326W        W30780  29.613  20.032   2.863
69327W        W30781  41.506  19.116   3.223
69328W        W30782  10.245  17.193   2.853
69329W        W30783  34.502  28.529  14.030
69330W        W30784  32.141   2.884  13.946
69331W        W30785  39.553  25.133   2.269
69332W        W30786  42.368  26.467   2.377
69333W        W30787  36.359  29.459   1.785
69334W        W30788  31.025   0.816   2.748
69335W        W30789   2.354  21.524  12.388
69336W        W30790  18.290  11.865   3.349
69337W        W30791   3.252  26.576   4.263
69338W        W30792  17.790  33.590  13.384
69339W        W30793  13.827  17.629  10.894
69340W        W30794   0.487  26.514  13.312
69341W        W30795  42.851  36.567  14.452
69342W        W30796  31.936  18.242   1.849
69343W        W30797  39.420  38.487  14.352
69344W        W30798   5.377   6.411   4.343
69345W        W30799   4.339  22.020   3.318
69346W        W30800  31.991   8.888  13.798
69347W        W30801  33.965  41.018   2.405
69348W        W30802  10.155  11.284  11.429
69349W        W30803  41.911  26.536   0.810
69350W        W30804  21.560  17.695  13.945
69351W        W30805  35.091  21.552  14.496
69352W        W30806  44.471   4.306   0.848
69353W        W30807  14.644   7.667   3.689
69354W        W30808   7.395   8.663   3.198
69355W        W30809  12.636  17.609   2.758
69356W        W30810  28.156   9.255   3.264
69357W        W30811   7.253  42.777  10.576
69358W        W30812  20.043  26.190   4.668
69359W        W30813  14.179  18.094   2.900
69360W        W30814  43.838  32.635   0.254
69361W        W30815  17.694  31.908   0.431
69362W        W30816  12.356  24.179   4.156
69363W        W30817   5.408  40.376   1.336
69364W        W30818  29.442  41.347  11.380
69365W        W30819  28.524   4.746   2.809
69366W        W30820  24.128   1.348   4.319
69367W        W30821  17.219   5.379  10.458
69368W        W30822  29.619  29.093   1.823
69369W        W30823   5.790  16.078  11.374
69370W        W30824  31.433  30.948   3.354
69371W        W30825   1.478  19.686   3.282
69372W        W30826   4.813  27.544  14.985
69373W        W30827  27.572  22.078  10.943
69374W        W30828  14.758  32.585  13.348
69375W        W30829  28.574   1.941   0.296
69376W        W30830   6.873  14.306   0.292
69377W        W30831   8.281  23.222   4.354
69378W        W30832   6.793  16.275   4.140
69379W        W30833  38.034  11.717  14.798
69380W        W30834  24.697  12.830  10.454
69381W        W30835  10.210  31.046   1.839
69382W        W30836  24.526  23.617  14.314
69383W        W30837  30.097  11.824  14.886
69384W        W30838  23.149  33.015   3.292
69385W        W30839  42.930  14.144  11.022
69386W        W30840  38.882  36.936   0.913
69387W        W30841  41.506  17.677   3.718
69388W        W30842   8.241   9.213  10.550
69389W        W30843  42.818  37.060   0.417
69390W        W30844  34.056  19.189   0.856
69391W        W30845   2.426  44.797  11.469
69392W        W30846  21.146  15.723   0.306
69393W        W30847  13.787  42.466   3.718
69394W        W30848  11.777   9.739  14.433
69395W        W30849  20.580  31.495   1.734
69396W        W30850  20.103  28.994  10.551
69397W        W30851  36.917  30.011   3.305
69398W        W30852  11.837   9.855  13.460
69399W        W30853  22.546  26.601   2.708
69400W        W30854  29.498   9.243   0.746
69401W        W30855   9.838  20.590   1.251
69402W        W30856  11.292   2.828   2.707
69403W        W30857  18.267  29.651   4.284
69404W        W30858  42.291  37.461   4.226
69405W        W30859  13.127  41.984   3.653
69406W        W30860  26.541  12.854   9.922
69407W        W30861   2.401   4.929   1.848
69408W        W30862  13.233  18.233   2.278
69409W        W30863  41.464  23.142  13.485
69410W        W30864  42.004   3.723  10.452
69411W        W30865  10.307  11.678  12.419
69412W        W30866  14.594  34.865   0.462
69413W        W30867  11.623  27.083  13.436
69414W        W30868  20.529  27.072   0.885
69415W        W30869  40.489   7.387  11.561
69416W        W30870  10.706  25.038  11.053
69417W        W30871   3.738  37.478   2.870
69418W        W30872  16.811  30.960   3.641
69419W        W30873  27.019  11.848   3.661
69420W        W30874  30.138  40.334  11.466
69421W        W30875  22.095  17.204  11.473
69422W        W30876   2.822  15.301   2.228
69423W        W30877  44.974  40.991   3.190
69424W        W30878   8.658  41.810   1.777
69425W        W30879  36.423   4.272   0.438
69426W        W30880  25.535  29.438   0.302
69427W        W30881  26.082  13.602  13.883
69428W        W30882  16.698  34.863   1.895
69429W        W30883   9.714   6.818   2.240
69430W        W30884  42.928  28.949  14.985
69431W        W30885  43.497  31.073  10.525
69432W        W30886   4.938  22.731   5.148
69433W        W30887  27.533  30.417  14.933
69434W        W30888  15.797   3.914  13.887
69435W        W30889  42.379   2.875   0.828
69436W        W30890  30.575  18.603   1.771
69437W        W30891  40.422  25.534  12.871
69438W        W30892   2.419  39.507  14.927
69439W        W30893  17.181   8.693  11.069
69440W        W30894  18.134  18.202  10.898
69441W        W30895  14.126  42.372  12.380
69442W        W30896  44.324  29.986  10.424
69443W        W30897  39.885  34.534   4.161
69444W        W30898  32.442  42.434   3.200
69445W        W30899   7.284   1.943  12.357
69446W        W30900  15.274   6.732   3.695
69447W        W30901  43.001  18.647  13.543
69448W        W30902  38.364  24.537   4.677
69449W        W30903  39.065   0.333   0.352
69450W        W30904  12.224   5.395   0.356
69451W        W30905  17.080  37.546   0.727
69452W        W30906  11.283  25.142  14.482
69453W        W30907   6.305  17.788   0.773
69454W        W30908  24.657   7.699   0.438
69455W        W30909  11.840  12.207  10.561
69456W        W30910  37.067   9.755   0.281
69457W        W30911   6.818  32.415   4.140
69458W        W30912  41.034  34.120   4.257
69459W        W30913  14.164  43.305  13.334
69460W        W30914  20.729  29.950   4.338
69461W        W30915   7.892  11.322  10.578
69462W        W30916  42.822   1.902   2.900
69463W        W30917  25.050  21.057  11.943
69464W        W30918  10.642  41.484   0.402
69465W        W30919  27.971  22.504   0.840
69466W        W30920  10.241  41.885   4.352
69467W        W30921  40.508   4.268   0.359
69468W        W30922   7.356  20.691  10.475
69469W        W30923   3.380  17.096  11.452
69470W        W30924  15.700   2.457   0.774
69471W        W30925  16.314  17.647  14.328
69472W        W30926  42.453  22.746   2.331
69473W        W30927  17.254  22.147   3.837
69474W        W30928  28.449  37.084  11.943
69475W        W30929  20.523  22.657  14.938
69476W        W30930   1.304   7.247  12.527
69477W        W30931   2.244  23.666   0.399
69478W        W30932  29.577   2.314   2.706
69479W        W30933  36.493   1.877   0.404
69480W        W30934  20.668  23.490   3.147
69481W        W30935  44.010  12.322   0.354
69482W        W30936   1.942   7.740   1.864
69483W        W30937  11.777  13.741  10.610
69484W        W30938  43.316   4.296  14.296
69485W        W30939  23.042  17.601  14.447
69486W        W30940  21.600   2.318   2.896
69487W        W30941  13.163  31.962   5.117
69488W        W30942  27.490  42.484  14.024
69489W        W30943  44.952  44.471  13.483
69490W        W30944  24.016  15.149  11.569
69491W        W30945  34.561  15.738  13.984
69492W        W30946   4.368  36.376   4.286
69493W        W30947  13.145  30.154   4.715
69494W        W30948  23.116  27.545   1.710
69495W        W30949  30.487   5.772  10.996
69496W        W30950  44.782  42.495  11.526
69497W        W30951  12.851  22.698   0.374
69498W        W30952  27.080  17.758   4.213
69499W        W30953  34.066  26.660  13.427
69500W        W30954   4.765  31.086   2.806
69501W        W30955  15.770  35.906   5.201
69502W        W30956   0.321  34.954   4.168
69503W        W30957  21.075  23.627   0.351
69504W        W30958   6.794  18.654  13.425
69505W        W30959  40.361  43.358   0.871
69506W        W30960  13.263  35.527  11.060
69507W        W30961  23.651  23.209   0.939
69508W        W30962  18.723  23.668  12.557
69509W        W30963   6.854  25.611  12.826
69510W        W30964   2.332  17.221   9.923
69511W        W30965   1.331  15.153  13.064
69512W        W30966  20.058  32.972  10.607
69513W        W30967   3.233  35.577  11.092
69514W        W30968  11.158  33.622  13.982
69515W        W30969  11.263  28.092   1.745
69516W        W30970   9.175  31.549   1.702
69517W        W30971   5.404  32.032  12.946
69518W        W30972  10.362  29.518  14.904
69519W        W30973   7.842  28.967   3.336
69520W        W30974  34.474   2.230  10.589
69521W        W30975  39.954  27.047   3.323
69522W        W30976  27.477  22.161   4.674
69523W        W30977   8.245  37.931   1.434
69524W        W30978  11.244  43.942  12.934
69525W        W30979  21.610  18.103  14.870
69526W        W30980   7.215   5.920  13.547
69527W        W30981  12.307  36.942   0.365
69528W        W30982   0.328  21.064  13.994
69529W        W30983  37.875  21.651   4.681
69530W        W30984   2.232  14.221   5.219
69531W        W30985  24.207   9.774   4.131
69532W        W30986  22.507  37.961   0.934
69533W        W30987  10.231  22.725  14.789
69534W        W30988  34.442  11.239  10.510
69535W        W30989  30.527  37.083  13.892
69536W        W30990  23.696  35.092  12.412
69537W        W30991  23.111  29.644   2.293
69538W        W30992  22.044  24.224   0.458
69539W        W30993  13.164  40.377  14.800
69540W        W30994   1.381  43.515   1.833
69541W        W30995   0.447   1.342  11.609
69542W        W30996  11.651  40.337  12.067
69543W        W30997  16.809  14.134  14.987
69544W        W30998   6.803  11.846  10.576
69545W        W30999   5.392   9.376  12.090
69546W        W31000  20.146  30.498  14.002
69547W        W31001  23.654  43.873   2.215
69548W        W31002  16.166  13.706   4.307
69549W        W31003  44.917  10.250   0.842
69550W        W31004  27.974  11.128  14.415
69551W        W31005   1.422  29.498   1.830
69552W        W31006  24.194   4.312  10.500
69553W        W31007  13.281  40.427   4.142
69554W        W31008   1.418  35.986   4.294
69555W        W31009  29.642  34.893   1.783
69556W        W31010  37.918  39.951  14.276
69557W        W31011  29.980  28.677  13.004
69558W        W31012   7.342  41.849  11.070
69559W        W31013  31.566  16.159   2.196
69560W        W31014  38.822  16.599   1.409
69561W        W31015  35.092  27.039   3.247
69562W        W31016  30.061   4.418  13.933
69563W        W31017  44.953  26.960   2.768
69564W        W31018  33.006  33.121  13.502
69565W        W31019  25.478   5.361   0.926
69566W        W31020  41.839  39.353   5.087
69567W        W31021  26.549  19.684   2.249
69568W        W31022  44.937  40.404   1.340
69569W        W31023   7.747  22.249   3.705
69570W        W31024  40.905  27.014  11.879
69571W        W31025  43.974  22.565  10.930
69572W        W31026  19.124   1.467  11.466
69573W        W31027   0.809  22.728  12.046
69574W        W31028   2.884   7.208   3.242
69575W        W31029  16.170  12.801  12.961
69576W        W31030  42.398  20.131   2.275
69577W        W31031  42.410  39.370  10.615
69578W        W31032  43.878  28.082  12.887
69579W        W31033   3.323   7.866  14.275
69580W        W31034   5.716  44.876   0.468
69581W        W31035  40.023  11.256   2.832
69582W        W31036  31.577   5.232   0.912
69583W        W31037  44.983  38.948  11.374
69584W        W31038  22.073   7.809   3.679
69585W        W31039  35.540  41.988   3.238
69586W        W31040  43.306  44.316  13.809
69587W        W31041  12.687  27.598  12.986
69588W        W31042  23.222  28.522   3.639
69589W        W31043  37.868  27.959  11.491
69590W        W31044  33.622  37.878   1.232
69591W        W31045  16.782   1.417   2.836
69592W        W31046  17.682  17.154   1.311
69593W        W31047  18.246  37.531   1.813
69594W        W31048  27.578  37.565  12.980
69595W        W31049  29.951  22.105   4.790
69596W        W31050  31.021  44.462   2.326
69597W        W31051  31.505  33.018   4.610
69598W        W31052   4.820  29.014  14.390
69599W        W31053  20.224  24.610  14.761
69600W        W31054  17.142  15.735  10.574
69601W        W31055   7.763  41.003   4.270
69602W        W31056  41.971  24.151   0.265
69603W        W31057  42.996  12.768  11.891
69604W        W31058  12.255  29.598   3.743
69605W        W31059  29.960   7.714  10.610
69606W        W31060  19.657  16.177   2.293
69607W        W31061   9.714  29.635  13.033
69608W        W31062  36.950  28.535  13.927
69609W        W31063  18.139  15.710   3.254
69610W        W31064  23.011  43.011  13.329
69611W        W31065  28.566  14.306  10.992
69612W        W31066  21.670  26.008  10.908
69613W        W31067  39.435   3.867  10.889
69614W        W31068  44.353  31.578  10.999
69615W        W31069  17.582  33.506   2.834
69616W        W31070  25.488  11.143   2.788
69617W        W31071  15.696   9.715  11.408
69618W        W31072   9.829  36.508   4.325
69619W        W31073  33.953  31.018   3.630
69620W        W31074  26.596  31.523  14.818
69621W        W31075  15.190   8.353  10.897
69622W        W31076   7.225  19.109  10.544
69623W        W31077  16.271  23.616  11.990
69624W        W31078  30.502  34.059   1.884
69625W        W31079  31.509   2.366  11.872
69626W        W31080  39.352  42.005   0.303
69627W        W31081  13.140  14.792  10.605
69628W        W31082  15.659   2.851   4.766
69629W        W31083  39.938  21.129   1.360
69630W        W31084   3.396  15.675   4.641
69631W        W31085  38.344  30.654   3.730
69632W        W31086  11.719  16.702  12.480
69633W        W31087  15.085   3.730   1.703
69634W        W31088  33.459  24.509  12.349
69635W        W31089   4.922  27.965   1.809
69636W        W31090  26.019  26.149   1.889
69637W        W31091  27.197  31.942   9.995
69638W        W31092  15.122   9.153   5.776
69639W        W31093  12.673  17.562   4.347
69640W        W31094  41.919  27.649  12.074
69641W        W31095  20.190  44.351  12.476
69642W        W31096  35.036  10.324   4.655
69643W        W31097  35.086   9.649   4.255
69644W        W31098  17.160  25.559  14.505
69645W        W31099   2.936  35.441   3.746
69646W        W31100  33.101  40.005  12.983
69647W        W31101   2.846   1.409  12.929
69648W        W31102  17.558   8.887  14.324
69649W        W31103  27.972  22.624   2.351
69650W        W31104  31.507   5.691  11.481
69651W        W31105  30.133   4.857  12.482
69652W        W31106   3.389  33.598  13.390
69653W        W31107  20.164   7.873  12.501
69654W        W31108  17.801  39.437  11.073
69655W        W31109  35.023  11.763  10.635
69656W        W31110  24.037  40.527   0.937
69657W        W31111  23.176  44.270   0.740
69658W        W31112  30.434   7.867   3.682
69659W        W31113  22.680  28.095  11.869
69660W        W31114  35.079  22.668   4.201
69661W        W31115  24.579  39.961  12.867
69662W        W31116  10.219  43.330   1.421
69663W        W31117  43.271  27.535   1.448
69664W        W31118  17.660  13.839   2.213
69665W        W31119  42.018  37.443   3.847
69666W        W31120  39.553  34.017  11.112
69667W        W31121   6.759  42.337  10.457
69668W        W31122   2.340   5.716   0.842
69669W        W31123   9.745  34.895   2.392
69670W        W31124  22.567  14.340   5.091
69671W        W31125   9.670  11.765   3.658
69672W        W31126   8.667   6.793  13.369
69673W        W31127  13.651   6.404   0.900
69674W        W31128   5.735  35.097  13.802
69675W        W31129  27.008   7.253  13.822
69676W        W31130  23.214  40.810   2.362
69677W        W31131  32.518  42.992   4.636
69678W        W31132  27.561   8.362   3.701
69679W        W31133  31.598  38.475  14.829
69680W        W31134  44.300  20.070   5.272
69681W        W31135  11.240  13.115  14.339
69682W        W31136   4.919   0.372  10.986
69683W        W31137  40.926  18.680  10.462
69684W        W31138  34.536   7.290   2.758
69685W        W31139  22.503  14.142  13.976
69686W        W31140  25.617  33.890   4.241
69687W        W31141  31.598   6.919   4.298
69688W        W31142  34.921  16.676   3.357
69689W        W31143  36.939  24.038   4.145
69690W        W31144   3.863  35.916  10.615
69691W        W31145  15.260  34.392  14.394
69692W        W31146   3.401   0.337  12.860
69693W        W31147  19.633  43.496   4.707
69694W        W31148  18.163  33.381   1.335
69695W        W31149  44.481  13.628   3.864
69696W        W31150  21.034  24.989  12.990
69697W        W31151   5.409  15.811   4.118
69698W        W31152  34.882  11.337   2.875
69699W        W31153  33.436  20.251  10.602
69700W        W31154   7.322  26.065  12.561
69701W        W31155  33.617   1.934   1.749
69702W        W31156  37.460  32.451  11.445
69703W        W31157  39.522  43.900   2.369
69704W        W31158  44.492  18.206  14.933
69705W        W31159   6.868  40.798   3.325
69706W        W31160  23.101  32.410  12.004
69707W        W31161  38.886  44.292   1.721
69708W        W31162   6.364  41.521   4.346
69709W        W31163  12.187  38.975  13.026
69710W        W31164  24.611  21.618   2.741
69711W        W31165  31.991  30.446   0.727
69712W        W31166  41.456  36.535   3.826
69713W        W31167  20.106  37.052   1.287
69714W        W31168  38.407  42.370  11.472
69715W        W31169   7.359  22.201   3.291
69716W        W31170  44.904  40.534  14.903
69717W        W31171  10.875  15.312  13.808
69718W        W31172  18.124   6.773  12.091
69719W        W31173  30.922   3.346  12.087
69720W        W31174  38.435  33.430   1.235
69721W        W31175   0.916  30.446  13.312
69722W        W31176  37.962  17.611  13.946
69723W        W31177  11.234  30.553   2.893
69724W        W31178  26.618  30.137  10.965
69725W        W31179  35.560  31.126  13.960
69726W        W31180  28.568  15.654  11.998
69727W        W31181   0.291  12.213  14.347
69728W        W31182  11.831  27.484   4.686
69729W        W31183  21.112   9.335  12.015
69730W        W31184  35.039  25.189   0.867
69731W        W31185  38.559  31.006   2.760
69732W        W31186  41.426  32.935   4.668
69733W        W31187  23.612  38.510  14.368
69734W        W31188   5.402  22.656  10.453
69735W        W31189  36.885  35.381  12.383
69736W        W31190   4.348  12.359   2.296
69737W        W31191  20.755   9.253  13.810
69738W        W31192  22.113  19.133  11.035
69739W        W31193  11.659  32.125  12.079
69740W        W31194   7.669  24.676   3.673
69741W        W31195  34.898  35.105  11.016
69742W        W31196   0.825  23.100   0.477
69743W        W31197  34.597   7.244   3.694
69744W        W31198  33.073  44.328   3.739
69745W        W31199   5.911  31.900  12.508
69746W        W31200  31.540  23.132   5.123
69747W        W31201   2.299  34.053  13.453
69748W        W31202  41.386  14.106   4.246
69749W        W31203  28.585  24.985  13.850
69750W        W31204  40.894   1.781   3.376
69751W        W31205  20.165  22.701  10.554
69752W        W31206  22.077  19.200  12.341
69753W        W31207   2.934  23.613   3.298
69754W        W31208  23.183  37.433  10.475
69755W        W31209  22.097  26.657   0.379
69756W        W31210  30.646  42.944   2.234
69757W        W31211   8.755  44.304  10.942
69758W        W31212  24.139  39.473  12.945
69759W        W31213  22.111  15.587   2.704
69760W        W31214  34.410  10.639   3.331
69761W        W31215  24.101   3.289  13.005
69762W        W31216  40.343  23.595  14.374
69763W        W31217  21.573  21.244   2.757
69764W        W31218   2.882  20.053  14.384
69765W        W31219  40.515   5.793   4.114
69766W        W31220  34.529  15.260  12.882
69767W        W31221   0.916   0.355  10.616
69768W        W31222   9.184   1.941   5.176
69769W        W31223   5.852  42.353  12.493
69770W        W31224  38.464  38.076  13.334
69771W        W31225  42.520  10.741   0.431
69772W        W31226  13.347  33.525   5.242
69773W        W31227  11.135  26.631  11.991
69774W        W31228   5.922  18.191   0.916
69775W        W31229  18.628  29.588   2.341
69776W        W31230  36.948  28.128  14.333
69777W        W31231  37.017   8.836  10.500
69778W        W31232  13.767  12.331  13.352
69779W        W31233  27.643   7.249  12.901
69780W        W31234  38.889  17.219  10.509
69781W        W31235  38.371  44.948  11.959
69782W        W31236  29.545  27.970   1.233
69783W        W31237  19.578  22.215   2.374
69784W        W31238  17.157  42.901   3.700
69785W        W31239   9.390   4.445   4.721
69786W        W31240  43.829  43.510  11.930
69787W        W31241  31.983  12.317   2.186
69788W        W31242  19.707   3.761   1.822
69789W        W31243  40.937   3.914  10.533
69790W        W31244  15.314   5.410   0.753
69791W        W31245  32.516  16.645   1.886
69792W        W31246   8.729   2.311   3.193
69793W        W31247   4.764  20.102  11.560
69794W        W31248  19.632  33.384  10.501
69795W        W31249  23.114  18.293  10.538
69796W        W31250  27.155  13.602  12.400
69797W        W31251  19.190  43.477   1.334
69798W        W31252  43.349  10.362   3.774
69799W        W31253  10.712  38.000  11.105
69800W        W31254  11.305  14.617  10.456
69801W        W31255   2.938   3.764   4.781
69802W        W31256  20.160  27.066  11.530
69803W        W31257  43.506  14.674  11.586
69804W        W31258   6.366   4.805   5.106
69805W        W31259   0.886   7.369   4.762
69806W        W31260  40.451  40.834   2.834
69807W        W31261   7.194  21.205   3.260
69808W        W31262  32.043   7.738  14.393
69809W        W31263  38.940  10.664  12.404
69810W        W31264  39.529  18.550   3.701
69811W        W31265   5.339  11.771   3.332
69812W        W31266  42.392   9.305   0.347
69813W        W31267  12.852  11.225  11.009
69814W        W31268  22.014   5.314   2.411
69815W        W31269  23.123  33.464   4.234
69816W        W31270  38.034  35.039   4.223
69817W        W31271  41.388  40.846   9.579
69818W        W31272  27.988  12.623   5.694
69819W        W31273  38.973  14.674  11.915
69820W        W31274  16.245  31.035  13.874
69821W        W31275  29.654  28.448   4.252
69822W        W31276  19.677   9.691   4.684
69823W        W31277  14.221  31.429  14.768
69824W        W31278  39.051  33.575  14.920
69825W        W31279  19.155  43.425   3.285
69826W        W31280  29.944  42.856  11.077
69827W        W31281  37.382   2.796  12.066
69828W        W31282   8.247  29.446   5.607
69829W        W31283   8.741  15.644  13.418
69830W        W31284  27.667  35.092  10.463
69831W        W31285  16.245  12.312   0.934
69832W        W31286   2.797   4.924   0.295
69833W        W31287  25.973  32.101  10.965
69834W        W31288  41.480  35.452  12.868
69835W        W31289  20.579  33.060   2.714
69836W        W31290   1.815  11.259  13.499
69837W        W31291  26.460   3.842  13.904
69838W        W31292  20.180  37.916  11.987
69839W        W31293  19.220  43.954  11.014
69840W        W31294  10.825  20.243  12.466
69841W        W31295   4.362  10.277   3.298
69842W        W31296  20.110   1.424  12.859
69843W        W31297  43.845  22.687   2.299
69844W        W31298  36.441  39.488  11.476
69845W        W31299  44.776  16.281   2.401
69846W        W31300  42.362  40.809   0.326
69847W        W31301  23.690  35.065  14.992
69848W        W31302   5.369  31.599  11.454
69849W        W31303  42.435   6.710  10.558
69850W        W31304  39.953  38.044  12.019
69851W        W31305  40.913  16.167   2.213
69852W        W31306  33.514  41.940  13.985
69853W        W31307  37.066   2.283   2.898
69854W        W31308  33.486  39.821   0.926
69855W        W31309  21.084  35.094  12.377
69856W        W31310  23.689  15.268   4.709
69857W        W31311  14.229   1.248  14.504
69858W        W31312   7.711  40.048  11.417
69859W        W31313  43.015   1.861  12.998
69860W        W31314  29.172  16.170  14.933
69861W        W31315  38.466  18.579  13.858
69862W        W31316   5.408  27.482   1.728
69863W        W31317  14.758  11.841  11.999
69864W        W31318   0.418  16.077  10.403
69865W        W31319  34.983  28.626   3.225
69866W        W31320   7.387  24.546   4.174
69867W        W31321  21.226  41.373   1.737
69868W        W31322  22.063  39.968   0.920
69869W        W31323  35.897  28.975   3.641
69870W        W31324   6.874  23.630  12.535
69871W        W31325  10.879  18.155  14.366
69872W        W31326  40.447   6.303   1.894
69873W        W31327  33.107  27.620   4.760
69874W        W31328  44.756   7.727  13.896
69875W        W31329   8.355   6.281  12.483
69876W        W31330   1.342   4.395  10.930
69877W        W31331  39.985   5.383   4.183
69878W        W31332  29.425   1.915  12.486
69879W        W31333  17.777  39.869  12.090
69880W        W31334  43.848  17.191   2.401
69881W        W31335  22.058   2.365   4.824
69882W        W31336   6.187  38.928   0.779
69883W        W31337   0.773  40.839   0.376
69884W        W31338  18.601  40.319  12.833
69885W        W31339  32.532   7.880   4.206
69886W        W31340  39.388  21.636  12.438
69887W        W31341  36.382  22.215   1.874
69888W        W31342  37.085  10.378  14.498
69889W        W31343  30.007  34.929  13.021
69890W        W31344  40.807  44.413   3.758
69891W        W31345  37.379   5.756   1.226
69892W        W31346  20.036  38.537   2.182
69893W        W31347  25.627   1.362   3.355
69894W        W31348   4.804  37.482  11.923
69895W        W31349  35.882  36.499  11.116
69896W        W31350  41.861  41.430  13.403
69897W        W31351  39.015  37.995   3.837
69898W        W31352   6.389  12.204  14.477
69899W        W31353  29.094  26.600  14.967
69900W        W31354  38.030  22.243  14.343
69901W        W31355  24.535  43.356   3.767
69902W        W31356  24.095  19.657  13.021
69903W        W31357   2.788  37.086   3.795
69904W        W31358  14.107  42.283  11.023
69905W        W31359  22.545   6.804   4.178
69906W        W31360   6.258  20.110   4.130
69907W        W31361  33.130   8.187   4.708
69908W        W31362  23.088  11.140  14.424
69909W        W31363  44.772  44.453   2.273
69910W        W31364  42.008  32.450   4.240
69911W        W31365  16.641  26.702  10.119
69912W        W31366  30.646  25.518   3.242
69913W        W31367  30.556  31.117   1.238
69914W        W31368   4.212  11.823  13.360
69915W        W31369  13.784  37.484  14.326
69916W        W31370  27.464  26.634  12.906
69917W        W31371   2.426  17.165  14.376
69918W        W31372  29.561  18.591  13.050
69919W        W31373  19.084  32.060   0.915
69920W        W31374  40.366  35.397   2.360
69921W        W31375  12.658  16.626  14.766
69922W        W31376   6.681  42.892   2.800
69923W        W31377  24.136  23.036   0.437
69924W        W31378   4.882  16.296   0.382
69925W        W31379  29.652  17.652  12.496
69926W        W31380  19.755   5.857   5.226
69927W        W31381  14.146  33.008  12.431
69928W        W31382   6.392  24.707   1.396
69929W        W31383  13.296  28.154   4.787
69930W        W31384  42.525  14.809  12.833
69931W        W31385  22.608   6.218   1.369
69932W        W31386  13.814  31.515  11.609
69933W        W31387  41.864  34.388  12.944
69934W        W31388   1.746  16.120   2.799
69935W        W31389  15.110   3.950  13.363
69936W        W31390  37.048  19.282  12.506
69937W        W31391   7.789  10.248  12.504
69938W        W31392   2.724  43.837   2.734
69939W        W31393  17.651  32.892   2.392
69940W        W31394  38.923  14.646   0.860
69941W        W31395  38.877  27.583   1.886
69942W        W31396  13.336  31.121  11.097
69943W        W31397  19.091  10.705   0.786
69944W        W31398   0.338   2.847  14.336
69945W        W31399  11.716   1.811  12.558
69946W        W31400  37.927   9.740   4.743
69947W        W31401  41.903  27.622  14.007
69948W        W31402  23.662  41.927   2.739
69949W        W31403   0.370  39.948   4.332
69950W        W31404  28.446  12.152   4.745
69951W        W31405  14.725  27.595   3.385
69952W        W31406  19.216  12.249   2.673
69953W        W31407   5.410  23.730  12.344
69954W        W31408  28.676  13.311  12.444
69955W        W31409   6.790  11.264   3.657
69956W        W31410  11.787  40.841   3.698
69957W        W31411  22.591   7.900   1.271
69958W        W31412  26.489  17.232  11.536
69959W        W31413  29.167   5.370  13.894
69960W        W31414  11.325  21.743   0.852
69961W        W31415  41.929   0.814   3.189
69962W        W31416  26.207  38.034  11.063
69963W        W31417  31.078   5.283   9.920
69964W        W31418  25.585  40.409  10.488
69965W        W31419  40.401  42.510   2.877
69966W        W31420  44.962  42.913  12.363
69967W        W31421  39.851  15.747   1.222
69968W        W31422  36.914  31.034  12.570
69969W        W31423  21.755  15.756   1.244
69970W        W31424  37.453   6.415   1.846
69971W        W31425  42.301   7.175   0.243
69972W        W31426  34.089  44.857  13.049
69973W        W31427  11.813  44.004  13.540
69974W        W31428  33.592   3.329   1.451
69975W        W31429  30.017  15.098   4.608
69976W        W31430   8.868  31.492   1.262
69977W        W31431   4.719  21.140  10.912
69978W        W31432  22.652  31.109   4.330
69979W        W31433  21.129  14.255   4.717
69980W        W31434  29.963   4.250  11.495
69981W        W31435  26.069  12.616   0.336
69982W        W31436  35.866   6.378   2.370
69983W        W31437  35.438   7.791   0.479
69984W        W31438  41.401  36.582  11.995
69985W        W31439  44.366  26.699   5.090
69986W        W31440   6.919  43.985  13.803
69987W        W31441  15.277  32.604  10.513
69988W        W31442   5.202   5.757  14.785
69989W        W31443  29.938  15.802  11.112
69990W        W31444  18.677  33.892  14.963
69991W        W31445   6.263  37.383   2.397
69992W        W31446  23.526   7.847   0.302
69993W        W31447  28.440  30.467   3.709
69994W        W31448  31.406  28.436  12.945
69995W        W31449   4.213  29.993   0.912
69996W        W31450  12.178  10.148   1.319
69997W        W31451  16.608   8.193  12.087
69998W        W31452   2.748  31.603   1.263
69999W        W31453  36.430  25.134  11.908
70000W        W31454   0.481  32.934  14.025
70001W        W31455   1.271   8.323   1.713
70002W        W31456  36.883  31.421   4.123
70003W        W31457  25.687  24.628  10.993
70004W        W31458  33.425   7.856  13.488
70005W        W31459  11.867   6.323  12.945
70006W        W31460  35.601  23.084  10.524
70007W        W31461   7.305   6.223  13.907
70008W        W31462  12.207  15.665  12.037
70009W        W31463  28.981   7.270  13.047
70010W        W31464   5.733   5.812   2.204
70011W        W31465  22.677  38.508  11.952
70012W        W31466  15.304  14.761  10.462
70013W        W31467   3.442   0.484   1.815
70014W        W31468  14.131  19.562   2.901
70015W        W31469  16.086  22.135  14.872
70016W        W31470   3.313  14.631  11.876
70017W        W31471  30.992  30.642   2.186
70018W        W31472  26.054  40.814   1.836
70019W        W31473   3.344  18.256  10.580
70020W        W31474  38.895  12.248   1.872
70021W        W31475   8.798  18.642  11.094
70022W        W31476  16.315  25.497  12.956
70023W        W31477   8.814  32.442  12.904
70024W        W31478  31.613  27.664   0.332
70025W        W31479  28.552  41.870  10.949
70026W        W31480  23.008  23.061  13.915
70027W        W31481  30.996  19.063   2.809
70028W        W31482  32.128  38.341  11.961
70029W        W31483  33.099   1.317   2.407
70030W        W31484  38.458   9.387  10.519
70031W        W31485  27.493  17.566  13.439
70032W        W31486   2.319   8.380   3.765
70033W        W31487  32.029   4.394   0.953
70034W        W31488  34.583  22.588  14.493
70035W        W31489  12.198  25.002  14.020
70036W        W31490  21.172  41.433  13.347
70037W        W31491  15.639  19.117  10.514
70038W        W31492  42.887  33.941   0.467
70039W        W31493  12.354   0.874   0.888
70040W        W31494  37.870  28.037  11.894
70041W        W31495  17.277   6.374  11.999
70042W        W31496  34.587  20.073  12.536
70043W        W31497   7.851   7.324  10.536
70044W        W31498   9.862  12.676  12.551
70045W        W31499  41.029  11.261  12.506
70046W        W31500   2.412   6.833  12.398
70047W        W31501   2.356  21.650  13.947
70048W        W31502  15.090  35.104  11.864
70049W        W31503  33.559   5.438  14.871
70050W        W31504   8.740  38.021  14.834
70051W        W31505  16.163  38.537   0.909
70052W        W31506  14.737   5.923  11.602
70053W        W31507  16.751  39.873   1.424
70054W        W31508  12.747  27.127   1.837
70055W        W31509  20.103  10.802   2.744
70056W        W31510  33.461  27.610  11.012
70057W        W31511  13.673  17.693  10.510
70058W        W31512  44.410  29.968   4.667
70059W        W31513  25.074  28.964  12.405
70060W        W31514  28.596  35.413  13.834
70061W        W31515  29.146   0.742   4.632
70062W        W31516  11.157  38.965  13.037
70063W        W31517  41.331  30.575   0.963
70064W        W31518   9.864  18.706  12.925
70065W        W31519  34.444  17.704  11.387
70066W        W31520  23.158   9.878   4.270
70067W        W31521  22.051  15.168  14.409
70068W        W31522  23.715  12.736   1.401
70069W        W31523  21.720  26.553   3.339
70070W        W31524  42.327  22.512  13.345
70071W        W31525   3.274  36.088  10.556
70072W        W31526  35.935   5.405   4.120
70073W        W31527  12.620  40.922  11.957
70074W        W31528   8.380  30.950   5.665
70075W        W31529  33.014  12.156   1.445
70076W        W31530  14.822  16.630  11.908
70077W        W31531   0.380  30.147   1.426
70078W        W31532  33.439  15.579   2.699
70079W        W31533  19.775  20.659   0.760
70080W        W31534  37.403  44.875  11.895
70081W        W31535  39.487  40.523  15.000
70082W        W31536  41.434  36.867  13.386
70083W        W31537  37.398  31.042  14.795
70084W        W31538  40.520   1.743  13.921
70085W        W31539  43.815   3.446   2.278
70086W        W31540  28.552  11.312  13.421
70087W        W31541  36.002  44.281   2.707
70088W        W31542  13.758  10.331  10.412
70089W        W31543   9.175  11.233   4.158
70090W        W31544  21.027  23.029  11.911
70091W        W31545   2.237  17.072   3.767
70092W        W31546  36.954  32.889  14.331
70093W        W31547  40.025  36.054  13.502
70094W        W31548  28.548  15.203   3.365
70095W        W31549  28.988  41.516  12.341
70096W        W31550  10.769   4.912   2.861
70097W        W31551  23.984  15.702   0.951
70098W        W31552  15.676   9.739   2.804
70099W        W31553  22.679  23.191   3.188
70100W        W31554  23.526   2.294   3.833
70101W        W31555  29.093  32.484  12.826
70102W        W31556  22.121   8.834   5.297
70103W        W31557  34.960  33.539   1.289
70104W        W31558  26.468  13.268   3.869
70105W        W31559  35.914  29.587   3.704
70106W        W31560  20.729  22.161  14.401
70107W        W31561  22.520  15.266  11.866
70108W        W31562  18.263  25.660   3.718
70109W        W31563  25.041  35.573  14.378
70110W        W31564  21.193   0.308   2.410
70111W        W31565  20.549  29.474  12.914
70112W        W31566  18.681  44.388   2.678
70113W        W31567  29.546  15.133   0.334
70114W        W31568  38.968   9.166  13.022
70115W        W31569  40.388  44.474   2.227
70116W        W31570  15.611  24.209  13.865
70117W        W31571  22.091  38.996  13.518
70118W        W31572  11.859   2.275   2.884
70119W        W31573  31.580  14.212  13.494
70120W        W31574  37.390  30.025  11.455
70121W        W31575   7.211  12.163  11.872
70122W        W31576  43.954   4.356  14.451
70123W        W31577   3.320  33.109  10.583
70124W        W31578   8.757  30.141   4.726
70125W        W31579   6.324  42.878  14.338
70126W        W31580   1.775  22.629  14.864
70127W        W31581  18.137  34.598  13.332
70128W        W31582  33.921   4.385  10.475
70129W        W31583  13.210  25.663   3.641
70130W        W31584  40.951  36.073  14.343
70131W        W31585  32.428  37.870  11.918
70132W        W31586  40.470  32.070   0.882
70133W        W31587   5.843  32.133  13.517
70134W        W31588  25.684   6.331   4.283
70135W        W31589  21.261  42.470  10.967
70136W        W31590   8.349  21.513  11.966
70137W        W31591  15.783   3.431  11.377
70138W        W31592  25.105  30.654   1.827
70139W        W31593  15.611   2.328  11.088
70140W        W31594  22.551  36.887  10.475
70141W        W31595  10.360  32.928   9.975
70142W        W31596  10.351  42.947  10.530
70143W        W31597  36.061  29.091   0.292
70144W        W31598   2.957  23.648   4.697
70145W        W31599  33.411  30.648   3.188
70146W        W31600  30.464  23.154   4.602
70147W        W31601  43.310  42.301   4.335
70148W        W31602  16.164  13.301   5.690
70149W        W31603  41.034  23.183  12.394
70150W        W31604  14.105  15.793   3.155
70151W        W31605  24.689  18.216   4.647
70152W        W31606  23.681  18.078   2.180
70153W        W31607  19.214   8.192   1.723
70154W        W31608  22.608  16.171   1.762
70155W        W31609  40.452   6.192   4.323
70156W        W31610  15.796  21.260  12.829
70157W        W31611  24.028  42.355   4.750
70158W        W31612  33.996  17.693  14.761
70159W        W31613  26.696  19.063   3.773
70160W        W31614  44.838   9.321  12.524
70161W        W31615  10.817  29.937   3.823
70162W        W31616  31.517  13.115   2.281
70163W        W31617  11.361   2.399   2.706
70164W        W31618  30.120  43.408   3.732
70165W        W31619  42.377  28.138   2.275
70166W        W31620  14.675  18.079  14.402
70167W        W31621  26.612  10.321  11.604
70168W        W31622  34.512   8.837  13.813
70169W        W31623  13.202  34.489  10.988
70170W        W31624  21.575  25.468   4.285
70171W        W31625  41.042  37.904  13.941
70172W        W31626  27.040  28.505  14.328
70173W        W31627  27.665   4.301   4.712
70174W        W31628  20.231  20.116  13.050
70175W        W31629  14.783  19.111  12.922
70176W        W31630   6.274   7.753  13.514
70177W        W31631  40.903   4.872  10.987
70178W        W31632  33.457   0.378  11.943
70179W        W31633  20.054  42.900   4.817
70180W        W31634  23.570  40.527   1.369
70181W        W31635   4.776  32.490  13.845
70182W        W31636  24.032  34.865  12.487
70183W        W31637   5.864  31.902   4.731
70184W        W31638   5.287  16.196   1.269
70185W        W31639  28.035  36.957  13.326
70186W        W31640   8.901  40.020  14.777
70187W        W31641   2.349   3.928   3.716
70188W        W31642  27.048  23.566   0.737
70189W        W31643  18.724  19.670  10.117
70190W        W31644  10.672   6.748   4.720
70191W        W31645  12.144  43.313   4.717
70192W        W31646  31.116  23.105   2.840
70193W        W31647   9.154   7.290   1.238
70194W        W31648   6.819  17.753  14.310
70195W        W31649  11.360   1.969  11.562
70196W        W31650   3.776   2.345   2.268
70197W        W31651  34.977  35.049   0.298
70198W        W31652  40.520  40.342  11.896
70199W        W31653   9.830   4.257  12.453
70200W        W31654  23.565  22.584  13.540
70201W        W31655  26.516  15.102   2.324
70202W        W31656   7.190   6.249  11.428
70203W        W31657  16.645  40.446  12.020
70204W        W31658  37.580  36.879  10.587
70205W        W31659  22.523  38.971   1.712
70206W        W31660  32.089  39.860  11.884
70207W        W31661  12.809  30.577  12.448
70208W        W31662   2.241  34.390  10.000
70209W        W31663   8.310  35.360  11.392
70210W        W31664  19.119  11.189  14.385
70211W        W31665   5.403  19.058   1.891
70212W        W31666  44.887  22.596   4.164
70213W        W31667  16.141  30.564   1.356
70214W        W31668  38.906  25.066  10.030
70215W        W31669  18.131  29.550  12.879
70216W        W31670  35.410  33.008  10.914
70217W        W31671  18.688   8.727   4.626
70218W        W31672  42.909   9.375  12.086
70219W        W31673   2.331  24.004  14.332
70220W        W31674  18.749  38.471  10.922
70221W        W31675  38.430  22.696  12.852
70222W        W31676   5.312  12.185   2.250
70223W        W31677   9.645  26.537   4.303
70224W        W31678  39.952   6.895  13.469
70225W        W31679   4.848  14.740  11.568
70226W        W31680  21.650   0.762   4.131
70227W        W31681  26.542  11.732   4.666
70228W        W31682  18.179   5.421  13.356
70229W        W31683  35.375  10.658  10.502
70230W        W31684   4.813  39.001  14.501
70231W        W31685  40.907   3.839   4.810
70232W        W31686  40.027  30.090   4.179
70233W        W31687   3.219  36.848  14.813
70234W        W31688   9.801  41.466   4.703
70235W        W31689   7.204  18.095  14.367
70236W        W31690  31.138   3.795  11.938
70237W        W31691  38.878  32.115   0.903
70238W        W31692  32.024  35.051   0.923
70239W        W31693  35.975  43.906  10.428
70240W        W31694  22.668   7.760   0.740
70241W        W31695  22.713  35.058  12.494
70242W        W31696  42.291  31.927   2.400
70243W        W31697  37.374  40.892   3.307
70244W        W31698   2.246  40.870  10.933
70245W        W31699  16.799  37.075   4.831
70246W        W31700  33.626  18.777  10.904
70247W        W31701   7.328  22.635   0.396
70248W        W31702  23.231  31.568   0.366
70249W        W31703  20.624  30.993  14.873
70250W        W31704  23.665  39.467  13.807
70251W        W31705  31.033  41.873   4.696
70252W        W31706  30.054  18.735  11.118
70253W        W31707  11.223  40.847  12.932
70254W        W31708  29.457   4.212   0.411
70255W        W31709  37.488  27.655  10.484
70256W        W31710  27.951  26.192  14.364
70257W        W31711   1.251   3.772   4.770
70258W        W31712  35.578  12.838   1.924
70259W        W31713   3.879  27.008   0.470
70260W        W31714   8.337  36.559  10.644
70261W        W31715  25.645   0.886   4.302
70262W        W31716  25.003  29.987   2.813
70263W        W31717  14.691  34.572  10.058
70264W        W31718  16.763   5.242   3.147
70265W        W31719  11.169   3.835  11.485
70266W        W31720   3.812   8.308   4.641
70267W        W31721  29.636  32.509  10.117
70268W        W31722  42.490  41.033  10.985
70269W        W31723  25.688   8.724  12.841
70270W        W31724   9.705  41.970  11.582
70271W        W31725  21.553  40.477   2.346
70272W        W31726   3.796  17.720   0.395
70273W        W31727  11.276  30.962   3.148
70274W        W31728  32.993  40.837  14.896
70275W        W31729  27.954  13.262   9.666
70276W        W31730  44.289  26.579   2.366
70277W        W31731   9.889  17.263   3.797
70278W        W31732  15.651   2.889   2.801
70279W        W31733  38.551  14.266   1.862
70280W        W31734  19.254  41.889  11.492
70281W        W31735  25.966   2.862   4.674
70282W        W31736  16.185  20.550   1.433
70283W        W31737  22.092   8.798  13.493
70284W        W31738   5.424  31.439   1.788
70285W        W31739   1.787  17.587   2.191
70286W        W31740  34.404  33.895  13.060
70287W        W31741  28.449  35.063   4.346
70288W        W31742  42.294  32.427  12.013
70289W        W31743  34.412  11.362  13.314
70290W        W31744  26.476  27.977   4.180
70291W        W31745  43.895  17.610  14.432
70292W        W31746  27.538  32.975  11.998
70293W        W31747  26.610   8.406  10.501
70294W        W31748  25.483  27.690  12.827
70295W        W31749  42.454  15.250  14.361
70296W        W31750  31.457  17.295  11.104
70297W        W31751  18.561  30.157  12.493
70298W        W31752   5.715  17.663   4.627
70299W        W31753  43.294  28.511  14.416
70300W        W31754  36.950  30.465  13.319
70301W        W31755  17.701  24.009  13.517
70302W        W31756  20.222  35.465  11.500
70303W        W31757  26.114  33.041   4.813
70304W        W31758  43.845  44.901   2.730
70305W        W31759  16.632  39.361  12.400
70306W        W31760  33.532  15.207  11.477
70307W        W31761  21.134  21.017   2.220
70308W        W31762  15.270  11.696  13.993
70309W        W31763  28.526   9.802  13.949
70310W        W31764  41.532   8.225  10.978
70311W        W31765  13.782  37.504   9.973
70312W        W31766  33.531   2.910   2.844
70313W        W31767  39.890  33.023  12.994
70314W        W31768  41.871  14.760   2.412
70315W        W31769  29.008   7.355   2.337
70316W        W31770  44.864   2.280  14.361
70317W        W31771  31.051  12.161   4.334
70318W        W31772  30.149  35.585  13.923
70319W        W31773  30.007  17.559   2.732
70320W        W31774  22.226  44.313   3.276
70321W        W31775  41.446  31.050   4.723
70322W        W31776  16.791  32.460   0.440
70323W        W31777  13.165  32.058  12.994
70324W        W31778  18.634  39.487   2.282
70325W        W31779  43.888  26.053   4.661
70326W        W31780   2.856   5.924  12.847
70327W        W31781  39.515  43.450   0.353
70328W        W31782  36.900  18.131   4.737
70329W        W31783  13.148  29.510  13.493
70330W        W31784  18.062  42.921   2.274
70331W        W31785   3.801  29.055  10.007
70332W        W31786   7.879  29.650  13.961
70333W        W31787   9.150  27.689  13.851
70334W        W31788  17.147  32.445  12.409
70335W        W31789  39.387  23.542  13.841
70336W        W31790  16.107  27.677  13.357
70337W        W31791  25.653  18.162  11.550
70338W        W31792   5.770  23.042  13.057
70339W        W31793  12.356   4.255  10.592
70340W        W31794  42.298   9.297   2.801
70341W        W31795  40.477  41.980  13.990
70342W        W31796  37.439  25.694   4.764
70343W        W31797  15.108  26.987  10.509
70344W        W31798   4.875  21.615  10.611
70345W        W31799  34.569  25.614  10.896
70346W        W31800  32.551  29.102   4.272
70347W        W31801  16.130  30.142  13.482
70348W        W31802   8.238  13.136   3.273
70349W        W31803  42.410  16.693  10.531
70350W        W31804  22.162  27.078   1.935
70351W        W31805  24.063  24.608  12.051
70352W        W31806  35.425  34.495  11.081
70353W        W31807   8.168  30.012   2.262
70354W        W31808  13.657   2.282  12.577
70355W        W31809  30.567  13.809   2.267
70356W        W31810  27.018  28.148   3.192
70357W        W31811   3.906  38.564  11.005
70358W        W31812  27.490  37.986   3.300
70359W        W31813   8.814   4.400   1.769
70360W        W31814  21.103   2.829   2.770
70361W        W31815  44.887   5.883   4.732
70362W        W31816  19.669  16.158  11.957
70363W        W31817   6.333  27.477   1.262
70364W        W31818  12.670   9.197   0.287
70365W        W31819  42.915  33.506   1.330
70366W        W31820  13.673  42.324   0.727
70367W        W31821  37.918  24.485  13.332
70368W        W31822  40.392  25.508   4.133
70369W        W31823   3.806  39.981   0.813
70370W        W31824  13.297  20.264  11.874
70371W        W31825  36.849  18.193   1.912
70372W        W31826   7.894  28.979  12.042
70373W        W31827   5.236   9.701   4.128
70374W        W31828  24.988  43.913   1.830
70375W        W31829  18.664  26.600  10.025
70376W        W31830   2.321   3.851   2.397
70377W        W31831  29.096  22.743  10.015
70378W        W31832   1.371  17.199   0.949
70379W        W31833  41.821  39.512  11.568
70380W        W31834  21.678  27.149   4.791
70381W        W31835   4.900  17.669  14.855
70382W        W31836  41.530   8.838   4.266
70383W        W31837   8.855   8.261  12.978
70384W        W31838  15.720  21.724  11.057
70385W        W31839  21.534  30.528   2.770
70386W        W31840  32.490  14.325  12.855
70387W        W31841   6.410  31.451  14.359
70388W        W31842  13.303   5.901  11.581
70389W        W31843  36.933  36.870  12.399
70390W        W31844  27.549  34.108   2.293
70391W        W31845  42.792  19.074  10.615
70392W        W31846  29.139   2.331  14.973
70393W        W31847  26.553  24.998   1.888
70394W        W31848  32.044  15.144   4.703
70395W        W31849   8.208  24.594  13.350
70396W        W31850  35.482  29.454   4.634
70397W        W31851  18.209  31.452   3.820
70398W        W31852  41.513  15.692  13.045
70399W        W31853  31.614   8.686  12.039
70400W        W31854  41.951  16.710  11.425
70401W        W31855  16.072  17.208  13.358
70402W        W31856  41.454  32.578  14.772
70403W        W31857  17.192  15.285   3.673
70404W        W31858  14.765  37.348  10.589
70405W        W31859  44.291  11.266   1.357
70406W        W31860  36.388  25.681  13.814
70407W        W31861   3.758   3.359  12.971
70408W        W31862  12.806  21.563  11.442
70409W        W31863  21.526   0.945   0.317
70410W        W31864  11.857  23.602   1.451
70411W        W31865  18.139  40.914   1.237
70412W        W31866  12.734  14.772  12.578
70413W        W31867   7.907   7.850  12.483
70414W        W31868  21.161  18.168   3.661
70415W        W31869  29.581   8.789  13.445
70416W        W31870  35.389  23.147   3.707
70417W        W31871  12.316  31.071   3.240
70418W        W31872  22.709  34.083  13.949
70419W        W31873   9.277  22.735   3.249
70420W        W31874  32.449  10.336  11.464
70421W        W31875  36.376  42.398   1.383
70422W        W31876  10.789   3.713  13.874
70423W        W31877  33.881  26.654  11.047
70424W        W31878  43.822   7.725  14.916
70425W        W31879  30.574  34.068  14.987
70426W        W31880  31.055  39.473   4.217
70427W        W31881  18.069  32.968   3.737
70428W        W31882  37.538  12.815  13.539
70429W        W31883  22.191  34.412   4.675
70430W        W31884   7.264  41.994   0.888
70431W        W31885  21.636  22.556   3.278
70432W        W31886  36.075  27.676  14.288
70433W        W31887  11.187  36.492  11.905
70434W        W31888  38.399  15.715  14.489
70435W        W31889  29.528   9.696  12.976
70436W        W31890  28.957  41.013   3.798
70437W        W31891  43.963  32.085   3.330
70438W        W31892  43.916  11.720  11.957
70439W        W31893   8.832  16.806  12.081
70440W        W31894  27.111  31.496  11.544
70441W        W31895  19.565  24.132   4.233
70442W        W31896  29.113   6.689  13.957
70443W        W31897  38.010  15.645   3.734
70444W        W31898  13.300  17.181   3.792
70445W        W31899   8.212  19.240   1.383
70446W        W31900   0.988  32.432   4.252
70447W        W31901  26.007   8.680   5.280
70448W        W31902  27.516  29.568   0.832
70449W        W31903  18.719  33.057  13.400
70450W        W31904  42.498  30.573   1.709
70451W        W31905  18.726  17.072   5.225
70452W        W31906  41.475  35.064  13.408
70453W        W31907  42.881  27.574  10.964
70454W        W31908   8.160   0.745   1.316
70455W        W31909  38.995  19.753   0.467
70456W        W31910  32.583   9.690  12.419
70457W        W31911   1.362  39.055  12.060
70458W        W31912  28.016   5.411   5.713
70459W        W31913   5.230   8.346   1.420
70460W        W31914  38.866  42.906  12.850
70461W        W31915  32.526  12.295   1.704
70462W        W31916  25.204  33.967  13.334
70463W        W31917  40.308   7.374   3.273
70464W        W31918  40.489   5.234   4.203
70465W        W31919  24.704  33.408   3.211
70466W        W31920   6.256  37.963  12.556
70467W        W31921  33.019  32.016  10.531
70468W        W31922  18.097  33.427  13.525
70469W        W31923  20.632  33.512   0.423
70470W        W31924  38.391  34.919  14.862
70471W        W31925  32.996  25.481   4.659
70472W        W31926  24.642   3.769  11.521
70473W        W31927  37.066   5.395   3.207
70474W        W31928  30.074  29.052   2.254
70475W        W31929  33.092  30.002  10.506
70476W        W31930   4.273  30.638  14.021
70477W        W31931  35.415  21.519   4.239
70478W        W31932  24.221  32.924   4.689
70479W        W31933  12.615  31.123   3.644
70480W        W31934   8.806   2.280   1.339
70481W        W31935  44.409  31.411  14.901
70482W        W31936  29.011  17.170   1.706
70483W        W31937  26.089  38.978  12.938
70484W        W31938  39.950  32.142   4.338
70485W        W31939  42.339  11.194  12.046
70486W        W31940  18.594  40.500   4.733
70487W        W31941  41.521  21.223  14.916
70488W        W31942  39.056  27.544  11.114
70489W        W31943  16.771  42.788   2.718
70490W        W31944  11.857  23.530  10.919
70491W        W31945  28.494   4.756  13.797
70492W        W31946  14.768  17.710  13.523
70493W        W31947  15.146   8.857  14.872
70494W        W31948  12.356  30.046  13.982
70495W        W31949  19.675   2.343  13.004
70496W        W31950  18.233   0.411  12.945
70497W        W31951  10.295  44.799   1.763
70498W        W31952  43.470  12.667  14.339
70499W        W31953  29.085  22.250  14.332
70500W        W31954  36.963  12.651  14.421
70501W        W31955  16.659  39.530  11.930
70502W        W31956  44.832  35.019   1.807
70503W        W31957  32.636  22.574   4.217
70504W        W31958  20.088  32.571   4.695
70505W        W31959   4.883  42.024  13.918
70506W        W31960   8.813  18.274   2.730
70507W        W31961  26.020   8.340   0.947
70508W        W31962  10.686  27.117  11.414
70509W        W31963  30.069  30.531  13.034
70510W        W31964  15.794  20.126  10.494
70511W        W31965  19.193  26.141   1.348
70512W        W31966   6.921  19.257  14.457
70513W        W31967  26.123  17.167   3.785
70514W        W31968  11.261  42.807   1.747
70515W        W31969  37.532  38.009   1.932
70516W        W31970  21.135  30.956   1.360
70517W        W31971  37.921   5.305   4.761
70518W        W31972  35.398  26.678  10.105
70519W        W31973  26.595   1.338   3.252
70520W        W31974  39.884  24.638   4.184
70521W        W31975  41.333  25.506   1.735
70522W        W31976  22.050  11.794   2.798
70523W        W31977   6.702   9.252   2.315
70524W        W31978  38.833  37.838   2.706
70525W        W31979   4.407   7.858  11.886
70526W        W31980  10.188   1.772   2.731
70527W        W31981  32.584   1.866  14.899
70528W        W31982   4.766  39.008  13.327
70529W        W31983  12.647  40.489   1.868
70530W        W31984  37.926  34.420  11.563
70531W        W31985   4.710   7.817  14.995
70532W        W31986  16.162   8.824   0.358
70533W        W31987  17.735   8.389  14.806
70534W        W31988   2.759   9.177   0.780
70535W        W31989   7.909  17.599   2.747
70536W        W31990   1.250  26.121   0.354
70537W        W31991  36.521   2.860  11.895
70538W        W31992  24.974  13.646  12.569
70539W        W31993  43.799   1.930   3.661
70540W        W31994  17.754  42.843   0.938
70541W        W31995  42.995   3.879   3.736
70542W        W31996  34.046  12.208  13.458
70543W        W31997   1.301  18.232  14.493
70544W        W31998  31.096  29.149   4.154
70545W        W31999  16.206  17.710  11.982
70546W        W32000  25.693  42.887  11.467
70547W        W32001   0.306  29.117   1.728
70548W        W32002   4.853  21.104  14.318
70549W        W32003  27.152  23.004   1.415
70550W        W32004  32.993   1.972   1.360
70551W        W32005   8.678  21.141  12.956
70552W        W32006  12.289   0.830  11.468
70553W        W32007  31.028  16.075  11.472
70554W        W32008  17.168   5.320   0.381
70555W        W32009  24.510   0.838   0.922
70556W        W32010  39.054   8.788  14.990
70557W        W32011  33.987  36.028   5.095
70558W        W32012  13.113  33.079   1.749
70559W        W32013  34.454  33.984   3.805
70560W        W32014   0.371   3.860   3.783
70561W        W32015  22.572  40.487   5.248
70562W        W32016  24.111  21.680  13.983
70563W        W32017  26.625  24.980  13.334
70564W        W32018  23.552  39.350   3.201
70565W        W32019  39.474  11.709   2.410
70566W        W32020  26.130  13.227   4.828
70567W        W32021  36.980  32.574  10.914
70568W        W32022   8.370  25.984  14.879
70569W        W32023   7.389  16.148  13.308
70570W        W32024  42.958   6.776  12.497
70571W        W32025  32.898   6.202   3.766
70572W        W32026  10.817  16.255   3.229
70573W        W32027   3.368  27.692   3.656
70574W        W32028  34.019  41.377   1.767
70575W        W32029   8.860  38.556  13.955
70576W        W32030  36.531  20.619   0.745
70577W        W32031  32.430  17.155   0.728
70578W        W32032  31.058  17.625  11.434
70579W        W32033  25.019   4.322  12.968
70580W        W32034   4.738  44.772   0.761
70581W        W32035  12.342  43.285  13.033
70582W        W32036  23.560  36.456   1.425
70583W        W32037  16.607  28.530   3.268
70584W        W32038   7.793  39.472   2.248
70585W        W32039   4.867  38.031  10.467
70586W        W32040  35.871   1.285   3.788
70587W        W32041  13.666  35.503  14.925
70588W        W32042  35.975  42.492   2.686
70589W        W32043   1.391   9.834   0.417
70590W        W32044  34.588  36.401   4.622
70591W        W32045   0.413  13.731   0.853
70592W        W32046  34.063  20.713  12.911
70593W        W32047  21.066   2.258  11.966
70594W        W32048   9.345  41.937  10.601
70595W        W32049  12.290  25.103   0.839
70596W        W32050  15.195  25.494  11.613
70597W        W32051   6.843  37.392   2.323
70598W        W32052   2.908  29.953  10.591
70599W        W32053  23.175  14.728  14.416
70600W        W32054  17.750   1.425  12.083
70601W        W32055  12.224  35.099   2.195
70602W        W32056  10.703  39.853   0.735
70603W        W32057  33.961   7.291   2.828
70604W        W32058  34.954  20.750   4.335
70605W        W32059  14.170   8.770   4.806
70606W        W32060   3.396  37.496  11.032
70607W        W32061  26.008   9.211  10.439
70608W        W32062  14.290   0.833   4.650
70609W        W32063  13.668   8.885  13.986
70610W        W32064  15.253  33.600   3.176
70611W        W32065  39.983  11.817  13.457
70612W        W32066   9.221  41.363   0.297
70613W        W32067  16.673   8.336   3.243
70614W        W32068   5.886  40.000   2.289
70615W        W32069   4.753  43.991  12.076
70616W        W32070  31.142   6.714   0.770
70617W        W32071  21.753  38.338  12.960
70618W        W32072  14.590   2.854   2.784
70619W        W32073  30.654  41.932   4.731
70620W        W32074  42.519  34.027   0.333
70621W        W32075  20.541  12.235   1.338
70622W        W32076   6.219   6.385   3.273
70623W        W32077  12.740  33.601   3.273
70624W        W32078  34.997  44.884   0.282
70625W        W32079  18.172  16.642   1.368
70626W        W32080  40.544  24.047   0.281
70627W        W32081  16.310  15.166  12.570
70628W        W32082  18.205  26.644   1.839
70629W        W32083  21.607  41.342   2.728
70630W        W32084  10.204  18.188  10.069
70631W        W32085  18.747   0.906   0.906
70632W        W32086  17.125  37.008  11.394
70633W        W32087  35.005  25.076   5.217
70634W        W32088  14.747  20.105   3.760
70635W        W32089  16.108  30.564   3.687
70636W        W32090  15.307  28.053  14.834
70637W        W32091  40.898  35.859   0.860
70638W        W32092  32.123  33.971  13.907
70639W        W32093  17.653   8.816  12.952
70640W        W32094   1.750  31.079  11.932
70641W        W32095  19.735  28.119   0.784
70642W        W32096  16.627  40.910   5.197
70643W        W32097  31.414  31.909  14.968
70644W        W32098  29.494  42.981   5.084
70645W        W32099  12.761   5.691  13.927
70646W        W32100  43.511  25.036  11.482
70647W        W32101  20.129  39.451   1.750
70648W        W32102  15.655  11.340   2.272
70649W        W32103   1.948   3.280   4.267
70650W        W32104  28.087  18.636   2.406
70651W        W32105  27.457   9.840  13.994
70652W        W32106   3.348  20.525  11.020
70653W        W32107  20.667  30.030  13.970
70654W        W32108   8.368   7.362   2.694
70655W        W32109  38.420  28.608  11.601
70656W        W32110  27.113  14.236  13.905
70657W        W32111  25.067  41.839  12.557
70658W        W32112  42.505  18.614   0.828
70659W        W32113  10.667  25.042   0.322
70660W        W32114  28.633   3.450  14.828
70661W        W32115   8.300  38.990  10.581
70662W        W32116  18.213  14.801  12.557
70663W        W32117  42.403   8.376  13.016
70664W        W32118  14.314  40.469  14.025
70665W        W32119   1.958   7.266   0.921
70666W        W32120  17.791  22.522   4.720
70667W        W32121  31.096  22.646   2.702
70668W        W32122   8.292  24.007  14.914
70669W        W32123  22.591  11.345   1.252
70670W        W32124  15.612   0.943   3.700
70671W        W32125   6.886  43.976  12.487
70672W        W32126  14.655  23.584  13.946
70673W        W32127  21.667  39.820  13.919
70674W        W32128  34.918  32.628  11.602
70675W        W32129   9.271  20.552  11.032
70676W        W32130  18.133  11.688  14.030
70677W        W32131  27.062  28.999  11.020
70678W        W32132  16.283  37.435  14.353
70679W        W32133  27.455  28.607   0.963
70680W        W32134  36.519  10.671   0.863
70681W        W32135   5.822   3.325   0.855
70682W        W32136  32.549  30.144  12.437
70683W        W32137   4.808  28.446   3.239
70684W        W32138  30.965  11.800   4.280
70685W        W32139  38.926   0.389  13.004
70686W        W32140  19.073  14.621   1.346
70687W        W32141   6.404   5.823  14.403
70688W        W32142  11.634  39.475   0.314
70689W        W32143  28.590  15.712  14.363
70690W        W32144  40.404  38.907   1.866
70691W        W32145  39.939  24.020  10.518
70692W        W32146   5.366  17.144  14.436
70693W        W32147  24.603  18.192   2.788
70694W        W32148  25.520  14.175   4.138
70695W        W32149  42.354  20.121   0.907
70696W        W32150  37.344  15.242   1.286
70697W        W32151  28.524  32.072  11.560
70698W        W32152  31.518  28.479  14.836
70699W        W32153  12.734  16.161   2.837
70700W        W32154  38.433  27.090  12.430
70701W        W32155  38.407  43.299  12.039
70702W        W32156  36.067  16.653  10.954
70703W        W32157  18.235   9.340  10.416
70704W        W32158  10.704   9.827   1.366
70705W        W32159  44.264  30.949  10.008
70706W        W32160  11.774  32.636   3.167
70707W        W32161  18.623  27.601   1.741
70708W        W32162  40.497  42.844   1.235
70709W        W32163  26.695  40.007   1.907
70710W        W32164  21.701  32.434  11.561
70711W        W32165   3.939   6.850   0.951
70712W        W32166  15.282   4.796  11.121
70713W        W32167  28.106  25.026   0.296
70714W        W32168  44.951  22.053  13.002
70715W        W32169   9.168   5.210  11.396
70716W        W32170  41.428  36.391   0.735
70717W        W32171  38.525  12.302  14.954
70718W        W32172  13.670  17.776   4.123
70719W        W32173   6.422   1.270  11.445
70720W        W32174   9.326  41.444  10.607
70721W        W32175  32.001   9.312  11.098
70722W        W32176  11.235  30.495   1.248
70723W        W32177  33.466  13.623  12.832
70724W        W32178  29.927  20.526  12.434
70725W        W32179  33.549  33.968   1.311
70726W        W32180  26.120  10.186  10.567
70727W        W32181  10.355  31.112  13.503
70728W        W32182  11.745   1.832  13.492
70729W        W32183   3.226  12.756  12.472
70730W        W32184  10.868  14.295  10.576
70731W        W32185  29.936   6.335  13.331
70732W        W32186  21.245  42.951   4.782
70733W        W32187  38.836  17.556   4.347
70734W        W32188  17.123  29.018   1.926
70735W        W32189  44.875  15.180  14.773
70736W        W32190  23.021  37.420  14.848
70737W        W32191   4.397  34.906  11.965
70738W        W32192  17.781  38.540   1.815
70739W        W32193  28.069  15.590  10.412
70740W        W32194  34.560  15.124   3.726
70741W        W32195  19.200  44.804   4.120
70742W        W32196  22.607  33.055   3.281
70743W        W32197  18.571  30.605   4.691
70744W        W32198  26.463  21.622   2.665
70745W        W32199   4.783  22.011  12.504
70746W        W32200  41.319  33.577   0.413
70747W        W32201  15.762  15.129   3.194
70748W        W32202  42.995  36.497   0.337
70749W        W32203  19.167  27.146   0.944
70750W        W32204  17.613  38.893  12.825
70751W        W32205  25.167  35.511  10.406
70752W        W32206  35.534  16.237  10.570
70753W        W32207  13.699   6.333  10.587
70754W        W32208   0.923  41.512   5.086
70755W        W32209  13.730  26.679   3.154
70756W        W32210  25.054  18.122   0.274
70757W        W32211   6.227   7.853   3.281
70758W        W32212  22.549  27.989  14.393
70759W        W32213  24.480  35.571   4.219
70760W        W32214  18.568   4.771  11.919
70761W        W32215  43.793  39.490   4.765
70762W        W32216  20.184   7.798   3.338
70763W        W32217   0.296  23.725  10.970
70764W        W32218   7.831  12.177   4.665
70765W        W32219  43.968  44.454  10.978
70766W        W32220  26.460   9.258   3.678
70767W        W32221  20.078  19.127  11.928
70768W        W32222  15.113  14.791  11.607
70769W        W32223  42.450   4.867   3.176
70770W        W32224   2.821  21.068  12.970
70771W        W32225  22.233  28.009   4.236
70772W        W32226  18.682  18.059  14.446
70773W        W32227  27.464   5.902   9.651
70774W        W32228   2.398  30.571   1.752
70775W        W32229  39.015  16.089   4.809
70776W        W32230  10.205   6.321  13.311
70777W        W32231  16.072  24.721   3.381
70778W        W32232  15.786   9.766  12.089
70779W        W32233  39.387  15.744  13.017
70780W        W32234  43.478  44.861  14.404
70781W        W32235  25.013  13.620  10.529
70782W        W32236  11.184   3.381   4.354
70783W        W32237   1.406  33.446   3.841
70784W        W32238  25.613  25.674  14.424
70785W        W32239  31.514  41.885   4.273
70786W        W32240  20.230  15.626  10.452
70787W        W32241  40.811  18.233  14.448
70788W        W32242   6.414  18.741  12.074
70789W        W32243  13.188  36.908  14.490
70790W        W32244  40.425  42.344   3.183
70791W        W32245   6.360   3.777  14.451
70792W        W32246   7.279  42.284   4.792
70793W        W32247  14.769  44.844   2.302
70794W        W32248  25.500  10.233   1.419
70795W        W32249  10.298  17.799   2.369
70796W        W32250  34.081  36.558  14.761
70797W        W32251  19.710  43.482   3.224
70798W        W32252  43.442  31.601  13.891
70799W        W32253  20.081  38.052   0.835
70800W        W32254  23.624  10.860  12.848
70801W        W32255  37.880  40.321   1.746
70802W        W32256  15.167   4.838  12.369
70803W        W32257  16.128  26.060   3.183
70804W        W32258  26.575   5.331  11.453
70805W        W32259  19.262  18.544  14.861
70806W        W32260  21.667  31.419   2.670
70807W        W32261  12.177  20.092  12.942
70808W        W32262  27.043  25.700   1.795
70809W        W32263  12.741   5.882   1.707
70810W        W32264   9.876  26.547  12.535
70811W        W32265  27.194  19.537  14.957
70812W        W32266   2.421   5.791   4.286
70813W        W32267  22.583  14.828   1.891
70814W        W32268  29.636  23.546  13.333
70815W        W32269  25.553  16.184  12.992
70816W        W32270  33.524   4.399  14.861
70817W        W32271   0.466   6.897  11.608
70818W        W32272  22.569  11.820   3.364
70819W        W32273  21.578   0.749  13.812
70820W        W32274  32.983  43.447   1.312
70821W        W32275  42.911   8.878  14.463
70822W        W32276   0.342  27.533  13.493
70823W        W32277   3.284   7.391   4.611
70824W        W32278  31.005  39.385  13.347
70825W        W32279  19.605  10.231  12.836
70826W        W32280  20.267  23.001  12.987
70827W        W32281  37.015   7.870  11.859
70828W        W32282   6.903   5.690   3.326
70829W        W32283  29.036  32.574   0.787
70830W        W32284   5.751  41.975   1.251
70831W        W32285  30.633  34.491  12.484
70832W        W32286  12.188  21.260   3.764
70833W        W32287  35.571  42.393   1.382
70834W        W32288  39.947  33.113  11.951
70835W        W32289  38.490  11.628  12.579
70836W        W32290  39.990  19.046  14.478
70837W        W32291  27.947   1.755   0.936
70838W        W32292  44.490  38.015  12.934
70839W        W32293  19.615  40.429   1.225
70840W        W32294  44.421   5.862  13.480
70841W        W32295  17.226  14.146   4.180
70842W        W32296  19.624  39.434   3.677
70843W        W32297   4.285  20.044  13.363
70844W        W32298  23.240  17.579  11.550
70845W        W32299  40.903  11.303   1.280
70846W        W32300   9.889  20.037  14.471
70847W        W32301  29.950   4.439   0.479
70848W        W32302  33.919  28.450   3.283
70849W        W32303  40.906  19.703  10.505
70850W        W32304   3.421   9.392  13.481
70851W        W32305  34.378   0.757  13.833
70852W        W32306  20.712   8.353  12.576
70853W        W32307   4.267  40.835   4.218
70854W        W32308  30.583  23.645   2.290
70855W        W32309  44.347  16.240  14.347
70856W        W32310  42.297   8.362   0.886
70857W        W32311  37.350   3.776   3.345
70858W        W32312   3.254  43.482   2.314
70859W        W32313  39.422  20.244   1.820
70860W        W32314  29.070  23.503  11.373
70861W        W32315  15.239   6.799  10.469
70862W        W32316  12.781   2.238  13.893
70863W        W32317  11.129   6.706   2.378
70864W        W32318  13.758  40.001   1.730
70865W        W32319   0.449   4.828  14.486
70866W        W32320  40.974  44.500  10.487
70867W        W32321  25.009  33.038   0.769
70868W        W32322  36.020   3.935   1.894
70869W        W32323  38.882  19.081  10.069
70870W        W32324  32.415  21.745   4.258
70871W        W32325  15.654   8.361  14.879
70872W        W32326   0.370   2.293  11.050
70873W        W32327  27.042  10.762   4.607
70874W        W32328   7.810  23.706   0.347
70875W        W32329  14.187  26.149   4.310
70876W        W32330  24.525  30.464  10.959
70877W        W32331   1.299  44.892   3.219
70878W        W32332   5.292  20.190  13.925
70879W        W32333   3.406  26.592  13.009
70880W        W32334   0.949  19.266   0.915
70881W        W32335  24.985  38.558  10.892
70882W        W32336  24.130  28.508   0.737
70883W        W32337  43.831  21.713  12.421
70884W        W32338   8.297  21.154  13.062
70885W        W32339  25.048   3.358   3.732
70886W        W32340  27.650  21.714   5.710
70887W        W32341  24.595   9.719  10.966
70888W        W32342  19.692  31.618   2.838
70889W        W32343   1.317  37.414  12.980
70890W        W32344   4.703   3.374   4.331
70891W        W32345  23.053  13.235   3.855
70892W        W32346  27.647  21.691   9.478
70893W        W32347  44.422   9.346  10.521
70894W        W32348   6.890   6.206   2.762
70895W        W32349  10.682  27.089  13.987
70896W        W32350  32.888  19.585  11.897
70897W        W32351  24.543  33.879  10.554
70898W        W32352   5.384   7.860   0.315
70899W        W32353  41.431  39.422   4.245
70900W        W32354  29.938  20.059  11.561
70901W        W32355  33.965  42.954  12.537
70902W        W32356  35.593  26.153   1.797
70903W        W32357  10.299  36.987   1.350
70904W        W32358  29.004  27.489   5.222
70905W        W32359  23.058  30.003  11.588
70906W        W32360  39.904   5.343  14.847
70907W        W32361  15.686  42.968  10.018
70908W        W32362  13.147  22.676  10.932
70909W        W32363  14.128  34.121   2.380
70910W        W32364   0.455   0.875  13.863
70911W        W32365  39.055  26.992  12.923
70912W        W32366  32.482  29.654  12.828
70913W        W32367  11.665  34.602  11.984
70914W        W32368  42.831  28.496   3.700
70915W        W32369   1.454   4.713  11.587
70916W        W32370  29.114  35.542  14.924
70917W        W32371  31.104   6.394   4.218
70918W        W32372  41.915   9.252  14.889
70919W        W32373  39.365  28.618  11.069
70920W        W32374  12.197  29.112   4.796
70921W        W32375   4.755  16.703   1.428
70922W        W32376  43.874  23.696   0.849
70923W        W32377  27.466  18.107  13.929
70924W        W32378   0.295  19.248  14.509
70925W        W32379  18.262  12.148  11.938
70926W        W32380  12.333  35.478   3.655
70927W        W32381   7.853  44.311   2.831
70928W        W32382   3.737  42.001  11.459
70929W        W32383  12.205  30.533  10.942
70930W        W32384  43.779   6.184   0.806
70931W        W32385  20.172  19.539   1.839
70932W        W32386  11.309  39.414   0.848
70933W        W32387  40.366  20.164  12.367
70934W        W32388  29.439  17.106   4.682
70935W        W32389  30.437  25.182   0.859
70936W        W32390  37.874   6.373  12.090
70937W        W32391  29.533  18.248  10.434
70938W        W32392  23.523  25.983   4.774
70939W        W32393  19.262  22.717  13.521
70940W        W32394  20.752   6.211   2.335
70941W        W32395  28.492  27.454   4.150
70942W        W32396  15.132  42.017   1.926
70943W        W32397  11.706  24.202   1.852
70944W        W32398  43.377  37.496   2.860
70945W        W32399  28.516  26.570   5.203
70946W        W32400  13.783  20.551   0.363
70947W        W32401  12.835   9.262  12.455
70948W        W32402   9.215  22.676  12.943
70949W        W32403  19.244  35.516   1.320
70950W        W32404   7.835  14.719   3.303
70951W        W32405  15.146  43.881   1.379
70952W        W32406  34.574  10.374  12.543
70953W        W32407   3.892  12.156   2.711
70954W        W32408  10.310  12.832  13.863
70955W        W32409  11.624  31.439  12.056
70956W        W32410  26.598  14.120   1.829
70957W        W32411  30.597  44.938  11.115
70958W        W32412  27.473  18.688   2.888
70959W        W32413  10.632  29.081   4.174
70960W        W32414  41.946  42.932   0.939
70961W        W32415  41.479  21.673  13.352
70962W        W32416  24.085  13.641   4.785
70963W        W32417  31.907  14.636   2.796
70964W        W32418  43.335  41.787   0.322
70965W        W32419  17.124  43.338  14.347
70966W        W32420  12.811  26.180   3.353
70967W        W32421  15.305  13.777  13.360
70968W        W32422  18.118   7.808  10.528
70969W        W32423  15.659  30.076  13.348
70970W        W32424  36.061  10.755   0.798
70971W        W32425  41.389   4.849  12.577
70972W        W32426   5.795  35.898  12.873
70973W        W32427   3.453  37.525   4.614
70974W        W32428  12.180  40.848   1.710
70975W        W32429  28.006  21.535   0.819
70976W        W32430  21.522   1.279  11.115
70977W        W32431  37.970   2.751  12.413
70978W        W32432  35.971  44.909   3.762
70979W        W32433  27.029  43.396   3.839
70980W        W32434  41.913  33.099  11.504
70981W        W32435  41.950  36.855   4.317
70982W        W32436  39.977  33.562  10.552
70983W        W32437  15.696  43.864  13.339
70984W        W32438   0.918  40.466  12.500
70985W        W32439  18.249  42.347   4.640
70986W        W32440   8.389  43.778  11.421
70987W        W32441  39.966  20.648   4.690
70988W        W32442  22.116  38.010  10.561
70989W        W32443  24.026  26.483  11.424
70990W        W32444   6.848   7.760  12.380
70991W        W32445  28.978   8.827  14.906
70992W        W32446  17.123  36.395  11.994
70993W        W32447  31.479  35.968  13.368
70994W        W32448  15.624  10.875  11.069
70995W        W32449   6.348  29.484   4.280
70996W        W32450  26.463  10.859   3.349
70997W        W32451  27.684  20.566  10.020
70998W        W32452  33.055  10.851   4.732
70999W        W32453   9.360   3.924  13.053
71000W        W32454  23.236  15.629  12.062
71001W        W32455   3.893  18.692  11.965
71002W        W32456  42.836  43.875  12.943
71003W        W32457   3.876  21.690   0.432
71004W        W32458  25.158  36.845   4.169
71005W        W32459  34.059  42.860  10.901
71006W        W32460  39.023   3.379   1.389
71007W        W32461  24.643  17.797   1.390
71008W        W32462  32.395  40.367  13.993
71009W        W32463  41.534  44.959  14.865
71010W        W32464  43.982  34.048   1.732
71011W        W32465   7.891   8.874   2.308
71012W        W32466  41.525  20.222  12.094
71013W        W32467  26.617   7.825  14.873
71014W        W32468   6.678  30.118  14.407
71015W        W32469  40.799  19.041  11.600
71016W        W32470  15.718  31.070  13.042
71017W        W32471  22.568  30.009  11.922
71018W        W32472  19.775   4.450   4.599
71019W        W32473  10.766  32.421   2.323
71020W        W32474  24.509  38.486  10.965
71021W        W32475  33.050  12.141  10.025
71022W        W32476  21.532  20.566   1.429
71023W        W32477  27.133  30.550   2.351
71024W        W32478   2.267  14.118  14.353
71025W        W32479  16.235  41.938  13.044
71026W        W32480  40.978  15.197  12.867
71027W        W32481  30.483   7.399  10.548
71028W        W32482   3.374   4.713  10.979
71029W        W32483  21.745   2.260   2.212
71030W        W32484  40.985  15.278  13.845
71031W        W32485  33.427   3.216  13.910
71032W        W32486  35.422  33.435   2.390
71033W        W32487   6.750  37.442   3.167
71034W        W32488  37.973  12.199  14.831
71035W        W32489  33.089  17.606   4.239
71036W        W32490  18.674  40.536  12.491
71037W        W32491  35.566  43.457   1.810
71038W        W32492  24.053  35.410  13.827
71039W        W32493  17.722  26.182  14.478
71040W        W32494  19.167  12.852  14.924
71041W        W32495  34.113   6.295  11.578
71042W        W32496  33.508  12.804  14.944
71043W        W32497  41.510  40.857  11.502
71044W        W32498  42.945  24.135  13.038
71045W        W32499  44.840  44.360  10.989
71046W        W32500  10.327  10.783  11.013
71047W        W32501   7.776  19.272  11.933
71048W        W32502   1.337  29.066   1.370
71049W        W32503  39.327   3.248   0.356
71050W        W32504  33.598  29.165   9.958
71051W        W32505   6.239  38.356  12.956
71052W        W32506  26.596   2.925   3.783
71053W        W32507   5.823  25.015   0.926
71054W        W32508  42.953   8.681   3.746
71055W        W32509  37.997  28.640   4.118
71056W        W32510  21.124  30.436   2.181
71057W        W32511  19.735  27.621  12.838
71058W        W32512  16.182  42.339  13.404
71059W        W32513  28.112  30.979   4.678
71060W        W32514  40.988  19.684  14.923
71061W        W32515  37.446  44.496  12.926
71062W        W32516   5.774  28.532   1.407
71063W        W32517  42.857  43.403   2.368
71064W        W32518  33.595  19.197  13.536
71065W        W32519   9.743  14.719   0.836
71066W        W32520   6.296  32.539   3.351
71067W        W32521  27.614  30.427   0.345
71068W        W32522   0.479  16.075   1.367
71069W        W32523  18.145  20.619   0.868
71070W        W32524   6.727  43.817  11.092
71071W        W32525   2.250  40.353   1.235
71072W        W32526  26.973  27.139  10.529
71073W        W32527   8.326  31.092  12.419
71074W        W32528   2.377  38.053  12.485
71075W        W32529  36.570  20.701   3.833
71076W        W32530   5.316  11.221  10.961
71077W        W32531  44.417  32.136  14.454
71078W        W32532  24.496  31.497  14.466
71079W        W32533   0.827   8.753   2.312
71080W        W32534  18.267  37.939  13.457
71081W        W32535  31.565  20.648   3.291
71082W        W32536  17.166  13.346  12.966
71083W        W32537   3.301  23.209   1.415
71084W        W32538  23.617  37.065   3.728
71085W        W32539  12.823  44.768  11.968
71086W        W32540  36.483  11.183   2.766
71087W        W32541  31.495   0.264   3.297
71088W        W32542   3.800   8.798  12.014
71089W        W32543  29.092   1.821   1.707
71090W        W32544  23.120  36.547   4.821
71091W        W32545  39.838   0.321  10.922
71092W        W32546  17.072  15.308   1.752
71093W        W32547  16.291  13.839  11.501
71094W        W32548   4.921  18.159  11.398
71095W        W32549  36.544  21.206  14.019
71096W        W32550  13.785   0.911  13.476
71097W        W32551  38.558  37.881   1.810
71098W        W32552  22.210  29.649  10.996
71099W        W32553  33.573  32.999  13.377
71100W        W32554  43.499  24.516  13.814
71101W        W32555  21.720  11.840  12.478
71102W        W32556  19.664  43.278   3.657
71103W        W32557  10.731  16.649   1.230
71104W        W32558  25.659  23.493  14.949
71105W        W32559  24.583  35.957  14.479
71106W        W32560  10.767  43.318   2.311
71107W        W32561   7.736  32.594   2.714
71108W        W32562  39.354  33.907   4.721
71109W        W32563  20.134  31.564  13.450
71110W        W32564  19.209  39.350   1.239
71111W        W32565  31.069  29.468   2.296
71112W        W32566  23.688   7.780  13.861
71113W        W32567  11.656  17.092  10.556
71114W        W32568  10.319  10.285  13.796
71115W        W32569  33.906  31.618   0.789
71116W        W32570  16.102   8.667  10.446
71117W        W32571  24.018  28.578  12.091
71118W        W32572  42.506  15.708  13.409
71119W        W32573  41.450  22.156   1.806
71120W        W32574  42.945  40.307  14.783
71121W        W32575  30.028  12.692   3.178
71122W        W32576  12.198  41.357   2.356
71123W        W32577  35.100   1.878   5.244
71124W        W32578  29.139  43.357   3.728
71125W        W32579  28.151   1.874  10.150
71126W        W32580  32.569  32.913  10.516
71127W        W32581  24.620  27.151  12.017
71128W        W32582  23.632  15.180   2.811
71129W        W32583  15.303  35.407  12.533
71130W        W32584   0.846   4.383   0.391
71131W        W32585  35.005  37.912  11.478
71132W        W32586   1.976   4.820   0.351
71133W        W32587  21.118  37.929   0.935
71134W        W32588  10.362   5.694  13.883
71135W        W32589  15.602  15.811  14.779
71136W        W32590   9.753  19.105  14.915
71137W        W32591  11.234  32.490  14.409
71138W        W32592  39.540   2.759   3.733
71139W        W32593   7.362  42.778  11.524
71140W        W32594  34.990   1.357   3.254
71141W        W32595  43.503  36.096   2.709
71142W        W32596  25.521  34.540  12.490
71143W        W32597  18.671  35.562   2.291
71144W        W32598  21.198  28.939  10.089
71145W        W32599  18.651  38.465   2.811
71146W        W32600  11.352   8.389   1.842
71147W        W32601  35.603  10.226   4.332
71148W        W32602  29.656  28.441  10.495
71149W        W32603  12.698  40.477  13.968
71150W        W32604  10.293  36.001  12.369
71151W        W32605   0.870  30.592  12.830
71152W        W32606  38.358  40.964  14.372
71153W        W32607  10.770  38.965   3.271
71154W        W32608   4.380  12.708   1.344
71155W        W32609  12.121   5.843   0.918
71156W        W32610  27.179  35.091  13.538
71157W        W32611   9.701  23.014   2.266
71158W        W32612  24.117   0.333  14.813
71159W        W32613  35.103   2.333  10.549
71160W        W32614  35.089  12.184  14.279
71161W        W32615  34.949  15.094  11.040
71162W        W32616  22.211   6.718  10.962
71163W        W32617  19.081   5.835  11.529
71164W        W32618  23.696  17.086   3.360
71165W        W32619  35.602   5.389  10.460
71166W        W32620  14.336  31.106   0.828
71167W        W32621   5.223  38.427   0.268
71168W        W32622  10.263  18.180   0.276
71169W        W32623  18.704  12.836  10.443
71170W        W32624   9.276  42.425  13.855
71171W        W32625  44.503   7.782  13.958
71172W        W32626  41.988  41.856   1.796
71173W        W32627  31.609  22.554  12.352
71174W        W32628  30.091   0.759  13.844
71175W        W32629  17.682  16.092  12.511
71176W        W32630  42.888  35.084   1.346
71177W        W32631   9.738   9.890  10.582
71178W        W32632  40.930  34.009  10.594
71179W        W32633  20.161   3.952   2.278
71180W        W32634  13.662  40.014   2.826
71181W        W32635  30.424  17.644   1.781
71182W        W32636  33.951  26.142  11.971
71183W        W32637  43.381  36.498   2.840
71184W        W32638   8.193   9.351  11.858
71185W        W32639  42.319  11.655  11.562
71186W        W32640  30.489  37.837   4.189
71187W        W32641  35.107  13.655   0.804
71188W        W32642  39.829  38.008   0.315
71189W        W32643   4.758  40.522  11.593
71190W        W32644   4.945  15.275  12.421
71191W        W32645   9.193  38.380  14.371
71192W        W32646  37.389   8.878   0.804
71193W        W32647  26.530  12.319   4.679
71194W        W32648   7.716   7.192   4.691
71195W        W32649  17.268   4.832   0.410
71196W        W32650  42.958  30.917  11.100
71197W        W32651  28.608   6.689   3.360
71198W        W32652  19.148   6.307   4.805
71199W        W32653  44.953  25.607   2.412
71200W        W32654  25.489  10.336   3.169
71201W        W32655  40.936  21.587  13.958
71202W        W32656   5.337  40.431  14.464
71203W        W32657   5.284  16.133   3.738
71204W        W32658   3.296  43.323  10.519
71205W        W32659  14.777  40.340   3.737
71206W        W32660  14.198   2.876  12.862
71207W        W32661   6.271  16.787  14.347
71208W        W32662  21.200   3.255   2.384
71209W        W32663  40.457  12.289   3.272
71210W        W32664  15.133  24.225  12.480
71211W        W32665  18.192   1.464   3.146
71212W        W32666   1.852  18.754  14.354
71213W        W32667   7.395  39.957  11.010
71214W        W32668  41.947  32.985   0.448
71215W        W32669  34.870   3.753   1.290
71216W        W32670   5.375  37.084  11.529
71217W        W32671  19.670   0.333  12.916
71218W        W32672  25.580  44.893  13.940
71219W        W32673  29.561  34.107  13.867
71220W        W32674  25.111  31.082  14.415
71221W        W32675   4.786  27.988   3.160
71222W        W32676  43.900   9.372  14.969
71223W        W32677  29.150  10.256  12.393
71224W        W32678   5.804  26.592   4.174
71225W        W32679  10.865  16.664  12.579
71226W        W32680  28.675  20.246  12.913
71227W        W32681  32.978  36.982  11.612
71228W        W32682  17.713   0.755   2.338
71229W        W32683  14.320  16.273  13.903
71230W        W32684   8.854  32.015   0.904
71231W        W32685  39.389  30.635  12.890
71232W        W32686   0.928  12.718  10.522
71233W        W32687  19.605  17.149  10.590
71234W        W32688  29.556  41.921   0.364
71235W        W32689  31.478   4.336  11.862
71236W        W32690  25.560  18.719  13.010
71237W        W32691   8.847   8.372  14.348
71238W        W32692  23.694  14.111  10.507
71239W        W32693  21.029  41.839   2.847
71240W        W32694  39.318  22.213   3.724
71241W        W32695  44.502  14.719   1.915
71242W        W32696  30.114  34.998  12.019
71243W        W32697  16.643  40.440   0.814
71244W        W32698  18.627  10.831  11.587
71245W        W32699  33.980  37.871  10.482
71246W        W32700   4.882  41.370  12.064
71247W        W32701  34.562  21.134  13.926
71248W        W32702  26.098   9.756   4.708
71249W        W32703  28.481  36.541   1.872
71250W        W32704  13.146   0.276  13.908
71251W        W32705  19.246  36.067   4.609
71252W        W32706  15.619   1.838   9.922
71253W        W32707  28.089   7.268  10.556
71254W        W32708  16.805  40.542  12.411
71255W        W32709  32.942  10.176   4.293
71256W        W32710   4.728   7.303   2.780
71257W        W32711  38.942  41.926  14.797
71258W        W32712  16.623  28.106   3.333
71259W        W32713  25.673  14.588  13.542
71260W        W32714  14.247  32.046   1.758
71261W        W32715   7.413  39.923   3.796
71262W        W32716   0.372  23.061   4.824
71263W        W32717  31.530   4.852   3.733
71264W        W32718  15.666  32.991  13.863
71265W        W32719  16.109   5.917  14.829
71266W        W32720  35.890   2.757   4.268
71267W        W32721  42.018   0.889  12.919
71268W        W32722  36.511  21.662  12.436
71269W        W32723  30.608  39.365   1.343
71270W        W32724  37.472  10.145  11.953
71271W        W32725  44.389  20.695  12.397
71272W        W32726  11.813  28.441  13.855
71273W        W32727   6.803   8.260  13.487
71274W        W32728  35.450  35.582  14.336
71275W        W32729  10.310  11.758   2.865
71276W        W32730  37.384   8.227  13.921
71277W        W32731  44.950   6.289   1.310
71278W        W32732  22.547  19.717   3.343
71279W        W32733  36.089  27.673  13.372
71280W        W32734  21.157  29.095   2.792
71281W        W32735  30.608   6.243   1.798
71282W        W32736  39.545   2.892   0.754
71283W        W32737  29.010  22.243  13.860
71284W        W32738  37.839   3.888   0.796
71285W        W32739  19.205  43.399   4.605
71286W        W32740  30.104  41.379   1.277
71287W        W32741  19.559  26.657  14.821
71288W        W32742  10.686  14.648  11.588
71289W        W32743  27.161  24.665   3.778
71290W        W32744  12.810   8.663   0.829
71291W        W32745  41.308  31.133  11.945
71292W        W32746  39.534  12.258  11.594
71293W        W32747  42.983  32.910   1.836
71294W        W32748  41.894   5.868  11.474
71295W        W32749  27.130  40.933   0.274
71296W        W32750  11.192  40.885  14.820
71297W        W32751  24.007   3.349  10.966
71298W        W32752  40.904  40.930  11.007
71299W        W32753   9.187  41.991   4.226
71300W        W32754   7.177  44.492   2.821
71301W        W32755  39.049  21.123  11.513
71302W        W32756  44.926   5.207  10.635
71303W        W32757  37.876  44.439  11.889
71304W        W32758  21.189  33.901   3.758
71305W        W32759  26.142  34.096   1.876
71306W        W32760  32.055  41.787  14.489
71307W        W32761  31.036   9.353  13.331
71308W        W32762  33.449  28.041  13.878
71309W        W32763  13.659  22.996   3.313
71310W        W32764  12.823  26.478   2.833
71311W        W32765  36.963  10.741  12.573
71312W        W32766  43.912  32.966   4.192
71313W        W32767  29.668  31.972   2.785
71314W        W32768  33.876  33.463  13.370
71315W        W32769  12.756  42.998  10.536
71316W        W32770  32.045  42.515  13.376
71317W        W32771  10.243  15.634  10.904
71318W        W32772  13.269  19.059  13.844
71319W        W32773  35.992  20.182   3.370
71320W        W32774  15.724  40.049  12.957
71321W        W32775  15.668  33.607  14.440
71322W        W32776  13.644   2.936  13.801
71323W        W32777  35.456  17.245  11.094
71324W        W32778  28.588  35.890   1.760
71325W        W32779  31.428  10.860  14.904
71326W        W32780  35.488  13.821  12.366
71327W        W32781   8.775   5.809  13.513
71328W        W32782  21.582  39.953   2.666
71329W        W32783  44.974  42.859  13.424
71330W        W32784  19.278  43.355   0.322
71331W        W32785  39.389  43.992   1.383
71332W        W32786  12.247  13.674  13.062
71333W        W32787   3.881  35.955   3.323
71334W        W32788  34.006  24.000   2.374
71335W        W32789  16.113  31.952   0.420
71336W        W32790  37.869  21.043  13.418
71337W        W32791  27.184  17.280   4.267
71338W        W32792  21.105  20.761   3.317
71339W        W32793  38.037   2.262  11.470
71340W        W32794  43.869  27.459   1.740
71341W        W32795  37.390  36.497  14.377
71342W        W32796  28.075  11.343  14.829
71343W        W32797  36.415  20.179   1.867
71344W        W32798   3.910  11.229   2.366
71345W        W32799  26.034  16.090   1.400
71346W        W32800  10.734  42.802  12.967
71347W        W32801   8.380  21.055  12.555
71348W        W32802   4.245  43.906  12.939
71349W        W32803   4.388  24.220   0.753
71350W        W32804  43.476  29.133   4.775
71351W        W32805   3.337   4.837   2.216
71352W        W32806   8.167  40.446   1.780
71353W        W32807  26.629  25.528   2.365
71354W        W32808  26.683  19.757  14.760
71355W        W32809  19.167   4.856  13.026
71356W        W32810  33.894  28.564  11.502
71357W        W32811  44.982  37.862   2.735
71358W        W32812   2.235  44.279   4.768
71359W        W32813  37.575  21.681   0.282
71360W        W32814  10.209   2.786  14.841
71361W        W32815  16.684  36.963   0.844
71362W        W32816  24.157  16.313  14.375
71363W        W32817   3.710  28.535   2.677
71364W        W32818   2.307  26.957  12.007
71365W        W32819  43.013  36.849  11.596
71366W        W32820  17.615  16.792   1.798
71367W        W32821  15.104  43.940  14.821
71368W        W32822  23.107  23.230   1.761
71369W        W32823  13.642   2.421   2.764
71370W        W32824  19.543  28.640   1.744
71371W        W32825  44.951  12.819  13.988
71372W        W32826  42.791   4.257   0.354
71373W        W32827  30.541  29.047   2.287
71374W        W32828   5.339  34.954  14.431
71375W        W32829  26.654  18.187   3.739
71376W        W32830   5.822   7.774  13.456
71377W        W32831  33.547  29.448  13.959
71378W        W32832  32.548  21.077   3.322
71379W        W32833  31.427  24.688  13.458
71380W        W32834  26.014   4.813   0.795
71381W        W32835  43.881  36.416  12.423
71382W        W32836   4.931  13.779  13.061
71383W        W32837  35.968  43.007   1.351
71384W        W32838  41.043  23.113  14.857
71385W        W32839   4.742   5.336  11.875
71386W        W32840  18.220  16.717  13.373
71387W        W32841   9.354   3.830  13.388
71388W        W32842   0.425  28.984  12.577
71389W        W32843  24.035   1.307   2.262
71390W        W32844  42.440  27.663   2.327
71391W        W32845  10.830  23.492  14.421
71392W        W32846  23.099  10.799   5.775
71393W        W32847  21.065  16.238   2.685
71394W        W32848  17.743  14.717  10.963
71395W        W32849   8.765   5.868  10.905
71396W        W32850   2.463   7.679   1.766
71397W        W32851  22.524  19.583   2.748
71398W        W32852  41.518  40.331  11.897
71399W        W32853  21.571  38.359   1.218
71400W        W32854  14.272   2.391   2.894
71401W        W32855  43.815  17.731  12.054
71402W        W32856   8.690   9.374  12.443
71403W        W32857   2.843  26.089  12.358
71404W        W32858   1.931  26.115  13.376
71405W        W32859   2.763  12.186   4.836
71406W        W32860  39.055  26.208   4.146
71407W        W32861  36.090   5.276   1.874
71408W        W32862   3.395  36.926  12.545
71409W        W32863   6.292   1.344   1.302
71410W        W32864  35.549  12.733  11.893
71411W        W32865   3.903  23.140   0.315
71412W        W32866  20.196   4.393  12.370
71413W        W32867  30.165  32.609   0.906
71414W        W32868   6.248  15.256  11.055
71415W        W32869   3.850   7.719  10.916
71416W        W32870  18.723  30.999   4.655
71417W        W32871  33.045  36.923  13.402
71418W        W32872   2.949  24.591  14.806
71419W        W32873  29.642  10.829  14.900
71420W        W32874  11.828  39.555   2.335
71421W        W32875  19.691  43.410  11.401
71422W        W32876   2.862  12.834   0.364
71423W        W32877  35.521  10.728  13.960
71424W        W32878  32.568  30.475   4.166
71425W        W32879   1.464  41.430  12.560
71426W        W32880  15.777  30.542   2.386
71427W        W32881  31.105  44.303   1.422
71428W        W32882  24.515   6.764  12.015
71429W        W32883  40.001   2.431  12.567
71430W        W32884  42.869  32.046  13.061
71431W        W32885  17.597   5.738   0.251
71432W        W32886  36.348  15.730   3.788
71433W        W32887  32.506  30.024   1.828
71434W        W32888  16.574   2.335  13.345
71435W        W32889  13.256  14.598  12.534
71436W        W32890  40.807  41.003   3.320
71437W        W32891  22.666   5.244   3.230
71438W        W32892   8.405  21.748  11.083
71439W        W32893  28.954  37.028   2.720
71440W        W32894  26.054  10.197  14.957
71441W        W32895   7.280   3.921   4.146
71442W        W32896   2.959   9.695   2.222
71443W        W32897   5.921   2.882   2.304
71444W        W32898  20.148  12.669   3.365
71445W        W32899   6.680  23.020  11.866
71446W        W32900  15.267   8.395  13.440
71447W        W32901   1.859   6.337  13.327
71448W        W32902  39.035  37.415  10.130
71449W        W32903  24.188  40.993  13.964
71450W        W32904  30.142   1.831   1.403
71451W        W32905  29.992   1.429   4.730
71452W        W32906  33.065   1.949   4.732
71453W        W32907  19.075  25.000  13.921
71454W        W32908  12.321   9.264   1.790
71455W        W32909  23.631  40.017  12.967
71456W        W32910  22.067  23.201  12.076
71457W        W32911  25.175  25.117  13.860
71458W        W32912  29.129  28.097   1.822
71459W        W32913  40.424  44.403  12.945
71460W        W32914  31.004   7.825   3.777
71461W        W32915  31.571  20.748  11.924
71462W        W32916  34.570  11.223   4.693
71463W        W32917  37.006   0.485  10.487
71464W        W32918  44.767  14.809  13.479
71465W        W32919  16.773  31.608  14.383
71466W        W32920   3.780  40.813   0.365
71467W        W32921   6.317  29.950  11.568
71468W        W32922  19.632   5.800   3.146
71469W        W32923  29.155   7.895   0.737
71470W        W32924  13.701   0.480  12.934
71471W        W32925  21.136  33.992   2.387
71472W        W32926  35.091  10.636   4.836
71473W        W32927   5.398  22.677  14.855
71474W        W32928  39.007   1.467  11.926
71475W        W32929   1.747  23.054  13.329
71476W        W32930  25.694   4.840   4.605
71477W        W32931  37.056  40.954  11.084
71478W        W32932  42.865  43.333  13.524
71479W        W32933  16.657  15.121   5.300
71480W        W32934   1.278  11.288  12.854
71481W        W32935   6.898   2.750  14.921
71482W        W32936   1.339   4.350   1.878
71483W        W32937  40.899   5.204   4.351
71484W        W32938  42.342  37.967  14.290
71485W        W32939  43.968  24.500  12.367
71486W        W32940  20.050  22.616  14.773
71487W        W32941  44.379   1.386   0.336
71488W        W32942  27.521  10.639  14.442
71489W        W32943  26.043   9.703   1.273
71490W        W32944  11.154   5.283  11.484
71491W        W32945   0.328  24.708  13.989
71492W        W32946  12.341   8.874   1.888
71493W        W32947  41.814  44.405   4.184
71494W        W32948  25.049  32.448   0.427
71495W        W32949  33.439  23.588  11.546
71496W        W32950  26.540  16.646   2.673
71497W        W32951  24.162  40.946   1.758
71498W        W32952  40.417  33.964   3.176
71499W        W32953   6.330  38.520  11.508
71500W        W32954  32.910  26.077   1.377
71501W        W32955   5.821  37.026   0.840
71502W        W32956  43.777  44.429   3.781
71503W        W32957  11.243  15.233   1.423
71504W        W32958  10.809  16.633   0.768
71505W        W32959  39.424  27.635   2.837
71506W        W32960  25.073  18.269   4.785
71507W        W32961  17.795   7.399  13.953
71508W        W32962   2.364  27.619   1.417
71509W        W32963   5.932  32.932   5.307
71510W        W32964   6.374   5.421   1.820
71511W        W32965   6.833  44.463  11.096
71512W        W32966  27.144   4.326   0.479
71513W        W32967  34.512  25.190   2.899
71514W        W32968  14.611  29.590   3.243
71515W        W32969  30.504  12.277  14.439
71516W        W32970  37.010   0.784   4.117
71517W        W32971  11.717  40.418  11.096
71518W        W32972  24.207  36.029  11.439
71519W        W32973  36.057  10.174   4.276
71520W        W32974   8.256  17.158   1.888
71521W        W32975  26.567  24.184  12.449
71522W        W32976  34.518  42.029   4.232
71523W        W32977   3.292  10.152  11.104
71524W        W32978  22.090  12.255   1.336
71525W        W32979   5.859  30.574  11.102
71526W        W32980  13.702  41.975   3.360
71527W        W32981  14.754  19.536   4.832
71528W        W32982  44.354  12.164  12.020
71529W        W32983  29.950  37.997  10.529
71530W        W32984  27.167  31.086  12.380
71531W        W32985  14.803  28.583  11.589
71532W        W32986   7.842  13.339  12.952
71533W        W32987  32.102  39.437  11.593
71534W        W32988   3.816  22.008  13.365
71535W        W32989  31.058  29.639  14.844
71536W        W32990  22.590  34.868   0.457
71537W        W32991  25.039  44.791   0.750
71538W        W32992  26.057  38.491   3.236
71539W        W32993   3.316  14.219  14.949
71540W        W32994   5.756  16.746  12.953
71541W        W32995  34.613  41.012  12.088
71542W        W32996  18.055  25.587   3.154
71543W        W32997  16.260  22.669  11.399
71544W        W32998  16.208  41.992  11.541
71545W        W32999  14.723   2.241  13.804
71546W        W33000  10.221  39.429  14.837
71547W        W33001  27.516  18.723   2.228
71548W        W33002  21.134  32.417   0.769
71549W        W33003  14.631  44.393  13.394
71550W        W33004   0.839  20.154   3.159
71551W        W33005  10.779   1.382   2.809
71552W        W33006  20.252  43.003   1.714
71553W        W33007   6.377  12.255  12.908
71554W        W33008   4.728  44.489  14.316
71555W        W33009   2.940  20.146  14.811
71556W        W33010  43.378   6.194   3.257
71557W        W33011  21.579  35.024  11.904
71558W        W33012  17.668  25.068  12.515
71559W        W33013  40.365   3.936  11.377
71560W        W33014  26.539  12.672   2.394
71561W        W33015  19.570  11.661   3.738
71562W        W33016  12.675  15.243   0.379
71563W        W33017  25.027  25.550   4.755
71564W        W33018  21.262  27.002   3.854
71565W        W33019  40.880   4.861   1.331
71566W        W33020  27.964  27.587   0.788
71567W        W33021  12.661   1.384   3.655
71568W        W33022  26.085  22.587   2.692
71569W        W33023  23.493   3.936   0.425
71570W        W33024   3.875  41.964   3.164
71571W        W33025  38.528   0.886  10.431
71572W        W33026   7.734   5.280   3.217
71573W        W33027  21.517  42.465  13.320
71574W        W33028   3.300  29.085   2.665
71575W        W33029  43.505   0.441   3.367
71576W        W33030  42.016  18.129   0.946
71577W        W33031   9.802  18.760  11.555
71578W        W33032  14.742  15.738  14.772
71579W        W33033  23.667   2.735  11.867
71580W        W33034  33.965  38.857  13.060
71581W        W33035  11.644  29.526   2.795
71582W        W33036  42.472  34.099   3.797
71583W        W33037  29.985  21.568  10.560
71584W        W33038  42.903  38.948   3.670
71585W        W33039   3.809  40.957   4.759
71586W        W33040  17.224  15.222   2.708
71587W        W33041  25.035  39.346   3.860
71588W        W33042  30.157  34.071  12.005
71589W        W33043   1.340   8.311   4.798
71590W        W33044  34.410  30.949   4.289
71591W        W33045  23.241   3.720  14.780
71592W        W33046  27.544  31.432  13.446
71593W        W33047  42.844  35.507  12.825
71594W        W33048  14.183  19.216  11.568
71595W        W33049   2.833  25.118   2.690
71596W        W33050  18.603  38.838   3.248
71597W        W33051   5.429   7.728  11.954
71598W        W33052   0.441  33.541  14.458
71599W        W33053   6.327  31.989  14.890
71600W        W33054  16.274  17.731   4.235
71601W        W33055  33.602  13.237  10.930
71602W        W33056  44.947  14.205   4.599
71603W        W33057   6.711   9.811   4.337
71604W        W33058  27.166  24.538   1.358
71605W        W33059  18.184  34.566  12.827
71606W        W33060  25.709  39.443   2.810
71607W        W33061   8.829  18.576   3.694
71608W        W33062  17.659  37.083  11.930
71609W        W33063   1.920  32.094  13.011
71610W        W33064  14.260  24.703   3.197
71611W        W33065  25.003  30.923  12.081
71612W        W33066  44.417   4.717   3.271
71613W        W33067  39.867   8.249   3.738
71614W        W33068  36.384  35.436   1.850
71615W        W33069  44.972  38.482  11.968
71616W        W33070  23.569   3.410  12.057
71617W        W33071  19.749   6.864  13.837
71618W        W33072  33.468   0.462  10.045
71619W        W33073  44.342  20.724  10.976
71620W        W33074  27.653   3.737  10.955
71621W        W33075  43.968   7.366   2.276
71622W        W33076   3.919  42.003   2.364
71623W        W33077  16.219  14.275  11.446
71624W        W33078  40.403  23.217   1.864
71625W        W33079  11.151  19.051   2.259
71626W        W33080  35.511  32.117   3.634
71627W        W33081  20.092  21.681  13.400
71628W        W33082  38.364  34.007   2.661
71629W        W33083  25.534  40.823   1.822
71630W        W33084  23.583  43.372   3.245
71631W        W33085   7.822  11.278  13.924
71632W        W33086  25.971  29.645  14.370
71633W        W33087  11.708  14.094  14.774
71634W        W33088  18.677   0.326  13.899
71635W        W33089  16.140  31.430   4.816
71636W        W33090   1.353   6.216   4.333
71637W        W33091  43.391  31.944   3.670
71638W        W33092  29.577  34.102   2.777
71639W        W33093  32.934  10.285   2.407
71640W        W33094  27.568  20.163  14.886
71641W        W33095  15.659  28.523   4.354
71642W        W33096   5.292  28.060  10.407
71643W        W33097   8.207  44.896  13.417
71644W        W33098   0.268  40.875  10.516
71645W        W33099  20.643   4.310  12.348
71646W        W33100  38.370  37.353   3.208
71647W        W33101  41.538   7.175  13.447
71648W        W33102  29.949  18.667   4.319
71649W        W33103  14.828  29.122   1.329
71650W        W33104  41.836  29.475   4.263
71651W        W33105  13.820   6.755   4.644
71652W        W33106  32.029  17.692   4.251
71653W        W33107  40.340   4.212  12.472
71654W        W33108   9.866  26.521   2.770
71655W        W33109   7.259  23.528  11.900
71656W        W33110  28.469  31.020  14.930
71657W        W33111  43.952  11.319   1.232
71658W        W33112   5.228  14.782  13.852
71659W        W33113  38.066  21.704  13.506
71660W        W33114  43.890  15.587   3.343
71661W        W33115  41.996  28.497   1.359
71662W        W33116  28.950  39.528   4.338
71663W        W33117  43.780   9.390   1.905
71664W        W33118  26.507  21.178  13.456
71665W        W33119  27.577  18.627  11.398
71666W        W33120  37.866  30.489   5.147
71667W        W33121  20.679   5.806   4.255
71668W        W33122   9.184  18.216   4.703
71669W        W33123  41.345   8.861   0.813
71670W        W33124  14.807  37.408  11.077
71671W        W33125  15.681  43.876  14.981
71672W        W33126  15.639   3.931  12.978
71673W        W33127  19.156   5.790  10.555
71674W        W33128  14.180  28.594  13.867
71675W        W33129  43.294   6.834   4.286
71676W        W33130   7.726   0.437   3.660
71677W        W33131  39.486  12.253  13.945
71678W        W33132  12.122   5.401   3.761
71679W        W33133  36.091  24.698   3.146
71680W        W33134  40.820   9.320  12.033
71681W        W33135  24.705  21.144  12.432
71682W        W33136   7.309   3.461  14.834
71683W        W33137   1.268  15.595  11.452
71684W        W33138   5.876  29.574  10.619
71685W        W33139  24.571  36.518   1.259
71686W        W33140  22.525  22.134   1.844
71687W        W33141   1.795  33.581   4.771
71688W        W33142  37.379  31.465  12.444
71689W        W33143  31.533  16.256   4.631
71690W        W33144  31.564  26.018  13.831
71691W        W33145  30.039  23.671   1.713
71692W        W33146  37.850  14.772   2.236
71693W        W33147  36.922  15.286   3.775
71694W        W33148   9.172   9.276  14.909
71695W        W33149  18.565  32.442  11.604
71696W        W33150  26.618  24.653  10.154
71697W        W33151  14.234   6.720  14.977
71698W        W33152   2.770  39.837   1.797
71699W        W33153  30.586   3.859  10.934
71700W        W33154  31.584  25.075   0.327
71701W        W33155  31.531  23.633  14.966
71702W        W33156   0.323   2.868   2.884
71703W        W33157  35.602  42.477  10.140
71704W        W33158   8.694  18.159   3.170
71705W        W33159  31.952  38.423   2.903
71706W        W33160  40.548  18.692  14.029
71707W        W33161  31.088  39.998  12.498
71708W        W33162  31.927  30.960  13.410
71709W        W33163   8.334   4.878  10.615
71710W        W33164   5.336  41.481   0.343
71711W        W33165   5.361  13.815   0.785
71712W        W33166  12.139   5.912   2.687
71713W        W33167  35.890   1.762  10.413
71714W        W33168  19.671  33.597  13.440
71715W        W33169  35.007  43.795  13.347
71716W        W33170  37.348  39.026  13.044
71717W        W33171   9.739  23.227   2.818
71718W        W33172   2.766  11.809  11.549
71719W        W33173  21.588  30.934   1.327
71720W        W33174   4.781  23.227   4.146
71721W        W33175  18.773  11.132  14.870
71722W        W33176  23.536   6.692  11.129
71723W        W33177   8.307  25.571  14.028
71724W        W33178  30.635  18.614  10.929
71725W        W33179  26.170  43.399  12.078
71726W        W33180  31.035  42.500  10.492
71727W        W33181   1.882  22.220   0.821
71728W        W33182  41.453  26.122   4.814
71729W        W33183   9.680   1.408  13.834
71730W        W33184  29.553  44.961  14.848
71731W        W33185  25.650   8.752  12.352
71732W        W33186   7.743  14.743   1.812
71733W        W33187  38.885  34.094   0.363
71734W        W33188   0.377  29.083   3.725
71735W        W33189   0.968  11.761   1.244
71736W        W33190   5.854  14.602  13.411
71737W        W33191  14.275  10.832  11.097
71738W        W33192  19.181   4.288  10.598
71739W        W33193  27.156  11.850  11.578
71740W        W33194  28.049  41.537   3.318
71741W        W33195   7.705  42.304  11.861
71742W        W33196  30.656  35.002   4.704
71743W        W33197   8.183  38.991   9.969
71744W        W33198  16.604  34.018   2.350
71745W        W33199  43.777  39.453   0.864
71746W        W33200  44.977  18.104   4.139
71747W        W33201  21.099  25.642   2.326
71748W        W33202  38.076  23.635   4.338
71749W        W33203  18.780  35.481  11.936
71750W        W33204  13.108  40.866  10.920
71751W        W33205  17.595  15.201   1.391
71752W        W33206  41.315  14.715  11.909
71753W        W33207  14.636  42.806   1.839
71754W        W33208   1.445  20.688  13.939
71755W        W33209  22.133   2.843   0.382
71756W        W33210  20.747  41.444   3.832
71757W        W33211  30.979  14.827   1.852
71758W        W33212  18.252  37.027   0.818
71759W        W33213  25.059  36.526  12.511
71760W        W33214  37.393  33.102   9.965
71761W        W33215  19.111  31.571   2.754
71762W        W33216   1.907  13.609   3.654
71763W        W33217  27.187  16.116  14.397
71764W        W33218  36.051  39.514  14.828
71765W        W33219  38.434  28.113   3.320
71766W        W33220  13.205   7.860  12.982
71767W        W33221  10.709  28.671  13.505
71768W        W33222   6.253  38.071  14.353
71769W        W33223  22.073  34.421  10.434
71770W        W33224  41.946  19.672   3.180
71771W        W33225  31.548  18.674  10.889
71772W        W33226  22.598  35.945   3.383
71773W        W33227  37.392   5.201  14.321
71774W        W33228  38.362   7.707   3.154
71775W        W33229   1.400  27.187  14.004
71776W        W33230  33.015   4.378   2.395
71777W        W33231  30.911  41.483  14.881
71778W        W33232  23.198  11.265  14.943
71779W        W33233   8.205  25.050   3.254
71780W        W33234  24.573  33.122  13.427
71781W        W33235  34.894   4.874  13.867
71782W        W33236  32.902  26.035   4.121
71783W        W33237   1.344  30.509  11.580
71784W        W33238   7.891  28.933  13.891
71785W        W33239  11.336  20.627   1.317
71786W        W33240  11.703  19.142  13.977
71787W        W33241  32.060  17.682   1.338
71788W        W33242  13.324  17.732   3.664
71789W        W33243  37.444  19.555   4.773
71790W        W33244  34.021  31.077   4.647
71791W        W33245  28.968  13.267   2.897
71792W        W33246  20.673  38.400  11.461
71793W        W33247  26.068  44.403   2.901
71794W        W33248  25.156  23.222   0.255
71795W        W33249  30.555   4.288   4.615
71796W        W33250  19.191  13.636   0.905
71797W        W33251  19.669  19.211  13.460
71798W        W33252  10.749  15.238   1.926
71799W        W33253  40.385  16.796   0.891
71800W        W33254  28.457  29.935  13.427
71801W        W33255  28.616  23.499   2.263
71802W        W33256  41.350  42.476   0.469
71803W        W33257  17.115  29.591  11.390
71804W        W33258  14.295  12.344  13.029
71805W        W33259  36.436  27.530  11.019
71806W        W33260  20.077  17.798  12.091
71807W        W33261  39.932  11.852  13.880
71808W        W33262  37.578  11.757  11.534
71809W        W33263  40.048  16.085  11.374
71810W        W33264  10.251  24.182   1.865
71811W        W33265   4.301   3.838  11.082
71812W        W33266  36.489  33.938   1.756
71813W        W33267   1.380  13.697   1.717
71814W        W33268  26.466  36.950  14.829
71815W        W33269  38.445  39.845  12.495
71816W        W33270  32.035  35.898   2.804
71817W        W33271   9.885  29.924   0.759
71818W        W33272  28.679  21.712  12.021
71819W        W33273  33.876  27.144   2.202
71820W        W33274  17.249  18.096   3.206
71821W        W33275  37.558  21.567  11.439
71822W        W33276  29.127   1.883  13.317
71823W        W33277  26.458  15.156   0.797
71824W        W33278  30.413  16.764  10.571
71825W        W33279  27.976  42.416   4.803
71826W        W33280  23.727   5.208  13.530
71827W        W33281  11.186   1.343   0.367
71828W        W33282  12.217  42.318  14.936
71829W        W33283  28.679  21.034  13.388
71830W        W33284  34.981  13.231   1.374
71831W        W33285  34.515  25.484   1.233
71832W        W33286  13.278  28.110  13.903
71833W        W33287  36.870  37.927  10.507
71834W        W33288  14.264  21.689   1.837
71835W        W33289   3.372  37.475  10.508
71836W        W33290   6.692  37.914  13.542
71837W        W33291  17.705  11.842  10.974
71838W        W33292  28.099   7.857   0.807
71839W        W33293  16.120  12.223  14.398
71840W        W33294   3.296  14.833   2.796
71841W        W33295  12.732  42.419  10.949
71842W        W33296   2.386   4.375  10.546
71843W        W33297   3.311   8.719  12.073
71844W        W33298  25.090  39.063  12.394
71845W        W33299  37.375  23.665   1.332
71846W        W33300  42.526   6.351   2.414
71847W        W33301  16.098   9.723  12.861
71848W        W33302   9.732  17.594   2.732
71849W        W33303  43.997  27.630  14.295
71850W        W33304  32.987  43.918  11.041
71851W        W33305  32.493  14.797  13.012
71852W        W33306  25.991   3.249  11.400
71853W        W33307  18.695  39.984   0.739
71854W        W33308  43.404   9.302  14.976
71855W        W33309   5.205  32.070   0.910
71856W        W33310  31.912  35.959   1.224
71857W        W33311  18.190   5.933  13.352
71858W        W33312  29.121  27.083  12.444
71859W        W33313  16.802   1.786   1.925
71860W        W33314  29.619  43.449  13.939
71861W        W33315  44.785  22.174   1.265
71862W        W33316   3.286  33.583   3.374
71863W        W33317  35.429  43.443  11.481
71864W        W33318  20.198  19.636  11.396
71865W        W33319  39.888  38.969  12.047
71866W        W33320  15.088  32.623   2.690
71867W        W33321  25.577  34.986   3.222
71868W        W33322  30.451  32.028   1.237
71869W        W33323  30.468  44.406  14.415
71870W        W33324   3.920  32.963   4.611
71871W        W33325  24.577  15.142  12.548
71872W        W33326   7.219  27.468   4.190
71873W        W33327  33.598  31.105   2.240
71874W        W33328  42.907   4.403  11.908
71875W        W33329  19.569  33.543   3.715
71876W        W33330  44.759  29.479   0.864
71877W        W33331  40.014  23.164   4.200
71878W        W33332  36.091  15.223   0.425
71879W        W33333   2.914  17.626   4.646
71880W        W33334  37.427  20.082  14.334
71881W        W33335  28.474  34.114   3.256
71882W        W33336  40.503   1.456   0.888
71883W        W33337  18.561  15.609  14.298
71884W        W33338  41.510  26.959   1.226
71885W        W33339   9.210  26.122  10.632
71886W        W33340  13.301  26.143  12.902
71887W        W33341  12.137   5.888  14.788
71888W        W33342   7.188  11.153  12.831
71889W        W33343  12.790   2.468   2.873
71890W        W33344  21.662  21.249  14.769
71891W        W33345  21.176  35.362   0.823
71892W        W33346  38.551  20.645  13.471
71893W        W33347   9.879   0.280  13.434
71894W        W33348  20.636   9.351  12.519
71895W        W33349  13.318  39.878   1.418
71896W        W33350   6.696  32.919   2.308
71897W        W33351  38.822  16.194  13.413
71898W        W33352  16.610  16.643   0.932
71899W        W33353  43.346  30.959   3.348
71900W        W33354  18.114  36.979   2.363
71901W        W33355  30.038  28.507   4.276
71902W        W33356  32.616  28.473  12.363
71903W        W33357  12.692  18.287   3.630
71904W        W33358  20.050  17.264  11.546
71905W        W33359   7.784  20.192   3.324
71906W        W33360  17.673   7.813   0.950
71907W        W33361   1.410  26.518   5.301
71908W        W33362  33.912  35.010   1.865
71909W        W33363  23.553  27.027  12.855
71910W        W33364  33.079   9.643  12.402
71911W        W33365  13.622   7.248  11.103
71912W        W33366  11.791  30.994   4.680
71913W        W33367  22.669  18.685  12.887
71914W        W33368  19.742   3.746   3.752
71915W        W33369  40.378  16.101  14.380
71916W        W33370   0.448  12.296  12.964
71917W        W33371  25.571  22.517   4.244
71918W        W33372  23.689  13.699   1.391
71919W        W33373  13.231  23.603  14.832
71920W        W33374  26.589  44.823   2.178
71921W        W33375  35.925  14.668   3.332
71922W        W33376   0.266   9.793   2.314
71923W        W33377   3.953  26.091  11.514
71924W        W33378  24.148  27.005  14.760
71925W        W33379  26.621  41.999   4.716
71926W        W33380   3.851   2.854  14.826
71927W        W33381  10.866  22.117   2.418
71928W        W33382  26.969   4.273  14.442
71929W        W33383  33.088  29.924  13.353
71930W        W33384  39.037   8.272   4.683
71931W        W33385  42.812  29.089  13.804
71932W        W33386  14.599  15.726  10.976
71933W        W33387  43.280  32.478   3.290
71934W        W33388  37.032  18.195   0.875
71935W        W33389  40.519  22.658  13.324
71936W        W33390  37.960  38.505   4.725
71937W        W33391  44.942  20.133   2.376
71938W        W33392  21.106  12.638   1.915
71939W        W33393  37.399   9.871  14.296
71940W        W33394  33.430  28.548   0.275
71941W        W33395  38.896  43.799  13.911
71942W        W33396  36.083  23.016   3.645
71943W        W33397  35.879  22.222   0.906
71944W        W33398   4.887  22.039   3.643
71945W        W33399  27.625  11.656   1.785
71946W        W33400  15.732   5.815   3.185
71947W        W33401  28.663  36.965   5.260
71948W        W33402  41.790  39.997   4.779
71949W        W33403  34.430  27.119   3.221
71950W        W33404  34.879  12.818  13.929
71951W        W33405  27.949   2.292   0.950
71952W        W33406   0.755  37.343   1.380
71953W        W33407  44.431  20.265  10.986
71954W        W33408  10.263  39.326   3.174
71955W        W33409  20.036  21.141  11.024
71956W        W33410  37.419  22.712   0.413
71957W        W33411   4.869   8.710   3.267
71958W        W33412  32.410  38.429  13.017
71959W        W33413  39.032  20.261   2.739
71960W        W33414  11.825  31.508   1.835
71961W        W33415  24.665  38.359  12.846
71962W        W33416  17.127  15.663   3.221
71963W        W33417   3.284  44.258   5.235
71964W        W33418  11.361  17.729   4.599
71965W        W33419  39.527  26.487   4.313
71966W        W33420   7.700   2.439  10.610
71967W        W33421  28.486   5.709  12.963
71968W        W33422  16.627  40.876   2.310
71969W        W33423  36.999  38.034  14.007
71970W        W33424   0.957  15.098   2.338
71971W        W33425   3.390   7.332  11.413
71972W        W33426   7.207  33.604   3.737
71973W        W33427   6.379   3.303  10.486
71974W        W33428  10.636  28.609   3.351
71975W        W33429   9.240  38.465   2.743
71976W        W33430  14.721  17.129  10.897
71977W        W33431   0.830  29.048   5.137
71978W        W33432  22.211  12.123   2.881
71979W        W33433   8.179  24.134   0.261
71980W        W33434  35.444  43.285   3.793
71981W        W33435  43.346  28.986  14.971
71982W        W33436  16.285   0.488  12.437
71983W        W33437  16.312  39.947   5.203
71984W        W33438   3.308   7.354   1.891
71985W        W33439  41.986   0.864   2.412
71986W        W33440  42.482  22.248   4.627
71987W        W33441  14.589  33.934   1.397
71988W        W33442  15.809   1.314   3.727
71989W        W33443  14.158   6.188   0.284
71990W        W33444  17.653  31.640  12.842
71991W        W33445  16.695   7.378   2.279
71992W        W33446  17.779   4.398   0.864
71993W        W33447  38.514  28.072   0.955
71994W        W33448  33.996  27.008   3.326
71995W        W33449  21.528  33.547  10.410
71996W        W33450  12.305  10.819   4.711
71997W        W33451  33.445   8.733   4.299
71998W        W33452  43.280  38.441  11.532
71999W        W33453   3.316   3.346   1.903
72000W        W33454  31.598  36.399   3.793
72001W        W33455   9.867  28.576  13.897
72002W        W33456  26.065  30.927   3.150
72003W        W33457  11.831  33.109   0.294
72004W        W33458  17.622   1.381  12.478
72005W        W33459  36.374  20.110  11.027
72006W        W33460  27.521   9.664  14.512
72007W        W33461  12.348  35.382   1.352
72008W        W33462  15.624  39.341  14.475
72009W        W33463   8.195   1.831   1.875
72010W        W33464  28.079  14.593  13.841
72011W        W33465  22.190  25.109   1.327
72012W        W33466  16.167  27.613   3.768
72013W        W33467  44.324  25.632   3.261
72014W        W33468  42.369   7.767   0.341
72015W        W33469  33.099   3.351   2.283
72016W        W33470  36.366  38.409  10.639
72017W        W33471   0.282  10.834   2.326
72018W        W33472  39.992  27.941   0.392
72019W        W33473  32.133   6.768   1.858
72020W        W33474   1.360   6.799   4.729
72021W        W33475  10.789  19.157  11.407
72022W        W33476  39.047  17.185  14.857
72023W        W33477   3.457  42.910   5.190
72024W        W33478   2.779  19.114   0.905
72025W        W33479  23.224  22.686   0.383
72026W        W33480  27.946  29.008   2.891
72027W        W33481   3.284  44.781  14.843
72028W        W33482  35.083  24.003  13.981
72029W        W33483   7.804  42.471  13.475
72030W        W33484   8.169  27.112   2.868
72031W        W33485  43.902  22.719   1.262
72032W        W33486  44.881  33.042   4.643
72033W        W33487  27.523  21.704  12.862
72034W        W33488  14.653   5.806  10.511
72035W        W33489  40.996   0.402   3.811
72036W        W33490  28.062  37.437   5.284
72037W        W33491  26.193  11.182   2.881
72038W        W33492  42.469  29.536   0.448
72039W        W33493  29.059   0.298  12.360
72040W        W33494  35.417   7.708  13.840
72041W        W33495  26.637  43.450   1.219
72042W        W33496  30.430  27.964   0.814
72043W        W33497  38.850  21.620  14.773
72044W        W33498  16.273  25.200  13.872
72045W        W33499  33.972   4.769  10.503
72046W        W33500  29.109  27.663  12.349
72047W        W33501  34.368  22.581  13.487
72048W        W33502  35.507  44.299   0.305
72049W        W33503  21.647  24.638  12.831
72050W        W33504   2.810  14.236   1.773
72051W        W33505  42.903  26.458   1.864
72052W        W33506   9.194  14.199  13.520
72053W        W33507  32.470   3.782  10.609
72054W        W33508   0.877   6.316  11.082
72055W        W33509  36.018   8.736  10.967
72056W        W33510   0.402  37.492   5.156
72057W        W33511  32.138  13.660   0.949
72058W        W33512   5.907  18.633  12.548
72059W        W33513  23.606  27.038  11.909
72060W        W33514  41.017  39.480  11.083
72061W        W33515  17.782  12.147  11.390
72062W        W33516   4.239  41.990  11.012
72063W        W33517  29.653  30.062   3.198
72064W        W33518  36.410  10.756  14.015
72065W        W33519  40.348  16.595   1.264
72066W        W33520  30.017  44.474  11.545
72067W        W33521  40.948  34.879   4.808
72068W        W33522  29.174  38.897   3.727
72069W        W33523  43.967  43.944   1.235
72070W        W33524   4.323  21.236   0.288
72071W        W33525  23.497  14.729   4.800
72072W        W33526  33.483   2.905  14.913
72073W        W33527  23.658  42.515   1.914
72074W        W33528  24.037   4.745   5.252
72075W        W33529  19.174   9.293   2.805
72076W        W33530  28.635   9.392  12.506
72077W        W33531   6.280  16.316   2.188
72078W        W33532  40.952  26.995   0.890
72079W        W33533  15.303  39.988  11.378
72080W        W33534  44.850  41.788   3.363
72081W        W33535  11.696  25.157  12.441
72082W        W33536  30.548  26.702  12.475
72083W        W33537  10.353   7.854  13.426
72084W        W33538   6.872   3.269   0.922
72085W        W33539  22.244   9.287   1.816
72086W        W33540   2.230   8.817   4.157
72087W        W33541  13.653  32.933   1.339
72088W        W33542  24.711  38.837  13.984
72089W        W33543  20.156  42.850  13.946
72090W        W33544   5.839   3.369   4.305
72091W        W33545  31.635   8.342   2.891
72092W        W33546   8.206   6.235  10.476
72093W        W33547  38.345  42.495   1.297
72094W        W33548  22.680  10.349  12.392
72095W        W33549   9.190   2.416   2.221
72096W        W33550  22.714  28.482   1.773
72097W        W33551  38.438  37.885  10.524
72098W        W33552   7.802   6.220  11.398
72099W        W33553  33.999   5.399  13.031
72100W        W33554  16.133   7.311  10.605
72101W        W33555  18.600  37.043  12.907
72102W        W33556  14.698  38.964  14.483
72103W        W33557   5.814   4.785  10.065
72104W        W33558  40.332  30.136  12.030
72105W        W33559  24.565  17.202  10.993
72106W        W33560  42.315  42.491  13.389
72107W        W33561  28.630  33.930  12.829
72108W        W33562   6.759  10.234   1.235
72109W        W33563   5.236  29.444  12.543
72110W        W33564  19.158  36.425   1.778
72111W        W33565  28.578  24.633   5.636
72112W        W33566   0.356  43.390  14.825
72113W        W33567  39.484  22.225   4.269
72114W        W33568  35.057  33.923  10.475
72115W        W33569  22.149  22.510  12.422
72116W        W33570  11.753  10.262   1.838
72117W        W33571  31.525   4.774   4.821
72118W        W33572  23.556  36.936  11.573
72119W        W33573  25.982  22.119   5.250
72120W        W33574  32.894  36.440  12.363
72121W        W33575  16.115  32.141   3.737
72122W        W33576  18.650  28.481   1.782
72123W        W33577  16.712  39.411  12.996
72124W        W33578  22.033  23.170  14.835
72125W        W33579  11.808  16.155   1.727
72126W        W33580  28.474  27.961   3.209
72127W        W33581  15.633  14.632   0.738
72128W        W33582  18.609  41.457  11.072
72129W        W33583  36.391  29.989   2.738
72130W        W33584  24.181  15.218   0.856
72131W        W33585  15.685   4.444   1.269
72132W        W33586  22.648  25.489   1.432
72133W        W33587  25.525  12.200   3.293
72134W        W33588  35.890  18.758   1.287
72135W        W33589  41.502  11.831  12.907
72136W        W33590  16.166   2.955   4.183
72137W        W33591   6.862  35.412   2.704
72138W        W33592  41.841  25.197   1.785
72139W        W33593  20.145  19.636  14.888
72140W        W33594  35.905  13.798  10.623
72141W        W33595  26.628  11.148  12.961
72142W        W33596  34.053  12.119   0.314
72143W        W33597  24.639   7.229  11.374
72144W        W33598   8.748   6.299   2.889
72145W        W33599  18.641  12.257   1.381
72146W        W33600  38.380  18.545  11.894
72147W        W33601  15.299   7.749  11.856
72148W        W33602  35.481  37.373   3.320
72149W        W33603  13.728  28.020   1.278
72150W        W33604  14.801  40.881  13.896
72151W        W33605   4.788  15.219   4.221
72152W        W33606  38.971  13.339   3.329
72153W        W33607   5.296   4.938  12.096
72154W        W33608   2.823  23.731  12.846
72155W        W33609  18.221   6.373  12.993
72156W        W33610  24.696  38.391   1.884
72157W        W33611  18.099  24.052   1.720
72158W        W33612  24.674  36.913  12.997
72159W        W33613   3.330  23.662   1.346
72160W        W33614  22.029   3.248   0.273
72161W        W33615   0.855   8.235   3.257
72162W        W33616  24.147   1.302   2.788
72163W        W33617  31.452   3.879  14.815
72164W        W33618   8.180  32.975  12.066
72165W        W33619  40.397  15.258   0.855
72166W        W33620  13.603  44.490  13.879
72167W        W33621  11.631  27.536   2.838
72168W        W33622  26.951  26.994  13.351
72169W        W33623   3.427  37.407  12.365
72170W        W33624  41.331   0.870   0.904
72171W        W33625   2.346   6.415  12.828
72172W        W33626  13.172  31.532   0.283
72173W        W33627  14.283  39.330  12.456
72174W        W33628  31.929  36.485   4.683
72175W        W33629  15.292  31.502  11.983
72176W        W33630  20.621  26.999  12.041
72177W        W33631  28.569   5.305  13.846
72178W        W33632  18.267  29.026   4.640
72179W        W33633  29.140  36.375  12.828
72180W        W33634  21.246  15.114  11.479
72181W        W33635  19.564   1.897  13.839
72182W        W33636   0.343  21.633   0.738
72183W        W33637   1.449  32.410   2.903
72184W        W33638  14.785   1.239  13.477
72185W        W33639  29.611  37.563  13.961
72186W        W33640  12.800   5.321  13.487
72187W        W33641  37.917  12.222  10.451
72188W        W33642  11.667  37.880  13.998
72189W        W33643  32.561   8.666   2.751
72190W        W33644  23.998   8.259   3.307
72191W        W33645  19.589  26.023  10.929
72192W        W33646  41.470  27.512  14.463
72193W        W33647  22.174   4.368   2.803
72194W        W33648  28.590  24.492   0.851
72195W        W33649  35.043  11.725   3.187
72196W        W33650  21.672   3.453  14.423
72197W        W33651  24.507  30.139   4.773
72198W        W33652  38.464  16.723  12.424
72199W        W33653  41.322  30.609  13.399
72200W        W33654  36.049   7.268   3.192
72201W        W33655   1.319  20.550  11.987
72202W        W33656  37.922  35.561   0.359
72203W        W33657  30.130   0.801  12.398
72204W        W33658  22.711  29.033  10.050
72205W        W33659  35.047  35.479  11.377
72206W        W33660   9.804   3.878  13.939
72207W        W33661  39.813   4.908   4.808
72208W        W33662  14.805  19.260  11.448
72209W        W33663  35.444  41.798   4.255
72210W        W33664  23.512  32.115   3.846
72211W        W33665   9.817  42.517   4.829
72212W        W33666  28.555  21.146   4.662
72213W        W33667   1.959  32.560  11.532
72214W        W33668  14.779   7.906  12.073
72215W        W33669  21.590  31.507  12.842
72216W        W33670   6.234  12.729   4.271
72217W        W33671  40.939  40.858  13.475
72218W        W33672   7.329  36.070   2.226
72219W        W33673   6.744  44.446  12.006
72220W        W33674  15.638  36.052   1.230
72221W        W33675  30.480  25.125   2.720
72222W        W33676   3.859  12.810  10.586
72223W        W33677  35.037  25.158  13.879
72224W        W33678  16.610   3.806   1.271
72225W        W33679  17.259  32.888   3.830
72226W        W33680  28.628  31.035   0.369
72227W        W33681  30.455  41.880  11.613
72228W        W33682   6.331  38.824   2.861
72229W        W33683  30.012  11.363   3.809
72230W        W33684   6.229  27.165   2.706
72231W        W33685  14.738  14.331   4.258
72232W        W33686  35.502  40.464  11.946
72233W        W33687  21.091  28.144  10.571
72234W        W33688  13.329  10.304  13.400
72235W        W33689   1.335  31.476   0.839
72236W        W33690   6.193  31.637  12.475
72237W        W33691  38.947  19.170  13.819
72238W        W33692  32.575  17.601   1.789
72239W        W33693  27.963  25.577  14.936
72240W        W33694  28.489  20.551  11.452
72241W        W33695  44.965  30.127   2.289
72242W        W33696  44.305  23.613   3.691
72243W        W33697  34.044  36.935   2.286
72244W        W33698  27.523  38.416   0.889
72245W        W33699  26.976  37.063  14.300
72246W        W33700  23.123   8.657   2.369
72247W        W33701  14.165   8.853  12.926
72248W        W33702   4.360  19.038  13.909
72249W        W33703  10.178  34.093   0.316
72250W        W33704  18.749  12.287  11.983
72251W        W33705  17.295  34.394   3.312
72252W        W33706  18.572  17.107   1.408
72253W        W33707  41.427   7.899  13.313
72254W        W33708   3.369  30.908  12.097
72255W        W33709  32.949  30.495   2.721
72256W        W33710   8.761  30.457  14.959
72257W        W33711   8.376  31.988   1.918
72258W        W33712  30.159  10.224   4.224
72259W        W33713  25.965  18.548  14.367
72260W        W33714  17.229  15.616  14.319
72261W        W33715  38.501  17.084   2.889
72262W        W33716  29.038  41.034  10.426
72263W        W33717   1.870  11.828   1.781
72264W        W33718   6.418  41.337  14.502
72265W        W33719   1.297  25.986   2.737
72266W        W33720   4.848   8.805  13.992
72267W        W33721   6.745   1.332  13.525
72268W        W33722  10.146  25.560   4.218
72269W        W33723   0.781  25.213  11.033
72270W        W33724  30.584  34.414   4.761
72271W        W33725   1.464  19.190  11.868
72272W        W33726  20.231  33.530  13.914
72273W        W33727   9.707   0.804  11.128
72274W        W33728  36.088   6.319  11.974
72275W        W33729   6.677  25.082  13.899
72276W        W33730   9.151  37.020  14.023
72277W        W33731  16.726  32.134  11.571
72278W        W33732  11.626  18.678  12.389
72279W        W33733  27.947  14.324   3.193
72280W        W33734  26.124  37.473   0.370
72281W        W33735  25.207  30.161  13.836
72282W        W33736  24.101  15.759  10.141
72283W        W33737   1.839  10.232   2.205
72284W        W33738  10.268   4.873   0.919
72285W        W33739  24.160  37.997   1.885
72286W        W33740  39.892  20.088   1.933
72287W        W33741   3.792   1.356   4.838
72288W        W33742  11.777  43.767   4.765
72289W        W33743  37.553  39.455   1.417
72290W        W33744  29.530  19.558  12.027
72291W        W33745  25.144  13.236  14.459
72292W        W33746  42.320   0.444  14.897
72293W        W33747  15.742  24.504   3.825
72294W        W33748   2.326  11.726   0.956
72295W        W33749  43.363  42.356   3.717
72296W        W33750  25.117  36.030   2.191
72297W        W33751   0.821   4.872   3.367
72298W        W33752  22.733  11.633  14.812
72299W        W33753  10.718  32.131   0.836
72300W        W33754  33.975   6.345  12.095
72301W        W33755   5.927  21.032  13.433
72302W        W33756   3.877  21.211   1.264
72303W        W33757   9.714   7.190  14.453
72304W        W33758   4.886  38.350   2.699
72305W        W33759  19.039   3.379  11.939
72306W        W33760  36.475  26.009   4.130
72307W        W33761  26.614  20.645   0.900
72308W        W33762  16.735  12.629   1.441
72309W        W33763  29.509  35.016   4.643
72310W        W33764  32.530   7.860   4.709
72311W        W33765  35.038  23.997   1.883
72312W        W33766  33.877  18.580   2.408
72313W        W33767  23.497  12.182  11.993
72314W        W33768  23.156  32.426   3.374
72315W        W33769  38.332  10.268  10.928
72316W        W33770  41.883   2.358  12.928
72317W        W33771  20.646  44.841  14.785
72318W        W33772  41.880   3.455   4.226
72319W        W33773   1.859   6.682   4.800
72320W        W33774  24.685  10.198   3.217
72321W        W33775  40.834  39.321   2.794
72322W        W33776   3.873  41.916  11.970
72323W        W33777  24.600  15.777  11.008
72324W        W33778  15.720   4.711  12.496
72325W        W33779  27.609  40.925  13.838
72326W        W33780  35.921  24.536  11.406
72327W        W33781  11.178  26.678   0.432
72328W        W33782  24.980  15.610   4.637
72329W        W33783   8.830  39.845  13.513
72330W        W33784  36.918  35.450   4.719
72331W        W33785  42.966  29.514  13.335
72332W        W33786  44.887   3.424   1.402
72333W        W33787  14.645  43.945   0.275
72334W        W33788  38.380  44.389   2.795
72335W        W33789   2.966  26.096   2.770
72336W        W33790  24.524  25.548  14.961
72337W        W33791  35.537  26.995   4.788
72338W        W33792  26.023  15.281  11.524
72339W        W33793  35.578  23.612   1.425
72340W        W33794  39.012  27.175   4.722
72341W        W33795  40.379   1.737  10.632
72342W        W33796  40.428  28.446   2.212
72343W        W33797  22.051  44.777   0.443
72344W        W33798  38.959  23.585  13.392
72345W        W33799  12.272  31.023   2.277
72346W        W33800  21.671  23.197   3.382
72347W        W33801  32.915  15.099   3.743
72348W        W33802  32.617  38.990  10.513
72349W        W33803   2.257  43.918   3.713
72350W        W33804  31.576  26.153   0.375
72351W        W33805   4.743  35.053   3.288
72352W        W33806  32.034  26.966   1.241
72353W        W33807   8.322   5.693   4.695
72354W        W33808  34.528  14.166  10.621
72355W        W33809   2.745  33.621   3.227
72356W        W33810  28.611  36.998  14.463
72357W        W33811  16.160   7.753  14.411
72358W        W33812   6.861  28.180   3.311
72359W        W33813   4.719  34.501   2.249
72360W        W33814  44.299  39.026  13.347
72361W        W33815  30.004   9.672   5.135
72362W        W33816  28.571  28.573   0.913
72363W        W33817   5.870  29.114   0.444
72364W        W33818   0.761  31.075  10.526
72365W        W33819   5.416   6.239  13.918
72366W        W33820  13.319  42.797   2.256
72367W        W33821  20.663  22.131  12.511
72368W        W33822  34.472  41.840   3.215
72369W        W33823  24.677  24.216   4.809
72370W        W33824   0.461   1.920  11.939
72371W        W33825  32.464  29.163  11.082
72372W        W33826   9.312   1.321   0.741
72373W        W33827  22.670   0.458   2.693
72374W        W33828  43.299  26.701   1.774
72375W        W33829  13.214  35.961  10.563
72376W        W33830   9.374   0.252  14.311
72377W        W33831  20.122   2.457  14.813
72378W        W33832  40.923  32.080  10.932
72379W        W33833  37.968   9.223   1.728
72380W        W33834  23.612  44.486   2.838
72381W        W33835  34.998  21.594   4.704
72382W        W33836  33.937   5.256  11.063
72383W        W33837  25.982  11.357  13.961
72384W        W33838  21.023   5.344  12.953
72385W        W33839  41.853  41.459   4.308
72386W        W33840  13.217  25.104  10.483
72387W        W33841   1.450  30.953   2.747
72388W        W33842   4.441  29.650  12.522
72389W        W33843  21.747  35.090  13.429
72390W        W33844  22.574   7.792  11.414
72391W        W33845  43.836  10.237  12.938
72392W        W33846  44.787  37.923   1.782
72393W        W33847  12.282  25.193   3.195
72394W        W33848  21.593  39.426  14.465
72395W        W33849  26.505  29.152  14.429
72396W        W33850   4.784  23.700   3.763
72397W        W33851   9.353  18.271   5.309
72398W        W33852  22.162   0.345  13.988
72399W        W33853  25.023  42.917  11.535
72400W        W33854  10.277   1.908   3.823
72401W        W33855   4.386  19.255  12.445
72402W        W33856  13.677  44.437  11.017
72403W        W33857  20.109  13.831   4.156
72404W        W33858  24.571   3.366   1.868
72405W        W33859  38.023  21.551  14.441
72406W        W33860  21.722  11.362  10.590
72407W        W33861  44.351   5.846   1.236
72408W        W33862  35.061  44.442   2.296
72409W        W33863   4.235  27.494  10.527
72410W        W33864   2.299  34.872  13.429
72411W        W33865   3.726  43.396  13.499
72412W        W33866  30.074  26.001   4.319
72413W        W33867  14.652   0.465   2.883
72414W        W33868  31.623  31.473   4.278
72415W        W33869  43.358  16.713   2.211
72416W        W33870  22.055   6.354   9.450
72417W        W33871  27.496  26.058   0.316
72418W        W33872  13.755  18.055  12.012
72419W        W33873  35.485  18.720  10.557
72420W        W33874  32.455  11.703   3.349
72421W        W33875   4.767   3.243   1.742
72422W        W33876   3.951  28.098  11.597
72423W        W33877  26.507  17.627  13.838
72424W        W33878   4.886  32.583   2.704
72425W        W33879  30.623  28.549  14.339
72426W        W33880  29.008  43.287  11.593
72427W        W33881  16.653  23.020  13.307
72428W        W33882  14.300  23.722  13.425
72429W        W33883  41.841  12.652  13.842
72430W        W33884  15.790  33.431  12.008
72431W        W33885  22.724  27.608  12.516
72432W        W33886  22.693  35.424   4.346
72433W        W33887  24.022  17.631   0.965
72434W        W33888  23.668  38.019   3.209
72435W        W33889  16.778  40.864  14.322
72436W        W33890  20.571  41.019   0.901
72437W        W33891  33.387  11.190  14.515
72438W        W33892   4.882  35.989  14.909
72439W        W33893  31.985  30.555  11.965
72440W        W33894   6.409   4.241  11.864
72441W        W33895  27.668  18.677   1.896
72442W        W33896  38.021  21.150  10.614
72443W        W33897   7.817  21.230  12.028
72444W        W33898  37.866  24.697  11.416
72445W        W33899   1.335  16.175  10.477
72446W        W33900  40.464  39.509   5.227
72447W        W33901   8.399   9.177  13.013
72448W        W33902   7.880  26.176   1.920
72449W        W33903   6.820  20.754   0.349
72450W        W33904  31.972  39.434   3.718
72451W        W33905  12.229  42.510  10.909
72452W        W33906  30.097  24.577   3.862
72453W        W33907  33.606  44.893  11.990
72454W        W33908  10.161   7.841  11.975
72455W        W33909  29.983   6.304   1.277
72456W        W33910  41.010  42.005   4.177
72457W        W33911   2.951  33.088   1.213
72458W        W33912  43.487  39.555   3.277
72459W        W33913  41.925   5.708   1.894
72460W        W33914  32.984  36.084  13.027
72461W        W33915   7.319   7.855   2.275
72462W        W33916  39.033  16.600   1.706
72463W        W33917  24.530  24.101  13.501
72464W        W33918  28.135  21.630  13.990
72465W        W33919  37.523  26.193   2.883
72466W        W33920  24.981   4.860   0.815
72467W        W33921  37.051  38.378   2.187
72468W        W33922   5.402  44.416  10.482
72469W        W33923   3.919  12.796  12.997
72470W        W33924  42.296  41.532   1.257
72471W        W33925  23.192  30.058   0.250
72472W        W33926  10.806  18.076   3.322
72473W        W33927  40.966  14.295   0.825
72474W        W33928  23.606  29.497   3.228
72475W        W33929  41.914  32.422  10.468
72476W        W33930  25.205  33.569   2.706
72477W        W33931  23.120   8.321  13.480
72478W        W33932   9.789  42.868  11.023
72479W        W33933  40.414  35.012   0.758
72480W        W33934  34.014   9.880  12.437
72481W        W33935  33.556  39.020  14.962
72482W        W33936  20.161   8.881   3.727
72483W        W33937  10.181  22.729   2.300
72484W        W33938  41.788  20.273  13.919
72485W        W33939  19.589  21.726   1.273
72486W        W33940  20.700  24.725  12.518
72487W        W33941   0.917  27.105  13.426
72488W        W33942  18.160  31.995  14.281
72489W        W33943  36.905  17.616   0.269
72490W        W33944  14.115   1.270   2.886
72491W        W33945  35.488  11.250   0.956
72492W        W33946  23.606  42.794  13.433
72493W        W33947  36.854   4.433   2.786
72494W        W33948   7.865  44.403   3.803
72495W        W33949   0.466  24.011  12.853
72496W        W33950  43.465  21.018  13.452
72497W        W33951   5.279  20.600  13.386
72498W        W33952  12.850  44.873   2.340
72499W        W33953  35.866   1.464  13.515
72500W        W33954   3.758  13.105  12.508
72501W        W33955  32.583   2.928  13.339
72502W        W33956  25.479  41.360  13.509
72503W        W33957  40.002  25.539   3.631
72504W        W33958  22.579  22.569   1.271
72505W        W33959  17.069  32.052   1.371
72506W        W33960   8.259  26.560   3.860
72507W        W33961  28.445   7.802   5.299
72508W        W33962  31.123  13.302   3.660
72509W        W33963  33.532   4.887  14.777
72510W        W33964  25.652  14.307   3.284
72511W        W33965  12.689   2.888   3.661
72512W        W33966   5.309  37.549  12.417
72513W        W33967  18.661  24.121  14.815
72514W        W33968  29.443  31.439  11.028
72515W        W33969  22.521  26.983  12.981
72516W        W33970  33.591  32.476   3.812
72517W        W33971   6.770  28.101   1.273
72518W        W33972  25.166  33.421  13.901
72519W        W33973  35.598  36.041  11.494
72520W        W33974  15.265  29.171  13.381
72521W        W33975  35.421  28.166   2.689
72522W        W33976   4.716  17.103  12.557
72523W        W33977  22.626  34.901  12.011
72524W        W33978   0.957  20.745  10.428
72525W        W33979  22.509  12.649  11.451
72526W        W33980  43.363  40.029   1.855
72527W        W33981   7.901   6.329   2.205
72528W        W33982  37.512  20.634  14.383
72529W        W33983  37.920  13.606  13.399
72530W        W33984  22.591  13.149  14.487
72531W        W33985   5.731  38.936   2.310
72532W        W33986   6.790  34.497  12.863
72533W        W33987   8.302   5.695  10.409
72534W        W33988  31.631  16.101  12.481
72535W        W33989   1.788  42.346   4.153
72536W        W33990  23.132  20.566  10.633
72537W        W33991  26.645  13.808   1.811
72538W        W33992  24.673  12.310  12.401
72539W        W33993   0.304  10.745  11.938
72540W        W33994  17.606  18.711   4.271
72541W        W33995  27.979  25.598   4.648
72542W        W33996  20.612  42.862   3.268
72543W        W33997  10.179  18.265  13.064
72544W        W33998  26.995  17.204  11.118
72545W        W33999  34.993  15.180  14.497
72546W        W34000  38.047  11.681  13.031
72547W        W34001  21.693  11.652  11.567
72548W        W34002  13.810  28.951   0.939
72549W        W34003  41.341  12.799  11.408
72550W        W34004  26.169  17.201   3.234
72551W        W34005  37.899  15.288   2.305
72552W        W34006  36.416  37.013   3.804
72553W        W34007  24.549  32.007   0.449
72554W        W34008  21.168  33.913   2.765
72555W        W34009   1.956  44.826  13.930
72556W        W34010  33.875  19.546  13.404
72557W        W34011   4.909  28.998   9.996
72558W        W34012  10.791  39.382   0.761
72559W        W34013   1.756  14.220   3.870
72560W        W34014  32.086  36.048   4.353
72561W        W34015  12.722   3.350  10.430
72562W        W34016  14.644  41.495   0.932
72563W        W34017  44.980  20.541   0.329
72564W        W34018  35.599  37.058   2.755
72565W        W34019  12.631  34.524  11.071
72566W        W34020  29.926   0.335   2.770
72567W        W34021  37.469  28.155   2.378
72568W        W34022  10.234   9.718   2.197
72569W        W34023   7.253  37.904  14.000
72570W        W34024  17.296  41.853   1.866
72571W        W34025  41.873  26.999  13.971
72572W        W34026  44.291  10.265  13.543
72573W        W34027   5.842  34.971  12.009
72574W        W34028  21.146  31.003  13.033
72575W        W34029   5.775  19.636   4.166
72576W        W34030   7.379  44.892   1.427
72577W        W34031   7.292  14.640  12.436
72578W        W34032  16.592   9.863   0.357
72579W        W34033   4.711  20.593   4.684
72580W        W34034  25.131  17.691   3.164
72581W        W34035  34.906  17.231  13.396
72582W        W34036   3.752  19.544   1.374
72583W        W34037  27.083  14.776  14.823
72584W        W34038  15.256  22.179  12.346
72585W        W34039   9.253  36.470  13.792
72586W        W34040  29.926  35.876   1.862
72587W        W34041  19.654  26.085   2.822
72588W        W34042  16.808   6.323   2.207
72589W        W34043  34.106  31.557   3.327
72590W        W34044  13.224  28.936  14.898
72591W        W34045  40.534  28.938  14.455
72592W        W34046  36.565  26.175  12.954
72593W        W34047  39.058  23.646  14.311
72594W        W34048  27.010  35.589  10.914
72595W        W34049  37.042  20.083  14.020
72596W        W34050  12.773   2.779   0.821
72597W        W34051   2.407  28.544  10.565
72598W        W34052  36.531  32.940   1.700
72599W        W34053  25.683  13.845  11.947
72600W        W34054  36.564  20.546  14.458
72601W        W34055  22.199   6.293   3.197
72602W        W34056  24.011  37.841  10.893
72603W        W34057  14.159  38.838  14.455
72604W        W34058  23.526  14.255   0.284
72605W        W34059  13.205   4.713   9.982
72606W        W34060  21.729   3.283   3.815
72607W        W34061  15.692   9.732   2.241
72608W        W34062  19.539  23.617   4.760
72609W        W34063  42.388  31.954   1.343
72610W        W34064  26.686  44.475  14.325
72611W        W34065  17.155  26.460  12.580
72612W        W34066  10.816  29.114   4.649
72613W        W34067  29.966  37.993  11.503
72614W        W34068  26.592  31.410  14.468
72615W        W34069  16.594  20.053  13.975
72616W        W34070  12.710   3.291  14.449
72617W        W34071  21.254  18.264   0.783
72618W        W34072  32.895  31.109   1.892
72619W        W34073  13.155  19.137   0.824
72620W        W34074  23.541  39.042   3.719
72621W        W34075   1.858   4.245  13.364
72622W        W34076  42.940  26.032   0.813
72623W        W34077  35.949  43.326   3.220
72624W        W34078  24.170  21.585   3.848
72625W        W34079  35.558  39.525   5.277
72626W        W34080  34.577  28.473   3.174
72627W        W34081  30.143  12.130  13.890
72628W        W34082  33.622  18.095   1.395
72629W        W34083   0.327  29.530   2.375
72630W        W34084  28.097  26.522  12.455
72631W        W34085  31.445  42.958   4.202
72632W        W34086  10.847  15.299  12.506
72633W        W34087  33.442  40.420  11.056
72634W        W34088  13.142  36.953   3.630
72635W        W34089  39.434  21.055  11.976
72636W        W34090   5.913  22.043  12.911
72637W        W34091  41.397   9.667   0.252
72638W        W34092  10.306  32.395  11.942
72639W        W34093   6.201   9.886   2.404
72640W        W34094  39.334  27.060   3.672
72641W        W34095  11.207   2.244   4.322
72642W        W34096  23.086  21.173   2.753
72643W        W34097  13.252  38.430   0.819
72644W        W34098  12.816  16.299  13.497
72645W        W34099  31.613  25.527   0.871
72646W        W34100  10.355  23.627  12.908
72647W        W34101  24.540   3.880   0.758
72648W        W34102  28.447  19.605   3.325
72649W        W34103   3.800  31.522   0.910
72650W        W34104  40.545  24.149   3.851
72651W        W34105  27.141  17.063   1.891
72652W        W34106  22.624  19.071   0.296
72653W        W34107   5.195  12.629   4.750
72654W        W34108  42.023  39.340   0.407
72655W        W34109  27.643  40.516   2.247
72656W        W34110   0.750  29.489  11.413
72657W        W34111   7.211   8.780  14.848
72658W        W34112  27.043  36.590   1.378
72659W        W34113  36.462  17.565  12.073
72660W        W34114  38.346  19.752   0.774
72661W        W34115  26.467  35.477  13.329
72662W        W34116  29.552  30.948  13.945
72663W        W34117  16.607   5.428   2.364
72664W        W34118  11.704  27.026   2.663
72665W        W34119  39.384  44.440  10.461
72666W        W34120  42.957   7.379  10.946
72667W        W34121   2.939  19.587  12.911
72668W        W34122  14.642  24.185  14.941
72669W        W34123  35.892  17.187  11.511
72670W        W34124  34.074  20.232   3.759
72671W        W34125  16.739   8.814  10.058
72672W        W34126  19.643  18.251  11.468
72673W        W34127  24.652  35.384   1.309
72674W        W34128  33.458  27.489  12.937
72675W        W34129  26.667  25.100  14.862
72676W        W34130  41.369  40.028  12.503
72677W        W34131  30.051   1.382   5.202
72678W        W34132  17.645  30.421   3.367
72679W        W34133  43.342  22.248  13.009
72680W        W34134   1.902   5.828   1.862
72681W        W34135  26.071  37.892  12.421
72682W        W34136  30.608  30.034   4.760
72683W        W34137  10.201   7.379  13.063
72684W        W34138  33.451  30.935   4.644
72685W        W34139  30.434  15.121  14.832
72686W        W34140  41.833  16.693   1.780
72687W        W34141  40.444  13.602   4.343
72688W        W34142   9.743  31.114  14.926
72689W        W34143  40.839  35.601  14.436
72690W        W34144  35.539  44.487   1.933
72691W        W34145  37.942  29.521  12.839
72692W        W34146  39.891   5.767   3.771
72693W        W34147  13.211   0.852  13.410
72694W        W34148  17.242  27.157   3.193
72695W        W34149  37.407  18.243   3.248
72696W        W34150  41.525  17.061   0.367
72697W        W34151  23.559  44.477   0.346
72698W        W34152  16.313  41.998   3.254
72699W        W34153  42.518   9.887  13.865
72700W        W34154  30.508  14.299  10.921
72701W        W34155  19.238   4.739  13.883
72702W        W34156  29.583  10.300  11.446
72703W        W34157  19.285  43.950   3.635
72704W        W34158  38.990  39.529  12.571
72705W        W34159  31.574  24.145  11.433
72706W        W34160  33.429  10.695   0.474
72707W        W34161  28.183  15.817  11.568
72708W        W34162   5.285  21.044   2.233
72709W        W34163  12.809  42.885   4.131
72710W        W34164  26.014  10.844   1.760
72711W        W34165  13.692   7.397   1.344
72712W        W34166   7.811  29.075   0.291
72713W        W34167  38.353   9.767  14.823
72714W        W34168   7.361   7.208  13.367
72715W        W34169   7.354   3.239   4.815
72716W        W34170  39.397  29.461  13.989
72717W        W34171  31.989   6.294  14.476
72718W        W34172   9.780  42.889  12.941
72719W        W34173  22.059   0.445   1.879
72720W        W34174  32.033  15.168  13.946
72721W        W34175  44.841  14.784   3.289
72722W        W34176  44.817  22.035   1.702
72723W        W34177  11.234  14.763   3.185
72724W        W34178   6.227   3.258   1.370
72725W        W34179   1.348   3.925  12.562
72726W        W34180  16.680   9.792  11.526
72727W        W34181  43.487  29.075  13.885
72728W        W34182  38.064   3.797  11.401
72729W        W34183   8.167  11.709   0.830
72730W        W34184  12.244  21.746  10.935
72731W        W34185  30.608  16.672  11.909
72732W        W34186  25.037  19.705  13.919
72733W        W34187  38.425   5.914  11.014
72734W        W34188  38.861   9.812   0.274
72735W        W34189  37.057  23.180  12.856
72736W        W34190  18.567   5.401  13.374
72737W        W34191  16.219  26.062  10.500
72738W        W34192  34.507   1.972   2.190
72739W        W34193  31.134  30.936   4.205
72740W        W34194  12.156  18.781  14.438
72741W        W34195  32.897  36.410   0.754
72742W        W34196  29.622  29.947  12.067
72743W        W34197   3.782  19.723   4.209
72744W        W34198   9.844  40.896   9.641
72745W        W34199   7.900  37.384  14.358
72746W        W34200  15.630  26.056  11.603
72747W        W34201  42.884   0.816  11.093
72748W        W34202  19.607   4.929  14.406
72749W        W34203  31.571   0.459   4.830
72750W        W34204  43.421  13.667   3.294
72751W        W34205  21.101  37.444  12.850
72752W        W34206   2.266  38.385  13.453
72753W        W34207  41.891  28.476   3.231
72754W        W34208  36.503  13.741   1.340
72755W        W34209  27.173  18.729  11.580
72756W        W34210  39.959   3.936  14.905
72757W        W34211   9.331  13.721  13.469
72758W        W34212  25.555  40.851   0.407
72759W        W34213  26.628   5.827  11.103
72760W        W34214  30.139  11.819   3.772
72761W        W34215  26.586  26.139  11.105
72762W        W34216   2.304  17.589  12.914
72763W        W34217   5.733  28.986   1.274
72764W        W34218  42.419   1.840  13.061
72765W        W34219   8.831  23.609  12.038
72766W        W34220  17.148  26.996  11.992
72767W        W34221  42.878  13.700   1.899
72768W        W34222  34.473  38.398  14.930
72769W        W34223  27.171   8.225  14.289
72770W        W34224  31.151  14.333  12.839
72771W        W34225  25.137  31.492  12.041
72772W        W34226  26.184   9.347   2.807
72773W        W34227  43.491  14.636   3.192
72774W        W34228  38.539  19.751   3.302
72775W        W34229  16.169  24.699  11.087
72776W        W34230  24.999   4.812   2.856
72777W        W34231  44.000   0.798   3.738
72778W        W34232   3.336  12.705  13.368
72779W        W34233  26.076  27.063   4.666
72780W        W34234  22.515   6.222   2.334
72781W        W34235  14.819  30.577   0.376
72782W        W34236  23.717  34.116  12.909
72783W        W34237  12.801  16.570   1.869
72784W        W34238  35.932  37.844  12.500
72785W        W34239   1.463   4.927  13.966
72786W        W34240  13.784  25.591  13.499
72787W        W34241  32.431   1.353  12.430
72788W        W34242  36.933  10.193  14.969
72789W        W34243  39.340   9.653  14.484
72790W        W34244  10.203   1.772  12.534
72791W        W34245  26.102  15.153  10.587
72792W        W34246  16.103   0.307  11.468
72793W        W34247  40.360  25.120   3.302
72794W        W34248  24.148  35.435   2.306
72795W        W34249  21.222  38.472   1.257
72796W        W34250  35.093  31.019  14.506
72797W        W34251   7.251  40.840  10.545
72798W        W34252  26.545  32.035  13.385
72799W        W34253  42.018   9.208   4.218
72800W        W34254  30.568  37.906  11.067
72801W        W34255  39.495  39.535   1.415
72802W        W34256  16.111  23.096  13.832
72803W        W34257   2.449  34.913   0.967
72804W        W34258   6.770   2.355   0.814
72805W        W34259   7.415  35.603  12.555
72806W        W34260  26.985  12.766   0.938
72807W        W34261  16.188  34.893  12.544
72808W        W34262  12.759  37.446  11.999
72809W        W34263  39.534  26.162   4.616
72810W        W34264  36.573  38.882   2.801
72811W        W34265  13.196   7.179  13.529
72812W        W34266   4.392  21.670   1.274
72813W        W34267  31.491  39.512  14.452
72814W        W34268  26.475  19.648   1.727
72815W        W34269  16.292  42.397   2.389
72816W        W34270  31.128   4.853   2.396
72817W        W34271  24.063  42.392  13.990
72818W        W34272   7.856  35.966   2.412
72819W        W34273  33.579  25.571   3.645
72820W        W34274  13.742   9.767  13.354
72821W        W34275  28.946  33.416   1.413
72822W        W34276  23.594   8.793  11.504
72823W        W34277   4.318   7.755  13.946
72824W        W34278   1.401  41.372   2.198
72825W        W34279  21.069  16.285   4.725
72826W        W34280  11.841  42.826  11.472
72827W        W34281  41.786  39.933   1.744
72828W        W34282  24.615  24.593  11.474
72829W        W34283  35.089  32.514   0.466
72830W        W34284   7.791  20.123  14.816
72831W        W34285   9.319  26.487  12.085
72832W        W34286  20.224  12.199  13.522
72833W        W34287  13.182  33.954   1.313
72834W        W34288  14.620  33.536  10.959
72835W        W34289  14.647  25.700   0.452
72836W        W34290  28.055   7.295   5.184
72837W        W34291   0.479  39.021  13.004
72838W        W34292  14.643   7.839  14.322
72839W        W34293   2.909  42.286  11.916
72840W        W34294  21.108  26.682   0.460
72841W        W34295  11.712  27.998   2.296
72842W        W34296   2.740  16.570  11.430
72843W        W34297  16.221  41.989  13.461
72844W        W34298  33.571  31.479  10.587
72845W        W34299  18.219  21.541   3.295
72846W        W34300  31.919   8.406  11.062
72847W        W34301  21.075  29.119   0.311
72848W        W34302  10.304   6.829   4.803
72849W        W34303  27.084  16.158   1.770
72850W        W34304  21.516  23.543  14.862
72851W        W34305  40.984  33.920  13.403
72852W        W34306   6.191  36.464   3.683
72853W        W34307  20.533  14.218   4.187
72854W        W34308  30.556  35.952   3.290
72855W        W34309  16.108  30.537  13.412
72856W        W34310  19.670  40.943   4.763
72857W        W34311  30.592  12.301  14.868
72858W        W34312  23.023  36.890  10.560
72859W        W34313  14.335  37.952  14.289
72860W        W34314  38.335  24.161   1.762
72861W        W34315   7.389  21.745   0.838
72862W        W34316  25.055  16.212  10.602
72863W        W34317  40.371  25.135   9.944
72864W        W34318  22.056  23.043   4.597
72865W        W34319  40.975  41.341   4.336
72866W        W34320  25.591   6.911   4.805
72867W        W34321   3.297  23.728   0.251
72868W        W34322   3.326  12.822  10.925
72869W        W34323  17.590  32.114   2.378
72870W        W34324  33.582  36.860  13.321
72871W        W34325  17.305  44.800   0.771
72872W        W34326  11.647  14.759   2.295
72873W        W34327  17.792  44.376   1.379
72874W        W34328  35.933  12.783   1.328
72875W        W34329  12.291  29.132   3.690
72876W        W34330  35.515  33.592  14.772
72877W        W34331  26.013  15.280   0.362
72878W        W34332  43.815  16.788  13.464
72879W        W34333  34.906   4.416  12.925
72880W        W34334   9.761   4.347  11.064
72881W        W34335  39.950   3.374   0.428
72882W        W34336  18.160   1.865  14.408
72883W        W34337  25.993  31.592   2.696
72884W        W34338  42.819  26.195   4.166
72885W        W34339   0.860  21.550  12.012
72886W        W34340  15.654  42.441   2.183
72887W        W34341  23.651  20.746  13.885
72888W        W34342  11.348  23.106   4.218
72889W        W34343  43.971  32.586  14.832
72890W        W34344  32.996  10.367  14.328
72891W        W34345  25.989  11.200   1.349
72892W        W34346  38.476  29.922  14.306
72893W        W34347  14.166  25.192   2.672
72894W        W34348   2.786   3.325  12.058
72895W        W34349   4.355  27.112  13.358
72896W        W34350  29.610  38.548  11.024
72897W        W34351  16.718  38.029  14.803
72898W        W34352  15.770  15.237  10.476
72899W        W34353  21.036  29.133   4.129
72900W        W34354  18.655  37.464  11.486
72901W        W34355  32.078  24.212  14.838
72902W        W34356  23.490  38.457  10.594
72903W        W34357  10.337  36.999   2.782
72904W        W34358  43.968  10.683  14.897
72905W        W34359  44.779   6.796  13.458
72906W        W34360  13.277  19.699  11.420
72907W        W34361  16.201  27.966   1.896
72908W        W34362   3.830  34.930   1.914
72909W        W34363  38.502  13.615   1.818
72910W        W34364  13.294  37.992  11.112
72911W        W34365  37.841   2.941  11.097
72912W        W34366   0.319  19.266   4.352
72913W        W34367  20.714   4.835  10.902
72914W        W34368  43.796  44.400   9.922
72915W        W34369  35.525  26.472   0.268
72916W        W34370  35.987   4.319  12.827
72917W        W34371  12.309  24.187  10.624
72918W        W34372  36.360  40.901   3.197
72919W        W34373  10.383   9.239  12.973
72920W        W34374  22.518  42.985  12.004
72921W        W34375  33.581  14.781  10.969
72922W        W34376  37.579   6.393   2.298
72923W        W34377  43.356  17.271   4.746
72924W        W34378  21.094  14.326   0.931
72925W        W34379  31.451  31.583   3.816
72926W        W34380   0.369  10.155  14.813
72927W        W34381  16.776  24.095  14.935
72928W        W34382   5.381  19.642  12.845
72929W        W34383  17.161   3.384   0.815
72930W        W34384  37.444  36.514  10.938
72931W        W34385   1.414  11.653   1.319
72932W        W34386  39.325  38.873   0.415
72933W        W34387  19.583  23.499   1.722
72934W        W34388  25.706  12.617  10.111
72935W        W34389   0.440  44.913   3.728
72936W        W34390  16.623  35.905  12.339
72937W        W34391  20.235  18.169  14.494
72938W        W34392  25.685   5.284   2.794
72939W        W34393  18.220  14.209  11.462
72940W        W34394   2.921   4.302  13.366
72941W        W34395   9.234   6.683   2.383
72942W        W34396  44.840  34.554   0.810
72943W        W34397   7.804  26.163   3.738
72944W        W34398  32.451   1.885  13.458
72945W        W34399  43.803   7.172   4.283
72946W        W34400  15.213  24.185  11.603
72947W        W34401  40.524   3.314  14.449
72948W        W34402  37.881  43.273  13.936
72949W        W34403  43.839  18.665  13.447
72950W        W34404  32.037  28.054  13.446
72951W        W34405  24.615  21.082   0.397
72952W        W34406   5.343  33.499   1.792
72953W        W34407  25.973  34.900   3.365
72954W        W34408  10.309  37.556  13.061
72955W        W34409  13.201  36.509  10.444
72956W        W34410  41.929  20.185  11.084
72957W        W34411  39.433  22.621   3.768
72958W        W34412  44.856  36.841   1.899
72959W        W34413  41.923  28.680  10.445
72960W        W34414   3.745  15.795  13.525
72961W        W34415  12.647   3.883   2.899
72962W        W34416  39.030  38.991   1.899
72963W        W34417  34.114  16.633   4.707
72964W        W34418   3.785   9.754   3.793
72965W        W34419  17.123   8.393   3.699
72966W        W34420  42.489  16.813  13.827
72967W        W34421   5.315  15.207  14.006
72968W        W34422  42.816  27.028   0.770
72969W        W34423  30.150   6.373  14.472
72970W        W34424  28.508  14.659  10.434
72971W        W34425  33.606  10.277   3.296
72972W        W34426   9.169   7.799   2.873
72973W        W34427  10.296  14.595   4.286
72974W        W34428   0.331  44.495   4.718
72975W        W34429  21.756  11.229  14.940
72976W        W34430  28.495  37.834   1.377
72977W        W34431  40.439   1.756   1.359
72978W        W34432  33.037  21.563   1.770
72979W        W34433  39.393   0.955  10.474
72980W        W34434  29.968  11.781   1.285
72981W        W34435  21.203  21.732  10.537
72982W        W34436  40.899  13.843   0.815
72983W        W34437  17.126  31.421  13.898
72984W        W34438  44.812   8.171  13.941
72985W        W34439  28.173   3.935   1.283
72986W        W34440  12.144  18.669  10.045
72987W        W34441  11.148  23.617   3.265
72988W        W34442  44.005  15.809   2.885
72989W        W34443   4.361  31.029   4.316
72990W        W34444  43.407  14.103   1.726
72991W        W34445   6.215  11.288  11.982
72992W        W34446  31.605  12.299   0.252
72993W        W34447   8.713  15.676  14.819
72994W        W34448  44.853   1.769   1.824
72995W        W34449  27.607   0.896  14.799
72996W        W34450  14.818  17.291   3.218
72997W        W34451  11.324  37.519   0.450
72998W        W34452  28.581  19.122   2.410
72999W        W34453  38.443  27.046  14.986
73000W        W34454  13.787  17.171  14.847
73001W        W34455  13.817  42.024   5.291
73002W        W34456   7.839  23.114  13.867
73003W        W34457  40.336   7.195   2.714
73004W        W34458  29.615  13.645  10.955
73005W        W34459   4.391  19.101   4.828
73006W        W34460  10.292  26.466   2.768
73007W        W34461  19.588  32.493  11.980
73008W        W34462   7.417  24.648  10.955
73009W        W34463  41.805   6.796   3.808
73010W        W34464  30.452  22.172   2.226
73011W        W34465  25.158   2.445   4.768
73012W        W34466  31.127   6.189   3.356
73013W        W34467  40.862   6.222   0.844
73014W        W34468  24.630   1.866  14.973
73015W        W34469  35.570  13.662  12.904
73016W        W34470  41.921  11.802  10.582
73017W        W34471  25.061  27.459   4.732
73018W        W34472   2.757  29.627  12.870
73019W        W34473  40.918  19.212   2.289
73020W        W34474  40.798  21.593   4.140
73021W        W34475  31.420  30.471   3.771
73022W        W34476  35.579  27.620  10.538
73023W        W34477  27.051  31.122  10.578
73024W        W34478  33.446   7.665   0.367
73025W        W34479   4.773  12.224  14.294
73026W        W34480   5.377  40.443  14.810
73027W        W34481  21.168  44.428   0.473
73028W        W34482   5.264   9.215  11.485
73029W        W34483  25.665   1.777  11.000
73030W        W34484   3.391  24.641   1.852
73031W        W34485  35.467  44.375   0.803
73032W        W34486  24.646   2.819  13.391
73033W        W34487  17.125  38.441   3.780
73034W        W34488  14.217  28.929  13.937
73035W        W34489  14.599  17.738  12.910
73036W        W34490  40.009  26.670   2.226
73037W        W34491  21.207  42.436  13.929
73038W        W34492  37.021  31.112   1.900
73039W        W34493  44.422  16.135  10.605
73040W        W34494   9.288  26.030  12.019
73041W        W34495   3.819  17.089  14.486
73042W        W34496  41.453  10.741  14.945
73043W        W34497  19.750  36.488   2.738
73044W        W34498  29.600  42.352   0.307
73045W        W34499  31.900   4.322   3.263
73046W        W34500  30.056   8.706   2.251
73047W        W34501  33.063  32.583   0.478
73048W        W34502  10.712   3.300   1.876
73049W        W34503  10.198  38.045   2.733
73050W        W34504  19.070   2.355  12.501
73051W        W34505   4.706  18.560  12.885
73052W        W34506  39.418   3.806  14.002
73053W        W34507   0.760  41.796   2.781
73054W        W34508   7.801  30.997  10.068
73055W        W34509  22.253  11.743   3.363
73056W        W34510  42.880  10.322   4.599
73057W        W34511  38.929  20.078   1.249
73058W        W34512  37.554  36.063   0.803
73059W        W34513   0.851  10.337   1.229
73060W        W34514   5.768  23.190  12.498
73061W        W34515  34.445  29.622   2.710
73062W        W34516  35.501  13.231   3.242
73063W        W34517  44.351  20.594   3.777
73064W        W34518   4.244  11.656   3.825
73065W        W34519  30.993  13.141  11.453
73066W        W34520   2.387  29.036   5.173
73067W        W34521  40.546   6.815  13.418
73068W        W34522   4.721  35.997  12.027
73069W        W34523  32.990  43.810  13.379
73070W        W34524  42.324   9.698  10.972
73071W        W34525  27.961   4.854   4.319
73072W        W34526  14.799  36.023   3.166
73073W        W34527  39.989  33.438  14.816
73074W        W34528  11.187  38.905  14.481
73075W        W34529  44.339  15.287   4.829
73076W        W34530  29.456  23.065  12.510
73077W        W34531   3.255  13.796  13.860
73078W        W34532  33.478   0.275  11.581
73079W        W34533  19.076   3.320  11.025
73080W        W34534  23.230  42.448  10.510
73081W        W34535  41.809  31.098   3.654
73082W        W34536  12.126   1.240   2.860
73083W        W34537  31.473  15.773   2.350
73084W        W34538   0.976  32.915   0.838
73085W        W34539  26.117   8.223   4.774
73086W        W34540  44.971  33.428  14.326
73087W        W34541  10.675  12.278  12.484
73088W        W34542  34.490  40.836   2.769
73089W        W34543   0.896   1.297  10.992
73090W        W34544  41.808  11.776  13.961
73091W        W34545  33.488  12.324  10.065
73092W        W34546   0.972  18.126  13.469
73093W        W34547  15.618  38.828   1.897
73094W        W34548  10.738  25.173   3.698
73095W        W34549  44.852  19.275  12.507
73096W        W34550  15.620  16.114  13.839
73097W        W34551  15.227   9.809  11.567
73098W        W34552  20.591   0.910   4.811
73099W        W34553  13.237  13.177  14.954
73100W        W34554   3.865   8.673   3.275
73101W        W34555  26.138   7.236  14.358
73102W        W34556  20.530  25.480   4.243
73103W        W34557  14.180  39.469   0.332
73104W        W34558  40.344  34.072   4.198
73105W        W34559   4.344  14.137   1.730
73106W        W34560   4.704  17.761  12.045
73107W        W34561  39.985  29.166  10.470
73108W        W34562  34.487  10.292   4.160
73109W        W34563  12.237   6.842   3.671
73110W        W34564  41.352  37.469   5.264
73111W        W34565  37.347  41.366   1.771
73112W        W34566  21.721   4.236   2.377
73113W        W34567  44.780   1.840  10.476
73114W        W34568  12.631  12.644   3.670
73115W        W34569  12.823   3.422   0.357
73116W        W34570  17.132  28.062  12.963
73117W        W34571   4.812  10.742  13.403
73118W        W34572  26.110  36.360  10.913
73119W        W34573  33.415  42.349  12.402
73120W        W34574   2.795  44.965  14.403
73121W        W34575  41.018  25.216  13.414
73122W        W34576  40.547  36.418  13.533
73123W        W34577   9.223  34.415   3.839
73124W        W34578   7.391  33.110   2.838
73125W        W34579  39.368   1.801  11.484
73126W        W34580  28.527  37.576  12.005
73127W        W34581  33.990  37.849   0.920
73128W        W34582  25.520  32.581   2.227
73129W        W34583  20.115   3.371   1.435
73130W        W34584  34.101   1.940   2.752
73131W        W34585  11.290   1.820  14.794
73132W        W34586  10.840  28.509  12.999
73133W        W34587  21.580  29.099  14.485
73134W        W34588  34.074  24.552  11.483
73135W        W34589  19.590  39.344  12.921
73136W        W34590  16.074  13.178   1.740
73137W        W34591  24.521   8.266  12.503
73138W        W34592  23.019  25.009   2.791
73139W        W34593  29.983  31.027   2.815
73140W        W34594  18.171   1.325   3.836
73141W        W34595  23.497  44.394   0.896
73142W        W34596   4.752  17.244   4.658
73143W        W34597  33.598   9.830  13.856
73144W        W34598  34.971   7.910  14.486
73145W        W34599   8.175  30.553  12.912
73146W        W34600  28.168  22.128   1.788
73147W        W34601  10.774  41.513   1.820
73148W        W34602  39.854  25.531   4.209
73149W        W34603  28.620  18.206   4.771
73150W        W34604  23.665  36.578  13.422
73151W        W34605  17.117  13.628   0.307
73152W        W34606  24.041  41.838   3.252
73153W        W34607  43.351   6.923   1.812
73154W        W34608   4.316  34.925   0.400
73155W        W34609  23.145  33.084   1.920
73156W        W34610  29.989  40.306   0.861
73157W        W34611   5.367   2.815  11.082
73158W        W34612  10.696   1.399   1.264
73159W        W34613   6.830   0.855  13.937
73160W        W34614  13.711  10.352  13.850
73161W        W34615  17.160  36.566  12.517
73162W        W34616  17.596  23.022  13.888
73163W        W34617  42.305  14.261   0.398
73164W        W34618  41.396   3.282   3.689
73165W        W34619  18.201  29.544  14.292
73166W        W34620  44.834  32.130  14.931
73167W        W34621  44.010   3.241   0.873
73168W        W34622  10.267  16.188  11.054
73169W        W34623  32.620  36.895  13.948
73170W        W34624  17.694  18.199  10.536
73171W        W34625  10.280   9.710  12.079
73172W        W34626  43.282  18.216   2.814
73173W        W34627  30.001  13.238  14.425
73174W        W34628   3.809  43.952   1.309
73175W        W34629  22.144   5.687  11.976
73176W        W34630  20.692  20.087  14.883
73177W        W34631   1.734   6.334   2.279
73178W        W34632  14.105  10.176  11.018
73179W        W34633  42.864  22.687  10.417
73180W        W34634   8.185  43.428  14.790
73181W        W34635  31.622  20.254   0.242
73182W        W34636  15.649   9.241  10.622
73183W        W34637  25.613   9.687  11.569
73184W        W34638  43.784   9.377  12.531
73185W        W34639  38.527  41.472   0.750
73186W        W34640  39.470   9.299  13.397
73187W        W34641  18.131  29.164  11.037
73188W        W34642  38.392  40.493  10.462
73189W        W34643  36.087  35.109  11.544
73190W        W34644  26.156  40.942   2.207
73191W        W34645  12.802  31.573   0.908
73192W        W34646   9.663  31.032  10.408
73193W        W34647  25.044  18.615  11.048
73194W        W34648   5.341  18.659   1.247
73195W        W34649  13.264  28.443  13.933
73196W        W34650  14.769   8.851   2.672
73197W        W34651  25.171   9.722   1.258
73198W        W34652   9.199  34.550   3.264
73199W        W34653   8.841  11.131   2.286
73200W        W34654  13.346  11.674   4.206
73201W        W34655  26.043  29.135   0.294
73202W        W34656  11.757  32.137  12.871
73203W        W34657  29.160  29.043   1.709
73204W        W34658   7.798  42.791   4.605
73205W        W34659  16.584  18.578  13.002
73206W        W34660  25.021   7.692  13.868
73207W        W34661  34.587  26.517   3.304
73208W        W34662  25.035  27.618  14.376
73209W        W34663  29.922   4.816  13.315
73210W        W34664  30.090  25.513   0.807
73211W        W34665  37.915  36.993   3.344
73212W        W34666  18.588  18.076  13.981
73213W        W34667  10.832  15.634  14.500
73214W        W34668  35.468  11.157  11.101
73215W        W34669  36.984  19.149  14.361
73216W        W34670  36.590  13.809  14.404
73217W        W34671  37.908  33.428  14.931
73218W        W34672   1.913  35.539   4.271
73219W        W34673  21.683  41.373  12.467
73220W        W34674   6.419   4.767   4.795
73221W        W34675  31.015  39.919   4.765
73222W        W34676  26.051  22.641   1.432
73223W        W34677  37.495   6.203  13.488
73224W        W34678  34.988  40.800  10.470
73225W        W34679  38.428  29.503   1.235
73226W        W34680   4.891  28.658  10.995
73227W        W34681  42.829  22.594   5.270
73228W        W34682  17.233   5.888  14.836
73229W        W34683  44.265  31.625   1.759
73230W        W34684  15.248  32.513   3.826
73231W        W34685  27.101  40.918   1.247
73232W        W34686   5.787  30.630   3.269
73233W        W34687  23.225  36.372   3.272
73234W        W34688  33.574  21.258  13.884
73235W        W34689  24.101   6.282   3.838
73236W        W34690   5.703  37.907   0.392
73237W        W34691  32.084  22.050  10.640
73238W        W34692   8.267  30.943  13.533
73239W        W34693  25.179  27.981  13.903
73240W        W34694  12.700  42.010  10.407
73241W        W34695  43.876   2.913  13.329
73242W        W34696  29.625  37.495  10.527
73243W        W34697  34.432  40.991  13.020
73244W        W34698  36.576   2.755  13.391
73245W        W34699  22.033  41.009   3.861
73246W        W34700  25.498   7.695   0.837
73247W        W34701  17.793  39.334   3.314
73248W        W34702   9.387   1.804   0.435
73249W        W34703  16.248  19.726   4.220
73250W        W34704  35.444  32.013   4.783
73251W        W34705  34.410  38.971   0.384
73252W        W34706  36.077  19.601  12.042
73253W        W34707   7.903   6.760  13.547
73254W        W34708  11.145  30.091   1.899
73255W        W34709  17.160  27.557  12.009
73256W        W34710  35.389  17.093   3.271
73257W        W34711  20.672  29.137  13.798
73258W        W34712   0.961  31.145  14.461
73259W        W34713  30.927  25.962  13.880
73260W        W34714  15.686  44.790  10.901
73261W        W34715  27.525  29.127  13.476
73262W        W34716   3.343  20.596   4.826
73263W        W34717  36.885   1.834   3.295
73264W        W34718  27.062  14.725   3.784
73265W        W34719  20.594   3.801  13.315
73266W        W34720  38.035  19.668   5.255
73267W        W34721  26.458  21.577  12.389
73268W        W34722  39.489  29.980  10.415
73269W        W34723  28.034  11.204   1.775
73270W        W34724  39.389  23.599   0.850
73271W        W34725  21.165  39.435  11.976
73272W        W34726  18.570  24.063   4.269
73273W        W34727   1.795   7.177  10.471
73274W        W34728  32.516  13.732   3.807
73275W        W34729  40.386  28.175   3.745
73276W        W34730  36.515   5.254  10.922
73277W        W34731  21.181  15.308  13.459
73278W        W34732  35.373   1.390  13.421
73279W        W34733   9.860  18.123   2.717
73280W        W34734  35.914  32.469  13.985
73281W        W34735  25.062  26.480   3.631
73282W        W34736  25.168  32.514   1.239
73283W        W34737  40.837  25.067   2.710
73284W        W34738  15.762  33.433   0.838
73285W        W34739  13.238  44.501  14.477
73286W        W34740   6.779   7.181  13.321
73287W        W34741   2.856  11.657  14.470
73288W        W34742   2.369  19.570   1.318
73289W        W34743  30.469  25.677  14.860
73290W        W34744  43.941   5.212  10.561
73291W        W34745  30.956   7.378   1.373
73292W        W34746  23.491  19.210  12.466
73293W        W34747  17.083  13.315   2.356
73294W        W34748  30.932  33.413  14.298
73295W        W34749  12.247  36.517  13.321
73296W        W34750   0.754  12.804  11.919
73297W        W34751   6.911  12.294   3.804
73298W        W34752   6.728  40.951  12.459
73299W        W34753  38.471  34.593   1.256
73300W        W34754  10.751  24.507   0.919
73301W        W34755   5.239   3.395   4.709
73302W        W34756  40.023   5.729  11.468
73303W        W34757  37.848  32.485  11.028
73304W        W34758  44.358  41.032  12.928
73305W        W34759  22.065  36.915   1.755
73306W        W34760   2.842  38.508   1.775
73307W        W34761  34.870  18.587   5.142
73308W        W34762  15.596  14.806   1.443
73309W        W34763  40.323  36.024  10.595
73310W        W34764   8.182  20.203  12.351
73311W        W34765   6.253   2.908   3.740
73312W        W34766   2.249  24.597  14.339
73313W        W34767   2.897  22.731   4.741
73314W        W34768  31.466   1.893  13.806
73315W        W34769   8.319  18.676   2.333
73316W        W34770  22.203  42.337  10.493
73317W        W34771  42.336  41.947   0.429
73318W        W34772   2.885  20.157  11.446
73319W        W34773  21.135   1.287  12.838
73320W        W34774  26.470  27.574   4.691
73321W        W34775  24.073  35.462  12.491
73322W        W34776   1.330  38.414  12.894
73323W        W34777  42.452   8.377   0.331
73324W        W34778  27.155  34.976   1.832
73325W        W34779  35.060  33.983   0.752
73326W        W34780   6.733  42.933  14.989
73327W        W34781  14.266   1.321  10.523
73328W        W34782   1.766  20.752   2.390
73329W        W34783   5.851  38.896  12.994
73330W        W34784  10.759   4.251   2.729
73331W        W34785  44.827  15.173  13.323
73332W        W34786  17.707  15.239   3.331
73333W        W34787  28.034  34.467  14.806
73334W        W34788  17.261   1.427   2.228
73335W        W34789  29.668  38.448   3.713
73336W        W34790  10.223   3.438  11.028
73337W        W34791  21.648  40.001  12.062
73338W        W34792  17.091  16.692  13.990
73339W        W34793   7.707  18.717   4.751
73340W        W34794   5.783  11.237  11.994
73341W        W34795  43.467  24.195   4.308
73342W        W34796  30.510  32.930   4.812
73343W        W34797  25.188  30.538  13.011
73344W        W34798  21.025  14.809   3.795
73345W        W34799  25.509  14.231  12.855
73346W        W34800   9.318  21.684  10.549
73347W        W34801  18.065   5.411   4.179
73348W        W34802  16.793  42.513  13.909
73349W        W34803  18.184  37.368  11.871
73350W        W34804  24.037  14.304   3.653
73351W        W34805  19.051  30.926  11.503
73352W        W34806   1.455  18.717  11.939
73353W        W34807  10.632   1.401  14.901
73354W        W34808  32.037  17.691   2.674
73355W        W34809   7.684  31.402  13.990
73356W        W34810  19.613  23.002   2.276
73357W        W34811  39.484  12.685   4.287
73358W        W34812  16.765  30.912   1.260
73359W        W34813  18.252  32.482  10.912
73360W        W34814  26.471  11.695   0.482
73361W        W34815  18.710   1.758   0.262
73362W        W34816  43.307   1.269  11.476
73363W        W34817   1.773  44.272  13.533
73364W        W34818  31.632  33.996  14.315
73365W        W34819  24.034  38.911   5.185
73366W        W34820  33.100   4.314   4.148
73367W        W34821  41.825  20.159   2.305
73368W        W34822  39.912  23.638   1.263
73369W        W34823  12.336   3.925   2.729
73370W        W34824  44.283  21.057  14.016
73371W        W34825  20.072  21.716   4.242
73372W        W34826  26.187   2.451  14.386
73373W        W34827  40.010   8.728   1.908
73374W        W34828  43.499   6.236   4.322
73375W        W34829   3.856  44.465  13.538
73376W        W34830  38.004   1.477   3.386
73377W        W34831  32.080   4.210  11.388
73378W        W34832  27.062  23.539   0.466
73379W        W34833  35.598  44.328  14.821
73380W        W34834  17.644  16.173  13.494
73381W        W34835  42.440  22.185  11.401
73382W        W34836  16.118  25.215  10.606
73383W        W34837  18.258  33.952   2.695
73384W        W34838  41.306  16.289   2.186
73385W        W34839  31.144  32.583  10.096
73386W        W34840  26.526  30.105   4.777
73387W        W34841  24.597  38.441  12.385
73388W        W34842  12.308  21.142   2.864
73389W        W34843   4.819  17.618  13.957
73390W        W34844  29.092  28.977  11.027
73391W        W34845   9.255   1.392   4.731
73392W        W34846  22.164  20.139   2.703
73393W        W34847  15.781  44.008  14.480
73394W        W34848  29.079   5.909  13.033
73395W        W34849  42.304  10.213   0.859
73396W        W34850  10.151  18.666   0.766
73397W        W34851  36.409  27.663   0.760
73398W        W34852   2.458  42.507  14.285
73399W        W34853  20.176  23.653   0.921
73400W        W34854  28.978  17.740  12.952
73401W        W34855  37.514   9.689   1.710
73402W        W34856  24.160  27.502   0.428
73403W        W34857  37.936  14.683  12.096
73404W        W34858  42.861   7.688  12.439
73405W        W34859  10.719  25.664  14.516
73406W        W34860  24.590  11.738  12.967
73407W        W34861  11.801  40.827  12.433
73408W        W34862   7.692  41.813   3.202
73409W        W34863  23.221  34.541  10.411
73410W        W34864  39.373   8.838  12.923
73411W        W34865   5.810  38.832   0.481
73412W        W34866   2.380  18.744   1.900
73413W        W34867  43.951  24.679  11.417
73414W        W34868  11.213  40.908   1.903
73415W        W34869  22.021  13.712   4.232
73416W        W34870  44.312  13.338   1.244
73417W        W34871  19.641  41.796   1.288
73418W        W34872  33.393  29.506  11.006
73419W        W34873  27.609  10.335  13.307
73420W        W34874  29.666  29.481  11.051
73421W        W34875  33.400  26.005   2.299
73422W        W34876  20.541  36.501   3.632
73423W        W34877  17.730  10.174   3.338
73424W        W34878  27.066  38.030  13.544
73425W        W34879  32.945   1.794   3.841
73426W        W34880  10.358  37.374  14.381
73427W        W34881  41.798  29.121  13.926
73428W        W34882   0.782  32.009  11.924
73429W        W34883  12.277  23.678   0.328
73430W        W34884  41.401   6.362  14.355
73431W        W34885  25.685  13.152   3.721
73432W        W34886   4.443  27.582  11.954
73433W        W34887  14.824   5.770   4.253
73434W        W34888  33.581  33.407  10.993
73435W        W34889  16.716  20.246   2.338
73436W        W34890  23.603  41.492  12.864
73437W        W34891  22.156  30.929  11.991
73438W        W34892  19.113   9.162  10.024
73439W        W34893  10.656  36.886  11.970
73440W        W34894  14.806  35.481  14.849
73441W        W34895  17.631   2.468  11.561
73442W        W34896  44.275  31.432   3.847
73443W        W34897  20.269  25.174  12.888
73444W        W34898  31.951  21.140   3.282
73445W        W34899  12.197  31.420   5.312
73446W        W34900  14.687  14.784   0.862
73447W        W34901  43.475  39.019   4.642
73448W        W34902  20.231   8.893   3.341
73449W        W34903  10.800   1.967   0.751
73450W        W34904  27.192  20.122  14.982
73451W        W34905  28.516   1.966  13.525
73452W        W34906   4.875  44.388   3.828
73453W        W34907  10.723  22.574   3.329
73454W        W34908   8.858  25.652   3.295
73455W        W34909   2.721  30.517  12.347
73456W        W34910   0.769  13.822  12.429
73457W        W34911   4.425   1.873  14.941
73458W        W34912  39.335  32.953  12.525
73459W        W34913  43.351  19.247  13.819
73460W        W34914  35.439  38.837  14.857
73461W        W34915  43.967   6.836   3.825
73462W        W34916  39.878   0.911  13.937
73463W        W34917  21.574  20.054  12.063
73464W        W34918  29.032   3.812  11.550
73465W        W34919   3.344  11.258   4.241
73466W        W34920  28.973  19.577   0.396
73467W        W34921  13.201  30.659  14.341
73468W        W34922  23.119  24.633  12.882
73469W        W34923  35.423  27.146   1.308
73470W        W34924  16.685  15.313  13.906
73471W        W34925  26.180  14.107   4.754
73472W        W34926  13.267  22.207  10.130
73473W        W34927  15.716  27.677   1.853
73474W        W34928  11.805   0.420   0.873
73475W        W34929  21.257  21.615   1.438
73476W        W34930  39.523  35.014  14.836
73477W        W34931   9.757  38.415   3.715
73478W        W34932  11.650   1.951  10.145
73479W        W34933  16.647  11.713  11.571
73480W        W34934  32.134  30.078  14.899
73481W        W34935  35.883  20.191  12.994
73482W        W34936  38.061  28.075  12.384
73483W        W34937  27.130  23.031  12.858
73484W        W34938   4.233  31.607  13.997
73485W        W34939  13.143   6.737   3.703
73486W        W34940  14.745   0.962  13.311
73487W        W34941  22.585  18.232  11.056
73488W        W34942  13.256  41.421   4.180
73489W        W34943  22.523  12.807   5.085
73490W        W34944  36.480   3.222   4.834
73491W        W34945  12.217  13.213   3.630
73492W        W34946   3.375   1.386   2.256
73493W        W34947  39.831  35.488  13.950
73494W        W34948  24.704  37.435  12.048
73495W        W34949   9.831  33.554   2.295
73496W        W34950  18.576  44.362   1.316
73497W        W34951  42.313  23.707  13.944
73498W        W34952  32.122   8.841  14.911
73499W        W34953  36.374  23.182   0.889
73500W        W34954   3.423  39.468   2.872
73501W        W34955  14.287  29.521   4.187
73502W        W34956   2.361  16.188   2.732
73503W        W34957  23.716  41.433   0.295
73504W        W34958  31.964   3.811   4.828
73505W        W34959  19.100   4.801  11.938
73506W        W34960  29.923  12.654  10.123
73507W        W34961  21.165  22.127  14.299
73508W        W34962   5.918  12.333  12.922
73509W        W34963   5.384  12.677   5.126
73510W        W34964  14.239  44.759  10.995
73511W        W34965  28.078  44.819  12.511
73512W        W34966   8.842  28.146  10.958
73513W        W34967  29.662  17.287   0.337
73514W        W34968   0.390   7.728  14.927
73515W        W34969  41.502  35.883   4.759
73516W        W34970  17.730  12.808  11.856
73517W        W34971   3.725  20.208  11.878
73518W        W34972  10.239  26.643  14.990
73519W        W34973  36.895  13.683  12.573
73520W        W34974  39.517  39.320  14.414
73521W        W34975   8.206   2.931  12.471
73522W        W34976  25.618  16.146   2.830
73523W        W34977  31.974  15.635   2.680
73524W        W34978  41.887  16.111   1.415
73525W        W34979  40.945  20.694  14.012
73526W        W34980  35.393   2.722   3.631
73527W        W34981  22.690  33.495   2.878
73528W        W34982  32.501  23.518  14.274
73529W        W34983  36.514  11.302  13.921
73530W        W34984  20.136  43.010   5.123
73531W        W34985   6.241  16.582   3.855
73532W        W34986   6.887  18.181   3.681
73533W        W34987  29.011  19.276  14.290
73534W        W34988  37.082   8.809   3.322
73535W        W34989  13.655  30.977  11.002
73536W        W34990  13.649  38.869   0.853
73537W        W34991  21.572  30.624  14.851
73538W        W34992  36.382  44.322  11.509
73539W        W34993  40.884  23.058  13.357
73540W        W34994  14.693   2.271   2.391
73541W        W34995  10.348  38.889  12.398
73542W        W34996  19.189  31.927   2.792
73543W        W34997  16.131  39.510  13.869
73544W        W34998  30.527  15.691  14.780
73545W        W34999  26.165  28.092   4.207
73546W        W35000  40.338  36.084  14.894
73547W        W35001  19.057  22.060   0.933
73548W        W35002   0.403  35.905   1.793
73549W        W35003   4.255  15.252   3.755
73550W        W35004  25.214  17.694  13.367
73551W        W35005   2.420  16.578  10.539
73552W        W35006  16.083  39.410  10.086
73553W        W35007   8.361  15.622  12.944
73554W        W35008  12.720  11.824  14.764
73555W        W35009  38.851   1.838   4.127
73556W        W35010  11.176  37.971   1.778
73557W        W35011  20.616  41.977  11.033
73558W        W35012  14.245  35.002  11.478
73559W        W35013   5.860   3.797  14.351
73560W        W35014   0.329  35.399   1.760
73561W        W35015  15.748  12.851  11.410
73562W        W35016   7.840  27.673   0.786
73563W        W35017  30.557  37.489   3.308
73564W        W35018  16.126  16.797   3.797
73565W        W35019   8.316  15.184   3.287
73566W        W35020  14.595  24.546  11.567
73567W        W35021  25.571  41.997   4.191
73568W        W35022   8.173  31.484  13.335
73569W        W35023   6.753  29.615   2.792
73570W        W35024  29.651  18.547  11.006
73571W        W35025  22.611  44.910  11.574
73572W        W35026   7.707  27.010  12.957
73573W        W35027  16.633  20.119   0.806
73574W        W35028  43.293  34.964  13.351
73575W        W35029  10.669  44.935  12.893
73576W        W35030  38.410   6.710   1.772
73577W        W35031  30.609  43.886  13.543
73578W        W35032  22.735  10.648   2.742
73579W        W35033  12.766  17.064   1.451
73580W        W35034  26.457  17.776   3.361
73581W        W35035  35.456  20.539   4.179
73582W        W35036   2.912  29.020   0.731
73583W        W35037   8.242  33.997  10.562
73584W        W35038  37.913  27.465   1.913
73585W        W35039   6.291   0.817   4.723
73586W        W35040   3.718   1.281   3.754
73587W        W35041  41.396  38.473  13.878
73588W        W35042  21.066  27.954  12.918
73589W        W35043  26.041   0.347   2.330
73590W        W35044  16.072  13.188   3.304
73591W        W35045  43.021   9.185  13.841
73592W        W35046   6.860  30.094   2.256
73593W        W35047  26.113   4.757  11.096
73594W        W35048  10.727   0.745   3.697
73595W        W35049   0.381  16.741   4.652
73596W        W35050  28.031  15.632  13.508
73597W        W35051   8.673  42.281  13.503
73598W        W35052  34.003  28.532   2.315
73599W        W35053  15.271  21.113  11.104
73600W        W35054  38.858   9.317   0.736
73601W        W35055  18.281  21.540   0.376
73602W        W35056  18.050   9.824   3.313
73603W        W35057  34.569  26.197  14.316
73604W        W35058   3.731  23.706   3.169
73605W        W35059  30.029   3.304   1.913
73606W        W35060   6.833  25.488   0.774
73607W        W35061  34.509   9.272   0.848
73608W        W35062  42.297  40.948  11.543
73609W        W35063   3.794   0.252   0.444
73610W        W35064   6.276  17.736   0.297
73611W        W35065   6.352   7.814  10.944
73612W        W35066  30.135  25.535   1.860
73613W        W35067  15.183  21.158  11.401
73614W        W35068  36.454  39.351   1.796
73615W        W35069   6.268   0.340  11.604
73616W        W35070  30.091   6.427  11.419
73617W        W35071  38.568  18.286   3.207
73618W        W35072  12.133   7.832  11.542
73619W        W35073  36.938  35.594  10.957
73620W        W35074  31.589   9.655   4.354
73621W        W35075  34.499   2.753  12.490
73622W        W35076  31.912  26.491  14.848
73623W        W35077  38.531   4.845   4.185
73624W        W35078  32.909  30.586   2.198
73625W        W35079  28.026  28.507   1.811
73626W        W35080  11.137  30.931  12.880
73627W        W35081   2.389  14.189  12.983
73628W        W35082   3.369  14.287   9.937
73629W        W35083  43.998  38.433  13.363
73630W        W35084  23.637  10.262   0.854
73631W        W35085   6.244  31.547   9.613
73632W        W35086   0.921  21.229  11.431
73633W        W35087  28.586  23.198   0.872
73634W        W35088  41.376   5.435  10.566
73635W        W35089  12.691  42.959  14.318
73636W        W35090  19.706   0.308  14.352
73637W        W35091  41.980  18.086  14.365
73638W        W35092  20.212  28.459  14.782
73639W        W35093  15.815  18.573   4.281
73640W        W35094  29.619  17.727   3.848
73641W        W35095  17.739   0.433   3.817
73642W        W35096  36.381   8.882  14.782
73643W        W35097  15.295   7.855  14.960
73644W        W35098   7.207  29.085  11.495
73645W        W35099  41.937  26.962   2.666
73646W        W35100   0.806  17.154   2.809
73647W        W35101  25.989  17.121   1.717
73648W        W35102   5.700  29.930   3.346
73649W        W35103  27.607   8.775   5.274
73650W        W35104  18.093   4.254   1.443
73651W        W35105  36.411  39.945   1.833
73652W        W35106   6.747  23.707  14.489
73653W        W35107  16.224  11.358  10.576
73654W        W35108  43.917  15.311  12.908
73655W        W35109  35.430  36.908  14.297
73656W        W35110  40.370  41.320   2.194
73657W        W35111  19.128  40.370  14.024
73658W        W35112  15.218  31.462  11.486
73659W        W35113  10.797  30.124   2.405
73660W        W35114  27.686  26.126  13.951
73661W        W35115   2.411  19.284  14.411
73662W        W35116   1.449  20.546  13.406
73663W        W35117  17.197  19.740  13.546
73664W        W35118   8.352  27.605  12.952
73665W        W35119   1.284  41.488   3.804
73666W        W35120  27.587   9.165  12.850
73667W        W35121  27.118  35.453   1.920
73668W        W35122  11.826  13.657  12.090
73669W        W35123  43.934   1.735   4.601
73670W        W35124   0.341  21.611   2.687
73671W        W35125  35.390  18.279   3.781
73672W        W35126  16.784   0.424  14.327
73673W        W35127  27.472  23.088   2.723
73674W        W35128  18.634   5.866   1.246
73675W        W35129  23.139  25.710  13.887
73676W        W35130  28.484  22.121   5.683
73677W        W35131  40.485  33.624  10.613
73678W        W35132  31.097  34.537   9.992
73679W        W35133  29.583  13.327  11.026
73680W        W35134   1.749  34.600  14.834
73681W        W35135  33.514  43.439   1.388
73682W        W35136  33.892  33.981   3.751
73683W        W35137  29.145  34.449   3.385
73684W        W35138  20.576  31.936  12.951
73685W        W35139  33.424  44.830   3.784
73686W        W35140  36.394  35.017  13.893
73687W        W35141   9.336  33.098  13.887
73688W        W35142  11.199  30.434   1.932
73689W        W35143   2.438  38.845  12.088
73690W        W35144  19.755  14.230   1.426
73691W        W35145  33.961  29.008   4.714
73692W        W35146   8.327  16.197   4.228
73693W        W35147  43.422  41.976  12.458
73694W        W35148   1.431  42.449   1.372
73695W        W35149  29.129  22.739  12.828
73696W        W35150  31.491   2.811   4.715
73697W        W35151  18.550  43.294   1.788
73698W        W35152  24.668   4.772   0.299
73699W        W35153  10.744  44.342  10.435
73700W        W35154  36.855  30.009  12.533
73701W        W35155   7.708  33.010   1.316
73702W        W35156   3.369  21.523  13.536
73703W        W35157  21.739  32.978  11.022
73704W        W35158  25.109   6.732   2.314
73705W        W35159  29.522  26.563   2.765
73706W        W35160  30.083   4.274  14.758
73707W        W35161  13.721  30.594  10.623
73708W        W35162   7.774  36.089   1.882
73709W        W35163  38.860   0.981  13.332
73710W        W35164   4.702  16.665  11.934
73711W        W35165  37.378   8.307  11.051
73712W        W35166  43.507  11.735   0.817
73713W        W35167  43.874  17.124   0.929
73714W        W35168  42.495  40.054   1.228
73715W        W35169   0.361   6.384  11.449
73716W        W35170  29.575  12.786  14.340
73717W        W35171  21.101   9.773   4.673
73718W        W35172  22.580   3.350  13.491
73719W        W35173  29.989  20.532   4.126
73720W        W35174  37.952  42.922   2.701
73721W        W35175  13.683  20.233  12.058
73722W        W35176   2.941  15.641  13.912
73723W        W35177  19.619  37.563  11.466
73724W        W35178  24.076  42.998   4.141
73725W        W35179  15.210  44.001   3.680
73726W        W35180  14.192  41.982  13.423
73727W        W35181   8.206   0.422  14.305
73728W        W35182  26.564  18.193  11.014
73729W        W35183  40.867   7.259  14.362
73730W        W35184   0.267   2.914   1.769
73731W        W35185   0.863  25.540   1.748
73732W        W35186   3.280  21.633   4.700
73733W        W35187  35.076  37.048   2.371
73734W        W35188   3.288  13.218  13.901
73735W        W35189  25.616  29.518   4.728
73736W        W35190  32.414  13.713   4.193
73737W        W35191  34.581  38.326  11.115
73738W        W35192  29.640  43.870  12.554
73739W        W35193  15.317  27.071   3.221
73740W        W35194  43.492  33.061  13.915
73741W        W35195  43.932  21.074  11.379
73742W        W35196  38.882  12.849   0.287
73743W        W35197  32.025  20.538   2.357
73744W        W35198  39.981  26.049   0.810
73745W        W35199  38.436  10.647  14.481
73746W        W35200  34.434   1.808   4.328
73747W        W35201  43.453  13.615  13.390
73748W        W35202   2.725  12.659  13.506
73749W        W35203  25.566   8.844   9.985
73750W        W35204  42.032  16.261  12.071
73751W        W35205  31.535   1.905   2.329
73752W        W35206   8.873   5.689  10.017
73753W        W35207  35.397  16.250  14.820
73754W        W35208  24.661  43.273   3.337
73755W        W35209  42.501  32.917  11.060
73756W        W35210   3.879  21.580   2.843
73757W        W35211  15.182  24.052   1.368
73758W        W35212  38.057  28.485  12.482
73759W        W35213  42.015  42.979  14.915
73760W        W35214   4.420  13.688  13.055
73761W        W35215  16.770  27.650   4.165
73762W        W35216   5.414  10.192   2.388
73763W        W35217  16.105  38.053  12.933
73764W        W35218  33.473   0.323  11.105
73765W        W35219  17.661  13.601  12.493
73766W        W35220  21.091  30.128  11.542
73767W        W35221  11.692  31.477  11.596
73768W        W35222  10.795  36.474  13.034
73769W        W35223  17.773  33.486   0.265
73770W        W35224   4.787   4.361  14.844
73771W        W35225  23.217  14.332   1.226
73772W        W35226  27.153  29.050  13.801
73773W        W35227  25.669  40.915   4.617
73774W        W35228  38.535   0.812   0.864
73775W        W35229  30.557  26.698  13.794
73776W        W35230  17.729  13.328  13.479
73777W        W35231   1.867  44.328   2.233
73778W        W35232  11.655  38.865   3.836
73779W        W35233  22.689  29.670  11.047
73780W        W35234  12.239  29.560  10.999
73781W        W35235   5.208   6.922   1.260
73782W        W35236   2.228  27.586  14.852
73783W        W35237   5.306  10.161   0.324
73784W        W35238  11.656  43.500  10.496
73785W        W35239  39.527   9.740   2.351
73786W        W35240  44.366  31.402  10.563
73787W        W35241  31.048  43.301  14.486
73788W        W35242  15.668  44.470  13.412
73789W        W35243  42.334  15.685   1.731
73790W        W35244  23.179  16.770  11.597
73791W        W35245  17.086  27.524   4.597
73792W        W35246  28.662  28.993   3.760
73793W        W35247  18.179   9.739   4.754
73794W        W35248  15.649  37.844  13.805
73795W        W35249  36.361  37.051  12.420
73796W        W35250  23.522  11.129   2.309
73797W        W35251  40.865  21.178   1.734
73798W        W35252   5.360  22.188   2.321
73799W        W35253  28.025  43.993   4.113
73800W        W35254  23.700  41.044   0.816
73801W        W35255   6.236  36.000  13.952
73802W        W35256  23.723  41.860  12.355
73803W        W35257  14.241  28.168  13.844
73804W        W35258  18.584  19.604  12.087
73805W        W35259  23.135  41.480   2.823
73806W        W35260  43.957  30.426  14.975
73807W        W35261  36.386  28.937   9.984
73808W        W35262  37.962   7.820   2.848
73809W        W35263  11.639   6.868  10.561
73810W        W35264  32.631  34.045  12.512
73811W        W35265  37.503  26.547   0.780
73812W        W35266  39.939   7.785  14.425
73813W        W35267   8.161  23.081  11.382
73814W        W35268  32.445  24.704  12.549
73815W        W35269  28.102  40.412  14.018
73816W        W35270  41.789  14.240  14.314
73817W        W35271  21.091   5.929   2.814
73818W        W35272   4.371  31.639   1.822
73819W        W35273  38.839  38.825   3.767
73820W        W35274  22.520   8.672  11.560
73821W        W35275  20.608  34.613  13.368
73822W        W35276  11.343   3.327   2.238
73823W        W35277  30.952  43.279  10.914
73824W        W35278  13.752  30.577  12.388
73825W        W35279  40.902  31.007  11.884
73826W        W35280  21.170  42.436   1.335
73827W        W35281  44.323  38.997  11.487
73828W        W35282  30.051   2.739   3.219
73829W        W35283  34.086  29.126  13.344
73830W        W35284   3.412  22.673  12.826
73831W        W35285  32.611  29.153  14.857
73832W        W35286  35.529   3.331  14.414
73833W        W35287   6.777  21.107   1.712
73834W        W35288  13.199  44.331   9.961
73835W        W35289  37.027  38.432   3.258
73836W        W35290  21.672  35.998   0.372
73837W        W35291   5.260   4.699   0.471
73838W        W35292  12.294   6.716   2.883
73839W        W35293   8.803  27.468   1.723
73840W        W35294  33.618  42.994  11.398
73841W        W35295   1.907   3.448  11.549
73842W        W35296   8.762  19.633  12.341
73843W        W35297   4.288  28.090  12.889
73844W        W35298   1.474   3.336   1.826
73845W        W35299  14.207  25.714   4.189
73846W        W35300   5.900  15.624   2.250
73847W        W35301  36.876  39.512   3.375
73848W        W35302  39.895  13.776  11.949
73849W        W35303  11.746   4.853   0.351
73850W        W35304  15.675  25.511   3.323
73851W        W35305  24.105   8.204  12.349
73852W        W35306  39.990  26.502   1.350
73853W        W35307  11.149  41.525  13.321
73854W        W35308  30.129   7.288   2.334
73855W        W35309   9.664  40.935   0.911
73856W        W35310  11.660  42.427  11.604
73857W        W35311   5.839   5.766   4.624
73858W        W35312  17.645  28.006  10.919
73859W        W35313  33.954  17.619  14.291
73860W        W35314  41.453  13.603   0.760
73861W        W35315  37.539   7.238   3.845
73862W        W35316  25.652  34.038   2.732
73863W        W35317   6.378  39.986   4.663
73864W        W35318   3.242  37.418   0.317
73865W        W35319  25.216   8.283   1.314
73866W        W35320   8.736  13.157   4.161
73867W        W35321  19.762  24.062  12.007
73868W        W35322   0.405   4.335  10.511
73869W        W35323  18.754  32.456   1.845
73870W        W35324  11.275   9.689   2.761
73871W        W35325   8.179  37.084   3.282
73872W        W35326   7.715  29.668  11.471
73873W        W35327  12.273  34.459   1.778
73874W        W35328  29.457  16.736  13.316
73875W        W35329   9.706   8.745  11.016
73876W        W35330  42.527  40.831  12.978
73877W        W35331  31.611  43.498  11.451
73878W        W35332  10.141  40.452  10.632
73879W        W35333  22.012  20.528  11.577
73880W        W35334  19.717  18.681  10.912
73881W        W35335  29.072  17.684   2.735
73882W        W35336  17.193  35.964   3.256
73883W        W35337  34.568  43.968   3.793
73884W        W35338   4.936   1.320  11.491
73885W        W35339  30.079  14.286  11.856
73886W        W35340  23.111  38.975   4.264
73887W        W35341  10.170  24.718  12.946
73888W        W35342  19.654  20.039  12.084
73889W        W35343  33.032   2.264   2.819
73890W        W35344  13.223  28.184  12.021
73891W        W35345  32.397  44.489  11.891
73892W        W35346  40.336  15.743  10.159
73893W        W35347  33.587  41.297  13.398
73894W        W35348  42.430  35.541   1.332
73895W        W35349   2.959  30.079   3.675
73896W        W35350  25.495  35.852  10.566
73897W        W35351  15.318  19.215   1.913
73898W        W35352  22.100  17.262   2.386
73899W        W35353  38.460  13.719  11.047
73900W        W35354   7.852  17.125  11.127
73901W        W35355  15.721   1.380  11.520
73902W        W35356  38.508  40.884   5.213
73903W        W35357  24.630  14.741   1.396
73904W        W35358  13.785  27.948   4.341
73905W        W35359  31.409  25.548  14.293
73906W        W35360  43.465   2.942  11.868
73907W        W35361  37.496  26.954  13.524
73908W        W35362   9.770   9.656   2.331
73909W        W35363  20.626  39.375  13.491
73910W        W35364  32.399  24.612  11.554
73911W        W35365  14.693  25.154  11.896
73912W        W35366  10.328  25.571  12.831
73913W        W35367  28.114  42.498   0.409
73914W        W35368  18.288  39.844   3.749
73915W        W35369  21.650  41.523   4.247
73916W        W35370  21.738  26.978  12.048
73917W        W35371  18.102  43.021   1.868
73918W        W35372  12.833  43.841  11.082
73919W        W35373  41.464  37.429   2.327
73920W        W35374  25.056  40.797  13.347
73921W        W35375   4.383  30.051   4.315
73922W        W35376  33.594   1.365  12.900
73923W        W35377  40.878  41.344  12.867
73924W        W35378  34.562  12.633   2.857
73925W        W35379  43.955  20.660   3.763
73926W        W35380  41.979  37.935   0.476
73927W        W35381  32.997   5.309  13.946
73928W        W35382  14.734  43.011  10.062
73929W        W35383  17.632  26.178  13.468
73930W        W35384  20.769  20.175   4.767
73931W        W35385  27.595   6.850  10.478
73932W        W35386   8.740  36.390   3.834
73933W        W35387  35.477  35.093   2.359
73934W        W35388  44.313  19.559   4.616
73935W        W35389  32.580  36.054  14.499
73936W        W35390  37.997  12.335  12.911
73937W        W35391  41.861   3.896  11.974
73938W        W35392  36.352   8.363  14.930
73939W        W35393  15.823  13.324  14.498
73940W        W35394  17.097  34.440  11.093
73941W        W35395  44.309  12.717   3.334
73942W        W35396  37.476  12.333  13.851
73943W        W35397  41.446  44.322   0.827
73944W        W35398  25.095  43.938  12.965
73945W        W35399  29.611  36.436   0.830
73946W        W35400  40.875   8.356   3.826
73947W        W35401  32.088  19.682  13.930
73948W        W35402  37.437  27.011   3.744
73949W        W35403  16.265  13.168   4.660
73950W        W35404   4.372  16.246   3.359
73951W        W35405   7.695  44.384  10.134
73952W        W35406  33.422  32.024  10.483
73953W        W35407   8.190  28.651   3.203
73954W        W35408  17.085  24.605  10.990
73955W        W35409  17.709  41.808   1.426
73956W        W35410  18.186   6.256   1.343
73957W        W35411   1.826  31.946  12.344
73958W        W35412   1.377  33.016  14.314
73959W        W35413  27.685  29.521  10.583
73960W        W35414  35.411  34.971  12.545
73961W        W35415  36.423  27.055   3.382
73962W        W35416  21.709  12.278  12.924
73963W        W35417   4.275   4.944   2.879
73964W        W35418  19.093  15.606   4.274
73965W        W35419  32.080  29.108   0.814
73966W        W35420   8.894  34.496  11.892
73967W        W35421  20.049  41.948  13.929
73968W        W35422   1.470  38.997  10.016
73969W        W35423  42.778  36.413   3.158
73970W        W35424  33.072  22.647   1.771
73971W        W35425  36.592  38.395   0.766
73972W        W35426  14.769  31.520   2.317
73973W        W35427  19.103  17.215   0.357
73974W        W35428  24.655   8.897   0.919
73975W        W35429   3.722  39.024   0.386
73976W        W35430  31.138  10.214   0.481
73977W        W35431  44.410  40.443  10.533
73978W        W35432  19.536   0.928   2.878
73979W        W35433  41.817  14.208   4.329
73980W        W35434  18.166  40.021   1.769
73981W        W35435  44.358   5.882   0.926
73982W        W35436  25.612  18.130  11.961
73983W        W35437  10.150  15.584   1.217
73984W        W35438  20.655  34.424  11.122
73985W        W35439  22.997  27.547  14.363
73986W        W35440  38.504  31.014   0.432
73987W        W35441  14.801  16.122   3.362
73988W        W35442  43.496  24.054  12.991
73989W        W35443  13.298  21.234  10.606
73990W        W35444  20.061  23.169  13.859
73991W        W35445  41.004   5.858   3.746
73992W        W35446  41.945  17.702   2.739
73993W        W35447  25.559  17.063   0.840
73994W        W35448  26.470   3.902  11.989
73995W        W35449   4.422  41.497   2.345
73996W        W35450  23.074  15.679  12.848
73997W        W35451  11.223  30.584  11.915
73998W        W35452   3.411  21.115   4.833
73999W        W35453  14.227  10.216   3.714
74000W        W35454  36.420  16.716  10.412
74001W        W35455  17.680  28.176   4.714
74002W        W35456  20.615  28.628  11.406
74003W        W35457  40.824   5.311  10.952
74004W        W35458  10.741  27.476  11.577
74005W        W35459  10.793  43.809   4.726
74006W        W35460  26.489  32.998   1.886
74007W        W35461   0.905  23.670  13.474
74008W        W35462  11.245  14.721  10.937
74009W        W35463  34.510   6.706   1.827
74010W        W35464  33.444  35.083   0.432
74011W        W35465  13.679  26.574   0.405
74012W        W35466   4.763  39.038   4.269
74013W        W35467  15.797  26.486  12.967
74014W        W35468  36.864  33.110  14.009
74015W        W35469  43.316  26.167  12.391
74016W        W35470  11.665  44.917   4.169
74017W        W35471  39.867   7.850   4.272
74018W        W35472   1.850   9.673  13.794
74019W        W35473  20.538  17.155   1.392
74020W        W35474   9.661  20.219  12.016
74021W        W35475   2.883  29.081  13.039
74022W        W35476   6.743   6.821   3.665
74023W        W35477  26.126  27.973  11.372
74024W        W35478   4.816  19.140   4.674
74025W        W35479  22.996  25.616   1.412
74026W        W35480  37.506  43.476  13.375
74027W        W35481  40.466  20.702   4.344
74028W        W35482  28.084  26.694   3.660
74029W        W35483  24.624  25.055  10.576
74030W        W35484  30.484  34.067   5.307
74031W        W35485  23.096  20.232   4.223
74032W        W35486  41.990  15.669   1.274
74033W        W35487  24.123  20.256   0.861
74034W        W35488  29.613  15.597  12.561
74035W        W35489  15.753  16.620  10.508
74036W        W35490  44.892  16.799   2.237
74037W        W35491  22.615   5.322   3.826
74038W        W35492  10.656  32.530   1.298
74039W        W35493  38.942  40.533   0.765
74040W        W35494   8.202  26.015  10.603
74041W        W35495   8.854  44.337  13.388
74042W        W35496  38.991  29.627   5.237
74043W        W35497  30.076  17.153   4.637
74044W        W35498  29.527   5.276   3.792
74045W        W35499   8.741   8.205   3.863
74046W        W35500  13.677  32.628   2.710
74047W        W35501   9.673  14.692  12.957
74048W        W35502  26.066   2.726   5.732
74049W        W35503  36.032  35.388  13.532
74050W        W35504  32.440  33.034  11.993
74051W        W35505  19.261  28.992   1.419
74052W        W35506   5.277  28.031   1.409
74053W        W35507  33.595   8.889  10.425
74054W        W35508  25.139  31.116   4.152
74055W        W35509   9.355  44.346   4.701
74056W        W35510  20.543  31.542   2.706
74057W        W35511  31.637   1.883   4.671
74058W        W35512  21.183   1.894  12.388
74059W        W35513  12.257  25.504  14.359
74060W        W35514  26.486  41.834   0.769
74061W        W35515   5.921   9.358  11.876
74062W        W35516   7.865  22.091  11.458
74063W        W35517   2.902  18.152   0.905
74064W        W35518  42.848  12.752  11.585
74065W        W35519  32.099  32.052   2.396
74066W        W35520   0.431  38.381   3.342
74067W        W35521  40.303  35.497  12.404
74068W        W35522  30.143   6.681   3.207
74069W        W35523  25.638  31.594   4.182
74070W        W35524  31.439  10.827  12.848
74071W        W35525  10.242  44.333  14.810
74072W        W35526  25.504   6.745   0.741
74073W        W35527  16.736  26.101  12.543
74074W        W35528  34.933  19.042   4.624
74075W        W35529  16.086  38.862  14.020
74076W        W35530  10.347   9.687  13.410
74077W        W35531   8.866  23.685   0.304
74078W        W35532  40.357  30.939  12.535
74079W        W35533  34.106   7.218  14.019
74080W        W35534  35.960   1.770   0.808
74081W        W35535  19.657  30.006   2.398
74082W        W35536   7.764  36.846  14.277
74083W        W35537  23.181  44.853   3.226
74084W        W35538  37.907  34.995   3.735
74085W        W35539  24.669   8.323   0.857
74086W        W35540   7.748  33.524   2.356
74087W        W35541  30.133  25.186  14.311
74088W        W35542  38.477  29.665  11.860
74089W        W35543  38.058  20.574   3.347
74090W        W35544   2.348  19.235   1.215
74091W        W35545   8.167   9.785  10.527
74092W        W35546  18.594   9.248  11.110
74093W        W35547  30.153  31.907   3.176
74094W        W35548  31.116  11.321   2.811
74095W        W35549  35.935  16.774  13.813
74096W        W35550  16.722  14.640   1.856
74097W        W35551   4.722  10.655   0.252
74098W        W35552  13.274  20.078   3.729
74099W        W35553  34.990  40.507  13.530
74100W        W35554   8.161  18.699   0.956
74101W        W35555   7.734  42.965   3.714
74102W        W35556  44.895  39.866  11.065
74103W        W35557   1.331   1.238  13.954
74104W        W35558  34.032  29.491   1.402
74105W        W35559   4.433   9.341   1.863
74106W        W35560  28.093   3.454  14.833
74107W        W35561  18.706   2.428  14.966
74108W        W35562   6.415  19.748  13.539
74109W        W35563  36.036  24.209   2.298
74110W        W35564  30.433   1.363   2.340
74111W        W35565  10.153  27.643   2.822
74112W        W35566  25.496  32.064  10.603
74113W        W35567  27.686  33.065  13.406
74114W        W35568  27.475  26.127  14.494
74115W        W35569  19.044  14.302  14.298
74116W        W35570   4.224  10.728   0.941
74117W        W35571  19.254  23.106  11.902
74118W        W35572  25.656  36.998   0.765
74119W        W35573   6.292  40.826   2.289
74120W        W35574  14.797  13.345  13.416
74121W        W35575   1.437  21.084  11.536
74122W        W35576  42.431  25.068   4.310
74123W        W35577  14.599  15.266   0.851
74124W        W35578   0.804   0.775   0.253
74125W        W35579   1.249  21.041   1.356
74126W        W35580  13.771  37.068   5.170
74127W        W35581  15.083  11.812   0.333
74128W        W35582  30.575  22.204   3.788
74129W        W35583  44.439  40.468   2.375
74130W        W35584  34.435  11.251   3.743
74131W        W35585  40.053  37.502  11.053
74132W        W35586  18.626  31.499   0.923
74133W        W35587  26.164  26.977  14.785
74134W        W35588  19.163   2.965  12.948
74135W        W35589  30.958  27.555   1.736
74136W        W35590   8.336   1.315  13.912
74137W        W35591  43.981  29.527  14.501
74138W        W35592  31.601  38.953  13.381
74139W        W35593   2.860  10.324  11.077
74140W        W35594  10.734   3.244  14.372
74141W        W35595  26.595  19.684  13.340
74142W        W35596   0.953  43.879   3.642
74143W        W35597   6.385   5.732  13.444
74144W        W35598  33.992  17.727   1.927
74145W        W35599  35.893  36.484   0.750
74146W        W35600  21.559  40.396   0.418
74147W        W35601   3.292   0.383  10.141
74148W        W35602  31.030   0.985   0.872
74149W        W35603  28.043   1.296   4.137
74150W        W35604  25.216  32.487   0.966
74151W        W35605  44.389  44.957   4.803
74152W        W35606  25.543  34.062  10.482
74153W        W35607   4.297  29.136  14.293
74154W        W35608   0.939  25.101  10.610
74155W        W35609  42.800  11.336   2.294
74156W        W35610  31.499   0.403  14.858
74157W        W35611  35.078  28.626   2.821
74158W        W35612  32.931  19.766   4.666
74159W        W35613  43.018  24.515  14.993
74160W        W35614  22.743  30.479   4.160
74161W        W35615  12.786  29.918  12.020
74162W        W35616  16.262  29.025   3.321
74163W        W35617  22.522  44.297   3.219
74164W        W35618  16.752  39.421   0.384
74165W        W35619  23.237  22.036   3.786
74166W        W35620  44.350  14.748   1.289
74167W        W35621  40.454  44.991  13.012
74168W        W35622  42.305  32.109  12.578
74169W        W35623  28.608  31.005   1.727
74170W        W35624   2.854  21.728   4.163
74171W        W35625  41.927  32.991  13.801
74172W        W35626   4.363  22.226  14.510
74173W        W35627  39.560  34.561   3.181
74174W        W35628  36.580  43.426   1.248
74175W        W35629  24.226   5.394  12.023
74176W        W35630  24.067  24.039   4.691
74177W        W35631  29.072  43.768   2.847
74178W        W35632  16.199   6.717  13.468
74179W        W35633  16.078  26.517   2.395
74180W        W35634  10.274  40.991   1.915
74181W        W35635   0.882  42.350   0.267
74182W        W35636  27.651   3.302   4.145
74183W        W35637  20.643  38.827  14.944
74184W        W35638  28.036  40.447  12.407
74185W        W35639   3.375   3.811   3.863
74186W        W35640   7.180  31.092   1.238
74187W        W35641   7.388  26.517  14.465
74188W        W35642  42.375  35.379  12.044
74189W        W35643  40.831   2.821  12.085
74190W        W35644  22.154  12.822  13.054
74191W        W35645  11.767  20.121  13.473
74192W        W35646  39.823   7.684  11.877
74193W        W35647   4.299  20.176   2.682
74194W        W35648  21.196  17.714  13.947
74195W        W35649  10.790   0.333  11.461
74196W        W35650  44.896  35.058  10.898
74197W        W35651   5.215   1.402  12.958
74198W        W35652  16.259   3.360   3.753
74199W        W35653  34.416  44.885   0.420
74200W        W35654  14.315  21.184   2.882
74201W        W35655  13.704  10.258  13.468
74202W        W35656   3.441  41.992  12.024
74203W        W35657  26.158  12.273   0.939
74204W        W35658  40.472  17.558   2.348
74205W        W35659   0.985  24.203   5.170
74206W        W35660   9.737   1.459   0.855
74207W        W35661  37.545  37.071  14.821
74208W        W35662  35.574  32.984  13.351
74209W        W35663  26.496   8.875   2.767
74210W        W35664  42.012  10.782  12.895
74211W        W35665  16.316  33.120  14.278
74212W        W35666  15.153  16.689  10.630
74213W        W35667  35.521   7.409   2.351
74214W        W35668  23.035  15.660   1.843
74215W        W35669  28.982  39.402   0.263
74216W        W35670  35.493  19.163   3.199
74217W        W35671  44.967  12.295   2.256
74218W        W35672  36.064  42.840  12.905
74219W        W35673  19.260  17.724   1.802
74220W        W35674  23.230  29.585  11.508
74221W        W35675  16.737  37.442   0.818
74222W        W35676  37.500  43.455   1.853
74223W        W35677  28.182  23.544  12.989
74224W        W35678   6.900   0.458  13.536
74225W        W35679  14.290  42.519   2.865
74226W        W35680  22.643  19.607  11.423
74227W        W35681  27.115   8.186   4.685
74228W        W35682   5.322  24.035  11.008
74229W        W35683  18.722  36.886   1.384
74230W        W35684   7.874  28.116   0.467
74231W        W35685  29.560  10.312   2.783
74232W        W35686  27.063   9.839  13.799
74233W        W35687  39.809  18.589   0.416
74234W        W35688  14.267  44.274  11.460
74235W        W35689  40.023  27.501  11.114
74236W        W35690  38.938  10.755  14.820
74237W        W35691  28.987  37.369   3.326
74238W        W35692  35.457  13.607   3.754
74239W        W35693  21.643  21.525   3.309
74240W        W35694   5.267   3.329   2.827
74241W        W35695  12.795  11.846  10.976
74242W        W35696  28.604  25.077   2.763
74243W        W35697  38.060  12.290  11.022
74244W        W35698  17.686   1.760   2.678
74245W        W35699  41.811  26.632  12.870
74246W        W35700  19.735  27.019  13.392
74247W        W35701  22.536  42.974  13.831
74248W        W35702   6.780  39.999   3.669
74249W        W35703  39.319  21.143  12.385
74250W        W35704  37.863  13.752   0.842
74251W        W35705  36.003  21.184   4.153
74252W        W35706  33.549  19.570   1.271
74253W        W35707  39.831   6.718   1.771
74254W        W35708  35.019   2.942  13.802
74255W        W35709  14.200  22.577   0.381
74256W        W35710  19.600  12.842  10.911
74257W        W35711  33.524  41.406   0.333
74258W        W35712   5.890  31.117  11.572
74259W        W35713  10.711   8.316  10.936
74260W        W35714  38.473   8.235  12.539
74261W        W35715  44.293   0.304  13.329
74262W        W35716  38.873  33.098  11.894
74263W        W35717  36.849   4.416  10.584
74264W        W35718   4.861  19.619   3.336
74265W        W35719   4.875  36.556   2.274
74266W        W35720  18.567  20.617   1.707
74267W        W35721  39.321  18.606  11.521
74268W        W35722  30.046  24.623  12.434
74269W        W35723  13.804   9.309  12.452
74270W        W35724  26.688  42.469   3.228
74271W        W35725  40.826  30.591   0.828
74272W        W35726  24.522  43.415   2.182
74273W        W35727  30.428  42.847   0.891
74274W        W35728  41.022  19.271   4.732
74275W        W35729  37.903  15.701  11.109
74276W        W35730  23.599   3.867  13.898
74277W        W35731  28.002   2.783   2.291
74278W        W35732   2.401   4.902   3.194
74279W        W35733  16.166   0.360  14.387
74280W        W35734   6.703  37.984  14.867
74281W        W35735  44.345  22.698   0.778
74282W        W35736  17.764   9.170   0.754
74283W        W35737  18.074  20.682   4.674
74284W        W35738  37.845  20.125  11.932
74285W        W35739  12.151   5.858  10.645
74286W        W35740  44.773  11.311   3.779
74287W        W35741   8.379  33.553  11.895
74288W        W35742  34.463  36.018   1.758
74289W        W35743  22.570   1.754  10.971
74290W        W35744  24.049  28.548  10.492
74291W        W35745   7.292  22.019  10.405
74292W        W35746  41.473   3.350   1.777
74293W        W35747   8.808  13.674   1.920
74294W        W35748  40.825  42.782   0.804
74295W        W35749  19.649  42.833   3.840
74296W        W35750  26.132  13.828  12.522
74297W        W35751   4.716  10.779  10.566
74298W        W35752  38.488  22.565   4.274
74299W        W35753  29.007  40.936   2.827
74300W        W35754  23.009  31.914  13.335
74301W        W35755  10.873  23.621  13.325
74302W        W35756  23.585  18.654  12.016
74303W        W35757   3.226  11.769   0.260
74304W        W35758  13.724  12.650   3.771
74305W        W35759  35.914   9.819   1.239
74306W        W35760  44.488  27.651  11.490
74307W        W35761  19.183  19.726  10.631
74308W        W35762  14.102  42.910  10.496
74309W        W35763  40.520  20.738  13.354
74310W        W35764   3.328   9.388   2.247
74311W        W35765  39.505   1.315   2.233
74312W        W35766   3.379  21.133   2.381
74313W        W35767  11.804  26.612   9.954
74314W        W35768  26.516  41.983   2.862
74315W        W35769  12.362  23.587  12.843
74316W        W35770  28.574   3.870   1.211
74317W        W35771  40.858   5.421   2.236
74318W        W35772  26.071  33.617   0.250
74319W        W35773  27.052   4.715   0.951
74320W        W35774  38.543  11.196  14.393
74321W        W35775  32.080  16.776   0.848
74322W        W35776  11.713   1.479   1.229
74323W        W35777  24.724  39.545  10.627
74324W        W35778  37.568  26.491   0.335
74325W        W35779   0.786  42.794  10.069
74326W        W35780  19.044  18.718   3.682
74327W        W35781  12.186  18.224   2.237
74328W        W35782  17.211  34.921  13.861
74329W        W35783  25.692  42.392   3.237
74330W        W35784   4.724  14.096   1.795
74331W        W35785  35.108  23.067  12.364
74332W        W35786  33.452  19.237   2.751
74333W        W35787  41.484   2.840   2.333
74334W        W35788   9.858  27.573  13.462
74335W        W35789   0.769   4.748  14.885
74336W        W35790  34.615  26.086  11.918
74337W        W35791   4.919  27.148   4.631
74338W        W35792  44.475   9.361  12.393
74339W        W35793  34.075  44.454   1.839
74340W        W35794  10.820  20.608  10.423
74341W        W35795  13.707  22.577   0.277
74342W        W35796  19.692  20.674   2.287
74343W        W35797  31.902  26.083  10.593
74344W        W35798   4.740   8.679   4.656
74345W        W35799   8.756  39.958   4.226
74346W        W35800   7.208  25.648   3.225
74347W        W35801  42.510  30.114  10.981
74348W        W35802  40.894   4.788  14.769
74349W        W35803  27.963  29.613  10.928
74350W        W35804  40.444  26.536   5.168
74351W        W35805  44.925  40.411   2.296
74352W        W35806   9.785  34.486  10.545
74353W        W35807  10.864  18.162  11.960
74354W        W35808  34.086  10.804   0.412
74355W        W35809  21.720  44.285  12.523
74356W        W35810  31.022   3.820  14.857
74357W        W35811  15.814  22.575  11.445
74358W        W35812  12.338  12.207   4.124
74359W        W35813  27.997  25.111  13.500
74360W        W35814  21.059  11.721  11.908
74361W        W35815  38.827  40.900  12.089
74362W        W35816  36.034  35.479   0.938
74363W        W35817  38.446  26.128   0.360
74364W        W35818  13.190  10.198  13.806
74365W        W35819  36.539  44.912   3.322
74366W        W35820  39.887  13.263  13.985
74367W        W35821  18.257  41.997  11.514
74368W        W35822  23.495  21.190   0.783
74369W        W35823  13.626   7.764   3.321
74370W        W35824  27.543  32.940   3.156
74371W        W35825  16.697  22.033  11.374
74372W        W35826  28.183  35.575   0.359
74373W        W35827   4.877   3.447   4.671
74374W        W35828  42.934  28.094  10.951
74375W        W35829  26.090  26.117   2.900
74376W        W35830   1.324   9.324  14.995
74377W        W35831  24.706  28.589   1.905
74378W        W35832  12.652  33.005  14.331
74379W        W35833  20.683  42.296  10.933
74380W        W35834  44.992  19.059  11.021
74381W        W35835  17.085   0.296   1.224
74382W        W35836  16.585  25.071  13.473
74383W        W35837   6.915   4.774   1.274
74384W        W35838   7.852  43.349   0.252
74385W        W35839  24.680  29.498  14.963
74386W        W35840  22.102  24.081  14.884
74387W        W35841  28.941   0.347  10.936
74388W        W35842  28.653  42.383   0.857
74389W        W35843   4.237   8.767   2.378
74390W        W35844  38.461  38.866   4.761
74391W        W35845  11.837  33.018   1.709
74392W        W35846  14.751  23.669  14.462
74393W        W35847  38.457  12.156   0.926
74394W        W35848   4.907  31.964  14.386
74395W        W35849   7.746  11.272   2.358
74396W        W35850  23.196  26.546   4.788
74397W        W35851  23.152  35.042   0.287
74398W        W35852  15.142  39.459   0.261
74399W        W35853  30.483  23.117  12.501
74400W        W35854  28.171  28.137  10.912
74401W        W35855  36.075   8.302   1.346
74402W        W35856  14.315  23.184  14.829
74403W        W35857  18.179  41.384   0.245
74404W        W35858  26.672  38.452   0.368
74405W        W35859   5.688   2.301   4.309
74406W        W35860  21.693   0.392  14.339
74407W        W35861  41.940  19.656   5.213
74408W        W35862  33.115  32.403  13.893
74409W        W35863  16.683  24.628  11.093
74410W        W35864  44.766  19.249  14.290
74411W        W35865  12.689   4.404  10.528
74412W        W35866   5.334  41.895  13.864
74413W        W35867  24.974  40.359  11.423
74414W        W35868  27.033   6.188   4.309
74415W        W35869  39.037  43.377   0.877
74416W        W35870  10.378   3.237  14.792
74417W        W35871   3.732  15.176   0.443
74418W        W35872  31.997   2.776   0.299
74419W        W35873  20.156  23.990  11.943
74420W        W35874  16.181  25.616  14.801
74421W        W35875  41.861  24.712   1.421
74422W        W35876  43.425   1.460  14.923
74423W        W35877  33.471   1.463   2.859
74424W        W35878  11.176   1.291  13.849
74425W        W35879  19.720  34.407   1.726
74426W        W35880  11.850  16.636   5.279
74427W        W35881  43.940  22.711  10.545
74428W        W35882  30.554  16.217   1.242
74429W        W35883  24.120  28.568   1.761
74430W        W35884  13.625   4.282  14.315
74431W        W35885  12.340   0.398  13.978
74432W        W35886   0.334  18.192  12.397
74433W        W35887  26.517  21.216   4.240
74434W        W35888  44.915   3.899   0.371
74435W        W35889  25.499  10.809   0.786
74436W        W35890  40.824  31.058   0.792
74437W        W35891  37.335  36.861   4.258
74438W        W35892  29.609   2.903   2.767
74439W        W35893  40.538   5.767   0.411
74440W        W35894   6.330  29.032   4.796
74441W        W35895  10.879  28.149   0.404
74442W        W35896   5.211  10.716   2.344
74443W        W35897  38.546  42.322   3.804
74444W        W35898  44.995  26.039   2.386
74445W        W35899  34.111  18.645   4.709
74446W        W35900   6.812  32.901  12.990
74447W        W35901  34.976  28.664   1.743
74448W        W35902  42.515  39.368  13.438
74449W        W35903   1.757  26.544  13.929
74450W        W35904  42.890   6.201   0.454
74451W        W35905  10.152  26.207   3.332
74452W        W35906  12.341   3.741   1.863
74453W        W35907  39.509  33.430  13.374
74454W        W35908   5.728  12.196   2.755
74455W        W35909  26.110  42.805   0.836
74456W        W35910  24.629  24.098   1.305
74457W        W35911  42.932  18.203  13.326
74458W        W35912   5.254  44.387  13.539
74459W        W35913   3.294  31.625  14.836
74460W        W35914  30.036  12.721   0.417
74461W        W35915  33.576  34.493  12.441
74462W        W35916   3.434  20.263   4.727
74463W        W35917  38.504  19.101  10.485
74464W        W35918  28.443   1.314   4.169
74465W        W35919  20.577  18.586   4.189
74466W        W35920   5.346  32.085  13.393
74467W        W35921  24.647   2.939   4.783
74468W        W35922   7.831  26.500  13.544
74469W        W35923  17.619  36.878   1.924
74470W        W35924  21.634  22.069   1.412
74471W        W35925  12.765  13.610  13.862
74472W        W35926  40.014  29.627   4.611
74473W        W35927  42.332  24.558  14.834
74474W        W35928  15.805   2.320   0.375
74475W        W35929  35.945  11.253   1.371
74476W        W35930  41.923   6.394   9.964
74477W        W35931  19.253  32.402  10.909
74478W        W35932   7.194  44.856   4.262
74479W        W35933   8.868   3.786   3.710
74480W        W35934  15.247  41.856   1.347
74481W        W35935  13.351   2.731  13.044
74482W        W35936  24.045  36.455   0.401
74483W        W35937  42.818   0.315  14.333
74484W        W35938   5.812  33.449  10.074
74485W        W35939  32.141   5.776   0.867
74486W        W35940  32.627  44.794  11.604
74487W        W35941   2.308  26.698  13.420
74488W        W35942  44.808   9.265   4.250
74489W        W35943   1.858   7.894   0.463
74490W        W35944  22.573  29.482  14.381
74491W        W35945   2.284  12.247   0.942
74492W        W35946  26.023  29.426  11.864
74493W        W35947  36.491  24.625   0.479
74494W        W35948  22.744  25.017  12.368
74495W        W35949   1.843  39.957   1.212
74496W        W35950  19.621  23.491   3.314
74497W        W35951  18.050   3.876   1.327
74498W        W35952  34.958   5.805  10.118
74499W        W35953  41.860   2.966  14.346
74500W        W35954  24.991  44.788  14.030
74501W        W35955   7.214   5.372   0.876
74502W        W35956  23.150  18.634  12.489
74503W        W35957   5.933  17.250   4.254
74504W        W35958  35.947  31.572   1.764
74505W        W35959  42.827  43.952   3.341
74506W        W35960   2.457   2.900  11.897
74507W        W35961   0.306  42.959   1.237
74508W        W35962  10.686  44.918   1.781
74509W        W35963  29.939  13.327  10.617
74510W        W35964  21.086  29.628  12.485
74511W        W35965  24.716  41.886   2.236
74512W        W35966  10.639   9.790   0.394
74513W        W35967   8.401  27.153   3.807
74514W        W35968  13.601  15.259   2.388
74515W        W35969  33.397  13.166   1.701
74516W        W35970  44.338  21.229  10.976
74517W        W35971  38.067  36.507   0.286
74518W        W35972  11.855  12.216  11.923
74519W        W35973  13.327  15.797  11.994
74520W        W35974   2.266  36.093  14.915
74521W        W35975  32.438  44.346  14.979
74522W        W35976  27.085  24.722   1.822
74523W        W35977   2.330  41.360  11.040
74524W        W35978  11.642  27.498  10.577
74525W        W35979   5.736   4.733   2.286
74526W        W35980  19.168   5.394  13.915
74527W        W35981  42.513  42.373   0.352
74528W        W35982  35.859   3.783  11.584
74529W        W35983  27.689  32.488  12.047
74530W        W35984  15.116  11.268  12.876
74531W        W35985  36.496  28.126   3.256
74532W        W35986   4.763   1.798   2.211
74533W        W35987   0.254  44.353   4.317
74534W        W35988   0.891  18.596   0.775
74535W        W35989  33.613  33.489   0.887
74536W        W35990  23.064  25.576   3.283
74537W        W35991  28.027   9.377   0.791
74538W        W35992  25.651  40.820   0.789
74539W        W35993  20.571  33.064  11.983
74540W        W35994  20.682  20.641  12.892
74541W        W35995  11.192  19.773   2.251
74542W        W35996  18.635  26.694   1.428
74543W        W35997   5.688  18.076   2.359
74544W        W35998  13.658  34.100  13.961
74545W        W35999  10.771  31.945   3.311
74546W        W36000  38.563  17.160   4.289
74547W        W36001  15.294  44.408  10.910
74548W        W36002   7.332   6.883   1.885
74549W        W36003  22.559  27.646  11.493
74550W        W36004  22.507  44.351   1.370
74551W        W36005   1.451  18.772   3.793
74552W        W36006  12.358  17.754   5.221
74553W        W36007  34.507  41.407   4.710
74554W        W36008  15.276   6.699  11.030
74555W        W36009   7.785  16.587  13.448
74556W        W36010  32.632   7.689   0.770
74557W        W36011   6.713  12.706   2.208
74558W        W36012   1.742   4.752   1.872
74559W        W36013  30.161  17.229  13.412
74560W        W36014  15.794  14.630  12.853
74561W        W36015  17.632   8.388  13.524
74562W        W36016   4.254  23.200   4.630
74563W        W36017  24.558  21.120   3.718
74564W        W36018   0.437  38.454  13.359
74565W        W36019  30.414  33.437  13.518
74566W        W36020  26.566  42.348   2.229
74567W        W36021  31.085  28.575  11.880
74568W        W36022  42.956  18.169   2.761
74569W        W36023  25.061  22.520  13.868
74570W        W36024   6.365  15.263  12.895
74571W        W36025  44.944  35.393   3.234
74572W        W36026  17.205  24.698  10.461
74573W        W36027  20.028  10.738  12.869
74574W        W36028  25.533   9.809  11.052
74575W        W36029  27.124  29.522   0.960
74576W        W36030  43.798  41.383   1.784
74577W        W36031  18.741   4.922   2.684
74578W        W36032  41.904   1.792   0.244
74579W        W36033   0.899  10.218   0.318
74580W        W36034  22.104  12.674   4.191
74581W        W36035  31.128  38.466   2.775
74582W        W36036  14.278   0.468  10.153
74583W        W36037  18.137  34.555   2.369
74584W        W36038  34.975  17.305  12.075
74585W        W36039  32.104  39.559  14.476
74586W        W36040   6.357   5.887  11.864
74587W        W36041   4.717  38.351   0.815
74588W        W36042  29.621  18.118  14.852
74589W        W36043  19.208   2.930  14.315
74590W        W36044  32.028  44.293   1.388
74591W        W36045  20.699  32.936  13.543
74592W        W36046  22.632   5.261   2.689
74593W        W36047  39.421  14.278   4.828
74594W        W36048  38.415   8.388  10.619
74595W        W36049  16.575  42.974  12.975
74596W        W36050  30.572  32.894  12.500
74597W        W36051  37.555  28.506  13.024
74598W        W36052  27.615  13.618   4.157
74599W        W36053  20.208  33.963   0.475
74600W        W36054  11.352  41.432   4.808
74601W        W36055  32.096  36.351   0.774
74602W        W36056  23.208   3.857  12.952
74603W        W36057  30.645  28.149  13.383
74604W        W36058  28.013  39.038  10.555
74605W        W36059  37.465  38.854   0.275
74606W        W36060  16.147  31.543   1.380
74607W        W36061   5.376  40.416   4.279
74608W        W36062  11.191   6.264  13.948
74609W        W36063  33.962  38.524   1.782
74610W        W36064  26.480  34.576  13.417
74611W        W36065  24.633  44.951  14.006
74612W        W36066  42.886  37.380  12.559
74613W        W36067  18.781   8.322   2.251
74614W        W36068  11.288  33.085   0.283
74615W        W36069  27.185  18.182  10.621
74616W        W36070   7.391   6.295   1.303
74617W        W36071  38.489  16.585   1.908
74618W        W36072   4.305  14.111   0.901
74619W        W36073  23.993   2.736  11.551
74620W        W36074  30.138  40.812  12.994
74621W        W36075  41.532  42.359  13.039
74622W        W36076  38.859  15.261  13.058
74623W        W36077  26.141  24.167  11.065
74624W        W36078  35.547  26.123   4.133
74625W        W36079  16.094  31.577  10.578
74626W        W36080  37.899  38.385   3.156
74627W        W36081  37.836   6.426   1.876
74628W        W36082  35.989   0.269   2.822
74629W        W36083   7.295  23.549  12.480
74630W        W36084  31.427  24.588   3.664
74631W        W36085  15.635  40.442   5.289
74632W        W36086  25.132  30.615   1.347
74633W        W36087  37.412  17.173  11.532
74634W        W36088  24.697  26.001   3.751
74635W        W36089   9.290   3.771  10.503
74636W        W36090  31.994  16.124  13.310
74637W        W36091  16.300  41.985   0.959
74638W        W36092  34.586  16.804   3.770
74639W        W36093   7.188  17.796   3.189
74640W        W36094  20.607   4.835  11.935
74641W        W36095  36.395   5.194   4.760
74642W        W36096  26.565  36.373  11.920
74643W        W36097  44.975  11.258  13.828
74644W        W36098  11.827   8.222   1.812
74645W        W36099  16.703  17.626  13.840
74646W        W36100  38.368  11.166  12.965
74647W        W36101  30.628  10.349   0.415
74648W        W36102   6.840  44.791  14.442
74649W        W36103  21.518  28.459  11.905
74650W        W36104  42.409  18.708  10.588
74651W        W36105  13.352  35.588  14.021
74652W        W36106  38.547  19.089   1.334
74653W        W36107  24.088  42.339   1.243
74654W        W36108  16.802  44.473  10.618
74655W        W36109  21.520  29.054   5.264
74656W        W36110   8.739  16.624   0.794
74657W        W36111  29.598  11.237   1.786
74658W        W36112   6.891  23.994  14.800
74659W        W36113  43.386   1.742   4.785
74660W        W36114  41.360  33.926  13.425
74661W        W36115  24.500   2.731  14.969
74662W        W36116  43.451  24.148  13.307
74663W        W36117  37.064  20.107   3.373
74664W        W36118  36.487  38.508  13.986
74665W        W36119   2.389  11.681  13.058
74666W        W36120  38.426  41.026  12.566
74667W        W36121  25.553   6.350   1.434
74668W        W36122   5.715  41.905   4.126
74669W        W36123  39.521  18.786  11.009
74670W        W36124  40.977  26.058  13.964
74671W        W36125  33.007  39.046   1.270
74672W        W36126   1.834  44.884   3.639
74673W        W36127  16.095  16.131  10.554
74674W        W36128  24.105   0.918  12.380
74675W        W36129  44.487  41.897   2.663
74676W        W36130  20.769  27.194  14.483
74677W        W36131  19.257   1.332  14.942
74678W        W36132  23.519   7.695  14.488
74679W        W36133  35.520  31.577  11.025
74680W        W36134  36.897  30.004  14.452
74681W        W36135  11.259  42.430   3.360
74682W        W36136  31.476  19.719  10.503
74683W        W36137  14.827  36.849  11.393
74684W        W36138   4.885  40.315   3.668
74685W        W36139  40.322  11.670  10.564
74686W        W36140  43.836  41.357   1.327
74687W        W36141  40.436  10.646   1.841
74688W        W36142  25.478  23.237   1.792
74689W        W36143  13.798  38.864   2.709
74690W        W36144  28.469  36.471  11.441
74691W        W36145  41.416  29.631  10.576
74692W        W36146   8.213   7.220  14.312
74693W        W36147   3.246   6.753   1.840
74694W        W36148   6.837   0.467   0.802
74695W        W36149  30.461  12.150   0.377
74696W        W36150  25.164  23.489  12.905
74697W        W36151  36.360  13.215  11.530
74698W        W36152  18.705   3.409   4.231
74699W        W36153  13.824  10.230   9.490
74700W        W36154  30.453  23.504  14.958
74701W        W36155  44.318   2.448   1.858
74702W        W36156  28.931  22.064  12.044
74703W        W36157  26.149  36.068  10.964
74704W        W36158  33.487   6.878  12.368
74705W        W36159  27.522  11.186   9.518
74706W        W36160   6.296  29.140  11.493
74707W        W36161   0.472  40.025   2.193
74708W        W36162  37.873  36.979  12.428
74709W        W36163  41.523  34.936   2.315
74710W        W36164  22.144  31.137   0.418
74711W        W36165   8.763  41.994  13.915
74712W        W36166   4.817   5.400   2.849
74713W        W36167   2.235  23.012   3.182
74714W        W36168  17.156  44.858   3.264
74715W        W36169  41.993  36.858   4.834
74716W        W36170  24.501   5.902  12.454
74717W        W36171   4.787   7.834   0.361
74718W        W36172  12.821   9.884  14.907
74719W        W36173  11.737  20.256  10.602
74720W        W36174  25.658   7.315   5.299
74721W        W36175  14.219  43.777   2.313
74722W        W36176  20.597  34.052  14.318
74723W        W36177  14.741  38.388   2.698
74724W        W36178   6.210  13.651   3.728
74725W        W36179  24.657  44.368   4.688
74726W        W36180  42.852  17.797   1.210
74727W        W36181  20.743  35.360  10.450
74728W        W36182  18.064  34.960   2.374
74729W        W36183  17.302  44.397   3.147
74730W        W36184  26.989  37.569  10.620
74731W        W36185   7.198  19.193  12.543
74732W        W36186  41.801  34.094   2.769
74733W        W36187  16.232  34.918   3.364
74734W        W36188  15.716  35.370   1.922
74735W        W36189  41.476  31.923   2.752
74736W        W36190  25.516  27.481   2.840
74737W        W36191   5.849   4.440  14.895
74738W        W36192  15.814   6.280   1.791
74739W        W36193  19.731  16.668  10.899
74740W        W36194  36.530  39.004  12.518
74741W        W36195  19.720  22.177  14.331
74742W        W36196  35.073  43.002   2.357
74743W        W36197  31.067  37.337  13.403
74744W        W36198  29.566  22.517  13.375
74745W        W36199   8.308   3.772  14.504
74746W        W36200   0.758   7.860   2.292
74747W        W36201  28.459  15.276   0.271
74748W        W36202  36.554   8.164   1.859
74749W        W36203   1.764   1.268  13.475
74750W        W36204  43.494   4.934  14.478
74751W        W36205  11.217  44.306  14.935
74752W        W36206   9.763  27.072   3.281
74753W        W36207   3.911  21.701   0.754
74754W        W36208  20.618  42.967  10.490
74755W        W36209   0.429  23.651   0.380
74756W        W36210  22.120  31.569  11.930
74757W        W36211  33.512  27.120  12.570
74758W        W36212  12.129  31.501   9.504
74759W        W36213   2.449  20.718   4.794
74760W        W36214   2.332  25.530  13.831
74761W        W36215   0.782  10.842   1.412
74762W        W36216   0.901  44.798  13.032
74763W        W36217  16.788  37.535   2.216
74764W        W36218  11.372  24.558  14.880
74765W        W36219  15.684  27.578   3.256
74766W        W36220   8.856  28.667  14.358
74767W        W36221   1.804  27.161   1.279
74768W        W36222  37.063  33.446   0.331
74769W        W36223  17.269  29.581  13.497
74770W        W36224  19.135  43.995   2.261
74771W        W36225  25.484  24.174  12.479
74772W        W36226  16.694  18.156  10.624
74773W        W36227  27.161  42.002  12.471
74774W        W36228   4.237  39.426   2.800
74775W        W36229  15.685  32.512  14.486
74776W        W36230   9.802  33.500   3.661
74777W        W36231   4.269  43.450  10.523
74778W        W36232  28.064  44.994   3.785
74779W        W36233  19.573  30.459   3.365
74780W        W36234  42.459   0.857   0.468
74781W        W36235  43.928  32.502  10.557
74782W        W36236  19.723  42.934  14.477
74783W        W36237  17.161  44.882  13.417
74784W        W36238  37.930  25.613  11.948
74785W        W36239  34.924  13.728   2.267
74786W        W36240  10.383  32.917   4.665
74787W        W36241  15.806   4.772  13.038
74788W        W36242  27.601   8.196  14.805
74789W        W36243  39.968   1.268   3.691
74790W        W36244  10.351   8.178   3.840
74791W        W36245   1.286  27.956   1.748
74792W        W36246   0.315  41.961   2.814
74793W        W36247  35.601  19.640   1.266
74794W        W36248  44.505   1.828  11.596
74795W        W36249   7.392  29.007  12.514
74796W        W36250  25.025  27.023   1.916
74797W        W36251  34.920   4.821   2.267
74798W        W36252  43.374   9.325   4.719
74799W        W36253  17.144  11.208   0.468
74800W        W36254  24.205  25.001   2.366
74801W        W36255  36.874  43.880  10.567
74802W        W36256  12.816  40.467  12.441
74803W        W36257  11.179   8.340   3.725
74804W        W36258  19.743  16.193  13.409
74805W        W36259  11.132  20.049   0.747
74806W        W36260  30.102  19.772  12.997
74807W        W36261   6.316  27.988  13.041
74808W        W36262  23.706  32.461  13.897
74809W        W36263  10.259   5.326  14.909
74810W        W36264  39.422  18.691   1.227
74811W        W36265  43.281  42.440  11.915
74812W        W36266  33.502  17.181  10.563
74813W        W36267  11.713   6.275  12.095
74814W        W36268  21.757  15.149   0.784
74815W        W36269  18.592  35.476  13.797
74816W        W36270  44.892  35.019   0.785
74817W        W36271  19.557  29.483   4.838
74818W        W36272  34.874  20.620  12.000
74819W        W36273   9.658   5.397  11.905
74820W        W36274  43.002  24.007   1.897
74821W        W36275  12.320   1.823  12.086
74822W        W36276  22.579  31.912   2.709
74823W        W36277   6.875  20.649   2.827
74824W        W36278  12.831   9.239   3.737
74825W        W36279  24.049   1.244  14.920
74826W        W36280  17.262  20.719  11.390
74827W        W36281  31.055  34.595   2.212
74828W        W36282  17.644  12.612   3.238
74829W        W36283  19.747  24.014   3.719
74830W        W36284  14.299  15.814   0.772
74831W        W36285  35.919  36.446   3.271
74832W        W36286  44.317  30.623   4.677
74833W        W36287  23.079  20.154  12.578
74834W        W36288  17.646  38.374   4.696
74835W        W36289   2.802  30.054   2.691
74836W        W36290  29.950  20.728   0.367
74837W        W36291  40.023  17.186   2.774
74838W        W36292  42.933   9.863   2.195
74839W        W36293  29.601   3.228  10.968
74840W        W36294   8.668   3.365   4.261
74841W        W36295   5.782   3.443   3.729
74842W        W36296   3.932  34.421  13.355
74843W        W36297  43.815  19.639  10.601
74844W        W36298  23.564  26.147  14.903
74845W        W36299  12.654   7.675   1.855
74846W        W36300  22.065   7.239   3.229
74847W        W36301  31.049   2.726  13.413
74848W        W36302  44.838  29.572  13.468
74849W        W36303   6.199   0.809   1.389
74850W        W36304  18.765  42.470   4.784
74851W        W36305   1.273  42.285  11.417
74852W        W36306  32.027   5.861   1.746
74853W        W36307   7.744  22.519   0.289
74854W        W36308  35.599  13.320   4.192
74855W        W36309  10.656   4.922   4.722
74856W        W36310   9.160  44.923  10.947
74857W        W36311  35.056   8.206  14.023
74858W        W36312  24.673  10.301  12.504
74859W        W36313   4.724  32.510  10.627
74860W        W36314  27.071  12.644  11.431
74861W        W36315   9.339  34.390  11.375
74862W        W36316  31.992  39.876   3.706
74863W        W36317  19.215  44.775   2.757
74864W        W36318  42.451  10.850  11.561
74865W        W36319   7.417  14.178   2.815
74866W        W36320  19.053   5.741  13.038
74867W        W36321   7.834   3.427  10.490
74868W        W36322   8.856  13.268   0.786
74869W        W36323   8.891   9.264  12.987
74870W        W36324  44.928  14.810   4.664
74871W        W36325  15.157  36.587  13.477
74872W        W36326   6.873  40.529  11.442
74873W        W36327  24.201  33.502   2.303
74874W        W36328  19.120  17.127   4.805
74875W        W36329   5.908  18.717   2.400
74876W        W36330  31.511  39.914  12.447
74877W        W36331  35.512   0.471   2.836
74878W        W36332   0.354   6.733   2.314
74879W        W36333  24.519  16.619  14.282
74880W        W36334  35.424  14.095   4.215
74881W        W36335   8.188  24.103   3.297
74882W        W36336  26.001  43.830   0.960
74883W        W36337   7.280  13.837  10.449
74884W        W36338  24.609   1.462  13.869
74885W        W36339  35.360  17.652   2.674
74886W        W36340  36.974  19.155  13.514
74887W        W36341   0.444  31.896   4.742
74888W        W36342  11.836  26.595   5.184
74889W        W36343  17.731   7.337   3.635
74890W        W36344  44.936  29.507   4.272
74891W        W36345  42.776  21.628  12.908
74892W        W36346   5.715  43.840   4.653
74893W        W36347  44.909  44.833  12.356
74894W        W36348   8.896  33.583   2.799
74895W        W36349  21.217  21.597  14.808
74896W        W36350  26.995  34.991  11.960
74897W        W36351  26.068  15.698  14.367
74898W        W36352  38.835  27.023   1.266
74899W        W36353  11.252  25.996  11.462
74900W        W36354   2.229  34.072  14.773
74901W        W36355  12.643  23.595  14.279
74902W        W36356  17.067  42.476   3.232
74903W        W36357  34.987  33.610   2.388
74904W        W36358  27.469   1.443  13.824
74905W        W36359  14.772  40.872  12.051
74906W        W36360  21.745  44.448  14.768
74907W        W36361   9.701  10.146  13.499
74908W        W36362  42.867  26.197  13.908
74909W        W36363  30.016   4.222  10.603
74910W        W36364   7.251  29.552   3.196
74911W        W36365  33.547  19.536   4.261
74912W        W36366  42.944  20.728  14.313
74913W        W36367  36.927  31.017  10.983
74914W        W36368  42.779  30.136   4.742
74915W        W36369  41.906  15.205   3.211
74916W        W36370  25.523  31.897  14.994
74917W        W36371   0.255  10.316   4.172
74918W        W36372  13.213  28.645   1.783
74919W        W36373  15.320  16.682   1.843
74920W        W36374   9.249  21.209   2.892
74921W        W36375  24.568  38.037  13.509
74922W        W36376  20.111  14.695  13.348
74923W        W36377   4.416  23.682  13.819
74924W        W36378  15.139  42.809   3.276
74925W        W36379  32.106  39.445   1.337
74926W        W36380   1.808  32.125  13.809
74927W        W36381  31.468  30.487  11.571
74928W        W36382  23.112   2.830  10.599
74929W        W36383  28.460  23.013   1.358
74930W        W36384  15.665  19.591   3.162
74931W        W36385  16.130  39.374   2.193
74932W        W36386  38.522  24.110   0.902
74933W        W36387  39.351   1.773   0.754
74934W        W36388  18.079   9.692  11.033
74935W        W36389  10.692  29.662   2.663
74936W        W36390  44.966   0.806  13.009
74937W        W36391  16.682  21.117   4.621
74938W        W36392  40.518   2.266   1.837
74939W        W36393  27.996   6.834   0.777
74940W        W36394  14.724  44.970  11.479
74941W        W36395  43.004  26.681   2.406
74942W        W36396   6.917   4.837  11.085
74943W        W36397   8.849  15.630  14.492
74944W        W36398  24.995  44.943  12.992
74945W        W36399  23.550  10.149   1.266
74946W        W36400  24.073  26.697   1.412
74947W        W36401  41.877  13.214  12.480
74948W        W36402  39.040  42.883  12.420
74949W        W36403   8.194  20.111  13.496
74950W        W36404  37.434  41.476  11.392
74951W        W36405  31.128  39.881  10.419
74952W        W36406  44.298   0.284  11.590
74953W        W36407  17.211  29.037  11.403
74954W        W36408  13.694   3.340  13.358
74955W        W36409   8.272  40.866   2.734
74956W        W36410   5.746   1.960   4.342
74957W        W36411   9.703  35.584   3.386
74958W        W36412   0.899  44.377  13.818
74959W        W36413  10.635  26.096  12.449
74960W        W36414   3.380   4.857   4.823
74961W        W36415  31.941  32.394   2.379
74962W        W36416  26.120   2.391  11.961
74963W        W36417  31.084  31.941  12.530
74964W        W36418  23.575  21.601  13.475
74965W        W36419  21.700  32.594   0.399
74966W        W36420  32.026  19.707  10.435
74967W        W36421  35.916  31.957   3.300
74968W        W36422  27.678  35.514  13.443
74969W        W36423  31.432  37.945  10.538
74970W        W36424  25.565  25.652   2.299
74971W        W36425  44.854  35.564   1.437
74972W        W36426  40.325  35.067   3.302
74973W        W36427  27.450  33.975   2.879
74974W        W36428  11.812  25.468   9.986
74975W        W36429   5.414  10.850  14.873
74976W        W36430  17.702   2.431  14.283
74977W        W36431  32.060  16.268   2.742
74978W        W36432  36.500  23.624  12.376
74979W        W36433  39.440  28.530   1.414
74980W        W36434  10.298  18.135  11.114
74981W        W36435  40.311  14.116   3.698
74982W        W36436   7.226  24.003  14.021
74983W        W36437   8.759  36.416   0.867
74984W        W36438  26.981  24.197  11.925
74985W        W36439  42.996  40.854   2.289
74986W        W36440   3.935  26.519   3.656
74987W        W36441   8.660  33.942  10.908
74988W        W36442  12.267  43.815   4.658
74989W        W36443   3.842  18.158  10.422
74990W        W36444  26.111  40.857  12.084
74991W        W36445  16.747  26.008  11.918
74992W        W36446  10.370  11.294   3.375
74993W        W36447  31.966  21.221   0.354
74994W        W36448  33.072  11.324  13.458
74995W        W36449  10.251   8.701   4.807
74996W        W36450   7.343   4.414  12.437
74997W        W36451  21.727  11.680   5.307
74998W        W36452  38.836   6.857  10.497
74999W        W36453  15.250  43.439  13.895
75000W        W36454  41.462  23.561   3.737
75001W        W36455   3.834  41.896   4.732
75002W        W36456  15.706  21.613  12.399
75003W        W36457  10.237  22.624   5.125
75004W        W36458  42.414  29.625  10.414
75005W        W36459  30.162  27.571  11.949
75006W        W36460  14.825  42.800  14.872
75007W        W36461  16.158  37.376  12.945
75008W        W36462  42.452  43.003  11.076
75009W        W36463  26.983  23.067   2.795
75010W        W36464  18.777  38.005  12.869
75011W        W36465   0.491  20.148  12.944
75012W        W36466   1.393  39.038  13.381
75013W        W36467  23.622   2.372  14.804
75014W        W36468  17.687  17.165   0.328
75015W        W36469  38.002  28.660  10.456
75016W        W36470  39.338   2.384   0.919
75017W        W36471   9.781   2.287  14.996
75018W        W36472  20.065  18.626   3.338
75019W        W36473   9.708   6.890   1.447
75020W        W36474  31.897  40.459   3.845
75021W        W36475   0.285   4.437  11.565
75022W        W36476  37.501  12.168   1.857
75023W        W36477  31.045   1.770  10.982
75024W        W36478  27.679  12.792   0.863
75025W        W36479  26.604   0.401   5.311
75026W        W36480  36.031  44.988   1.427
75027W        W36481   2.851  38.532   3.201
75028W        W36482  40.879  27.587   4.709
75029W        W36483  32.409  10.645  11.935
75030W        W36484  26.691  13.199  10.521
75031W        W36485  14.642  24.578   1.865
75032W        W36486  18.748  42.779  10.487
75033W        W36487   1.259  32.899   4.254
75034W        W36488  42.811  38.016   0.385
75035W        W36489   4.332   1.356  11.084
75036W        W36490  32.093  26.034   2.304
75037W        W36491  16.318  22.610  12.893
75038W        W36492   4.332  40.028  13.963
75039W        W36493  34.869  32.934  13.364
75040W        W36494  37.364   0.251  13.456
75041W        W36495  14.248  40.394   0.285
75042W        W36496  30.038  22.734   0.470
75043W        W36497  17.636  36.009  10.497
75044W        W36498  24.686  19.734   3.737
75045W        W36499  16.738  33.422   4.738
75046W        W36500  23.229  13.316  13.036
75047W        W36501  23.220   1.474   1.715
75048W        W36502  12.175  26.529   2.716
75049W        W36503  33.518  10.748   5.095
75050W        W36504   5.324  10.340  11.456
75051W        W36505   8.799  41.933   3.271
75052W        W36506  16.779  21.607   2.371
75053W        W36507   4.357  14.706  12.858
75054W        W36508  34.436  24.123   2.384
75055W        W36509   2.913  12.341   0.346
75056W        W36510  16.788  27.029  13.876
75057W        W36511  37.934  25.585   1.914
75058W        W36512  19.663  32.404  12.483
75059W        W36513   7.745   7.839   1.226
75060W        W36514  13.133  42.786  12.070
75061W        W36515  21.682  19.271   3.200
75062W        W36516  24.068  12.163  13.849
75063W        W36517  29.949  33.977   2.392
75064W        W36518  28.663  26.580  13.378
75065W        W36519   7.830  28.054  12.921
75066W        W36520  39.039   0.945  12.446
75067W        W36521  23.637   5.869   1.324
75068W        W36522  37.464  44.780  14.023
75069W        W36523  24.487  29.038   3.249
75070W        W36524  37.024  13.665   2.323
75071W        W36525  36.883   0.464   0.344
75072W        W36526  15.767  18.245   1.432
75073W        W36527  18.294   7.804  13.508
75074W        W36528  28.936  44.956   3.159
75075W        W36529   0.360  37.067   3.362
75076W        W36530  13.149  10.313   4.335
75077W        W36531  26.205   8.700  13.867
75078W        W36532   7.393  40.308  14.377
75079W        W36533  42.828  28.149  10.461
75080W        W36534  22.608  27.003   1.710
75081W        W36535  27.063   1.405   2.180
75082W        W36536  22.029  41.939   4.125
75083W        W36537  14.270  21.748  12.483
75084W        W36538   4.308  37.042   1.228
75085W        W36539  16.779  31.907   2.235
75086W        W36540  12.741  37.030   0.798
75087W        W36541   9.794   8.826  12.989
75088W        W36542  27.671   2.387  12.054
75089W        W36543  19.183  23.061   1.766
75090W        W36544  34.020  39.879   1.766
75091W        W36545  16.567  12.611  12.013
75092W        W36546  37.567   1.367  11.548
75093W        W36547   6.218  26.660  11.484
75094W        W36548  39.320  28.178   2.191
75095W        W36549  29.448  37.435  10.039
75096W        W36550   9.792  14.264   4.216
75097W        W36551  30.931  33.602  14.834
75098W        W36552  24.093  33.046  14.825
75099W        W36553   6.214   9.764  11.076
75100W        W36554  15.300  28.610  14.013
75101W        W36555  11.770  10.812   1.853
75102W        W36556  30.523  12.656  10.564
75103W        W36557  26.975  29.097   0.387
75104W        W36558  30.445  42.393  13.002
75105W        W36559  19.174  41.291  14.780
75106W        W36560  41.857  26.457   1.757
75107W        W36561   3.285   8.275  11.409
75108W        W36562  25.144  20.678   1.814
75109W        W36563  18.645  38.881   2.836
75110W        W36564  21.540  33.989   1.299
75111W        W36565  27.025  31.584   2.902
75112W        W36566  35.030  34.442   4.765
75113W        W36567  26.119  23.032  12.490
75114W        W36568  16.217   8.874  11.548
75115W        W36569  35.523  29.962   3.146
75116W        W36570  12.340  28.128   4.695
75117W        W36571  17.680  14.244  10.482
75118W        W36572  19.627  12.641   2.370
75119W        W36573  32.466   1.239   3.210
75120W        W36574  33.572  32.437   3.300
75121W        W36575   0.873  22.734   0.462
75122W        W36576  28.449  15.822   4.200
75123W        W36577  33.433   8.882  12.001
75124W        W36578  17.726  17.177  12.092
75125W        W36579  18.704   5.268   0.388
75126W        W36580  29.160  27.691  13.982
75127W        W36581  19.249  23.032   1.229
75128W        W36582   0.265  25.047   2.288
75129W        W36583  20.585  16.166  11.529
75130W        W36584  22.031  12.693   0.939
75131W        W36585  37.885  27.477   0.453
75132W        W36586  15.246  21.678   3.847
75133W        W36587  34.097  37.433  10.441
75134W        W36588  25.160   7.675  11.507
75135W        W36589  22.022   4.419  11.508
75136W        W36590  40.035  16.593  13.847
75137W        W36591  14.192   3.430   4.690
75138W        W36592  26.473  40.037   3.680
75139W        W36593   1.322  22.609  11.121
75140W        W36594  20.109  24.018  13.877
75141W        W36595   7.415   9.791  12.899
75142W        W36596  18.692  19.564   2.275
75143W        W36597  44.284  41.532   0.461
75144W        W36598  18.118  29.993   2.715
75145W        W36599  23.556  29.590   2.844
75146W        W36600  25.566  27.110  12.427
75147W        W36601  29.657   2.808   4.670
75148W        W36602   0.281  20.730  11.417
75149W        W36603  21.659  44.768  13.963
75150W        W36604  19.659  26.689   3.257
75151W        W36605  22.675  21.159  12.094
75152W        W36606  12.835  11.167   1.224
75153W        W36607  25.014  31.928  12.907
75154W        W36608   4.706   2.318   1.234
75155W        W36609  39.028  40.855   4.254
75156W        W36610  18.777  23.560  12.092
75157W        W36611  44.898  10.278   1.285
75158W        W36612  22.013  10.762  10.960
75159W        W36613   4.437  28.516  10.951
75160W        W36614   1.829  29.013  13.424
75161W        W36615  21.702   4.861  10.093
75162W        W36616  23.005  13.775   0.336
75163W        W36617  20.122   3.327   4.717
75164W        W36618   6.256  44.932  11.597
75165W        W36619  30.564  22.065  11.471
75166W        W36620   6.731   9.162  12.443
75167W        W36621  17.781   4.438  13.881
75168W        W36622  25.084  33.428   1.797
75169W        W36623   0.268  10.261  11.592
75170W        W36624  20.155  13.149   0.821
75171W        W36625  36.970  25.526  11.896
75172W        W36626   8.858  31.940  14.462
75173W        W36627   4.932   5.800   3.751
75174W        W36628   1.885  38.561  13.970
75175W        W36629  17.257  44.811   2.864
75176W        W36630   2.314  43.799   0.905
75177W        W36631  18.170   4.208  14.451
75178W        W36632  31.134   4.888   9.578
75179W        W36633  21.582  33.620   0.440
75180W        W36634  19.222  10.870  11.921
75181W        W36635  30.537  29.155   1.403
75182W        W36636  41.939  24.524  14.793
75183W        W36637  31.463  41.891  14.859
75184W        W36638  10.694  22.232  11.059
75185W        W36639  24.002  16.601  13.998
75186W        W36640  12.251   8.385  10.927
75187W        W36641   3.302  20.149   3.150
75188W        W36642  21.534  18.155   1.289
75189W        W36643  10.848  14.242  13.390
75190W        W36644  37.885  20.577   1.220
75191W        W36645  30.421  16.611  14.398
75192W        W36646   0.406   4.750   3.177
75193W        W36647  24.216  13.801   2.885
75194W        W36648  22.573  26.953  11.005
75195W        W36649   7.216  17.267  14.763
75196W        W36650  28.614   4.287   0.259
75197W        W36651  20.675  27.609   2.227
75198W        W36652  44.872  34.422  12.368
75199W        W36653  25.487  11.663  11.575
75200W        W36654   1.280  13.790  11.046
75201W        W36655  28.504  39.025  11.084
75202W        W36656  23.137  10.329  12.028
75203W        W36657  25.526   8.782   4.777
75204W        W36658  36.500  28.552   1.365
75205W        W36659  17.788  25.109  10.486
75206W        W36660  23.660  35.523   2.705
75207W        W36661  19.247   8.238   2.725
75208W        W36662  22.177  41.497   0.419
75209W        W36663  27.652  17.774  12.962
75210W        W36664  40.920  12.194   0.268
75211W        W36665   0.803  38.528  12.858
75212W        W36666  33.921  30.618   0.451
75213W        W36667  13.274  28.514  12.059
75214W        W36668  44.956  34.095  11.399
75215W        W36669   1.467  40.331   3.777
75216W        W36670  33.611  10.190  13.396
75217W        W36671  10.155   7.886  11.481
75218W        W36672  34.062  28.658  10.988
75219W        W36673  13.212  41.937  13.007
75220W        W36674  40.878   9.292   1.736
75221W        W36675   6.698  39.916   2.283
75222W        W36676  21.638  44.280  10.128
75223W        W36677  18.658   4.419   3.365
75224W        W36678  43.887   6.272   1.443
75225W        W36679  26.584  13.346  13.845
75226W        W36680  32.098  35.094   3.186
75227W        W36681  10.796   8.741  11.108
75228W        W36682   2.464  13.841  10.413
75229W        W36683  15.260  26.093   3.293
75230W        W36684   4.720   0.249   2.848
75231W        W36685   9.220  43.495   2.265
75232W        W36686   6.196  13.145  14.826
75233W        W36687  11.302  28.970  14.396
75234W        W36688  23.105  10.175   4.734
75235W        W36689  12.673  22.066  11.591
75236W        W36690  13.286   1.376  12.552
75237W        W36691  44.948  39.516   3.373
75238W        W36692  21.564  41.789  14.968
75239W        W36693  34.058  38.861   2.745
75240W        W36694  18.283  11.654  10.488
75241W        W36695  17.278  24.694   1.383
75242W        W36696   2.961   5.760  11.585
75243W        W36697  18.626  26.153  13.483
75244W        W36698  16.266   9.261  12.976
75245W        W36699   0.965  15.797  14.312
75246W        W36700   0.787  13.762  10.955
75247W        W36701  37.955  36.905   9.452
75248W        W36702  21.122  36.411  13.398
75249W        W36703  44.924  37.529   4.115
75250W        W36704  33.072  17.169   4.134
75251W        W36705   5.301  23.048   0.417
75252W        W36706  32.009   2.865   3.219
75253W        W36707   0.483  37.934   2.388
75254W        W36708   7.410   8.675   2.289
75255W        W36709   8.654  25.593  14.769
75256W        W36710  30.110  22.524  12.502
75257W        W36711  15.799  15.328  12.878
75258W        W36712  28.978  41.830   0.322
75259W        W36713  44.291  23.008  14.317
75260W        W36714  36.918   6.276  11.471
75261W        W36715  15.791  40.320   2.826
75262W        W36716  40.521  27.169   1.283
75263W        W36717  39.036  29.458  13.326
75264W        W36718  14.101  25.591  12.485
75265W        W36719  35.046  36.013  12.371
75266W        W36720  24.069  30.122   0.866
75267W        W36721  43.837  34.392   2.308
75268W        W36722   9.785  33.976  10.081
75269W        W36723  42.315  24.161  12.096
75270W        W36724  43.270  28.670   0.814
75271W        W36725  32.527  22.187   2.850
75272W        W36726  22.696  26.184  10.979
75273W        W36727  38.434   3.395  12.836
75274W        W36728  21.627  20.145   1.829
75275W        W36729  40.337   7.837  14.290
75276W        W36730  35.066  31.099   4.771
75277W        W36731  41.949   6.784  12.939
75278W        W36732  30.415  20.703   2.897
75279W        W36733  11.794  42.368  13.437
75280W        W36734   6.255  11.775   5.081
75281W        W36735  32.953  41.040   4.323
75282W        W36736   2.721  34.005  14.406
75283W        W36737  20.193  41.828   4.113
75284W        W36738  41.884  23.168  12.978
75285W        W36739  44.290  42.326   1.845
75286W        W36740  41.520  18.671   2.772
75287W        W36741  16.568   3.316   5.202
75288W        W36742  22.517   8.247   1.819
75289W        W36743   7.346  34.577  12.001
75290W        W36744  38.555  17.623  14.786
75291W        W36745  18.767  21.044   1.803
75292W        W36746   1.331  40.315  12.988
75293W        W36747  10.687  29.554  13.894
75294W        W36748  25.021   9.154  13.988
75295W        W36749  29.463  17.082  10.604
75296W        W36750  22.664   8.248   3.755
75297W        W36751  20.595  18.735  12.075
75298W        W36752   7.677  35.015  12.939
75299W        W36753  18.204  20.145  11.089
75300W        W36754  18.274   0.859   0.416
75301W        W36755  28.144  35.484  10.095
75302W        W36756  12.145  41.396   4.276
75303W        W36757  33.545  28.592   3.315
75304W        W36758  34.561  36.510   1.231
75305W        W36759  33.566   8.228   4.275
75306W        W36760  22.692  21.260  12.484
75307W        W36761  33.981  18.210   0.410
75308W        W36762   9.161  19.151  12.417
75309W        W36763   5.826  39.954  11.485
75310W        W36764  32.583  33.394   0.808
75311W        W36765   5.195  34.102   4.662
75312W        W36766  31.953  34.394  12.393
75313W        W36767  21.598  14.714   1.785
75314W        W36768   9.338  18.223   9.957
75315W        W36769  34.404  19.631   4.119
75316W        W36770  16.196   8.382   2.406
75317W        W36771  14.116  14.801  11.870
75318W        W36772   7.877  41.528  11.893
75319W        W36773   1.743  33.915  11.493
75320W        W36774  27.493   7.861  12.080
75321W        W36775   8.785  12.258   4.734
75322W        W36776  37.410  12.841   4.776
75323W        W36777  23.994  30.103   3.147
75324W        W36778   6.740  25.673  11.543
75325W        W36779  43.372  31.593   2.789
75326W        W36780  22.018  12.635   2.669
75327W        W36781  12.332   4.787   2.835
75328W        W36782   4.860  19.550  10.410
75329W        W36783  37.533   6.320   1.255
75330W        W36784  43.385   5.306  11.463
75331W        W36785   1.952  17.724   1.911
75332W        W36786  23.139  32.590   0.949
75333W        W36787  15.743  32.084   3.719
75334W        W36788   4.704  29.080  13.536
75335W        W36789  26.115  34.435  10.577
75336W        W36790  25.508  21.650  11.053
75337W        W36791   4.381  21.716   3.764
75338W        W36792  15.664  23.664  10.102
75339W        W36793  29.143  34.969   0.771
75340W        W36794  13.758  41.367   5.133
75341W        W36795  15.317  11.739   2.697
75342W        W36796   8.788  35.086   4.751
75343W        W36797  13.150  38.468  10.636
75344W        W36798   5.413  23.736   0.862
75345W        W36799  36.393  17.721   4.147
75346W        W36800  11.766  21.536   5.741
75347W        W36801  36.930  35.458  13.476
75348W        W36802  32.546  42.895  11.068
75349W        W36803   4.820  43.870   2.672
75350W        W36804   5.884  30.989  12.452
75351W        W36805  36.060   5.227   4.834
75352W        W36806  32.128  31.557   3.377
75353W        W36807   5.715  32.115   2.383
75354W        W36808   3.932  28.605  12.494
75355W        W36809  24.009  41.813  10.426
75356W        W36810  10.858  18.155   5.591
75357W        W36811   6.815   7.312   0.377
75358W        W36812  18.293  41.441   2.732
75359W        W36813  19.197  10.337   0.326
75360W        W36814  40.862  37.433   4.203
75361W        W36815   6.699  23.556  13.318
75362W        W36816  31.976  23.161  14.870
75363W        W36817   1.402  20.585  14.477
75364W        W36818  40.363  44.807  11.934
75365W        W36819   6.328  19.706  14.319
75366W        W36820   8.656  41.035  10.971
75367W        W36821  22.557   5.227   2.331
75368W        W36822   3.259  18.642   4.610
75369W        W36823  35.398  27.045  14.803
75370W        W36824  19.058  44.889  14.419
75371W        W36825  35.969  19.775  11.593
75372W        W36826  27.020  44.897   4.281
75373W        W36827  18.738  18.183  11.435
75374W        W36828  25.583  32.556  12.353
75375W        W36829  38.424  22.204   4.727
75376W        W36830  12.336  38.892  14.483
75377W        W36831   7.236  44.385  10.622
75378W        W36832  36.083  42.977   3.358
75379W        W36833  33.002  20.132   0.374
75380W        W36834  28.960  25.484  14.297
75381W        W36835   9.258  12.706   1.882
75382W        W36836   2.853  41.860   1.857
75383W        W36837  11.153   7.834  13.830
75384W        W36838  44.957  38.571  11.544
75385W        W36839  43.383  36.586   4.333
75386W        W36840  21.725  42.011  12.016
75387W        W36841   2.324  19.271   1.713
75388W        W36842  12.792  13.211  12.491
75389W        W36843   2.957  39.408   1.853
75390W        W36844  22.071   6.847  11.558
75391W        W36845  37.403  25.165  10.977
75392W        W36846  28.507  17.714  14.790
75393W        W36847  23.203  40.341  11.010
75394W        W36848  32.463  16.283  12.069
75395W        W36849  42.372  15.793  10.566
75396W        W36850  30.981  36.041  14.764
75397W        W36851  25.637  36.982  11.416
75398W        W36852  44.417   9.340   3.835
75399W        W36853  33.606  23.615  12.339
75400W        W36854  26.534  42.411   4.637
75401W        W36855  14.201  20.755  10.984
75402W        W36856  28.079   0.966  11.444
75403W        W36857  37.875   3.836   2.324
75404W        W36858   5.385  30.625   0.253
75405W        W36859  31.445  12.839   2.292
75406W        W36860  23.131  36.415  12.453
75407W        W36861  20.153  25.651   1.364
75408W        W36862  19.050   3.350   1.314
75409W        W36863  16.726  22.540  12.011
75410W        W36864  40.948  36.890   1.929
75411W        W36865  14.332   9.173   2.829
75412W        W36866  14.280  30.932   2.831
75413W        W36867  37.406  12.729   1.814
75414W        W36868  26.575  28.476  10.894
75415W        W36869  23.515  44.273   4.140
75416W        W36870  43.982  35.434  14.356
75417W        W36871  12.829  21.666   4.300
75418W        W36872  27.563  20.034  13.470
75419W        W36873   2.943  37.380   0.412
75420W        W36874  15.186   5.319   0.321
75421W        W36875  15.717  37.459  14.856
75422W        W36876  35.556  28.506   4.774
75423W        W36877  14.814  37.373   2.697
75424W        W36878  14.251   8.168  14.443
75425W        W36879  12.814   0.393   2.207
75426W        W36880  29.433   9.155  14.974
75427W        W36881  25.072  36.988   3.288
75428W        W36882  19.171   8.365  10.478
75429W        W36883  30.049  10.341   5.271
75430W        W36884   6.424   2.291  12.924
75431W        W36885   5.224  34.555   0.853
75432W        W36886  40.424  12.820  14.004
75433W        W36887  28.974  15.216  11.425
75434W        W36888  25.058  39.410   2.362
75435W        W36889   9.196  42.288   3.297
75436W        W36890  22.531  28.647   0.384
75437W        W36891  18.733  18.610  13.854
75438W        W36892  31.542   1.846  13.451
75439W        W36893  38.931   2.787  14.820
75440W        W36894  17.622  25.175   0.760
75441W        W36895  32.596  29.121  14.386
75442W        W36896   2.391  24.621   2.269
75443W        W36897   5.226  12.180   3.818
75444W        W36898  13.663  19.049  14.375
75445W        W36899  41.376   0.289  12.082
75446W        W36900  44.275  11.211   2.698
75447W        W36901  44.421  38.553   0.303
75448W        W36902  29.147  17.142   2.692
75449W        W36903  40.927  13.150   0.779
75450W        W36904   5.379  19.744   3.213
75451W        W36905  34.553  32.508  10.479
75452W        W36906  26.474  18.585   2.736
75453W        W36907   5.802  23.510   3.148
75454W        W36908  42.298   4.780   4.176
75455W        W36909  32.011   3.841  13.984
75456W        W36910   1.322  11.139   3.769
75457W        W36911   0.424  28.461  14.017
75458W        W36912  36.519  23.730   2.672
75459W        W36913  23.135  25.072  11.948
75460W        W36914  10.186  42.821  12.354
75461W        W36915  24.980   4.834  13.897
75462W        W36916  34.604  31.566   2.874
75463W        W36917  21.587  16.254   3.301
75464W        W36918  30.909  12.262   1.798
75465W        W36919   2.284  16.092  10.504
75466W        W36920   7.906  23.678  10.128
75467W        W36921   7.409  36.880   2.221
75468W        W36922  28.495   0.862  10.067
75469W        W36923   5.342   5.831  12.089
75470W        W36924  21.655  40.406  14.392
75471W        W36925   9.755  13.722  10.605
75472W        W36926  12.673  38.856  11.556
75473W        W36927   7.321  34.918  10.412
75474W        W36928   7.396  33.458  11.513
75475W        W36929  30.536   2.288   1.761
75476W        W36930  21.185  34.114  11.037
75477W        W36931  29.436  43.487   0.828
75478W        W36932  15.318  38.507  10.160
75479W        W36933  36.983   6.820  10.487
75480W        W36934  37.907   9.328  14.351
75481W        W36935  20.111  17.177  13.438
75482W        W36936  29.942  34.437   0.421
75483W        W36937   6.272  20.643   3.655
75484W        W36938   9.770   9.689   0.465
75485W        W36939  28.023   3.242   1.761
75486W        W36940  33.426  19.672  11.040
75487W        W36941   0.360  39.475  12.095
75488W        W36942  17.230  23.237   0.728
75489W        W36943   0.365  19.250  12.978
75490W        W36944  17.603  11.759  11.982
75491W        W36945  17.237  42.002  13.386
75492W        W36946   0.957   4.895   4.794
75493W        W36947  28.621  37.992  14.510
75494W        W36948  10.853  10.723  14.374
75495W        W36949  27.091  37.934   0.836
75496W        W36950  21.144  13.201   5.275
75497W        W36951  24.676  43.882   2.406
75498W        W36952  27.138  32.587   2.870
75499W        W36953  29.447   1.328   0.313
75500W        W36954  36.903   6.686  14.276
75501W        W36955   2.394  10.642  10.578
75502W        W36956  10.812   5.301   1.780
75503W        W36957  25.486   4.743  12.404
75504W        W36958  29.149  26.128   5.261
75505W        W36959  28.484  43.843  10.893
75506W        W36960   2.328  18.750   3.212
75507W        W36961  16.311  40.953   1.927
75508W        W36962  26.540  29.058  13.043
75509W        W36963   5.413   0.410  11.451
75510W        W36964  34.927   7.411  10.409
75511W        W36965  20.698   5.384  10.596
75512W        W36966  12.616  32.584   1.745
75513W        W36967   2.276   1.941   1.410
75514W        W36968  12.818  11.283   3.848
75515W        W36969  27.103  23.658   1.371
75516W        W36970  23.524   8.679   3.158
75517W        W36971  44.455  25.029   0.269
75518W        W36972  39.900   3.442   4.777
75519W        W36973  42.306  29.082   4.317
75520W        W36974   1.392   6.415   0.833
75521W        W36975  26.122  37.860   0.772
75522W        W36976  22.145  20.674   4.304
75523W        W36977  10.648  38.839  10.119
75524W        W36978  38.949  28.484  11.043
75525W        W36979  17.174   8.235  14.031
75526W        W36980  39.920  26.070  12.524
75527W        W36981   6.201  40.360  12.922
75528W        W36982  31.402  20.122  14.909
75529W        W36983   2.861   4.204  10.527
75530W        W36984  27.543  10.329   3.306
75531W        W36985  24.019  23.095  10.521
75532W        W36986  22.638  27.064   1.310
75533W        W36987  15.109   3.277  13.903
75534W        W36988  37.951  10.736  13.391
75535W        W36989  26.190  23.161   2.332
75536W        W36990  21.570  33.987  12.892
75537W        W36991   8.717  42.971   2.408
75538W        W36992  12.232  13.799  12.433
75539W        W36993  31.499  44.942   1.438
75540W        W36994   5.808   6.851  12.897
75541W        W36995  25.130   0.265  14.955
75542W        W36996  41.955  41.994   0.947
75543W        W36997  25.677  21.130  10.479
75544W        W36998  35.401  41.487  14.504
75545W        W36999  26.076  37.945  10.462
75546W        W37000  36.517  24.139  13.898
75547W        W37001   0.476  20.595  14.849
75548W        W37002   6.687  18.591  13.905
75549W        W37003   7.782   7.902   4.740
75550W        W37004  24.993   5.291  10.450
75551W        W37005  31.128  30.164  11.423
75552W        W37006  12.813  26.039   4.623
75553W        W37007  30.983  10.356   5.203
75554W        W37008   8.844  24.529  10.576
75555W        W37009  14.140  25.990  13.030
75556W        W37010   6.843  11.750  11.886
75557W        W37011  20.095  44.954   4.201
75558W        W37012  43.402  19.668   1.818
75559W        W37013  25.980  18.775  13.461
75560W        W37014  16.183  13.765  13.799
75561W        W37015  21.535  15.314  11.116
75562W        W37016  22.052  40.860  12.916
75563W        W37017   9.381   8.657  14.516
75564W        W37018  35.370   2.829   0.446
75565W        W37019   0.923  40.954  13.932
75566W        W37020   2.959  35.884  11.889
75567W        W37021  21.229  35.914  11.910
75568W        W37022   3.283   0.481  10.974
75569W        W37023  25.605  44.309  12.378
75570W        W37024   4.369  43.870  12.471
75571W        W37025  16.296  28.628   0.367
75572W        W37026  18.576  44.324   0.342
75573W        W37027   2.351  30.114   3.204
75574W        W37028  35.874  21.066  13.986
75575W        W37029   0.340  23.147  13.020
75576W        W37030   3.420  15.731  11.423
75577W        W37031  23.566  36.031  14.911
75578W        W37032   2.328  31.051  11.921
75579W        W37033  26.516   3.394   1.927
75580W        W37034  15.590  13.198  10.032
75581W        W37035  23.733   3.387   1.901
75582W        W37036  24.583   7.897  13.404
75583W        W37037  23.621  27.943   3.846
75584W        W37038  34.504  24.507  12.919
75585W        W37039  35.428  37.842   4.153
75586W        W37040  14.751   2.946  10.430
75587W        W37041  19.604  31.512   1.289
75588W        W37042  29.496  22.163   2.747
75589W        W37043  31.511   1.434  10.586
75590W        W37044  15.267  34.445  11.985
75591W        W37045  44.297  17.264  11.418
75592W        W37046  13.667  34.426  11.548
75593W        W37047  16.609  40.816   9.595
75594W        W37048  24.614  19.099  10.439
75595W        W37049  23.073  29.556  12.050
75596W        W37050  27.531  27.619   4.301
75597W        W37051   4.343   6.271  11.117
75598W        W37052   6.256  16.181  14.501
75599W        W37053  12.723  18.061   0.452
75600W        W37054   7.847  34.537  12.869
75601W        W37055  42.951  33.577  12.369
75602W        W37056  37.400  10.358  14.006
75603W        W37057  22.231   7.398   1.381
75604W        W37058  42.509  24.157   3.789
75605W        W37059   3.416  37.506   3.357
75606W        W37060  34.406  24.716  13.526
75607W        W37061   8.291  19.662   3.374
75608W        W37062  39.030  26.525   0.379
75609W        W37063  12.843  22.569   1.448
75610W        W37064  30.918  38.352  12.844
75611W        W37065  37.051  36.085   1.274
75612W        W37066   2.469   3.883  11.078
75613W        W37067  38.523  27.989   0.323
75614W        W37068  19.602   6.769   4.263
75615W        W37069  40.542   8.816   0.859
75616W        W37070  37.966  36.924  14.821
75617W        W37071  33.005  11.146  14.852
75618W        W37072  23.635   7.186   1.809
75619W        W37073  39.419   1.249   1.876
75620W        W37074  30.113   1.871  10.035
75621W        W37075  17.587  22.658   2.876
75622W        W37076  15.241  16.263  12.886
75623W        W37077  24.056  10.266   0.255
75624W        W37078   6.192   4.282  13.961
75625W        W37079  29.656  22.102   4.218
75626W        W37080  42.430  18.109  11.020
75627W        W37081  18.153  34.932   0.257
75628W        W37082   8.770  17.717  10.578
75629W        W37083  27.543  16.781  12.959
75630W        W37084   2.298  21.559   4.338
75631W        W37085  19.135  29.100   2.397
75632W        W37086   2.284  31.627  14.313
75633W        W37087  21.694  44.870  10.976
75634W        W37088  42.475  41.847  14.496
75635W        W37089  38.369  36.972  11.017
75636W        W37090  27.021  10.762   4.304
75637W        W37091  41.960   5.826  13.508
75638W        W37092  37.996  21.234   4.213
75639W        W37093   0.427  14.229  14.017
75640W        W37094  37.580   6.265   4.118
75641W        W37095   2.966  44.438  10.639
75642W        W37096  30.594  42.470  13.919
75643W        W37097  10.711  41.419   2.766
75644W        W37098  38.875  13.655   2.717
75645W        W37099  43.903  35.018  12.379
75646W        W37100  40.032   6.903   0.330
75647W        W37101  25.709   4.928   0.808
75648W        W37102  10.747   4.874  10.078
75649W        W37103  39.403   7.732  10.596
75650W        W37104  17.584  21.151  13.015
75651W        W37105  39.864   7.249  14.509
75652W        W37106  19.718   9.343   3.870
75653W        W37107   5.314  32.034  14.991
75654W        W37108  39.440  34.076   2.724
75655W        W37109  40.352   1.866  11.927
75656W        W37110  30.601  33.391   4.787
75657W        W37111  35.874  25.101   4.600
75658W        W37112  36.032  11.246  13.435
75659W        W37113  30.556  22.600  14.455
75660W        W37114  27.642   5.259  11.995
75661W        W37115   1.466  38.859   1.846
75662W        W37116  24.514  35.578  14.935
75663W        W37117   6.206  35.586  14.986
75664W        W37118   7.189   4.345   3.371
75665W        W37119  17.169  15.609  11.071
75666W        W37120   0.879  42.934   2.847
75667W        W37121  25.530   0.451   3.193
75668W        W37122   9.294  17.698  10.995
75669W        W37123  16.179  19.706   4.764
75670W        W37124  25.203  41.969   3.325
75671W        W37125  15.601  28.481  14.956
75672W        W37126   0.263   9.170   2.237
75673W        W37127  19.213  34.098  12.502
75674W        W37128  10.305  16.632  11.928
75675W        W37129   0.259  39.950   0.333
75676W        W37130  14.177  14.768   4.150
75677W        W37131  18.589  36.957  13.368
75678W        W37132  44.782  24.586   0.743
75679W        W37133  26.967  34.468   3.367
75680W        W37134  36.374   1.845   2.886
75681W        W37135  34.412  17.556   3.368
75682W        W37136  15.734  34.422   4.321
75683W        W37137  15.302   4.825   4.270
75684W        W37138  40.303  31.582   1.701
75685W        W37139  31.505  31.616   4.612
75686W        W37140  38.035  35.476   2.895
75687W        W37141  20.677  22.057  11.442
75688W        W37142  40.872  25.106   1.442
75689W        W37143  38.004  16.710  13.034
75690W        W37144  30.927   7.825   4.244
75691W        W37145  39.016   8.326   0.954
75692W        W37146  30.126  25.053  13.396
75693W        W37147  31.055  25.200   0.358
75694W        W37148  30.128   1.327  14.896
75695W        W37149  17.089  28.546   3.309
75696W        W37150   3.713  26.495  14.832
75697W        W37151  31.094   5.203   0.863
75698W        W37152  16.177   6.819   0.247
75699W        W37153  13.765   5.879   0.862
75700W        W37154  38.015  18.257   1.343
75701W        W37155   5.361  32.026   4.231
75702W        W37156   5.359  12.667  10.963
75703W        W37157  14.596  31.926   4.665
75704W        W37158  18.276  38.054   4.770
75705W        W37159  16.712  43.925  13.488
75706W        W37160  23.014  17.572  12.448
75707W        W37161  43.314  33.489   4.201
75708W        W37162  25.127  24.562   2.273
75709W        W37163   0.864  33.024  11.440
75710W        W37164  43.893   7.702   1.911
75711W        W37165  40.501  41.976   4.820
75712W        W37166  35.872  15.678   4.634
75713W        W37167  41.416  43.353  13.819
75714W        W37168   6.281  37.018  14.465
75715W        W37169   4.769  32.977   3.794
75716W        W37170  15.669  22.016   3.376
75717W        W37171  33.498  42.425  14.929
75718W        W37172  37.556  27.559  12.475
75719W        W37173  30.470  12.654  13.417
75720W        W37174  30.126  41.990  11.030
75721W        W37175  11.789  28.166   3.786
75722W        W37176  15.103  23.991   4.605
75723W        W37177  36.084  28.055   3.869
75724W        W37178  23.599  10.707  10.597
75725W        W37179   3.772  23.037   0.737
75726W        W37180  44.277  37.085  12.976
75727W        W37181  14.645   0.787  14.454
75728W        W37182  10.674  40.863   1.315
75729W        W37183  42.403  28.595   0.353
75730W        W37184  12.348   4.750   0.410
75731W        W37185  29.978  41.973  13.505
75732W        W37186  38.433  42.013   3.794
75733W        W37187  14.717  13.608  11.572
75734W        W37188   5.901  37.468   4.194
75735W        W37189  23.168  24.136   0.861
75736W        W37190  24.717  19.137   4.699
75737W        W37191  26.693   0.784   2.783
75738W        W37192  32.572  29.473   3.160
75739W        W37193   6.736  36.074  11.571
75740W        W37194  11.235  40.437   1.210
75741W        W37195  23.722   7.401  11.012
75742W        W37196  37.582  25.011   3.379
75743W        W37197  34.462   2.341  14.430
75744W        W37198   1.273   7.891  10.518
75745W        W37199  34.050  44.357  11.479
75746W        W37200  22.120  42.956  12.930
75747W        W37201   8.221   4.724  13.022
75748W        W37202  33.061   5.805   1.777
75749W        W37203  13.336  36.549   2.702
75750W        W37204  14.123  21.216  11.403
75751W        W37205  22.545   1.360   4.295
75752W        W37206  10.344  22.042  13.326
75753W        W37207  26.578  15.600  14.300
75754W        W37208  16.111  19.647  13.947
75755W        W37209   8.293  34.556   1.352
75756W        W37210  24.072  43.318   4.178
75757W        W37211  31.147   4.811  10.621
75758W        W37212   8.736  31.897  12.974
75759W        W37213  20.644  11.249   2.215
75760W        W37214  39.496  41.950  12.886
75761W        W37215  24.141  32.631  14.960
75762W        W37216  21.755  30.479   4.140
75763W        W37217  27.546  35.542   5.271
75764W        W37218  26.079  20.048  14.422
75765W        W37219  13.782  23.156   1.376
75766W        W37220  28.529  30.062  11.953
75767W        W37221  23.202  21.622  13.025
75768W        W37222  27.523  12.752   4.656
75769W        W37223   2.750  33.025   4.117
75770W        W37224  18.761   2.777  11.529
75771W        W37225  19.165  34.054  11.482
75772W        W37226  23.063  14.103   4.203
75773W        W37227  26.665  13.349   1.405
75774W        W37228   8.791  40.046  14.402
75775W        W37229  41.343   4.753   2.842
75776W        W37230   0.829   2.388  12.076
75777W        W37231   7.904  36.855   0.333
75778W        W37232  20.575  38.989  12.920
75779W        W37233   6.417  32.991   3.701
75780W        W37234   3.275  29.442   4.268
75781W        W37235  42.925  20.710  13.442
75782W        W37236  11.849  16.136   0.345
75783W        W37237  32.612   7.209  13.791
75784W        W37238  36.032  28.083   1.779
75785W        W37239  30.615  28.526  12.858
75786W        W37240  42.440   6.737   2.183
75787W        W37241  38.551   5.353  13.983
75788W        W37242  43.838  23.584  10.519
75789W        W37243  16.573  14.179  12.348
75790W        W37244  13.335   8.220   3.257
75791W        W37245  35.865  38.327  10.536
75792W        W37246  37.482  21.032  14.871
75793W        W37247  10.363  29.033   0.476
75794W        W37248   2.867  38.536  13.430
75795W        W37249  17.098   1.765  10.972
75796W        W37250   9.748  18.586   3.367
75797W        W37251  29.656   2.879   3.673
75798W        W37252  25.148  25.675   1.697
75799W        W37253  28.655  30.155  10.602
75800W        W37254  21.729  38.886  13.033
75801W        W37255  16.677   4.283   3.347
75802W        W37256  30.574  44.293   2.780
75803W        W37257   9.262  10.697  14.904
75804W        W37258  31.435  32.934   1.378
75805W        W37259  39.912  28.580   0.324
75806W        W37260  43.802   6.418  12.906
75807W        W37261   0.318  34.416  10.635
75808W        W37262   7.187  34.468   3.834
75809W        W37263  38.047  24.075  12.920
75810W        W37264  18.678   2.816  14.444
75811W        W37265   8.692   0.963   1.341
75812W        W37266  17.707   6.868   3.334
75813W        W37267  17.275  36.051  13.932
75814W        W37268  13.219  41.448  11.870
75815W        W37269  18.145  25.545   4.719
75816W        W37270  16.152  41.336  10.478
75817W        W37271  35.966  25.519  11.098
75818W        W37272  30.548  15.145  13.875
75819W        W37273  19.672  40.828   2.810
75820W        W37274  28.679  30.918  13.922
75821W        W37275  30.476   6.889   2.185
75822W        W37276  26.584  32.034  11.391
75823W        W37277   9.667  32.413   0.257
75824W        W37278  31.520   6.334  13.056
75825W        W37279  12.193  44.265  13.357
75826W        W37280  10.155   0.409   1.861
75827W        W37281   6.697  21.146  12.431
75828W        W37282  19.692  38.455   1.761
75829W        W37283  43.013  37.535  13.847
75830W        W37284  36.004  37.490   0.792
75831W        W37285  16.717  29.655   1.230
75832W        W37286  21.192   1.270  14.916
75833W        W37287  26.995  15.666  14.396
75834W        W37288  16.672  12.149   2.325
75835W        W37289   4.390  25.676   1.885
75836W        W37290  32.041  39.820  12.886
75837W        W37291  40.417  43.983  12.470
75838W        W37292  26.138  29.458   3.706
75839W        W37293  18.764  40.922  10.470
75840W        W37294  39.424  32.028   0.392
75841W        W37295   2.941   3.809  13.464
75842W        W37296   7.883  15.692  10.563
75843W        W37297   6.912  44.300   0.415
75844W        W37298  25.631  17.108   3.310
75845W        W37299  23.515  11.187  12.395
75846W        W37300  42.382  29.104  11.591
75847W        W37301   7.871  38.541   2.737
75848W        W37302  35.405  15.720   2.887
75849W        W37303  42.962   6.290   2.795
75850W        W37304   1.396  44.779   0.463
75851W        W37305  30.142  24.671  10.046
75852W        W37306  20.541  36.538   1.764
75853W        W37307  22.194  24.629   3.237
75854W        W37308   7.379  26.626   0.920
75855W        W37309  17.280  30.021  10.992
75856W        W37310  18.634   1.298  11.088
75857W        W37311  26.160  26.991  14.365
75858W        W37312  30.582  39.842  14.022
75859W        W37313  22.585  33.488  12.007
75860W        W37314  37.558  31.925   3.246
75861W        W37315  12.192  21.130  10.547
75862W        W37316  21.722  27.020   3.151
75863W        W37317  18.682   9.299   2.201
75864W        W37318  31.496  24.136   2.375
75865W        W37319  34.542  14.194   3.293
75866W        W37320  15.623  10.689  12.095
75867W        W37321   3.260  17.136   4.238
75868W        W37322  15.315  42.952  10.974
75869W        W37323  21.231  29.162  13.409
75870W        W37324   2.825  40.899   3.697
75871W        W37325  19.270  16.152   3.294
75872W        W37326  36.584  14.231   1.724
75873W        W37327   4.738  21.143  13.806
75874W        W37328  32.928  41.803   3.326
75875W        W37329  39.867  15.632  12.948
75876W        W37330   0.422   6.896  13.868
75877W        W37331  19.205  41.841   0.268
75878W        W37332  30.926  26.608   1.370
75879W        W37333  32.983   9.354  13.402
75880W        W37334  26.172  37.922  11.888
75881W        W37335  19.656  32.495   3.729
75882W        W37336  35.858  14.812   1.285
75883W        W37337   7.728  19.237   2.389
75884W        W37338  35.994  44.865  10.987
75885W        W37339  17.213  43.394  11.969
75886W        W37340   4.321  27.616  11.419
75887W        W37341  12.718  44.263  13.873
75888W        W37342  38.537  12.801  11.512
75889W        W37343  44.917  32.903  14.299
75890W        W37344   8.352   7.222   4.645
75891W        W37345  40.336  15.111   4.803
75892W        W37346  44.817   4.369  11.953
75893W        W37347  26.100  36.090  14.962
75894W        W37348  39.823  21.722  14.992
75895W        W37349  28.597   7.335   4.190
75896W        W37350  27.554  35.888   4.133
75897W        W37351  10.270  19.610  11.856
75898W        W37352  27.642  41.413   1.302
75899W        W37353  11.683  23.587   0.919
75900W        W37354  43.408  35.961  14.977
75901W        W37355  43.859  26.974  10.522
75902W        W37356  23.081  10.376   3.776
75903W        W37357  39.008  21.200  13.360
75904W        W37358  42.405  29.149   3.724
75905W        W37359   9.236  24.201   4.601
75906W        W37360  26.530  35.965   0.471
75907W        W37361  33.582  17.129   3.185
75908W        W37362   3.363  43.392   3.786
75909W        W37363  14.223   9.168  10.598
75910W        W37364  42.869  37.406  10.456
75911W        W37365  35.527  20.200  13.424
75912W        W37366  43.393  18.650  12.043
75913W        W37367  42.379   8.698  14.355
75914W        W37368  15.644  24.036   5.098
75915W        W37369  41.462  16.650   4.220
75916W        W37370  32.085  22.243  14.936
75917W        W37371  13.189  14.325  12.344
75918W        W37372  33.498  26.025  13.379
75919W        W37373   9.692   0.260   1.335
75920W        W37374  11.634  38.047   4.804
75921W        W37375   0.490   6.892  14.337
75922W        W37376  40.867  26.166   2.185
75923W        W37377  27.105  21.582   3.823
75924W        W37378   7.285  30.568   2.713
75925W        W37379  39.451  20.166   3.863
75926W        W37380  39.990   8.346   4.128
75927W        W37381  35.503   8.169   4.681
75928W        W37382  19.647  13.806  11.110
75929W        W37383  13.144  29.583  12.376
75930W        W37384  16.230   7.781   4.289
75931W        W37385  13.641  28.477  12.064
75932W        W37386   4.722  41.940   5.195
75933W        W37387  24.689   0.762  12.982
75934W        W37388  32.400  14.619  13.340
75935W        W37389  17.236   6.847   0.926
75936W        W37390  30.441  22.221   0.346
75937W        W37391  23.531  14.134  13.315
75938W        W37392  23.058  44.996  11.459
75939W        W37393  13.218  23.984   3.826
75940W        W37394  44.482  36.911   4.158
75941W        W37395  26.971  22.037   0.764
75942W        W37396  25.590  43.479   3.348
75943W        W37397  24.642  40.315   3.370
75944W        W37398  16.230  27.158  13.463
75945W        W37399  27.950  21.541   3.825
75946W        W37400  24.633  22.586  11.473
75947W        W37401  42.888  11.846   1.700
75948W        W37402  34.073  15.821  11.501
75949W        W37403   4.787  25.032   2.360
75950W        W37404  22.036   3.341   4.773
75951W        W37405   2.807  10.714   0.335
75952W        W37406  11.368  19.163  14.324
75953W        W37407  33.553  19.153  14.455
75954W        W37408  42.522  20.664  14.485
75955W        W37409  44.938  17.262   4.353
75956W        W37410  11.672  31.088   5.161
75957W        W37411  40.327  43.277   1.242
75958W        W37412  38.070  11.807   0.746
75959W        W37413  40.524  23.576  11.546
75960W        W37414  27.517  14.779   2.386
75961W        W37415  16.151   2.414  14.511
75962W        W37416  28.046  15.788  12.500
75963W        W37417  20.603  10.867   3.383
75964W        W37418  37.022  37.849  14.769
75965W        W37419  24.631  27.175  11.512
75966W        W37420   2.857  23.175   1.328
75967W        W37421  27.995  40.029   0.811
75968W        W37422  42.463   4.777   3.669
75969W        W37423  16.708  24.535   0.474
75970W        W37424   3.828  27.047  10.434
75971W        W37425  11.294  43.448   4.643
75972W        W37426  11.630  10.141   4.790
75973W        W37427  33.608  30.621  12.487
75974W        W37428   2.733  42.916  11.507
75975W        W37429  40.915  16.730   0.795
75976W        W37430  33.973   9.675   2.778
75977W        W37431  20.713   6.897   2.259
75978W        W37432  39.480  36.049  14.027
75979W        W37433  37.982  21.622  11.408
75980W        W37434  29.516  19.559   0.426
75981W        W37435  11.196   5.405   0.403
75982W        W37436  21.151   4.233   4.292
75983W        W37437  31.918  19.127   2.336
75984W        W37438  23.500  17.587   1.828
75985W        W37439   7.719  23.990  10.434
75986W        W37440  11.320  23.059  14.785
75987W        W37441  23.224   3.768   3.850
75988W        W37442   3.822  38.480   3.198
75989W        W37443  27.191   6.187   1.772
75990W        W37444   7.401  13.190  12.405
75991W        W37445  18.582  21.586  13.311
75992W        W37446  19.275  22.692   4.290
75993W        W37447  42.514  42.289   3.271
75994W        W37448  12.305  38.010   1.832
75995W        W37449  31.099  22.248  12.881
75996W        W37450  15.310  25.026   2.868
75997W        W37451  41.978  22.624  13.980
75998W        W37452   8.707  27.996  12.976
75999W        W37453  23.499   5.762  13.007
76000W        W37454  34.005  30.491   2.395
76001W        W37455  42.492  32.505  13.886
76002W        W37456   0.808  22.691  12.888
76003W        W37457  30.937  15.640  10.531
76004W        W37458  40.358   4.437   1.881
76005W        W37459  23.585  20.061   0.383
76006W        W37460  25.164   8.232  12.524
76007W        W37461  19.656   8.304   0.807
76008W        W37462  33.475  22.715   5.141
76009W        W37463  40.319   4.930   0.942
76010W        W37464  11.257  44.900  13.890
76011W        W37465   9.797  14.156   1.439
76012W        W37466  17.172  25.085  13.810
76013W        W37467   3.396   8.383  14.437
76014W        W37468  41.826   5.304   3.668
76015W        W37469  39.020   8.360  14.421
76016W        W37470  25.592  27.685   1.254
76017W        W37471  27.607  24.603   9.502
76018W        W37472   8.813  43.381   4.275
76019W        W37473   3.442   6.895   4.806
76020W        W37474   6.792  11.711  11.069
76021W        W37475  18.162  25.053   4.764
76022W        W37476   4.415  15.651  10.994
76023W        W37477  38.330  14.197  14.876
76024W        W37478   7.814  25.011   5.188
76025W        W37479   2.852  36.048  14.885
76026W        W37480   8.223   8.719  14.446
76027W        W37481   6.750   3.452  11.463
76028W        W37482   6.678   4.710   1.791
76029W        W37483  40.826  43.912   4.120
76030W        W37484   8.396  19.096   4.686
76031W        W37485  26.962   8.789  11.400
76032W        W37486  32.486  15.090   2.875
76033W        W37487  27.112   7.868  12.542
76034W        W37488  13.679  10.317  11.056
76035W        W37489  30.937  39.349   3.286
76036W        W37490   8.673  27.995   5.321
76037W        W37491  31.404  31.928  12.536
76038W        W37492  35.924   7.188  11.556
76039W        W37493  41.454  17.647  14.464
76040W        W37494  34.555  27.954  11.862
76041W        W37495  29.122  42.877   3.351
76042W        W37496  38.820  42.899   5.279
76043W        W37497   5.311  19.773  13.427
76044W        W37498  11.196   7.349  10.426
76045W        W37499  10.669   9.379  14.315
76046W        W37500  41.988  21.659   0.912
76047W        W37501  32.608  21.725   2.902
76048W        W37502  33.462  23.238  14.781
76049W        W37503  41.992  19.589   4.629
76050W        W37504  36.459  27.591  14.516
76051W        W37505   5.781  32.113   3.229
76052W        W37506  44.948   2.946   3.245
76053W        W37507  19.137  23.665   1.263
76054W        W37508   6.287  10.726   0.904
76055W        W37509  17.778  38.024  11.861
76056W        W37510  13.251  39.366  13.805
76057W        W37511  20.697   5.385  10.904
76058W        W37512  19.054   9.679   3.779
76059W        W37513  40.345  19.119   1.345
76060W        W37514   8.725  22.227   1.273
76061W        W37515  43.007  42.884   3.298
76062W        W37516   0.393  19.707  12.091
76063W        W37517  35.022  30.427   5.216
76064W        W37518  39.972  44.322   3.179
76065W        W37519   1.305   3.852  12.021
76066W        W37520  35.546  41.341   2.246
76067W        W37521  30.464  41.951  10.941
76068W        W37522   2.879  26.552   2.892
76069W        W37523  44.767   3.929  10.416
76070W        W37524  27.498   1.324   2.214
76071W        W37525   2.344  29.529   3.201
76072W        W37526  10.857  33.467   3.178
76073W        W37527  25.158  25.118  14.821
76074W        W37528   6.426  44.887  11.123
76075W        W37529  18.245   7.802  11.874
76076W        W37530  22.557  36.021   2.850
76077W        W37531  13.742   4.370  10.937
76078W        W37532   9.809  17.748   4.621
76079W        W37533  25.220  21.238   2.413
76080W        W37534  21.753  13.282  11.015
76081W        W37535  18.718  23.623   1.309
76082W        W37536  31.144   3.934   3.358
76083W        W37537  15.795  16.567   1.231
76084W        W37538   5.827  28.117   4.665
76085W        W37539  29.568  38.482   1.873
76086W        W37540   5.690  19.668   1.322
76087W        W37541  12.795  25.047   2.309
76088W        W37542  13.647  15.653   3.231
76089W        W37543  30.021  19.094  13.983
76090W        W37544  24.520  33.060  10.913
76091W        W37545  34.475  40.317  14.385
76092W        W37546   0.451   3.354  12.028
76093W        W37547  43.490   5.771  12.522
76094W        W37548   9.376  39.868   4.261
76095W        W37549  11.356  35.881  13.318
76096W        W37550  31.433  35.369   0.342
76097W        W37551  13.635  37.540   3.199
76098W        W37552  11.185   5.255  12.380
76099W        W37553  37.975  36.919   4.337
76100W        W37554   9.268   0.930  11.000
76101W        W37555  32.632  22.656  10.572
76102W        W37556  14.734  33.114   0.732
76103W        W37557  37.556   7.403   0.359
76104W        W37558  38.524   0.821   3.268
76105W        W37559   4.419  19.753  12.539
76106W        W37560   4.733  30.044  10.643
76107W        W37561  26.952  10.145  13.501
76108W        W37562  19.252   9.890   0.778
76109W        W37563  40.453  11.712   1.328
76110W        W37564  31.459  28.615   3.235
76111W        W37565  24.182  25.529   2.251
76112W        W37566  14.810  24.205   2.191
76113W        W37567  26.038  30.047  14.437
76114W        W37568  43.298  29.497   3.268
76115W        W37569   4.826   2.894   2.209
76116W        W37570  29.463  12.847   3.758
76117W        W37571  28.037  40.509  10.070
76118W        W37572  31.564  21.729   0.764
76119W        W37573  24.985  11.729  10.498
76120W        W37574   7.703  17.229   2.683
76121W        W37575  31.603  32.916  10.502
76122W        W37576  44.336   9.370  13.338
76123W        W37577   3.379   5.800  11.600
76124W        W37578  33.969   4.245  12.988
76125W        W37579  33.071   4.204   1.344
76126W        W37580  40.447  22.120  12.021
76127W        W37581  17.181  17.184  14.300
76128W        W37582  16.663  14.702  11.995
76129W        W37583  12.738  26.041  13.845
76130W        W37584   5.429   2.755   4.128
76131W        W37585   2.396  42.424   2.888
76132W        W37586   1.813   0.490  12.848
76133W        W37587  20.560  40.450   1.787
76134W        W37588   1.806  34.907   2.398
76135W        W37589  14.741  20.069  13.846
76136W        W37590  38.396  24.683  11.025
76137W        W37591  24.665  29.029   4.815
76138W        W37592  43.918  25.102   3.838
76139W        W37593   0.304  30.415  14.499
76140W        W37594  28.570   4.837  12.002
76141W        W37595  11.702  27.560  11.041
76142W        W37596   3.278  25.972   1.311
76143W        W37597  31.936   5.809  14.420
76144W        W37598  41.391  41.810  12.065
76145W        W37599   3.721  42.509  10.974
76146W        W37600   3.741  29.586   2.294
76147W        W37601  44.005  34.514   4.211
76148W        W37602  22.206   2.241   0.375
76149W        W37603  13.148  37.538   1.858
76150W        W37604  13.779  10.191  10.022
76151W        W37605  44.372  19.596  12.067
76152W        W37606   2.404  18.260  11.509
76153W        W37607  19.736   7.794   3.381
76154W        W37608  12.818   3.797  11.591
76155W        W37609  10.666  14.337   5.208
76156W        W37610   4.719  43.001  12.539
76157W        W37611  27.687  40.347   3.226
76158W        W37612  36.459   8.699   5.143
76159W        W37613  25.489   7.837   2.678
76160W        W37614  39.015  29.108  12.864
76161W        W37615  32.133  14.730  11.379
76162W        W37616  34.596  26.040  10.470
76163W        W37617  27.602   1.392  12.014
76164W        W37618  34.043  31.416  13.008
76165W        W37619  27.101   2.270  11.389
76166W        W37620  24.171  40.356  13.492
76167W        W37621  26.559  32.140  12.858
76168W        W37622  17.171  36.563  13.495
76169W        W37623  30.916  30.457   1.707
76170W        W37624  41.443  15.756  12.412
76171W        W37625  22.230  30.461  12.395
76172W        W37626  17.728  29.921  12.549
76173W        W37627  17.212  27.127   1.298
76174W        W37628  37.004   8.204   3.783
76175W        W37629  12.780  16.107   3.167
76176W        W37630  25.019  34.499   1.269
76177W        W37631  18.106  28.133   0.360
76178W        W37632  11.209  36.462   3.652
76179W        W37633   2.930  27.601   2.354
76180W        W37634   6.351   2.406   4.328
76181W        W37635  43.461  13.338  11.405
76182W        W37636  44.335  26.122  13.980
76183W        W37637  18.262  14.209   2.229
76184W        W37638   7.903  44.366   0.828
76185W        W37639  24.069  38.557  12.562
76186W        W37640  15.812  17.597   3.791
76187W        W37641  30.939  22.715  12.970
76188W        W37642  37.869  25.013  11.108
76189W        W37643  33.935  11.258  13.441
76190W        W37644  37.059  23.137  12.080
76191W        W37645   1.957   1.239   0.850
76192W        W37646  32.544  27.997   4.621
76193W        W37647  12.340  35.925   3.245
76194W        W37648  33.499   4.206   1.326
76195W        W37649  37.538   3.863  11.475
76196W        W37650  11.717   0.895  13.957
76197W        W37651   8.245   4.741  13.832
76198W        W37652  27.517  28.662   3.277
76199W        W37653  31.530  22.197   2.284
76200W        W37654  21.621  24.227   2.297
76201W        W37655  32.939   0.905  10.908
76202W        W37656   9.258  17.771   1.266
76203W        W37657  27.486  44.958  11.378
76204W        W37658  43.347   6.815   1.249
76205W        W37659  14.198  22.047   3.690
76206W        W37660  39.449  37.358  12.043
76207W        W37661  22.610   5.245  11.484
76208W        W37662  29.594  16.699   2.389
76209W        W37663  19.684   4.217  14.451
76210W        W37664  12.823   6.368  12.870
76211W        W37665   6.864  42.947   1.411
76212W        W37666  20.614   1.907   3.257
76213W        W37667  23.148  29.056  13.375
76214W        W37668  31.114  10.662   4.765
76215W        W37669  36.962  35.882   3.809
76216W        W37670  34.588  29.943   3.691
76217W        W37671  37.020  11.198   3.229
76218W        W37672  36.901  28.631   3.765
76219W        W37673   9.775   8.831  11.953
76220W        W37674  19.129  44.323   4.722
76221W        W37675  12.215  16.234  10.554
76222W        W37676  35.561  10.331  10.417
76223W        W37677  42.011   8.303   1.267
76224W        W37678  43.425  37.352  14.767
76225W        W37679  32.071  19.537   3.815
76226W        W37680   3.856  37.044   0.404
76227W        W37681  15.701  12.841  12.038
76228W        W37682  19.698  30.435  12.947
76229W        W37683   8.265  45.000  10.454
76230W        W37684  28.613  40.898   3.833
76231W        W37685  28.667  41.420  14.507
76232W        W37686  23.209  41.469  10.410
76233W        W37687  37.441  25.675  13.480
76234W        W37688  38.977  40.808   3.810
76235W        W37689  27.554   3.358   9.946
76236W        W37690  24.097  17.765   1.741
76237W        W37691  22.616  41.946   0.401
76238W        W37692  44.799  10.653  10.445
76239W        W37693  27.072  19.727   5.216
76240W        W37694  41.520   2.855   4.718
76241W        W37695  22.617  43.270   4.185
76242W        W37696   6.797   3.230   1.701
76243W        W37697  13.233  13.697   3.261
76244W        W37698  14.736  42.478   5.744
76245W        W37699  38.842  37.960   3.182
76246W        W37700  12.660  25.650  10.477
76247W        W37701  30.488  44.264  11.398
76248W        W37702  26.035  12.263  13.991
76249W        W37703  27.988   2.307   4.171
76250W        W37704   0.824  37.396  12.442
76251W        W37705  29.438  27.988  14.907
76252W        W37706  30.639   4.913  12.419
76253W        W37707  35.055  26.094  11.095
76254W        W37708   4.744  30.150   2.755
76255W        W37709   2.959   3.310   1.280
76256W        W37710  28.142   5.408   2.286
76257W        W37711   2.914  27.148  13.433
76258W        W37712  23.064  21.512  11.124
76259W        W37713  35.500  31.553  11.388
76260W        W37714  40.416   1.475  14.907
76261W        W37715  35.406   4.799  13.476
76262W        W37716  40.909  22.723   2.251
76263W        W37717  40.448  16.101  11.518
76264W        W37718  38.430  42.996  10.528
76265W        W37719  34.927  18.566   2.389
76266W        W37720  34.417  44.963  12.918
76267W        W37721  22.604  42.863   0.331
76268W        W37722  20.715  19.260  13.312
76269W        W37723  31.550  21.061   2.244
76270W        W37724  22.554  33.076   2.849
76271W        W37725  39.059  17.680   0.847
76272W        W37726  20.075  39.357  14.305
76273W        W37727  31.485   4.450  14.308
76274W        W37728  13.719  36.928   1.267
76275W        W37729   5.202  15.141  12.468
76276W        W37730  25.173  20.216   2.220
76277W        W37731  16.642  18.154   2.394
76278W        W37732  15.123  15.129  10.540
76279W        W37733  35.051  18.059   4.153
76280W        W37734  30.917  23.124   5.632
76281W        W37735  42.829  25.972   9.990
76282W        W37736  27.636  33.482   0.853
76283W        W37737   6.310  23.538   3.172
76284W        W37738   3.443  18.172  14.764
76285W        W37739  41.956  21.238   0.283
76286W        W37740  20.741  31.639  12.033
76287W        W37741   7.815  24.555  12.852
76288W        W37742  35.108  17.218   4.193
76289W        W37743  29.432  41.492   1.281
76290W        W37744  34.376  39.328   4.747
76291W        W37745  31.564  17.695  14.461
76292W        W37746  16.300  22.525   4.668
76293W        W37747  16.151  33.479  13.950
76294W        W37748  40.404  12.351   1.867
76295W        W37749  26.628  14.266  14.784
76296W        W37750  31.486  43.505   0.850
76297W        W37751  10.347  37.538  14.900
76298W        W37752  31.444  27.491  13.956
76299W        W37753  14.142  28.084   5.284
76300W        W37754  20.684  15.589  14.512
76301W        W37755  13.610   6.387   4.311
76302W        W37756  24.134  39.837   1.698
76303W        W37757  32.580  36.368  10.509
76304W        W37758  30.140  16.764   0.893
76305W        W37759  36.041  29.070   1.331
76306W        W37760  22.031  29.011  14.488
76307W        W37761  27.450  27.685   1.254
76308W        W37762  14.151   5.844   4.330
76309W        W37763  22.228  31.454   4.265
76310W        W37764  17.753  26.596  13.450
76311W        W37765  44.901  22.699   2.288
76312W        W37766  22.069  21.644   2.184
76313W        W37767  17.756  10.233  14.918
76314W        W37768  29.068   3.952   0.335
76315W        W37769  16.622  43.355  14.370
76316W        W37770  12.678  28.958   0.785
76317W        W37771   1.756   5.210   1.224
76318W        W37772  10.214   4.751  11.387
76319W        W37773  10.645  44.806   0.297
76320W        W37774  30.447  27.121   0.450
76321W        W37775  30.117  12.710  14.917
76322W        W37776   5.209  36.894   4.344
76323W        W37777   5.734  13.647  11.375
76324W        W37778  13.801  26.681   3.858
76325W        W37779  33.007  16.112   2.340
76326W        W37780  37.557  22.536   3.204
76327W        W37781  35.600   7.327  12.860
76328W        W37782  41.807  24.145   3.677
76329W        W37783  37.928   9.274   3.220
76330W        W37784  32.932  11.136  10.894
76331W        W37785  21.077   0.490  14.336
76332W        W37786  12.213   6.182   0.804
76333W        W37787  42.288  28.144   4.727
76334W        W37788  23.077  37.995   3.862
76335W        W37789  16.755  12.117   3.690
76336W        W37790  37.442  31.478  10.517
76337W        W37791   5.284  22.155   4.690
76338W        W37792  41.927   1.807   5.182
76339W        W37793   6.392  11.821  10.132
76340W        W37794   3.775   2.245  12.544
76341W        W37795  14.339  37.544  12.459
76342W        W37796  19.210   4.444   4.692
76343W        W37797   0.360  18.681   0.900
76344W        W37798  18.139  34.530   3.863
76345W        W37799   9.206  14.789  10.897
76346W        W37800  32.619   7.751  13.794
76347W        W37801  12.766  30.944  11.454
76348W        W37802  32.005  43.948  13.314
76349W        W37803   8.865  24.999  14.772
76350W        W37804  27.575  34.594   0.298
76351W        W37805  19.659  29.970   0.398
76352W        W37806   3.845  16.683   3.702
76353W        W37807   2.888  12.623   4.712
76354W        W37808   2.929   6.313  11.875
76355W        W37809  21.068  26.952   4.670
76356W        W37810  35.581  35.968   0.403
76357W        W37811  26.672  25.041   1.226
76358W        W37812   8.663  42.816   3.818
76359W        W37813  17.601  44.407   3.219
76360W        W37814   5.341  34.100  10.931
76361W        W37815  29.047   5.730   1.418
76362W        W37816  30.415  35.361  10.632
76363W        W37817   6.343   4.302  14.786
76364W        W37818  16.252  10.164  13.415
76365W        W37819  44.327  12.622  13.427
76366W        W37820  27.684  15.797  10.592
76367W        W37821  35.051  14.734  13.037
76368W        W37822  36.965   3.236  10.632
76369W        W37823   3.335  39.487  11.375
76370W        W37824   6.869  12.748   4.168
76371W        W37825  41.837   8.188   2.897
76372W        W37826  28.678  31.558  14.291
76373W        W37827  28.067  37.471  12.341
76374W        W37828  27.118  19.176   0.449
76375W        W37829  25.651  28.010   1.413
76376W        W37830   1.893   8.367   1.927
76377W        W37831  31.485  20.150   1.866
76378W        W37832  24.032  13.150  11.935
76379W        W37833   5.869  19.107  13.405
76380W        W37834  31.594  14.241  13.971
76381W        W37835  35.964  27.139   1.715
76382W        W37836   2.274  39.974   1.738
76383W        W37837  41.442   2.285  11.462
76384W        W37838  33.917  14.188  13.965
76385W        W37839  26.660  35.423   1.256
76386W        W37840   2.237  19.556   3.325
76387W        W37841  27.581  15.783  13.541
76388W        W37842  19.552  19.604   1.375
76389W        W37843  19.082  34.096   4.753
76390W        W37844  26.108   1.842   4.823
76391W        W37845  30.499  17.247  11.935
76392W        W37846  25.603  24.548   0.803
76393W        W37847  26.605   8.264   0.866
76394W        W37848  33.024   7.853   4.269
76395W        W37849  37.952  18.669   0.466
76396W        W37850  24.034  23.556   1.420
76397W        W37851  15.201  40.834  14.876
76398W        W37852  12.341  25.009  11.981
76399W        W37853  38.980  43.493   3.664
76400W        W37854  43.827  22.203  12.067
76401W        W37855  39.522  30.007   4.627
76402W        W37856  12.190  29.074  12.517
76403W        W37857  13.322  31.431  12.952
76404W        W37858  20.706  41.893  11.933
76405W        W37859  42.429  39.393  12.446
76406W        W37860  37.506   7.700  11.927
76407W        W37861  33.476  44.986  11.593
76408W        W37862  22.731  35.566   4.756
76409W        W37863   3.787   6.232   1.263
76410W        W37864  10.265  16.170  14.949
76411W        W37865   2.334  29.509  14.976
76412W        W37866   8.808  10.203  12.837
76413W        W37867  25.039  12.706  12.997
76414W        W37868  10.277  18.189  13.965
76415W        W37869  35.430  18.268  12.939
76416W        W37870  15.592   7.692  12.398
76417W        W37871  40.972   1.261   2.177
76418W        W37872  29.575  33.114  10.475
76419W        W37873  37.898  20.053  10.550
76420W        W37874  34.387  16.255  10.441
76421W        W37875  25.475   9.312  10.128
76422W        W37876  31.612  39.058   4.761
76423W        W37877   1.317  37.973  12.342
76424W        W37878  20.078  22.517   1.350
76425W        W37879  14.637   6.392   1.882
76426W        W37880   4.930   2.831   3.300
76427W        W37881  16.093   8.383  11.006
76428W        W37882  11.372   2.769  12.393
76429W        W37883  24.705  23.602  14.948
76430W        W37884  14.278  36.582  11.407
76431W        W37885   3.764  31.569  13.328
76432NA+    NA+37886  44.488  38.024   2.803
76433NA+    NA+37887  14.666  25.107   0.942
76434NA+    NA+37888  33.895  12.264  13.897
76435NA+    NA+37889  38.062   6.879  12.404
76436NA+    NA+37890  20.564  42.833  13.965
76437NA+    NA+37891  18.674  31.910   2.683
76438NA+    NA+37892   6.744   2.322   2.881
76439NA+    NA+37893   6.312  34.614   4.249
76440NA+    NA+37894   8.780  42.493  11.416
76441NA+    NA+37895  19.052  25.156   2.849
76442NA+    NA+37896  27.108   0.865   0.305
76443NA+    NA+37897   5.392  25.507  11.094
76444NA+    NA+37898  20.667  18.769   4.797
76445NA+    NA+37899  40.500  20.210   1.393
76446NA+    NA+37900  29.458  12.196   4.225
76447NA+    NA+37901   0.844  41.369  13.914
76448NA+    NA+37902  11.695   1.373  10.901
76449NA+    NA+37903  10.658  18.064  11.463
76450NA+    NA+37904   7.411  28.183  11.475
76451NA+    NA+37905   1.944   9.687  11.961
76452NA+    NA+37906  44.766   9.822  14.828
76453NA+    NA+37907  20.102  34.563  11.447
76454NA+    NA+37908   9.373  37.363   0.926
76455NA+    NA+37909  36.409  15.780   1.422
76456NA+    NA+37910  38.521  38.071  10.129
76457NA+    NA+37911   9.280  25.562   3.199
76458NA+    NA+37912   4.246  15.783  11.588
76459NA+    NA+37913   3.417  28.125  12.884
76460NA+    NA+37914   8.381  31.574  11.435
76461NA+    NA+37915  23.214   5.731  10.506
76462NA+    NA+37916  44.006  43.516   0.474
76463NA+    NA+37917  39.352  23.732  10.610
76464NA+    NA+37918  23.527  34.613   4.242
76465NA+    NA+37919  39.888  42.958   2.370
76466NA+    NA+37920  35.597   3.824  13.309
76467NA+    NA+37921  32.024  11.718   3.792
76468NA+    NA+37922  42.007  15.267   2.778
76469NA+    NA+37923  19.129   3.812  12.484
76470NA+    NA+37924  14.268  33.028  12.051
76471NA+    NA+37925   2.395  38.053   3.382
76472NA+    NA+37926  11.146  24.203   4.354
76473NA+    NA+37927   3.460  18.788  13.975
76474NA+    NA+37928  38.386  28.053   4.255
76475NA+    NA+37929  15.611   1.911   1.282
76476NA+    NA+37930  25.668  40.350   4.129
76477NA+    NA+37931  16.738  14.786  14.281
76478NA+    NA+37932  31.071  13.320   1.914
76479NA+    NA+37933  31.645  36.419   4.169
76480NA+    NA+37934  10.676  38.443  14.886
76481NA+    NA+37935  34.884  28.079   3.185
76482NA+    NA+37936  23.218  31.916  14.299
76483NA+    NA+37937  25.544  38.408  14.894
76484NA+    NA+37938  35.563  32.073  11.996
76485NA+    NA+37939  44.997   8.387   1.728
76486NA+    NA+37940  38.337  39.336   3.812
76487NA+    NA+37941  35.053  37.889   2.375
76488NA+    NA+37942  35.063  31.590   3.356
76489NA+    NA+37943  18.627   9.348  10.439
76490NA+    NA+37944   6.870  38.481   1.725
76491NA+    NA+37945  35.593  42.844   1.426
76492NA+    NA+37946  33.009  39.038   2.799
76493NA+    NA+37947   6.328  19.650  12.942
76494NA+    NA+37948  26.177  26.097   4.285
76495NA+    NA+37949   1.781   3.348   0.313
76496NA+    NA+37950  33.874  29.933   1.430
76497NA+    NA+37951  23.645   1.938  12.378
76498NA+    NA+37952   5.840  21.668   4.325
76499NA+    NA+37953  25.653  18.156   5.230
76500NA+    NA+37954  18.600  38.400   4.272
76501NA+    NA+37955  38.497  43.819  11.005
76502NA+    NA+37956  30.110  31.076  12.439
76503NA+    NA+37957  44.354  25.542   0.430
76504NA+    NA+37958  17.176  30.462   3.295
76505NA+    NA+37959  41.833  39.850   2.186
76506NA+    NA+37960  13.825  33.442   1.901
76507NA+    NA+37961  34.568   4.409  14.343
76508NA+    NA+37962  39.879  19.743  14.406
76509NA+    NA+37963  10.350  13.748   0.430
76510NA+    NA+37964  43.450   6.820  11.009
76511NA+    NA+37965  27.514   3.919  11.611
76512NA+    NA+37966  20.028  15.665   4.139
76513NA+    NA+37967   5.322  37.925   2.726
76514NA+    NA+37968   4.929  43.823   4.745
76515NA+    NA+37969   8.246  22.066   0.816
76516NA+    NA+37970  32.092  39.533   1.913
76517NA+    NA+37971  32.495  30.076  10.892
76518NA+    NA+37972  17.133  31.464  14.375
76519NA+    NA+37973  14.735   9.827  13.523
76520NA+    NA+37974  28.453  29.953  12.997
76521NA+    NA+37975   4.345  28.042   2.217
76522NA+    NA+37976  16.664   9.264  13.367
76523NA+    NA+37977  26.578  14.688  13.990
76524NA+    NA+37978  17.074  39.858   2.890
76525NA+    NA+37979  24.717  33.496   1.784
76526NA+    NA+37980  38.928   3.266   1.922
76527NA+    NA+37981  27.965  36.496  13.834
76528NA+    NA+37982   0.833  12.170   4.201
76529NA+    NA+37983  28.612  43.952   0.378
76530NA+    NA+37984  38.954   5.860   3.794
76531NA+    NA+37985  23.167  32.997   0.429
76532NA+    NA+37986  18.601  39.033  14.830
76533NA+    NA+37987  43.460  39.419  11.007
76534NA+    NA+37988  32.604  39.042  14.300
76535NA+    NA+37989   7.908  43.432  11.442
76536NA+    NA+37990   1.844  24.001   2.279
76537NA+    NA+37991  20.763  11.295   0.435
76538NA+    NA+37992  38.475  24.488  12.355
76539NA+    NA+37993  23.662  28.622  14.806
76540NA+    NA+37994  38.008  27.157   4.792
76541NA+    NA+37995  30.952  33.920   1.771
76542NA+    NA+37996  22.612  34.538   1.322
76543NA+    NA+37997  26.115  38.535   2.279
76544NA+    NA+37998   1.866  39.448  12.467
76545NA+    NA+37999  41.863  38.387  12.013
76546NA+    NA+38000  29.065  13.319  10.990
76547NA+    NA+38001   5.217   0.440  14.433
76548NA+    NA+38002  42.495  40.549   1.743
76549NA+    NA+38003  24.542  41.849  13.520
76550NA+    NA+38004  25.210  34.450  12.987
76551NA+    NA+38005  23.024  21.576  12.091
76552NA+    NA+38006  38.435   9.747  12.385
76553NA+    NA+38007  34.443  27.628   1.326
76554NA+    NA+38008   7.795  26.046  11.040
76555NA+    NA+38009   1.254  25.065  13.809
76556NA+    NA+38010   5.749  29.563   1.701
76557NA+    NA+38011  23.710   3.745   2.236
76558NA+    NA+38012  24.655  40.516   1.431
76559NA+    NA+38013   4.395  41.426   1.443
76560NA+    NA+38014  10.224  13.806   1.336
76561NA+    NA+38015  36.889  28.561   2.287
76562NA+    NA+38016   3.364  29.613   5.203
76563NA+    NA+38017  19.219  17.080  13.853
76564NA+    NA+38018  11.821   9.290  14.360
76565NA+    NA+38019  31.995  21.524  12.087
76566NA+    NA+38020  34.038  23.647   1.252
76567NA+    NA+38021  18.643  29.484   3.339
76568NA+    NA+38022  20.552  31.949  11.941
76569NA+    NA+38023  12.674  22.638   0.759
76570NA+    NA+38024  28.129  22.665   1.809
76571NA+    NA+38025   2.398   2.305  14.993
76572NA+    NA+38026  40.850  21.042   4.208
76573NA+    NA+38027  35.024  12.220  11.481
76574NA+    NA+38028  30.503  40.365   2.357
76575NA+    NA+38029  36.854  27.556   1.815
76576NA+    NA+38030   9.329  38.547   3.163
76577NA+    NA+38031  12.787   3.926  12.852
76578NA+    NA+38032   4.813  33.542   3.384
76579NA+    NA+38033  41.937  21.621   3.723
76580NA+    NA+38034   0.491   6.287   1.363
76581NA+    NA+38035  32.959  15.756  13.376
76582NA+    NA+38036  35.864  13.775  12.037
76583NA+    NA+38037  31.460  41.911  13.500
76584NA+    NA+38038  31.452  28.628  11.497
76585NA+    NA+38039  33.398  22.108   3.756
76586NA+    NA+38040  21.592  10.675  13.462
76587NA+    NA+38041  44.904  40.428  13.904
76588NA+    NA+38042  42.441  22.039   4.355
76589NA+    NA+38043  41.034  41.451   0.890
76590NA+    NA+38044  29.990  23.620  13.337
76591NA+    NA+38045  27.984  18.684  12.967
76592NA+    NA+38046  32.126  10.783   2.211
76593NA+    NA+38047   4.892  20.689  11.483
76594NA+    NA+38048   2.254  10.877   3.705
76595NA+    NA+38049  12.671  39.937   0.857
76596NA+    NA+38050  32.088   3.272   1.932
76597NA+    NA+38051  13.837  24.228   1.843
76598NA+    NA+38052  14.833  28.945  11.938
76599NA+    NA+38053  44.986  13.119   0.825
76600NA+    NA+38054  30.048  41.899   3.294
76601NA+    NA+38055  38.374  25.978   1.344
76602NA+    NA+38056  44.920  11.726   2.725
76603NA+    NA+38057   8.848  43.858   0.831
76604NA+    NA+38058  21.159   8.820   3.266
76605NA+    NA+38059  32.910  27.943   0.390
76606NA+    NA+38060  27.642  18.291   3.348
76607NA+    NA+38061   9.157  17.797   3.267
76608NA+    NA+38062  22.590   7.828   2.745
76609NA+    NA+38063   1.978   1.854  12.974
76610NA+    NA+38064  28.152  29.071   9.959
76611NA+    NA+38065   6.819   2.276  12.348
76612NA+    NA+38066  23.688  36.068  10.918
76613NA+    NA+38067  15.800  34.009  12.471
76614NA+    NA+38068   1.354  10.685  14.850
76615NA+    NA+38069  20.196  40.512  14.329
76616NA+    NA+38070  12.167  12.843   1.245
76617NA+    NA+38071   0.456  33.112   3.200
76618NA+    NA+38072   5.344  34.047   2.366
76619NA+    NA+38073  36.555   7.764  11.468
76620NA+    NA+38074  22.711  20.120   4.186
76621NA+    NA+38075   9.236  35.577  12.357
76622NA+    NA+38076   1.753  14.757  11.401
76623NA+    NA+38077  22.637  29.523  13.387
76624NA+    NA+38078  13.831  40.833  14.458
76625NA+    NA+38079   0.392  42.300   3.209
76626NA+    NA+38080  37.355   7.728   4.152
76627NA+    NA+38081  23.595  24.677  11.922
76628NA+    NA+38082  37.432  39.488  14.991
76629NA+    NA+38083  11.787  12.137   3.754
76630NA+    NA+38084  23.016  21.741  13.875
76631NA+    NA+38085  32.966  28.022   3.316
76632NA+    NA+38086   0.811   5.382   3.824
76633NA+    NA+38087  18.550  21.262  14.828
76634NA+    NA+38088  25.978   4.396  11.033
76635NA+    NA+38089  16.124  39.019   2.839
76636NA+    NA+38090  28.183  41.814   2.215
76637NA+    NA+38091  34.010  35.084  12.379
76638NA+    NA+38092  43.939  22.173   3.305
76639NA+    NA+38093  24.629   3.260  10.593
76640NA+    NA+38094  32.992  22.680   2.340
76641NA+    NA+38095  15.606  38.028   0.244
76642NA+    NA+38096  38.512  42.948   5.138
76643NA+    NA+38097  42.948  27.183   1.774
76644NA+    NA+38098  10.328   9.875  14.827
76645NA+    NA+38099  26.608   6.900   3.757
76646NA+    NA+38100  40.871  34.606   1.405
76647NA+    NA+38101  15.232  14.698   0.960
76648NA+    NA+38102   0.326  27.943  11.856
76649NA+    NA+38103   9.248  26.000   2.402
76650NA+    NA+38104  24.606  20.690   2.360
76651NA+    NA+38105  29.038  22.671   5.314
76652NA+    NA+38106   0.857  14.155   2.779
76653NA+    NA+38107   3.892  10.182   3.756
76654NA+    NA+38108  44.425   5.339  10.640
76655NA+    NA+38109  23.559  41.901   1.700
76656NA+    NA+38110  30.098   5.209  13.035
76657NA+    NA+38111  33.076  34.507   0.300
76658NA+    NA+38112  26.973  15.091  11.611
76659NA+    NA+38113  25.061  23.574  10.643
76660NA+    NA+38114  38.990  14.318  14.854
76661NA+    NA+38115  15.783  24.721   0.418
76662NA+    NA+38116  14.660   9.714   4.667
76663NA+    NA+38117  33.057  19.136  12.843
76664NA+    NA+38118  29.537  41.030   0.867
76665NA+    NA+38119  30.495   6.195  10.605
76666NA+    NA+38120  28.439  32.985   3.650
76667NA+    NA+38121  30.126  26.138   0.298
76668NA+    NA+38122  23.539  19.534   2.331
76669NA+    NA+38123  26.982  22.678  14.908
76670NA+    NA+38124  20.660  26.588  13.446
76671NA+    NA+38125  21.650  18.690   3.691
76672NA+    NA+38126  38.947  41.371   2.756
76673NA+    NA+38127  41.414  35.958   3.688
76674NA+    NA+38128  24.027  29.537   3.831
76675NA+    NA+38129  25.004  25.999  13.368
76676NA+    NA+38130  13.750  20.099  14.759
76677NA+    NA+38131  28.002   5.235  11.897
76678NA+    NA+38132  28.931   6.868   4.320
76679NA+    NA+38133  16.775   4.364   1.696
76680NA+    NA+38134  14.745  38.498   1.284
76681NA+    NA+38135  44.954  32.423   2.816
76682NA+    NA+38136  11.674   2.342   0.291
76683NA+    NA+38137   1.731  31.928   4.763
76684NA+    NA+38138  44.372  11.623   3.186
76685NA+    NA+38139  44.007   2.791   2.746
76686NA+    NA+38140  12.313  22.596  11.012
76687NA+    NA+38141  22.568  27.130   2.737
76688NA+    NA+38142   4.312  44.270  14.433
76689NA+    NA+38143  10.748  28.454  10.603
76690NA+    NA+38144  38.445  44.449  10.598
76691NA+    NA+38145  27.003  42.809  13.007
76692NA+    NA+38146  25.198   2.785   4.632
76693NA+    NA+38147  24.142  13.827  12.362
76694NA+    NA+38148  28.081  18.071  12.004
76695NA+    NA+38149  23.642  25.963  12.063
76696NA+    NA+38150  40.547  19.240   0.248
76697NA+    NA+38151   2.841  35.029   1.413
76698NA+    NA+38152  34.083  42.339   2.779
76699NA+    NA+38153  39.809  44.846   2.340
76700NA+    NA+38154  38.932   4.912   1.704
76701NA+    NA+38155  38.414  19.748  14.011
76702NA+    NA+38156  25.089  14.795   1.384
76703NA+    NA+38157  14.711  37.079   3.201
76704NA+    NA+38158  19.650  30.048   3.238
76705NA+    NA+38159  20.687  42.407   3.307
76706NA+    NA+38160  12.739  34.989   2.692
76707NA+    NA+38161  41.451  26.487  13.965
76708NA+    NA+38162  30.949   5.358   0.245
76709NA+    NA+38163  31.573  24.687   2.347
76710NA+    NA+38164  23.517  26.557   2.301
76711NA+    NA+38165   4.816  16.800   2.672
76712NA+    NA+38166  35.902  21.728  13.834
76713NA+    NA+38167  13.180   4.728   0.750
76714NA+    NA+38168  34.529  28.063  10.589
76715NA+    NA+38169  22.107  39.826   2.696
76716NA+    NA+38170  34.466   1.321  12.450
76717NA+    NA+38171  22.085  25.671  14.912
76718NA+    NA+38172  26.501  15.149  12.552
76719NA+    NA+38173  38.329  15.156   4.830
76720NA+    NA+38174  15.148  10.204   0.460
76721NA+    NA+38175  11.657  16.233  12.579
76722NA+    NA+38176  37.041  21.586   2.836
76723NA+    NA+38177  37.473  23.047  13.855
76724NA+    NA+38178  42.793  35.089  14.009
76725NA+    NA+38179  21.718  26.639  12.085
76726NA+    NA+38180  40.875  40.955   0.801
76727NA+    NA+38181  37.543  12.144  11.105
76728NA+    NA+38182  22.515  24.614  13.901
76729NA+    NA+38183  21.141   0.405   1.250
76730NA+    NA+38184   8.387   2.780   4.161
76731NA+    NA+38185  40.029  31.568   0.352
76732NA+    NA+38186  26.523  44.812   0.962
76733NA+    NA+38187  40.885  30.140  13.396
76734NA+    NA+38188  44.359  41.529   1.287
76735NA+    NA+38189   0.805  36.951   3.827
76736NA+    NA+38190  31.410  42.819   0.451
76737NA+    NA+38191  40.451  25.217   3.709
76738NA+    NA+38192  32.424   3.446  12.057
76739NA+    NA+38193  20.155   1.856   3.663
76740NA+    NA+38194  36.043  15.780  12.056
76741NA+    NA+38195   5.854  13.282  12.423
76742NA+    NA+38196  42.369  18.259   1.842
76743NA+    NA+38197  15.675  36.492   2.708
76744NA+    NA+38198  23.731  43.816  13.973
76745NA+    NA+38199  41.885  25.219  14.514
76746NA+    NA+38200  20.546  16.734  14.472
76747NA+    NA+38201  24.680  13.834   1.737
76748NA+    NA+38202  25.161  34.058   3.650
76749NA+    NA+38203  44.403   5.934   2.338
76750NA+    NA+38204  19.154  15.637  11.496
76751NA+    NA+38205  13.710  19.568  14.457
76752NA+    NA+38206  39.924  28.070  10.465
76753NA+    NA+38207  34.030   9.847   2.351
76754NA+    NA+38208  27.190  13.340   1.386
76755NA+    NA+38209  38.849  33.453  13.527
76756NA+    NA+38210  15.764  20.725  12.411
76757NA+    NA+38211  24.162   4.375  11.092
76758NA+    NA+38212  23.128  25.066   3.816
76759NA+    NA+38213  32.620  37.944  11.475
76760NA+    NA+38214  12.154  32.021   0.893
76761NA+    NA+38215  12.727  33.593  13.467
76762NA+    NA+38216  35.591  12.267   1.324
76763NA+    NA+38217  27.606  15.707   2.878
76764NA+    NA+38218  15.635  42.348   1.356
76765NA+    NA+38219   5.304  41.364  10.426
76766NA+    NA+38220  43.376  21.607  11.871
76767NA+    NA+38221  24.000  13.157   1.908
76768NA+    NA+38222  28.669   5.386   0.401
76769NA+    NA+38223  35.549   0.478   3.309
76770NA+    NA+38224  21.700   9.817   2.785
76771NA+    NA+38225  43.454   6.704   0.820
76772NA+    NA+38226  26.074   2.350  13.960
76773NA+    NA+38227  23.521   5.284   4.786
76774NA+    NA+38228  18.223  24.173   2.738
76775NA+    NA+38229  43.797  24.157   3.304
76776NA+    NA+38230  16.079  14.832   0.835
76777NA+    NA+38231  16.611  15.765  10.513
76778NA+    NA+38232  41.951  28.465   1.854
76779NA+    NA+38233  33.390  44.892   1.338
76780NA+    NA+38234  22.616  16.570  11.923
76781NA+    NA+38235  21.742  32.035   5.143
76782NA+    NA+38236  38.001  31.975   3.669
76783NA+    NA+38237  42.984  27.483  13.880
76784NA+    NA+38238  21.529   3.419   4.329
76785NA+    NA+38239   5.882  23.155   2.675
76786NA+    NA+38240  11.193  12.826  12.474
76787NA+    NA+38241  23.577  33.387  13.356
76788NA+    NA+38242  35.976   1.455  10.492
76789NA+    NA+38243  40.900  32.435  12.524
76790NA+    NA+38244  27.947  14.757   1.294
76791NA+    NA+38245  12.628   0.401   4.287
76792NA+    NA+38246   0.842   3.885   4.699
76793NA+    NA+38247   0.971  29.647  10.564
76794NA+    NA+38248  11.759  31.999   5.126
76795NA+    NA+38249  44.466  24.130   1.291
76796NA+    NA+38250   2.404  38.976  11.026
76797NA+    NA+38251  19.077   1.384  10.417
76798NA+    NA+38252  34.099  43.837   4.834
76799NA+    NA+38253  26.174  12.618   2.790
76800NA+    NA+38254  20.624  39.390   4.771
76801NA+    NA+38255   1.902   8.310  14.880
76802NA+    NA+38256   4.206  43.892  11.575
76803NA+    NA+38257  33.104  41.529  10.915
76804NA+    NA+38258  11.204  28.078  10.573
76805NA+    NA+38259  24.026   0.329  10.908
76806NA+    NA+38260  18.702   6.350  10.128
76807NA+    NA+38261  28.456   0.931  10.436
76808NA+    NA+38262   0.985  12.357  14.297
76809NA+    NA+38263  11.675  14.096  11.028
76810NA+    NA+38264  39.452  23.546  14.811
76811NA+    NA+38265  11.813  21.615   3.637
76812NA+    NA+38266  21.151  36.932   2.408
76813NA+    NA+38267  14.617  36.370  10.525
76814NA+    NA+38268  38.388  14.812   3.179
76815NA+    NA+38269  12.332  39.977   0.784
76816NA+    NA+38270  21.700  20.262   1.405
76817NA+    NA+38271  35.035  39.053  10.416
76818NA+    NA+38272   2.417  37.055   4.829
76819NA+    NA+38273  10.376  12.802   1.695
76820NA+    NA+38274  11.218  23.108  13.945
76821NA+    NA+38275  19.735   7.768  11.544
76822NA+    NA+38276  31.025  27.516  10.594
76823NA+    NA+38277   1.766  21.195   1.377
76824NA+    NA+38278   5.779  10.214   3.758
76825NA+    NA+38279  38.347  25.553   0.767
76826NA+    NA+38280   3.310  38.429   4.262
76827NA+    NA+38281   0.337  12.243  10.547
76828NA+    NA+38282  19.228  41.498   0.384
76829NA+    NA+38283  27.131   3.950   3.359
76830NA+    NA+38284   1.950  40.901  11.025
76831NA+    NA+38285  18.229  44.005   4.690
76832NA+    NA+38286   5.712  39.458  12.052
76833NA+    NA+38287  29.040  32.123   2.368
76834NA+    NA+38288  35.083  12.181   4.191
76835NA+    NA+38289  21.613  26.033   4.180
76836NA+    NA+38290  13.130  34.995   4.738
76837NA+    NA+38291   5.770  35.536  11.121
76838NA+    NA+38292  27.068  44.780  12.436
76839NA+    NA+38293   0.987  19.618   4.708
76840NA+    NA+38294  27.658   4.869  14.502
76841NA+    NA+38295   7.717   0.457   5.230
76842NA+    NA+38296  23.072  10.167   3.219
76843NA+    NA+38297  39.446  15.290   3.655
76844NA+    NA+38298  26.993   9.662  14.295
76845NA+    NA+38299  33.429  35.367   1.234
76846NA+    NA+38300  26.574  27.530   2.760
76847NA+    NA+38301  36.847  24.131  14.507
76848NA+    NA+38302  22.008   6.905  14.334
76849NA+    NA+38303  16.305  25.081   2.899
76850NA+    NA+38304  41.466   9.362  13.048
76851NA+    NA+38305   8.814   9.385   1.930
76852NA+    NA+38306  14.158  28.593   2.259
76853NA+    NA+38307   7.902   7.347   1.760
76854NA+    NA+38308   6.741  35.094  10.478
76855NA+    NA+38309  44.941   8.810   4.331
76856NA+    NA+38310  14.777  39.549  13.510
76857NA+    NA+38311  43.321  22.219  14.297
76858NA+    NA+38312  22.208  36.052  13.442
76859NA+    NA+38313  13.776  22.667   1.899
76860NA+    NA+38314   0.815  42.879  10.622
76861NA+    NA+38315  28.128  11.133   4.765
76862NA+    NA+38316   9.229  39.474  10.521
76863NA+    NA+38317  27.090  16.798  14.877
76864NA+    NA+38318  28.613  22.573  10.452
76865NA+    NA+38319  21.735  27.965  12.516
76866NA+    NA+38320  16.270  34.369  10.543
76867NA+    NA+38321  31.134  11.660  13.023
76868NA+    NA+38322  35.372  40.499   3.854
76869NA+    NA+38323  37.395  27.149  10.505
76870NA+    NA+38324   3.933  44.908  12.578
76871NA+    NA+38325  39.945  41.326   0.805
76872NA+    NA+38326  14.155  30.531   0.436
76873NA+    NA+38327  14.244   8.238   1.325
76874NA+    NA+38328  30.518   8.278   1.254
76875NA+    NA+38329  17.236   0.936   4.255
76876NA+    NA+38330  32.483  18.124   4.274
76877NA+    NA+38331   9.229  29.959   5.298
76878NA+    NA+38332   0.896  20.028   2.757
76879NA+    NA+38333  14.636   3.939   1.798
76880NA+    NA+38334  25.065   5.288   4.284
76881NA+    NA+38335  19.708  21.047  13.848
76882NA+    NA+38336  29.538   7.776   4.133
76883NA+    NA+38337  14.630   8.380  14.407
76884NA+    NA+38338   4.884  17.575   3.748
76885NA+    NA+38339  14.639  35.451  13.986
76886NA+    NA+38340   4.445  13.668  13.442
76887NA+    NA+38341  24.037  24.011   0.867
76888NA+    NA+38342  43.374  16.801  11.405
76889NA+    NA+38343  17.241  39.029   0.273
76890NA+    NA+38344   8.768   0.872   1.722
76891NA+    NA+38345   6.909  29.922   4.735
76892NA+    NA+38346  30.431  31.560   1.817
76893NA+    NA+38347  42.449  18.210  12.420
76894NA+    NA+38348  11.850   7.391  10.409
76895NA+    NA+38349   4.784  17.087  12.096
76896NA+    NA+38350  34.963  29.983   2.239
76897NA+    NA+38351  24.037  34.604  11.475
76898NA+    NA+38352   9.154  12.198   4.658
76899NA+    NA+38353  24.119  33.107   0.755
76900NA+    NA+38354   2.385  17.087  11.030
76901NA+    NA+38355   9.728  22.123   1.274
76902NA+    NA+38356  28.509  38.504   0.823
76903NA+    NA+38357  36.846   6.216  14.486
76904NA+    NA+38358   6.869   9.285   3.689
76905NA+    NA+38359  42.979  36.094  12.033
76906NA+    NA+38360  16.618  44.946  13.942
76907NA+    NA+38361  21.140  43.820  10.139
76908NA+    NA+38362   6.812   0.368  12.341
76909NA+    NA+38363   0.464  26.134   0.298
76910NA+    NA+38364  35.029  39.475   1.416
76911NA+    NA+38365  13.610  10.170   5.289
76912NA+    NA+38366  24.109  42.522  11.445
76913NA+    NA+38367  37.877  39.054  11.424
76914NA+    NA+38368  36.366  27.656   4.306
76915NA+    NA+38369  33.024  35.908  12.091
76916NA+    NA+38370  40.441  36.356   1.263
76917NA+    NA+38371  34.377  35.014  11.011
76918NA+    NA+38372   0.812  28.590  10.416
76919NA+    NA+38373  19.040  25.169  14.774
76920NA+    NA+38374   7.698  21.595  10.527
76921NA+    NA+38375  22.202   3.712  11.534
76922NA+    NA+38376  12.618  38.004   0.295
76923NA+    NA+38377  41.383   0.824  14.918
76924NA+    NA+38378  43.454  21.610   0.436
76925NA+    NA+38379  24.084  33.877  13.545
76926NA+    NA+38380  10.250  27.176   1.380
76927NA+    NA+38381   2.857  40.307   2.778
76928NA+    NA+38382  41.511  22.016   0.296
76929NA+    NA+38383  15.170  16.684  14.412
76930NA+    NA+38384  18.584  19.576  11.483
76931NA+    NA+38385  38.069   4.879   1.270
76932NA+    NA+38386  36.054   8.240  14.828
76933NA+    NA+38387  16.746   8.860   2.398
76934NA+    NA+38388  19.179  22.603  14.483
76935NA+    NA+38389  31.535   7.337  12.507
76936NA+    NA+38390  17.588  24.671  13.812
76937NA+    NA+38391   6.722  11.689   1.775
76938NA+    NA+38392  34.519   9.771   3.671
76939NA+    NA+38393  12.721  29.060   1.372
76940NA+    NA+38394  14.832  12.318   0.788
76941NA+    NA+38395  34.527  34.490   0.305
76942NA+    NA+38396  44.291  34.035  12.050
76943NA+    NA+38397  34.475  15.785  10.942
76944NA+    NA+38398   1.795  41.912  11.964
76945NA+    NA+38399  25.146  12.275  12.053
76946NA+    NA+38400  33.034  18.791   2.270
76947NA+    NA+38401   0.350  27.656  11.954
76948NA+    NA+38402   8.347  19.283   2.193
76949NA+    NA+38403   6.707  35.403  13.374
76950NA+    NA+38404  41.368   7.841  11.385
76951NA+    NA+38405   3.448  23.543  13.456
76952NA+    NA+38406  43.816  43.912  14.824
76953NA+    NA+38407  40.407  23.101   4.670
76954NA+    NA+38408  42.302  42.392   2.371
76955NA+    NA+38409  29.105  10.667   1.928
76956NA+    NA+38410  19.694   8.249   5.251
76957NA+    NA+38411  24.537   2.849   2.268
76958NA+    NA+38412  26.208  33.112   9.484
76959NA+    NA+38413  26.063  26.537   0.320
76960NA+    NA+38414  20.614  14.142   2.203
76961NA+    NA+38415   1.918  41.925   0.263
76962NA+    NA+38416  29.536  35.521   1.362
76963NA+    NA+38417  43.491  15.153  12.977
76964NA+    NA+38418  33.477  27.547   0.466
76965NA+    NA+38419  31.968  12.345  10.122
76966NA+    NA+38420   7.234  41.512   4.348
76967NA+    NA+38421  30.563  28.010   1.346
76968NA+    NA+38422   4.824  44.328  14.795
76969NA+    NA+38423  19.756   3.880   4.113
76970NA+    NA+38424  17.235  26.963  11.516
76971NA+    NA+38425   4.401  40.442  14.955
76972NA+    NA+38426  40.397  14.231  13.021
76973NA+    NA+38427  26.621  35.073   0.871
76974NA+    NA+38428  41.966  40.862  11.525
76975NA+    NA+38429   7.287  40.401   4.653
76976NA+    NA+38430  35.880  16.576  12.411
76977NA+    NA+38431  26.017  42.828  10.523
76978NA+    NA+38432  16.762   0.932   2.187
76979NA+    NA+38433  28.054  40.966  13.490
76980NA+    NA+38434  35.088  28.952  12.497
76981NA+    NA+38435  10.357   4.943  14.284
76982NA+    NA+38436   8.751  22.683   2.754
76983NA+    NA+38437  10.846  41.442  14.927
76984NA+    NA+38438   6.383  37.507   4.681
76985NA+    NA+38439  30.419  16.644   3.324
76986NA+    NA+38440  15.154  14.662  10.914
76987NA+    NA+38441  43.846  23.702   1.412
76988NA+    NA+38442  34.924  23.046  12.958
76989NA+    NA+38443  12.179  34.610   2.751
76990NA+    NA+38444   6.311  14.273   0.751
76991NA+    NA+38445  34.599  12.630  13.461
76992NA+    NA+38446  32.914  44.448  14.458
76993NA+    NA+38447  25.580  38.915  13.027
76994NA+    NA+38448  35.368  32.952   1.811
76995NA+    NA+38449  21.548  11.654  14.365
76996NA+    NA+38450  44.965  34.024  13.859
76997NA+    NA+38451  35.544  36.506   4.687
76998NA+    NA+38452  18.676  41.018   0.839
76999NA+    NA+38453  32.089   8.885  11.477
77000NA+    NA+38454   8.264  11.322  11.518
77001NA+    NA+38455   4.769  16.084   2.681
77002NA+    NA+38456   0.483  41.906   1.253
77003NA+    NA+38457  25.651  10.773  14.821
77004NA+    NA+38458  20.130  17.665  14.326
77005NA+    NA+38459  28.145  19.575  10.991
77006NA+    NA+38460   6.696  41.838  11.906
77007NA+    NA+38461  24.094  24.625  13.826
77008NA+    NA+38462  41.861  44.901  12.445
77009NA+    NA+38463  17.734  28.123   3.374
77010NA+    NA+38464  13.651  24.112  10.888
77011NA+    NA+38465  15.266  17.230  10.421
77012NA+    NA+38466  37.427  24.023  12.359
77013NA+    NA+38467  23.490  25.972   1.439
77014NA+    NA+38468  34.061  38.519   0.902
77015NA+    NA+38469   6.746  12.832  13.374
77016NA+    NA+38470  18.259  43.826   0.247
77017NA+    NA+38471  27.475   6.885   3.236
77018NA+    NA+38472  34.097   6.339   0.281
77019NA+    NA+38473  26.126  25.045   4.753
77020NA+    NA+38474  16.293  35.097  10.534
77021NA+    NA+38475  13.214   9.714  13.892
77022NA+    NA+38476  35.440  29.147   4.342
77023NA+    NA+38477  31.153  10.846   5.157
77024NA+    NA+38478   6.740  11.161  13.923
77025NA+    NA+38479   9.219   3.340   0.340
77026NA+    NA+38480  21.624  26.104  12.509
77027NA+    NA+38481  17.626  35.993  14.476
77028NA+    NA+38482   7.219  19.588   3.301
77029NA+    NA+38483  27.114  38.559   1.275
77030NA+    NA+38484  34.922  19.539  11.891
77031NA+    NA+38485   0.973  31.419   4.351
77032NA+    NA+38486  14.727   7.716   0.342
77033NA+    NA+38487   5.349  35.893   1.314
77034NA+    NA+38488  32.938  38.539   2.265
77035NA+    NA+38489  44.777  32.970   1.861
77036NA+    NA+38490  23.100  41.971   4.611
77037NA+    NA+38491   9.676  17.271  14.913
77038NA+    NA+38492  27.024   5.839   4.636
77039NA+    NA+38493  28.962  24.056   1.896
77040NA+    NA+38494   4.841  18.729   2.878
77041NA+    NA+38495  30.632   6.285  11.545
77042NA+    NA+38496   7.180  31.517  12.471
77043NA+    NA+38497  19.096  12.292  14.497
77044NA+    NA+38498   3.226  13.766   4.184
77045NA+    NA+38499  10.152  37.548  13.798
77046NA+    NA+38500  43.421  14.808   1.930
77047NA+    NA+38501   6.901  13.350  14.965
77048NA+    NA+38502  10.196  21.107   2.827
77049NA+    NA+38503   5.245  36.924   1.821
77050NA+    NA+38504  38.448   1.858   0.344
77051NA+    NA+38505  37.504  44.824  13.517
77052NA+    NA+38506  43.801   3.232  11.381
77053NA+    NA+38507  36.092  41.362  14.873
77054NA+    NA+38508  19.747  17.257  14.505
77055NA+    NA+38509   1.261  32.605  14.772
77056NA+    NA+38510   4.217  25.197   1.234
77057NA+    NA+38511  40.320  28.496  10.919
77058NA+    NA+38512  43.291  16.753   3.710
77059NA+    NA+38513   7.712   7.682   2.902
77060NA+    NA+38514  15.116  25.212  13.508
77061NA+    NA+38515  25.674  43.471  14.320
77062NA+    NA+38516  31.049  12.125  12.980
77063NA+    NA+38517  13.192  32.928  14.782
77064NA+    NA+38518  27.132  36.035  14.772
77065NA+    NA+38519  40.305  35.974  12.373
77066NA+    NA+38520  24.623  14.283  12.911
77067NA+    NA+38521  23.646  14.172   1.356
77068NA+    NA+38522  15.186  39.344  12.459
77069NA+    NA+38523  30.515  14.624  12.366
77070NA+    NA+38524   0.893  21.682   4.127
77071NA+    NA+38525  36.354  15.217  10.911
77072NA+    NA+38526  17.751   4.930   4.131
77073NA+    NA+38527  29.602  13.642   3.730
77074NA+    NA+38528  22.055  29.004   2.740
77075NA+    NA+38529  20.603  29.473   0.889
77076NA+    NA+38530  16.634  26.201  14.917
77077NA+    NA+38531  30.095  42.436  11.596
77078NA+    NA+38532   8.173  26.027  12.413
77079NA+    NA+38533  27.142  18.740  12.474
77080NA+    NA+38534  14.124  29.430  14.470
77081NA+    NA+38535  39.947  34.420  11.450
77082NA+    NA+38536  21.574  27.123   2.707
77083NA+    NA+38537  12.155  43.294  10.519
77084NA+    NA+38538  34.484  44.908   1.903
77085NA+    NA+38539   3.768   0.808  12.880
77086NA+    NA+38540  19.726  39.845   4.615
77087NA+    NA+38541  33.125  39.957   4.741
77088NA+    NA+38542   1.408  16.767  11.856
77089NA+    NA+38543  30.989  34.549   3.242
77090NA+    NA+38544  12.344  30.118  12.048
77091NA+    NA+38545   7.363  28.157  11.886
77092NA+    NA+38546  44.978   3.872   1.225
77093NA+    NA+38547  42.519  37.571  13.987
77094NA+    NA+38548  37.937  41.034   1.860
77095NA+    NA+38549  35.405  17.126  12.078
77096NA+    NA+38550  41.835   8.858  11.484
77097NA+    NA+38551  40.929   6.890   3.311
77098NA+    NA+38552  37.000  36.503   0.795
77099NA+    NA+38553  42.470  21.652  13.410
77100NA+    NA+38554  25.152  30.581   0.932
77101NA+    NA+38555  43.447   4.243  11.398
77102NA+    NA+38556  11.130  34.520  12.554
77103NA+    NA+38557  17.601  19.756   3.834
77104NA+    NA+38558   9.261  34.999   2.324
77105NA+    NA+38559  30.077  40.820  13.412
77106NA+    NA+38560  17.737   3.411   4.288
77107NA+    NA+38561  32.592  41.322   3.160
77108NA+    NA+38562   5.414   5.381  11.561
77109NA+    NA+38563  32.407  23.193   4.722
77110NA+    NA+38564  27.606   2.306   4.677
77111NA+    NA+38565  28.532  17.662  12.447
77112NA+    NA+38566  35.042  41.922  10.975
77113NA+    NA+38567   8.761   0.254   1.316
77114NA+    NA+38568   2.268  44.448  11.491
77115NA+    NA+38569  21.745   5.425   0.438
77116NA+    NA+38570  29.575  13.610   0.385
77117NA+    NA+38571  29.536  42.321   0.917
77118NA+    NA+38572  14.749  14.797   2.332
77119NA+    NA+38573  26.139  17.100  13.392
77120NA+    NA+38574  31.145  37.900   4.808
77121NA+    NA+38575   4.727  17.107   2.852
77122NA+    NA+38576  40.382  27.641   2.259
77123NA+    NA+38577  31.085  13.727   1.756
77124NA+    NA+38578  34.519  25.206  12.935
77125NA+    NA+38579  44.298  35.025  12.904
77126NA+    NA+38580  23.684  11.643   0.304
77127NA+    NA+38581  42.311   6.750  11.074
77128NA+    NA+38582  43.854  19.160  12.900
77129NA+    NA+38583  34.024  13.671  10.641
77130NA+    NA+38584  41.798  15.656  13.965
77131NA+    NA+38585   3.928   4.241   2.413
77132NA+    NA+38586  41.827  33.051   1.887
77133NA+    NA+38587  21.593  20.034  11.460
77134NA+    NA+38588  31.452  30.976  13.931
77135NA+    NA+38589   8.706  11.346   4.631
77136NA+    NA+38590  28.163  26.620   4.143
77137NA+    NA+38591  32.433  35.534   0.882
77138NA+    NA+38592  40.383  29.545  11.551
77139NA+    NA+38593  39.917  18.284  14.446
77140NA+    NA+38594  15.154   9.869  12.370
77141NA+    NA+38595   7.857  30.090   1.787
77142NA+    NA+38596  27.623  41.818  14.809
77143NA+    NA+38597   1.280  30.032  14.446
77144NA+    NA+38598  28.570  31.573  10.530
77145NA+    NA+38599   4.207  28.675   1.400
77146NA+    NA+38600  42.871  27.165   4.337
77147NA+    NA+38601  10.380  29.059   2.392
77148NA+    NA+38602  11.345   5.817   4.836
77149NA+    NA+38603  21.219  23.677  12.422
77150NA+    NA+38604  15.159  27.507  12.965
77151NA+    NA+38605  13.698   6.203  13.316
77152NA+    NA+38606   7.249  18.617   0.399
77153NA+    NA+38607   6.262  35.527   2.849
77154NA+    NA+38608  11.695  26.602  11.050
77155NA+    NA+38609   3.417  36.451  12.011
77156NA+    NA+38610  44.317   2.314  11.523
77157NA+    NA+38611   8.238   7.784   4.341
77158NA+    NA+38612  42.861  35.961  11.539
77159NA+    NA+38613  25.062  36.856  12.009
77160NA+    NA+38614   9.196  25.079  10.899
77161NA+    NA+38615   4.335  36.495   3.193
77162NA+    NA+38616  19.153   7.343  14.973
77163NA+    NA+38617  19.541   0.900   2.411
77164NA+    NA+38618  38.441  33.101  14.787
77165NA+    NA+38619  29.596   3.228   1.858
77166NA+    NA+38620  41.873  42.916  12.532
77167NA+    NA+38621   8.206  20.269   3.683
77168NA+    NA+38622  19.555  39.033   2.800
77169NA+    NA+38623  17.277  20.179   1.276
77170NA+    NA+38624  33.435  29.167  11.124
77171NA+    NA+38625  35.537  16.740  12.520
77172NA+    NA+38626  29.604  25.700   3.154
77173NA+    NA+38627  25.564  10.239   0.919
77174NA+    NA+38628  15.815  22.213   1.368
77175NA+    NA+38629  19.211  23.085  12.380
77176NA+    NA+38630  35.603   4.758  11.083
77177NA+    NA+38631   4.929  17.591   1.281
77178NA+    NA+38632  36.974  32.116   1.930
77179NA+    NA+38633   2.278  14.211  11.570
77180NA+    NA+38634   1.948  35.365   3.335
77181NA+    NA+38635   0.273  36.546   3.244
77182NA+    NA+38636  32.078  44.870  14.934
77183NA+    NA+38637  11.234   9.324  12.498
77184NA+    NA+38638   1.373  17.063  14.303
77185NA+    NA+38639   5.717   2.379   4.611
77186NA+    NA+38640  17.078  23.704  12.454
77187NA+    NA+38641  41.966  14.695   2.689
77188NA+    NA+38642  10.711  30.447   1.879
77189NA+    NA+38643   5.349  13.283  14.428
77190NA+    NA+38644  40.825  10.233  10.119
77191NA+    NA+38645  16.283   0.270   0.907
77192NA+    NA+38646  36.582   5.895   0.768
77193NA+    NA+38647  15.649  32.027  13.450
77194NA+    NA+38648  25.547  31.424  13.855
77195NA+    NA+38649  33.991   1.306   1.406
77196NA+    NA+38650  23.021  40.978   4.243
77197NA+    NA+38651  23.113  15.627  13.320
77198NA+    NA+38652  10.265  16.795  13.421
77199NA+    NA+38653  35.060  37.500  13.903
77200NA+    NA+38654  15.741   9.855  14.494
77201NA+    NA+38655  26.677  41.797  13.888
77202NA+    NA+38656  33.016  42.302   1.288
77203NA+    NA+38657  24.174  16.142  11.926
77204NA+    NA+38658  16.666  17.284   3.770
77205NA+    NA+38659   6.726  21.018   3.223
77206NA+    NA+38660  41.364  39.403  14.968
77207NA+    NA+38661  23.561  10.797   0.745
77208NA+    NA+38662  41.976  36.922   1.303
77209NA+    NA+38663  17.278  32.909   4.713
77210NA+    NA+38664   0.270  31.519   2.708
77211NA+    NA+38665  13.267  36.074  14.445
77212NA+    NA+38666  23.553  33.944  14.436
77213NA+    NA+38667  20.681  29.947  14.885
77214NA+    NA+38668  17.642  41.527  13.852
77215NA+    NA+38669  30.435  12.237   3.223
77216NA+    NA+38670   8.889  15.145   1.739
77217NA+    NA+38671  31.064  15.814  11.568
77218NA+    NA+38672   1.466  32.091   3.380
77219NA+    NA+38673  23.509  17.586  11.492
77220NA+    NA+38674  36.529  14.169  13.817
77221NA+    NA+38675  37.531  16.289  10.406
77222NA+    NA+38676   0.361  20.544   4.610
77223NA+    NA+38677  20.742   1.769   2.889
77224NA+    NA+38678  24.675  33.937  12.556
77225NA+    NA+38679  12.846  24.193   3.754
77226NA+    NA+38680  44.876  31.998  12.847
77227NA+    NA+38681  41.034  13.844  11.554
77228NA+    NA+38682  40.498  40.039   2.861
77229NA+    NA+38683  42.340  25.989   1.910
77230NA+    NA+38684  37.336  34.492   2.728
77231NA+    NA+38685  31.985  15.744  13.365
77232NA+    NA+38686   9.215  20.648  13.470
77233NA+    NA+38687   3.825  26.050  13.834
77234NA+    NA+38688   2.888  24.678  12.078
77235NA+    NA+38689  42.391  36.483  13.947
77236NA+    NA+38690  30.163   6.823   4.287
77237NA+    NA+38691  20.613   6.310  12.474
77238NA+    NA+38692   3.380  38.521  13.393
77239NA+    NA+38693   7.266   3.779   3.147
77240NA+    NA+38694  43.472  29.608  13.939
77241NA+    NA+38695  31.622  13.293   3.154
77242NA+    NA+38696  12.131  41.524   4.753
77243NA+    NA+38697   7.716  14.218   0.960
77244NA+    NA+38698  11.642  23.131  14.881
77245NA+    NA+38699  23.054  20.653   4.644
77246NA+    NA+38700   5.880  35.981  13.986
77247NA+    NA+38701  36.351  10.343  13.977
77248NA+    NA+38702  23.168  20.123   0.414
77249NA+    NA+38703  13.754   7.731   4.331
77250NA+    NA+38704  30.139  35.409   4.826
77251NA+    NA+38705  31.952   1.387  13.497
77252NA+    NA+38706  35.538  28.545   1.295
77253NA+    NA+38707   2.326   9.299   1.348
77254NA+    NA+38708  20.668  36.093   4.794
77255NA+    NA+38709  20.650   0.761  14.991
77256NA+    NA+38710   7.679  22.055  14.397
77257NA+    NA+38711  20.624  40.973  11.093
77258NA+    NA+38712  16.636  40.009   0.773
77259NA+    NA+38713  34.863  27.542  13.451
77260NA+    NA+38714  11.800  28.491   0.470
77261NA+    NA+38715   1.851  10.688   3.707
77262NA+    NA+38716  11.207  16.162   9.925
77263NA+    NA+38717  23.521  22.578   1.868
77264NA+    NA+38718  43.852  25.669  12.924
77265NA+    NA+38719   3.756  14.618   4.757
77266NA+    NA+38720  34.925  15.087  10.416
77267NA+    NA+38721   0.927  33.432   1.824
77268NA+    NA+38722  27.187  28.135  11.949
77269NA+    NA+38723  38.034   0.315   4.614
77270NA+    NA+38724  34.923   7.766  12.385
77271NA+    NA+38725   5.863   4.440   4.228
77272NA+    NA+38726  20.249  19.724   1.212
77273NA+    NA+38727  38.990   9.664   0.759
77274NA+    NA+38728  39.820  31.586   1.392
77275NA+    NA+38729  29.506  19.167  11.044
77276NA+    NA+38730  11.738  29.959  12.574
77277NA+    NA+38731  40.846  32.962  11.007
77278NA+    NA+38732  11.252  10.875   4.677
77279NA+    NA+38733  26.986  35.888   4.254
77280NA+    NA+38734  33.515  43.931   1.285
77281NA+    NA+38735  40.449  19.644  14.776
77282NA+    NA+38736   3.801  36.402  11.859
77283NA+    NA+38737  28.102  31.054  13.453
77284NA+    NA+38738  34.076  20.244   1.333
77285NA+    NA+38739  43.404  14.798  13.968
77286NA+    NA+38740  23.712  36.873   0.385
77287NA+    NA+38741  16.160  36.992  10.942
77288NA+    NA+38742  35.390  34.053  11.494
77289NA+    NA+38743  24.979  33.421   5.291
77290NA+    NA+38744  17.631  38.353   3.175
77291NA+    NA+38745  32.069   3.889   0.864
77292NA+    NA+38746  12.649  20.046  13.911
77293NA+    NA+38747  35.475  31.609   4.779
77294NA+    NA+38748  41.486  29.981   0.875
77295NA+    NA+38749   3.817   3.803   3.300
77296NA+    NA+38750   0.320  42.003   3.840
77297NA+    NA+38751  10.165  39.008   1.392
77298NA+    NA+38752  25.688   8.773   5.255
77299NA+    NA+38753  28.608  14.736   3.262
77300NA+    NA+38754   9.682  27.665   2.682
77301NA+    NA+38755  40.808   1.416   4.167
77302NA+    NA+38756  18.749  31.582  12.487
77303NA+    NA+38757  21.026  39.027   3.766
77304NA+    NA+38758  19.673  27.150   2.413
77305NA+    NA+38759  30.585  39.903  11.059
77306NA+    NA+38760  40.423  18.285  13.993
77307NA+    NA+38761  29.437  44.859   3.669
77308NA+    NA+38762   4.719  33.077   0.283
77309NA+    NA+38763  43.912  10.174  11.024
77310NA+    NA+38764  18.696   9.759  12.537
77311NA+    NA+38765  24.510  33.449   0.818
77312NA+    NA+38766   4.266  34.975   3.279
77313NA+    NA+38767  35.939  40.391  11.448
77314NA+    NA+38768  35.531  25.095  14.863
77315NA+    NA+38769  29.032  25.630   2.869
77316NA+    NA+38770   8.702  11.303   1.771
77317NA+    NA+38771  31.437  23.181   0.804
77318NA+    NA+38772  30.589  17.655  12.491
77319NA+    NA+38773   1.346  37.424  13.899
77320NA+    NA+38774  16.692  11.166  13.511
77321NA+    NA+38775  44.879  14.099   2.769
77322NA+    NA+38776  16.622  33.054  13.545
77323NA+    NA+38777  38.830   2.738  14.337
77324NA+    NA+38778   0.252  10.787  10.530
77325NA+    NA+38779  37.560  11.231  12.872
77326NA+    NA+38780  44.392   1.467  12.963
77327NA+    NA+38781  35.022  15.710   2.668
77328NA+    NA+38782  10.639   2.915   3.252
77329NA+    NA+38783  38.847  14.182   4.165
77330NA+    NA+38784  25.710  16.606  12.409
77331NA+    NA+38785  39.518  36.864   4.180
77332NA+    NA+38786  28.098  27.168   1.883
77333NA+    NA+38787   5.894   4.823  10.901
77334NA+    NA+38788  15.709  22.613   2.412
77335NA+    NA+38789  24.557  32.978   5.591
77336NA+    NA+38790  24.639  27.626   3.690
77337NA+    NA+38791   9.330   7.689   4.797
77338NA+    NA+38792  15.298   3.395  11.053
77339NA+    NA+38793  37.952  21.572  14.784
77340NA+    NA+38794  11.842  35.366  12.353
77341NA+    NA+38795  13.656   2.734  14.797
77342NA+    NA+38796  32.454  32.025   4.808
77343NA+    NA+38797  33.131  18.690  10.491
77344NA+    NA+38798  34.444  30.082  12.834
77345NA+    NA+38799  44.433  32.096  13.316
77346NA+    NA+38800   9.787   5.774  10.626
77347NA+    NA+38801  16.794  25.490   3.648
77348NA+    NA+38802  22.192  43.784  13.325
77349NA+    NA+38803  27.469  13.176   2.879
77350NA+    NA+38804  38.963  39.366  13.401
77351NA+    NA+38805  23.084  10.363   4.282
77352NA+    NA+38806   7.670  39.860   4.119
77353NA+    NA+38807  39.475  39.976   3.197
77354NA+    NA+38808   6.182  11.259  12.859
77355NA+    NA+38809  17.078  43.924  13.420
77356NA+    NA+38810  13.612  34.940   2.204
77357NA+    NA+38811   8.215  22.209  12.383
77358NA+    NA+38812  38.848  12.820   9.954
77359NA+    NA+38813  21.071  39.541   4.770
77360NA+    NA+38814   4.419  33.513   3.355
77361NA+    NA+38815  38.980  21.184  13.964
77362NA+    NA+38816   6.680  11.866   3.368
77363NA+    NA+38817  28.519  29.019  13.353
77364NA+    NA+38818  16.159   5.383  12.070
77365NA+    NA+38819  30.928  44.897  14.769
77366NA+    NA+38820  14.185  17.279   5.197
77367NA+    NA+38821  14.652  28.961  10.957
77368NA+    NA+38822  36.061  33.465   4.710
77369NA+    NA+38823  28.535   5.760   4.831
77370NA+    NA+38824  15.613   9.191  10.073
77371NA+    NA+38825  24.610  27.984  11.461
77372NA+    NA+38826  38.549   5.373   2.191
77373NA+    NA+38827  42.511  23.160  12.388
77374NA+    NA+38828  37.062  26.701  11.103
77375NA+    NA+38829  37.977   0.962  12.892
77376NA+    NA+38830   6.820  22.662  10.539
77377NA+    NA+38831  10.742  19.739  11.374
77378NA+    NA+38832   8.738  21.733  11.924
77379NA+    NA+38833  26.998  11.793   4.274
77380NA+    NA+38834  36.352  15.154  11.519
77381NA+    NA+38835  12.626  11.824   2.415
77382NA+    NA+38836  10.251  18.144   3.870
77383NA+    NA+38837   1.905   8.236   3.152
77384NA+    NA+38838   0.784  25.075   4.711
77385NA+    NA+38839  25.059   5.746  14.918
77386NA+    NA+38840  44.351  24.723  11.041
77387NA+    NA+38841  43.437  28.438   1.757
77388NA+    NA+38842  15.285  32.550  13.911
77389NA+    NA+38843  28.671   8.849   1.698
77390NA+    NA+38844  20.722  18.127  12.001
77391NA+    NA+38845  28.442  11.185  13.830
77392NA+    NA+38846  21.204  38.357   4.755
77393NA+    NA+38847  13.621  22.056   3.326
77394NA+    NA+38848  27.652  17.071   0.255
77395NA+    NA+38849  40.354  15.726   4.703
77396NA+    NA+38850  40.981  44.848   2.847
77397NA+    NA+38851  17.095  26.017   9.958
77398NA+    NA+38852  35.876  15.763   0.446
77399NA+    NA+38853  13.294  39.324   1.280
77400NA+    NA+38854  34.055  28.477  13.369
77401NA+    NA+38855   8.391  34.947  13.006
77402NA+    NA+38856   6.800  37.983  14.021
77403NA+    NA+38857  30.012  40.004   3.297
77404NA+    NA+38858   6.748  33.025  10.465
77405NA+    NA+38859  30.491  31.529   4.680
77406NA+    NA+38860   3.768   5.230   1.438
77407NA+    NA+38861  16.759  13.825   0.462
77408NA+    NA+38862  43.298  35.437   4.834
77409NA+    NA+38863  43.920  27.510  13.841
77410NA+    NA+38864  39.972   0.775   0.901
77411NA+    NA+38865  39.821  23.103  13.968
77412NA+    NA+38866   7.230  19.069   2.225
77413NA+    NA+38867   6.193   9.211  11.992
77414NA+    NA+38868  12.341  38.038   4.125
77415NA+    NA+38869   9.831   3.856   4.726
77416NA+    NA+38870  40.899   6.771   2.268
77417NA+    NA+38871  21.030  19.076   1.212
77418NA+    NA+38872  22.595  16.294   4.751
77419NA+    NA+38873   9.737  20.272   0.910
77420NA+    NA+38874  21.692   5.844   2.391
77421NA+    NA+38875  20.042  37.398   0.893
77422NA+    NA+38876  19.663   9.272  14.869
77423NA+    NA+38877  17.785  23.520   1.292
77424NA+    NA+38878  30.584  20.077   4.232
77425NA+    NA+38879   7.770   3.794   1.790
77426NA+    NA+38880   7.196  10.284  11.900
77427NA+    NA+38881  15.783  16.744   4.802
77428NA+    NA+38882   7.816  26.644  14.425
77429NA+    NA+38883   2.786  40.399   3.775
77430NA+    NA+38884  41.328  39.458  10.581
77431NA+    NA+38885  43.018  27.053  13.393
77432NA+    NA+38886  28.524   1.845   1.910
77433NA+    NA+38887  12.663  41.379   0.271
77434NA+    NA+38888   4.396  24.194   0.256
77435NA+    NA+38889  18.740  29.157   1.700
77436NA+    NA+38890  20.057  37.867   2.202
77437NA+    NA+38891  25.136  20.039  14.978
77438NA+    NA+38892   0.288  43.934  13.401
77439NA+    NA+38893   8.742  22.724  10.410
77440NA+    NA+38894  28.527  10.222  11.949
77441NA+    NA+38895  23.079  38.920   4.832
77442NA+    NA+38896  40.357  23.687  12.942
77443NA+    NA+38897  31.121  25.110  10.420
77444NA+    NA+38898  25.582   0.334  10.557
77445NA+    NA+38899  34.414   2.963  11.882
77446NA+    NA+38900  33.987   9.827   0.907
77447NA+    NA+38901  41.967  13.705  13.006
77448NA+    NA+38902   3.925  16.751   2.382
77449NA+    NA+38903  16.141  30.164   4.350
77450NA+    NA+38904  23.622  10.380   3.203
77451NA+    NA+38905  35.472   8.868   2.808
77452NA+    NA+38906  13.119   8.709  14.489
77453NA+    NA+38907  35.429   2.749  14.483
77454NA+    NA+38908  41.379   1.775  10.574
77455NA+    NA+38909   2.821  32.604   1.891
77456NA+    NA+38910  17.083  28.109   3.705
77457NA+    NA+38911  30.048  22.082  14.019
77458NA+    NA+38912  40.315  32.073  14.364
77459NA+    NA+38913  41.373  34.088  11.380
77460NA+    NA+38914   2.313  24.146  11.545
77461NA+    NA+38915  40.343  41.410   0.835
77462NA+    NA+38916  44.490  23.987   0.304
77463NA+    NA+38917  31.622  30.109   1.279
77464NA+    NA+38918   1.451  21.637  12.923
77465NA+    NA+38919   5.799   3.445  12.474
77466NA+    NA+38920  32.524  44.892   4.253
77467NA+    NA+38921   9.844   2.881   4.334
77468NA+    NA+38922   8.847   2.765  13.543
77469NA+    NA+38923  36.361  35.921  11.393
77470NA+    NA+38924  41.415  36.978  14.005
77471NA+    NA+38925   9.835  27.081   0.420
77472NA+    NA+38926   2.361   5.728  12.937
77473NA+    NA+38927  26.469  33.908   2.697
77474NA+    NA+38928  22.695  35.496   2.389
77475NA+    NA+38929   9.245  10.866  11.065
77476NA+    NA+38930   6.847  10.662  14.880
77477NA+    NA+38931  36.912  25.579   2.337
77478NA+    NA+38932  34.922  11.268  13.495
77479NA+    NA+38933  24.666  24.644   0.924
77480NA+    NA+38934  14.200  36.885  11.117
77481NA+    NA+38935  19.652   7.203  13.001
77482NA+    NA+38936  32.949  40.961   3.175
77483NA+    NA+38937  34.466  43.359  12.414
77484NA+    NA+38938   8.338  33.458  11.374
77485NA+    NA+38939  27.683  38.413  14.512
77486NA+    NA+38940  44.287  38.840  10.071
77487NA+    NA+38941  38.834   4.283  10.912
77488NA+    NA+38942  12.735   1.895   4.270
77489NA+    NA+38943  28.152  44.977   4.734
77490NA+    NA+38944  37.939  20.572  13.368
77491NA+    NA+38945   6.860   9.728  11.093
77492NA+    NA+38946  32.087  21.061  13.517
77493NA+    NA+38947  25.671  40.375   1.839
77494NA+    NA+38948  10.717  22.500  14.023
77495NA+    NA+38949  37.427  32.566  14.304
77496NA+    NA+38950  44.303  15.599   4.743
77497NA+    NA+38951  36.081  34.104   2.899
77498NA+    NA+38952  36.955  15.176  13.314
77499NA+    NA+38953  18.730  36.556  10.528
77500NA+    NA+38954  15.698  22.018   1.728
77501NA+    NA+38955  40.406  10.334  12.865
77502NA+    NA+38956  34.560   9.376  11.607
77503NA+    NA+38957  28.525   8.755  10.596
77504NA+    NA+38958   5.763  31.628   5.779
77505NA+    NA+38959  27.157  18.558   0.795
77506NA+    NA+38960  35.591  14.336  11.128
77507NA+    NA+38961   1.757  28.491   2.312
77508NA+    NA+38962  29.529  19.125   0.750
77509NA+    NA+38963  31.409  25.638   1.839
77510NA+    NA+38964  42.310   4.727  14.485
77511NA+    NA+38965   2.353   3.393   0.777
77512NA+    NA+38966  33.042  39.380   1.309
77513NA+    NA+38967   3.863  22.179  11.436
77514NA+    NA+38968  42.979  23.048   0.461
77515NA+    NA+38969  36.976  36.582   1.427
77516NA+    NA+38970  24.626  24.590   2.748
77517NA+    NA+38971   2.426  23.655   4.230
77518NA+    NA+38972  10.337  39.384   5.166
77519NA+    NA+38973   9.176  16.111  12.394
77520NA+    NA+38974   6.790  14.694   1.321
77521NA+    NA+38975  27.018  13.306   1.768
77522NA+    NA+38976  37.367  19.684  14.446
77523NA+    NA+38977  19.679  13.156   3.295
77524NA+    NA+38978  14.179  17.158  13.539
77525NA+    NA+38979  40.989  37.863   9.558
77526NA+    NA+38980  34.085   1.425   0.482
77527NA+    NA+38981  38.552  43.886   3.840
77528NA+    NA+38982  13.140  12.133  10.405
77529NA+    NA+38983  34.433  13.764   2.692
77530NA+    NA+38984  36.945  36.875  13.973
77531NA+    NA+38985  44.864  39.872  10.619
77532NA+    NA+38986   3.231  21.723  10.624
77533NA+    NA+38987  13.676  29.106   4.753
77534NA+    NA+38988  35.930  13.816  13.897
77535NA+    NA+38989  23.993  40.004   2.687
77536NA+    NA+38990  11.263  42.477  14.002
77537NA+    NA+38991  25.112  40.493   0.280
77538NA+    NA+38992  20.709   7.788   1.358
77539NA+    NA+38993   6.688  31.415   4.343
77540NA+    NA+38994   6.251  34.392   2.721
77541NA+    NA+38995   6.793   6.351   0.726
77542NA+    NA+38996  16.697   8.679   3.193
77543NA+    NA+38997   8.378   0.775  13.468
77544NA+    NA+38998  40.985  14.308  14.769
77545NA+    NA+38999  44.430  25.107  10.922
77546NA+    NA+39000  38.876  19.144  10.543
77547NA+    NA+39001  29.014  35.471   0.923
77548NA+    NA+39002  43.781  15.251   2.797
77549NA+    NA+39003  29.948   8.219   3.350
77550NA+    NA+39004  27.020  39.415  13.985
77551NA+    NA+39005  16.668  40.378  14.314
77552NA+    NA+39006   6.813   5.752  13.918
77553NA+    NA+39007  29.588   7.298  14.915
77554NA+    NA+39008   2.337  25.667  11.929
77555NA+    NA+39009  40.866   1.401   1.920
77556NA+    NA+39010  25.702  35.913  14.900
77557NA+    NA+39011   2.910  34.559   4.807
77558NA+    NA+39012  36.081  24.549  11.118
77559NA+    NA+39013  14.202  16.692  10.432
77560NA+    NA+39014  25.518  10.184   3.801
77561NA+    NA+39015   6.322  31.989   2.662
77562NA+    NA+39016  28.027   6.205  14.968
77563NA+    NA+39017  25.607  35.515   4.334
77564NA+    NA+39018   3.278  44.799  12.068
77565NA+    NA+39019  34.914  17.624  11.435
77566NA+    NA+39020  36.503  29.991   3.785
77567NA+    NA+39021  42.014   3.306  14.833
77568NA+    NA+39022  13.172  21.110  12.362
77569NA+    NA+39023  26.022   2.354  14.960
77570NA+    NA+39024  12.262  23.104  11.010
77571NA+    NA+39025  14.689  19.251   5.221
77572NA+    NA+39026  29.958  10.319   1.752
77573NA+    NA+39027  31.907  20.696   2.778
77574NA+    NA+39028   1.452  29.931   4.645
77575NA+    NA+39029  37.524  13.677   3.693
77576NA+    NA+39030  20.202  38.493  14.451
77577NA+    NA+39031  24.644  12.664   2.823
77578NA+    NA+39032   4.885  30.501   3.192
77579NA+    NA+39033  10.200  18.768   0.331
77580NA+    NA+39034  29.977  42.935   1.410
77581NA+    NA+39035  14.628  42.403  10.998
77582NA+    NA+39036  10.319  21.552  12.978
77583NA+    NA+39037  13.213  40.858   0.303
77584NA+    NA+39038   8.189  15.089   3.639
77585NA+    NA+39039  36.380  20.538   3.295
77586NA+    NA+39040  43.396  44.378   2.404
77587NA+    NA+39041   8.792  42.804  11.964
77588NA+    NA+39042  28.005  14.824  13.006
77589NA+    NA+39043  32.558   0.328  11.594
77590NA+    NA+39044   1.441  30.520  10.476
77591NA+    NA+39045  19.155   8.377  14.454
77592NA+    NA+39046  13.111  19.694   0.931
77593NA+    NA+39047   4.878  42.852   0.453
77594NA+    NA+39048  13.754  18.596   1.750
77595NA+    NA+39049  27.123  23.987   0.322
77596NA+    NA+39050  42.899   2.749   4.326
77597NA+    NA+39051   0.847   3.827  13.868
77598NA+    NA+39052  13.744   9.222  10.970
77599NA+    NA+39053   6.854  30.044   1.418
77600NA+    NA+39054   1.441  13.274  13.323
77601NA+    NA+39055   0.884  17.565  11.909
77602NA+    NA+39056  41.347  40.315   0.928
77603NA+    NA+39057   0.925  23.064  14.821
77604NA+    NA+39058   0.281  31.982   2.414
77605NA+    NA+39059  23.036  27.524  13.387
77606NA+    NA+39060  29.523   5.378  14.946
77607NA+    NA+39061  30.057  10.329   4.802
77608NA+    NA+39062  30.145   7.841   4.219
77609NA+    NA+39063  39.352   1.838   3.767
77610NA+    NA+39064  17.175  44.932  14.468
77611NA+    NA+39065  21.615  22.592   4.210
77612NA+    NA+39066  28.124  37.356  10.156
77613NA+    NA+39067   9.299   8.186  11.042
77614NA+    NA+39068   9.335  11.807   2.235
77615NA+    NA+39069  17.562  21.733  12.529
77616NA+    NA+39070   7.735  28.485  14.987
77617NA+    NA+39071  42.281   3.252  11.466
77618NA+    NA+39072  24.151  43.882  10.585
77619NA+    NA+39073  23.093  38.005   0.885
77620NA+    NA+39074  22.074  27.568  12.375
77621NA+    NA+39075   6.226  30.646   3.774
77622NA+    NA+39076  32.121  38.505  12.907
77623NA+    NA+39077  11.631  40.353   9.638
77624NA+    NA+39078  30.594  22.241  10.966
77625NA+    NA+39079   6.767  37.535  14.944
77626NA+    NA+39080  19.167  38.417  13.408
77627NA+    NA+39081  13.220  17.141  11.033
77628NA+    NA+39082  17.281  19.610   5.249
77629NA+    NA+39083  41.939   2.359   3.661
77630NA+    NA+39084  36.552  15.717   4.681
77631NA+    NA+39085  41.932   9.691   0.862
77632NA+    NA+39086  32.520   0.781   3.173
77633NA+    NA+39087  13.204  28.585  11.403
77634NA+    NA+39088   2.354  32.524   4.332
77635NA+    NA+39089  32.507  24.016  11.875
77636NA+    NA+39090   5.915   6.841  14.024
77637NA+    NA+39091  43.001  26.693  14.911
77638NA+    NA+39092  14.170  43.292   4.308
77639NA+    NA+39093  39.349  28.143  11.927
77640NA+    NA+39094  25.678   7.673   2.311
77641NA+    NA+39095   4.337   9.249   4.610
77642NA+    NA+39096  18.696  16.174   4.739
77643NA+    NA+39097  36.023  37.848   1.417
77644NA+    NA+39098  35.506   1.969  13.536
77645NA+    NA+39099  18.135   6.202  11.117
77646NA+    NA+39100   8.338  14.336   0.923
77647NA+    NA+39101   7.380  35.897  13.359
77648NA+    NA+39102  31.582  34.448  14.428
77649NA+    NA+39103  31.613  14.616   2.760
77650NA+    NA+39104  17.715  18.785   0.289
77651NA+    NA+39105  26.135  31.620  13.939
77652NA+    NA+39106  32.119  26.964  13.425
77653NA+    NA+39107  37.844  22.627   9.948
77654NA+    NA+39108  37.341  24.585   0.349
77655NA+    NA+39109  16.191  32.437   2.378
77656NA+    NA+39110  12.679  28.505  10.411
77657NA+    NA+39111  13.828  25.030   4.763
77658NA+    NA+39112  26.462  33.517  13.835
77659NA+    NA+39113  34.958   0.763  10.887
77660NA+    NA+39114  39.522  41.385  13.861
77661NA+    NA+39115  33.108  22.210   0.343
77662NA+    NA+39116   7.381  44.975  10.901
77663NA+    NA+39117  31.035   9.664   1.831
77664NA+    NA+39118  43.399  18.286  10.957
77665NA+    NA+39119  21.064   2.335   2.873
77666NA+    NA+39120  20.224  44.775   1.762
77667NA+    NA+39121  23.188   0.938   4.787
77668NA+    NA+39122  24.089   6.896  12.834
77669NA+    NA+39123  42.287  18.677  13.358
77670NA+    NA+39124  24.175  40.349  10.474
77671NA+    NA+39125  33.616  19.642   2.771
77672NA+    NA+39126  22.723   6.191  10.062
77673NA+    NA+39127  39.011  29.175  12.400
77674NA+    NA+39128  26.016   6.368  14.895
77675NA+    NA+39129  13.117  30.914  10.644
77676NA+    NA+39130  21.020  33.540  10.490
77677NA+    NA+39131  42.370  21.221  10.894
77678NA+    NA+39132  15.815  41.510   2.189
77679NA+    NA+39133  40.955   0.824   4.631
77680NA+    NA+39134  27.106  27.495  12.493
77681NA+    NA+39135  18.563  27.496   4.237
77682NA+    NA+39136  24.027  29.035  10.143
77683NA+    NA+39137  17.696  34.009  12.367
77684NA+    NA+39138  31.122  18.660   0.751
77685NA+    NA+39139  21.568  40.876   1.442
77686NA+    NA+39140   0.753  13.710   0.425
77687NA+    NA+39141  26.125   2.772  10.611
77688NA+    NA+39142  34.053  42.925  13.981
77689NA+    NA+39143   7.391  35.393  11.965
77690NA+    NA+39144   1.841  19.081  13.031
77691NA+    NA+39145  29.983  27.614   4.746
77692NA+    NA+39146   9.393  17.085  12.094
77693NA+    NA+39147  44.946  15.666   2.758
77694NA+    NA+39148  29.945  14.813   3.350
77695NA+    NA+39149  43.436  34.903   2.237
77696NA+    NA+39150  18.231   4.384   3.275
77697NA+    NA+39151   0.935  33.519  11.123
77698NA+    NA+39152  20.628  27.536  13.034
77699NA+    NA+39153  22.170  11.819   2.261
77700NA+    NA+39154  42.860   6.204   1.313
77701NA+    NA+39155  20.189  30.571  11.913
77702NA+    NA+39156  38.973  34.867  11.415
77703NA+    NA+39157   6.758  35.011   1.447
77704NA+    NA+39158   8.227   2.254  12.367
77705NA+    NA+39159  13.750  40.440   2.678
77706NA+    NA+39160  37.934  31.067  12.557
77707NA+    NA+39161  37.971  31.058  10.640
77708NA+    NA+39162  36.375  42.327   2.680
77709NA+    NA+39163  24.117  11.807   1.282
77710NA+    NA+39164  38.824  14.333  14.497
77711NA+    NA+39165  13.124  10.154   3.768
77712NA+    NA+39166  22.523  12.667   2.866
77713NA+    NA+39167  29.160  22.190  10.440
77714NA+    NA+39168  21.632  27.467  10.896
77715NA+    NA+39169   8.204  42.873  10.611
77716NA+    NA+39170  22.020  30.019   1.758
77717NA+    NA+39171   5.772  44.787  12.061
77718NA+    NA+39172  13.836  27.648  14.283
77719NA+    NA+39173  25.979  36.558   4.245
77720NA+    NA+39174   9.344  18.648   5.154
77721NA+    NA+39175  40.415  11.334  10.630
77722NA+    NA+39176  13.629  24.148   2.331
77723NA+    NA+39177  30.108  35.914  12.359
77724NA+    NA+39178  30.916  26.109  11.861
77725NA+    NA+39179   9.153  41.799   1.798
77726NA+    NA+39180  30.124   4.245   2.247
77727NA+    NA+39181  23.028  19.158  13.924
77728NA+    NA+39182  31.927  31.134  14.027
77729NA+    NA+39183  23.656   2.871   2.184
77730NA+    NA+39184  16.301   4.714  10.559
77731NA+    NA+39185  31.098  39.871  11.921
77732NA+    NA+39186   0.916  35.012  11.053
77733NA+    NA+39187  37.489  17.612   3.304
77734NA+    NA+39188   3.912  11.681  11.044
77735NA+    NA+39189  39.862  34.090  14.814
77736NA+    NA+39190   6.412  44.308  11.523
77737NA+    NA+39191  44.292   7.263   9.985
77738NA+    NA+39192  23.519   7.774   3.836
77739NA+    NA+39193  15.747  22.717  14.983
77740NA+    NA+39194  36.057  41.904   1.782
77741NA+    NA+39195  34.428  14.183   1.844
77742NA+    NA+39196  10.783  25.697  14.785
77743NA+    NA+39197  38.347  31.150  13.509
77744NA+    NA+39198  28.081  38.826  14.019
77745NA+    NA+39199  32.997  14.099   0.748
77746NA+    NA+39200  43.916  16.182   4.712
77747NA+    NA+39201  32.092   1.792  13.951
77748NA+    NA+39202  30.014   8.678   5.575
77749NA+    NA+39203  11.843  31.976   1.752
77750NA+    NA+39204  24.167  21.569  11.555
77751NA+    NA+39205  36.396  18.591  12.957
77752NA+    NA+39206  38.921  28.644  12.949
77753NA+    NA+39207  35.604  41.946   3.670
77754NA+    NA+39208  17.220  36.083   2.827
77755NA+    NA+39209  21.063   7.252  14.471
77756NA+    NA+39210  33.902   2.808  11.429
77757NA+    NA+39211  42.359  26.547  10.005
77758NA+    NA+39212  15.653  35.868  12.574
77759NA+    NA+39213   2.348   1.379  14.428
77760NA+    NA+39214  17.079  23.235  14.423
77761NA+    NA+39215   0.266  41.826   4.738
77762NA+    NA+39216   9.153  30.008   2.384
77763NA+    NA+39217   0.297  18.191  13.325
77764NA+    NA+39218  16.665   6.372  10.964
77765NA+    NA+39219  12.825  32.543  11.429
77766NA+    NA+39220  13.161  23.137   0.379
77767NA+    NA+39221  44.336   4.304  12.578
77768NA+    NA+39222   6.320   2.953   3.272
77769NA+    NA+39223  34.538  19.555  11.959
77770NA+    NA+39224  11.787   6.691   1.230
77771NA+    NA+39225  19.591   5.246  14.832
77772NA+    NA+39226  33.071   3.738   0.795
77773NA+    NA+39227  11.372  25.200  13.991
77774NA+    NA+39228  29.603  17.095   3.786
77775NA+    NA+39229  44.273   4.242   2.804
77776NA+    NA+39230  11.863  39.355  13.873
77777NA+    NA+39231  33.105  31.131  13.500
77778NA+    NA+39232   9.358  10.665  10.600
77779NA+    NA+39233   2.461  21.667   2.300
77780NA+    NA+39234  40.049  32.434   4.758
77781NA+    NA+39235   1.274  16.590   4.603
77782NA+    NA+39236  30.084   5.322  11.492
77783NA+    NA+39237  38.995  32.014  11.945
77784NA+    NA+39238  21.107  23.690   3.717
77785NA+    NA+39239  13.255  43.853   2.681
77786NA+    NA+39240  35.435   1.827   4.130
77787NA+    NA+39241  10.848  24.094   0.377
77788NA+    NA+39242  10.842  12.295   2.263
77789NA+    NA+39243  18.755  13.321   1.704
77790NA+    NA+39244  39.815  14.794  14.388
77791NA+    NA+39245  31.426   4.808   1.293
77792NA+    NA+39246  41.043   5.383  12.528
77793NA+    NA+39247  34.534  27.479  12.007
77794NA+    NA+39248   9.280  10.739  12.575
77795NA+    NA+39249  12.220  24.719  12.911
77796NA+    NA+39250  44.802  37.544   4.766
77797NA+    NA+39251  44.887  24.164   4.640
77798NA+    NA+39252   7.860  14.118  10.640
77799NA+    NA+39253   9.231  28.621  11.598
77800NA+    NA+39254  11.222  28.118  11.034
77801NA+    NA+39255  18.714  10.300   2.203
77802NA+    NA+39256  27.554  13.827  14.332
77803NA+    NA+39257  37.410  34.036   2.286
77804NA+    NA+39258   9.769  17.581  12.081
77805NA+    NA+39259  20.730   1.464   0.876
77806NA+    NA+39260   1.362  28.483   4.634
77807NA+    NA+39261  42.514  27.059   2.798
77808NA+    NA+39262  21.619  16.620   1.381
77809NA+    NA+39263  39.975  43.352   4.803
77810NA+    NA+39264  10.298   5.347   4.284
77811NA+    NA+39265  14.808  36.568   2.846
77812NA+    NA+39266  32.995  26.070   2.720
77813NA+    NA+39267  34.458  12.246   1.711
77814NA+    NA+39268  29.444  25.694   0.959
77815NA+    NA+39269   9.152  21.563  11.920
77816NA+    NA+39270  31.951  10.783   1.435
77817NA+    NA+39271   3.334  11.297   1.772
77818NA+    NA+39272  10.279  41.494  14.826
77819NA+    NA+39273  13.186   2.904  14.288
77820NA+    NA+39274  19.558   9.377  10.973
77821NA+    NA+39275   0.779   9.158  12.541
77822NA+    NA+39276  39.539   0.462   0.797
77823NA+    NA+39277  27.634   3.357  12.409
77824NA+    NA+39278  16.201  33.924   2.287
77825NA+    NA+39279  24.649   8.292   3.785
77826NA+    NA+39280  14.166  38.377  13.023
77827NA+    NA+39281  34.989  27.049   1.734
77828NA+    NA+39282  16.270   2.938  14.324
77829NA+    NA+39283  40.461  18.709  10.908
77830NA+    NA+39284  10.358  18.713  10.967
77831NA+    NA+39285  37.464  15.668   2.733
77832NA+    NA+39286   7.817  36.934  13.545
77833NA+    NA+39287  21.091   0.949  13.949
77834NA+    NA+39288  11.725  34.500   5.272
77835NA+    NA+39289  24.091  41.025  11.091
77836NA+    NA+39290  19.593   8.824   1.894
77837NA+    NA+39291  25.162   0.756   3.635
77838NA+    NA+39292  43.448   0.968   0.328
77839NA+    NA+39293   5.243  15.223   3.283
77840NA+    NA+39294   6.244  27.977   3.157
77841NA+    NA+39295  10.252  40.327   3.773
77842NA+    NA+39296  21.621  33.102  13.484
77843NA+    NA+39297   4.942  18.700  10.459
77844NA+    NA+39298  35.428  26.643   4.159
77845NA+    NA+39299  38.449  30.962  12.026
77846NA+    NA+39300  17.188  26.495   2.716
77847NA+    NA+39301   7.843   4.285  11.452
77848NA+    NA+39302   3.266  10.760  14.940
77849NA+    NA+39303   8.271  16.785  14.783
77850NA+    NA+39304   9.738  27.617   0.964
77851NA+    NA+39305  10.861   2.291  10.968
77852NA+    NA+39306   6.374   0.900   2.841
77853NA+    NA+39307   9.819  42.309   3.201
77854NA+    NA+39308   8.779  29.957  11.986
77855NA+    NA+39309  26.957  24.116  13.402
77856NA+    NA+39310   0.774  20.579  13.995
77857NA+    NA+39311  27.968  32.035  10.526
77858NA+    NA+39312  14.229  30.619  11.947
77859NA+    NA+39313  12.632   7.205  12.394
77860NA+    NA+39314  42.968  34.067   4.801
77861NA+    NA+39315  41.004  34.938  11.521
77862NA+    NA+39316  11.287  13.232  11.606
77863NA+    NA+39317  36.943  29.583   3.172
77864NA+    NA+39318  36.550  43.287  10.522
77865NA+    NA+39319  10.639  37.471   1.913
77866NA+    NA+39320   4.772  14.305  11.022
77867NA+    NA+39321  31.516  30.448   4.196
77868NA+    NA+39322  13.608  44.487   1.415
77869NA+    NA+39323  26.547  41.536  11.007
77870NA+    NA+39324   3.747  42.839  10.420
77871NA+    NA+39325  41.799   7.699  14.770
77872NA+    NA+39326  41.305  10.876   2.859
77873NA+    NA+39327  32.029  13.183   3.256
77874NA+    NA+39328  15.326  12.194  12.928
77875NA+    NA+39329  19.544  38.870  14.908
77876NA+    NA+39330  18.192  11.255  14.487
77877NA+    NA+39331  38.969  26.470   4.236
77878NA+    NA+39332  27.029  29.429   2.197
77879NA+    NA+39333  22.545  34.607   4.702
77880NA+    NA+39334  19.094  24.624   0.958
77881NA+    NA+39335  22.228  26.196  12.991
77882NA+    NA+39336  26.571  13.213   1.872
77883NA+    NA+39337   0.479  34.023  10.988
77884NA+    NA+39338  44.956  41.317  10.406
77885NA+    NA+39339   9.216  30.510  12.438
77886NA+    NA+39340  29.030  29.955   3.375
77887NA+    NA+39341  26.139  22.213  13.930
77888NA+    NA+39342  38.564  35.549  13.021
77889NA+    NA+39343  20.569   6.754   0.384
77890NA+    NA+39344   6.895  43.893  14.303
77891NA+    NA+39345  21.187  39.332  14.508
77892NA+    NA+39346  24.611   7.173  10.480
77893NA+    NA+39347  38.035  22.675   2.719
77894NA+    NA+39348   7.354  18.207   1.890
77895NA+    NA+39349  15.295  18.281   4.691
77896NA+    NA+39350  33.475   7.735  10.408
77897NA+    NA+39351  32.913  41.871   1.245
77898NA+    NA+39352  36.029  31.596   0.405
77899NA+    NA+39353  19.262  27.466   0.346
77900NA+    NA+39354  10.706  24.609   1.436
77901NA+    NA+39355  41.342  21.567   2.819
77902NA+    NA+39356  44.450   0.795   1.822
77903NA+    NA+39357  14.116   4.401  11.453
77904NA+    NA+39358   2.447  15.789   1.814
77905NA+    NA+39359  30.442   4.255   0.749
77906NA+    NA+39360  30.043  15.171  14.835
77907NA+    NA+39361   4.366  31.005   2.842
77908NA+    NA+39362  36.900   1.935   1.836
77909NA+    NA+39363  22.156  15.800  13.837
77910NA+    NA+39364  28.475  23.997   3.811
77911NA+    NA+39365  10.371  38.857  11.399
77912NA+    NA+39366  39.357  31.445   2.829
77913NA+    NA+39367   4.254   4.906  12.970
77914NA+    NA+39368   9.693  25.089   2.231
77915NA+    NA+39369  33.584  17.588   1.697
77916NA+    NA+39370  30.115  29.466  13.939
77917NA+    NA+39371  31.040  43.008  14.319
77918NA+    NA+39372  25.177  22.555   0.367
77919NA+    NA+39373   6.334  18.781   1.446
77920NA+    NA+39374  13.263  16.295   2.664
77921NA+    NA+39375  43.406  24.155   2.291
77922NA+    NA+39376  27.538  33.883   3.709
77923NA+    NA+39377  33.894  16.578  13.352
77924NA+    NA+39378  26.058   5.219   1.271
77925NA+    NA+39379  43.958  30.107   3.240
77926NA+    NA+39380  37.851  10.212   1.222
77927NA+    NA+39381  40.916  43.441  11.565
77928NA+    NA+39382  35.587   7.810   1.920
77929NA+    NA+39383  43.353   9.747   1.877
77930NA+    NA+39384   4.815  13.147  11.509
77931NA+    NA+39385  41.980  17.135  13.015
77932NA+    NA+39386   3.318   6.807   2.260
77933NA+    NA+39387  28.031  25.990  11.964
77934NA+    NA+39388  35.029  27.158  13.511
77935NA+    NA+39389  21.117  29.524  13.320
77936NA+    NA+39390  26.530  41.354  11.865
77937NA+    NA+39391   1.259  31.456   4.271
77938NA+    NA+39392   0.912  10.720   0.482
77939NA+    NA+39393  24.048  33.903   0.809
77940NA+    NA+39394  44.291   1.899   1.222
77941NA+    NA+39395  23.016  31.442  11.076
77942NA+    NA+39396  42.292  32.426  14.454
77943NA+    NA+39397  12.123  15.724  10.488
77944NA+    NA+39398  36.962  26.642  12.867
77945NA+    NA+39399  38.988  43.892   4.267
77946NA+    NA+39400   7.298   5.196  13.002
77947NA+    NA+39401  10.752  32.951  12.851
77948NA+    NA+39402   7.219  39.345   2.348
77949NA+    NA+39403   7.716  37.022  14.974
77950NA+    NA+39404  37.569   1.438  12.350
77951NA+    NA+39405  16.691  11.735  14.279
77952NA+    NA+39406   0.788   8.716  14.770
77953NA+    NA+39407  41.854   3.356   1.836
77954NA+    NA+39408   7.676  16.306  14.932
77955NA+    NA+39409  31.422  31.453  13.438
77956NA+    NA+39410  12.226  32.603   1.773
77957NA+    NA+39411  29.542  32.037   1.262
77958NA+    NA+39412  31.430  44.966  11.452
77959NA+    NA+39413  13.210   2.946   3.171
77960NA+    NA+39414  40.961  18.239   2.360
77961NA+    NA+39415  42.014  17.788   4.814
77962NA+    NA+39416  14.321   7.810   3.757
77963NA+    NA+39417  24.520  38.066  14.321
77964NA+    NA+39418  41.459   5.377   0.357
77965NA+    NA+39419   6.217  23.562   3.808
77966NA+    NA+39420   5.235  19.163  13.942
77967NA+    NA+39421   2.377  40.906  14.761
77968NA+    NA+39422   8.375  35.482  12.894
77969NA+    NA+39423  38.992  15.742   2.845
77970NA+    NA+39424  25.525   8.814  14.865
77971NA+    NA+39425  25.574  33.427   4.710
77972NA+    NA+39426   3.279   6.340   3.229
77973NA+    NA+39427  22.227  21.164  14.479
77974NA+    NA+39428  21.734  39.046   1.410
77975NA+    NA+39429  40.826   6.878   3.722
77976NA+    NA+39430  23.226  29.934  13.425
77977NA+    NA+39431  21.581  29.522  13.447
77978NA+    NA+39432   0.986  44.791  12.407
77979NA+    NA+39433  19.647  10.252  12.524
77980NA+    NA+39434   6.843  29.625   3.317
77981NA+    NA+39435   8.315  44.472   4.796
77982NA+    NA+39436   2.907  25.005  11.380
77983NA+    NA+39437  40.417   3.408  14.967
77984NA+    NA+39438  19.622   6.426  14.286
77985NA+    NA+39439  29.590  18.265  13.054
77986NA+    NA+39440  17.602   9.366  10.585
77987NA+    NA+39441  24.169  41.471   0.841
77988NA+    NA+39442  38.507  36.435   0.301
77989NA+    NA+39443   7.367  16.172  11.528
77990NA+    NA+39444   3.361  23.525   4.764
77991NA+    NA+39445  25.688  37.046  11.936
77992NA+    NA+39446  32.134   9.657   4.679
77993NA+    NA+39447  20.048  31.121  10.947
77994NA+    NA+39448   0.911  17.738  12.429
77995NA+    NA+39449  42.923   3.240   3.300
77996NA+    NA+39450  32.102  16.719  10.990
77997NA+    NA+39451  33.948  21.577   4.294
77998NA+    NA+39452  25.494   4.375  14.002
77999NA+    NA+39453   0.294  17.793  12.901
78000NA+    NA+39454  13.672  40.465   2.239
78001NA+    NA+39455  28.938  38.064  14.341
78002NA+    NA+39456   9.395  13.182   1.296
78003NA+    NA+39457   5.212  15.612   2.745
78004NA+    NA+39458  40.024  43.990   0.919
78005NA+    NA+39459  36.007  13.842  14.365
78006NA+    NA+39460  30.966  14.137  11.499
78007NA+    NA+39461  42.463   3.306   1.834
78008NA+    NA+39462  41.487  30.520   4.201
78009NA+    NA+39463   5.749  31.089  10.100
78010NA+    NA+39464  32.397  23.539   2.302
78011NA+    NA+39465   7.237  25.188  13.835
78012NA+    NA+39466  22.644  38.836  11.116
78013NA+    NA+39467  31.899   8.859  12.393
78014NA+    NA+39468  30.135  21.596   1.255
78015NA+    NA+39469  14.655  40.512  10.470
78016NA+    NA+39470   5.889  10.222  11.035
78017NA+    NA+39471  23.068  14.645  12.965
78018NA+    NA+39472   3.927  39.396   4.693
78019NA+    NA+39473  35.985   3.936  13.964
78020NA+    NA+39474  27.118  16.810  13.973
78021NA+    NA+39475  44.930   3.331  10.560
78022NA+    NA+39476  30.084   0.984  12.052
78023NA+    NA+39477  17.285  36.952  13.437
78024NA+    NA+39478  15.248  23.162  10.566
78025NA+    NA+39479   6.795  38.891   3.300
78026NA+    NA+39480  42.522  11.654   0.447
78027NA+    NA+39481  12.273  24.005  13.395
78028NA+    NA+39482   3.842  24.974  13.482
78029NA+    NA+39483  17.682   3.811  11.612
78030NA+    NA+39484  22.116   9.819   3.199
78031NA+    NA+39485  15.158   2.776   3.255
78032NA+    NA+39486  37.079  30.416   4.332
78033NA+    NA+39487   3.413   6.703  12.369
78034NA+    NA+39488  43.798  42.797   1.250
78035NA+    NA+39489  37.949  12.171   0.358
78036NA+    NA+39490  14.759  21.696  12.076
78037NA+    NA+39491  41.297  40.052   3.664
78038NA+    NA+39492  25.212   3.275  13.352
78039NA+    NA+39493  29.011  30.014   1.828
78040NA+    NA+39494  44.337  24.120  13.009
78041NA+    NA+39495  36.430  44.993   0.454
78042NA+    NA+39496  13.150  41.464  10.076
78043NA+    NA+39497  29.450  43.282  10.928
78044NA+    NA+39498  14.305  20.036   1.863
78045NA+    NA+39499  12.225  36.933  12.832
78046NA+    NA+39500  40.494  31.530   0.944
78047NA+    NA+39501   6.236   8.710  14.968
78048NA+    NA+39502  44.791  28.604  14.949
78049NA+    NA+39503  14.219  27.054  14.020
78050NA+    NA+39504  39.346  13.777   2.405
78051NA+    NA+39505  22.502  17.173   2.278
78052NA+    NA+39506  40.379  16.200   3.294
78053NA+    NA+39507   7.392  38.471  12.858
78054NA+    NA+39508  27.500   8.232  13.050
78055NA+    NA+39509   1.951  38.384  11.510
78056NA+    NA+39510   6.803  19.251   1.263
78057NA+    NA+39511   3.757  32.079  12.982
78058NA+    NA+39512  37.515  37.459  11.859
78059NA+    NA+39513   6.805   7.851  13.052
78060NA+    NA+39514   0.436  18.176   4.744
78061NA+    NA+39515   8.821  20.544  12.383
78062NA+    NA+39516   8.752  32.031   3.744
78063NA+    NA+39517  23.101  19.178   4.695
78064NA+    NA+39518  44.793   7.905  13.349
78065NA+    NA+39519  25.167   0.315  10.604
78066NA+    NA+39520   2.290  43.905  14.894
78067NA+    NA+39521  26.549  34.429   2.802
78068NA+    NA+39522  19.211  36.855  11.924
78069NA+    NA+39523  30.452  33.886  11.525
78070NA+    NA+39524   6.834  14.215   4.140
78071NA+    NA+39525  44.388  11.221   3.631
78072NA+    NA+39526  11.808   2.925  10.988
78073NA+    NA+39527   4.294  18.058   0.920
78074NA+    NA+39528   1.346  36.903  13.837
78075NA+    NA+39529  38.550   6.692   3.799
78076NA+    NA+39530  12.683  42.860   2.756
78077NA+    NA+39531  15.146   9.699   3.733
78078NA+    NA+39532  22.178  39.421   2.700
78079NA+    NA+39533  42.467  44.435   2.272
78080NA+    NA+39534   3.757  34.546  13.973
78081NA+    NA+39535  42.786  32.491  12.090
78082NA+    NA+39536  27.097  32.531  12.092
78083NA+    NA+39537  31.646  27.650   2.353
78084NA+    NA+39538  33.893  20.136   0.919
78085NA+    NA+39539  34.390  24.188  14.898
78086NA+    NA+39540   1.815  19.747  13.542
78087NA+    NA+39541   4.906  30.123  14.304
78088NA+    NA+39542  36.363  18.763   0.889
78089NA+    NA+39543   1.277  33.891   4.237
78090NA+    NA+39544  41.887  35.429  10.639
78091NA+    NA+39545  42.436  29.072   1.733
78092NA+    NA+39546  41.436  39.002   4.676
78093NA+    NA+39547  31.594   9.644   4.693
78094NA+    NA+39548   2.784  14.290   4.611
78095NA+    NA+39549  15.112  23.696   0.913
78096NA+    NA+39550  20.583  33.113  11.033
78097NA+    NA+39551  42.825  13.253   1.857
78098NA+    NA+39552  27.512  42.311  11.392
78099NA+    NA+39553  41.384  22.656  10.557
78100NA+    NA+39554  20.572  19.119  14.360
78101NA+    NA+39555  37.918  19.712   0.858
78102NA+    NA+39556  31.556   1.862   4.248
78103NA+    NA+39557   1.364  22.210   0.428
78104NA+    NA+39558  18.700  35.585   4.328
78105NA+    NA+39559  30.507  37.467  11.408
78106NA+    NA+39560  13.811  36.389  12.069
78107NA+    NA+39561  19.656  35.583  10.953
78108NA+    NA+39562  42.847   4.383  10.915
78109NA+    NA+39563   2.255  21.513  12.897
78110NA+    NA+39564   5.737  39.909  11.975
78111NA+    NA+39565  11.663  17.644  10.554
78112NA+    NA+39566  18.245  43.503  10.433
78113NA+    NA+39567  40.820  24.700  13.014
78114NA+    NA+39568  11.354  41.040   0.763
78115NA+    NA+39569  29.583  11.694   0.253
78116NA+    NA+39570  42.821   7.851  11.972
78117NA+    NA+39571  20.034  35.077   0.381
78118NA+    NA+39572   7.394  10.150   1.763
78119NA+    NA+39573  17.153  41.974  12.086
78120NA+    NA+39574  27.583  11.196   1.284
78121NA+    NA+39575  30.940   3.872  13.462
78122NA+    NA+39576  38.987  31.502   5.231
78123NA+    NA+39577  18.710   2.735  10.627
78124NA+    NA+39578  22.742  11.186  12.394
78125NA+    NA+39579  43.913  18.661  10.602
78126NA+    NA+39580  40.467  42.788  14.884
78127NA+    NA+39581  16.706   5.272  12.471
78128NA+    NA+39582  30.121  14.687  13.946
78129NA+    NA+39583  32.945  11.344   1.441
78130NA+    NA+39584  16.227  17.744   4.808
78131NA+    NA+39585  16.137   2.953   4.831
78132NA+    NA+39586  35.021   5.875  10.956
78133NA+    NA+39587   1.758  32.071  14.341
78134NA+    NA+39588  24.621  43.877  13.484
78135NA+    NA+39589  31.024  13.162  12.358
78136NA+    NA+39590  27.968   6.399  14.308
78137NA+    NA+39591   8.214  21.177  11.988
78138NA+    NA+39592  14.808  38.949  11.453
78139NA+    NA+39593  18.109  31.096  11.392
78140NA+    NA+39594   6.782   8.287  14.899
78141NA+    NA+39595  14.217  11.345   5.577
78142NA+    NA+39596  37.462  38.343   3.281
78143NA+    NA+39597  15.270  20.224  14.462
78144NA+    NA+39598  37.533  10.210   1.237
78145NA+    NA+39599  31.607  27.555  13.409
78146NA+    NA+39600  11.777  16.123  13.883
78147NA+    NA+39601  42.348  15.745   3.839
78148NA+    NA+39602   3.834   3.918   2.689
78149NA+    NA+39603  12.762   5.909  11.494
78150NA+    NA+39604  32.444  10.210   0.758
78151NA+    NA+39605  39.879  25.574   0.321
78152NA+    NA+39606  14.675   0.273  10.975
78153NA+    NA+39607  15.820  35.029  10.420
78154NA+    NA+39608  23.056  10.337   1.263
78155NA+    NA+39609  32.613   1.416   0.828
78156NA+    NA+39610  39.953  33.595  11.859
78157NA+    NA+39611   8.400   5.234   3.869
78158NA+    NA+39612   0.966   7.220  13.486
78159NA+    NA+39613  17.301  24.200   1.413
78160NA+    NA+39614  44.917  14.274  10.490
78161NA+    NA+39615  41.373   0.359   2.201
78162NA+    NA+39616  16.693   7.711   3.153
78163NA+    NA+39617  18.110  20.200   3.382
78164NA+    NA+39618  23.050  39.855   2.743
78165NA+    NA+39619   2.861  43.346  13.920
78166NA+    NA+39620  42.961  32.460   4.820
78167NA+    NA+39621   9.222  28.060  12.005
78168NA+    NA+39622   3.930  14.771  13.823
78169NA+    NA+39623  35.070   3.721   2.809
78170NA+    NA+39624  24.681   6.881   4.300
78171NA+    NA+39625   2.741  30.528   1.889
78172NA+    NA+39626   4.837  15.589  11.906
78173NA+    NA+39627  22.541  43.812   4.148
78174NA+    NA+39628  17.725  29.057   4.171
78175NA+    NA+39629  36.007  32.896   2.347
78176NA+    NA+39630  37.921  42.328  14.963
78177NA+    NA+39631  16.610  39.464  11.080
78178NA+    NA+39632  33.428  20.115  11.568
78179NA+    NA+39633  42.830  17.108   4.128
78180NA+    NA+39634  13.654  32.065   0.804
78181NA+    NA+39635   2.933  12.811   3.787
78182NA+    NA+39636   4.341   1.936   4.122
78183NA+    NA+39637  13.615  26.589  14.856
78184NA+    NA+39638  34.910  32.101  10.440
78185NA+    NA+39639   8.324  13.630  14.839
78186NA+    NA+39640   5.372  10.784   3.371
78187NA+    NA+39641  39.867  22.694   1.831
78188NA+    NA+39642  15.250  11.319   0.455
78189NA+    NA+39643  17.742  25.135   0.482
78190NA+    NA+39644   6.805  40.019  11.889
78191NA+    NA+39645  17.285  32.634  13.955
78192NA+    NA+39646  23.546  20.543   0.788
78193NA+    NA+39647  31.580  34.951   5.177
78194NA+    NA+39648  28.528  16.796  13.931
78195NA+    NA+39649   0.364  17.699  14.508
78196NA+    NA+39650  24.556  28.986   1.434
78197NA+    NA+39651   3.275  29.020   1.772
78198NA+    NA+39652  38.406  34.457   3.336
78199NA+    NA+39653   2.338  22.548  13.427
78200NA+    NA+39654   3.391  40.946  13.462
78201NA+    NA+39655   7.677  40.884   2.662
78202NA+    NA+39656  17.245  25.606  11.436
78203NA+    NA+39657  27.196   4.421  14.826
78204NA+    NA+39658  41.994  44.790   2.272
78205NA+    NA+39659  16.244   7.894  10.996
78206NA+    NA+39660  19.088  40.889   1.311
78207NA+    NA+39661  44.386  39.506   0.312
78208NA+    NA+39662   0.476  38.825   9.926
78209NA+    NA+39663  44.442  40.893  14.513
78210NA+    NA+39664  40.018   7.741  10.900
78211NA+    NA+39665  39.549   4.444  12.443
78212NA+    NA+39666  14.189  20.724   3.232
78213NA+    NA+39667  16.098   4.319  12.085
78214NA+    NA+39668  10.802  28.936  14.371
78215NA+    NA+39669   1.407   6.815  10.909
78216NA+    NA+39670  28.529  41.791  11.950
78217NA+    NA+39671  23.616  22.221  13.800
78218NA+    NA+39672  41.391  27.034  14.765
78219NA+    NA+39673  25.164  31.036   3.332
78220NA+    NA+39674  29.107  13.710   4.130
78221NA+    NA+39675  43.430   4.335   1.367
78222NA+    NA+39676  15.287  19.270  12.578
78223NA+    NA+39677   9.245  44.836   1.377
78224NA+    NA+39678   0.862  28.162  12.426
78225NA+    NA+39679   0.780  11.310  11.926
78226NA+    NA+39680  21.137  40.900  13.388
78227NA+    NA+39681   7.879  10.261  14.777
78228NA+    NA+39682  37.055  15.256  11.009
78229NA+    NA+39683  17.226  21.038   4.831
78230NA+    NA+39684   4.932  26.479   0.966
78231NA+    NA+39685   0.309  34.033  13.379
78232NA+    NA+39686   0.313  18.679   4.213
78233NA+    NA+39687  24.009  14.714  11.445
78234NA+    NA+39688   3.752   4.419  11.893
78235NA+    NA+39689  24.136  32.401   3.733
78236NA+    NA+39690  40.374  31.138  13.937
78237NA+    NA+39691  40.450  30.055  11.482
78238NA+    NA+39692  18.074  15.310   3.160
78239NA+    NA+39693  31.052  44.814   0.254
78240NA+    NA+39694   1.441  26.048  14.835
78241NA+    NA+39695  26.699   4.783  14.795
78242NA+    NA+39696  33.389  43.850  11.608
78243NA+    NA+39697  15.696  29.645  11.458
78244NA+    NA+39698   4.916  20.159   1.789
78245NA+    NA+39699  28.474  40.050  11.000
78246NA+    NA+39700  33.473  10.822   9.986
78247NA+    NA+39701  30.962  13.329  14.331
78248NA+    NA+39702  42.883  28.088   4.298
78249NA+    NA+39703   5.347  37.894   3.795
78250NA+    NA+39704   4.277  19.215  10.463
78251NA+    NA+39705  41.972  26.483   3.757
78252NA+    NA+39706   2.342  11.339   4.826
78253NA+    NA+39707  14.799  21.198   4.693
78254NA+    NA+39708  25.694   5.208   4.145
78255NA+    NA+39709  26.544  10.314   5.185
78256CL-    CL-39710  40.402  41.382   5.202
78257CL-    CL-39711  38.571  12.281   1.244
78258CL-    CL-39712  29.568  26.636   0.797
78259CL-    CL-39713  20.214   9.387   2.693
78260CL-    CL-39714   3.899  31.468   3.218
78261CL-    CL-39715  36.030  38.505  12.466
78262CL-    CL-39716  41.360  44.913   1.315
78263CL-    CL-39717   8.849  15.203   2.824
78264CL-    CL-39718  23.590  33.097   0.378
78265CL-    CL-39719  16.083  37.985   1.305
78266CL-    CL-39720  23.558  28.643   0.887
78267CL-    CL-39721  27.182   8.734   1.247
78268CL-    CL-39722  25.172  23.611   0.963
78269CL-    CL-39723  31.060  32.050  14.283
78270CL-    CL-39724  28.969  35.387  10.619
78271CL-    CL-39725   3.284  37.930  12.574
78272CL-    CL-39726  38.497  27.594   3.728
78273CL-    CL-39727  42.286  40.338   2.374
78274CL-    CL-39728  32.105  21.153   3.812
78275CL-    CL-39729   3.401  16.702   0.258
78276CL-    CL-39730  25.994   3.239   3.321
78277CL-    CL-39731  36.994   7.388  14.477
78278CL-    CL-39732   6.736   4.353   4.599
78279CL-    CL-39733  42.347  14.112  10.954
78280CL-    CL-39734  17.798  16.114  10.914
78281CL-    CL-39735  37.438   2.742  13.519
78282CL-    CL-39736  28.159  29.062   1.780
78283CL-    CL-39737  15.712  18.260   3.313
78284CL-    CL-39738  16.250   9.867   1.366
78285CL-    CL-39739  43.479  24.996  10.459
78286CL-    CL-39740   6.826   4.270  10.634
78287CL-    CL-39741  27.023   9.235   3.354
78288CL-    CL-39742  27.547  43.793   4.161
78289CL-    CL-39743  33.932  15.778   4.341
78290CL-    CL-39744  29.639   3.459   1.269
78291CL-    CL-39745  44.810  38.880  10.115
78292CL-    CL-39746  32.915  42.377   3.209
78293CL-    CL-39747  42.962  27.944  14.782
78294CL-    CL-39748  20.761  41.800   2.801
78295CL-    CL-39749  17.764   1.448  10.599
78296CL-    CL-39750   2.757  42.420   3.205
78297CL-    CL-39751   0.470  11.196   4.811
78298CL-    CL-39752  30.088  14.678   1.351
78299CL-    CL-39753  20.763  37.410   2.686
78300CL-    CL-39754  18.076  23.694  13.940
78301CL-    CL-39755  42.419  24.646  11.889
78302CL-    CL-39756  12.306  38.406  14.343
78303CL-    CL-39757  33.489  32.541   1.266
78304CL-    CL-39758   9.275  39.895   1.855
78305CL-    CL-39759  24.532  23.651  10.582
78306CL-    CL-39760   3.431   2.307  11.558
78307CL-    CL-39761  37.847  39.033   5.178
78308CL-    CL-39762  43.958  15.606  13.323
78309CL-    CL-39763  30.096  27.543   0.858
78310CL-    CL-39764  18.134  30.027   3.854
78311CL-    CL-39765  25.555  24.573  10.620
78312CL-    CL-39766  24.165  14.305  11.383
78313CL-    CL-39767   2.228  33.544  10.546
78314CL-    CL-39768   0.269  32.398   3.204
78315CL-    CL-39769  17.078   3.712   0.964
78316CL-    CL-39770  14.671  43.984   3.646
78317CL-    CL-39771  32.486  37.389  13.503
78318CL-    CL-39772  43.853  26.192  13.407
78319CL-    CL-39773  10.141  42.447   1.789
78320CL-    CL-39774  31.572  10.379  13.500
78321CL-    CL-39775  44.938  37.360   2.371
78322CL-    CL-39776  14.818   3.278  11.482
78323CL-    CL-39777   3.830  44.934   2.337
78324CL-    CL-39778  17.778  24.595   3.228
78325CL-    CL-39779  17.208   7.896   2.313
78326CL-    CL-39780   5.194  24.197   1.385
78327CL-    CL-39781  34.932  15.239   1.772
78328CL-    CL-39782  32.458  18.596  13.528
78329CL-    CL-39783   3.275  30.948  13.497
78330CL-    CL-39784  27.126   0.810   3.820
78331CL-    CL-39785  40.883  15.761  12.058
78332CL-    CL-39786  12.649  27.181   3.663
78333CL-    CL-39787  31.593  17.194   4.615
78334CL-    CL-39788  22.591  15.724   0.855
78335CL-    CL-39789  15.183  19.138   3.330
78336CL-    CL-39790   7.744  22.687   3.715
78337CL-    CL-39791  12.825  44.989  14.827
78338CL-    CL-39792   8.166  29.131   3.209
78339CL-    CL-39793  30.620  15.203   2.821
78340CL-    CL-39794   9.644  17.642   0.472
78341CL-    CL-39795   7.222  30.934  13.816
78342CL-    CL-39796   8.243  12.341  14.345
78343CL-    CL-39797  13.130  35.941  13.983
78344CL-    CL-39798  19.231  39.919   2.793
78345CL-    CL-39799   3.364  20.113   0.850
78346CL-    CL-39800  19.067  24.192  12.040
78347CL-    CL-39801   7.328  23.062  13.436
78348CL-    CL-39802  16.304  33.494  10.970
78349CL-    CL-39803   8.702  10.755   2.281
78350CL-    CL-39804   4.736  24.997  10.480
78351CL-    CL-39805   6.216   9.316  10.986
78352CL-    CL-39806   4.248  23.988   3.204
78353CL-    CL-39807  29.506   3.359  14.941
78354CL-    CL-39808  15.667   7.198  11.939
78355CL-    CL-39809   4.775  35.095   2.880
78356CL-    CL-39810  12.301  39.449   3.315
78357CL-    CL-39811  38.994  12.848  13.970
78358CL-    CL-39812  33.023  29.005  13.911
78359CL-    CL-39813   2.855  28.961  12.501
78360CL-    CL-39814  20.728  19.749   3.348
78361CL-    CL-39815  28.580  14.257  14.505
78362CL-    CL-39816   8.247   7.808  14.999
78363CL-    CL-39817   7.253  40.852   0.420
78364CL-    CL-39818  15.165  13.845  10.438
78365CL-    CL-39819  15.198  43.968  14.348
78366CL-    CL-39820  16.303  21.019  14.386
78367CL-    CL-39821  42.440  35.069   2.838
78368CL-    CL-39822  43.381  18.242   2.292
78369CL-    CL-39823  42.782  41.303  12.544
78370CL-    CL-39824   4.743  44.908  13.319
78371CL-    CL-39825  24.193  17.609   4.320
78372CL-    CL-39826  36.569  29.430   4.326
78373CL-    CL-39827   1.849  42.889   2.766
78374CL-    CL-39828  44.501  39.485  15.000
78375CL-    CL-39829  43.327  39.534  14.349
78376CL-    CL-39830  43.892  13.156  12.469
78377CL-    CL-39831  36.474  38.357   1.318
78378CL-    CL-39832  28.438  42.958   2.204
78379CL-    CL-39833   3.952  15.136  11.103
78380CL-    CL-39834  14.189  27.945  11.943
78381CL-    CL-39835  35.364  22.661   3.301
78382CL-    CL-39836  14.317  21.176   0.291
78383CL-    CL-39837   3.369  27.970   3.161
78384CL-    CL-39838   5.878   7.352   3.660
78385CL-    CL-39839  41.972  19.074   4.705
78386CL-    CL-39840  19.760  26.532   1.892
78387CL-    CL-39841  27.978  28.064  14.818
78388CL-    CL-39842  31.152  32.097   2.806
78389CL-    CL-39843  31.537   6.197  13.870
78390CL-    CL-39844  20.716  21.146  11.988
78391CL-    CL-39845  35.899  20.586  12.000
78392CL-    CL-39846  13.292  43.902   0.452
78393CL-    CL-39847  17.611  26.535  11.122
78394CL-    CL-39848  44.897   7.845   3.223
78395CL-    CL-39849  32.408  44.881  13.869
78396CL-    CL-39850  10.740  23.095   4.222
78397CL-    CL-39851   5.889  28.609   0.273
78398CL-    CL-39852  36.483  19.262  12.371
78399CL-    CL-39853   0.441  18.056   1.712
78400CL-    CL-39854  25.645  27.508  13.389
78401CL-    CL-39855  11.205  20.229  11.907
78402CL-    CL-39856  15.179   2.339   2.886
78403CL-    CL-39857  16.124  34.877   2.321
78404CL-    CL-39858   5.794  31.001   2.742
78405CL-    CL-39859  43.325  40.333  13.376
78406CL-    CL-39860  29.131   8.788  10.898
78407CL-    CL-39861  15.751   7.768   0.873
78408CL-    CL-39862   5.376   7.257  12.054
78409CL-    CL-39863  23.094  41.987   3.801
78410CL-    CL-39864   0.481  31.515   1.340
78411CL-    CL-39865  36.068   9.655  10.413
78412CL-    CL-39866  18.713  15.725  12.359
78413CL-    CL-39867   9.833  23.599   2.301
78414CL-    CL-39868  17.588   3.936   4.244
78415CL-    CL-39869  32.045  38.025  12.069
78416CL-    CL-39870  13.842  24.107  12.048
78417CL-    CL-39871  20.107  14.254  14.945
78418CL-    CL-39872  36.890  17.207  14.341
78419CL-    CL-39873  26.177  13.683   0.864
78420CL-    CL-39874  23.183  43.800  10.987
78421CL-    CL-39875  34.499  30.926  14.353
78422CL-    CL-39876  34.505  39.900  12.034
78423CL-    CL-39877  25.044   1.804   2.305
78424CL-    CL-39878  35.548  27.112   3.233
78425CL-    CL-39879  14.787   3.384   0.321
78426CL-    CL-39880  11.356  10.845  14.376
78427CL-    CL-39881  25.571  37.925  10.632
78428CL-    CL-39882   4.807   0.878   0.822
78429CL-    CL-39883  28.161  21.573  12.950
78430CL-    CL-39884   3.455  32.508  10.587
78431CL-    CL-39885  20.635  38.477   3.320
78432CL-    CL-39886  14.764  20.649  11.564
78433CL-    CL-39887  26.991   8.355   1.405
78434CL-    CL-39888  11.207  32.138   3.212
78435CL-    CL-39889  12.667  15.605  14.925
78436CL-    CL-39890  17.570  18.709  13.975
78437CL-    CL-39891   6.698  39.879   0.301
78438CL-    CL-39892  25.593  38.537  13.840
78439CL-    CL-39893  20.765  31.000  13.031
78440CL-    CL-39894  17.168  41.485   0.740
78441CL-    CL-39895  26.121  35.573  11.871
78442CL-    CL-39896  27.664  32.020   4.348
78443CL-    CL-39897   3.738  28.619  10.435
78444CL-    CL-39898   8.298  37.432  14.773
78445CL-    CL-39899   2.240  35.526   4.201
78446CL-    CL-39900  38.428  18.168  12.968
78447CL-    CL-39901   1.911  17.752  13.342
78448CL-    CL-39902  19.590  42.846  14.825
78449CL-    CL-39903  23.630  26.129   1.842
78450CL-    CL-39904  28.120  23.036  13.900
78451CL-    CL-39905  21.124  28.657   4.824
78452CL-    CL-39906  34.006  15.261   1.899
78453CL-    CL-39907  30.979  43.511  13.402
78454CL-    CL-39908  39.411   5.284  14.448
78455CL-    CL-39909   7.672  19.657  11.000
78456CL-    CL-39910  18.756  39.331   3.341
78457CL-    CL-39911  10.807  37.957  13.886
78458CL-    CL-39912  34.963  18.106   2.842
78459CL-    CL-39913  34.457   5.400  12.382
78460CL-    CL-39914  14.592  10.373  14.832
78461CL-    CL-39915   7.702  22.139   3.172
78462CL-    CL-39916  20.056   9.750  14.826
78463CL-    CL-39917  24.112  32.137  14.349
78464CL-    CL-39918  14.264  43.891  11.007
78465CL-    CL-39919  28.985  32.943   0.823
78466CL-    CL-39920  36.592   4.269   4.282
78467CL-    CL-39921   9.746  16.192   0.331
78468CL-    CL-39922  15.329  34.054   4.825
78469CL-    CL-39923   4.358  12.830   4.259
78470CL-    CL-39924  20.179  34.575   4.307
78471CL-    CL-39925   6.423  29.517   4.659
78472CL-    CL-39926  29.083  23.984   3.324
78473CL-    CL-39927  12.741  18.710  12.855
78474CL-    CL-39928  28.546  11.220   2.234
78475CL-    CL-39929  15.105   4.711  11.993
78476CL-    CL-39930  39.878  37.359  11.961
78477CL-    CL-39931  35.971  33.442  12.459
78478CL-    CL-39932  27.028  21.706   0.353
78479CL-    CL-39933  16.107  30.658   4.744
78480CL-    CL-39934   6.886  27.969   9.966
78481CL-    CL-39935  44.379  38.980  13.999
78482CL-    CL-39936  37.839   7.331   1.723
78483CL-    CL-39937  31.449  43.958  11.894
78484CL-    CL-39938  16.233  26.158   0.773
78485CL-    CL-39939   1.444  18.102  14.904
78486CL-    CL-39940  18.125  33.437   2.775
78487CL-    CL-39941  21.747  37.878   4.134
78488CL-    CL-39942  41.406  38.470  13.480
78489CL-    CL-39943   7.780  22.130  13.353
78490CL-    CL-39944  43.997   4.781  10.484
78491CL-    CL-39945   9.880  23.065  12.915
78492CL-    CL-39946   9.666  27.974  10.944
78493CL-    CL-39947   4.804  20.731  13.858
78494CL-    CL-39948  10.253  14.700   3.311
78495CL-    CL-39949  11.331   1.365  12.475
78496CL-    CL-39950  23.583  19.546  11.554
78497CL-    CL-39951  27.641  13.611  12.525
78498CL-    CL-39952  23.489   4.248   2.845
78499CL-    CL-39953  34.960  31.521   0.860
78500CL-    CL-39954  42.998  16.270   1.250
78501CL-    CL-39955  18.623  41.029  12.512
78502CL-    CL-39956   9.309   9.166  14.479
78503CL-    CL-39957  34.511  35.040  13.332
78504CL-    CL-39958   9.244  23.636  12.910
78505CL-    CL-39959   5.879   1.328   2.359
78506CL-    CL-39960  14.814   9.223  11.861
78507CL-    CL-39961  36.032  44.886   3.320
78508CL-    CL-39962  44.501  12.195  13.916
78509CL-    CL-39963  16.092  13.601   5.163
78510CL-    CL-39964   7.318   1.952   2.219
78511CL-    CL-39965  10.351  36.423  14.388
78512CL-    CL-39966  23.098  42.381  12.911
78513CL-    CL-39967  42.920  44.433   3.734
78514CL-    CL-39968  35.489  26.699  14.511
78515CL-    CL-39969  39.828  22.032  12.848
78516CL-    CL-39970   1.962  29.043   1.444
78517CL-    CL-39971   0.317  29.939  10.642
78518CL-    CL-39972  41.852  20.541   3.163
78519CL-    CL-39973  27.641  11.128   2.333
78520CL-    CL-39974  29.616  34.863  14.453
78521CL-    CL-39975  38.505   4.340  11.988
78522CL-    CL-39976  31.107   8.262   4.140
78523CL-    CL-39977  14.647   5.837  13.389
78524CL-    CL-39978  14.128  26.192  13.903
78525CL-    CL-39979  19.567  41.469  12.839
78526CL-    CL-39980  12.811  35.590   4.621
78527CL-    CL-39981  36.903  30.581  12.422
78528CL-    CL-39982   0.828   3.886  14.938
78529CL-    CL-39983  20.195  40.473  11.108
78530CL-    CL-39984  13.698   6.760  13.353
78531CL-    CL-39985  22.085  13.136  13.467
78532CL-    CL-39986  13.792  21.196   3.749
78533CL-    CL-39987   8.854   1.896   4.622
78534CL-    CL-39988  41.960  39.937  14.838
78535CL-    CL-39989  34.049  43.856   2.399
78536CL-    CL-39990  10.784   3.420   4.810
78537CL-    CL-39991  19.131  15.086  12.568
78538CL-    CL-39992   2.247  44.271  12.922
78539CL-    CL-39993   2.829  30.144   1.243
78540CL-    CL-39994  15.599  29.065  13.900
78541CL-    CL-39995  36.521  43.481  11.423
78542CL-    CL-39996   4.800  35.501   2.312
78543CL-    CL-39997   4.428  12.625  13.515
78544CL-    CL-39998  40.465   4.395   1.443
78545CL-    CL-39999  41.411  35.414  11.000
78546CL-    CL-40000  41.339  29.036  10.995
78547CL-    CL-40001   8.197  19.776  12.576
78548CL-    CL-40002  15.792  12.311  12.879
78549CL-    CL-40003  38.360   8.230  11.599
78550CL-    CL-40004  39.938  20.649  10.529
78551CL-    CL-40005  23.009  44.994  12.364
78552CL-    CL-40006  42.428  10.259   1.389
78553CL-    CL-40007  11.151  23.621  13.048
78554CL-    CL-40008   2.884  32.046   0.342
78555CL-    CL-40009  44.950  30.567  11.922
78556CL-    CL-40010   7.413  18.584   0.744
78557CL-    CL-40011  31.563   8.809   4.732
78558CL-    CL-40012  43.310  43.324  11.000
78559CL-    CL-40013  44.380  44.794   2.291
78560CL-    CL-40014  32.117  42.819   0.961
78561CL-    CL-40015  41.377  36.028  11.050
78562CL-    CL-40016  16.774  31.436   0.351
78563CL-    CL-40017  27.573  20.579  13.465
78564CL-    CL-40018   6.713  42.012  14.287
78565CL-    CL-40019  29.154  17.211  12.888
78566CL-    CL-40020  36.463   6.338   3.630
78567CL-    CL-40021  38.072  24.516   0.418
78568CL-    CL-40022  20.572   0.391   4.130
78569CL-    CL-40023  10.814   7.242   4.717
78570CL-    CL-40024  25.511   4.807   3.804
78571CL-    CL-40025  10.241  39.492  12.507
78572CL-    CL-40026  23.657  25.609  14.792
78573CL-    CL-40027   9.159  36.470   4.746
78574CL-    CL-40028   3.760   0.959   2.275
78575CL-    CL-40029  31.064  17.154   2.730
78576CL-    CL-40030  23.629  27.549   2.254
78577CL-    CL-40031   1.911  23.670   2.792
78578CL-    CL-40032   5.794  32.062   4.139
78579CL-    CL-40033  19.624  40.967  14.878
78580CL-    CL-40034  19.053  15.145   3.787
78581CL-    CL-40035   8.857  39.420  12.580
78582CL-    CL-40036  33.521  19.096   1.722
78583CL-    CL-40037   0.877  33.441   3.228
78584CL-    CL-40038  12.748  26.175  11.446
78585CL-    CL-40039  39.482   2.807  12.542
78586CL-    CL-40040  14.167   8.265   0.323
78587CL-    CL-40041  10.721   9.383   3.272
78588CL-    CL-40042  20.096   0.342  11.423
78589CL-    CL-40043  17.282  20.162   3.756
78590CL-    CL-40044  41.438  12.127  13.958
78591CL-    CL-40045   5.194  15.096  14.970
78592CL-    CL-40046  37.861  32.981  14.984
78593CL-    CL-40047  37.012   1.863  11.439
78594CL-    CL-40048  36.464   1.305   1.744
78595CL-    CL-40049  16.800  27.136  11.457
78596CL-    CL-40050   3.718  23.108  10.641
78597CL-    CL-40051  37.870  15.191   2.873
78598CL-    CL-40052  12.713  39.355  14.782
78599CL-    CL-40053  22.038  10.200   3.381
78600CL-    CL-40054  13.221  10.723   4.730
78601CL-    CL-40055  39.551   8.187   0.887
78602CL-    CL-40056   6.344  10.813   2.839
78603CL-    CL-40057  25.130   2.317   3.630
78604CL-    CL-40058  18.146  24.605  13.317
78605CL-    CL-40059   9.376  30.113   0.393
78606CL-    CL-40060  15.147  26.493  11.929
78607CL-    CL-40061   8.812   8.390   4.665
78608CL-    CL-40062  28.035   9.731  11.908
78609CL-    CL-40063  21.745   1.325  14.458
78610CL-    CL-40064  21.151  23.550  10.995
78611CL-    CL-40065  40.303  11.227   3.225
78612CL-    CL-40066  17.798  32.040  10.888
78613CL-    CL-40067  18.103  13.271  11.608
78614CL-    CL-40068   6.895   5.748   1.833
78615CL-    CL-40069  17.259  19.134   4.728
78616CL-    CL-40070  28.004   7.383   0.727
78617CL-    CL-40071  41.909   4.885  14.332
78618CL-    CL-40072  37.360   9.780   2.708
78619CL-    CL-40073  44.812  17.652  13.937
78620CL-    CL-40074   2.739  32.906  11.049
78621CL-    CL-40075   7.399  36.059   0.826
78622CL-    CL-40076  27.123  18.182  13.515
78623CL-    CL-40077   6.233   9.709  12.940
78624CL-    CL-40078  32.898  13.625   2.380
78625CL-    CL-40079  18.614   5.779   2.308
78626CL-    CL-40080  23.998   5.421   4.231
78627CL-    CL-40081  28.995  25.183  14.793
78628CL-    CL-40082  10.862  34.595   2.755
78629CL-    CL-40083  40.809  31.112   3.685
78630CL-    CL-40084  42.802   2.813  13.028
78631CL-    CL-40085   0.983   1.842   2.723
78632CL-    CL-40086  29.006  27.596   0.409
78633CL-    CL-40087  43.971  34.568   0.353
78634CL-    CL-40088  21.235  22.745   3.171
78635CL-    CL-40089  31.119  40.317  14.278
78636CL-    CL-40090  38.831  38.330   2.816
78637CL-    CL-40091  26.148   7.193   2.207
78638CL-    CL-40092   0.278  39.938  14.921
78639CL-    CL-40093  32.140  39.035   3.649
78640CL-    CL-40094   9.785  26.502  11.611
78641CL-    CL-40095  40.478   2.834  14.352
78642CL-    CL-40096  35.503  32.967   2.348
78643CL-    CL-40097  32.988  11.289   1.905
78644CL-    CL-40098   6.310  26.552   3.294
78645CL-    CL-40099   8.673  10.799   1.425
78646CL-    CL-40100   1.407  19.575   2.864
78647CL-    CL-40101  10.823  43.819  13.971
78648CL-    CL-40102  31.049  24.562  11.073
78649CL-    CL-40103  14.324   3.852   1.368
78650CL-    CL-40104  36.949   6.373   4.688
78651CL-    CL-40105  11.860  22.684  12.563
78652CL-    CL-40106   0.743  39.045  12.373
78653CL-    CL-40107   1.735  43.516   0.443
78654CL-    CL-40108  34.606  20.603  14.325
78655CL-    CL-40109  10.344  43.014   5.143
78656CL-    CL-40110  18.197  36.083   4.610
78657CL-    CL-40111   7.408  29.490   0.795
78658CL-    CL-40112  42.009  25.612  11.390
78659CL-    CL-40113  10.852  34.908  11.870
78660CL-    CL-40114  30.130  42.343   2.697
78661CL-    CL-40115  32.494  20.666   0.255
78662CL-    CL-40116  27.618  16.581  10.914
78663CL-    CL-40117  29.145  33.520   2.852
78664CL-    CL-40118  31.111  31.633  11.087
78665CL-    CL-40119  18.116  38.445  13.834
78666CL-    CL-40120  35.101  41.861   0.751
78667CL-    CL-40121  34.528  17.135  13.023
78668CL-    CL-40122  25.128   6.892   3.227
78669CL-    CL-40123  25.680  18.137  10.157
78670CL-    CL-40124  43.016  13.299  11.508
78671CL-    CL-40125  22.604  11.325   3.378
78672CL-    CL-40126  16.288  35.527   1.845
78673CL-    CL-40127   4.886   7.839   1.275
78674CL-    CL-40128  31.991  34.092   3.211
78675CL-    CL-40129  42.469  12.239   0.806
78676CL-    CL-40130   8.871  14.799  11.573
78677CL-    CL-40131   9.217  20.161  13.821
78678CL-    CL-40132   8.753   7.730  10.441
78679CL-    CL-40133   0.750  15.775  12.012
78680CL-    CL-40134  44.455  11.334  13.932
78681CL-    CL-40135  40.806  38.905  13.526
78682CL-    CL-40136  42.808  41.877   2.263
78683CL-    CL-40137  19.104  21.244   0.789
78684CL-    CL-40138  15.796  26.128  10.925
78685CL-    CL-40139   5.924  16.759   1.723
78686CL-    CL-40140   6.298  20.618  10.027
78687CL-    CL-40141  40.035   6.233   0.741
78688CL-    CL-40142   4.851   5.748   1.397
78689CL-    CL-40143  27.176  43.316   0.273
78690CL-    CL-40144  29.598   8.822   0.795
78691CL-    CL-40145  22.524  38.884  12.002
78692CL-    CL-40146  30.579  16.783   1.331
78693CL-    CL-40147  16.120   8.352  10.497
78694CL-    CL-40148  11.722   3.400  11.477
78695CL-    CL-40149   9.798   2.747   0.910
78696CL-    CL-40150  11.660  11.223  11.095
78697CL-    CL-40151   2.228  24.662   0.941
78698CL-    CL-40152   6.727  12.193  12.498
78699CL-    CL-40153   8.671  12.769   3.218
78700CL-    CL-40154  18.140   4.422   0.752
78701CL-    CL-40155   2.891   5.755   4.638
78702CL-    CL-40156   8.365  34.557  11.443
78703CL-    CL-40157  27.015  37.493   4.834
78704CL-    CL-40158  30.109  21.203  13.928
78705CL-    CL-40159  28.506  23.067   4.206
78706CL-    CL-40160  27.447  14.285  14.513
78707CL-    CL-40161  23.214   4.903  10.930
78708CL-    CL-40162  25.210  16.081  14.311
78709CL-    CL-40163  35.096   9.287  13.447
78710CL-    CL-40164  25.646  39.367   1.897
78711CL-    CL-40165  31.495   6.749  14.857
78712CL-    CL-40166  43.885  34.431   3.149
78713CL-    CL-40167   7.859   4.817  14.445
78714CL-    CL-40168   6.367  23.068   0.867
78715CL-    CL-40169  23.179   2.767   4.267
78716CL-    CL-40170  20.615  21.056  13.429
78717CL-    CL-40171   5.818  17.658  13.814
78718CL-    CL-40172  15.792  32.065  12.035
78719CL-    CL-40173  34.523  38.536   4.315
78720CL-    CL-40174  24.648  28.656  11.954
78721CL-    CL-40175  24.987  20.583   4.143
78722CL-    CL-40176  17.281   3.719  12.409
78723CL-    CL-40177  33.925  15.609  11.866
78724CL-    CL-40178  19.231  32.557   1.878
78725CL-    CL-40179  21.042   1.907   4.260
78726CL-    CL-40180  21.061   4.777   1.362
78727CL-    CL-40181  35.453  24.541   4.333
78728CL-    CL-40182  23.674  40.823   3.316
78729CL-    CL-40183   5.905   8.215  12.580
78730CL-    CL-40184  41.812  29.530  11.076
78731CL-    CL-40185  38.337  21.033   2.757
78732CL-    CL-40186  21.711  38.514   2.781
78733CL-    CL-40187  35.411  28.593   4.296
78734CL-    CL-40188  37.088  32.590  13.943
78735CL-    CL-40189  41.837   7.252  14.969
78736CL-    CL-40190  19.626  41.319  11.473
78737CL-    CL-40191  11.695  32.612   1.424
78738CL-    CL-40192   4.869  23.518   1.288
78739CL-    CL-40193  34.098  35.019  11.082
78740CL-    CL-40194  41.299  44.305  11.087
78741CL-    CL-40195  40.018  37.830   0.823
78742CL-    CL-40196  14.689  29.939  14.327
78743CL-    CL-40197  37.347   7.855  11.082
78744CL-    CL-40198  26.592  37.571   5.258
78745CL-    CL-40199  43.324  13.718  14.291
78746CL-    CL-40200  26.137  33.017  13.392
78747CL-    CL-40201  13.160  26.480  12.024
78748CL-    CL-40202  24.076  22.028  10.469
78749CL-    CL-40203   8.759  36.366  11.886
78750CL-    CL-40204   1.953   6.273   0.765
78751CL-    CL-40205   8.288  34.381  12.976
78752CL-    CL-40206  41.383   1.753   3.767
78753CL-    CL-40207  38.969  34.408   1.896
78754CL-    CL-40208  29.165   8.766   0.341
78755CL-    CL-40209  33.601  22.134  14.870
78756CL-    CL-40210  27.121  27.448   0.745
78757CL-    CL-40211  29.922  44.985  10.903
78758CL-    CL-40212  14.630  26.703  14.942
78759CL-    CL-40213  27.668  38.066  11.975
78760CL-    CL-40214  23.059  28.518   0.353
78761CL-    CL-40215  33.029  33.064  12.833
78762CL-    CL-40216  38.898  42.299  12.420
78763CL-    CL-40217  15.168  20.718   2.374
78764CL-    CL-40218  41.911  12.166   4.344
78765CL-    CL-40219  19.627  29.044   0.939
78766CL-    CL-40220  22.106  13.267  11.558
78767CL-    CL-40221  40.478  29.449   2.817
78768CL-    CL-40222  33.585  29.615   2.772
78769CL-    CL-40223  40.513  16.789  14.807
78770CL-    CL-40224   0.930  33.548  13.309
78771CL-    CL-40225  24.021  34.580  10.981
78772CL-    CL-40226  18.230   8.701  12.830
78773CL-    CL-40227  38.855  28.563  14.885
78774CL-    CL-40228  16.208   3.406  11.515
78775CL-    CL-40229  31.911  24.002  11.915
78776CL-    CL-40230   9.745  44.811   1.923
78777CL-    CL-40231  24.044  36.973   3.259
78778CL-    CL-40232  32.119  34.389   3.659
78779CL-    CL-40233  38.031  44.775  10.423
78780CL-    CL-40234   9.781  21.675  13.539
78781CL-    CL-40235  17.617  33.936  13.439
78782CL-    CL-40236  43.864  14.287   4.232
78783CL-    CL-40237   4.909  32.480   1.733
78784CL-    CL-40238  38.365  37.869   0.428
78785CL-    CL-40239   5.796  10.643   4.137
78786CL-    CL-40240  10.302  37.913  10.589
78787CL-    CL-40241   6.880  39.063   2.191
78788CL-    CL-40242  26.022  33.105   1.819
78789CL-    CL-40243  12.732  12.772  11.407
78790CL-    CL-40244   1.830  15.171  12.346
78791CL-    CL-40245  30.591  23.541   1.711
78792CL-    CL-40246  40.485  38.008   3.860
78793CL-    CL-40247   2.406   6.750  14.973
78794CL-    CL-40248   1.890  16.683   0.877
78795CL-    CL-40249  26.504  22.248   0.900
78796CL-    CL-40250  44.960  18.580   0.382
78797CL-    CL-40251  22.600  41.839   4.218
78798CL-    CL-40252   5.263  16.743   2.234
78799CL-    CL-40253   9.298  33.095   3.207
78800CL-    CL-40254  32.949   7.228  14.331
78801CL-    CL-40255  13.659  38.492  12.527
78802CL-    CL-40256  17.773   9.767   3.166
78803CL-    CL-40257  28.557  37.085  13.794
78804CL-    CL-40258   1.465  34.381  12.038
78805CL-    CL-40259  40.916   1.950   1.226
78806CL-    CL-40260  18.756  20.185   1.810
78807CL-    CL-40261  44.828  22.209  12.001
78808CL-    CL-40262  31.412   2.460  11.406
78809CL-    CL-40263   0.878  22.192   2.879
78810CL-    CL-40264  37.015  19.725  13.534
78811CL-    CL-40265  24.162  37.362   4.697
78812CL-    CL-40266  41.439  32.477   0.481
78813CL-    CL-40267   8.897  21.178   3.839
78814CL-    CL-40268  33.611  35.995  10.580
78815CL-    CL-40269   8.268  44.321   1.349
78816CL-    CL-40270  33.518  36.516   2.802
78817CL-    CL-40271   0.469  28.543   4.258
78818CL-    CL-40272   4.749   6.766   3.842
78819CL-    CL-40273  35.031   1.444   1.249
78820CL-    CL-40274  16.787  39.438   5.670
78821CL-    CL-40275  22.228  20.747  11.929
78822CL-    CL-40276  26.492  31.570   0.766
78823CL-    CL-40277  19.701  29.090  13.502
78824CL-    CL-40278   5.299   9.267   4.279
78825CL-    CL-40279   9.333  22.687  14.007
78826CL-    CL-40280  21.212   6.203  13.340
78827CL-    CL-40281  14.265  21.055   4.150
78828CL-    CL-40282  40.504  37.509  10.963
78829CL-    CL-40283  19.210  27.138  10.608
78830CL-    CL-40284   9.237  14.833  12.058
78831CL-    CL-40285  20.631  17.289   0.821
78832CL-    CL-40286  42.785  15.819   1.450
78833CL-    CL-40287  43.508   4.280  13.355
78834CL-    CL-40288  36.376  41.458  11.958
78835CL-    CL-40289  21.031  19.704  14.959
78836CL-    CL-40290   0.290  41.928  12.905
78837CL-    CL-40291  37.506  16.574  10.933
78838CL-    CL-40292  23.014  39.366   2.297
78839CL-    CL-40293  44.456   1.752  10.050
78840CL-    CL-40294  13.637  43.013   0.739
78841CL-    CL-40295  39.428   3.955   0.396
78842CL-    CL-40296  29.424   3.910  13.942
78843CL-    CL-40297  32.962  26.140   0.896
78844CL-    CL-40298   3.305  31.108   1.817
78845CL-    CL-40299  41.838  16.669   0.340
78846CL-    CL-40300  40.330  32.485  11.609
78847CL-    CL-40301  17.225  13.119   5.107
78848CL-    CL-40302  17.166  10.741  12.504
78849CL-    CL-40303   3.224   7.339   0.857
78850CL-    CL-40304  31.983  11.290  13.908
78851CL-    CL-40305  14.749   2.290   1.270
78852CL-    CL-40306  29.561  17.251  11.453
78853CL-    CL-40307  40.544  25.166   1.258
78854CL-    CL-40308   7.731  38.828  14.028
78855CL-    CL-40309  25.547  26.183  12.964
78856CL-    CL-40310   4.313   2.412   4.252
78857CL-    CL-40311   7.407  42.459   0.927
78858CL-    CL-40312  26.530  18.086   1.919
78859CL-    CL-40313  16.209  10.842  14.498
78860CL-    CL-40314  42.970  23.725   2.179
78861CL-    CL-40315  11.262  13.338   1.237
78862CL-    CL-40316  40.959  19.172  13.889
78863CL-    CL-40317  29.176   4.394   1.451
78864CL-    CL-40318   3.916  43.485   4.317
78865CL-    CL-40319   8.238  36.971   1.724
78866CL-    CL-40320  38.935  15.179   0.884
78867CL-    CL-40321   5.696  22.191  14.761
78868CL-    CL-40322  23.610   8.391  13.417
78869CL-    CL-40323  38.390  39.946   1.809
78870CL-    CL-40324  26.487  32.539   3.748
78871CL-    CL-40325  39.043  23.660  12.841
78872CL-    CL-40326  15.609  31.626  12.052
78873CL-    CL-40327  30.052   2.774  13.448
78874CL-    CL-40328  14.300   7.806   4.248
78875CL-    CL-40329   8.365  43.302   0.857
78876CL-    CL-40330  43.310  37.856   4.354
78877CL-    CL-40331  18.691  41.024   4.685
78878CL-    CL-40332  29.587  32.490  14.364
78879CL-    CL-40333  27.472   8.179  12.018
78880CL-    CL-40334  38.332   6.247   1.212
78881CL-    CL-40335  29.516  26.562   1.406
78882CL-    CL-40336   3.383  25.145  13.478
78883CL-    CL-40337  11.215  25.142   3.865
78884CL-    CL-40338  16.209  20.049  14.916
78885CL-    CL-40339   0.847  29.026   0.363
78886CL-    CL-40340  36.030   6.695   4.719
78887CL-    CL-40341  23.196  33.889  12.531
78888CL-    CL-40342  42.407  21.752  14.851
78889CL-    CL-40343   0.838  13.784  14.982
78890CL-    CL-40344  38.044  26.128   1.300
78891CL-    CL-40345   5.893  30.649  12.339
78892CL-    CL-40346  42.781  39.840   2.262
78893CL-    CL-40347  19.183  25.029   0.940
78894CL-    CL-40348  34.955  41.982   3.771
78895CL-    CL-40349  13.619  25.068   0.955
78896CL-    CL-40350   1.302  38.333   1.232
78897CL-    CL-40351  13.340  21.117   1.715
78898CL-    CL-40352  26.034   8.191   1.731
78899CL-    CL-40353  13.167  33.410  12.355
78900CL-    CL-40354  37.338  30.556  10.950
78901CL-    CL-40355   2.413  39.364   4.180
78902CL-    CL-40356   5.401  27.166  13.520
78903CL-    CL-40357  16.630  13.669  13.980
78904CL-    CL-40358  20.717  35.544  11.910
78905CL-    CL-40359  21.134  25.510   3.353
78906CL-    CL-40360  31.594  19.747  14.910
78907CL-    CL-40361  17.726  40.462   1.894
78908CL-    CL-40362   4.852  24.570  13.996
78909CL-    CL-40363  12.206  18.260  13.475
78910CL-    CL-40364  38.075   2.880  11.507
78911CL-    CL-40365  44.760  31.558   3.823
78912CL-    CL-40366   9.781  19.573  14.916
78913CL-    CL-40367  33.557   1.483  10.966
78914CL-    CL-40368   4.344  11.819   4.785
78915CL-    CL-40369  20.740  16.767  13.357
78916CL-    CL-40370  42.501   0.457   1.880
78917CL-    CL-40371  27.559   3.337   1.850
78918CL-    CL-40372   4.783   3.807   4.832
78919CL-    CL-40373  40.437  27.467  14.354
78920CL-    CL-40374  31.949  15.216   5.148
78921CL-    CL-40375  30.471   0.822   3.823
78922CL-    CL-40376  26.640   0.482   2.283
78923CL-    CL-40377  25.503  23.168   9.619
78924CL-    CL-40378   5.928  21.233   0.740
78925CL-    CL-40379  36.911  20.621  12.985
78926CL-    CL-40380  17.793  17.228  13.820
78927CL-    CL-40381  28.550  25.149  14.898
78928CL-    CL-40382  12.610  10.782   0.309
78929CL-    CL-40383  19.617  22.503  12.436
78930CL-    CL-40384  29.127  24.630   3.699
78931CL-    CL-40385  14.263   2.894   3.366
78932CL-    CL-40386   5.696  30.497  13.320
78933CL-    CL-40387   7.404   2.409  12.845
78934CL-    CL-40388   3.217   3.795  14.461
78935CL-    CL-40389  40.939   1.337  12.943
78936CL-    CL-40390  23.082   3.383  12.481
78937CL-    CL-40391  40.884  34.066  12.878
78938CL-    CL-40392  14.747  30.613  13.402
78939CL-    CL-40393  26.991  32.619  14.856
78940CL-    CL-40394  40.483  22.220  14.848
78941CL-    CL-40395  38.060  26.551  10.504
78942CL-    CL-40396  28.447   9.357  11.578
78943CL-    CL-40397  28.672  42.433   4.223
78944CL-    CL-40398  18.109  13.712  10.643
78945CL-    CL-40399   7.267  31.504   9.495
78946CL-    CL-40400  21.654  43.998  10.553
78947CL-    CL-40401  23.198  18.695   1.234
78948CL-    CL-40402  22.682  38.967   0.260
78949CL-    CL-40403   8.201  21.110   0.373
78950CL-    CL-40404  12.727   0.304  11.434
78951CL-    CL-40405  26.083  27.078   2.297
78952CL-    CL-40406   8.241  36.864  14.951
78953CL-    CL-40407  21.534  38.071   3.773
78954CL-    CL-40408  27.024  13.672   2.884
78955CL-    CL-40409  30.492   6.404   9.949
78956CL-    CL-40410  41.988   7.303   1.371
78957CL-    CL-40411  24.058  42.841  13.315
78958CL-    CL-40412  33.984  14.687   2.679
78959CL-    CL-40413  16.615  18.152  11.958
78960CL-    CL-40414  23.044   2.276  12.503
78961CL-    CL-40415  42.858  31.918   0.309
78962CL-    CL-40416  30.974  15.802   2.370
78963CL-    CL-40417  36.389  14.333   2.345
78964CL-    CL-40418  15.759  12.332  11.478
78965CL-    CL-40419  43.459  18.693  11.126
78966CL-    CL-40420  44.336  33.934   0.271
78967CL-    CL-40421  39.041  32.406   4.340
78968CL-    CL-40422  29.456  15.195   2.688
78969CL-    CL-40423  15.624  25.488  14.828
78970CL-    CL-40424  32.443  25.650  13.928
78971CL-    CL-40425  26.112  12.794  13.804
78972CL-    CL-40426  26.668   5.934   1.397
78973CL-    CL-40427  36.025  41.469   1.414
78974CL-    CL-40428  42.975  39.830  12.339
78975CL-    CL-40429  34.086  43.806  14.414
78976CL-    CL-40430   8.696  37.414   4.745
78977CL-    CL-40431   1.372  34.554  14.995
78978CL-    CL-40432  24.647  31.543  13.962
78979CL-    CL-40433  25.555  38.441  10.483
78980CL-    CL-40434  34.006   4.945  11.538
78981CL-    CL-40435   1.293  38.525  10.437
78982CL-    CL-40436  20.593  27.493   3.804
78983CL-    CL-40437  44.855  22.617   2.689
78984CL-    CL-40438   2.260  35.397  14.296
78985CL-    CL-40439   1.433  37.574   0.960
78986CL-    CL-40440  12.740   9.353   4.211
78987CL-    CL-40441  17.237  24.107  10.596
78988CL-    CL-40442   1.807  43.458   2.763
78989CL-    CL-40443  18.081  11.292   3.297
78990CL-    CL-40444   4.417  34.370  14.919
78991CL-    CL-40445  12.235   9.395  13.365
78992CL-    CL-40446  22.530  16.665   0.870
78993CL-    CL-40447  39.972  39.501   5.656
78994CL-    CL-40448  20.644  16.208   1.844
78995CL-    CL-40449  27.046   4.757  14.373
78996CL-    CL-40450  36.947  31.022  14.781
78997CL-    CL-40451  26.959   8.876   4.301
78998CL-    CL-40452  35.094  30.516  12.393
78999CL-    CL-40453  19.045   8.704  11.595
79000CL-    CL-40454  19.748   2.310   3.822
79001CL-    CL-40455  16.683   9.229  10.628
79002CL-    CL-40456   7.214   9.221   0.936
79003CL-    CL-40457  44.975  25.518  14.341
79004CL-    CL-40458  24.709   5.194   2.397
79005CL-    CL-40459  25.612  10.707   3.652
79006CL-    CL-40460  39.904   4.237   2.786
79007CL-    CL-40461  11.845   5.225  13.429
79008CL-    CL-40462  31.404  25.036  13.404
79009CL-    CL-40463  26.074   5.341  10.541
79010CL-    CL-40464  18.668  33.105   1.234
79011CL-    CL-40465  37.053  32.923  11.865
79012CL-    CL-40466  12.614  16.131  12.362
79013CL-    CL-40467  40.399  36.404  12.570
79014CL-    CL-40468   5.817  28.020  10.552
79015CL-    CL-40469  39.559  40.316  13.357
79016CL-    CL-40470   8.901  14.162   2.737
79017CL-    CL-40471   2.903  35.405   2.260
79018CL-    CL-40472   2.723  25.563  11.018
79019CL-    CL-40473  43.810  28.179   0.278
79020CL-    CL-40474   9.661  14.253  11.029
79021CL-    CL-40475   4.858  41.990   3.157
79022CL-    CL-40476  44.991  24.631   0.396
79023CL-    CL-40477   7.397  28.148   3.750
79024CL-    CL-40478   6.235  31.499   5.114
79025CL-    CL-40479  26.023   0.930   3.785
79026CL-    CL-40480  41.028   9.199   4.259
79027CL-    CL-40481  41.997  35.567   2.391
79028CL-    CL-40482  41.873  10.749  10.920
79029CL-    CL-40483  44.452   9.304   4.684
79030CL-    CL-40484  23.020  25.626  10.927
79031CL-    CL-40485  35.080   6.264   1.872
79032CL-    CL-40486  32.486  16.646  13.908
79033CL-    CL-40487  26.110  14.111   2.348
79034CL-    CL-40488  40.537  37.502  12.983
79035CL-    CL-40489  40.879  43.943   0.729
79036CL-    CL-40490  40.408  35.488   1.337
79037CL-    CL-40491  23.178  21.709  14.811
79038CL-    CL-40492  40.834  37.379   4.627
79039CL-    CL-40493  30.968  31.902  10.159
79040CL-    CL-40494  20.606  19.053   3.692
79041CL-    CL-40495  12.643  35.869   3.822
79042CL-    CL-40496   7.182   2.936   0.939
79043CL-    CL-40497  32.894  38.934  11.032
79044CL-    CL-40498  25.494   5.209  12.852
79045CL-    CL-40499  38.031  35.495   1.795
79046CL-    CL-40500  10.222  44.322  11.902
79047CL-    CL-40501   3.405  29.649  11.498
79048CL-    CL-40502  15.775  34.926   3.349
79049CL-    CL-40503  44.307   3.806   5.205
79050CL-    CL-40504  15.089  17.734  12.389
79051CL-    CL-40505  16.727  42.465  14.389
79052CL-    CL-40506   5.693  25.597  10.503
79053CL-    CL-40507  36.544  40.819   0.434
79054CL-    CL-40508  32.955   8.224  13.950
79055CL-    CL-40509  12.191   5.420  12.832
79056CL-    CL-40510   6.893  44.919   2.803
79057CL-    CL-40511  12.247  16.798  10.480
79058CL-    CL-40512   5.757  32.532   1.876
79059CL-    CL-40513  16.268  10.733   9.600
79060CL-    CL-40514  17.231   1.262  10.426
79061CL-    CL-40515  32.095  30.932   3.165
79062CL-    CL-40516  28.584  16.074  11.394
79063CL-    CL-40517  16.166   9.334  11.470
79064CL-    CL-40518   6.687  15.781  10.640
79065CL-    CL-40519  25.565   6.249   3.237
79066CL-    CL-40520  17.790  44.417  10.549
79067CL-    CL-40521  30.078  32.129   4.799
79068CL-    CL-40522  24.481  26.614   2.244
79069CL-    CL-40523  12.250  10.165  12.548
79070CL-    CL-40524  12.332  24.992  14.903
79071CL-    CL-40525  40.907  41.806  11.434
79072CL-    CL-40526  42.315  14.145   4.135
79073CL-    CL-40527  37.471  10.295   2.718
79074CL-    CL-40528  33.894  38.347   1.381
79075CL-    CL-40529  43.772  44.867  10.500
79076CL-    CL-40530   2.852  14.119   3.307
79077CL-    CL-40531  43.430  18.141   1.930
79078CL-    CL-40532  38.465  15.682   1.841
79079CL-    CL-40533  18.276  27.988  13.529
79080CL-    CL-40534  20.040  32.078   1.417
79081CL-    CL-40535  39.999  22.626   2.844
79082CL-    CL-40536  27.953  15.672   1.909
79083CL-    CL-40537  12.271  29.959   1.247
79084CL-    CL-40538   2.887   8.298   0.460
79085CL-    CL-40539  10.307   3.259   2.299
79086CL-    CL-40540  15.188  39.029  10.001
79087CL-    CL-40541   7.321  23.158   4.663
79088CL-    CL-40542  30.039   8.816   0.821
79089CL-    CL-40543  18.148  21.673   4.213
79090CL-    CL-40544  13.828  44.829   1.293
79091CL-    CL-40545  12.150  42.798   5.223
79092CL-    CL-40546  42.806  33.956  13.407
79093CL-    CL-40547   6.841  22.235   2.417
79094CL-    CL-40548  17.593  42.497  13.881
79095CL-    CL-40549  21.728  26.697  13.853
79096CL-    CL-40550  38.984  16.723  10.645
79097CL-    CL-40551  43.876   1.387   4.646
79098CL-    CL-40552  22.073  16.224   3.291
79099CL-    CL-40553  34.404  11.705  13.922
79100CL-    CL-40554  27.594  38.525  11.979
79101CL-    CL-40555  23.618  15.236  12.068
79102CL-    CL-40556   8.668  41.299  13.830
79103CL-    CL-40557   7.808  43.295   3.260
79104CL-    CL-40558  34.896  11.858   0.798
79105CL-    CL-40559  30.427  26.618  10.907
79106CL-    CL-40560  34.975  32.508  12.947
79107CL-    CL-40561  25.702  43.819   3.634
79108CL-    CL-40562  20.546  32.515   4.677
79109CL-    CL-40563  40.822  33.926  14.489
79110CL-    CL-40564   4.395  32.012  10.489
79111CL-    CL-40565  35.601   7.302  13.372
79112CL-    CL-40566  16.078   9.204  13.911
79113CL-    CL-40567  10.733  38.863  14.314
79114CL-    CL-40568   6.281   5.897   4.269
79115CL-    CL-40569  12.664  14.652  10.453
79116CL-    CL-40570  15.284  31.085   3.763
79117CL-    CL-40571  30.618  36.925   2.807
79118CL-    CL-40572  42.814  43.329   0.739
79119CL-    CL-40573  44.273  39.373  12.449
79120CL-    CL-40574  30.928  29.601   3.652
79121CL-    CL-40575  25.091   8.815   2.366
79122CL-    CL-40576  34.469  15.717   0.811
79123CL-    CL-40577  23.052   7.892   2.791
79124CL-    CL-40578   9.834  10.837  13.978
79125CL-    CL-40579  43.413  20.032   2.897
79126CL-    CL-40580  30.505  13.834   4.302
79127CL-    CL-40581  38.071  24.711   4.831
79128CL-    CL-40582  38.831  37.543   3.270
79129CL-    CL-40583  23.011  23.601   1.923
79130CL-    CL-40584  17.686  25.137   2.306
79131CL-    CL-40585  16.268   6.246  13.899
79132CL-    CL-40586  17.103  18.236   5.193
79133CL-    CL-40587  35.007  19.666  13.437
79134CL-    CL-40588  36.509  18.292  12.061
79135CL-    CL-40589   9.364  21.700   1.918
79136CL-    CL-40590   7.245   7.267   3.759
79137CL-    CL-40591  21.197  29.599  11.556
79138CL-    CL-40592  28.662  13.664   2.674
79139CL-    CL-40593  20.193  16.263   4.297
79140CL-    CL-40594  26.071  43.896  12.061
79141CL-    CL-40595  17.602  40.308   1.398
79142CL-    CL-40596   8.403   5.919   4.182
79143CL-    CL-40597  29.103  38.367   1.826
79144CL-    CL-40598  41.803  30.647  13.527
79145CL-    CL-40599   4.324  15.737   4.141
79146CL-    CL-40600  35.903  39.060  11.057
79147CL-    CL-40601  27.999  22.632  14.849
79148CL-    CL-40602  16.733   7.866   4.619
79149CL-    CL-40603  19.041  21.553  12.015
79150CL-    CL-40604  21.094  16.305  14.321
79151CL-    CL-40605   2.274  44.778  14.835
79152CL-    CL-40606  44.884  43.844   0.320
79153CL-    CL-40607   8.830   9.312  13.349
79154CL-    CL-40608  20.210  11.282   0.355
79155CL-    CL-40609  44.983  30.981  13.836
79156CL-    CL-40610  39.828  25.163  14.031
79157CL-    CL-40611  22.088   7.172  13.980
79158CL-    CL-40612   4.448  17.570   4.642
79159CL-    CL-40613  32.032   3.243   3.227
79160CL-    CL-40614  18.613  19.695   5.165
79161CL-    CL-40615  43.956   6.417  10.940
79162CL-    CL-40616  11.817  39.045  10.446
79163CL-    CL-40617  37.364   9.238  12.893
79164CL-    CL-40618  26.500  33.003  11.522
79165CL-    CL-40619   4.260  44.289   2.340
79166CL-    CL-40620  40.375  19.221   0.734
79167CL-    CL-40621  37.464  44.308   2.695
79168CL-    CL-40622  39.863  10.824  13.878
79169CL-    CL-40623  26.623  40.798   0.829
79170CL-    CL-40624  41.009  21.263  14.509
79171CL-    CL-40625  23.207  11.329  10.541
79172CL-    CL-40626  23.598  38.384  13.345
79173CL-    CL-40627  22.137  43.984  14.936
79174CL-    CL-40628   6.291  41.894   4.194
79175CL-    CL-40629  33.942  27.469  11.428
79176CL-    CL-40630   0.382  24.626   2.869
79177CL-    CL-40631   3.334  40.527   2.754
79178CL-    CL-40632  13.843  10.151   5.769
79179CL-    CL-40633   9.793  37.351  12.041
79180CL-    CL-40634  39.860  18.564  11.403
79181CL-    CL-40635   0.839  30.100  12.846
79182CL-    CL-40636  31.054  27.488   3.796
79183CL-    CL-40637  20.130  13.119  12.402
79184CL-    CL-40638  31.980  16.593  13.887
79185CL-    CL-40639  36.934  15.761   4.191
79186CL-    CL-40640  30.132  15.260  12.034
79187CL-    CL-40641  36.394  42.461  13.482
79188CL-    CL-40642  40.962   7.174  13.973
79189CL-    CL-40643  34.511  44.906   1.414
79190CL-    CL-40644  31.577   1.364  14.274
79191CL-    CL-40645  39.840  42.776  13.927
79192CL-    CL-40646  31.424   5.280   3.682
79193CL-    CL-40647  30.997  36.409   3.731
79194CL-    CL-40648   2.786  13.120   4.322
79195CL-    CL-40649  18.766  41.827  14.426
79196CL-    CL-40650  19.579   1.848  14.941
79197CL-    CL-40651  16.181  42.921   4.604
79198CL-    CL-40652  43.422  12.733  13.794
79199CL-    CL-40653   0.757  13.129   2.851
79200CL-    CL-40654  27.176  33.934   0.747
79201CL-    CL-40655  22.049   3.849   4.682
79202CL-    CL-40656  23.728   5.767  14.011
79203CL-    CL-40657  12.363  26.000  14.487
79204CL-    CL-40658  19.616  26.626   5.224
79205CL-    CL-40659  18.056  10.209  14.515
79206CL-    CL-40660   4.865  23.237   0.274
79207CL-    CL-40661  13.760  32.902   0.296
79208CL-    CL-40662   2.371  27.060  13.357
79209CL-    CL-40663  12.790  32.498   0.897
79210CL-    CL-40664   6.814  23.642  13.941
79211CL-    CL-40665   5.414  14.326   0.895
79212CL-    CL-40666  27.026  36.044  12.885
79213CL-    CL-40667  35.999  12.301  11.603
79214CL-    CL-40668  38.420  15.217   1.724
79215CL-    CL-40669  34.071  20.163   4.681
79216CL-    CL-40670  26.177  41.797   3.669
79217CL-    CL-40671  15.319   3.244   3.190
79218CL-    CL-40672  39.036  16.243  11.092
79219CL-    CL-40673  30.929   9.701  14.886
79220CL-    CL-40674  29.997  15.726  13.476
79221CL-    CL-40675   9.373  12.155  14.983
79222CL-    CL-40676  41.322  26.670   0.285
79223CL-    CL-40677   1.293  11.784  11.438
79224CL-    CL-40678  20.585  41.956  10.636
79225CL-    CL-40679  32.073  18.675  11.019
79226CL-    CL-40680   2.316  12.250  12.469
79227CL-    CL-40681  36.050  24.208  11.092
79228CL-    CL-40682  36.515  26.686   3.350
79229CL-    CL-40683  41.870  42.990   9.999
79230CL-    CL-40684  31.472  44.263  13.939
79231CL-    CL-40685  16.623  42.893  11.901
79232CL-    CL-40686  10.820  24.201  12.948
79233CL-    CL-40687  15.819  44.858  14.763
79234CL-    CL-40688   3.844  31.962  11.533
79235CL-    CL-40689  42.838  24.125   3.223
79236CL-    CL-40690  36.526  32.139  13.354
79237CL-    CL-40691   1.477   2.931  12.826
79238CL-    CL-40692  23.997  32.973  12.411
79239CL-    CL-40693   8.842  19.198  14.830
79240CL-    CL-40694   1.278  27.464  13.331
79241CL-    CL-40695  22.591   7.318   0.787
79242CL-    CL-40696  42.914  14.783   1.390
79243CL-    CL-40697  14.328  29.555  14.021
79244CL-    CL-40698  43.443   3.293  11.095
79245CL-    CL-40699   8.265  37.961  11.917
79246CL-    CL-40700  25.105  34.968  11.941
79247CL-    CL-40701  20.738   6.282   0.855
79248CL-    CL-40702  43.964   6.215  12.366
79249CL-    CL-40703  39.347  14.130   2.246
79250CL-    CL-40704  38.459  19.568  12.002
79251CL-    CL-40705  17.143  38.015  12.941
79252CL-    CL-40706  34.902  12.687  14.837
79253CL-    CL-40707  43.411  24.706   3.212
79254CL-    CL-40708  28.452   5.193  14.769
79255CL-    CL-40709  41.992  42.877   1.402
79256CL-    CL-40710  41.854  34.918   0.369
79257CL-    CL-40711  40.419   3.830   4.208
79258CL-    CL-40712  42.008  22.245   0.247
79259CL-    CL-40713  12.315  15.591   3.855
79260CL-    CL-40714  17.225   7.288   5.315
79261CL-    CL-40715  26.158  17.619  12.842
79262CL-    CL-40716  13.194  23.655   9.938
79263CL-    CL-40717   7.710  12.237   0.817
79264CL-    CL-40718  16.224  10.729  13.864
79265CL-    CL-40719  11.271  18.102   3.198
79266CL-    CL-40720   8.674   4.922   0.816
79267CL-    CL-40721  34.068  22.553   4.335
79268CL-    CL-40722  30.981  24.665   1.776
79269CL-    CL-40723  18.085  43.866   0.824
79270CL-    CL-40724   6.688  12.714  11.403
79271CL-    CL-40725  38.071  27.579   0.861
79272CL-    CL-40726  43.375  36.910  10.541
79273CL-    CL-40727  20.095   0.323   1.335
79274CL-    CL-40728   3.267  40.016  13.016
79275CL-    CL-40729  26.681  16.141   0.361
79276CL-    CL-40730  25.064  43.854  10.973
79277CL-    CL-40731  36.079  42.389   0.872
79278CL-    CL-40732  35.904  34.413  13.381
79279CL-    CL-40733  10.636  22.556   4.638
79280CL-    CL-40734  33.476  35.512  11.062
79281CL-    CL-40735   5.344   4.230   0.452
79282CL-    CL-40736  29.567   2.742  10.591
79283CL-    CL-40737  15.793  22.568  12.511
79284CL-    CL-40738  27.999  31.433  14.925
79285CL-    CL-40739  11.700  14.183   1.371
79286CL-    CL-40740   3.309  40.523  11.074
79287CL-    CL-40741  10.859  36.474  11.902
79288CL-    CL-40742  31.624  25.587   4.642
79289CL-    CL-40743  19.627  19.603  12.370
79290CL-    CL-40744  20.662  27.663  12.475
79291CL-    CL-40745  34.388  10.156  10.037
79292CL-    CL-40746  38.911  42.021   4.299
79293CL-    CL-40747  41.842  23.541   4.829
79294CL-    CL-40748  43.929  36.425  13.832
79295CL-    CL-40749  32.540  37.853   4.272
79296CL-    CL-40750   9.699  20.220   2.858
79297CL-    CL-40751  30.008  36.975   0.307
79298CL-    CL-40752  44.990  33.589  12.912
79299CL-    CL-40753   3.357  19.719   3.243
79300CL-    CL-40754  18.192   9.724   0.799
79301CL-    CL-40755   0.791  38.366   2.763
79302CL-    CL-40756  19.613   1.435  11.999
79303CL-    CL-40757  13.287  43.892   3.794
79304CL-    CL-40758  24.595  29.516  11.101
79305CL-    CL-40759  19.708  10.663  11.913
79306CL-    CL-40760  32.435  30.548   2.876
79307CL-    CL-40761   4.850  33.515   3.721
79308CL-    CL-40762  33.430  36.543   0.429
79309CL-    CL-40763  33.101   6.770   4.331
79310CL-    CL-40764  42.320  34.542   0.850
79311CL-    CL-40765  24.497  24.014   0.943
79312CL-    CL-40766  39.499  31.149  12.392
79313CL-    CL-40767  31.134  43.903   0.383
79314CL-    CL-40768  12.846  15.230  10.622
79315CL-    CL-40769  40.032  13.117  13.047
79316CL-    CL-40770   7.326  44.945  11.953
79317CL-    CL-40771   8.707  20.538   1.699
79318CL-    CL-40772  13.165   4.285  11.570
79319CL-    CL-40773  38.939  35.106   0.823
79320CL-    CL-40774   9.359  18.196  12.931
79321CL-    CL-40775   2.264  35.910   9.939
79322CL-    CL-40776  15.260  44.274  13.537
79323CL-    CL-40777  17.718  26.619   1.414
79324CL-    CL-40778  26.177   6.369   1.239
79325CL-    CL-40779   5.735  36.077   3.227
79326CL-    CL-40780  20.204   5.385  12.348
79327CL-    CL-40781  41.521  18.245   4.313
79328CL-    CL-40782  16.570  38.439  12.087
79329CL-    CL-40783  26.123  26.158   0.379
79330CL-    CL-40784   1.439  30.938   1.449
79331CL-    CL-40785  19.053  16.611   4.200
79332CL-    CL-40786  31.500  31.472  12.049
79333CL-    CL-40787  17.653  28.996   4.658
79334CL-    CL-40788  27.516  24.497   1.769
79335CL-    CL-40789  30.068  27.155  13.378
79336CL-    CL-40790  44.951  12.836  12.500
79337CL-    CL-40791  18.125  10.275   4.279
79338CL-    CL-40792  11.813  40.943   1.308
79339CL-    CL-40793  31.941   8.728   2.777
79340CL-    CL-40794  42.986  21.251   4.184
79341CL-    CL-40795  22.070   4.743  13.459
79342CL-    CL-40796   9.709  21.528   4.142
79343CL-    CL-40797   2.730   2.815  13.918
79344CL-    CL-40798   5.724  36.846   2.234
79345CL-    CL-40799  20.135   6.678   0.790
79346CL-    CL-40800  16.075   7.393  14.391
79347CL-    CL-40801  37.969  40.924  11.996
79348CL-    CL-40802  41.516  38.361   4.335
79349CL-    CL-40803  42.983  25.479  12.867
79350CL-    CL-40804  38.501  17.303  14.284
79351CL-    CL-40805   0.318  25.979  12.379
79352CL-    CL-40806  27.945  41.949  12.387
79353CL-    CL-40807  24.667  22.530   1.298
79354CL-    CL-40808  25.582  24.508  13.958
79355CL-    CL-40809  17.177  22.175   2.304
79356CL-    CL-40810  24.639  35.019  10.912
79357CL-    CL-40811  41.042  26.181  11.004
79358CL-    CL-40812  40.335   4.443   3.849
79359CL-    CL-40813  26.978   4.740  12.545
79360CL-    CL-40814   9.389  30.627  12.880
79361CL-    CL-40815  11.836  21.627  10.126
79362CL-    CL-40816   0.318  32.982   1.818
79363CL-    CL-40817  13.273  21.156   0.375
79364CL-    CL-40818  31.500   6.888   0.391
79365CL-    CL-40819   0.492  30.085   0.748
79366CL-    CL-40820   3.870  27.512  13.378
79367CL-    CL-40821  35.475   0.455  14.487
79368CL-    CL-40822  39.007   9.746  10.606
79369CL-    CL-40823  26.654  24.060   3.870
79370CL-    CL-40824   3.753  34.904   1.329
79371CL-    CL-40825   1.432  21.080  11.856
79372CL-    CL-40826  26.483  23.002   5.316
79373CL-    CL-40827  38.347  18.742   4.625
79374CL-    CL-40828  29.141  11.350  14.373
79375CL-    CL-40829  26.007  24.668   5.667
79376CL-    CL-40830  39.949  27.593   3.149
79377CL-    CL-40831  34.884  35.872   4.192
79378CL-    CL-40832   0.954  38.347   4.810
79379CL-    CL-40833  42.814  18.613   0.378
79380CL-    CL-40834  33.105  31.623   1.221
79381CL-    CL-40835  21.604  18.786   3.327
79382CL-    CL-40836  23.105  41.902  14.003
79383CL-    CL-40837   7.903   2.862  11.954
79384CL-    CL-40838   6.420  29.105   0.951
79385CL-    CL-40839  24.653  25.106   0.306
79386CL-    CL-40840  15.133   8.339  12.931
79387CL-    CL-40841   8.710  24.574  10.979
79388CL-    CL-40842  13.146  34.897   2.342
79389CL-    CL-40843   2.911  43.427  14.325
79390CL-    CL-40844  26.040  39.912  14.373
79391CL-    CL-40845   7.666  17.589  11.906
79392CL-    CL-40846  17.077  41.353   1.395
79393CL-    CL-40847   0.412  26.046   4.756
79394CL-    CL-40848  32.084  23.556  12.930
79395CL-    CL-40849  19.561  14.239  14.902
79396CL-    CL-40850  17.789  27.096   2.236
79397CL-    CL-40851  35.896  15.757  13.935
79398CL-    CL-40852  34.063   0.967   2.378
79399CL-    CL-40853   4.347  29.642   2.699
79400CL-    CL-40854   4.391  17.800  13.545
79401CL-    CL-40855   0.871  19.575   3.765
79402CL-    CL-40856  41.403  21.699  12.073
79403CL-    CL-40857  33.541   4.335  13.971
79404CL-    CL-40858  21.661  37.403  11.554
79405CL-    CL-40859  36.911   7.908  11.121
79406CL-    CL-40860  32.969  22.041   1.894
79407CL-    CL-40861   9.196  37.461  10.634
79408CL-    CL-40862  34.380  39.322  11.392
79409CL-    CL-40863  43.477  28.641   2.790
79410CL-    CL-40864   1.237   1.347   0.449
79411CL-    CL-40865  22.070  24.563   4.280
79412CL-    CL-40866  27.525   4.300   4.172
79413CL-    CL-40867  37.926   3.220  10.931
79414CL-    CL-40868   7.276  31.600  13.816
79415CL-    CL-40869   1.805  43.896  14.943
79416CL-    CL-40870   8.303  21.692  10.531
79417CL-    CL-40871   5.691  26.965  12.075
79418CL-    CL-40872  16.309  23.642  10.941
79419CL-    CL-40873  28.002  27.554  14.319
79420CL-    CL-40874  33.481  20.097   1.318
79421CL-    CL-40875  17.704  21.589   4.699
79422CL-    CL-40876  26.077   7.741   2.727
79423CL-    CL-40877  31.119  19.139   2.195
79424CL-    CL-40878  36.955  19.593   2.879
79425CL-    CL-40879  27.189   3.224   3.376
79426CL-    CL-40880  43.912  14.772   3.215
79427CL-    CL-40881   8.860  13.254  12.907
79428CL-    CL-40882  43.768  22.175  14.315
79429CL-    CL-40883   3.339  24.229   1.800
79430CL-    CL-40884   4.420   1.814   2.865
79431CL-    CL-40885   6.317  25.111  12.884
79432CL-    CL-40886   7.874  43.963   3.213
79433CL-    CL-40887  29.545  29.542   1.363
79434CL-    CL-40888   7.266  17.243  14.309
79435CL-    CL-40889  44.425  15.704  12.946
79436CL-    CL-40890  38.821  24.163   4.830
79437CL-    CL-40891  24.634  35.003   0.733
79438CL-    CL-40892   1.244  41.995  11.541
79439CL-    CL-40893  17.751  31.126  11.480
79440CL-    CL-40894  27.971  10.658  11.429
79441CL-    CL-40895  22.585   1.731   1.797
79442CL-    CL-40896  41.311   1.935  12.875
79443CL-    CL-40897  16.692  17.213   0.334
79444CL-    CL-40898   9.883  31.001  10.896
79445CL-    CL-40899  26.000  28.024   3.374
79446CL-    CL-40900  10.266  39.408   2.796
79447CL-    CL-40901  31.595  33.481   2.366
79448CL-    CL-40902   4.784  22.636   4.838
79449CL-    CL-40903  26.491  20.657  12.074
79450CL-    CL-40904  13.708  41.453   2.296
79451CL-    CL-40905   8.320  12.784  13.890
79452CL-    CL-40906  32.015   4.388   3.702
79453CL-    CL-40907   3.402  20.667   3.220
79454CL-    CL-40908  24.050  25.023  11.409
79455CL-    CL-40909  28.942  38.943   2.810
79456CL-    CL-40910  38.913  44.911  11.450
79457CL-    CL-40911   1.401  31.438  12.346
79458CL-    CL-40912  28.942  18.256  14.809
79459CL-    CL-40913  24.525  24.625   4.256
79460CL-    CL-40914  18.070  36.369  14.814
79461CL-    CL-40915   0.428  36.044  13.834
79462CL-    CL-40916   4.883   2.862  13.494
79463CL-    CL-40917  41.034  13.735  12.475
79464CL-    CL-40918  28.075   0.964   1.279
79465CL-    CL-40919  10.845  41.502  11.040
79466CL-    CL-40920  42.343   9.747   4.602
79467CL-    CL-40921  11.688   1.886   4.300
79468CL-    CL-40922  15.774  15.227   4.616
79469CL-    CL-40923   6.209  30.493   1.322
79470CL-    CL-40924  18.774  42.032  10.626
79471CL-    CL-40925  12.665  27.118  11.023
79472CL-    CL-40926  30.649   1.920  10.456
79473CL-    CL-40927  39.405   8.227  11.400
79474CL-    CL-40928  21.220  39.934   0.828
79475CL-    CL-40929  18.141  36.002   3.267
79476CL-    CL-40930  11.748  30.592  14.439
79477CL-    CL-40931  14.626  23.021   3.831
79478CL-    CL-40932   7.282   0.870  14.473
79479CL-    CL-40933  43.866  19.534   4.819
79480CL-    CL-40934   9.188  12.129  13.793
79481CL-    CL-40935  30.538  33.484  10.609
79482CL-    CL-40936  26.196  35.594   2.840
79483CL-    CL-40937  30.983  15.690  12.976
79484CL-    CL-40938  11.721   6.252  14.833
79485CL-    CL-40939  27.625  29.459   4.296
79486CL-    CL-40940  25.504  13.727  11.025
79487CL-    CL-40941  21.192  12.249   2.877
79488CL-    CL-40942  43.933  44.318   4.331
79489CL-    CL-40943  34.488  10.285  11.010
79490CL-    CL-40944  22.511  34.613  11.019
79491CL-    CL-40945  29.025  40.913   4.300
79492CL-    CL-40946  39.063  31.537  12.995
79493CL-    CL-40947  35.077  24.493  14.343
79494CL-    CL-40948  28.668  21.213  12.904
79495CL-    CL-40949   2.773  25.596   1.265
79496CL-    CL-40950  37.371  30.449  11.436
79497CL-    CL-40951   0.405  36.922  12.872
79498CL-    CL-40952  39.053  22.038   0.770
79499CL-    CL-40953  39.451  24.484   4.237
79500CL-    CL-40954  37.050  18.261  10.452
79501CL-    CL-40955  22.241  16.082  13.984
79502CL-    CL-40956  40.547  13.845  13.959
79503CL-    CL-40957   7.374  29.487  11.425
79504CL-    CL-40958  20.064   1.332  14.815
79505CL-    CL-40959   5.262  43.393  10.432
79506CL-    CL-40960   7.311  26.078   1.889
79507CL-    CL-40961   5.916  21.178  10.444
79508CL-    CL-40962   4.448  36.364  10.524
79509CL-    CL-40963   0.356  35.088   1.351
79510CL-    CL-40964   3.726  15.593   3.697
79511CL-    CL-40965  31.600  13.253  13.453
79512CL-    CL-40966  34.988  32.433   4.123
79513CL-    CL-40967  33.003   0.433   3.369
79514CL-    CL-40968  36.951  17.301   4.707
79515CL-    CL-40969  41.495   7.363  12.372
79516CL-    CL-40970  19.108  35.363  10.530
79517CL-    CL-40971   9.719  35.917   4.672
79518CL-    CL-40972  24.048  31.123  11.961
79519CL-    CL-40973   0.797  31.631  13.333
79520CL-    CL-40974  36.039  15.601   3.369
79521CL-    CL-40975  14.731  40.949   1.811
79522CL-    CL-40976  13.184  35.359   4.188
79523CL-    CL-40977   2.931   2.321  14.297
79524CL-    CL-40978  36.847  31.125  11.461
79525CL-    CL-40979  16.640   2.417   0.731
79526CL-    CL-40980  39.409  40.325   2.278
79527CL-    CL-40981  44.985  16.813  11.878
79528CL-    CL-40982   9.273  34.560   4.295
79529CL-    CL-40983  22.111   8.739   0.817
79530CL-    CL-40984  40.548  12.639   0.961
79531CL-    CL-40985  39.005  19.206   4.689
79532CL-    CL-40986  40.918  37.485  11.880
79533CL-    CL-40987   0.945  32.619   1.934
79534CL-    CL-40988   6.266  18.064  13.414
79535CL-    CL-40989  26.004  28.466  13.899
79536CL-    CL-40990   6.286   1.836   3.785
79537CL-    CL-40991   2.262  19.560   4.280
79538CL-    CL-40992  32.995  24.039  10.498
79539CL-    CL-40993   1.407  11.369  13.534
79540CL-    CL-40994  21.123  17.635   0.308
79541CL-    CL-40995  43.863  26.998   1.822
79542CL-    CL-40996   9.208  17.124   3.249
79543CL-    CL-40997  21.070  18.638  14.939
79544CL-    CL-40998   8.196  43.342   4.137
79545CL-    CL-40999  27.572  10.289   0.362
79546CL-    CL-41000  39.384  29.505  14.849
79547CL-    CL-41001  15.736   3.857  14.797
79548CL-    CL-41002   8.762  22.652  13.528
79549CL-    CL-41003   7.316   5.395   2.879
79550CL-    CL-41004  25.559  38.569   2.307
79551CL-    CL-41005  18.649  33.403   0.268
79552CL-    CL-41006  13.759  41.510   0.377
79553CL-    CL-41007  21.084  44.274  10.993
79554CL-    CL-41008   3.273   7.267   2.859
79555CL-    CL-41009  41.351  19.777   1.263
79556CL-    CL-41010  32.528  36.509   4.691
79557CL-    CL-41011  22.639  26.550  10.639
79558CL-    CL-41012  35.896  32.516  13.044
79559CL-    CL-41013   3.914  17.167  12.409
79560CL-    CL-41014  29.663  14.806  14.024
79561CL-    CL-41015   1.837  32.510   2.368
79562CL-    CL-41016  21.592   8.825   2.323
79563CL-    CL-41017  33.547  19.749  10.429
79564CL-    CL-41018  14.284  38.907   0.887
79565CL-    CL-41019  43.866  29.648  12.493
79566CL-    CL-41020  14.174  18.245   4.198
79567CL-    CL-41021  10.345   0.481  11.612
79568CL-    CL-41022   5.229  26.578  11.943
79569CL-    CL-41023   2.738  35.057  11.078
79570CL-    CL-41024  36.903   5.320  14.307
79571CL-    CL-41025   0.920  33.030  11.860
79572CL-    CL-41026  18.199  19.565   3.347
79573CL-    CL-41027  32.926  15.224   2.830
79574CL-    CL-41028  36.421  34.583   4.156
79575CL-    CL-41029  38.978  20.768   4.314
79576CL-    CL-41030  20.099   2.752   4.705
79577CL-    CL-41031  27.677  41.810   2.736
79578CL-    CL-41032   2.938  21.722  13.479
79579CL-    CL-41033  34.865  26.684   0.475
79580CL-    CL-41034  19.195  29.553   3.274
79581CL-    CL-41035  16.620  16.607  13.014
79582CL-    CL-41036  40.420  20.092  13.429
79583CL-    CL-41037   0.764  35.992   0.266
79584CL-    CL-41038  29.005  19.575  13.519
79585CL-    CL-41039  42.847   9.380   4.289
79586CL-    CL-41040  31.925  14.227  11.505
79587CL-    CL-41041  26.156  22.553  12.994
79588CL-    CL-41042  44.325   6.251   0.952
79589CL-    CL-41043  27.145  34.387  13.320
79590CL-    CL-41044  22.633  41.436   2.677
79591CL-    CL-41045  25.215  30.462   4.201
79592CL-    CL-41046  11.798  25.670   2.692
79593CL-    CL-41047  19.607  38.549   3.803
79594CL-    CL-41048  41.904  34.515   4.648
79595CL-    CL-41049  23.720  31.907   0.776
79596CL-    CL-41050   6.395   7.817   3.774
79597CL-    CL-41051  29.590  17.253   3.333
79598CL-    CL-41052  41.518  36.500   4.659
79599CL-    CL-41053   8.671  13.232   1.910
79600CL-    CL-41054  16.759  38.998   0.799
79601CL-    CL-41055   0.983  33.497  12.371
79602CL-    CL-41056   4.208  21.732   0.735
79603CL-    CL-41057  44.845   4.302  14.822
79604CL-    CL-41058  17.750  44.367  12.025
79605CL-    CL-41059  30.040  44.316  10.918
79606CL-    CL-41060  13.338  17.282   0.932
79607CL-    CL-41061  39.874  26.000  14.949
79608CL-    CL-41062  14.660  40.813   3.197
79609CL-    CL-41063  36.012  42.935  12.451
79610CL-    CL-41064   4.811  27.487   1.798
79611CL-    CL-41065   6.313   3.259   1.824
79612CL-    CL-41066   5.931  15.163   0.335
79613CL-    CL-41067  11.794  28.040   0.314
79614CL-    CL-41068  31.538  15.313  11.997
79615CL-    CL-41069  25.169  14.776  14.920
79616CL-    CL-41070   4.274  40.918  10.543
79617CL-    CL-41071  42.445   3.429   0.363
79618CL-    CL-41072  10.289  31.021   9.565
79619CL-    CL-41073  25.076   4.887  14.295
79620CL-    CL-41074  28.599  41.525   3.713
79621CL-    CL-41075  16.649  24.059  12.543
79622CL-    CL-41076  26.963  29.127   0.881
79623CL-    CL-41077  43.849  39.557  14.357
79624CL-    CL-41078  41.034  20.159  12.857
79625CL-    CL-41079   5.419   1.906  12.433
79626CL-    CL-41080  20.639   0.380   0.483
79627CL-    CL-41081  43.916  42.898   3.672
79628CL-    CL-41082   0.435  15.210  10.558
79629CL-    CL-41083   9.706  23.694  12.065
79630CL-    CL-41084  16.273  35.411   3.756
79631CL-    CL-41085  23.667  16.775  13.966
79632CL-    CL-41086  34.425  35.422  14.347
79633CL-    CL-41087   6.842  36.952  10.405
79634CL-    CL-41088  11.327  23.531   4.118
79635CL-    CL-41089   8.815   2.727  12.519
79636CL-    CL-41090  19.269   3.867   1.337
79637CL-    CL-41091   8.782  36.892   0.817
79638CL-    CL-41092   8.882   9.368   4.636
79639CL-    CL-41093  24.715  25.615   0.902
79640CL-    CL-41094  44.278   9.745   1.726
79641CL-    CL-41095  10.807   7.754   1.212
79642CL-    CL-41096   5.309   4.426   3.179
79643CL-    CL-41097  37.045  42.432  13.876
79644CL-    CL-41098  15.286  43.007  12.089
79645CL-    CL-41099  27.566  16.161  14.836
79646CL-    CL-41100   1.375   3.931   0.401
79647CL-    CL-41101  22.734  22.155  12.449
79648CL-    CL-41102  24.119   3.732   1.829
79649CL-    CL-41103  11.779  25.005  12.972
79650CL-    CL-41104  36.883  32.950  10.939
79651CL-    CL-41105  44.003  29.508  13.401
79652CL-    CL-41106  25.974   9.701   0.759
79653CL-    CL-41107  37.831  20.058  14.763
79654CL-    CL-41108  42.857  34.941  14.817
79655CL-    CL-41109  25.098   2.918   0.750
79656CL-    CL-41110   2.407  33.974  13.873
79657CL-    CL-41111  15.224  34.369  12.511
79658CL-    CL-41112  33.098  20.247  11.050
79659CL-    CL-41113  23.691   5.268   3.676
79660CL-    CL-41114  18.134   6.326   2.762
79661CL-    CL-41115  25.058   0.314  11.967
79662CL-    CL-41116  24.179  39.971  11.064
79663CL-    CL-41117  20.158   0.353   0.483
79664CL-    CL-41118  30.929   7.383   0.478
79665CL-    CL-41119  34.504  12.328   0.846
79666CL-    CL-41120  19.637  33.913   3.338
79667CL-    CL-41121  32.990   2.237   1.409
79668CL-    CL-41122  16.572  28.976   3.307
79669CL-    CL-41123  40.956   1.752   2.286
79670CL-    CL-41124  40.027  44.823  11.081
79671CL-    CL-41125  22.613  44.905  11.056
79672CL-    CL-41126  12.138  25.612   1.729
79673CL-    CL-41127  40.897  26.574   0.342
79674CL-    CL-41128  37.397  34.866   3.686
79675CL-    CL-41129  15.118  18.231   9.503
79676CL-    CL-41130  26.521  20.125  10.948
79677CL-    CL-41131  22.251  43.398  12.047
79678CL-    CL-41132  41.788  32.451  12.428
79679CL-    CL-41133  33.965  21.165  14.882
79680CL-    CL-41134  22.556  22.562   5.230
79681CL-    CL-41135  12.117  19.123   2.786
79682CL-    CL-41136   6.326  14.743  14.856
79683CL-    CL-41137  11.240  36.919  11.583
79684CL-    CL-41138  37.420  39.824   2.829
79685CL-    CL-41139  13.285  27.004   3.698
79686CL-    CL-41140  11.682  41.465  10.518
79687CL-    CL-41141  21.100  30.017  14.021
79688CL-    CL-41142  11.184  42.942   2.672
79689CL-    CL-41143   7.715  24.519  12.034
79690CL-    CL-41144  20.603  25.494  10.506
79691CL-    CL-41145   6.715  24.688  14.293
79692CL-    CL-41146  44.954  19.756  12.510
79693CL-    CL-41147   8.350  17.738   1.260
79694CL-    CL-41148  37.877   5.693  12.416
79695CL-    CL-41149  22.576   8.719  14.975
79696CL-    CL-41150  13.131  36.874  12.402
79697CL-    CL-41151   7.672  44.292  11.608
79698CL-    CL-41152  39.938  20.033  11.082
79699CL-    CL-41153   3.860  42.986   4.301
79700CL-    CL-41154   0.939  43.923   0.921
79701CL-    CL-41155  35.483  22.113   2.295
79702CL-    CL-41156  38.073  29.473   3.773
79703CL-    CL-41157  34.494  22.052   0.840
79704CL-    CL-41158  19.539  18.780  12.028
79705CL-    CL-41159  36.966   9.773  13.330
79706CL-    CL-41160   6.233  18.117   4.203
79707CL-    CL-41161  36.487  25.058   2.226
79708CL-    CL-41162  34.544  18.570  13.921
79709CL-    CL-41163  20.171  23.652  11.904
79710CL-    CL-41164  24.544  24.139   2.404
79711CL-    CL-41165  22.068  37.060  13.379
79712CL-    CL-41166  29.556  13.277   0.466
79713CL-    CL-41167  31.497  23.675  10.901
79714CL-    CL-41168  28.986   4.399  14.928
79715CL-    CL-41169  16.694  26.456  10.481
79716CL-    CL-41170   7.188  25.173  13.002
79717CL-    CL-41171  30.635  38.559   4.129
79718CL-    CL-41172  40.458   3.910  13.514
79719CL-    CL-41173  14.770   0.831  13.883
79720CL-    CL-41174  11.209   2.795  14.785
79721CL-    CL-41175  40.528  35.564   1.876
79722CL-    CL-41176  30.583  12.831  11.950
79723CL-    CL-41177  26.041  21.068   1.241
79724CL-    CL-41178   5.323  22.559   3.208
79725CL-    CL-41179  13.767  27.491   1.386
79726CL-    CL-41180  21.744   8.265   0.331
79727CL-    CL-41181  24.072  40.530   0.430
79728CL-    CL-41182  27.083  19.229  10.946
79729CL-    CL-41183  17.211  14.826   0.739
79730CL-    CL-41184  16.584   8.261  12.866
79731CL-    CL-41185  14.221  32.072  12.877
79732CL-    CL-41186   8.312  26.651  13.835
79733CL-    CL-41187  23.217  26.477   5.317
79734CL-    CL-41188  31.910  11.699  13.801
79735CL-    CL-41189  20.622   6.879   4.214
79736CL-    CL-41190  18.058  37.048   3.186
79737CL-    CL-41191  18.242  19.684  10.554
79738CL-    CL-41192  31.930   8.404   1.408
79739CL-    CL-41193   1.481  39.382   2.183
79740CL-    CL-41194   0.778  22.211   4.712
79741CL-    CL-41195  14.259   9.677   2.890
79742CL-    CL-41196  30.481  10.155  10.929
79743CL-    CL-41197  40.814  33.418   2.848
79744CL-    CL-41198  36.485  40.421   0.400
79745CL-    CL-41199   1.961  27.159   4.669
79746CL-    CL-41200  16.582  16.608  14.318
79747CL-    CL-41201  22.711  27.592  10.092
79748CL-    CL-41202  16.243  17.623  14.853
79749CL-    CL-41203   3.878   5.886  12.362
79750CL-    CL-41204  19.588  17.117   4.661
79751CL-    CL-41205   5.360  44.296   1.748
79752CL-    CL-41206  26.986   5.280  14.390
79753CL-    CL-41207  25.160  14.605   5.199
79754CL-    CL-41208   4.914   1.480  10.500
79755CL-    CL-41209  43.802  35.486  10.460
79756CL-    CL-41210   2.449   4.398  12.398
79757CL-    CL-41211  15.145  34.071  14.498
79758CL-    CL-41212  36.540  15.694  11.907
79759CL-    CL-41213  18.119  10.783   4.259
79760CL-    CL-41214  30.915  23.085   4.609
79761CL-    CL-41215  25.167  14.745  10.491
79762CL-    CL-41216  44.263  44.293   2.854
79763CL-    CL-41217  19.150  29.931   3.697
79764CL-    CL-41218   9.862  37.533   5.158
79765CL-    CL-41219  34.014  37.426   0.377
79766CL-    CL-41220  27.943  23.657   0.468
79767CL-    CL-41221  30.434  28.104  14.385
79768CL-    CL-41222  25.683  17.698   2.372
79769CL-    CL-41223  32.950  16.246   3.868
79770CL-    CL-41224  42.955   0.428  13.991
79771CL-    CL-41225   0.321   0.963  11.467
79772CL-    CL-41226  17.169  14.645   2.686
79773CL-    CL-41227  17.699  34.380  13.837
79774CL-    CL-41228  37.013  31.930  12.067
79775CL-    CL-41229  32.466   4.727  13.946
79776CL-    CL-41230  35.588  37.511  14.511
79777CL-    CL-41231   2.831   8.803  12.882
79778CL-    CL-41232  44.497  22.719   5.140
79779CL-    CL-41233  44.761  16.731  12.523
79780CL-    CL-41234  11.769   2.280  13.921
79781CL-    CL-41235  19.199  41.368   3.840
79782CL-    CL-41236  40.541  14.812  10.633
79783CL-    CL-41237  38.482  15.266  12.873
79784CL-    CL-41238  36.548  33.412  12.853
79785CL-    CL-41239  29.070  19.174  12.980
79786CL-    CL-41240  28.003  12.791  14.864
79787CL-    CL-41241  36.954  17.082   3.635
79788CL-    CL-41242   3.889  41.903  12.470
79789CL-    CL-41243   6.894  14.763  12.063
79790CL-    CL-41244  29.990  23.219   0.470
79791CL-    CL-41245  20.672  19.080   1.917
79792CL-    CL-41246  16.729   7.864  13.897
79793CL-    CL-41247  25.530  43.790  12.053
79794CL-    CL-41248  31.116   6.314   1.235
79795CL-    CL-41249  29.101   7.260   1.927
79796CL-    CL-41250   7.676  43.829  10.922
79797CL-    CL-41251  25.033  35.955   1.445
79798CL-    CL-41252  43.278  42.861   3.355
79799CL-    CL-41253  37.449  12.138   1.210
79800CL-    CL-41254  35.860  16.810   0.478
79801CL-    CL-41255  28.528  42.785   2.835
79802CL-    CL-41256   2.937  44.860   2.297
79803CL-    CL-41257  38.570   8.856   2.749
79804CL-    CL-41258  28.104   8.301  13.520
79805CL-    CL-41259  43.820  44.909  13.462
79806CL-    CL-41260   1.293  24.558   4.158
79807CL-    CL-41261   9.280  16.729  14.372
79808CL-    CL-41262  38.402  11.139  12.083
79809CL-    CL-41263  20.209   0.485   2.698
79810CL-    CL-41264  42.483  35.532   0.820
79811CL-    CL-41265  40.324  13.745   0.772
79812CL-    CL-41266  29.133   9.302  14.994
79813CL-    CL-41267   4.810   0.252  13.829
79814CL-    CL-41268  36.994  13.795  12.991
79815CL-    CL-41269  33.964  22.252  12.386
79816CL-    CL-41270  43.363  25.578  12.847
79817CL-    CL-41271  36.845  21.161  13.524
79818CL-    CL-41272  44.322  10.353   4.712
79819CL-    CL-41273   0.773  11.659   1.727
79820CL-    CL-41274  25.147  38.049  10.953
79821CL-    CL-41275  39.851  38.988   3.282
79822CL-    CL-41276  12.282  27.102  12.832
79823CL-    CL-41277   4.391   1.468  12.025
79824CL-    CL-41278  18.059  24.064  14.772
79825CL-    CL-41279  23.232  15.788   3.864
79826CL-    CL-41280  24.631  22.208   0.325
79827CL-    CL-41281  29.124  10.216   2.184
79828CL-    CL-41282  34.419   2.749  14.321
79829CL-    CL-41283  42.371  18.233  13.986
79830CL-    CL-41284  43.913  11.344  13.478
79831CL-    CL-41285   8.400  18.129   2.893
79832CL-    CL-41286   7.239   6.794   2.231
79833CL-    CL-41287  33.595  33.449   2.373
79834CL-    CL-41288  37.548  10.708  13.827
79835CL-    CL-41289  22.009  33.903  14.346
79836CL-    CL-41290  18.207  29.925  11.479
79837CL-    CL-41291  14.672  18.678   1.249
79838CL-    CL-41292  29.644  33.020   1.879
79839CL-    CL-41293   3.814  38.375  14.359
79840CL-    CL-41294  29.586  25.643   0.397
79841CL-    CL-41295   4.819  43.442   0.828
79842CL-    CL-41296  30.467   9.265   0.940
79843CL-    CL-41297   2.248  35.957  13.855
79844CL-    CL-41298   8.309  24.093   4.717
79845CL-    CL-41299   5.719   0.818   3.785
79846CL-    CL-41300  19.276   3.776   0.941
79847CL-    CL-41301  20.600   5.275  13.919
79848CL-    CL-41302  16.134  44.444   3.660
79849CL-    CL-41303  42.971  42.345  13.939
79850CL-    CL-41304  13.183  23.099  12.869
79851CL-    CL-41305  23.037   3.287  13.483
79852CL-    CL-41306  32.991   6.803  11.572
79853CL-    CL-41307  36.014  40.479   1.730
79854CL-    CL-41308  22.522  34.884  13.516
79855CL-    CL-41309  22.561  23.056   3.636
79856CL-    CL-41310  18.281  41.301   1.899
79857CL-    CL-41311  22.088   4.751   2.788
79858CL-    CL-41312   8.769  35.360   2.405
79859CL-    CL-41313  44.920  38.448  12.923
79860CL-    CL-41314  26.971   9.180  14.294
79861CL-    CL-41315   9.755  16.722   4.815
79862CL-    CL-41316  20.054  28.120  11.127
79863CL-    CL-41317  41.953  30.624  14.480
79864CL-    CL-41318  28.988  27.526  11.030
79865CL-    CL-41319   6.420  14.687  11.520
79866CL-    CL-41320  28.138  10.172   2.771
79867CL-    CL-41321  40.923  24.529   1.827
79868CL-    CL-41322  13.623  16.802   3.229
79869CL-    CL-41323  37.482   9.360  14.860
79870CL-    CL-41324   3.424   7.347  10.921
79871CL-    CL-41325  15.715  35.394  12.069
79872CL-    CL-41326  14.277  42.422  14.027
79873CL-    CL-41327  42.386  17.643   2.805
79874CL-    CL-41328  18.576  24.555   2.299
79875CL-    CL-41329   3.870  10.709  11.082
79876CL-    CL-41330  40.927  19.705  14.379
79877CL-    CL-41331  36.579   8.670   3.271
79878CL-    CL-41332   2.895   8.358   1.810
79879CL-    CL-41333  22.098   2.453  13.811
79880CL-    CL-41334   8.660  11.341   2.776
79881CL-    CL-41335  36.399   6.776   3.216
79882CL-    CL-41336  18.182   1.355   0.348
79883CL-    CL-41337  42.446  24.071  12.558
79884CL-    CL-41338  29.961   4.205   4.126
79885CL-    CL-41339   3.285  38.480  13.798
79886CL-    CL-41340   6.819  24.131  11.583
79887CL-    CL-41341   8.390   2.250   2.388
79888CL-    CL-41342   5.418  17.616   1.722
79889CL-    CL-41343  40.341  30.123   1.768
79890CL-    CL-41344   9.246   2.445   2.829
79891CL-    CL-41345  36.369  14.278  13.338
79892CL-    CL-41346  36.895  27.183   4.828
79893CL-    CL-41347  38.958  17.280   9.951
79894CL-    CL-41348   5.808  40.990   2.388
79895CL-    CL-41349  15.779  31.961   2.384
79896CL-    CL-41350  34.573  17.665   4.820
79897CL-    CL-41351   0.959  18.262   5.285
79898CL-    CL-41352  34.892   4.812  14.829
79899CL-    CL-41353  22.576  33.908  10.555
79900CL-    CL-41354  29.021   7.877  12.568
79901CL-    CL-41355  19.626  42.475  12.423
79902CL-    CL-41356  16.690  18.598   3.794
79903CL-    CL-41357   9.253   8.825  11.059
79904CL-    CL-41358  21.026  10.722  12.566
79905CL-    CL-41359   6.711  30.532  13.464
79906CL-    CL-41360  40.380   5.821   0.785
79907CL-    CL-41361  30.563  13.278  12.999
79908CL-    CL-41362   6.728  43.280   2.257
79909CL-    CL-41363  25.626  29.173   4.176
79910CL-    CL-41364   0.796  10.310   3.651
79911CL-    CL-41365   9.150  38.336  13.342
79912CL-    CL-41366  13.143  43.782  11.009
79913CL-    CL-41367  16.580  26.090  13.324
79914CL-    CL-41368  27.130  15.808   1.757
79915CL-    CL-41369  36.900  17.297  12.367
79916CL-    CL-41370  29.482  41.304   4.169
79917CL-    CL-41371  14.250  37.988  14.919
79918CL-    CL-41372   4.332  19.150  12.834
79919CL-    CL-41373  35.939  23.066   1.281
79920CL-    CL-41374  29.431   4.776  10.498
79921CL-    CL-41375  13.122  17.676   4.323
79922CL-    CL-41376  38.332   3.344   3.776
79923CL-    CL-41377  22.593   4.256  12.472
79924CL-    CL-41378  29.509  18.780  13.950
79925CL-    CL-41379  10.657  18.066  13.470
79926CL-    CL-41380  32.451  11.209   3.367
79927CL-    CL-41381   9.271   1.366  12.034
79928CL-    CL-41382  30.986  35.061  11.860
79929CL-    CL-41383  14.225  40.454  11.599
79930CL-    CL-41384  40.316  10.683   1.344
79931CL-    CL-41385  14.166  15.719  12.092
79932CL-    CL-41386   5.397  22.157   4.193
79933CL-    CL-41387  17.639  33.125  13.401
79934CL-    CL-41388  18.142  29.541  11.549
79935CL-    CL-41389  22.095  20.531   0.965
79936CL-    CL-41390  24.490  16.178   3.154
79937CL-    CL-41391   7.877  28.618  14.289
79938CL-    CL-41392  36.562  27.452  12.093
79939CL-    CL-41393  43.899  16.577  11.089
79940CL-    CL-41394  42.385  36.091  12.450
79941CL-    CL-41395   2.419  21.676  11.477
79942CL-    CL-41396   6.320  21.027   3.682
79943CL-    CL-41397  30.461  41.398   0.311
79944CL-    CL-41398  17.636   1.322  14.879
79945CL-    CL-41399   0.783  14.617  11.474
79946CL-    CL-41400  31.527  42.859  14.301
79947CL-    CL-41401  13.314  40.366   2.832
79948CL-    CL-41402  10.330  38.401   2.270
79949CL-    CL-41403  13.238   6.321   3.272
79950CL-    CL-41404  36.922   8.295   2.386
79951CL-    CL-41405  24.591  17.662  13.978
79952CL-    CL-41406  27.635  38.922   3.704
79953CL-    CL-41407  17.604  16.667   2.365
79954CL-    CL-41408  14.686  13.194  12.890
79955CL-    CL-41409   9.662  13.644  14.829
79956CL-    CL-41410  43.290  39.552  12.848
79957CL-    CL-41411   2.238  19.776   0.472
79958CL-    CL-41412  43.882  35.565  13.036
79959CL-    CL-41413  39.506  29.521   3.783
79960CL-    CL-41414  29.106   1.854   3.251
79961CL-    CL-41415  27.092  22.007   1.769
79962CL-    CL-41416  40.885  42.030   3.837
79963CL-    CL-41417   0.895  33.455  11.533
79964CL-    CL-41418  16.259  17.654  13.995
79965CL-    CL-41419  21.095  13.812  11.555
79966CL-    CL-41420  16.192  37.451   3.865
79967CL-    CL-41421  41.985  29.429  11.922
79968CL-    CL-41422  39.480  37.463   3.245
79969CL-    CL-41423  28.564  42.860  12.940
79970CL-    CL-41424  19.078  30.132  13.860
79971CL-    CL-41425  31.107  28.550   0.366
79972CL-    CL-41426  32.886  28.679  13.810
79973CL-    CL-41427  41.823  30.067  10.413
79974CL-    CL-41428  20.202  28.477  13.373
79975CL-    CL-41429  38.373  33.482  12.830
79976CL-    CL-41430  44.487  25.000  14.831
79977CL-    CL-41431  28.001  20.753  10.028
79978CL-    CL-41432  34.913   2.894   4.815
79979CL-    CL-41433  31.558  30.063  13.823
79980CL-    CL-41434  39.545  30.003  12.450
79981CL-    CL-41435   7.698  37.438  10.079
79982CL-    CL-41436  35.581  38.820   4.228
79983CL-    CL-41437   0.860  12.708   3.348
79984CL-    CL-41438  24.154  22.079   0.280
79985CL-    CL-41439  13.243  40.539   0.912
79986CL-    CL-41440  25.652  38.988   3.751
79987CL-    CL-41441  17.077  27.025  13.885
79988CL-    CL-41442  32.619  17.629  13.409
79989CL-    CL-41443   8.878  43.941   4.684
79990CL-    CL-41444  41.024  14.773   0.839
79991CL-    CL-41445  23.710  44.336   1.250
79992CL-    CL-41446  19.607  39.066  13.536
79993CL-    CL-41447  28.481   2.321  14.502
79994CL-    CL-41448  11.364   4.805   1.368
79995CL-    CL-41449  33.534   1.885  12.429
79996CL-    CL-41450   7.889   9.329  12.841
79997CL-    CL-41451  36.910  39.404   2.709
79998CL-    CL-41452  15.685  27.594  12.518
79999CL-    CL-41453  23.072  15.143   1.917
80000CL-    CL-41454   5.393  38.421  10.940
80001CL-    CL-41455  23.640  13.271   0.814
80002CL-    CL-41456  40.500  21.636   3.854
80003CL-    CL-41457   8.711  39.383  13.353
80004CL-    CL-41458   8.264  16.091   2.709
80005CL-    CL-41459  27.130  33.542  14.010
80006CL-    CL-41460   6.801  23.104   0.954
80007CL-    CL-41461  10.222   8.379   1.842
80008CL-    CL-41462  33.920  26.483  11.463
80009CL-    CL-41463  19.538  17.574  12.888
80010CL-    CL-41464   4.791   7.307  12.917
80011CL-    CL-41465  18.724   5.930  11.044
80012CL-    CL-41466  14.595  18.732  10.124
80013CL-    CL-41467  14.707  25.110   1.293
80014CL-    CL-41468  14.242  36.421   1.822
80015CL-    CL-41469   9.337  44.466  13.501
80016CL-    CL-41470  28.114  22.648   4.629
80017CL-    CL-41471  22.180   8.655  14.393
80018CL-    CL-41472  31.630  23.650   1.826
80019CL-    CL-41473  30.466  35.582   4.341
80020CL-    CL-41474  22.144  24.614  12.994
80021CL-    CL-41475  25.196  13.703   2.272
80022CL-    CL-41476   7.688  41.956  11.388
80023CL-    CL-41477   7.195  37.057  13.353
80024CL-    CL-41478  21.119   6.688   1.278
80025CL-    CL-41479  12.812  28.676   3.241
80026CL-    CL-41480  13.797  23.700  14.001
80027CL-    CL-41481   9.179  16.270   1.777
80028CL-    CL-41482  12.270  32.998  12.402
80029CL-    CL-41483   0.918  29.075  10.450
80030CL-    CL-41484   2.337  29.456  13.370
80031CL-    CL-41485  19.229  13.818  14.312
80032CL-    CL-41486  11.687  21.183  12.931
80033CL-    CL-41487  44.452  13.840   4.829
80034CL-    CL-41488  10.137   9.315  14.332
80035CL-    CL-41489  25.078  16.753   0.311
80036CL-    CL-41490  42.009  38.919   3.281
80037CL-    CL-41491   0.418   6.849  12.510
80038CL-    CL-41492  41.799   4.718   4.194
80039CL-    CL-41493  13.343  24.100   0.860
80040CL-    CL-41494  23.595  24.186  11.941
80041CL-    CL-41495  35.860  39.996   2.304
80042CL-    CL-41496  28.932  15.774   2.804
80043CL-    CL-41497   6.839  42.825  13.443
80044CL-    CL-41498  34.477  38.400   4.737
80045CL-    CL-41499   8.841  27.141   3.277
80046CL-    CL-41500  11.790   0.441   2.879
80047CL-    CL-41501  33.523  25.617  10.921
80048CL-    CL-41502  25.991  13.804   2.779
80049CL-    CL-41503  31.457   6.694   1.423
80050CL-    CL-41504  12.654  15.813  11.047
80051CL-    CL-41505  43.881  25.154   1.856
80052CL-    CL-41506   2.876  18.157  10.892
80053CL-    CL-41507  14.269  22.065  12.371
80054CL-    CL-41508  28.988  36.012   1.442
80055CL-    CL-41509   8.216   1.244  14.885
80056CL-    CL-41510  44.972  21.206   1.393
80057CL-    CL-41511  22.598  39.529   0.788
80058CL-    CL-41512  22.157  40.997  12.430
80059CL-    CL-41513  15.760  43.003   3.741
80060CL-    CL-41514  40.869   9.182   0.908
80061CL-    CL-41515  33.941  44.446   4.660
80062CL-    CL-41516   3.368  17.733  14.895
80063CL-    CL-41517  14.612  24.534   4.320
80064CL-    CL-41518  29.638  16.309  13.997
80065CL-    CL-41519   2.959  39.987   2.823
80066CL-    CL-41520  38.431  21.104   1.769
80067CL-    CL-41521  27.516  37.007   1.881
80068CL-    CL-41522  22.537   4.767  13.813
80069CL-    CL-41523   5.795   1.302   4.834
80070CL-    CL-41524  34.500  40.511   4.713
80071CL-    CL-41525  33.922  29.098   3.325
80072CL-    CL-41526   8.679  20.584   4.350
80073CL-    CL-41527  19.198  44.796  14.845
80074CL-    CL-41528   2.821  22.553   0.479
80075CL-    CL-41529   4.435   8.897   0.873
80076CL-    CL-41530  39.867   2.768   2.264
80077CL-    CL-41531  12.835  37.337  12.848
80078CL-    CL-41532  23.236  41.021  11.575
80079CL-    CL-41533   4.918   7.256  12.439
  45.00000  45.00000  15.00000   0.00000   0.00000   0.00000   0.00000   0.00000   0.00000

